<event>
 8    1  0.3400573E-004  0.1286742E+03  0.7546771E-02  0.1229730E+00
          4   -1    0    0  501    0  0.00000000000E+00  0.00000000000E+00  0.41632824862E+02  0.41632824862E+02  0.00000000000E+00 0. -1.
         -4   -1    0    0    0  501 -0.00000000000E+00 -0.00000000000E+00 -0.52987865498E+03  0.52987865498E+03  0.00000000000E+00 0.  1.
         23    2    1    2    0    0 -0.44449533048E+02 -0.77030643691E+02 -0.38868938328E+03  0.40943436051E+03  0.92992353667E+02 0.  0.
         23    2    1    2    0    0  0.44449533048E+02  0.77030643691E+02 -0.99556446840E+02  0.16207711933E+03  0.91913140774E+02 0.  0.
          5    1    4    4  502    0  0.30803906737E+02  0.95074068206E+02 -0.61154470723E+02  0.11726004607E+03  0.47000000000E+01 0. -1.
         -5    1    3    3    0  503 -0.60428535374E+02 -0.63479825297E+02 -0.37207038748E+03  0.38228230321E+03  0.47000000000E+01 0.  1.
          5    1    3    3  503    0  0.15979002326E+02 -0.13550818394E+02 -0.16618995795E+02  0.27152057302E+02  0.47000000000E+01 0. -1.
         -5    1    4    4    0  502  0.13645626311E+02 -0.18043424515E+02 -0.38401976117E+02  0.44817073257E+02  0.47000000000E+01 0.  1.
<mgrwt>
<rscale>  0 0.12847935E+03</rscale>
<asrwt>0</asrwt>
<pdfrwt beam="1">  1        4 0.64050504E-02 0.12867424E+03</pdfrwt>
<pdfrwt beam="2">  1       -4 0.81519788E-01 0.12867424E+03</pdfrwt>
<totfact> 0.35820928E+02</totfact>
</mgrwt>
</event>
<event>
 8    1  0.3400573E-004  0.9402656E+02  0.7546771E-02  0.1293451E+00
          1   -1    0    0  501    0  0.00000000000E+00  0.00000000000E+00  0.87370243874E+02  0.87370243874E+02  0.00000000000E+00 0. -1.
         -1   -1    0    0    0  501 -0.00000000000E+00 -0.00000000000E+00 -0.10273368230E+03  0.10273368230E+03  0.00000000000E+00 0.  1.
         23    2    1    2    0    0 -0.21969698632E+02  0.69614707513E+01 -0.19804189480E+02  0.96089542762E+02  0.91158458600E+02 0.  0.
         23    2    1    2    0    0  0.21969698632E+02 -0.69614707513E+01  0.44407510506E+01  0.94014383415E+02  0.91037653123E+02 0.  0.
          5    1    3    3  502    0 -0.31668331925E+02 -0.24264013849E+02 -0.40552531968E+02  0.57080850239E+02  0.47000000000E+01 0. -1.
         -5    1    4    4    0  503  0.24176677599E+02  0.22766507094E+02 -0.32234956862E+02  0.46518899695E+02  0.47000000000E+01 0.  1.
          5    1    4    4  503    0 -0.22069789673E+01 -0.29727977845E+02  0.36675707912E+02  0.47495483720E+02  0.47000000000E+01 0. -1.
         -5    1    3    3    0  502  0.96986332938E+01  0.31225484601E+02  0.20748342488E+02  0.39008692523E+02  0.47000000000E+01 0.  1.
<mgrwt>
<rscale>  0 0.93997269E+02</rscale>
<asrwt>0</asrwt>
<pdfrwt beam="1">  1        1 0.13441576E-01 0.94026562E+02</pdfrwt>
<pdfrwt beam="2">  1       -1 0.15805182E-01 0.94026562E+02</pdfrwt>
<totfact> 0.11528684E+04</totfact>
</mgrwt>
</event>
<event>
 8    1  0.3400573E-004  0.1202604E+03  0.7546771E-02  0.1246200E+00
         -1   -1    0    0    0  501 -0.00000000000E+00  0.00000000000E+00  0.79489767129E+02  0.79489767129E+02  0.00000000000E+00 0.  1.
          1   -1    0    0  501    0  0.00000000000E+00 -0.00000000000E+00 -0.18849121389E+03  0.18849121389E+03  0.00000000000E+00 0. -1.
         23    2    1    2    0    0  0.63411824935E+02 -0.84032293020E+01 -0.98582843362E+02  0.15550284411E+03  0.10183753590E+03 0.  0.
         23    2    1    2    0    0 -0.63411824935E+02  0.84032293020E+01 -0.10418603403E+02  0.11247813691E+03  0.91929919947E+02 0.  0.
          5    1    4    4  502    0  0.28547828592E+01 -0.32623447763E+02  0.31285463976E+01  0.33231264370E+02  0.47000000000E+01 0. -1.
         -5    1    4    4    0  502 -0.66266607795E+02  0.41026677065E+02 -0.13547149801E+02  0.79246872539E+02  0.47000000000E+01 0.  1.
          5    1    3    3  503    0  0.17613725648E+02 -0.19613592156E+02 -0.10438525577E+03  0.10776505904E+03  0.47000000000E+01 0. -1.
         -5    1    3    3    0  503  0.45798099288E+02  0.11210362854E+02  0.58024124084E+01  0.47737785070E+02  0.47000000000E+01 0.  1.
<mgrwt>
<rscale>  0 0.11813842E+03</rscale>
<asrwt>0</asrwt>
<pdfrwt beam="1">  1        1 0.28998648E-01 0.12026037E+03</pdfrwt>
<pdfrwt beam="2">  1       -1 0.12229195E-01 0.12026037E+03</pdfrwt>
<totfact> 0.66268550E+03</totfact>
</mgrwt>
</event>
<event>
 8    1  0.3400573E-004  0.9051120E+02  0.7546771E-02  0.1303085E+00
          1   -1    0    0  501    0  0.00000000000E+00  0.00000000000E+00  0.54340766521E+03  0.54340766521E+03  0.00000000000E+00 0. -1.
         -1   -1    0    0    0  501 -0.00000000000E+00 -0.00000000000E+00 -0.16555161529E+02  0.16555161529E+02  0.00000000000E+00 0.  1.
         23    2    1    2    0    0  0.75052860823E+01 -0.90043817585E+01  0.17229216444E+03  0.19461980026E+03  0.89748919297E+02 0.  0.
         23    2    1    2    0    0 -0.75052860823E+01  0.90043817585E+01  0.35456033924E+03  0.36534302648E+03  0.87321730550E+02 0.  0.
          5    1    4    4  502    0  0.58990714325E+01  0.39774983662E+02  0.28613256334E+03  0.28898232156E+03  0.47000000000E+01 0. -1.
         -5    1    3    3    0  503  0.46000976634E+00 -0.45944877696E+02  0.57615809396E+02  0.73843177667E+02  0.47000000000E+01 0.  1.
          5    1    3    3  503    0  0.70452763160E+01  0.36940495938E+02  0.11467635504E+03  0.12077662259E+03  0.47000000000E+01 0. -1.
         -5    1    4    4    0  502 -0.13404357515E+02 -0.30770601903E+02  0.68427775901E+02  0.76360704925E+02  0.47000000000E+01 0.  1.
<mgrwt>
<rscale>  0 0.89903558E+02</rscale>
<asrwt>0</asrwt>
<pdfrwt beam="1">  1        1 0.83601165E-01 0.90511197E+02</pdfrwt>
<pdfrwt beam="2">  1       -1 0.25469483E-02 0.90511197E+02</pdfrwt>
<totfact> 0.17636780E+04</totfact>
</mgrwt>
</event>
<event>
 8    1  0.3400573E-004  0.1257177E+03  0.7546771E-02  0.1234147E+00
         -1   -1    0    0    0  501 -0.00000000000E+00  0.00000000000E+00  0.23539949844E+02  0.23539949844E+02  0.00000000000E+00 0.  1.
          1   -1    0    0  501    0  0.00000000000E+00 -0.00000000000E+00 -0.87626676995E+03  0.87626676995E+03  0.00000000000E+00 0. -1.
         23    2    1    2    0    0  0.84610350209E+02 -0.10503159588E+02 -0.64466435785E+03  0.65671225349E+03  0.91703990496E+02 0.  0.
         23    2    1    2    0    0 -0.84610350209E+02  0.10503159588E+02 -0.20806246226E+03  0.24309446631E+03  0.92388871762E+02 0.  0.
          5    1    4    4  502    0  0.43181440116E+01  0.21351155989E+02 -0.10093106395E+03  0.10336192674E+03  0.47000000000E+01 0. -1.
         -5    1    4    4    0  502 -0.88928494220E+02 -0.10847996401E+02 -0.10713139830E+03  0.13973253956E+03  0.47000000000E+01 0.  1.
          5    1    3    3  503    0  0.72080631170E+02  0.28518265159E+02 -0.50975878638E+03  0.51564039711E+03  0.47000000000E+01 0. -1.
         -5    1    3    3    0  503  0.12529719039E+02 -0.39021424747E+02 -0.13490557147E+03  0.14107185638E+03  0.47000000000E+01 0.  1.
<mgrwt>
<rscale>  0 0.12559186E+03</rscale>
<asrwt>0</asrwt>
<pdfrwt beam="1">  1        1 0.13481028E+00 0.12571767E+03</pdfrwt>
<pdfrwt beam="2">  1       -1 0.36215306E-02 0.12571767E+03</pdfrwt>
<totfact> 0.55096358E+03</totfact>
</mgrwt>
</event>
<event>
 8    1  0.3400573E-004  0.1074822E+03  0.7546771E-02  0.1267923E+00
          1   -1    0    0  501    0  0.00000000000E+00  0.00000000000E+00  0.83210930145E+02  0.83210930145E+02  0.00000000000E+00 0. -1.
         -1   -1    0    0    0  501 -0.00000000000E+00 -0.00000000000E+00 -0.19901120572E+03  0.19901120572E+03  0.00000000000E+00 0.  1.
         23    2    1    2    0    0  0.20225246892E+02  0.52881707752E+02 -0.14072605230E+03  0.17707695008E+03  0.91361309243E+02 0.  0.
         23    2    1    2    0    0 -0.20225246892E+02 -0.52881707752E+02  0.24925776726E+02  0.10514518579E+03  0.85021645020E+02 0.  0.
          5    1    4    4  502    0  0.55220056129E+01 -0.69888440737E+02  0.11634728855E+02  0.71220387602E+02  0.47000000000E+01 0. -1.
         -5    1    4    4    0  502 -0.25747252505E+02  0.17006732985E+02  0.13291047871E+02  0.33924798184E+02  0.47000000000E+01 0.  1.
          5    1    3    3  503    0  0.94426419858E+01  0.21026851394E+02  0.77496157317E+01  0.24767690873E+02  0.47000000000E+01 0. -1.
         -5    1    3    3    0  503  0.10782604906E+02  0.31854856359E+02 -0.14847566803E+03  0.15230925921E+03  0.47000000000E+01 0.  1.
<mgrwt>
<rscale>  0 0.10612309E+03</rscale>
<asrwt>0</asrwt>
<pdfrwt beam="1">  1        1 0.12801681E-01 0.10748221E+03</pdfrwt>
<pdfrwt beam="2">  1       -1 0.30617109E-01 0.10748221E+03</pdfrwt>
<totfact> 0.42803700E+03</totfact>
</mgrwt>
</event>
<event>
 8    1  0.3400573E-004  0.1092531E+03  0.7546771E-02  0.1270436E+00
          1   -1    0    0  501    0  0.00000000000E+00  0.00000000000E+00  0.59820634443E+02  0.59820634443E+02  0.00000000000E+00 0. -1.
         -1   -1    0    0    0  501 -0.00000000000E+00 -0.00000000000E+00 -0.18109978632E+03  0.18109978632E+03  0.00000000000E+00 0.  1.
         23    2    1    2    0    0 -0.28498601572E+01 -0.13664740933E+02 -0.26687058345E+02  0.96407804146E+02  0.91582851940E+02 0.  0.
         23    2    1    2    0    0  0.28498601572E+01  0.13664740933E+02 -0.94592093536E+02  0.14451261662E+03  0.10835767326E+03 0.  0.
          5    1    3    3  502    0 -0.60280507259E+01 -0.48134687684E+02 -0.35599839974E+02  0.60354984551E+02  0.47000000000E+01 0. -1.
         -5    1    3    3    0  502  0.31781905687E+01  0.34469946752E+02  0.89127816289E+01  0.36052819595E+02  0.47000000000E+01 0.  1.
          5    1    4    4  503    0 -0.33852703365E+02 -0.25706194370E+02 -0.96468775792E+01  0.43840234958E+02  0.47000000000E+01 0. -1.
         -5    1    4    4    0  503  0.36702563522E+02  0.39370935303E+02 -0.84945215956E+02  0.10067238166E+03  0.47000000000E+01 0.  1.
<mgrwt>
<rscale>  0 0.10483963E+03</rscale>
<asrwt>0</asrwt>
<pdfrwt beam="1">  1        1 0.92031745E-02 0.10925306E+03</pdfrwt>
<pdfrwt beam="2">  1       -1 0.27861506E-01 0.10925306E+03</pdfrwt>
<totfact> 0.77282021E+03</totfact>
</mgrwt>
</event>
<event>
 8    1  0.3400573E-004  0.1171456E+03  0.7546771E-02  0.1247930E+00
         -1   -1    0    0    0  501 -0.00000000000E+00  0.00000000000E+00  0.15762084611E+03  0.15762084611E+03  0.00000000000E+00 0.  1.
          1   -1    0    0  501    0  0.00000000000E+00 -0.00000000000E+00 -0.59417578552E+03  0.59417578552E+03  0.00000000000E+00 0. -1.
         23    2    1    2    0    0 -0.69304682648E+02 -0.25815960359E+02  0.12900402535E+03  0.17425595696E+03  0.90848759668E+02 0.  0.
         23    2    1    2    0    0  0.69304682648E+02  0.25815960359E+02 -0.56555896476E+03  0.57754067467E+03  0.90701077301E+02 0.  0.
          5    1    4    4  502    0  0.83583023794E+02  0.42974610441E+02 -0.46514743380E+03  0.47457050496E+03  0.47000000000E+01 0. -1.
         -5    1    4    4    0  502 -0.14278341146E+02 -0.17158650082E+02 -0.10041153097E+03  0.10297016971E+03  0.47000000000E+01 0.  1.
          5    1    3    3  503    0 -0.32195596390E+00  0.28451918510E+02  0.25806057967E+02  0.38699585919E+02  0.47000000000E+01 0. -1.
         -5    1    3    3    0  503 -0.68982726684E+02 -0.54267878869E+02  0.10319796739E+03  0.13555637104E+03  0.47000000000E+01 0.  1.
<mgrwt>
<rscale>  0 0.11711700E+03</rscale>
<asrwt>0</asrwt>
<pdfrwt beam="1">  1        1 0.91411660E-01 0.11714564E+03</pdfrwt>
<pdfrwt beam="2">  1       -1 0.24249361E-01 0.11714564E+03</pdfrwt>
<totfact> 0.53000695E+02</totfact>
</mgrwt>
</event>
<event>
 8    1  0.3400573E-004  0.1048977E+03  0.7546771E-02  0.1270473E+00
         -3   -1    0    0    0  501 -0.00000000000E+00  0.00000000000E+00  0.61027950315E+02  0.61027950315E+02  0.00000000000E+00 0.  1.
          3   -1    0    0  501    0  0.00000000000E+00 -0.00000000000E+00 -0.18611987950E+03  0.18611987950E+03  0.00000000000E+00 0. -1.
         23    2    1    2    0    0  0.19219648689E+02 -0.50384997753E+02 -0.85273313529E+02  0.13494691998E+03  0.89616350724E+02 0.  0.
         23    2    1    2    0    0 -0.19219648689E+02  0.50384997753E+02 -0.39818615654E+02  0.11220090984E+03  0.89974880500E+02 0.  0.
          5    1    4    4  502    0 -0.21743412257E+02 -0.17802516552E+02 -0.32798357300E+02  0.43445688092E+02  0.47000000000E+01 0. -1.
         -5    1    4    4    0  502  0.25237635679E+01  0.68187514305E+02 -0.70202583537E+01  0.68755221743E+02  0.47000000000E+01 0.  1.
          5    1    3    3  503    0  0.50643220003E+02 -0.51956197989E+02 -0.61593946217E+02  0.95289487628E+02  0.47000000000E+01 0. -1.
         -5    1    3    3    0  503 -0.31423571314E+02  0.15712002365E+01 -0.23679367312E+02  0.39657432350E+02  0.47000000000E+01 0.  1.
<mgrwt>
<rscale>  0 0.10482075E+03</rscale>
<asrwt>0</asrwt>
<pdfrwt beam="1">  1        3 0.28633827E-01 0.10489767E+03</pdfrwt>
<pdfrwt beam="2">  1       -3 0.93889155E-02 0.10489767E+03</pdfrwt>
<totfact> 0.20959828E+03</totfact>
</mgrwt>
</event>
<event>
 8    1  0.3400573E-004  0.1110282E+03  0.7546771E-02  0.1259365E+00
          1   -1    0    0  501    0  0.00000000000E+00  0.00000000000E+00  0.74062302930E+03  0.74062302930E+03  0.00000000000E+00 0. -1.
         -1   -1    0    0    0  501 -0.00000000000E+00 -0.00000000000E+00 -0.17443668440E+02  0.17443668440E+02  0.00000000000E+00 0.  1.
         23    2    1    2    0    0 -0.45834288401E+02  0.39266709633E+02  0.45104140689E+03  0.46415120103E+03  0.91407495412E+02 0.  0.
         23    2    1    2    0    0  0.45834288401E+02 -0.39266709633E+02  0.27213795397E+03  0.29391549671E+03  0.93191183766E+02 0.  0.
          5    1    4    4  502    0 -0.18197569860E+02 -0.33938831114E+02  0.15954202481E+03  0.16419117968E+03  0.47000000000E+01 0. -1.
         -5    1    3    3    0  503  0.68540212292E+01  0.29991738620E+02  0.45840768540E+02  0.55407111934E+02  0.47000000000E+01 0.  1.
          5    1    3    3  503    0 -0.52688309630E+02  0.92749710125E+01  0.40520063835E+03  0.40874408910E+03  0.47000000000E+01 0. -1.
         -5    1    4    4    0  502  0.64031858262E+02 -0.53278785194E+01  0.11259592917E+03  0.12972431702E+03  0.47000000000E+01 0.  1.
<mgrwt>
<rscale>  0 0.11065306E+03</rscale>
<asrwt>0</asrwt>
<pdfrwt beam="1">  1        1 0.11394198E+00 0.11102816E+03</pdfrwt>
<pdfrwt beam="2">  1       -1 0.26836419E-02 0.11102816E+03</pdfrwt>
<totfact> 0.10886301E+04</totfact>
</mgrwt>
</event>
<event>
 8    1  0.3400573E-004  0.9620025E+02  0.7546771E-02  0.1290998E+00
         -3   -1    0    0    0  501 -0.00000000000E+00  0.00000000000E+00  0.14201735845E+02  0.14201735845E+02  0.00000000000E+00 0.  1.
          3   -1    0    0  501    0  0.00000000000E+00 -0.00000000000E+00 -0.65161096201E+03  0.65161096201E+03  0.00000000000E+00 0. -1.
         23    2    1    2    0    0  0.14942217435E+02 -0.11361673388E+02 -0.25505287910E+03  0.27259211230E+03  0.94351105272E+02 0.  0.
         23    2    1    2    0    0 -0.14942217435E+02  0.11361673388E+02 -0.38235634707E+03  0.39322058556E+03  0.89853743829E+02 0.  0.
          5    1    4    4  502    0 -0.24027390696E+02  0.47754291548E+02 -0.24040769221E+03  0.24632445339E+03  0.47000000000E+01 0. -1.
         -5    1    4    4    0  502  0.90851732615E+01 -0.36392618160E+02 -0.14194865486E+03  0.14689613217E+03  0.47000000000E+01 0.  1.
          5    1    3    3  503    0  0.10636353835E+02 -0.48370408939E+02 -0.85409027620E+02  0.98841390534E+02  0.47000000000E+01 0.  1.
         -5    1    3    3    0  503  0.43058635994E+01  0.37008735551E+02 -0.16964385148E+03  0.17375072176E+03  0.47000000000E+01 0. -1.
<mgrwt>
<rscale>  0 0.95079126E+02</rscale>
<asrwt>0</asrwt>
<pdfrwt beam="1">  1        3 0.10024783E+00 0.96200252E+02</pdfrwt>
<pdfrwt beam="2">  1       -3 0.21848826E-02 0.96200252E+02</pdfrwt>
<totfact> 0.16212531E+03</totfact>
</mgrwt>
</event>
<event>
 8    1  0.3400573E-004  0.1383749E+03  0.7546771E-02  0.1215574E+00
          1   -1    0    0  501    0  0.00000000000E+00  0.00000000000E+00  0.11947572694E+04  0.11947572694E+04  0.00000000000E+00 0. -1.
         -1   -1    0    0    0  501 -0.00000000000E+00 -0.00000000000E+00 -0.16712693385E+02  0.16712693385E+02  0.00000000000E+00 0.  1.
         23    2    1    2    0    0  0.91637825771E+02  0.47738541462E+02  0.46526541562E+03  0.48540656480E+03  0.92038941358E+02 0.  0.
         23    2    1    2    0    0 -0.91637825771E+02 -0.47738541462E+02  0.71277916043E+03  0.72606339802E+03  0.91855685441E+02 0.  0.
          5    1    4    4  502    0 -0.67811775350E+02  0.15985139057E+02  0.33966615274E+03  0.34676958757E+03  0.47000000000E+01 0. -1.
         -5    1    3    3    0  503  0.28961914110E+01  0.31911665230E+02  0.44317411095E+02  0.54889573041E+02  0.47000000000E+01 0.  1.
          5    1    3    3  503    0  0.88741634360E+02  0.15826876231E+02  0.42094800452E+03  0.43051699176E+03  0.47000000000E+01 0. -1.
         -5    1    4    4    0  502 -0.23826050421E+02 -0.63723680518E+02  0.37311300768E+03  0.37929381044E+03  0.47000000000E+01 0.  1.
<mgrwt>
<rscale>  0 0.13834448E+03</rscale>
<asrwt>0</asrwt>
<pdfrwt beam="1">  1        1 0.18380874E+00 0.13837495E+03</pdfrwt>
<pdfrwt beam="2">  1       -1 0.25711845E-02 0.13837495E+03</pdfrwt>
<totfact> 0.53563154E+03</totfact>
</mgrwt>
</event>
<event>
 8    1  0.3400573E-004  0.9955252E+02  0.7546771E-02  0.1281428E+00
         -2   -1    0    0    0  501 -0.00000000000E+00  0.00000000000E+00  0.62136808880E+02  0.62136808880E+02  0.00000000000E+00 0.  1.
          2   -1    0    0  501    0  0.00000000000E+00 -0.00000000000E+00 -0.24444560734E+03  0.24444560734E+03  0.00000000000E+00 0. -1.
         23    2    1    2    0    0  0.27351086685E+02  0.30114942330E+02 -0.59281842769E+00  0.99554285862E+02  0.90860952590E+02 0.  0.
         23    2    1    2    0    0 -0.27351086685E+02 -0.30114942330E+02 -0.18171598003E+03  0.20702813035E+03  0.90470755858E+02 0.  0.
          5    1    4    4  502    0 -0.83822222672E+01 -0.53755360505E+02 -0.16101750568E+03  0.17002537330E+03  0.47000000000E+01 0. -1.
         -5    1    4    4    0  502 -0.18968864417E+02  0.23640418174E+02 -0.20698474353E+02  0.37002757049E+02  0.47000000000E+01 0.  1.
          5    1    3    3  503    0  0.48950720419E+02  0.10966111938E+02 -0.29540223423E+02  0.58404994996E+02  0.47000000000E+01 0. -1.
         -5    1    3    3    0  503 -0.21599633735E+02  0.19148830392E+02  0.28947404995E+02  0.41149290867E+02  0.47000000000E+01 0.  1.
<mgrwt>
<rscale>  0 0.99463401E+02</rscale>
<asrwt>0</asrwt>
<pdfrwt beam="1">  1        2 0.37607016E-01 0.99552521E+02</pdfrwt>
<pdfrwt beam="2">  1       -2 0.95595092E-02 0.99552521E+02</pdfrwt>
<totfact> 0.90000195E+03</totfact>
</mgrwt>
</event>
<event>
 8    1  0.3400573E-004  0.1218622E+03  0.7546771E-02  0.1240825E+00
         -2   -1    0    0    0  501 -0.00000000000E+00  0.00000000000E+00  0.73038626604E+02  0.73038626604E+02  0.00000000000E+00 0.  1.
          2   -1    0    0  501    0  0.00000000000E+00 -0.00000000000E+00 -0.21066722722E+03  0.21066722722E+03  0.00000000000E+00 0. -1.
         23    2    1    2    0    0 -0.71829186207E+02 -0.30492021864E+02 -0.10096058339E+03  0.15825120028E+03  0.93601322658E+02 0.  0.
         23    2    1    2    0    0  0.71829186207E+02  0.30492021864E+02 -0.36668017227E+02  0.12545465354E+03  0.91132492667E+02 0.  0.
          5    1    3    3  502    0 -0.26294357734E+02  0.23408693075E+02 -0.74884713296E+02  0.82880458768E+02  0.47000000000E+01 0. -1.
         -5    1    3    3    0  502 -0.45534828473E+02 -0.53900714939E+02 -0.26075870092E+02  0.75370741512E+02  0.47000000000E+01 0.  1.
          5    1    4    4  503    0  0.40677321890E+02 -0.16278107879E+02  0.17357525917E+02  0.47360268351E+02  0.47000000000E+01 0.  1.
         -5    1    4    4    0  503  0.31151864317E+02  0.46770129743E+02 -0.54025543144E+02  0.78094385192E+02  0.47000000000E+01 0. -1.
<mgrwt>
<rscale>  0 0.12138800E+03</rscale>
<asrwt>0</asrwt>
<pdfrwt beam="1">  1        2 0.32410342E-01 0.12186223E+03</pdfrwt>
<pdfrwt beam="2">  1       -2 0.11236712E-01 0.12186223E+03</pdfrwt>
<totfact> 0.83146865E+03</totfact>
</mgrwt>
</event>
<event>
 8    1  0.3400573E-004  0.9518376E+02  0.7546771E-02  0.1291736E+00
         -2   -1    0    0    0  501 -0.00000000000E+00  0.00000000000E+00  0.14065217567E+03  0.14065217567E+03  0.00000000000E+00 0.  1.
          2   -1    0    0  501    0  0.00000000000E+00 -0.00000000000E+00 -0.80352451638E+02  0.80352451638E+02  0.00000000000E+00 0. -1.
         23    2    1    2    0    0  0.19434177319E+02 -0.13825544855E+02  0.81332563580E+02  0.12519957565E+03  0.92147245787E+02 0.  0.
         23    2    1    2    0    0 -0.19434177319E+02  0.13825544855E+02 -0.21032839543E+02  0.95805051661E+02  0.90373639109E+02 0.  0.
          5    1    4    4  502    0 -0.80297515018E+01 -0.37962962698E+02 -0.16329681017E+02  0.42360499620E+02  0.47000000000E+01 0. -1.
         -5    1    4    4    0  502 -0.11404425817E+02  0.51788507552E+02 -0.47031585261E+01  0.53444552041E+02  0.47000000000E+01 0.  1.
          5    1    3    3  503    0  0.35166380764E+02 -0.28805896827E+02  0.53259635367E+01  0.46009889324E+02  0.47000000000E+01 0. -1.
         -5    1    3    3    0  503 -0.15732203445E+02  0.14980351973E+02  0.76006600043E+02  0.79189686327E+02  0.47000000000E+01 0.  1.
<mgrwt>
<rscale>  0 0.94751835E+02</rscale>
<asrwt>0</asrwt>
<pdfrwt beam="1">  1        2 0.12361916E-01 0.95183758E+02</pdfrwt>
<pdfrwt beam="2">  1       -2 0.21638796E-01 0.95183758E+02</pdfrwt>
<totfact> 0.82550864E+03</totfact>
</mgrwt>
</event>
<event>
 8    1  0.3400573E-004  0.9911490E+02  0.7546771E-02  0.1284923E+00
         -2   -1    0    0    0  501 -0.00000000000E+00  0.00000000000E+00  0.18270787572E+02  0.18270787572E+02  0.00000000000E+00 0.  1.
          2   -1    0    0  501    0  0.00000000000E+00 -0.00000000000E+00 -0.62702492842E+03  0.62702492842E+03  0.00000000000E+00 0. -1.
         23    2    1    2    0    0  0.43171362511E+02 -0.71656024718E+01 -0.44976471585E+03  0.46055625391E+03  0.88930596465E+02 0.  0.
         23    2    1    2    0    0 -0.43171362511E+02  0.71656024718E+01 -0.15898942500E+03  0.18473946209E+03  0.83282166106E+02 0.  0.
          5    1    3    3  502    0  0.45947408237E+02  0.26223151355E+02 -0.37170337194E+03  0.37547876731E+03  0.47000000000E+01 0. -1.
         -5    1    3    3    0  502 -0.27760457265E+01 -0.33388753827E+02 -0.78061343914E+02  0.85077486597E+02  0.47000000000E+01 0.  1.
          5    1    4    4  503    0  0.19624471847E+02  0.16128228910E+02 -0.75394752517E+02  0.79697543062E+02  0.47000000000E+01 0. -1.
         -5    1    4    4    0  503 -0.62795834358E+02 -0.89626264377E+01 -0.83594672482E+02  0.10504191903E+03  0.47000000000E+01 0.  1.
<mgrwt>
<rscale>  0 0.97831440E+02</rscale>
<asrwt>0</asrwt>
<pdfrwt beam="1">  1        2 0.96465383E-01 0.99114900E+02</pdfrwt>
<pdfrwt beam="2">  1       -2 0.28108901E-02 0.99114900E+02</pdfrwt>
<totfact> 0.20513675E+04</totfact>
</mgrwt>
</event>
<event>
 8    1  0.3400573E-004  0.1081449E+03  0.7546771E-02  0.1264985E+00
         -2   -1    0    0    0  501 -0.00000000000E+00  0.00000000000E+00  0.17230410043E+03  0.17230410043E+03  0.00000000000E+00 0.  1.
          2   -1    0    0  501    0  0.00000000000E+00 -0.00000000000E+00 -0.89613656631E+02  0.89613656631E+02  0.00000000000E+00 0. -1.
         23    2    1    2    0    0  0.65521576699E+01  0.55356156465E+02  0.10735757972E+03  0.15099528528E+03  0.90369748400E+02 0.  0.
         23    2    1    2    0    0 -0.65521576699E+01 -0.55356156465E+02 -0.24667135915E+02  0.11092247178E+03  0.92671960825E+02 0.  0.
          5    1    3    3  502    0 -0.17851257726E+02 -0.15090101093E+02  0.51394079808E+01  0.24390204341E+02  0.47000000000E+01 0. -1.
         -5    1    4    4    0  503  0.14029144458E+02 -0.59129441283E+02  0.17671302803E+02  0.63462372027E+02  0.47000000000E+01 0.  1.
          5    1    4    4  503    0 -0.20581302128E+02  0.37732848176E+01 -0.42338438718E+02  0.47460099754E+02  0.47000000000E+01 0. -1.
         -5    1    3    3    0  502  0.24403415396E+02  0.70446257558E+02  0.10221817174E+03  0.12660508094E+03  0.47000000000E+01 0.  1.
<mgrwt>
<rscale>  0 0.10765000E+03</rscale>
<asrwt>0</asrwt>
<pdfrwt beam="1">  1        2 0.13786716E-01 0.10814494E+03</pdfrwt>
<pdfrwt beam="2">  1       -2 0.26508323E-01 0.10814494E+03</pdfrwt>
<totfact> 0.51692558E+03</totfact>
</mgrwt>
</event>
<event>
 8    1  0.3400573E-004  0.9281130E+02  0.7546771E-02  0.1297934E+00
         -2   -1    0    0    0  501 -0.00000000000E+00  0.00000000000E+00  0.52089640898E+02  0.52089640898E+02  0.00000000000E+00 0.  1.
          2   -1    0    0  501    0  0.00000000000E+00 -0.00000000000E+00 -0.27175573804E+03  0.27175573804E+03  0.00000000000E+00 0. -1.
         23    2    1    2    0    0  0.17742587263E+02  0.47434190679E+01 -0.50157235198E+01  0.89989181999E+02  0.87952236852E+02 0.  0.
         23    2    1    2    0    0 -0.17742587263E+02 -0.47434190679E+01 -0.21465037362E+03  0.23385619694E+03  0.90976032687E+02 0.  0.
          5    1    4    4  502    0 -0.97903680429E+01 -0.47073522086E+02 -0.94494959592E+02  0.10612801316E+03  0.47000000000E+01 0. -1.
         -5    1    3    3    0  503 -0.25325308457E+02  0.38584789803E+01  0.25921507156E+02  0.36746069745E+02  0.47000000000E+01 0.  1.
          5    1    3    3  503    0  0.43067895720E+02  0.88494008758E+00 -0.30937230675E+02  0.53243112254E+02  0.47000000000E+01 0. -1.
         -5    1    4    4    0  502 -0.79522192200E+01  0.42330103018E+02 -0.12015541403E+03  0.12772818378E+03  0.47000000000E+01 0.  1.
<mgrwt>
<rscale>  0 0.92061769E+02</rscale>
<asrwt>0</asrwt>
<pdfrwt beam="1">  1        2 0.41808575E-01 0.92811303E+02</pdfrwt>
<pdfrwt beam="2">  1       -2 0.80137909E-02 0.92811303E+02</pdfrwt>
<totfact> 0.10504122E+04</totfact>
</mgrwt>
</event>
<event>
 8    1  0.3400573E-004  0.1129458E+03  0.7546771E-02  0.1256378E+00
          4   -1    0    0  501    0  0.00000000000E+00  0.00000000000E+00  0.32901203724E+02  0.32901203724E+02  0.00000000000E+00 0. -1.
         -4   -1    0    0    0  501 -0.00000000000E+00 -0.00000000000E+00 -0.39424905078E+03  0.39424905078E+03  0.00000000000E+00 0.  1.
         23    2    1    2    0    0  0.39857352288E+02  0.32771637386E+02 -0.14056933031E+03  0.18032326443E+03  0.10046966867E+03 0.  0.
         23    2    1    2    0    0 -0.39857352288E+02 -0.32771637386E+02 -0.22077851674E+03  0.24682699007E+03  0.97559319510E+02 0.  0.
          5    1    4    4  502    0  0.29257641910E+02  0.69491864200E+01 -0.56956714238E+02  0.64579084066E+02  0.47000000000E+01 0. -1.
         -5    1    3    3    0  503  0.90430850605E+01  0.56331580244E+02 -0.12640282611E+03  0.13876162571E+03  0.47000000000E+01 0.  1.
          5    1    3    3  503    0  0.30814267227E+02 -0.23559942858E+02 -0.14166504199E+02  0.41561638724E+02  0.47000000000E+01 0. -1.
         -5    1    4    4    0  502 -0.69114994197E+02 -0.39720823806E+02 -0.16382180251E+03  0.18224790601E+03  0.47000000000E+01 0.  1.
<mgrwt>
<rscale>  0 0.11229493E+03</rscale>
<asrwt>0</asrwt>
<pdfrwt beam="1">  1        4 0.50617239E-02 0.11294575E+03</pdfrwt>
<pdfrwt beam="2">  1       -4 0.60653697E-01 0.11294575E+03</pdfrwt>
<totfact> 0.96424449E+02</totfact>
</mgrwt>
</event>
<event>
 8    1  0.3400573E-004  0.1079711E+03  0.7546771E-02  0.1267573E+00
         -1   -1    0    0    0  501 -0.00000000000E+00  0.00000000000E+00  0.26026962607E+02  0.26026962607E+02  0.00000000000E+00 0.  1.
          1   -1    0    0  501    0  0.00000000000E+00 -0.00000000000E+00 -0.42128784433E+03  0.42128784433E+03  0.00000000000E+00 0. -1.
         23    2    1    2    0    0  0.43853582394E+02 -0.11237550918E+02 -0.19040202949E+03  0.21574426898E+03  0.90792276784E+02 0.  0.
         23    2    1    2    0    0 -0.43853582394E+02  0.11237550918E+02 -0.20485885224E+03  0.23157053796E+03  0.98022168273E+02 0.  0.
          5    1    3    3  502    0  0.48014598513E+02  0.19490521433E+02 -0.51002831915E+02  0.72860558325E+02  0.47000000000E+01 0. -1.
         -5    1    4    4    0  503 -0.65792804132E+02 -0.36683035917E+01 -0.79574700103E+02  0.10342326829E+03  0.47000000000E+01 0.  1.
          5    1    4    4  503    0  0.21939221738E+02  0.14905854510E+02 -0.12528415214E+03  0.12814726968E+03  0.47000000000E+01 0. -1.
         -5    1    3    3    0  502 -0.41610161190E+01 -0.30728072351E+02 -0.13939919757E+03  0.14288371065E+03  0.47000000000E+01 0.  1.
<mgrwt>
<rscale>  0 0.10630328E+03</rscale>
<asrwt>0</asrwt>
<pdfrwt beam="1">  1        1 0.64813511E-01 0.10797113E+03</pdfrwt>
<pdfrwt beam="2">  1       -1 0.40041483E-02 0.10797113E+03</pdfrwt>
<totfact> 0.12902140E+04</totfact>
</mgrwt>
</event>
<event>
 8    1  0.3400573E-004  0.1625910E+03  0.7546771E-02  0.1186215E+00
          1   -1    0    0  501    0  0.00000000000E+00  0.00000000000E+00  0.34098453146E+03  0.34098453146E+03  0.00000000000E+00 0. -1.
         -1   -1    0    0    0  501 -0.00000000000E+00 -0.00000000000E+00 -0.11409059187E+03  0.11409059187E+03  0.00000000000E+00 0.  1.
         23    2    1    2    0    0  0.12636066527E+03 -0.48853324513E+02 -0.16952670785E+02  0.16199323541E+03  0.87182281630E+02 0.  0.
         23    2    1    2    0    0 -0.12636066527E+03  0.48853324513E+02  0.24384661038E+03  0.29308188792E+03  0.89900826426E+02 0.  0.
          5    1    4    4  502    0 -0.55611384146E+02  0.60169128657E+02  0.17646225416E+03  0.19461235118E+03  0.47000000000E+01 0. -1.
         -5    1    4    4    0  502 -0.70749281119E+02 -0.11315804144E+02  0.67384356219E+02  0.98469536738E+02  0.47000000000E+01 0.  1.
          5    1    3    3  503    0  0.30955101508E+02 -0.46520700710E+02  0.20016254952E+02  0.59541030947E+02  0.47000000000E+01 0. -1.
         -5    1    3    3    0  503  0.95405563757E+02 -0.23326238032E+01 -0.36968925737E+02  0.10245220447E+03  0.47000000000E+01 0.  1.
<mgrwt>
<rscale>  0 0.16221788E+03</rscale>
<asrwt>0</asrwt>
<pdfrwt beam="1">  1        1 0.52459158E-01 0.16259097E+03</pdfrwt>
<pdfrwt beam="2">  1       -1 0.17552399E-01 0.16259097E+03</pdfrwt>
<totfact> 0.18309689E+03</totfact>
</mgrwt>
</event>
<event>
 8    1  0.3400573E-004  0.1111752E+03  0.7546771E-02  0.1260637E+00
          2   -1    0    0  501    0  0.00000000000E+00  0.00000000000E+00  0.59383432306E+03  0.59383432306E+03  0.00000000000E+00 0. -1.
         -2   -1    0    0    0  501 -0.00000000000E+00 -0.00000000000E+00 -0.22912001742E+02  0.22912001742E+02  0.00000000000E+00 0.  1.
         23    2    1    2    0    0 -0.61813061868E+02  0.14714237245E+02  0.16881280302E+03  0.19955093286E+03  0.85354841370E+02 0.  0.
         23    2    1    2    0    0  0.61813061868E+02 -0.14714237245E+02  0.40210951830E+03  0.41719539195E+03  0.91228104005E+02 0.  0.
          5    1    3    3  502    0 -0.18612529077E+02 -0.32498241924E+02  0.92134518799E+02  0.99566166548E+02  0.47000000000E+01 0. -1.
         -5    1    3    3    0  502 -0.43200532792E+02  0.47212479169E+02  0.76678284225E+02  0.99984766312E+02  0.47000000000E+01 0.  1.
          5    1    4    4  503    0  0.37500473858E+02 -0.48291089298E+02  0.31099834359E+03  0.31698639491E+03  0.47000000000E+01 0. -1.
         -5    1    4    4    0  503  0.24312588010E+02  0.33576852052E+02  0.91111174709E+02  0.10020899703E+03  0.47000000000E+01 0.  1.
<mgrwt>
<rscale>  0 0.10996394E+03</rscale>
<asrwt>0</asrwt>
<pdfrwt beam="1">  1        2 0.91359115E-01 0.11117522E+03</pdfrwt>
<pdfrwt beam="2">  1       -2 0.35249238E-02 0.11117522E+03</pdfrwt>
<totfact> 0.15827691E+04</totfact>
</mgrwt>
</event>
<event>
 8    1  0.3400573E-004  0.9279362E+02  0.7546771E-02  0.1296872E+00
          1   -1    0    0  501    0  0.00000000000E+00  0.00000000000E+00  0.43791478075E+03  0.43791478075E+03  0.00000000000E+00 0. -1.
         -1   -1    0    0    0  501 -0.00000000000E+00 -0.00000000000E+00 -0.20064135649E+02  0.20064135649E+02  0.00000000000E+00 0.  1.
         23    2    1    2    0    0  0.43679221603E+01  0.12612854415E+02  0.25088294030E+03  0.26749374925E+03  0.91828608346E+02 0.  0.
         23    2    1    2    0    0 -0.43679221603E+01 -0.12612854415E+02  0.16696770480E+03  0.19048516715E+03  0.90709545355E+02 0.  0.
          5    1    3    3  502    0 -0.15992816274E+02 -0.34963255496E+02  0.13594751129E+03  0.14135775618E+03  0.47000000000E+01 0. -1.
         -5    1    3    3    0  502  0.20360738435E+02  0.47576109911E+02  0.11493542902E+03  0.12613599307E+03  0.47000000000E+01 0.  1.
          5    1    4    4  503    0 -0.21804420511E+02  0.32628187912E+01  0.16480898625E+03  0.16634353215E+03  0.47000000000E+01 0. -1.
         -5    1    4    4    0  503  0.17436498351E+02 -0.15875673206E+02  0.21587185454E+01  0.24141634996E+02  0.47000000000E+01 0.  1.
<mgrwt>
<rscale>  0 0.92515553E+02</rscale>
<asrwt>0</asrwt>
<pdfrwt beam="1">  1        1 0.67371498E-01 0.92793621E+02</pdfrwt>
<pdfrwt beam="2">  1       -1 0.30867904E-02 0.92793621E+02</pdfrwt>
<totfact> 0.17676510E+04</totfact>
</mgrwt>
</event>
<event>
 8    1  0.3400573E-004  0.1679880E+03  0.7546771E-02  0.1181581E+00
         -1   -1    0    0    0  501 -0.00000000000E+00  0.00000000000E+00  0.19210329175E+03  0.19210329175E+03  0.00000000000E+00 0.  1.
          1   -1    0    0  501    0  0.00000000000E+00 -0.00000000000E+00 -0.46248402801E+03  0.46248402801E+03  0.00000000000E+00 0. -1.
         23    2    1    2    0    0 -0.17321441383E+01 -0.13013972985E+03  0.13812798183E+03  0.21288679190E+03  0.96447380423E+02 0.  0.
         23    2    1    2    0    0  0.17321441383E+01  0.13013972985E+03 -0.40850871809E+03  0.44170052786E+03  0.10621032883E+03 0.  0.
          5    1    4    4  502    0  0.27268038622E+02  0.80686381476E+02 -0.35222260873E+03  0.36240404825E+03  0.47000000000E+01 0. -1.
         -5    1    3    3    0  503  0.19377425647E+02 -0.73669674260E+02  0.18024881255E+02  0.78419971146E+02  0.47000000000E+01 0.  1.
          5    1    3    3  503    0 -0.21109569785E+02 -0.56470055590E+02  0.12010310057E+03  0.13446682075E+03  0.47000000000E+01 0. -1.
         -5    1    4    4    0  502 -0.25535894484E+02  0.49453348373E+02 -0.56286109355E+02  0.79296479612E+02  0.47000000000E+01 0.  1.
<mgrwt>
<rscale>  0 0.16646857E+03</rscale>
<asrwt>0</asrwt>
<pdfrwt beam="1">  1        1 0.71151389E-01 0.16798805E+03</pdfrwt>
<pdfrwt beam="2">  1       -1 0.29554353E-01 0.16798805E+03</pdfrwt>
<totfact> 0.53021725E+02</totfact>
</mgrwt>
</event>
<event>
 8    1  0.3400573E-004  0.9591342E+02  0.7546771E-02  0.1289744E+00
         -2   -1    0    0    0  501 -0.00000000000E+00  0.00000000000E+00  0.22246537489E+03  0.22246537489E+03  0.00000000000E+00 0. -1.
          2   -1    0    0  501    0  0.00000000000E+00 -0.00000000000E+00 -0.42984534006E+02  0.42984534006E+02  0.00000000000E+00 0.  1.
         23    2    1    2    0    0  0.23652543325E+01  0.28064597262E+02  0.59892890131E+02  0.11215065407E+03  0.90539465832E+02 0.  0.
         23    2    1    2    0    0 -0.23652543325E+01 -0.28064597262E+02  0.11958795075E+03  0.15329925482E+03  0.91685154285E+02 0.  0.
          5    1    4    4  502    0 -0.33940901305E+02 -0.37964314399E+02  0.10507832376E+03  0.11686238947E+03  0.47000000000E+01 0. -1.
         -5    1    3    3    0  503  0.32170795042E+02  0.45979365537E+02  0.50942033311E+02  0.75935781201E+02  0.47000000000E+01 0.  1.
          5    1    3    3  503    0 -0.29805540709E+02 -0.17914768274E+02  0.89508568197E+01  0.36214872872E+02  0.47000000000E+01 0. -1.
         -5    1    4    4    0  502  0.31575646973E+02  0.98997171373E+01  0.14509626998E+02  0.36436865353E+02  0.47000000000E+01 0.  1.
<mgrwt>
<rscale>  0 0.95638592E+02</rscale>
<asrwt>0</asrwt>
<pdfrwt beam="1">  1        2 0.66130054E-02 0.95913417E+02</pdfrwt>
<pdfrwt beam="2">  1       -2 0.34225441E-01 0.95913417E+02</pdfrwt>
<totfact> 0.79470854E+03</totfact>
</mgrwt>
</event>
<event>
 8    1  0.3400573E-004  0.9730105E+02  0.7546771E-02  0.1287907E+00
         -1   -1    0    0    0  501 -0.00000000000E+00  0.00000000000E+00  0.13149399978E+02  0.13149399978E+02  0.00000000000E+00 0.  1.
          1   -1    0    0  501    0  0.00000000000E+00 -0.00000000000E+00 -0.72705669473E+03  0.72705669473E+03  0.00000000000E+00 0. -1.
         23    2    1    2    0    0 -0.20977563212E+02 -0.99378059783E+01 -0.42777213813E+03  0.43797965358E+03  0.91095316224E+02 0.  0.
         23    2    1    2    0    0  0.20977563212E+02  0.99378059783E+01 -0.28613515662E+03  0.30222644113E+03  0.94491670109E+02 0.  0.
          5    1    4    4  502    0 -0.12240570652E+02 -0.34986259594E+02 -0.15806228410E+03  0.16241811964E+03  0.47000000000E+01 0. -1.
         -5    1    3    3    0  503  0.17337071198E+02 -0.40561538705E+02 -0.18333376546E+03  0.18862442053E+03  0.47000000000E+01 0.  1.
          5    1    3    3  503    0 -0.38314634410E+02  0.30623732726E+02 -0.24443837267E+03  0.24935523305E+03  0.47000000000E+01 0. -1.
         -5    1    4    4    0  502  0.33218133865E+02  0.44924065572E+02 -0.12807287251E+03  0.13980832149E+03  0.47000000000E+01 0.  1.
<mgrwt>
<rscale>  0 0.96466677E+02</rscale>
<asrwt>0</asrwt>
<pdfrwt beam="1">  1        1 0.11185488E+00 0.97301048E+02</pdfrwt>
<pdfrwt beam="2">  1       -1 0.20229845E-02 0.97301048E+02</pdfrwt>
<totfact> 0.16604737E+04</totfact>
</mgrwt>
</event>
<event>
 8    1  0.3400573E-004  0.1189580E+03  0.7546771E-02  0.1245731E+00
          1   -1    0    0  501    0  0.00000000000E+00  0.00000000000E+00  0.13904418703E+02  0.13904418703E+02  0.00000000000E+00 0. -1.
         -1   -1    0    0    0  501 -0.00000000000E+00 -0.00000000000E+00 -0.10014353952E+04  0.10014353952E+04  0.00000000000E+00 0.  1.
         23    2    1    2    0    0  0.72889717794E+02 -0.27717560675E+01 -0.46659202129E+03  0.48099124697E+03  0.91235254909E+02 0.  0.
         23    2    1    2    0    0 -0.72889717794E+02  0.27717560675E+01 -0.52093895521E+03  0.53434856693E+03  0.93970220494E+02 0.  0.
          5    1    3    3  502    0  0.17695847712E+02 -0.41519980785E+02 -0.25033726789E+03  0.25441676345E+03  0.47000000000E+01 0.  1.
         -5    1    3    3    0  502  0.55193870082E+02  0.38748224718E+02 -0.21625475340E+03  0.22657448352E+03  0.47000000000E+01 0. -1.
          5    1    4    4  503    0 -0.45397495221E+02 -0.25046540086E+02 -0.45168188186E+03  0.45467227114E+03  0.47000000000E+01 0. -1.
         -5    1    4    4    0  503 -0.27492222573E+02  0.27818296153E+02 -0.69257073350E+02  0.79676295797E+02  0.47000000000E+01 0.  1.
<mgrwt>
<rscale>  0 0.11841717E+03</rscale>
<asrwt>0</asrwt>
<pdfrwt beam="1">  1        1 0.21391416E-02 0.11895796E+03</pdfrwt>
<pdfrwt beam="2">  1       -1 0.15406697E+00 0.11895796E+03</pdfrwt>
<totfact> 0.18673255E+03</totfact>
</mgrwt>
</event>
<event>
 8    1  0.3400573E-004  0.1155675E+03  0.7546771E-02  0.1253054E+00
          2   -1    0    0  501    0  0.00000000000E+00  0.00000000000E+00  0.15936950050E+03  0.15936950050E+03  0.00000000000E+00 0. -1.
         -2   -1    0    0    0  501 -0.00000000000E+00 -0.00000000000E+00 -0.24307293513E+03  0.24307293513E+03  0.00000000000E+00 0.  1.
         23    2    1    2    0    0  0.57773815469E+02  0.38954681444E+02  0.12336194534E+03  0.16530974077E+03  0.85169594782E+02 0.  0.
         23    2    1    2    0    0 -0.57773815469E+02 -0.38954681444E+02 -0.20706537996E+03  0.23713269486E+03  0.92198494724E+02 0.  0.
          5    1    4    4  502    0 -0.35124855926E+02  0.26946587791E+02 -0.97746538210E+02  0.10740740119E+03  0.47000000000E+01 0. -1.
         -5    1    3    3    0  503  0.61199236093E+02  0.46429994686E+01  0.36089284008E+02  0.71354259597E+02  0.47000000000E+01 0.  1.
          5    1    3    3  503    0 -0.34254206241E+01  0.34311681976E+02  0.87272661336E+02  0.93955481177E+02  0.47000000000E+01 0. -1.
         -5    1    4    4    0  502 -0.22648959542E+02 -0.65901269235E+02 -0.10931884176E+03  0.12972529367E+03  0.47000000000E+01 0.  1.
<mgrwt>
<rscale>  0 0.11416051E+03</rscale>
<asrwt>0</asrwt>
<pdfrwt beam="1">  1        2 0.24518385E-01 0.11556748E+03</pdfrwt>
<pdfrwt beam="2">  1       -2 0.37395836E-01 0.11556748E+03</pdfrwt>
<totfact> 0.14490117E+03</totfact>
</mgrwt>
</event>
<event>
 8    1  0.3400573E-004  0.1185255E+03  0.7546771E-02  0.1245964E+00
         -1   -1    0    0    0  501 -0.00000000000E+00  0.00000000000E+00  0.44506011695E+02  0.44506011695E+02  0.00000000000E+00 0.  1.
          1   -1    0    0  501    0  0.00000000000E+00 -0.00000000000E+00 -0.96093131904E+03  0.96093131904E+03  0.00000000000E+00 0. -1.
         23    2    1    2    0    0  0.25619867458E+02  0.70916116635E+02 -0.46043353165E+02  0.12715459214E+03  0.91448492200E+02 0.  0.
         23    2    1    2    0    0 -0.25619867458E+02 -0.70916116635E+02 -0.87038195418E+03  0.87828273859E+03  0.90168450897E+02 0.  0.
          5    1    3    3  502    0 -0.23706620631E+02  0.15901291179E+02 -0.44526799200E+02  0.53099724763E+02  0.47000000000E+01 0. -1.
         -5    1    4    4    0  503 -0.11735836578E+02  0.19086224257E+02 -0.10370170326E+03  0.10619862088E+03  0.47000000000E+01 0.  1.
          5    1    4    4  503    0 -0.13884030880E+02 -0.90002340892E+02 -0.76668025092E+03  0.77208411772E+03  0.47000000000E+01 0. -1.
         -5    1    3    3    0  502  0.49326488088E+02  0.55014825455E+02 -0.15165539649E+01  0.74054867381E+02  0.47000000000E+01 0.  1.
<mgrwt>
<rscale>  0 0.11827855E+03</rscale>
<asrwt>0</asrwt>
<pdfrwt beam="1">  1        1 0.14783558E+00 0.11852552E+03</pdfrwt>
<pdfrwt beam="2">  1       -1 0.68470792E-02 0.11852552E+03</pdfrwt>
<totfact> 0.18534653E+03</totfact>
</mgrwt>
</event>
<event>
 8    1  0.3400573E-004  0.1087653E+03  0.7546771E-02  0.1265935E+00
         -1   -1    0    0    0  501 -0.00000000000E+00  0.00000000000E+00  0.55094221926E+02  0.55094221926E+02  0.00000000000E+00 0.  1.
          1   -1    0    0  501    0  0.00000000000E+00 -0.00000000000E+00 -0.31348903530E+03  0.31348903530E+03  0.00000000000E+00 0. -1.
         23    2    1    2    0    0  0.29591868604E+02  0.43056891027E+02 -0.22039407682E+02  0.11097583524E+03  0.95395628639E+02 0.  0.
         23    2    1    2    0    0 -0.29591868604E+02 -0.43056891027E+02 -0.23635540569E+03  0.25760742199E+03  0.88137004211E+02 0.  0.
          5    1    3    3  502    0 -0.21869569208E+02 -0.14916240426E+02  0.74582253491E+01  0.27901387262E+02  0.47000000000E+01 0. -1.
         -5    1    4    4    0  503  0.16802418374E+02 -0.14164060156E+02 -0.98203083643E+01  0.24524891838E+02  0.47000000000E+01 0.  1.
          5    1    4    4  503    0 -0.46394286977E+02 -0.28892830871E+02 -0.22653509733E+03  0.23308253015E+03  0.47000000000E+01 0. -1.
         -5    1    3    3    0  502  0.51461437811E+02  0.57973131453E+02 -0.29497633031E+02  0.83074447976E+02  0.47000000000E+01 0.  1.
<mgrwt>
<rscale>  0 0.10715309E+03</rscale>
<asrwt>0</asrwt>
<pdfrwt beam="1">  1        1 0.48229083E-01 0.10876535E+03</pdfrwt>
<pdfrwt beam="2">  1       -1 0.84760341E-02 0.10876535E+03</pdfrwt>
<totfact> 0.61426031E+03</totfact>
</mgrwt>
</event>
<event>
 8    1  0.3400573E-004  0.9912866E+02  0.7546771E-02  0.1282935E+00
          1   -1    0    0  501    0  0.00000000000E+00  0.00000000000E+00  0.62614878861E+03  0.62614878861E+03  0.00000000000E+00 0. -1.
         -1   -1    0    0    0  501 -0.00000000000E+00 -0.00000000000E+00 -0.15468847920E+02  0.15468847920E+02  0.00000000000E+00 0.  1.
         23    2    1    2    0    0  0.51053133165E+01 -0.32055091137E+02  0.31095747636E+03  0.32592784196E+03  0.92091329484E+02 0.  0.
         23    2    1    2    0    0 -0.51053133165E+01  0.32055091137E+02  0.29972246433E+03  0.31568979457E+03  0.93663747958E+02 0.  0.
          5    1    3    3  502    0 -0.36450820335E+02 -0.39453752921E+02  0.14762211755E+03  0.15716119277E+03  0.47000000000E+01 0. -1.
         -5    1    3    3    0  502  0.41556133651E+02  0.73986617837E+01  0.16333535881E+03  0.16876664919E+03  0.47000000000E+01 0.  1.
          5    1    4    4  503    0 -0.47063217537E+02  0.25993237964E+01  0.13182027027E+03  0.14007275460E+03  0.47000000000E+01 0. -1.
         -5    1    4    4    0  503  0.41957904221E+02  0.29455767341E+02  0.16790219406E+03  0.17561703997E+03  0.47000000000E+01 0.  1.
<mgrwt>
<rscale>  0 0.98755462E+02</rscale>
<asrwt>0</asrwt>
<pdfrwt beam="1">  1        1 0.96330563E-01 0.99128658E+02</pdfrwt>
<pdfrwt beam="2">  1       -1 0.23798232E-02 0.99128658E+02</pdfrwt>
<totfact> 0.16229960E+04</totfact>
</mgrwt>
</event>
<event>
 8    1  0.3400573E-004  0.9668215E+02  0.7546771E-02  0.1289132E+00
         -2   -1    0    0    0  501 -0.00000000000E+00  0.00000000000E+00  0.48697003018E+02  0.48697003018E+02  0.00000000000E+00 0.  1.
          2   -1    0    0  501    0  0.00000000000E+00 -0.00000000000E+00 -0.25013105573E+03  0.25013105573E+03  0.00000000000E+00 0. -1.
         23    2    1    2    0    0  0.14344636385E+02 -0.15910477497E+02 -0.17758206801E+03  0.20219502858E+03  0.94278983977E+02 0.  0.
         23    2    1    2    0    0 -0.14344636385E+02  0.15910477497E+02 -0.23851984702E+02  0.96633030159E+02  0.91159823696E+02 0.  0.
          5    1    4    4  502    0 -0.35733587266E+02  0.43603275243E+02 -0.23681385306E+02  0.61327260503E+02  0.47000000000E+01 0. -1.
         -5    1    3    3    0  503 -0.24932358529E+02 -0.13298965159E+02 -0.15275835185E+03  0.15542100577E+03  0.47000000000E+01 0.  1.
          5    1    3    3  503    0  0.39276994914E+02 -0.26115123376E+01 -0.24823716160E+02  0.46774022813E+02  0.47000000000E+01 0. -1.
         -5    1    4    4    0  502  0.21388950882E+02 -0.27692797746E+02 -0.17059939631E+00  0.35305769655E+02  0.47000000000E+01 0.  1.
<mgrwt>
<rscale>  0 0.95913260E+02</rscale>
<asrwt>0</asrwt>
<pdfrwt beam="1">  1        2 0.38481700E-01 0.96682153E+02</pdfrwt>
<pdfrwt beam="2">  1       -2 0.74918467E-02 0.96682153E+02</pdfrwt>
<totfact> 0.12746667E+04</totfact>
</mgrwt>
</event>
<event>
 8    1  0.3400573E-004  0.2260890E+03  0.7546771E-02  0.1129754E+00
          1   -1    0    0  501    0  0.00000000000E+00  0.00000000000E+00  0.28721419764E+03  0.28721419764E+03  0.00000000000E+00 0. -1.
         -1   -1    0    0    0  501 -0.00000000000E+00 -0.00000000000E+00 -0.38368980829E+03  0.38368980829E+03  0.00000000000E+00 0.  1.
         23    2    1    2    0    0  0.26092380322E+02  0.20323905335E+03 -0.29481200326E+03  0.37152438469E+03  0.95547506679E+02 0.  0.
         23    2    1    2    0    0 -0.26092380322E+02 -0.20323905335E+03  0.19833639261E+03  0.29937962124E+03  0.91125780432E+02 0.  0.
          5    1    3    3  502    0  0.44335608985E+02  0.80200532784E+02 -0.18068881844E+03  0.20265317859E+03  0.47000000000E+01 0. -1.
         -5    1    4    4    0  503 -0.29007115059E+02 -0.18216229710E+03  0.12499202690E+03  0.22286680326E+03  0.47000000000E+01 0.  1.
          5    1    4    4  503    0  0.29147347375E+01 -0.21076756258E+02  0.73344365714E+02  0.76512817978E+02  0.47000000000E+01 0. -1.
         -5    1    3    3    0  502 -0.18243228663E+02  0.12303852057E+03 -0.11412318482E+03  0.16887120610E+03  0.47000000000E+01 0.  1.
<mgrwt>
<rscale>  0 0.22562942E+03</rscale>
<asrwt>0</asrwt>
<pdfrwt beam="1">  1        1 0.44186799E-01 0.22608903E+03</pdfrwt>
<pdfrwt beam="2">  1       -1 0.59029202E-01 0.22608903E+03</pdfrwt>
<totfact> 0.28073244E+02</totfact>
</mgrwt>
</event>
<event>
 8    1  0.3400573E-004  0.9282705E+02  0.7546771E-02  0.1296392E+00
          1   -1    0    0  501    0  0.00000000000E+00  0.00000000000E+00  0.14831290760E+03  0.14831290760E+03  0.00000000000E+00 0. -1.
         -1   -1    0    0    0  501 -0.00000000000E+00 -0.00000000000E+00 -0.97603916526E+02  0.97603916526E+02  0.00000000000E+00 0.  1.
         23    2    1    2    0    0  0.12499662919E+02  0.16442267177E+01 -0.53097652374E+02  0.10694027145E+03  0.91966928377E+02 0.  0.
         23    2    1    2    0    0 -0.12499662919E+02 -0.16442267177E+01  0.10380664344E+03  0.13897655268E+03  0.91540799187E+02 0.  0.
          5    1    3    3  502    0 -0.54858250874E+01 -0.43435692247E+02 -0.26607171111E+02  0.51446916258E+02  0.47000000000E+01 0. -1.
         -5    1    4    4    0  503 -0.67223572298E+01  0.43518710090E+02  0.66648659965E+02  0.80020010558E+02  0.47000000000E+01 0.  1.
          5    1    4    4  503    0 -0.57773056892E+01 -0.45162936808E+02  0.37157983479E+02  0.58956542117E+02  0.47000000000E+01 0. -1.
         -5    1    3    3    0  502  0.17985488006E+02  0.45079918965E+02 -0.26490481263E+02  0.55493355190E+02  0.47000000000E+01 0.  1.
<mgrwt>
<rscale>  0 0.92721328E+02</rscale>
<asrwt>0</asrwt>
<pdfrwt beam="1">  1        1 0.22817370E-01 0.92827049E+02</pdfrwt>
<pdfrwt beam="2">  1       -1 0.15015987E-01 0.92827049E+02</pdfrwt>
<totfact> 0.63771235E+03</totfact>
</mgrwt>
</event>
<event>
 8    1  0.3400573E-004  0.1094621E+03  0.7546771E-02  0.1262157E+00
          1   -1    0    0  501    0  0.00000000000E+00  0.00000000000E+00  0.69501978603E+03  0.69501978603E+03  0.00000000000E+00 0. -1.
         -1   -1    0    0    0  501 -0.00000000000E+00 -0.00000000000E+00 -0.20161281885E+02  0.20161281885E+02  0.00000000000E+00 0.  1.
         23    2    1    2    0    0 -0.57794158786E+02 -0.15981624787E+02  0.19844102209E+03  0.22662917594E+03  0.91577109699E+02 0.  0.
         23    2    1    2    0    0  0.57794158786E+02  0.15981624787E+02  0.47641748206E+03  0.48855189198E+03  0.90076394352E+02 0.  0.
          5    1    4    4  502    0  0.34497919818E+02 -0.33680530447E+02  0.29545192959E+03  0.29939675566E+03  0.47000000000E+01 0. -1.
         -5    1    3    3    0  503 -0.79749457229E+02 -0.27138811063E+02  0.15470583725E+03  0.17621713047E+03  0.47000000000E+01 0.  1.
          5    1    3    3  503    0  0.21955298443E+02  0.11157186276E+02  0.43735184841E+02  0.50412045469E+02  0.47000000000E+01 0. -1.
         -5    1    4    4    0  502  0.23296238968E+02  0.49662155234E+02  0.18096555247E+03  0.18915513631E+03  0.47000000000E+01 0.  1.
<mgrwt>
<rscale>  0 0.10914762E+03</rscale>
<asrwt>0</asrwt>
<pdfrwt beam="1">  1        1 0.10692610E+00 0.10946207E+03</pdfrwt>
<pdfrwt beam="2">  1       -1 0.31017362E-02 0.10946207E+03</pdfrwt>
<totfact> 0.96596244E+03</totfact>
</mgrwt>
</event>
<event>
 8    1  0.3400573E-004  0.1335640E+03  0.7546771E-02  0.1222418E+00
          1   -1    0    0  501    0  0.00000000000E+00  0.00000000000E+00  0.45585384966E+02  0.45585384966E+02  0.00000000000E+00 0. -1.
         -1   -1    0    0    0  501 -0.00000000000E+00 -0.00000000000E+00 -0.39283690325E+03  0.39283690325E+03  0.00000000000E+00 0.  1.
         23    2    1    2    0    0 -0.83054034902E+02  0.52550630907E+02 -0.15490067425E+03  0.20424672374E+03  0.89794007330E+02 0.  0.
         23    2    1    2    0    0  0.83054034902E+02 -0.52550630907E+02 -0.19235084403E+03  0.23417556447E+03  0.90442281462E+02 0.  0.
          5    1    3    3  502    0 -0.77158817219E+02  0.93872424858E+01 -0.55520814077E+02  0.95636050692E+02  0.47000000000E+01 0. -1.
         -5    1    3    3    0  502 -0.58952176826E+01  0.43163388421E+02 -0.99379860174E+02  0.10861067305E+03  0.47000000000E+01 0.  1.
          5    1    4    4  503    0  0.43288862045E+02  0.22111483362E+02 -0.69231940080E+02  0.84723047637E+02  0.47000000000E+01 0. -1.
         -5    1    4    4    0  503  0.39765172856E+02 -0.74662114269E+02 -0.12311890395E+03  0.14945251684E+03  0.47000000000E+01 0.  1.
<mgrwt>
<rscale>  0 0.13345436E+03</rscale>
<asrwt>0</asrwt>
<pdfrwt beam="1">  1        1 0.70131360E-02 0.13356402E+03</pdfrwt>
<pdfrwt beam="2">  1       -1 0.60436448E-01 0.13356402E+03</pdfrwt>
<totfact> 0.28776481E+03</totfact>
</mgrwt>
</event>
<event>
 8    1  0.3400573E-004  0.9924821E+02  0.7546771E-02  0.1282841E+00
          4   -1    0    0  501    0  0.00000000000E+00  0.00000000000E+00  0.58775517066E+02  0.58775517066E+02  0.00000000000E+00 0. -1.
         -4   -1    0    0    0  501 -0.00000000000E+00 -0.00000000000E+00 -0.22676293741E+03  0.22676293741E+03  0.00000000000E+00 0.  1.
         23    2    1    2    0    0 -0.33574507447E+02  0.17414837873E+02 -0.86883118412E+01  0.97851448600E+02  0.89827028795E+02 0.  0.
         23    2    1    2    0    0  0.33574507447E+02 -0.17414837873E+02 -0.15929910851E+03  0.18768700588E+03  0.91758825605E+02 0.  0.
          5    1    3    3  502    0 -0.17275535241E+02 -0.18694488860E+02  0.31804706070E+02  0.41006796507E+02  0.47000000000E+01 0. -1.
         -5    1    4    4    0  503  0.22399575634E+02 -0.38085090511E+02 -0.24431409840E+02  0.50706990589E+02  0.47000000000E+01 0.  1.
          5    1    4    4  503    0  0.11174931813E+02  0.20670252639E+02 -0.13486769867E+03  0.13698001529E+03  0.47000000000E+01 0. -1.
         -5    1    3    3    0  502 -0.16298972206E+02  0.36109326733E+02 -0.40493017911E+02  0.56844652093E+02  0.47000000000E+01 0.  1.
<mgrwt>
<rscale>  0 0.98799359E+02</rscale>
<asrwt>0</asrwt>
<pdfrwt beam="1">  1        4 0.90423873E-02 0.99248205E+02</pdfrwt>
<pdfrwt beam="2">  1       -4 0.34886605E-01 0.99248205E+02</pdfrwt>
<totfact> 0.10993849E+03</totfact>
</mgrwt>
</event>
<event>
 8    1  0.3400573E-004  0.1076590E+03  0.7546771E-02  0.1267381E+00
         -1   -1    0    0    0  501 -0.00000000000E+00  0.00000000000E+00  0.48480906798E+02  0.48480906798E+02  0.00000000000E+00 0.  1.
          1   -1    0    0  501    0  0.00000000000E+00 -0.00000000000E+00 -0.22845590202E+03  0.22845590202E+03  0.00000000000E+00 0. -1.
         23    2    1    2    0    0 -0.18903013238E+02 -0.42411040455E+02 -0.83530942858E+02  0.13239643937E+03  0.91626297981E+02 0.  0.
         23    2    1    2    0    0  0.18903013238E+02  0.42411040455E+02 -0.96444052367E+02  0.14454036945E+03  0.97131060437E+02 0.  0.
          5    1    4    4  502    0  0.51880459203E+02 -0.15807585595E+01 -0.40937833824E+02  0.66272747664E+02  0.47000000000E+01 0. -1.
         -5    1    4    4    0  502 -0.32977445965E+02  0.43991799014E+02 -0.55506218543E+02  0.78267621785E+02  0.47000000000E+01 0.  1.
          5    1    3    3  503    0  0.32333118539E+02 -0.17060352840E+02 -0.59963058302E+02  0.70385684300E+02  0.47000000000E+01 0. -1.
         -5    1    3    3    0  503 -0.51236131778E+02 -0.25350687615E+02 -0.23567884556E+02  0.62010755071E+02  0.47000000000E+01 0.  1.
<mgrwt>
<rscale>  0 0.10640243E+03</rscale>
<asrwt>0</asrwt>
<pdfrwt beam="1">  1        1 0.35147062E-01 0.10765901E+03</pdfrwt>
<pdfrwt beam="2">  1       -1 0.74586009E-02 0.10765901E+03</pdfrwt>
<totfact> 0.10964032E+04</totfact>
</mgrwt>
</event>
<event>
 8    1  0.3400573E-004  0.9612841E+02  0.7546771E-02  0.1291649E+00
         -2   -1    0    0    0  501 -0.00000000000E+00  0.00000000000E+00  0.49534405099E+02  0.49534405099E+02  0.00000000000E+00 0.  1.
          2   -1    0    0  501    0  0.00000000000E+00 -0.00000000000E+00 -0.40099973256E+03  0.40099973256E+03  0.00000000000E+00 0. -1.
         23    2    1    2    0    0  0.10363969728E+01 -0.17332796546E+02 -0.50476038241E+01  0.91026265871E+02  0.89212122602E+02 0.  0.
         23    2    1    2    0    0 -0.10363969728E+01  0.17332796546E+02 -0.34641772363E+03  0.35950787179E+03  0.94547187546E+02 0.  0.
          5    1    4    4  502    0 -0.35281083985E+02  0.15578447281E+01 -0.54395105067E+02  0.65023835804E+02  0.47000000000E+01 0. -1.
         -5    1    3    3    0  503  0.23053502489E+02  0.12290558577E+02  0.29898067975E+02  0.39981324088E+02  0.47000000000E+01 0.  1.
          5    1    3    3  503    0 -0.22017105517E+02 -0.29623355124E+02 -0.34945671799E+02  0.51044941783E+02  0.47000000000E+01 0. -1.
         -5    1    4    4    0  502  0.34244687012E+02  0.15774951818E+02 -0.29202261857E+03  0.29448403598E+03  0.47000000000E+01 0.  1.
<mgrwt>
<rscale>  0 0.94790171E+02</rscale>
<asrwt>0</asrwt>
<pdfrwt beam="1">  1        2 0.61692265E-01 0.96128407E+02</pdfrwt>
<pdfrwt beam="2">  1       -2 0.76206779E-02 0.96128407E+02</pdfrwt>
<totfact> 0.75649503E+03</totfact>
</mgrwt>
</event>
<event>
 8    1  0.3400573E-004  0.9344499E+02  0.7546771E-02  0.1296000E+00
          4   -1    0    0  501    0  0.00000000000E+00  0.00000000000E+00  0.66358134194E+02  0.66358134194E+02  0.00000000000E+00 0. -1.
         -4   -1    0    0    0  501 -0.00000000000E+00 -0.00000000000E+00 -0.12856313381E+03  0.12856313381E+03  0.00000000000E+00 0.  1.
         23    2    1    2    0    0  0.98638957769E+01 -0.77693366128E+01 -0.32711626470E+02  0.96932361139E+02  0.90377945862E+02 0.  0.
         23    2    1    2    0    0 -0.98638957769E+01  0.77693366128E+01 -0.29493373142E+02  0.97988906862E+02  0.92597558161E+02 0.  0.
          5    1    3    3  502    0  0.42498080140E+02 -0.22256725413E+02  0.11463426049E+00  0.48203234152E+02  0.47000000000E+01 0. -1.
         -5    1    4    4    0  503 -0.50237833742E+02  0.12354211869E+02 -0.11006072767E+02  0.53100754493E+02  0.47000000000E+01 0.  1.
          5    1    4    4  503    0  0.40373937965E+02 -0.45848752567E+01 -0.18487300376E+02  0.44888152369E+02  0.47000000000E+01 0. -1.
         -5    1    3    3    0  502 -0.32634184363E+02  0.14487388800E+02 -0.32826260731E+02  0.48729126987E+02  0.47000000000E+01 0.  1.
<mgrwt>
<rscale>  0 0.92890326E+02</rscale>
<asrwt>0</asrwt>
<pdfrwt beam="1">  1        4 0.10208944E-01 0.93444993E+02</pdfrwt>
<pdfrwt beam="2">  1       -4 0.19778944E-01 0.93444993E+02</pdfrwt>
<totfact> 0.25211542E+03</totfact>
</mgrwt>
</event>
<event>
 8    1  0.3400573E-004  0.9695451E+02  0.7546771E-02  0.1287420E+00
          2   -1    0    0  501    0  0.00000000000E+00  0.00000000000E+00  0.29218243169E+03  0.29218243169E+03  0.00000000000E+00 0. -1.
         -2   -1    0    0    0  501 -0.00000000000E+00 -0.00000000000E+00 -0.47591511221E+02  0.47591511221E+02  0.00000000000E+00 0.  1.
         23    2    1    2    0    0 -0.29903588568E+02 -0.12171832497E+02  0.21964082292E+03  0.23966058631E+03  0.90292454936E+02 0.  0.
         23    2    1    2    0    0  0.29903588568E+02  0.12171832497E+02  0.24950097549E+02  0.10011335661E+03  0.91420996977E+02 0.  0.
          5    1    4    4  502    0 -0.53305030644E+01 -0.35909701947E+02  0.14696887639E+02  0.39446285796E+02  0.47000000000E+01 0. -1.
         -5    1    4    4    0  502  0.35234091632E+02  0.48081534444E+02  0.10253209910E+02  0.60667070814E+02  0.47000000000E+01 0.  1.
          5    1    3    3  503    0 -0.40861029156E+02 -0.44437431534E+02  0.12335543792E+03  0.13741529423E+03  0.47000000000E+01 0. -1.
         -5    1    3    3    0  503  0.10957440589E+02  0.32265599037E+02  0.96285385005E+02  0.10224529207E+03  0.47000000000E+01 0.  1.
<mgrwt>
<rscale>  0 0.96687559E+02</rscale>
<asrwt>0</asrwt>
<pdfrwt beam="1">  1        2 0.44951142E-01 0.96954509E+02</pdfrwt>
<pdfrwt beam="2">  1       -2 0.73217711E-02 0.96954509E+02</pdfrwt>
<totfact> 0.11216844E+04</totfact>
</mgrwt>
</event>
<event>
 8    1  0.3400573E-004  0.1145441E+03  0.7546771E-02  0.1252892E+00
          2   -1    0    0  501    0  0.00000000000E+00  0.00000000000E+00  0.17971272040E+03  0.17971272040E+03  0.00000000000E+00 0. -1.
         -2   -1    0    0    0  501 -0.00000000000E+00 -0.00000000000E+00 -0.90020701037E+02  0.90020701037E+02  0.00000000000E+00 0.  1.
         23    2    1    2    0    0 -0.33750109569E+02 -0.57532867186E+02  0.10492073216E+03  0.15533417725E+03  0.93119524708E+02 0.  0.
         23    2    1    2    0    0  0.33750109569E+02  0.57532867186E+02 -0.15228712805E+02  0.11439924418E+03  0.91685182408E+02 0.  0.
          5    1    4    4  502    0  0.41311788905E+02 -0.86435731678E+01  0.89200840912E+01  0.43393929988E+02  0.47000000000E+01 0. -1.
         -5    1    3    3    0  503 -0.50896724048E+02 -0.31165244438E+02  0.17593921790E+02  0.62396995630E+02  0.47000000000E+01 0.  1.
          5    1    3    3  503    0  0.17146614479E+02 -0.26367622748E+02  0.87326810375E+02  0.92937181621E+02  0.47000000000E+01 0. -1.
         -5    1    4    4    0  502 -0.75616793355E+01  0.66176440354E+02 -0.24148796897E+02  0.71005314194E+02  0.47000000000E+01 0.  1.
<mgrwt>
<rscale>  0 0.11425222E+03</rscale>
<asrwt>0</asrwt>
<pdfrwt beam="1">  1        2 0.27648111E-01 0.11454408E+03</pdfrwt>
<pdfrwt beam="2">  1       -2 0.13849339E-01 0.11454408E+03</pdfrwt>
<totfact> 0.70347783E+03</totfact>
</mgrwt>
</event>
<event>
 8    1  0.3744164E-004  0.9160147E+02  0.7546771E-02  0.1312498E+00
          3   -1    0    0  501    0  0.00000000000E+00  0.00000000000E+00  0.82861925010E+02  0.82861925010E+02  0.00000000000E+00 0. -1.
         -3   -1    0    0    0  501 -0.00000000000E+00 -0.00000000000E+00 -0.24681032040E+03  0.24681032040E+03  0.00000000000E+00 0.  1.
         23    2    1    2    0    0 -0.61497540029E+01 -0.87228185558E+00  0.49789395775E+02  0.10425839777E+03  0.91390640792E+02 0.  0.
         23    2    1    2    0    0  0.61497540029E+01  0.87228185558E+00 -0.21373779117E+03  0.22541384764E+03  0.71337080012E+02 0.  0.
          5    1    3    3  502    0  0.80630240616E+00  0.43359331324E+02  0.11384320919E+02  0.45081864416E+02  0.47000000000E+01 0. -1.
         -5    1    4    4    0  503  0.28711386294E+01 -0.30953298665E+02 -0.15691764727E+03  0.16003620890E+03  0.47000000000E+01 0.  1.
          5    1    4    4  503    0  0.32786153735E+01  0.31825580521E+02 -0.56820143899E+02  0.65377638738E+02  0.47000000000E+01 0. -1.
         -5    1    3    3    0  502 -0.69560564091E+01 -0.44231613180E+02  0.38405074856E+02  0.59176533355E+02  0.47000000000E+01 0.  1.
<mgrwt>
<rscale>  0 0.86132227E+02</rscale>
<asrwt>0</asrwt>
<pdfrwt beam="1">  1        3 0.12747989E-01 0.91601471E+02</pdfrwt>
<pdfrwt beam="2">  1       -3 0.37970818E-01 0.91601471E+02</pdfrwt>
<totfact> 0.72972672E+02</totfact>
</mgrwt>
</event>
<event>
 8    1  0.3400573E-004  0.1183259E+03  0.7546771E-02  0.1246050E+00
          1   -1    0    0  501    0  0.00000000000E+00  0.00000000000E+00  0.97941293714E+02  0.97941293714E+02  0.00000000000E+00 0. -1.
         -1   -1    0    0    0  501 -0.00000000000E+00 -0.00000000000E+00 -0.49630434983E+03  0.49630434983E+03  0.00000000000E+00 0.  1.
         23    2    1    2    0    0  0.51627706081E+02  0.55112696980E+02 -0.45015049501E+03  0.46544224900E+03  0.91094399375E+02 0.  0.
         23    2    1    2    0    0 -0.51627706081E+02 -0.55112696980E+02  0.51787438889E+02  0.12880339454E+03  0.90584470060E+02 0.  0.
          5    1    4    4  502    0 -0.12546714239E+02 -0.72994919896E+02  0.38299476544E+02  0.83514180067E+02  0.47000000000E+01 0. -1.
         -5    1    4    4    0  502 -0.39080991841E+02  0.17882222916E+02  0.13487962345E+02  0.45289214477E+02  0.47000000000E+01 0.  1.
          5    1    3    3  503    0  0.39983330645E+02 -0.17120914612E+02 -0.13661951687E+03  0.14345304053E+03  0.47000000000E+01 0. -1.
         -5    1    3    3    0  503  0.11644375436E+02  0.72233611592E+02 -0.31353097814E+03  0.32198920847E+03  0.47000000000E+01 0.  1.
<mgrwt>
<rscale>  0 0.11822775E+03</rscale>
<asrwt>0</asrwt>
<pdfrwt beam="1">  1        1 0.15067891E-01 0.11832590E+03</pdfrwt>
<pdfrwt beam="2">  1       -1 0.76354515E-01 0.11832590E+03</pdfrwt>
<totfact> 0.66104721E+02</totfact>
</mgrwt>
</event>
<event>
 8    1  0.3400573E-004  0.1747682E+03  0.7546771E-02  0.1173187E+00
          1   -1    0    0  501    0  0.00000000000E+00  0.00000000000E+00  0.53236933082E+02  0.53236933082E+02  0.00000000000E+00 0. -1.
         -1   -1    0    0    0  501 -0.00000000000E+00 -0.00000000000E+00 -0.75231176141E+03  0.75231176141E+03  0.00000000000E+00 0.  1.
         23    2    1    2    0    0 -0.25657542386E+02 -0.14748810748E+03 -0.54802063554E+03  0.57521346560E+03  0.90182385789E+02 0.  0.
         23    2    1    2    0    0  0.25657542386E+02  0.14748810748E+03 -0.15105419280E+03  0.23033522890E+03  0.88464101089E+02 0.  0.
          5    1    4    4  502    0  0.41246814701E+01  0.15110998437E+03 -0.12677929682E+03  0.19734822136E+03  0.47000000000E+01 0. -1.
         -5    1    3    3    0  503  0.13949175877E+02 -0.13039619020E+03 -0.40125677961E+03  0.42216920672E+03  0.47000000000E+01 0.  1.
          5    1    3    3  503    0 -0.39606718263E+02 -0.17091917279E+02 -0.14676385593E+03  0.15304425888E+03  0.47000000000E+01 0. -1.
         -5    1    4    4    0  502  0.21532860916E+02 -0.36218768908E+01 -0.24274895976E+02  0.32987007535E+02  0.47000000000E+01 0.  1.
<mgrwt>
<rscale>  0 0.17454765E+03</rscale>
<asrwt>0</asrwt>
<pdfrwt beam="1">  1        1 0.81902979E-02 0.17476817E+03</pdfrwt>
<pdfrwt beam="2">  1       -1 0.11574026E+00 0.17476817E+03</pdfrwt>
<totfact> 0.60464075E+02</totfact>
</mgrwt>
</event>
<event>
 8    1  0.3400573E-004  0.1459196E+03  0.7546771E-02  0.1206108E+00
         -2   -1    0    0    0  501 -0.00000000000E+00  0.00000000000E+00  0.42687442361E+02  0.42687442361E+02  0.00000000000E+00 0.  1.
          2   -1    0    0  501    0  0.00000000000E+00 -0.00000000000E+00 -0.10873828706E+04  0.10873828706E+04  0.00000000000E+00 0. -1.
         23    2    1    2    0    0  0.10672510413E+03 -0.33754124843E+02 -0.10331052666E+03  0.17744339144E+03  0.91013754184E+02 0.  0.
         23    2    1    2    0    0 -0.10672510413E+03  0.33754124843E+02 -0.94138490162E+03  0.95262692157E+03  0.93610522384E+02 0.  0.
          5    1    4    4  502    0 -0.11071015157E+03  0.53414320398E+02 -0.73575102032E+03  0.74596345834E+03  0.47000000000E+01 0. -1.
         -5    1    3    3    0  503  0.11155848510E+03 -0.22427608675E+01 -0.74783117775E+02  0.13440584168E+03  0.47000000000E+01 0.  1.
          5    1    3    3  503    0 -0.48333809713E+01 -0.31511363976E+02 -0.28527408888E+02  0.43037549757E+02  0.47000000000E+01 0. -1.
         -5    1    4    4    0  502  0.39850474427E+01 -0.19660195555E+02 -0.20563388130E+03  0.20666346322E+03  0.47000000000E+01 0.  1.
<mgrwt>
<rscale>  0 0.14550476E+03</rscale>
<asrwt>0</asrwt>
<pdfrwt beam="1">  1        2 0.16728966E+00 0.14591956E+03</pdfrwt>
<pdfrwt beam="2">  1       -2 0.65672993E-02 0.14591956E+03</pdfrwt>
<totfact> 0.29575293E+03</totfact>
</mgrwt>
</event>
<event>
 8    1  0.3400573E-004  0.9465999E+02  0.7546771E-02  0.1305564E+00
         -1   -1    0    0    0  501 -0.00000000000E+00  0.00000000000E+00  0.20829201675E+02  0.20829201675E+02  0.00000000000E+00 0.  1.
          1   -1    0    0  501    0  0.00000000000E+00 -0.00000000000E+00 -0.34002232245E+03  0.34002232245E+03  0.00000000000E+00 0. -1.
         23    2    1    2    0    0 -0.69135686270E+01 -0.25330491450E+02 -0.13522919303E+03  0.15396208181E+03  0.68760139318E+02 0.  0.
         23    2    1    2    0    0  0.69135686270E+01  0.25330491450E+02 -0.18396392774E+03  0.20688944231E+03  0.90945496877E+02 0.  0.
          5    1    4    4  502    0  0.27375972761E+02  0.46600091737E+02 -0.15882974364E+03  0.16783917868E+03  0.47000000000E+01 0. -1.
         -5    1    4    4    0  502 -0.20462404134E+02 -0.21269600287E+02 -0.25134184093E+02  0.39050263627E+02  0.47000000000E+01 0.  1.
          5    1    3    3  503    0 -0.10019721106E+01  0.22562878328E+02 -0.27989078456E+02  0.36270731167E+02  0.47000000000E+01 0. -1.
         -5    1    3    3    0  503 -0.59115965164E+01 -0.47893369778E+02 -0.10724011458E+03  0.11769135064E+03  0.47000000000E+01 0.  1.
<mgrwt>
<rscale>  0 0.88889119E+02</rscale>
<asrwt>0</asrwt>
<pdfrwt beam="1">  1        1 0.52311125E-01 0.94659995E+02</pdfrwt>
<pdfrwt beam="2">  1       -1 0.32044927E-02 0.94659995E+02</pdfrwt>
<totfact> 0.22972612E+04</totfact>
</mgrwt>
</event>
<event>
 8    1  0.3400573E-004  0.9837146E+02  0.7546771E-02  0.1285710E+00
         -2   -1    0    0    0  501 -0.00000000000E+00  0.00000000000E+00  0.15263183000E+03  0.15263183000E+03  0.00000000000E+00 0.  1.
          2   -1    0    0  501    0  0.00000000000E+00 -0.00000000000E+00 -0.91875133319E+02  0.91875133319E+02  0.00000000000E+00 0. -1.
         23    2    1    2    0    0  0.56409633815E+01 -0.21432530254E+02  0.10146840279E+03  0.14132508698E+03  0.95842420807E+02 0.  0.
         23    2    1    2    0    0 -0.56409633815E+01  0.21432530254E+02 -0.40711706103E+02  0.10318187634E+03  0.92183961565E+02 0.  0.
          5    1    4    4  502    0  0.18081036030E+02  0.43608230366E+02 -0.50155851097E+02  0.69038402493E+02  0.47000000000E+01 0. -1.
         -5    1    3    3    0  503  0.32085206248E+02 -0.12077871204E+02  0.10690769763E+03  0.11236850647E+03  0.47000000000E+01 0.  1.
          5    1    3    3  503    0 -0.26444242866E+02 -0.93546590503E+01 -0.54392948468E+01  0.28956580516E+02  0.47000000000E+01 0. -1.
         -5    1    4    4    0  502 -0.23721999411E+02 -0.22175700112E+02  0.94441449944E+01  0.34143473845E+02  0.47000000000E+01 0.  1.
<mgrwt>
<rscale>  0 0.97468906E+02</rscale>
<asrwt>0</asrwt>
<pdfrwt beam="1">  1        2 0.14134636E-01 0.98371456E+02</pdfrwt>
<pdfrwt beam="2">  1       -2 0.23481820E-01 0.98371456E+02</pdfrwt>
<totfact> 0.61501505E+03</totfact>
</mgrwt>
</event>
<event>
 7    1  0.3400573E-004  0.1361241E+03  0.7546771E-02  0.1233558E+00
         -1   -1    0    0    0  501 -0.00000000000E+00  0.00000000000E+00  0.21629663835E+02  0.21629663835E+02  0.00000000000E+00 0.  1.
          1   -1    0    0  501    0  0.00000000000E+00 -0.00000000000E+00 -0.64747454580E+03  0.64747454580E+03  0.00000000000E+00 0. -1.
         23    2    1    2    0    0 -0.11630381758E+02  0.41993924833E+02 -0.29088100879E+03  0.30753739942E+03  0.89826139096E+02 0.  0.
          5    1    3    3  502    0 -0.18069935089E+02 -0.25564420895E+02 -0.10047444969E+03  0.10534356749E+03  0.47000000000E+01 0. -1.
         -5    1    1    2    0  503  0.29568391952E+02 -0.69262482903E+01 -0.73987414555E+01  0.31608449711E+02  0.47000000000E+01 0.  1.
          5    1    1    2  503    0 -0.17938010193E+02 -0.35067676542E+02 -0.32756513172E+03  0.32995836050E+03  0.47000000000E+01 0. -1.
         -5    1    3    3    0  502  0.64395533309E+01  0.67558345728E+02 -0.19040655910E+03  0.20219383194E+03  0.47000000000E+01 0.  1.
<mgrwt>
<rscale>  0 0.12597211E+03</rscale>
<asrwt>0</asrwt>
<pdfrwt beam="1">  1        1 0.99611472E-01 0.13612407E+03</pdfrwt>
<pdfrwt beam="2">  1       -1 0.33276405E-02 0.13612407E+03</pdfrwt>
<totfact> 0.97748322E+03</totfact>
</mgrwt>
</event>
<event>
 8    1  0.3400573E-004  0.9728970E+02  0.7546771E-02  0.1286717E+00
         -1   -1    0    0    0  501 -0.00000000000E+00  0.00000000000E+00  0.45229529918E+03  0.45229529918E+03  0.00000000000E+00 0.  1.
          1   -1    0    0  501    0  0.00000000000E+00 -0.00000000000E+00 -0.48782453062E+02  0.48782453062E+02  0.00000000000E+00 0. -1.
         23    2    1    2    0    0  0.14333880966E+02  0.15611337162E+02  0.39238864690E+03  0.40426988021E+03  0.94953208666E+02 0.  0.
         23    2    1    2    0    0 -0.14333880966E+02 -0.15611337162E+02  0.11124199211E+02  0.96807872027E+02  0.93802144361E+02 0.  0.
          5    1    4    4  502    0 -0.36677729476E+02 -0.31728361496E+02 -0.22006653094E+02  0.53463328956E+02  0.47000000000E+01 0. -1.
         -5    1    3    3    0  503 -0.26939592822E+02  0.34512736766E+02  0.11481355128E+03  0.12296793166E+03  0.47000000000E+01 0.  1.
          5    1    3    3  503    0  0.41273473788E+02 -0.18901399604E+02  0.27757509563E+03  0.28130194855E+03  0.47000000000E+01 0. -1.
         -5    1    4    4    0  502  0.22343848509E+02  0.16117024334E+02  0.33130852304E+02  0.43344543071E+02  0.47000000000E+01 0.  1.
<mgrwt>
<rscale>  0 0.97007703E+02</rscale>
<asrwt>0</asrwt>
<pdfrwt beam="1">  1        1 0.75049931E-02 0.97289701E+02</pdfrwt>
<pdfrwt beam="2">  1       -1 0.69583889E-01 0.97289701E+02</pdfrwt>
<totfact> 0.19694524E+03</totfact>
</mgrwt>
</event>
<event>
 8    1  0.3400573E-004  0.1047608E+03  0.7546771E-02  0.1270799E+00
          3   -1    0    0  501    0  0.00000000000E+00  0.00000000000E+00  0.43062610727E+03  0.43062610727E+03  0.00000000000E+00 0. -1.
         -3   -1    0    0    0  501 -0.00000000000E+00 -0.00000000000E+00 -0.25804721911E+02  0.25804721911E+02  0.00000000000E+00 0.  1.
         23    2    1    2    0    0 -0.29992291252E+02  0.39478994156E+02  0.23194948646E+03  0.25451008414E+03  0.92285915211E+02 0.  0.
         23    2    1    2    0    0  0.29992291252E+02 -0.39478994156E+02  0.17287189889E+03  0.20192074504E+03  0.91810485972E+02 0.  0.
          5    1    4    4  502    0  0.46822069244E+02 -0.86962196260E+01  0.34242060394E+02  0.58843343753E+02  0.47000000000E+01 0. -1.
         -5    1    3    3    0  503 -0.60533175960E+02  0.35051651950E+02  0.12759332220E+03  0.14558512825E+03  0.47000000000E+01 0.  1.
          5    1    3    3  503    0  0.30540884708E+02  0.44273422061E+01  0.10435616426E+03  0.10892495590E+03  0.47000000000E+01 0. -1.
         -5    1    4    4    0  502 -0.16829777992E+02 -0.30782774530E+02  0.13862983850E+03  0.14307740128E+03  0.47000000000E+01 0.  1.
<mgrwt>
<rscale>  0 0.10465597E+03</rscale>
<asrwt>0</asrwt>
<pdfrwt beam="1">  1        3 0.66250165E-01 0.10476077E+03</pdfrwt>
<pdfrwt beam="2">  1       -3 0.39699575E-02 0.10476077E+03</pdfrwt>
<totfact> 0.16137245E+03</totfact>
</mgrwt>
</event>
<event>
 7    1  0.3983364E-004  0.2452227E+03  0.7546771E-02  0.1139275E+00
         -2   -1    0    0    0  501 -0.00000000000E+00  0.00000000000E+00  0.14201014996E+03  0.14201014996E+03  0.00000000000E+00 0.  1.
          2   -1    0    0  501    0  0.00000000000E+00 -0.00000000000E+00 -0.29485453542E+03  0.29485453542E+03  0.00000000000E+00 0. -1.
         23    2    1    2    0    0 -0.82879581014E+02 -0.59159658483E+02  0.14290413316E+02  0.14010182708E+03  0.95159949021E+02 0.  0.
          5    1    1    2  502    0 -0.48747028279E+01  0.79365917598E+02 -0.18802514199E+03  0.20420150740E+03  0.47000000000E+01 0. -1.
         -5    1    3    3    0  503  0.19501236574E+02 -0.11436586843E+02  0.14083378670E+02  0.27046724409E+02  0.47000000000E+01 0.  1.
          5    1    3    3  503    0 -0.10238081759E+03 -0.47723071640E+02  0.20703464585E+00  0.11305510267E+03  0.47000000000E+01 0. -1.
         -5    1    1    2    0  502  0.87754283842E+02 -0.20206259116E+02  0.20890343224E+02  0.92561350898E+02  0.47000000000E+01 0.  1.
<mgrwt>
<rscale>  0 0.21291862E+03</rscale>
<asrwt>0</asrwt>
<pdfrwt beam="1">  1        2 0.45362235E-01 0.24522266E+03</pdfrwt>
<pdfrwt beam="2">  1       -2 0.21847716E-01 0.24522266E+03</pdfrwt>
<totfact> 0.19986672E+03</totfact>
</mgrwt>
</event>
<event>
 8    1  0.3400573E-004  0.1617891E+03  0.7546771E-02  0.1186920E+00
          1   -1    0    0  501    0  0.00000000000E+00  0.00000000000E+00  0.14162895818E+04  0.14162895818E+04  0.00000000000E+00 0. -1.
         -1   -1    0    0    0  501 -0.00000000000E+00 -0.00000000000E+00 -0.19303226721E+02  0.19303226721E+02  0.00000000000E+00 0.  1.
         23    2    1    2    0    0 -0.15056886547E+02 -0.13240823638E+03  0.54056517199E+03  0.56402356546E+03  0.90295217671E+02 0.  0.
         23    2    1    2    0    0  0.15056886547E+02  0.13240823638E+03  0.85642118314E+03  0.87156924311E+03  0.91744491432E+02 0.  0.
          5    1    3    3  502    0  0.23766082754E+01 -0.68976595134E+02  0.42805137298E+03  0.43360522004E+03  0.47000000000E+01 0. -1.
         -5    1    3    3    0  502 -0.17433494823E+02 -0.63431641247E+02  0.11251379901E+03  0.13041834542E+03  0.47000000000E+01 0.  1.
          5    1    4    4  503    0 -0.25957005322E+02  0.10868893749E+03  0.52807935736E+03  0.53979343172E+03  0.47000000000E+01 0. -1.
         -5    1    4    4    0  503  0.41013891870E+02  0.23719298890E+02  0.32834182578E+03  0.33177581139E+03  0.47000000000E+01 0.  1.
<mgrwt>
<rscale>  0 0.16158433E+03</rscale>
<asrwt>0</asrwt>
<pdfrwt beam="1">  1        1 0.21789062E+00 0.16178907E+03</pdfrwt>
<pdfrwt beam="2">  1       -1 0.29697283E-02 0.16178907E+03</pdfrwt>
<totfact> 0.30965339E+03</totfact>
</mgrwt>
</event>
<event>
 8    1  0.3400573E-004  0.9789329E+02  0.7546771E-02  0.1284834E+00
         -1   -1    0    0    0  501 -0.00000000000E+00  0.00000000000E+00  0.76860611378E+02  0.76860611378E+02  0.00000000000E+00 0.  1.
          1   -1    0    0  501    0  0.00000000000E+00 -0.00000000000E+00 -0.12707833061E+03  0.12707833061E+03  0.00000000000E+00 0. -1.
         23    2    1    2    0    0  0.91767706727E+01  0.42862079754E+02 -0.39407257253E+02  0.10545055381E+03  0.87438643478E+02 0.  0.
         23    2    1    2    0    0 -0.91767706727E+01 -0.42862079754E+02 -0.10810461974E+02  0.98488388177E+02  0.87531283075E+02 0.  0.
          5    1    3    3  502    0  0.17891291479E+02  0.68150733651E+02 -0.29735930609E+02  0.76622035846E+02  0.47000000000E+01 0. -1.
         -5    1    3    3    0  502 -0.87145208064E+01 -0.25288653897E+02 -0.96713266441E+01  0.28828517962E+02  0.47000000000E+01 0.  1.
          5    1    4    4  503    0 -0.81821851563E+01  0.26384128177E+02 -0.74511999782E+01  0.28994495248E+02  0.47000000000E+01 0. -1.
         -5    1    4    4    0  503 -0.99458551639E+00 -0.69246207931E+02 -0.33592619961E+01  0.69493892928E+02  0.47000000000E+01 0.  1.
<mgrwt>
<rscale>  0 0.97872579E+02</rscale>
<asrwt>0</asrwt>
<pdfrwt beam="1">  1        1 0.19550512E-01 0.97893291E+02</pdfrwt>
<pdfrwt beam="2">  1       -1 0.11824709E-01 0.97893291E+02</pdfrwt>
<totfact> 0.11230790E+04</totfact>
</mgrwt>
</event>
<event>
 8    1  0.3400573E-004  0.1238298E+03  0.7546771E-02  0.1246735E+00
         -1   -1    0    0    0  501 -0.00000000000E+00  0.00000000000E+00  0.13684879988E+02  0.13684879988E+02  0.00000000000E+00 0.  1.
          1   -1    0    0  501    0  0.00000000000E+00 -0.00000000000E+00 -0.96998962443E+03  0.96998962443E+03  0.00000000000E+00 0. -1.
         23    2    1    2    0    0  0.41115025194E+02 -0.43795569616E+01 -0.62598687359E+03  0.63811706964E+03  0.11672276059E+03 0.  0.
         23    2    1    2    0    0 -0.41115025194E+02  0.43795569616E+01 -0.33031787085E+03  0.34555743478E+03  0.92684513875E+02 0.  0.
          5    1    4    4  502    0 -0.64302278291E+02  0.12961403202E+02 -0.29467914522E+03  0.30192825239E+03  0.47000000000E+01 0. -1.
         -5    1    4    4    0  502  0.23187253097E+02 -0.85818462400E+01 -0.35638725632E+02  0.43629182387E+02  0.47000000000E+01 0.  1.
          5    1    3    3  503    0  0.89138086546E+01  0.55097385336E+02 -0.27737008384E+03  0.28296895813E+03  0.47000000000E+01 0. -1.
         -5    1    3    3    0  503  0.32201216539E+02 -0.59476942297E+02 -0.34861678975E+03  0.35514811151E+03  0.47000000000E+01 0.  1.
<mgrwt>
<rscale>  0 0.11782132E+03</rscale>
<asrwt>0</asrwt>
<pdfrwt beam="1">  1        1 0.14922914E+00 0.12382984E+03</pdfrwt>
<pdfrwt beam="2">  1       -1 0.21053667E-02 0.12382984E+03</pdfrwt>
<totfact> 0.10266724E+04</totfact>
</mgrwt>
</event>
<event>
 8    1  0.3400573E-004  0.1106302E+03  0.7546771E-02  0.1260845E+00
         -1   -1    0    0    0  501 -0.00000000000E+00  0.00000000000E+00  0.50035918928E+03  0.50035918928E+03  0.00000000000E+00 0.  1.
          1   -1    0    0  501    0  0.00000000000E+00 -0.00000000000E+00 -0.25855334360E+02  0.25855334360E+02  0.00000000000E+00 0. -1.
         23    2    1    2    0    0 -0.52730249770E+02 -0.16938077092E+02  0.31479982491E+03  0.33367345133E+03  0.95768808391E+02 0.  0.
         23    2    1    2    0    0  0.52730249770E+02  0.16938077092E+02  0.15970403001E+03  0.19254107231E+03  0.92191700439E+02 0.  0.
          5    1    3    3  502    0 -0.61578383307E+02  0.89405958090E+01  0.28940885572E+03  0.29605980361E+03  0.47000000000E+01 0. -1.
         -5    1    4    4    0  503  0.25888929994E+02 -0.35516205689E+02  0.95717385030E+02  0.10543028673E+03  0.47000000000E+01 0.  1.
          5    1    4    4  503    0  0.26841319776E+02  0.52454282781E+02  0.63986644982E+02  0.87110785586E+02  0.47000000000E+01 0. -1.
         -5    1    3    3    0  502  0.88481335374E+01 -0.25878672901E+02  0.25390969192E+02  0.37613647719E+02  0.47000000000E+01 0.  1.
<mgrwt>
<rscale>  0 0.10985161E+03</rscale>
<asrwt>0</asrwt>
<pdfrwt beam="1">  1        1 0.39777441E-02 0.11063021E+03</pdfrwt>
<pdfrwt beam="2">  1       -1 0.76978330E-01 0.11063021E+03</pdfrwt>
<totfact> 0.38309694E+03</totfact>
</mgrwt>
</event>
<event>
 8    1  0.3400573E-004  0.1075488E+03  0.7546771E-02  0.1267581E+00
         -1   -1    0    0    0  501 -0.00000000000E+00  0.00000000000E+00  0.25774187775E+02  0.25774187775E+02  0.00000000000E+00 0.  1.
          1   -1    0    0  501    0  0.00000000000E+00 -0.00000000000E+00 -0.49694587718E+03  0.49694587718E+03  0.00000000000E+00 0. -1.
         23    2    1    2    0    0 -0.53172478065E+02 -0.21948580697E+02 -0.14336722873E+03  0.17922304052E+03  0.90871796294E+02 0.  0.
         23    2    1    2    0    0  0.53172478065E+02  0.21948580697E+02 -0.32780446067E+03  0.34349702443E+03  0.85002286667E+02 0.  0.
          5    1    3    3  502    0 -0.87429583370E+01  0.18772029046E+02 -0.10610930690E+03  0.10821323120E+03  0.47000000000E+01 0. -1.
         -5    1    4    4    0  503  0.51639463186E+02 -0.22203572682E+02 -0.21452328657E+03  0.22181515566E+03  0.47000000000E+01 0.  1.
          5    1    4    4  503    0  0.15330148787E+01  0.44152153380E+02 -0.11328117410E+03  0.12168186877E+03  0.47000000000E+01 0. -1.
         -5    1    3    3    0  502 -0.44429519728E+02 -0.40720609743E+02 -0.37257921827E+02  0.71009809323E+02  0.47000000000E+01 0.  1.
<mgrwt>
<rscale>  0 0.10629932E+03</rscale>
<asrwt>0</asrwt>
<pdfrwt beam="1">  1        1 0.76453203E-01 0.10754876E+03</pdfrwt>
<pdfrwt beam="2">  1       -1 0.39652601E-02 0.10754876E+03</pdfrwt>
<totfact> 0.10601010E+04</totfact>
</mgrwt>
</event>
<event>
 8    1  0.3400573E-004  0.1050564E+03  0.7546771E-02  0.1276713E+00
          2   -1    0    0  501    0  0.00000000000E+00  0.00000000000E+00  0.27236917503E+02  0.27236917503E+02  0.00000000000E+00 0. -1.
         -2   -1    0    0    0  501 -0.00000000000E+00 -0.00000000000E+00 -0.59278185715E+03  0.59278185715E+03  0.00000000000E+00 0.  1.
         23    2    1    2    0    0  0.29681707753E+00  0.16316833900E+02 -0.76793214671E+02  0.12010367859E+03  0.90892071288E+02 0.  0.
         23    2    1    2    0    0 -0.29681707753E+00 -0.16316833900E+02 -0.48875172497E+03  0.49991509606E+03  0.10378115163E+03 0.  0.
          5    1    4    4  502    0  0.67663494015E+01 -0.59872864802E+02 -0.29850565694E+03  0.30456240846E+03  0.47000000000E+01 0. -1.
         -5    1    3    3    0  503  0.32316712635E+02  0.30280395846E+02 -0.71820560728E+02  0.84507722910E+02  0.47000000000E+01 0.  1.
          5    1    3    3  503    0 -0.32019895557E+02 -0.13963561945E+02 -0.49726539426E+01  0.35595955682E+02  0.47000000000E+01 0. -1.
         -5    1    4    4    0  502 -0.70631664790E+01  0.43556030901E+02 -0.19024606803E+03  0.19535268760E+03  0.47000000000E+01 0.  1.
<mgrwt>
<rscale>  0 0.10172342E+03</rscale>
<asrwt>0</asrwt>
<pdfrwt beam="1">  1        2 0.41902954E-02 0.10505644E+03</pdfrwt>
<pdfrwt beam="2">  1       -2 0.91197200E-01 0.10505644E+03</pdfrwt>
<totfact> 0.19927803E+03</totfact>
</mgrwt>
</event>
<event>
 8    1  0.3400573E-004  0.1054823E+03  0.7546771E-02  0.1269753E+00
          1   -1    0    0  501    0  0.00000000000E+00  0.00000000000E+00  0.16194379873E+03  0.16194379873E+03  0.00000000000E+00 0. -1.
         -1   -1    0    0    0  501 -0.00000000000E+00 -0.00000000000E+00 -0.70499770826E+02  0.70499770826E+02  0.00000000000E+00 0.  1.
         23    2    1    2    0    0 -0.50083147814E+02 -0.16728032474E+02  0.68115805677E+02  0.12556387409E+03  0.91314701605E+02 0.  0.
         23    2    1    2    0    0  0.50083147814E+02  0.16728032474E+02  0.23328222224E+02  0.10687969546E+03  0.89949511303E+02 0.  0.
          5    1    3    3  502    0 -0.21535988724E+02 -0.24190708678E+02  0.85113562251E+02  0.91188802359E+02  0.47000000000E+01 0. -1.
         -5    1    4    4    0  503  0.57328915259E+02  0.40946550532E+02 -0.22079377645E+01  0.70641273449E+02  0.47000000000E+01 0.  1.
          5    1    4    4  503    0 -0.72457674453E+01 -0.24218518058E+02  0.25536159988E+02  0.36238422009E+02  0.47000000000E+01 0. -1.
         -5    1    3    3    0  502 -0.28547159091E+02  0.74626762041E+01 -0.16997756574E+02  0.34375071735E+02  0.47000000000E+01 0.  1.
<mgrwt>
<rscale>  0 0.10518620E+03</rscale>
<asrwt>0</asrwt>
<pdfrwt beam="1">  1        1 0.24914430E-01 0.10548234E+03</pdfrwt>
<pdfrwt beam="2">  1       -1 0.10846119E-01 0.10548234E+03</pdfrwt>
<totfact> 0.95204154E+03</totfact>
</mgrwt>
</event>
<event>
 8    1  0.3400573E-004  0.1367220E+03  0.7546771E-02  0.1218653E+00
         -2   -1    0    0    0  501 -0.00000000000E+00  0.00000000000E+00  0.12438393792E+03  0.12438393792E+03  0.00000000000E+00 0.  1.
          2   -1    0    0  501    0  0.00000000000E+00 -0.00000000000E+00 -0.57009458520E+03  0.57009458520E+03  0.00000000000E+00 0. -1.
         23    2    1    2    0    0  0.99807826080E+02  0.19921267911E+02  0.76565325280E+02  0.15460343623E+03  0.87644249075E+02 0.  0.
         23    2    1    2    0    0 -0.99807826080E+02 -0.19921267911E+02 -0.52227597255E+03  0.53987508689E+03  0.91293257577E+02 0.  0.
          5    1    4    4  502    0 -0.57857348673E+02  0.65266803991E+01 -0.43876012641E+03  0.44263145943E+03  0.47000000000E+01 0. -1.
         -5    1    3    3    0  503  0.82967164478E+02 -0.88179144532E+01  0.85747284829E+02  0.11973300653E+03  0.47000000000E+01 0.  1.
          5    1    3    3  503    0  0.16840661602E+02  0.28739182364E+02 -0.91819595493E+01  0.34870429698E+02  0.47000000000E+01 0. -1.
         -5    1    4    4    0  502 -0.41950477406E+02 -0.26447948310E+02 -0.83515846142E+02  0.97243627458E+02  0.47000000000E+01 0.  1.
<mgrwt>
<rscale>  0 0.13611576E+03</rscale>
<asrwt>0</asrwt>
<pdfrwt beam="1">  1        2 0.87706861E-01 0.13672205E+03</pdfrwt>
<pdfrwt beam="2">  1       -2 0.19135990E-01 0.13672205E+03</pdfrwt>
<totfact> 0.12070216E+03</totfact>
</mgrwt>
</event>
<event>
 8    1  0.3400573E-004  0.1188030E+03  0.7546771E-02  0.1245669E+00
          1   -1    0    0  501    0  0.00000000000E+00  0.00000000000E+00  0.13505265837E+03  0.13505265837E+03  0.00000000000E+00 0. -1.
         -1   -1    0    0    0  501 -0.00000000000E+00 -0.00000000000E+00 -0.24696371691E+03  0.24696371691E+03  0.00000000000E+00 0.  1.
         23    2    1    2    0    0 -0.72130386356E+02  0.27732229730E+02 -0.20150477836E+03  0.23321725202E+03  0.88398199858E+02 0.  0.
         23    2    1    2    0    0  0.72130386356E+02 -0.27732229730E+02  0.89593719814E+02  0.14879912326E+03  0.90234556860E+02 0.  0.
          5    1    3    3  502    0 -0.14273731632E+02 -0.31218837322E+02 -0.56940424593E+02  0.66653260771E+02  0.47000000000E+01 0. -1.
         -5    1    4    4    0  503 -0.77326307717E+01 -0.36748661533E+02  0.34802027252E+02  0.51415258474E+02  0.47000000000E+01 0.  1.
          5    1    4    4  503    0  0.79863017128E+02  0.90164318028E+01  0.54791692562E+02  0.97383864788E+02  0.47000000000E+01 0. -1.
         -5    1    3    3    0  502 -0.57856654723E+02  0.58951067053E+02 -0.14456435376E+03  0.16656399125E+03  0.47000000000E+01 0.  1.
<mgrwt>
<rscale>  0 0.11845426E+03</rscale>
<asrwt>0</asrwt>
<pdfrwt beam="1">  1        1 0.20777332E-01 0.11880296E+03</pdfrwt>
<pdfrwt beam="2">  1       -1 0.37994417E-01 0.11880296E+03</pdfrwt>
<totfact> 0.16024971E+03</totfact>
</mgrwt>
</event>
<event>
 8    1  0.3400573E-004  0.1072314E+03  0.7546771E-02  0.1266262E+00
          1   -1    0    0  501    0  0.00000000000E+00  0.00000000000E+00  0.69841650083E+02  0.69841650083E+02  0.00000000000E+00 0. -1.
         -1   -1    0    0    0  501 -0.00000000000E+00 -0.00000000000E+00 -0.16342798756E+03  0.16342798756E+03  0.00000000000E+00 0.  1.
         23    2    1    2    0    0 -0.43454894087E+02 -0.33297291129E+02 -0.41508733504E+02  0.11406122309E+03  0.91049163863E+02 0.  0.
         23    2    1    2    0    0  0.43454894087E+02  0.33297291129E+02 -0.52077603977E+02  0.11920841455E+03  0.92203751809E+02 0.  0.
          5    1    3    3  502    0 -0.19958314610E+02  0.21780006124E+02  0.13311461153E+02  0.32741227632E+02  0.47000000000E+01 0. -1.
         -5    1    4    4    0  503 -0.11750679182E+01 -0.27467373676E+02 -0.78920761541E+00  0.27902513326E+02  0.47000000000E+01 0.  1.
          5    1    4    4  503    0  0.44629962005E+02  0.60764664805E+02 -0.51288396362E+02  0.91305901227E+02  0.47000000000E+01 0. -1.
         -5    1    3    3    0  502 -0.23496579477E+02 -0.55077297253E+02 -0.54820194657E+02  0.81319995463E+02  0.47000000000E+01 0.  1.
<mgrwt>
<rscale>  0 0.10698273E+03</rscale>
<asrwt>0</asrwt>
<pdfrwt beam="1">  1        1 0.10744869E-01 0.10723138E+03</pdfrwt>
<pdfrwt beam="2">  1       -1 0.25142767E-01 0.10723138E+03</pdfrwt>
<totfact> 0.74488809E+03</totfact>
</mgrwt>
</event>
<event>
 8    1  0.3400573E-004  0.1019689E+03  0.7546771E-02  0.1277606E+00
         -2   -1    0    0    0  501 -0.00000000000E+00  0.00000000000E+00  0.74256571986E+02  0.74256571986E+02  0.00000000000E+00 0.  1.
          2   -1    0    0  501    0  0.00000000000E+00 -0.00000000000E+00 -0.17389769242E+03  0.17389769242E+03  0.00000000000E+00 0. -1.
         23    2    1    2    0    0  0.39112832446E+02  0.18612139029E+02  0.83475384802E+01  0.99630859158E+02  0.89333091946E+02 0.  0.
         23    2    1    2    0    0 -0.39112832446E+02 -0.18612139029E+02 -0.10798865892E+03  0.14852340525E+03  0.92311570626E+02 0.  0.
          5    1    4    4  502    0 -0.32494314952E+02 -0.46859758887E+02 -0.10421814821E+03  0.11889167306E+03  0.47000000000E+01 0. -1.
         -5    1    4    4    0  502 -0.66185174942E+01  0.28247619859E+02 -0.37705107063E+01  0.29631732188E+02  0.47000000000E+01 0.  1.
          5    1    3    3  503    0 -0.20515763798E+02 -0.19040633093E+02 -0.60293273882E+00  0.28388303942E+02  0.47000000000E+01 0. -1.
         -5    1    3    3    0  503  0.59628596244E+02  0.37652772122E+02  0.89504712191E+01  0.71242555215E+02  0.47000000000E+01 0.  1.
<mgrwt>
<rscale>  0 0.10129004E+03</rscale>
<asrwt>0</asrwt>
<pdfrwt beam="1">  1        2 0.26753491E-01 0.10196887E+03</pdfrwt>
<pdfrwt beam="2">  1       -2 0.11424088E-01 0.10196887E+03</pdfrwt>
<totfact> 0.98188806E+03</totfact>
</mgrwt>
</event>
<event>
 8    1  0.3400573E-004  0.9320723E+02  0.7546771E-02  0.1296572E+00
          3   -1    0    0  501    0  0.00000000000E+00  0.00000000000E+00  0.81133797780E+02  0.81133797780E+02  0.00000000000E+00 0. -1.
         -3   -1    0    0    0  501 -0.00000000000E+00 -0.00000000000E+00 -0.24729576551E+03  0.24729576551E+03  0.00000000000E+00 0.  1.
         23    2    1    2    0    0  0.35626373766E+01  0.45065964027E+01  0.41261873131E+02  0.10193199068E+03  0.93030031463E+02 0.  0.
         23    2    1    2    0    0 -0.35626373766E+01 -0.45065964027E+01 -0.20742384086E+03  0.22649757260E+03  0.90793715881E+02 0.  0.
          5    1    4    4  502    0  0.19573728635E+02 -0.37418117235E+02 -0.59399442765E+02  0.73031706477E+02  0.47000000000E+01 0. -1.
         -5    1    4    4    0  502 -0.23136366012E+02  0.32911520832E+02 -0.14802439809E+03  0.15346586613E+03  0.47000000000E+01 0.  1.
          5    1    3    3  503    0 -0.43707407363E+02 -0.50313669137E+01  0.14388302705E+02  0.46527039087E+02  0.47000000000E+01 0. -1.
         -5    1    3    3    0  503  0.47270044740E+02  0.95379633164E+01  0.26873570425E+02  0.55404951596E+02  0.47000000000E+01 0.  1.
<mgrwt>
<rscale>  0 0.92644163E+02</rscale>
<asrwt>0</asrwt>
<pdfrwt beam="1">  1        3 0.12482123E-01 0.93207234E+02</pdfrwt>
<pdfrwt beam="2">  1       -3 0.38045502E-01 0.93207234E+02</pdfrwt>
<totfact> 0.75529818E+02</totfact>
</mgrwt>
</event>
<event>
 8    1  0.3400573E-004  0.9171576E+02  0.7546771E-02  0.1302142E+00
          1   -1    0    0  501    0  0.00000000000E+00  0.00000000000E+00  0.24106327563E+03  0.24106327563E+03  0.00000000000E+00 0. -1.
         -1   -1    0    0    0  501 -0.00000000000E+00 -0.00000000000E+00 -0.43285209848E+02  0.43285209848E+02  0.00000000000E+00 0.  1.
         23    2    1    2    0    0 -0.12757145571E+02  0.15931502335E+01  0.16645551732E+03  0.18743159936E+03  0.85193205736E+02 0.  0.
         23    2    1    2    0    0  0.12757145571E+02 -0.15931502335E+01  0.31322548466E+02  0.96916886117E+02  0.90810230049E+02 0.  0.
          5    1    3    3  502    0 -0.45007742933E+02 -0.55270271020E+01  0.13119896721E+03  0.13889385857E+03  0.47000000000E+01 0. -1.
         -5    1    3    3    0  502  0.32250597362E+02  0.71201773355E+01  0.35256550109E+02  0.48537740791E+02  0.47000000000E+01 0.  1.
          5    1    4    4  503    0 -0.10132435062E+02  0.36078754905E+02 -0.68882576230E+01  0.38391156388E+02  0.47000000000E+01 0. -1.
         -5    1    4    4    0  503  0.22889580634E+02 -0.37671905138E+02  0.38210806089E+02  0.58525729729E+02  0.47000000000E+01 0.  1.
<mgrwt>
<rscale>  0 0.90293528E+02</rscale>
<asrwt>0</asrwt>
<pdfrwt beam="1">  1        1 0.37086657E-01 0.91715761E+02</pdfrwt>
<pdfrwt beam="2">  1       -1 0.66592632E-02 0.91715761E+02</pdfrwt>
<totfact> 0.11977201E+04</totfact>
</mgrwt>
</event>
<event>
 8    1  0.3400573E-004  0.1261945E+03  0.7546771E-02  0.1240102E+00
         -2   -1    0    0    0  501 -0.00000000000E+00  0.00000000000E+00  0.91358262387E+01  0.91358262387E+01  0.00000000000E+00 0.  1.
          2   -1    0    0  501    0  0.00000000000E+00 -0.00000000000E+00 -0.15357779822E+04  0.15357779822E+04  0.00000000000E+00 0. -1.
         23    2    1    2    0    0  0.58790577614E+02  0.25422836082E+02 -0.78342958817E+03  0.79106370975E+03  0.88978765164E+02 0.  0.
         23    2    1    2    0    0 -0.58790577614E+02 -0.25422836082E+02 -0.74321256783E+03  0.75385009873E+03  0.10873085010E+03 0.  0.
          5    1    4    4  502    0  0.25816012480E+02  0.16785095010E+02 -0.21030681292E+03  0.21260115587E+03  0.47000000000E+01 0. -1.
         -5    1    4    4    0  502 -0.84606590094E+02 -0.42207931093E+02 -0.53290575490E+03  0.54124894286E+03  0.47000000000E+01 0.  1.
          5    1    3    3  503    0  0.76342688286E+02 -0.22209221782E+01 -0.53771124453E+03  0.54312854007E+03  0.47000000000E+01 0. -1.
         -5    1    3    3    0  503 -0.17552110672E+02  0.27643758260E+02 -0.24571834365E+03  0.24793516968E+03  0.47000000000E+01 0.  1.
<mgrwt>
<rscale>  0 0.12183380E+03</rscale>
<asrwt>0</asrwt>
<pdfrwt beam="1">  1        2 0.23627315E+00 0.12619449E+03</pdfrwt>
<pdfrwt beam="2">  1       -2 0.14055140E-02 0.12619449E+03</pdfrwt>
<totfact> 0.16334937E+04</totfact>
</mgrwt>
</event>
<event>
 8    1  0.3400573E-004  0.1157742E+03  0.7546771E-02  0.1252547E+00
         -1   -1    0    0    0  501 -0.00000000000E+00  0.00000000000E+00  0.44364495727E+02  0.44364495727E+02  0.00000000000E+00 0.  1.
          1   -1    0    0  501    0  0.00000000000E+00 -0.00000000000E+00 -0.47950991177E+03  0.47950991177E+03  0.00000000000E+00 0. -1.
         23    2    1    2    0    0 -0.29532823499E+01  0.71890046963E+02 -0.38580887692E+03  0.40280534448E+03  0.90701462527E+02 0.  0.
         23    2    1    2    0    0  0.29532823499E+01 -0.71890046963E+02 -0.49336539125E+02  0.12106906302E+03  0.83944762778E+02 0.  0.
          5    1    3    3  502    0  0.31919996212E+02  0.67034806485E+02 -0.19482216047E+03  0.20854331840E+03  0.47000000000E+01 0. -1.
         -5    1    4    4    0  503 -0.36072962689E+02 -0.42812610759E+02 -0.74230675325E+01  0.56668952776E+02  0.47000000000E+01 0.  1.
          5    1    4    4  503    0  0.39026245039E+02 -0.29077436204E+02 -0.41913471592E+02  0.64400110240E+02  0.47000000000E+01 0. -1.
         -5    1    3    3    0  502 -0.34873278562E+02  0.48552404781E+01 -0.19098671645E+03  0.19426202608E+03  0.47000000000E+01 0.  1.
<mgrwt>
<rscale>  0 0.11444814E+03</rscale>
<asrwt>0</asrwt>
<pdfrwt beam="1">  1        1 0.73770755E-01 0.11577416E+03</pdfrwt>
<pdfrwt beam="2">  1       -1 0.68253071E-02 0.11577416E+03</pdfrwt>
<totfact> 0.50094125E+03</totfact>
</mgrwt>
</event>
<event>
 8    1  0.3400573E-004  0.9638127E+02  0.7546771E-02  0.1288762E+00
         -2   -1    0    0    0  501 -0.00000000000E+00  0.00000000000E+00  0.15005094664E+02  0.15005094664E+02  0.00000000000E+00 0.  1.
          2   -1    0    0  501    0  0.00000000000E+00 -0.00000000000E+00 -0.63848257725E+03  0.63848257725E+03  0.00000000000E+00 0. -1.
         23    2    1    2    0    0  0.26324911209E+02 -0.17777385882E+02 -0.38090525526E+03  0.39290986664E+03  0.90996227516E+02 0.  0.
         23    2    1    2    0    0 -0.26324911209E+02  0.17777385882E+02 -0.24257222732E+03  0.26057780527E+03  0.89724415465E+02 0.  0.
          5    1    3    3  502    0  0.41387374327E+02  0.26498679103E+02 -0.19231923373E+03  0.19855445704E+03  0.47000000000E+01 0. -1.
         -5    1    4    4    0  503 -0.43996914765E+02 -0.62940710340E+01 -0.56369314235E+02  0.71937010129E+02  0.47000000000E+01 0.  1.
          5    1    4    4  503    0  0.17672003556E+02  0.24071456916E+02 -0.18620291309E+03  0.18864079514E+03  0.47000000000E+01 0. -1.
         -5    1    3    3    0  502 -0.15062463117E+02 -0.44276064986E+02 -0.18858602152E+03  0.19435540960E+03  0.47000000000E+01 0.  1.
<mgrwt>
<rscale>  0 0.96079905E+02</rscale>
<asrwt>0</asrwt>
<pdfrwt beam="1">  1        2 0.98228073E-01 0.96381273E+02</pdfrwt>
<pdfrwt beam="2">  1       -2 0.23084765E-02 0.96381273E+02</pdfrwt>
<totfact> 0.26659700E+04</totfact>
</mgrwt>
</event>
<event>
 8    1  0.3400573E-004  0.1444324E+03  0.7546771E-02  0.1207660E+00
          1   -1    0    0  501    0  0.00000000000E+00  0.00000000000E+00  0.36317557051E+03  0.36317557051E+03  0.00000000000E+00 0. -1.
         -1   -1    0    0    0  501 -0.00000000000E+00 -0.00000000000E+00 -0.10123817378E+03  0.10123817378E+03  0.00000000000E+00 0.  1.
         23    2    1    2    0    0  0.76799391600E+02 -0.80096810228E+02 -0.21997763547E+02  0.14609801131E+03  0.92450428597E+02 0.  0.
         23    2    1    2    0    0 -0.76799391600E+02  0.80096810228E+02  0.28393516029E+03  0.31831573298E+03  0.91608324179E+02 0.  0.
          5    1    4    4  502    0 -0.53187594746E+02  0.64740735662E+02  0.27629159715E+03  0.28875494757E+03  0.47000000000E+01 0. -1.
         -5    1    4    4    0  502 -0.23611796854E+02  0.15356074565E+02  0.76435631303E+01  0.29560785410E+02  0.47000000000E+01 0.  1.
          5    1    3    3  503    0  0.14703966913E+02 -0.16007635716E+02  0.34010612065E+02  0.40635732764E+02  0.47000000000E+01 0. -1.
         -5    1    3    3    0  503  0.62095424687E+02 -0.64089174511E+02 -0.56008375612E+02  0.10546227854E+03  0.47000000000E+01 0.  1.
<mgrwt>
<rscale>  0 0.14429785E+03</rscale>
<asrwt>0</asrwt>
<pdfrwt beam="1">  1        1 0.55873164E-01 0.14443243E+03</pdfrwt>
<pdfrwt beam="2">  1       -1 0.15575104E-01 0.14443243E+03</pdfrwt>
<totfact> 0.20372706E+03</totfact>
</mgrwt>
</event>
<event>
 8    1  0.3400573E-004  0.9379380E+02  0.7546771E-02  0.1294157E+00
          1   -1    0    0  501    0  0.00000000000E+00  0.00000000000E+00  0.62687796219E+02  0.62687796219E+02  0.00000000000E+00 0. -1.
         -1   -1    0    0    0  501 -0.00000000000E+00 -0.00000000000E+00 -0.21413639192E+03  0.21413639192E+03  0.00000000000E+00 0.  1.
         23    2    1    2    0    0 -0.10080437430E+02 -0.16444380526E+02  0.59880099503E+01  0.93566007055E+02  0.91360322588E+02 0.  0.
         23    2    1    2    0    0  0.10080437430E+02  0.16444380526E+02 -0.15743660565E+03  0.18325818109E+03  0.91789123895E+02 0.  0.
          5    1    4    4  502    0 -0.77655023973E+01  0.50169799907E+02 -0.61373252887E+02  0.79787705946E+02  0.47000000000E+01 0. -1.
         -5    1    3    3    0  503  0.15680205505E+01 -0.53762376051E+02  0.40955854674E+01  0.54145319164E+02  0.47000000000E+01 0.  1.
          5    1    3    3  503    0 -0.11648457981E+02  0.37317995525E+02  0.18924244828E+01  0.39420687891E+02  0.47000000000E+01 0. -1.
         -5    1    4    4    0  502  0.17845939828E+02 -0.33725419382E+02 -0.96063352768E+02  0.10347047514E+03  0.47000000000E+01 0.  1.
<mgrwt>
<rscale>  0 0.93688721E+02</rscale>
<asrwt>0</asrwt>
<pdfrwt beam="1">  1        1 0.96442765E-02 0.93793796E+02</pdfrwt>
<pdfrwt beam="2">  1       -1 0.32944060E-01 0.93793796E+02</pdfrwt>
<totfact> 0.54251259E+03</totfact>
</mgrwt>
</event>
<event>
 8    1  0.3400573E-004  0.9175444E+02  0.7546771E-02  0.1298710E+00
          1   -1    0    0  501    0  0.00000000000E+00  0.00000000000E+00  0.26464096108E+02  0.26464096108E+02  0.00000000000E+00 0. -1.
         -1   -1    0    0    0  501 -0.00000000000E+00 -0.00000000000E+00 -0.32067833651E+03  0.32067833651E+03  0.00000000000E+00 0.  1.
         23    2    1    2    0    0 -0.24242418457E+00  0.14652853072E+01 -0.16343131453E+03  0.18738307801E+03  0.91653791655E+02 0.  0.
         23    2    1    2    0    0  0.24242418457E+00 -0.14652853072E+01 -0.13078292587E+03  0.15975935460E+03  0.91742421240E+02 0.  0.
          5    1    4    4  502    0  0.45258028184E+02 -0.11307220792E+01 -0.77198954620E+02  0.89617722811E+02  0.47000000000E+01 0. -1.
         -5    1    4    4    0  502 -0.45015604000E+02 -0.33456322796E+00 -0.53583971247E+02  0.70141631793E+02  0.47000000000E+01 0.  1.
          5    1    3    3  503    0  0.22990864330E+02  0.38674809076E+02 -0.61787589829E+02  0.76577522529E+02  0.47000000000E+01 0. -1.
         -5    1    3    3    0  503 -0.23233288515E+02 -0.37209523769E+02 -0.10164372470E+03  0.11080555548E+03  0.47000000000E+01 0.  1.
<mgrwt>
<rscale>  0 0.91732280E+02</rscale>
<asrwt>0</asrwt>
<pdfrwt beam="1">  1        1 0.40713997E-02 0.91754442E+02</pdfrwt>
<pdfrwt beam="2">  1       -1 0.49335125E-01 0.91754442E+02</pdfrwt>
<totfact> 0.85112885E+03</totfact>
</mgrwt>
</event>
<event>
 8    1  0.3400573E-004  0.1008059E+03  0.7546771E-02  0.1279509E+00
         -2   -1    0    0    0  501 -0.00000000000E+00  0.00000000000E+00  0.26632044540E+02  0.26632044540E+02  0.00000000000E+00 0.  1.
          2   -1    0    0  501    0  0.00000000000E+00 -0.00000000000E+00 -0.63756644775E+03  0.63756644775E+03  0.00000000000E+00 0. -1.
         23    2    1    2    0    0 -0.36777083677E+02  0.11099347708E+02 -0.93935523040E+02  0.13778863773E+03  0.93199124442E+02 0.  0.
         23    2    1    2    0    0  0.36777083677E+02 -0.11099347708E+02 -0.51699888017E+03  0.52640985456E+03  0.91344093804E+02 0.  0.
          5    1    4    4  502    0  0.98134468652E+01 -0.48931886203E+02 -0.21125163752E+03  0.21711742810E+03  0.47000000000E+01 0. -1.
         -5    1    3    3    0  503  0.10067037590E+02  0.25274188360E+02  0.42950359239E+01  0.27940421914E+02  0.47000000000E+01 0.  1.
          5    1    3    3  503    0 -0.46844121267E+02 -0.14174840653E+02 -0.98230558964E+02  0.10984821582E+03  0.47000000000E+01 0. -1.
         -5    1    4    4    0  502  0.26963636811E+02  0.37832538495E+02 -0.30574724265E+03  0.30929242646E+03  0.47000000000E+01 0.  1.
<mgrwt>
<rscale>  0 0.10037500E+03</rscale>
<asrwt>0</asrwt>
<pdfrwt beam="1">  1        2 0.98087143E-01 0.10080588E+03</pdfrwt>
<pdfrwt beam="2">  1       -2 0.40972378E-02 0.10080588E+03</pdfrwt>
<totfact> 0.11607582E+04</totfact>
</mgrwt>
</event>
<event>
 8    1  0.3400573E-004  0.1345327E+03  0.7546771E-02  0.1221826E+00
         -4   -1    0    0    0  501 -0.00000000000E+00  0.00000000000E+00  0.58374936975E+02  0.58374936975E+02  0.00000000000E+00 0.  1.
          4   -1    0    0  501    0  0.00000000000E+00 -0.00000000000E+00 -0.31279864836E+03  0.31279864836E+03  0.00000000000E+00 0. -1.
         23    2    1    2    0    0 -0.56284275815E+02 -0.81345251331E+02 -0.15711526711E+03  0.20513751877E+03  0.87242333918E+02 0.  0.
         23    2    1    2    0    0  0.56284275815E+02  0.81345251331E+02 -0.97308444275E+02  0.16603606657E+03  0.91181535727E+02 0.  0.
          5    1    4    4  502    0 -0.75714599696E+01  0.63163604896E+02 -0.27145476105E+02  0.69324850252E+02  0.47000000000E+01 0. -1.
         -5    1    4    4    0  502  0.63855735785E+02  0.18181646435E+02 -0.70162968170E+02  0.96711216320E+02  0.47000000000E+01 0.  1.
          5    1    3    3  503    0 -0.56108816042E+02 -0.22033115782E+02 -0.12171221066E+03  0.13590294203E+03  0.47000000000E+01 0. -1.
         -5    1    3    3    0  503 -0.17545977314E+00 -0.59312135549E+02 -0.35403056450E+02  0.69234576734E+02  0.47000000000E+01 0.  1.
<mgrwt>
<rscale>  0 0.13386826E+03</rscale>
<asrwt>0</asrwt>
<pdfrwt beam="1">  1        4 0.48122869E-01 0.13453268E+03</pdfrwt>
<pdfrwt beam="2">  1       -4 0.89807595E-02 0.13453268E+03</pdfrwt>
<totfact> 0.63125176E+02</totfact>
</mgrwt>
</event>
<event>
 8    1  0.3400573E-004  0.9594737E+02  0.7546771E-02  0.1289933E+00
         -1   -1    0    0    0  501 -0.00000000000E+00  0.00000000000E+00  0.19112939292E+02  0.19112939292E+02  0.00000000000E+00 0.  1.
          1   -1    0    0  501    0  0.00000000000E+00 -0.00000000000E+00 -0.57369389271E+03  0.57369389271E+03  0.00000000000E+00 0. -1.
         23    2    1    2    0    0  0.24790608327E+02 -0.10728489273E+02 -0.39906309485E+03  0.41007286702E+03  0.90436319328E+02 0.  0.
         23    2    1    2    0    0 -0.24790608327E+02  0.10728489273E+02 -0.15551785857E+03  0.18273396498E+03  0.92066404732E+02 0.  0.
          5    1    3    3  502    0  0.41915046089E+02 -0.40927328082E+02 -0.27138292244E+03  0.27767372555E+03  0.47000000000E+01 0. -1.
         -5    1    3    3    0  502 -0.17124437763E+02  0.30198838810E+02 -0.12768017241E+03  0.13239914147E+03  0.47000000000E+01 0.  1.
          5    1    4    4  503    0 -0.36757491945E+02 -0.27352342669E+02 -0.12198289460E+03  0.13038857480E+03  0.47000000000E+01 0. -1.
         -5    1    4    4    0  503  0.11966883618E+02  0.38080831941E+02 -0.33534963976E+02  0.52345390186E+02  0.47000000000E+01 0.  1.
<mgrwt>
<rscale>  0 0.95554200E+02</rscale>
<asrwt>0</asrwt>
<pdfrwt beam="1">  1        1 0.88260593E-01 0.95947369E+02</pdfrwt>
<pdfrwt beam="2">  1       -1 0.29404524E-02 0.95947369E+02</pdfrwt>
<totfact> 0.13426891E+04</totfact>
</mgrwt>
</event>
<event>
 7    1  0.3400573E-004  0.1832363E+03  0.7546771E-02  0.1195152E+00
         -4   -1    0    0    0  501 -0.00000000000E+00  0.00000000000E+00  0.12216130827E+03  0.12216130827E+03  0.00000000000E+00 0.  1.
          4   -1    0    0  501    0  0.00000000000E+00 -0.00000000000E+00 -0.12320738935E+04  0.12320738935E+04  0.00000000000E+00 0. -1.
         23    2    1    2    0    0  0.12948950624E+02  0.17875342441E+02  0.96720514575E+02  0.13376849038E+03  0.89732646736E+02 0.  0.
          5    1    1    2  502    0 -0.95528401305E+02 -0.27014141154E+02 -0.70689845817E+03  0.71385079634E+03  0.47000000000E+01 0. -1.
         -5    1    1    2    0  502  0.82579450682E+02  0.91387987131E+01 -0.49973464168E+03  0.50661591508E+03  0.47000000000E+01 0.  1.
          5    1    3    3  503    0 -0.47557216496E+01  0.33289111833E+02 -0.18002288624E+00  0.33954443940E+02  0.47000000000E+01 0. -1.
         -5    1    3    3    0  503  0.17704672273E+02 -0.15413769392E+02  0.96900537461E+02  0.99814046443E+02  0.47000000000E+01 0.  1.
<mgrwt>
<rscale>  0 0.15441360E+03</rscale>
<asrwt>0</asrwt>
<pdfrwt beam="1">  1        4 0.18954983E+00 0.18323634E+03</pdfrwt>
<pdfrwt beam="2">  1       -4 0.18794047E-01 0.18323634E+03</pdfrwt>
<totfact> 0.75292024E+00</totfact>
</mgrwt>
</event>
<event>
 8    1  0.3400573E-004  0.1175636E+03  0.7546771E-02  0.1248760E+00
          2   -1    0    0  501    0  0.00000000000E+00  0.00000000000E+00  0.37444523724E+02  0.37444523724E+02  0.00000000000E+00 0. -1.
         -2   -1    0    0    0  501 -0.00000000000E+00 -0.00000000000E+00 -0.36871814005E+03  0.36871814005E+03  0.00000000000E+00 0.  1.
         23    2    1    2    0    0  0.65119143229E+02  0.25232309794E+02 -0.12787378671E+03  0.17123140247E+03  0.89951740356E+02 0.  0.
         23    2    1    2    0    0 -0.65119143229E+02 -0.25232309794E+02 -0.20339982961E+03  0.23493126130E+03  0.94572906140E+02 0.  0.
          5    1    3    3  502    0  0.34979481719E+02  0.39375654757E+01  0.25514661656E+01  0.35604333202E+02  0.47000000000E+01 0. -1.
         -5    1    4    4    0  503 -0.14850534717E+02  0.27585526438E+02 -0.11972206163E+03  0.12384248743E+03  0.47000000000E+01 0.  1.
          5    1    4    4  503    0 -0.50268608512E+02 -0.52817836232E+02 -0.83677767977E+02  0.11108877387E+03  0.47000000000E+01 0. -1.
         -5    1    3    3    0  502  0.30139661510E+02  0.21294744319E+02 -0.13042525288E+03  0.13562706927E+03  0.47000000000E+01 0.  1.
<mgrwt>
<rscale>  0 0.11663151E+03</rscale>
<asrwt>0</asrwt>
<pdfrwt beam="1">  1        2 0.57606959E-02 0.11756363E+03</pdfrwt>
<pdfrwt beam="2">  1       -2 0.56725868E-01 0.11756363E+03</pdfrwt>
<totfact> 0.36530118E+03</totfact>
</mgrwt>
</event>
<event>
 8    1  0.3400573E-004  0.1092288E+03  0.7546771E-02  0.1263922E+00
          2   -1    0    0  501    0  0.00000000000E+00  0.00000000000E+00  0.49378714753E+03  0.49378714753E+03  0.00000000000E+00 0. -1.
         -2   -1    0    0    0  501 -0.00000000000E+00 -0.00000000000E+00 -0.24737221949E+02  0.24737221949E+02  0.00000000000E+00 0.  1.
         23    2    1    2    0    0 -0.30043562055E+02 -0.42426813303E+02  0.30155385183E+03  0.32072677726E+03  0.96063989040E+02 0.  0.
         23    2    1    2    0    0  0.30043562055E+02  0.42426813303E+02  0.16749607375E+03  0.19779759222E+03  0.91467495089E+02 0.  0.
          5    1    4    4  502    0 -0.26056567117E+02  0.35038521957E+02  0.45510482557E+02  0.63245053035E+02  0.47000000000E+01 0. -1.
         -5    1    3    3    0  503  0.27005899163E+02 -0.42342211769E+02  0.11469361354E+03  0.12529523723E+03  0.47000000000E+01 0.  1.
          5    1    3    3  503    0 -0.57049461218E+02 -0.84601534437E-01  0.18686023829E+03  0.19543154003E+03  0.47000000000E+01 0. -1.
         -5    1    4    4    0  502  0.56100129172E+02  0.73882913465E+01  0.12198559119E+03  0.13455253918E+03  0.47000000000E+01 0.  1.
<mgrwt>
<rscale>  0 0.10820973E+03</rscale>
<asrwt>0</asrwt>
<pdfrwt beam="1">  1        2 0.75967246E-01 0.10922884E+03</pdfrwt>
<pdfrwt beam="2">  1       -2 0.38057268E-02 0.10922884E+03</pdfrwt>
<totfact> 0.17308462E+04</totfact>
</mgrwt>
</event>
<event>
 8    1  0.3400573E-004  0.9256056E+02  0.7546771E-02  0.1303081E+00
          1   -1    0    0  501    0  0.00000000000E+00  0.00000000000E+00  0.32861505704E+03  0.32861505704E+03  0.00000000000E+00 0. -1.
         -1   -1    0    0    0  501 -0.00000000000E+00 -0.00000000000E+00 -0.27368605380E+02  0.27368605380E+02  0.00000000000E+00 0.  1.
         23    2    1    2    0    0  0.85095425048E+01 -0.25535290476E+02  0.74518041398E+02  0.11108934074E+03  0.77868092042E+02 0.  0.
         23    2    1    2    0    0 -0.85095425048E+01  0.25535290476E+02  0.22672841026E+03  0.24489432168E+03  0.88560676371E+02 0.  0.
          5    1    3    3  502    0  0.33604977559E+02  0.11200339248E+02  0.45129534308E+02  0.57563069610E+02  0.47000000000E+01 0. -1.
         -5    1    3    3    0  502 -0.25095435054E+02 -0.36735629725E+02  0.29388507090E+02  0.53526271128E+02  0.47000000000E+01 0.  1.
          5    1    4    4  503    0  0.32345558241E+02  0.29398044015E+02  0.68736250020E+02  0.81591924825E+02  0.47000000000E+01 0. -1.
         -5    1    4    4    0  503 -0.40855100745E+02 -0.38627535382E+01  0.15799216024E+03  0.16330239685E+03  0.47000000000E+01 0.  1.
<mgrwt>
<rscale>  0 0.89905534E+02</rscale>
<asrwt>0</asrwt>
<pdfrwt beam="1">  1        1 0.50556160E-01 0.92560557E+02</pdfrwt>
<pdfrwt beam="2">  1       -1 0.42105549E-02 0.92560557E+02</pdfrwt>
<totfact> 0.16087799E+04</totfact>
</mgrwt>
</event>
<event>
 8    1  0.3400573E-004  0.1736976E+03  0.7546771E-02  0.1174243E+00
         -1   -1    0    0    0  501 -0.00000000000E+00  0.00000000000E+00  0.61901321665E+02  0.61901321665E+02  0.00000000000E+00 0.  1.
          1   -1    0    0  501    0  0.00000000000E+00 -0.00000000000E+00 -0.11666122642E+04  0.11666122642E+04  0.00000000000E+00 0. -1.
         23    2    1    2    0    0 -0.14047330869E+03  0.46534565345E+02 -0.83426661913E+02  0.19269371351E+03  0.90954071276E+02 0.  0.
         23    2    1    2    0    0  0.14047330869E+03 -0.46534565345E+02 -0.10212842806E+04  0.10358198723E+04  0.89459543354E+02 0.  0.
          5    1    3    3  502    0 -0.39480288308E+02  0.57541757903E+02 -0.48708605497E+02  0.85231246130E+02  0.47000000000E+01 0. -1.
         -5    1    4    4    0  503  0.24584786676E+02  0.40118633766E+01 -0.47408879654E+02  0.53760567833E+02  0.47000000000E+01 0.  1.
          5    1    4    4  503    0  0.11588852201E+03 -0.50546428722E+02 -0.97387540094E+03  0.98205930449E+03  0.47000000000E+01 0. -1.
         -5    1    3    3    0  502 -0.10099302038E+03 -0.11007192558E+02 -0.34718056416E+02  0.10746246738E+03  0.47000000000E+01 0.  1.
<mgrwt>
<rscale>  0 0.17350281E+03</rscale>
<asrwt>0</asrwt>
<pdfrwt beam="1">  1        1 0.17947880E+00 0.17369761E+03</pdfrwt>
<pdfrwt beam="2">  1       -1 0.95232806E-02 0.17369761E+03</pdfrwt>
<totfact> 0.80218015E+02</totfact>
</mgrwt>
</event>
<event>
 8    1  0.3400573E-004  0.1115225E+03  0.7546771E-02  0.1257952E+00
         -1   -1    0    0    0  501 -0.00000000000E+00  0.00000000000E+00  0.22457048511E+02  0.22457048511E+02  0.00000000000E+00 0.  1.
          1   -1    0    0  501    0  0.00000000000E+00 -0.00000000000E+00 -0.56317697445E+03  0.56317697445E+03  0.00000000000E+00 0. -1.
         23    2    1    2    0    0 -0.59764734743E+02  0.25659238358E+02 -0.31132125533E+03  0.33056341771E+03  0.90116752485E+02 0.  0.
         23    2    1    2    0    0  0.59764734743E+02 -0.25659238358E+02 -0.22939867061E+03  0.25507060525E+03  0.90592734542E+02 0.  0.
          5    1    4    4  502    0 -0.31404362965E+01 -0.26028570184E+02 -0.15613895128E+03  0.15839447880E+03  0.47000000000E+01 0. -1.
         -5    1    3    3    0  503 -0.24003889600E+02 -0.11841451728E+02 -0.17845288107E+02  0.32510782867E+02  0.47000000000E+01 0.  1.
          5    1    3    3  503    0 -0.35760845143E+02  0.37500690087E+02 -0.29347596722E+03  0.29805263484E+03  0.47000000000E+01 0. -1.
         -5    1    4    4    0  502  0.62905171040E+02  0.36933182539E+00 -0.73259719329E+02  0.96676126452E+02  0.47000000000E+01 0.  1.
<mgrwt>
<rscale>  0 0.11142578E+03</rscale>
<asrwt>0</asrwt>
<pdfrwt beam="1">  1        1 0.86642608E-01 0.11152248E+03</pdfrwt>
<pdfrwt beam="2">  1       -1 0.34549307E-02 0.11152248E+03</pdfrwt>
<totfact> 0.11029696E+04</totfact>
</mgrwt>
</event>
<event>
 8    1  0.3400573E-004  0.1189112E+03  0.7546771E-02  0.1245501E+00
          2   -1    0    0  501    0  0.00000000000E+00  0.00000000000E+00  0.89892669481E+03  0.89892669481E+03  0.00000000000E+00 0. -1.
         -2   -1    0    0    0  501 -0.00000000000E+00 -0.00000000000E+00 -0.31594203415E+02  0.31594203415E+02  0.00000000000E+00 0.  1.
         23    2    1    2    0    0  0.94559800406E+01 -0.73582704771E+02  0.10075461839E+03  0.15477511684E+03  0.91104410792E+02 0.  0.
         23    2    1    2    0    0 -0.94559800406E+01  0.73582704771E+02  0.76657787301E+03  0.77574578139E+03  0.92930360783E+02 0.  0.
          5    1    4    4  502    0  0.77274217859E+01  0.89193053596E+02  0.68359684790E+03  0.68945040019E+03  0.47000000000E+01 0. -1.
         -5    1    3    3    0  503 -0.28871429489E+02 -0.47628859018E+02  0.16081920428E+02  0.58161721232E+02  0.47000000000E+01 0.  1.
          5    1    3    3  503    0  0.38327409529E+02 -0.25953845753E+02  0.84672697961E+02  0.96613395607E+02  0.47000000000E+01 0. -1.
         -5    1    4    4    0  502 -0.17183401827E+02 -0.15610348826E+02  0.82981025104E+02  0.86295381198E+02  0.47000000000E+01 0.  1.
<mgrwt>
<rscale>  0 0.11855426E+03</rscale>
<asrwt>0</asrwt>
<pdfrwt beam="1">  1        2 0.13829640E+00 0.11891124E+03</pdfrwt>
<pdfrwt beam="2">  1       -2 0.48606474E-02 0.11891124E+03</pdfrwt>
<totfact> 0.60019686E+03</totfact>
</mgrwt>
</event>
<event>
 8    1  0.3400573E-004  0.1290829E+03  0.7546771E-02  0.1229662E+00
         -1   -1    0    0    0  501 -0.00000000000E+00  0.00000000000E+00  0.39880120362E+03  0.39880120362E+03  0.00000000000E+00 0.  1.
          1   -1    0    0  501    0  0.00000000000E+00 -0.00000000000E+00 -0.43914928724E+02  0.43914928724E+02  0.00000000000E+00 0. -1.
         23    2    1    2    0    0 -0.87818250602E+02 -0.46842847484E+02  0.11962431423E+03  0.17436826863E+03  0.78663962845E+02 0.  0.
         23    2    1    2    0    0  0.87818250602E+02  0.46842847484E+02  0.23526196066E+03  0.26834786371E+03  0.82195427641E+02 0.  0.
          5    1    4    4  502    0  0.23700145844E+02 -0.13079156222E+02  0.15230047142E+02  0.31413461708E+02  0.47000000000E+01 0.  1.
         -5    1    4    4    0  502  0.64118104758E+02  0.59922003706E+02  0.22003191352E+03  0.23693440201E+03  0.47000000000E+01 0.  1.
          5    1    3    3  503    0  0.63153760438E+01 -0.25974400840E+02  0.11657304048E+02  0.29538723928E+02  0.47000000000E+01 0. -1.
         -5    1    3    3    0  503 -0.94133626646E+02 -0.20868446644E+02  0.10796701018E+03  0.14482954470E+03  0.47000000000E+01 0. -1.
<mgrwt>
<rscale>  0 0.12852438E+03</rscale>
<asrwt>0</asrwt>
<pdfrwt beam="1">  1        1 0.67561431E-02 0.12908286E+03</pdfrwt>
<pdfrwt beam="2">  1       -1 0.61354029E-01 0.12908286E+03</pdfrwt>
<totfact> 0.29350910E+03</totfact>
</mgrwt>
</event>
<event>
 8    1  0.3400573E-004  0.1062300E+03  0.7546771E-02  0.1268534E+00
          1   -1    0    0  501    0  0.00000000000E+00  0.00000000000E+00  0.55325329595E+03  0.55325329595E+03  0.00000000000E+00 0. -1.
         -1   -1    0    0    0  501 -0.00000000000E+00 -0.00000000000E+00 -0.20276994461E+02  0.20276994461E+02  0.00000000000E+00 0.  1.
         23    2    1    2    0    0  0.33264606256E+02 -0.33209103308E+02  0.29286719719E+03  0.31097134713E+03  0.93394887295E+02 0.  0.
         23    2    1    2    0    0 -0.33264606256E+02  0.33209103308E+02  0.24010910430E+03  0.26255894328E+03  0.95265094123E+02 0.  0.
          5    1    3    3  502    0 -0.26079532983E+02  0.38926629081E+01  0.14318084752E+03  0.14566447735E+03  0.47000000000E+01 0. -1.
         -5    1    3    3    0  502  0.59344139239E+02 -0.37101766216E+02  0.14968634968E+03  0.16530686978E+03  0.47000000000E+01 0.  1.
          5    1    4    4  503    0 -0.79672609377E+01  0.51744698015E+02  0.60386258176E+02  0.80059860080E+02  0.47000000000E+01 0. -1.
         -5    1    4    4    0  503 -0.25297345319E+02 -0.18535594706E+02  0.17972284612E+03  0.18249908320E+03  0.47000000000E+01 0.  1.
<mgrwt>
<rscale>  0 0.10580905E+03</rscale>
<asrwt>0</asrwt>
<pdfrwt beam="1">  1        1 0.85115880E-01 0.10623002E+03</pdfrwt>
<pdfrwt beam="2">  1       -1 0.31195380E-02 0.10623002E+03</pdfrwt>
<totfact> 0.13045633E+04</totfact>
</mgrwt>
</event>
<event>
 8    1  0.3400573E-004  0.9188953E+02  0.7546771E-02  0.1303424E+00
          1   -1    0    0  501    0  0.00000000000E+00  0.00000000000E+00  0.49544494579E+03  0.49544494579E+03  0.00000000000E+00 0. -1.
         -1   -1    0    0    0  501 -0.00000000000E+00 -0.00000000000E+00 -0.96792363868E+02  0.96792363868E+02  0.00000000000E+00 0.  1.
         23    2    1    2    0    0 -0.43081257198E+00  0.51177881357E+00 -0.70413402904E+02  0.11576585830E+03  0.91887099865E+02 0.  0.
         23    2    1    2    0    0  0.43081257198E+00 -0.51177881357E+00  0.46906598483E+03  0.47647145136E+03  0.83676151470E+02 0.  0.
          5    1    4    4  502    0  0.54784615728E+01  0.40133766626E+02  0.18587900401E+03  0.19029930871E+03  0.47000000000E+01 0. -1.
         -5    1    4    4    0  502 -0.50476490008E+01 -0.40645545440E+02  0.28318698082E+03  0.28617214266E+03  0.47000000000E+01 0.  1.
          5    1    3    3  503    0  0.31118535178E+02  0.33283427469E+02 -0.30182055596E+02  0.54856141458E+02  0.47000000000E+01 0. -1.
         -5    1    3    3    0  503 -0.31549347750E+02 -0.32771648656E+02 -0.40231347308E+02  0.60909716838E+02  0.47000000000E+01 0.  1.
<mgrwt>
<rscale>  0 0.89764256E+02</rscale>
<asrwt>0</asrwt>
<pdfrwt beam="1">  1        1 0.76222298E-01 0.91889535E+02</pdfrwt>
<pdfrwt beam="2">  1       -1 0.14891133E-01 0.91889535E+02</pdfrwt>
<totfact> 0.14563067E+03</totfact>
</mgrwt>
</event>
<event>
 8    1  0.3400573E-004  0.1159516E+03  0.7546771E-02  0.1250002E+00
          1   -1    0    0  501    0  0.00000000000E+00  0.00000000000E+00  0.33053803671E+02  0.33053803671E+02  0.00000000000E+00 0. -1.
         -1   -1    0    0    0  501 -0.00000000000E+00 -0.00000000000E+00 -0.40685407242E+03  0.40685407242E+03  0.00000000000E+00 0.  1.
         23    2    1    2    0    0 -0.62119621432E+02 -0.36004258999E+02 -0.19611228995E+03  0.22782624749E+03  0.91047321464E+02 0.  0.
         23    2    1    2    0    0  0.62119621432E+02  0.36004258999E+02 -0.17768797880E+03  0.21208162860E+03  0.90831962133E+02 0.  0.
          5    1    3    3  502    0 -0.43053497055E+02 -0.52562772476E+02 -0.64742362365E+02  0.93968676396E+02  0.47000000000E+01 0. -1.
         -5    1    3    3    0  502 -0.19066124376E+02  0.16558513477E+02 -0.13136992758E+03  0.13385757110E+03  0.47000000000E+01 0.  1.
          5    1    4    4  503    0  0.84185695693E+02  0.39202673062E+02 -0.14387258543E+03  0.17130525904E+03  0.47000000000E+01 0.  1.
         -5    1    4    4    0  503 -0.22066074261E+02 -0.31984140628E+01 -0.33815393365E+02  0.40776369557E+02  0.47000000000E+01 0. -1.
<mgrwt>
<rscale>  0 0.11590930E+03</rscale>
<asrwt>0</asrwt>
<pdfrwt beam="1">  1        1 0.50852007E-02 0.11595158E+03</pdfrwt>
<pdfrwt beam="2">  1       -1 0.62592933E-01 0.11595158E+03</pdfrwt>
<totfact> 0.41240503E+03</totfact>
</mgrwt>
</event>
<event>
 8    1  0.3400573E-004  0.1192911E+03  0.7546771E-02  0.1245461E+00
         -1   -1    0    0    0  501 -0.00000000000E+00  0.00000000000E+00  0.15805732902E+03  0.15805732902E+03  0.00000000000E+00 0.  1.
          1   -1    0    0  501    0  0.00000000000E+00 -0.00000000000E+00 -0.89391031698E+02  0.89391031698E+02  0.00000000000E+00 0. -1.
         23    2    1    2    0    0  0.73200918899E+02 -0.12422428382E+01  0.50645316965E+02  0.12959670758E+03  0.94183017522E+02 0.  0.
         23    2    1    2    0    0 -0.73200918899E+02  0.12422428382E+01  0.18020980357E+02  0.11785165314E+03  0.90577804785E+02 0.  0.
          5    1    3    3  502    0 -0.18070989067E+02 -0.16748580637E+02  0.26869452811E+01  0.25226677826E+02  0.47000000000E+01 0. -1.
         -5    1    4    4    0  503 -0.63255919883E+01 -0.26956145505E+02  0.33272182915E+02  0.43540498969E+02  0.47000000000E+01 0.  1.
          5    1    4    4  503    0 -0.66875326911E+02  0.28198388343E+02 -0.15251202559E+02  0.74311154170E+02  0.47000000000E+01 0. -1.
         -5    1    3    3    0  502  0.91271907966E+02  0.15506337799E+02  0.47958371684E+02  0.10437002975E+03  0.47000000000E+01 0.  1.
<mgrwt>
<rscale>  0 0.11857836E+03</rscale>
<asrwt>0</asrwt>
<pdfrwt beam="1">  1        1 0.13752466E-01 0.11929107E+03</pdfrwt>
<pdfrwt beam="2">  1       -1 0.24316512E-01 0.11929107E+03</pdfrwt>
<totfact> 0.57485378E+03</totfact>
</mgrwt>
</event>
<event>
 8    1  0.3400573E-004  0.9580734E+02  0.7546771E-02  0.1289454E+00
          2   -1    0    0  501    0  0.00000000000E+00  0.00000000000E+00  0.45573431433E+03  0.45573431433E+03  0.00000000000E+00 0.  1.
         -2   -1    0    0    0  501 -0.00000000000E+00 -0.00000000000E+00 -0.42738302667E+02  0.42738302667E+02  0.00000000000E+00 0. -1.
         23    2    1    2    0    0 -0.11842549929E+02 -0.21746889461E+02  0.38793529281E+03  0.39959083761E+03  0.92552001062E+02 0.  0.
         23    2    1    2    0    0  0.11842549929E+02  0.21746889461E+02  0.25060718844E+02  0.98881779382E+02  0.92392605087E+02 0.  0.
          5    1    4    4  502    0 -0.32170197815E+02  0.27628921114E+02 -0.78884707933E+01  0.43388902739E+02  0.47000000000E+01 0. -1.
         -5    1    3    3    0  503  0.38988531520E+02 -0.20694665951E+02  0.19774682052E+03  0.20266788057E+03  0.47000000000E+01 0.  1.
          5    1    3    3  503    0 -0.50831081449E+02 -0.10522235106E+01  0.19018847229E+03  0.19692295704E+03  0.47000000000E+01 0. -1.
         -5    1    4    4    0  502  0.44012747745E+02 -0.58820316533E+01  0.32949189637E+02  0.55492876643E+02  0.47000000000E+01 0.  1.
<mgrwt>
<rscale>  0 0.95768822E+02</rscale>
<asrwt>0</asrwt>
<pdfrwt beam="1">  1        2 0.70112968E-01 0.95807338E+02</pdfrwt>
<pdfrwt beam="2">  1       -2 0.65751238E-02 0.95807338E+02</pdfrwt>
<totfact> 0.82602490E+03</totfact>
</mgrwt>
</event>
<event>
 8    1  0.3400573E-004  0.1036326E+03  0.7546771E-02  0.1274179E+00
         -1   -1    0    0    0  501 -0.00000000000E+00  0.00000000000E+00  0.73025048068E+02  0.73025048068E+02  0.00000000000E+00 0.  1.
          1   -1    0    0  501    0  0.00000000000E+00 -0.00000000000E+00 -0.26241280109E+03  0.26241280109E+03  0.00000000000E+00 0. -1.
         23    2    1    2    0    0  0.33987600674E+02  0.25192506783E+02  0.17609087657E+02  0.10511801395E+03  0.94603897866E+02 0.  0.
         23    2    1    2    0    0 -0.33987600674E+02 -0.25192506783E+02 -0.20699684067E+03  0.23031983520E+03  0.91704498475E+02 0.  0.
          5    1    3    3  502    0 -0.26535398737E+02  0.31762947505E+02  0.14028365586E+02  0.43953353244E+02  0.47000000000E+01 0. -1.
         -5    1    3    3    0  502  0.60522999411E+02 -0.65704407220E+01  0.35807220706E+01  0.61164660708E+02  0.47000000000E+01 0.  1.
          5    1    4    4  503    0 -0.15905396984E+02 -0.40863222027E+02 -0.20020781227E+03  0.20500742099E+03  0.47000000000E+01 0. -1.
         -5    1    4    4    0  503 -0.18082203690E+02  0.15670715244E+02 -0.67890284067E+01  0.25312414212E+02  0.47000000000E+01 0.  1.
<mgrwt>
<rscale>  0 0.10296624E+03</rscale>
<asrwt>0</asrwt>
<pdfrwt beam="1">  1        1 0.40371199E-01 0.10363261E+03</pdfrwt>
<pdfrwt beam="2">  1       -1 0.11234623E-01 0.10363261E+03</pdfrwt>
<totfact> 0.49701016E+03</totfact>
</mgrwt>
</event>
<event>
 8    1  0.3400573E-004  0.1115561E+03  0.7546771E-02  0.1261099E+00
         -1   -1    0    0    0  501 -0.00000000000E+00  0.00000000000E+00  0.46476671188E+02  0.46476671188E+02  0.00000000000E+00 0.  1.
          1   -1    0    0  501    0  0.00000000000E+00 -0.00000000000E+00 -0.25583092479E+03  0.25583092479E+03  0.00000000000E+00 0. -1.
         23    2    1    2    0    0  0.12924271928E+02 -0.47788675687E+02 -0.80067441078E+02  0.13154506490E+03  0.91883157592E+02 0.  0.
         23    2    1    2    0    0 -0.12924271928E+02  0.47788675687E+02 -0.12928681252E+03  0.17076253108E+03  0.99969834449E+02 0.  0.
          5    1    3    3  502    0 -0.34993829359E+01 -0.25454543599E+02 -0.95818992434E+02  0.99315400527E+02  0.47000000000E+01 0. -1.
         -5    1    4    4    0  503  0.35724717678E+02 -0.84133260440E+01 -0.45846923163E+02  0.58915786269E+02  0.47000000000E+01 0.  1.
          5    1    4    4  503    0 -0.48648989606E+02  0.56202001731E+02 -0.83439889359E+02  0.11184674481E+03  0.47000000000E+01 0. -1.
         -5    1    3    3    0  502  0.16423654864E+02 -0.22334132088E+02  0.15751551356E+02  0.32229664369E+02  0.47000000000E+01 0.  1.
<mgrwt>
<rscale>  0 0.10971473E+03</rscale>
<asrwt>0</asrwt>
<pdfrwt beam="1">  1        1 0.39358603E-01 0.11155609E+03</pdfrwt>
<pdfrwt beam="2">  1       -1 0.71502572E-02 0.11155609E+03</pdfrwt>
<totfact> 0.10192113E+04</totfact>
</mgrwt>
</event>
<event>
 8    1  0.3400573E-004  0.9241495E+02  0.7546771E-02  0.1297692E+00
          2   -1    0    0  501    0  0.00000000000E+00  0.00000000000E+00  0.82001450619E+02  0.82001450619E+02  0.00000000000E+00 0. -1.
         -2   -1    0    0    0  501 -0.00000000000E+00 -0.00000000000E+00 -0.17346862448E+03  0.17346862448E+03  0.00000000000E+00 0.  1.
         23    2    1    2    0    0 -0.34643065287E+01 -0.90456221008E+01  0.35808947263E+02  0.98181378000E+02  0.90903672000E+02 0.  0.
         23    2    1    2    0    0  0.34643065287E+01  0.90456221008E+01 -0.12727612112E+03  0.15728869710E+03  0.91905922157E+02 0.  0.
          5    1    3    3  502    0  0.30179903893E+02 -0.32114100441E+02  0.96982371873E+00  0.44330267360E+02  0.47000000000E+01 0. -1.
         -5    1    3    3    0  502 -0.33644210422E+02  0.23068478340E+02  0.34839123544E+02  0.53851110640E+02  0.47000000000E+01 0.  1.
          5    1    4    4  503    0  0.29288035134E+02 -0.29138031007E+02 -0.84732055714E+02  0.94384453796E+02  0.47000000000E+01 0. -1.
         -5    1    4    4    0  503 -0.25823728605E+02  0.38183653108E+02 -0.42544065411E+02  0.62904243302E+02  0.47000000000E+01 0.  1.
<mgrwt>
<rscale>  0 0.92164770E+02</rscale>
<asrwt>0</asrwt>
<pdfrwt beam="1">  1        2 0.12615608E-01 0.92414951E+02</pdfrwt>
<pdfrwt beam="2">  1       -2 0.26687481E-01 0.92414951E+02</pdfrwt>
<totfact> 0.56029141E+03</totfact>
</mgrwt>
</event>
<event>
 8    1  0.4723663E-004  0.9970391E+02  0.7546771E-02  0.1281915E+00
          1   -1    0    0  501    0  0.00000000000E+00  0.00000000000E+00  0.16390287367E+03  0.16390287367E+03  0.00000000000E+00 0. -1.
         -1   -1    0    0    0  501 -0.00000000000E+00 -0.00000000000E+00 -0.15017430271E+03  0.15017430271E+03  0.00000000000E+00 0.  1.
         23    2    1    2    0    0 -0.25900907457E+02  0.27404792398E+02  0.12884793375E+03  0.16178358423E+03  0.90278781798E+02 0.  0.
         23    2    1    2    0    0  0.25900907457E+02 -0.27404792398E+02 -0.11511936279E+03  0.15229359215E+03  0.92298379544E+02 0.  0.
          5    1    4    4  502    0  0.87803019677E+01  0.33997553418E+02 -0.47367512570E+02  0.59149797871E+02  0.47000000000E+01 0. -1.
         -5    1    3    3    0  503  0.85731537545E+00 -0.26577998375E+02  0.10642797254E+02  0.29025577008E+02  0.47000000000E+01 0.  1.
          5    1    3    3  503    0 -0.26758222832E+02  0.53982790773E+02  0.11820513649E+03  0.13275800723E+03  0.47000000000E+01 0. -1.
         -5    1    4    4    0  502  0.17120605489E+02 -0.61402345816E+02 -0.67751850222E+02  0.93143794278E+02  0.47000000000E+01 0.  1.
<mgrwt>
<rscale>  0 0.99233949E+02</rscale>
<asrwt>0</asrwt>
<pdfrwt beam="1">  1        1 0.25215827E-01 0.99703914E+02</pdfrwt>
<pdfrwt beam="2">  1       -1 0.23103739E-01 0.99703914E+02</pdfrwt>
<totfact> 0.28621128E+03</totfact>
</mgrwt>
</event>
<event>
 8    1  0.3400573E-004  0.9657793E+02  0.7546771E-02  0.1299641E+00
         -1   -1    0    0    0  501 -0.00000000000E+00  0.00000000000E+00  0.87996683631E+01  0.87996683631E+01  0.00000000000E+00 0.  1.
          1   -1    0    0  501    0  0.00000000000E+00 -0.00000000000E+00 -0.87843674666E+03  0.87843674666E+03  0.00000000000E+00 0. -1.
         23    2    1    2    0    0  0.95087771349E+01  0.12832531429E+02 -0.41578741395E+03  0.42685649881E+03  0.95248129990E+02 0.  0.
         23    2    1    2    0    0 -0.95087771349E+01 -0.12832531429E+02 -0.45384966434E+03  0.46037991621E+03  0.75598007411E+02 0.  0.
          5    1    4    4  502    0  0.26673241901E+02 -0.22311302873E+02 -0.29690368785E+03  0.29897014220E+03  0.47000000000E+01 0. -1.
         -5    1    3    3    0  503 -0.35697245547E+02 -0.12526824864E+02 -0.10425163537E+03  0.11100318986E+03  0.47000000000E+01 0.  1.
          5    1    3    3  503    0  0.45206022682E+02  0.25359356293E+02 -0.31153577858E+03  0.31585330895E+03  0.47000000000E+01 0. -1.
         -5    1    4    4    0  502 -0.36182019036E+02  0.94787714444E+01 -0.15694597649E+03  0.16140977401E+03  0.47000000000E+01 0.  1.
<mgrwt>
<rscale>  0 0.91339068E+02</rscale>
<asrwt>0</asrwt>
<pdfrwt beam="1">  1        1 0.13514408E+00 0.96577932E+02</pdfrwt>
<pdfrwt beam="2">  1       -1 0.13537954E-02 0.96577932E+02</pdfrwt>
<totfact> 0.22194107E+04</totfact>
</mgrwt>
</event>
<event>
 8    1  0.3400573E-004  0.2235837E+03  0.7546771E-02  0.1131454E+00
         -1   -1    0    0    0  501 -0.00000000000E+00  0.00000000000E+00  0.70944408195E+02  0.70944408195E+02  0.00000000000E+00 0.  1.
          1   -1    0    0  501    0  0.00000000000E+00 -0.00000000000E+00 -0.82045484335E+03  0.82045484335E+03  0.00000000000E+00 0. -1.
         23    2    1    2    0    0  0.19846828338E+03  0.46726590706E+02 -0.20380737826E+03  0.30166924039E+03  0.88847337479E+02 0.  0.
         23    2    1    2    0    0 -0.19846828338E+03 -0.46726590706E+02 -0.54570305690E+03  0.58973001116E+03  0.91742171150E+02 0.  0.
          5    1    3    3  502    0  0.54956965507E+02 -0.25025475101E+02 -0.41698616232E+02  0.73535073655E+02  0.47000000000E+01 0. -1.
         -5    1    4    4    0  503 -0.69813956632E+02 -0.58904464367E+01 -0.88378000386E+02  0.11287801758E+03  0.47000000000E+01 0.  1.
          5    1    4    4  503    0 -0.12865432675E+03 -0.40836144270E+02 -0.45732505651E+03  0.47685199358E+03  0.47000000000E+01 0. -1.
         -5    1    3    3    0  502  0.14351131787E+03  0.71752065808E+02 -0.16210876203E+03  0.22813416673E+03  0.47000000000E+01 0.  1.
<mgrwt>
<rscale>  0 0.22329006E+03</rscale>
<asrwt>0</asrwt>
<pdfrwt beam="1">  1        1 0.12622382E+00 0.22358368E+03</pdfrwt>
<pdfrwt beam="2">  1       -1 0.10914524E-01 0.22358368E+03</pdfrwt>
<totfact> 0.11790666E+03</totfact>
</mgrwt>
</event>
<event>
 8    1  0.3400573E-004  0.1040502E+03  0.7546771E-02  0.1272471E+00
         -2   -1    0    0    0  501 -0.00000000000E+00  0.00000000000E+00  0.33070849969E+02  0.33070849969E+02  0.00000000000E+00 0.  1.
          2   -1    0    0  501    0  0.00000000000E+00 -0.00000000000E+00 -0.33078476435E+03  0.33078476435E+03  0.00000000000E+00 0. -1.
         23    2    1    2    0    0  0.44422752280E+02  0.19580314088E+02 -0.17340740316E+03  0.20174902472E+03  0.90971269552E+02 0.  0.
         23    2    1    2    0    0 -0.44422752280E+02 -0.19580314088E+02 -0.12430651122E+03  0.16210658960E+03  0.92030799411E+02 0.  0.
          5    1    4    4  502    0 -0.55578705048E+02 -0.39520213735E+02 -0.12040333357E+03  0.13845538084E+03  0.47000000000E+01 0. -1.
         -5    1    3    3    0  503  0.52185795589E+02  0.42659231298E+02 -0.78112972267E+02  0.10328065507E+03  0.47000000000E+01 0.  1.
          5    1    3    3  503    0 -0.77630433085E+01 -0.23078917210E+02 -0.95294430894E+02  0.98468369644E+02  0.47000000000E+01 0. -1.
         -5    1    4    4    0  502  0.11155952767E+02  0.19939899647E+02 -0.39031776478E+01  0.23651208760E+02  0.47000000000E+01 0.  1.
<mgrwt>
<rscale>  0 0.10381539E+03</rscale>
<asrwt>0</asrwt>
<pdfrwt beam="1">  1        2 0.50889967E-01 0.10405017E+03</pdfrwt>
<pdfrwt beam="2">  1       -2 0.50878227E-02 0.10405017E+03</pdfrwt>
<totfact> 0.17150728E+04</totfact>
</mgrwt>
</event>
<event>
 8    1  0.3400573E-004  0.9303819E+02  0.7546771E-02  0.1296387E+00
          1   -1    0    0  501    0  0.00000000000E+00  0.00000000000E+00  0.14345651803E+02  0.14345651803E+02  0.00000000000E+00 0. -1.
         -1   -1    0    0    0  501 -0.00000000000E+00 -0.00000000000E+00 -0.60170981480E+03  0.60170981480E+03  0.00000000000E+00 0.  1.
         23    2    1    2    0    0 -0.25415271721E-01 -0.13325255066E+02 -0.26387162288E+03  0.27979338549E+03  0.92078999405E+02 0.  0.
         23    2    1    2    0    0  0.25415271721E-01  0.13325255066E+02 -0.32349254011E+03  0.33626208111E+03  0.90814099221E+02 0.  0.
          5    1    3    3  502    0  0.40311924943E+02  0.12029238254E+02 -0.15850913082E+03  0.16406397660E+03  0.47000000000E+01 0. -1.
         -5    1    3    3    0  502 -0.40337340215E+02 -0.25354493320E+02 -0.10536249206E+03  0.11572940889E+03  0.47000000000E+01 0.  1.
          5    1    4    4  503    0  0.31285780490E+02  0.31254911285E+02 -0.94958946348E+02  0.10485685973E+03  0.47000000000E+01 0. -1.
         -5    1    4    4    0  503 -0.31260365218E+02 -0.17929656219E+02 -0.22853359376E+03  0.23140522139E+03  0.47000000000E+01 0.  1.
<mgrwt>
<rscale>  0 0.92723681E+02</rscale>
<asrwt>0</asrwt>
<pdfrwt beam="1">  1        1 0.22070244E-02 0.93038192E+02</pdfrwt>
<pdfrwt beam="2">  1       -1 0.92570696E-01 0.93038192E+02</pdfrwt>
<totfact> 0.57985729E+03</totfact>
</mgrwt>
</event>
<event>
 8    1  0.3400573E-004  0.1047783E+03  0.7546771E-02  0.1274834E+00
          1   -1    0    0  501    0  0.00000000000E+00  0.00000000000E+00  0.15417056662E+03  0.15417056662E+03  0.00000000000E+00 0. -1.
         -1   -1    0    0    0  501 -0.00000000000E+00 -0.00000000000E+00 -0.89249614749E+02  0.89249614749E+02  0.00000000000E+00 0.  1.
         23    2    1    2    0    0 -0.48113867780E+02  0.45143682519E+00  0.93968541637E+02  0.13469000030E+03  0.83643058853E+02 0.  0.
         23    2    1    2    0    0  0.48113867780E+02 -0.45143682519E+00 -0.29047589764E+02  0.10873018107E+03  0.93077074177E+02 0.  0.
          5    1    4    4  502    0  0.41290434636E+01 -0.41804050838E+02 -0.17449626614E+01  0.42305585460E+02  0.47000000000E+01 0. -1.
         -5    1    4    4    0  502  0.43984824316E+02  0.41352614013E+02 -0.27302627103E+02  0.66424595615E+02  0.47000000000E+01 0.  1.
          5    1    3    3  503    0 -0.65252401587E+02  0.19487465523E+02  0.54244105724E+02  0.87190310420E+02  0.47000000000E+01 0. -1.
         -5    1    3    3    0  503  0.17138533807E+02 -0.19036028698E+02  0.39724435914E+02  0.47499689876E+02  0.47000000000E+01 0. -1.
<mgrwt>
<rscale>  0 0.10264311E+03</rscale>
<asrwt>0</asrwt>
<pdfrwt beam="1">  1        1 0.23718549E-01 0.10477829E+03</pdfrwt>
<pdfrwt beam="2">  1       -1 0.13730710E-01 0.10477829E+03</pdfrwt>
<totfact> 0.70455300E+03</totfact>
</mgrwt>
</event>
<event>
 8    1  0.3400573E-004  0.9738835E+02  0.7546771E-02  0.1286430E+00
          1   -1    0    0  501    0  0.00000000000E+00  0.00000000000E+00  0.16903947141E+03  0.16903947141E+03  0.00000000000E+00 0. -1.
         -1   -1    0    0    0  501 -0.00000000000E+00 -0.00000000000E+00 -0.72563503390E+02  0.72563503390E+02  0.00000000000E+00 0.  1.
         23    2    1    2    0    0  0.18685380904E+01 -0.34933341291E+02 -0.10466470538E+02  0.96961433955E+02  0.89822841753E+02 0.  0.
         23    2    1    2    0    0 -0.18685380904E+01  0.34933341291E+02  0.10694243856E+03  0.14464154085E+03  0.90888175279E+02 0.  0.
          5    1    3    3  502    0 -0.36303913338E+02 -0.18828995248E+01 -0.24808984551E+02  0.44261666809E+02  0.47000000000E+01 0. -1.
         -5    1    3    3    0  502  0.38172451428E+02 -0.33050441767E+02  0.14342514013E+02  0.52699767146E+02  0.47000000000E+01 0.  1.
          5    1    4    4  503    0 -0.23527652676E+02  0.28127007152E+02  0.11444891758E+03  0.12027187413E+03  0.47000000000E+01 0. -1.
         -5    1    4    4    0  503  0.21659114585E+02  0.68063341399E+01 -0.75064790134E+01  0.24369666724E+02  0.47000000000E+01 0.  1.
<mgrwt>
<rscale>  0 0.97139024E+02</rscale>
<asrwt>0</asrwt>
<pdfrwt beam="1">  1        1 0.26006072E-01 0.97388347E+02</pdfrwt>
<pdfrwt beam="2">  1       -1 0.11163616E-01 0.97388347E+02</pdfrwt>
<totfact> 0.85797247E+03</totfact>
</mgrwt>
</event>
<event>
 8    1  0.3400573E-004  0.9471568E+02  0.7546771E-02  0.1293259E+00
          2   -1    0    0  501    0  0.00000000000E+00  0.00000000000E+00  0.31418077530E+03  0.31418077530E+03  0.00000000000E+00 0. -1.
         -2   -1    0    0    0  501 -0.00000000000E+00 -0.00000000000E+00 -0.27818271555E+02  0.27818271555E+02  0.00000000000E+00 0.  1.
         23    2    1    2    0    0 -0.19148779999E+02 -0.79968780270E+01  0.13705228190E+03  0.16518105678E+03  0.89837785543E+02 0.  0.
         23    2    1    2    0    0  0.19148779999E+02  0.79968780270E+01  0.14931022185E+03  0.17681799008E+03  0.92414465497E+02 0.  0.
          5    1    4    4  502    0  0.52818248349E+02  0.29241825057E+01  0.12151576967E+03  0.13261406592E+03  0.47000000000E+01 0. -1.
         -5    1    4    4    0  502 -0.33669468351E+02  0.50726955214E+01  0.27794452179E+02  0.44203924156E+02  0.47000000000E+01 0.  1.
          5    1    3    3  503    0 -0.75840929070E+01  0.37900936158E+02  0.90976132048E+02  0.98958304499E+02  0.47000000000E+01 0. -1.
         -5    1    3    3    0  503 -0.11564687092E+02 -0.45897814185E+02  0.46076149853E+02  0.66222752282E+02  0.47000000000E+01 0.  1.
<mgrwt>
<rscale>  0 0.94081243E+02</rscale>
<asrwt>0</asrwt>
<pdfrwt beam="1">  1        2 0.48335501E-01 0.94715676E+02</pdfrwt>
<pdfrwt beam="2">  1       -2 0.42797343E-02 0.94715676E+02</pdfrwt>
<totfact> 0.23179143E+04</totfact>
</mgrwt>
</event>
<event>
 8    1  0.3400573E-004  0.9907131E+02  0.7546771E-02  0.1283111E+00
         -4   -1    0    0    0  501 -0.00000000000E+00  0.00000000000E+00  0.98249852513E+02  0.98249852513E+02  0.00000000000E+00 0.  1.
          4   -1    0    0  501    0  0.00000000000E+00 -0.00000000000E+00 -0.10211418320E+03  0.10211418320E+03  0.00000000000E+00 0. -1.
         23    2    1    2    0    0  0.17279447405E+02 -0.25878633663E+02 -0.21283081088E+02  0.10133160375E+03  0.94057649317E+02 0.  0.
         23    2    1    2    0    0 -0.17279447405E+02  0.25878633663E+02  0.17418750405E+02  0.99032431959E+02  0.92388996808E+02 0.  0.
          5    1    3    3  502    0 -0.21035374349E+02  0.23640298012E+02 -0.21498770311E+02  0.38543972149E+02  0.47000000000E+01 0. -1.
         -5    1    3    3    0  502  0.38314821754E+02 -0.49518931675E+02  0.21568922226E+00  0.62787631602E+02  0.47000000000E+01 0.  1.
          5    1    4    4  503    0 -0.18506607048E+02  0.58101605121E+02  0.24155826413E+02  0.65756254241E+02  0.47000000000E+01 0. -1.
         -5    1    4    4    0  503  0.12271596433E+01 -0.32222971458E+02 -0.67370760078E+01  0.33276177718E+02  0.47000000000E+01 0.  1.
<mgrwt>
<rscale>  0 0.98673217E+02</rscale>
<asrwt>0</asrwt>
<pdfrwt beam="1">  1        4 0.15709874E-01 0.99071310E+02</pdfrwt>
<pdfrwt beam="2">  1       -4 0.15115362E-01 0.99071310E+02</pdfrwt>
<totfact> 0.19677948E+03</totfact>
</mgrwt>
</event>
<event>
 8    1  0.3400573E-004  0.1039124E+03  0.7546771E-02  0.1272297E+00
          2   -1    0    0  501    0  0.00000000000E+00  0.00000000000E+00  0.46428754034E+03  0.46428754034E+03  0.00000000000E+00 0. -1.
         -2   -1    0    0    0  501 -0.00000000000E+00 -0.00000000000E+00 -0.96123544842E+02  0.96123544842E+02  0.00000000000E+00 0.  1.
         23    2    1    2    0    0  0.48748849211E+02  0.47647604917E+01  0.42805282673E+03  0.44047582506E+03  0.91600091412E+02 0.  0.
         23    2    1    2    0    0 -0.48748849211E+02 -0.47647604917E+01 -0.59888831230E+02  0.11993526013E+03  0.91644101138E+02 0.  0.
          5    1    4    4  502    0 -0.24032652033E+02  0.72167453386E+01  0.21833620919E+02  0.33592361922E+02  0.47000000000E+01 0. -1.
         -5    1    4    4    0  502 -0.24716197178E+02 -0.11981505830E+02 -0.81722452149E+02  0.86342898204E+02  0.47000000000E+01 0.  1.
          5    1    3    3  503    0 -0.19701356382E+02 -0.11294301918E+02  0.41384150389E+02  0.47438830113E+02  0.47000000000E+01 0.  1.
         -5    1    3    3    0  503  0.68450205594E+02  0.16059062410E+02  0.38666867634E+03  0.39303699494E+03  0.47000000000E+01 0. -1.
<mgrwt>
<rscale>  0 0.10390273E+03</rscale>
<asrwt>0</asrwt>
<pdfrwt beam="1">  1        2 0.71428851E-01 0.10391244E+03</pdfrwt>
<pdfrwt beam="2">  1       -2 0.14788238E-01 0.10391244E+03</pdfrwt>
<totfact> 0.22972297E+03</totfact>
</mgrwt>
</event>
<event>
 8    1  0.3400573E-004  0.9626758E+02  0.7546771E-02  0.1288988E+00
          2   -1    0    0  501    0  0.00000000000E+00  0.00000000000E+00  0.57996868557E+03  0.57996868557E+03  0.00000000000E+00 0. -1.
         -2   -1    0    0    0  501 -0.00000000000E+00 -0.00000000000E+00 -0.23420760250E+02  0.23420760250E+02  0.00000000000E+00 0.  1.
         23    2    1    2    0    0 -0.26699602738E+02 -0.17340435666E+02  0.10492250971E+03  0.14161789664E+03  0.89628879876E+02 0.  0.
         23    2    1    2    0    0  0.26699602738E+02  0.17340435666E+02  0.45162541561E+03  0.46177154918E+03  0.90850911485E+02 0.  0.
          5    1    4    4  502    0 -0.19922000594E+02  0.24638151326E+01  0.25371618984E+02  0.32691979789E+02  0.47000000000E+01 0. -1.
         -5    1    3    3    0  503 -0.13453506682E+02 -0.51559200752E+02  0.39626610416E+02  0.66571061861E+02  0.47000000000E+01 0.  1.
          5    1    3    3  503    0 -0.13246096055E+02  0.34218765087E+02  0.65295899296E+02  0.75046834774E+02  0.47000000000E+01 0. -1.
         -5    1    4    4    0  502  0.46621603332E+02  0.14876620533E+02  0.42625379662E+03  0.42907956939E+03  0.47000000000E+01 0.  1.
<mgrwt>
<rscale>  0 0.95978178E+02</rscale>
<asrwt>0</asrwt>
<pdfrwt beam="1">  1        2 0.89225941E-01 0.96267583E+02</pdfrwt>
<pdfrwt beam="2">  1       -2 0.36031943E-02 0.96267583E+02</pdfrwt>
<totfact> 0.15542256E+04</totfact>
</mgrwt>
</event>
<event>
 8    1  0.3400573E-004  0.1023782E+03  0.7546771E-02  0.1275534E+00
         -2   -1    0    0    0  501 -0.00000000000E+00  0.00000000000E+00  0.10737168248E+02  0.10737168248E+02  0.00000000000E+00 0.  1.
          2   -1    0    0  501    0  0.00000000000E+00 -0.00000000000E+00 -0.99342136404E+03  0.99342136404E+03  0.00000000000E+00 0. -1.
         23    2    1    2    0    0  0.44060019750E+02  0.14918250067E+02 -0.42038181528E+03  0.43266864626E+03  0.91200040085E+02 0.  0.
         23    2    1    2    0    0 -0.44060019750E+02 -0.14918250067E+02 -0.56230238050E+03  0.57148988602E+03  0.90845380615E+02 0.  0.
          5    1    4    4  502    0 -0.67466810223E+02 -0.29381650992E+02 -0.38395419256E+03  0.39097054093E+03  0.47000000000E+01 0. -1.
         -5    1    3    3    0  503  0.41251813411E+02 -0.22429395326E+02 -0.10600985709E+03  0.11603865599E+03  0.47000000000E+01 0.  1.
          5    1    3    3  503    0  0.28082063383E+01  0.37347645393E+02 -0.31437195819E+03  0.31662999027E+03  0.47000000000E+01 0. -1.
         -5    1    4    4    0  502  0.23406790474E+02  0.14463400925E+02 -0.17834818795E+03  0.18051934509E+03  0.47000000000E+01 0.  1.
<mgrwt>
<rscale>  0 0.10229911E+03</rscale>
<asrwt>0</asrwt>
<pdfrwt beam="1">  1        2 0.15283405E+00 0.10237816E+03</pdfrwt>
<pdfrwt beam="2">  1       -2 0.16518721E-02 0.10237816E+03</pdfrwt>
<totfact> 0.25179596E+04</totfact>
</mgrwt>
</event>
<event>
 8    1  0.3400573E-004  0.9631004E+02  0.7546771E-02  0.1289599E+00
         -1   -1    0    0    0  501 -0.00000000000E+00  0.00000000000E+00  0.19097083088E+02  0.19097083088E+02  0.00000000000E+00 0.  1.
          1   -1    0    0  501    0  0.00000000000E+00 -0.00000000000E+00 -0.47955651833E+03  0.47955651833E+03  0.00000000000E+00 0. -1.
         23    2    1    2    0    0  0.62257717107E+01 -0.24224141314E+02 -0.20547329577E+03  0.22692487585E+03  0.93005670536E+02 0.  0.
         23    2    1    2    0    0 -0.62257717107E+01  0.24224141314E+02 -0.25498613947E+03  0.27172872556E+03  0.90515190532E+02 0.  0.
          5    1    3    3  502    0 -0.33863000875E+02 -0.59865184881E+01 -0.15892600966E+03  0.16267177929E+03  0.47000000000E+01 0. -1.
         -5    1    3    3    0  502  0.40088772585E+02 -0.18237622826E+02 -0.46547286109E+02  0.64253096562E+02  0.47000000000E+01 0.  1.
          5    1    4    4  503    0 -0.15107684276E+02 -0.21508109258E+02 -0.23546536600E+02  0.35600144296E+02  0.47000000000E+01 0. -1.
         -5    1    4    4    0  503  0.88819125649E+01  0.45732250573E+02 -0.23143960287E+03  0.23612858127E+03  0.47000000000E+01 0.  1.
<mgrwt>
<rscale>  0 0.95703637E+02</rscale>
<asrwt>0</asrwt>
<pdfrwt beam="1">  1        1 0.73777923E-01 0.96310041E+02</pdfrwt>
<pdfrwt beam="2">  1       -1 0.29380129E-02 0.96310041E+02</pdfrwt>
<totfact> 0.16978196E+04</totfact>
</mgrwt>
</event>
<event>
 8    1  0.3400573E-004  0.1205207E+03  0.7546771E-02  0.1242621E+00
          1   -1    0    0  501    0  0.00000000000E+00  0.00000000000E+00  0.61756476791E+03  0.61756476791E+03  0.00000000000E+00 0. -1.
         -1   -1    0    0    0  501 -0.00000000000E+00 -0.00000000000E+00 -0.30601848158E+02  0.30601848158E+02  0.00000000000E+00 0.  1.
         23    2    1    2    0    0  0.34434197884E+02 -0.69305699418E+02  0.13475129346E+03  0.18017024942E+03  0.91183407103E+02 0.  0.
         23    2    1    2    0    0 -0.34434197884E+02  0.69305699418E+02  0.45221162630E+03  0.46799636665E+03  0.92391830190E+02 0.  0.
          5    1    3    3  502    0 -0.13329206106E+02 -0.70146915995E+02  0.78392056249E+02  0.10613982307E+03  0.47000000000E+01 0. -1.
         -5    1    3    3    0  502  0.47763403990E+02  0.84121657654E+00  0.56359237206E+02  0.74030426343E+02  0.47000000000E+01 0.  1.
          5    1    4    4  503    0  0.31899076698E+01  0.49024017360E+02  0.38537485211E+03  0.38852206684E+03  0.47000000000E+01 0. -1.
         -5    1    4    4    0  503 -0.37624105553E+02  0.20281682058E+02  0.66836774193E+02  0.79474299811E+02  0.47000000000E+01 0.  1.
<mgrwt>
<rscale>  0 0.12028909E+03</rscale>
<asrwt>0</asrwt>
<pdfrwt beam="1">  1        1 0.95009955E-01 0.12052072E+03</pdfrwt>
<pdfrwt beam="2">  1       -1 0.47079771E-02 0.12052072E+03</pdfrwt>
<totfact> 0.62272662E+03</totfact>
</mgrwt>
</event>
<event>
 7    1  0.3400573E-004  0.1727324E+03  0.7546771E-02  0.1184048E+00
         -1   -1    0    0    0  501 -0.00000000000E+00  0.00000000000E+00  0.20820103199E+03  0.20820103199E+03  0.00000000000E+00 0.  1.
          1   -1    0    0  501    0  0.00000000000E+00 -0.00000000000E+00 -0.39865867318E+03  0.39865867318E+03  0.00000000000E+00 0. -1.
         23    2    1    2    0    0 -0.88861669855E+02 -0.55434299182E+02  0.16174509214E+03  0.21458013657E+03  0.94412934943E+02 0.  0.
          5    1    1    2  502    0 -0.19893988310E+02  0.34389976985E+02 -0.20007789226E+03  0.20403846269E+03  0.47000000000E+01 0. -1.
         -5    1    3    3    0  503 -0.18540873657E+02 -0.61139736054E+02  0.45706739708E+02  0.78695790074E+02  0.47000000000E+01 0.  1.
          5    1    3    3  503    0 -0.70320796198E+02  0.57054368722E+01  0.11603835243E+03  0.13588434650E+03  0.47000000000E+01 0. -1.
         -5    1    1    2    0  502  0.10875565817E+03  0.21044322197E+02 -0.15212484107E+03  0.18824110590E+03  0.47000000000E+01 0.  1.
<mgrwt>
<rscale>  0 0.16418788E+03</rscale>
<asrwt>0</asrwt>
<pdfrwt beam="1">  1        1 0.61332102E-01 0.17273244E+03</pdfrwt>
<pdfrwt beam="2">  1       -1 0.32030929E-01 0.17273244E+03</pdfrwt>
<totfact> 0.55954823E+02</totfact>
</mgrwt>
</event>
<event>
 8    1  0.3400573E-004  0.1078865E+03  0.7546771E-02  0.1271577E+00
          1   -1    0    0  501    0  0.00000000000E+00  0.00000000000E+00  0.75619651734E+02  0.75619651734E+02  0.00000000000E+00 0. -1.
         -1   -1    0    0    0  501 -0.00000000000E+00 -0.00000000000E+00 -0.13696547877E+03  0.13696547877E+03  0.00000000000E+00 0.  1.
         23    2    1    2    0    0  0.10868278007E+02  0.18403989850E+02 -0.19690033307E+02  0.10966858533E+03  0.10574816730E+03 0.  0.
         23    2    1    2    0    0 -0.10868278007E+02 -0.18403989850E+02 -0.41655793730E+02  0.10291654517E+03  0.91650334476E+02 0.  0.
          5    1    4    4  502    0  0.32003222065E+02  0.11497694068E+02 -0.36620857800E+02  0.50195422276E+02  0.47000000000E+01 0. -1.
         -5    1    3    3    0  503 -0.29369780082E+02  0.42567584263E+02 -0.31897901347E+02  0.60943821035E+02  0.47000000000E+01 0.  1.
          5    1    3    3  503    0  0.40238058089E+02 -0.24163594413E+02  0.12207868041E+02  0.48724764297E+02  0.47000000000E+01 0. -1.
         -5    1    4    4    0  502 -0.42871500072E+02 -0.29901683918E+02 -0.50349359295E+01  0.52721122895E+02  0.47000000000E+01 0.  1.
<mgrwt>
<rscale>  0 0.10426387E+03</rscale>
<asrwt>0</asrwt>
<pdfrwt beam="1">  1        1 0.11633793E-01 0.10788652E+03</pdfrwt>
<pdfrwt beam="2">  1       -1 0.21071612E-01 0.10788652E+03</pdfrwt>
<totfact> 0.89393668E+03</totfact>
</mgrwt>
</event>
<event>
 8    1  0.3400573E-004  0.1004255E+03  0.7546771E-02  0.1280489E+00
          2   -1    0    0  501    0  0.00000000000E+00  0.00000000000E+00  0.69350506676E+03  0.69350506676E+03  0.00000000000E+00 0. -1.
         -2   -1    0    0    0  501 -0.00000000000E+00 -0.00000000000E+00 -0.16031394569E+02  0.16031394569E+02  0.00000000000E+00 0.  1.
         23    2    1    2    0    0 -0.34506438186E+02  0.22677701315E+02  0.46021096247E+03  0.47104077949E+03  0.91544052511E+02 0.  0.
         23    2    1    2    0    0  0.34506438186E+02 -0.22677701315E+02  0.21726270972E+03  0.23849568184E+03  0.89286800862E+02 0.  0.
          5    1    4    4  502    0  0.58002728057E+02  0.79021473092E+01  0.11557940054E+03  0.12964354293E+03  0.47000000000E+01 0. -1.
         -5    1    4    4    0  502 -0.23496289871E+02 -0.30579848625E+02  0.10168330918E+03  0.10885213891E+03  0.47000000000E+01 0.  1.
          5    1    3    3  503    0  0.23098445569E+02 -0.18009825011E+02  0.14474646499E+03  0.14775493600E+03  0.47000000000E+01 0. -1.
         -5    1    3    3    0  503 -0.57604883755E+02  0.40687526326E+02  0.31546449748E+03  0.32328584349E+03  0.47000000000E+01 0.  1.
<mgrwt>
<rscale>  0 0.99908230E+02</rscale>
<asrwt>0</asrwt>
<pdfrwt beam="1">  1        2 0.10669306E+00 0.10042552E+03</pdfrwt>
<pdfrwt beam="2">  1       -2 0.24663689E-02 0.10042552E+03</pdfrwt>
<totfact> 0.22110829E+04</totfact>
</mgrwt>
</event>
<event>
 8    1  0.3400573E-004  0.1447184E+03  0.7546771E-02  0.1210246E+00
         -4   -1    0    0    0  501 -0.00000000000E+00  0.00000000000E+00  0.20054912689E+03  0.20054912689E+03  0.00000000000E+00 0.  1.
          4   -1    0    0  501    0  0.00000000000E+00 -0.00000000000E+00 -0.10675917195E+03  0.10675917195E+03  0.00000000000E+00 0. -1.
         23    2    1    2    0    0 -0.12592002273E+02  0.97298100616E+02  0.90787038406E+00  0.13534755532E+03  0.93234422815E+02 0.  0.
         23    2    1    2    0    0  0.12592002273E+02 -0.97298100616E+02  0.92882084563E+02  0.17196074352E+03  0.10638579217E+03 0.  0.
          5    1    4    4  502    0 -0.38755413431E+02 -0.72851253808E+02  0.32311217754E+02  0.88743405639E+02  0.47000000000E+01 0. -1.
         -5    1    4    4    0  502  0.51347415703E+02 -0.24446846808E+02  0.60570866809E+02  0.83217337883E+02  0.47000000000E+01 0.  1.
          5    1    3    3  503    0 -0.20598571616E+01  0.74671945253E+02  0.42901768276E+02  0.86271629987E+02  0.47000000000E+01 0. -1.
         -5    1    3    3    0  503 -0.10532145111E+02  0.22626155363E+02 -0.41993897892E+02  0.49075925333E+02  0.47000000000E+01 0.  1.
<mgrwt>
<rscale>  0 0.14231575E+03</rscale>
<asrwt>0</asrwt>
<pdfrwt beam="1">  1        4 0.16424488E-01 0.14471840E+03</pdfrwt>
<pdfrwt beam="2">  1       -4 0.30853712E-01 0.14471840E+03</pdfrwt>
<totfact> 0.54326557E+02</totfact>
</mgrwt>
</event>
<event>
 8    1  0.3400573E-004  0.1886611E+03  0.7546771E-02  0.1160195E+00
         -1   -1    0    0    0  501 -0.00000000000E+00  0.00000000000E+00  0.13603843196E+03  0.13603843196E+03  0.00000000000E+00 0.  1.
          1   -1    0    0  501    0  0.00000000000E+00 -0.00000000000E+00 -0.26938690157E+03  0.26938690157E+03  0.00000000000E+00 0. -1.
         23    2    1    2    0    0  0.61181613542E+01 -0.16946065252E+03 -0.10703870583E+03  0.21493858615E+03  0.77375491077E+02 0.  0.
         23    2    1    2    0    0 -0.61181613542E+01  0.16946065252E+03 -0.26309763778E+02  0.19048674737E+03  0.82696146233E+02 0.  0.
          5    1    4    4  502    0 -0.23042035305E+02  0.15639349899E+03 -0.41903474202E+02  0.16360884165E+03  0.47000000000E+01 0. -1.
         -5    1    3    3    0  503  0.17630476191E+02 -0.13586942663E+02  0.40756813761E+01  0.23111466425E+02  0.47000000000E+01 0.  1.
          5    1    3    3  503    0 -0.11512314837E+02 -0.15587370986E+03 -0.11111438721E+03  0.19182711973E+03  0.47000000000E+01 0. -1.
         -5    1    4    4    0  502  0.16923873950E+02  0.13067153535E+02  0.15593710424E+02  0.26877905718E+02  0.47000000000E+01 0.  1.
<mgrwt>
<rscale>  0 0.18809077E+03</rscale>
<asrwt>0</asrwt>
<pdfrwt beam="1">  1        1 0.41444138E-01 0.18866106E+03</pdfrwt>
<pdfrwt beam="2">  1       -1 0.20928990E-01 0.18866106E+03</pdfrwt>
<totfact> 0.18590761E+03</totfact>
</mgrwt>
</event>
<event>
 8    1  0.3400573E-004  0.1267225E+03  0.7546771E-02  0.1232660E+00
         -3   -1    0    0    0  501 -0.00000000000E+00  0.00000000000E+00  0.12721271669E+03  0.12721271669E+03  0.00000000000E+00 0.  1.
          3   -1    0    0  501    0  0.00000000000E+00 -0.00000000000E+00 -0.14926503436E+03  0.14926503436E+03  0.00000000000E+00 0. -1.
         23    2    1    2    0    0 -0.88572847835E+02 -0.97532499687E+01  0.44031999636E+02  0.13415444601E+03  0.90101737688E+02 0.  0.
         23    2    1    2    0    0  0.88572847835E+02  0.97532499687E+01 -0.66084317312E+02  0.14232330504E+03  0.89154421678E+02 0.  0.
          5    1    3    3  502    0 -0.39128735973E+02  0.12658092998E+02 -0.23328617969E+02  0.47514205387E+02  0.47000000000E+01 0. -1.
         -5    1    4    4    0  503 -0.55110676671E+01 -0.24614059639E+02 -0.11014023062E+02  0.27921720985E+02  0.47000000000E+01 0.  1.
          5    1    4    4  503    0  0.94083915502E+02  0.34367309608E+02 -0.55070294250E+02  0.11440158406E+03  0.47000000000E+01 0. -1.
         -5    1    3    3    0  502 -0.49444111862E+02 -0.22411342967E+02  0.67360617606E+02  0.86640240625E+02  0.47000000000E+01 0.  1.
<mgrwt>
<rscale>  0 0.12655424E+03</rscale>
<asrwt>0</asrwt>
<pdfrwt beam="1">  1        3 0.22963851E-01 0.12672253E+03</pdfrwt>
<pdfrwt beam="2">  1       -3 0.19571187E-01 0.12672253E+03</pdfrwt>
<totfact> 0.93265375E+02</totfact>
</mgrwt>
</event>
<event>
 8    1  0.3400573E-004  0.9198369E+02  0.7546771E-02  0.1298395E+00
          1   -1    0    0  501    0  0.00000000000E+00  0.00000000000E+00  0.17526674808E+03  0.17526674808E+03  0.00000000000E+00 0. -1.
         -1   -1    0    0    0  501 -0.00000000000E+00 -0.00000000000E+00 -0.48157199893E+02  0.48157199893E+02  0.00000000000E+00 0.  1.
         23    2    1    2    0    0  0.43747479515E+01 -0.10010184780E+02  0.69175326757E+02  0.11471620830E+03  0.90858353469E+02 0.  0.
         23    2    1    2    0    0 -0.43747479515E+01  0.10010184780E+02  0.57934221434E+02  0.10870773968E+03  0.91332669042E+02 0.  0.
          5    1    4    4  502    0 -0.46505972087E+02  0.15442793128E+02  0.32041627014E+02  0.58737051007E+02  0.47000000000E+01 0. -1.
         -5    1    4    4    0  502  0.42131224136E+02 -0.54326083475E+01  0.25892594420E+02  0.49970688673E+02  0.47000000000E+01 0.  1.
          5    1    3    3  503    0  0.11368973135E+02  0.38037775158E+02  0.17460248924E+02  0.43624261387E+02  0.47000000000E+01 0. -1.
         -5    1    3    3    0  503 -0.69942251831E+01 -0.48047959938E+02  0.51715077833E+02  0.71091946910E+02  0.47000000000E+01 0.  1.
<mgrwt>
<rscale>  0 0.91865725E+02</rscale>
<asrwt>0</asrwt>
<pdfrwt beam="1">  1        1 0.26964115E-01 0.91983687E+02</pdfrwt>
<pdfrwt beam="2">  1       -1 0.74088001E-02 0.91983687E+02</pdfrwt>
<totfact> 0.15120561E+04</totfact>
</mgrwt>
</event>
<event>
 8    1  0.3400573E-004  0.1084162E+03  0.7546771E-02  0.1265828E+00
         -2   -1    0    0    0  501 -0.00000000000E+00  0.00000000000E+00  0.96690595067E+01  0.96690595067E+01  0.00000000000E+00 0.  1.
          2   -1    0    0  501    0  0.00000000000E+00 -0.00000000000E+00 -0.11978466607E+04  0.11978466607E+04  0.00000000000E+00 0. -1.
         23    2    1    2    0    0 -0.26464396986E+02  0.42313054251E+02 -0.47817563588E+03  0.48928396236E+03  0.90863073950E+02 0.  0.
         23    2    1    2    0    0  0.26464396986E+02 -0.42313054251E+02 -0.71000196531E+03  0.71823175784E+03  0.96246082308E+02 0.  0.
          5    1    4    4  502    0  0.47191114326E+02  0.83513362612E+01 -0.44476628759E+03  0.44736549562E+03  0.47000000000E+01 0. -1.
         -5    1    4    4    0  502 -0.20726717340E+02 -0.50664390512E+02 -0.26523567771E+03  0.27086626222E+03  0.47000000000E+01 0.  1.
          5    1    3    3  503    0 -0.27924671460E+02  0.68490209295E+02 -0.29426835768E+03  0.30345782636E+03  0.47000000000E+01 0. -1.
         -5    1    3    3    0  503  0.14602744739E+01 -0.26177155045E+02 -0.18390727820E+03  0.18582613600E+03  0.47000000000E+01 0.  1.
<mgrwt>
<rscale>  0 0.10720888E+03</rscale>
<asrwt>0</asrwt>
<pdfrwt beam="1">  1        2 0.18428416E+00 0.10841618E+03</pdfrwt>
<pdfrwt beam="2">  1       -2 0.14875472E-02 0.10841618E+03</pdfrwt>
<totfact> 0.22506501E+04</totfact>
</mgrwt>
</event>
<event>
 8    1  0.3400573E-004  0.9705864E+02  0.7546771E-02  0.1288438E+00
         -2   -1    0    0    0  501 -0.00000000000E+00  0.00000000000E+00  0.66941550035E+01  0.66941550035E+01  0.00000000000E+00 0. -1.
          2   -1    0    0  501    0  0.00000000000E+00 -0.00000000000E+00 -0.13704463638E+04  0.13704463638E+04  0.00000000000E+00 0.  1.
         23    2    1    2    0    0 -0.20202021505E+02  0.25971159851E+02 -0.75367633415E+03  0.75990025472E+03  0.91311322712E+02 0.  0.
         23    2    1    2    0    0  0.20202021505E+02 -0.25971159851E+02 -0.61007587466E+03  0.61724026409E+03  0.87808587041E+02 0.  0.
          5    1    3    3  502    0  0.48487971256E+01  0.55807163943E+02 -0.37392398782E+03  0.37812589048E+03  0.47000000000E+01 0. -1.
         -5    1    3    3    0  502 -0.25050818631E+02 -0.29836004092E+02 -0.37975234633E+03  0.38177436425E+03  0.47000000000E+01 0.  1.
          5    1    4    4  503    0 -0.23281949800E+02  0.19446032115E+02 -0.19364002404E+03  0.19605801759E+03  0.47000000000E+01 0. -1.
         -5    1    4    4    0  503  0.43483971305E+02 -0.45417191966E+02 -0.41643585062E+03  0.42118224650E+03  0.47000000000E+01 0.  1.
<mgrwt>
<rscale>  0 0.96226041E+02</rscale>
<asrwt>0</asrwt>
<pdfrwt beam="1">  1        2 0.21083792E+00 0.97058645E+02</pdfrwt>
<pdfrwt beam="2">  1       -2 0.10298699E-02 0.97058645E+02</pdfrwt>
<totfact> 0.30467683E+04</totfact>
</mgrwt>
</event>
<event>
 8    1  0.3400573E-004  0.1000087E+03  0.7546771E-02  0.1280607E+00
         -2   -1    0    0    0  501 -0.00000000000E+00  0.00000000000E+00  0.48298984867E+02  0.48298984867E+02  0.00000000000E+00 0.  1.
          2   -1    0    0  501    0  0.00000000000E+00 -0.00000000000E+00 -0.23505126680E+03  0.23505126680E+03  0.00000000000E+00 0. -1.
         23    2    1    2    0    0 -0.29086497623E+01  0.41987535603E+02 -0.14310813603E+03  0.17423313266E+03  0.90032397098E+02 0.  0.
         23    2    1    2    0    0  0.29086497623E+01 -0.41987535603E+02 -0.43644145899E+02  0.10911711901E+03  0.90721115513E+02 0.  0.
          5    1    4    4  502    0 -0.33997799034E+02 -0.27339774479E+02 -0.52236007434E+02  0.68220261509E+02  0.47000000000E+01 0. -1.
         -5    1    3    3    0  503  0.23153971086E+02 -0.20544168073E+02 -0.49937470026E+02  0.58940734059E+02  0.47000000000E+01 0.  1.
          5    1    3    3  503    0 -0.26062620849E+02  0.62531703676E+02 -0.93170666006E+02  0.11529239860E+03  0.47000000000E+01 0. -1.
         -5    1    4    4    0  502  0.36906448796E+02 -0.14647761124E+02  0.85918615349E+01  0.40896857499E+02  0.47000000000E+01 0.  1.
<mgrwt>
<rscale>  0 0.99852220E+02</rscale>
<asrwt>0</asrwt>
<pdfrwt beam="1">  1        2 0.36161733E-01 0.10000867E+03</pdfrwt>
<pdfrwt beam="2">  1       -2 0.74306131E-02 0.10000867E+03</pdfrwt>
<totfact> 0.13826491E+04</totfact>
</mgrwt>
</event>
<event>
 8    1  0.3400573E-004  0.9421410E+02  0.7546771E-02  0.1293814E+00
          3   -1    0    0  501    0  0.00000000000E+00  0.00000000000E+00  0.36338870812E+02  0.36338870812E+02  0.00000000000E+00 0. -1.
         -3   -1    0    0    0  501 -0.00000000000E+00 -0.00000000000E+00 -0.35675190256E+03  0.35675190256E+03  0.00000000000E+00 0.  1.
         23    2    1    2    0    0 -0.49081913889E+01  0.79607047530E+01 -0.48829776094E+02  0.10611617626E+03  0.93748774225E+02 0.  0.
         23    2    1    2    0    0  0.49081913889E+01 -0.79607047530E+01 -0.27158325565E+03  0.28697459711E+03  0.92246904935E+02 0.  0.
          5    1    4    4  502    0 -0.11777907442E+02  0.32928329812E+02 -0.51330966448E+02  0.62289261710E+02  0.47000000000E+01 0. -1.
         -5    1    3    3    0  503  0.29646202298E+02 -0.28666116368E+02 -0.10938316466E+02  0.42922957790E+02  0.47000000000E+01 0.  1.
          5    1    3    3  503    0 -0.34554393687E+02  0.36626821121E+02 -0.37891459628E+02  0.63193218475E+02  0.47000000000E+01 0. -1.
         -5    1    4    4    0  502  0.16686098830E+02 -0.40889034565E+02 -0.22025228921E+03  0.22468533540E+03  0.47000000000E+01 0.  1.
<mgrwt>
<rscale>  0 0.93838270E+02</rscale>
<asrwt>0</asrwt>
<pdfrwt beam="1">  1        3 0.55905956E-02 0.94214096E+02</pdfrwt>
<pdfrwt beam="2">  1       -3 0.54884907E-01 0.94214096E+02</pdfrwt>
<totfact> 0.13589005E+03</totfact>
</mgrwt>
</event>
<event>
 8    1  0.3400573E-004  0.8919975E+02  0.7546771E-02  0.1304859E+00
          3   -1    0    0  501    0  0.00000000000E+00  0.00000000000E+00  0.23081846663E+03  0.23081846663E+03  0.00000000000E+00 0. -1.
         -3   -1    0    0    0  501 -0.00000000000E+00 -0.00000000000E+00 -0.39753931812E+02  0.39753931812E+02  0.00000000000E+00 0.  1.
         23    2    1    2    0    0  0.91118627281E+00 -0.12771441157E+02  0.46090579421E+02  0.10040386902E+03  0.88276018449E+02 0.  0.
         23    2    1    2    0    0 -0.91118627281E+00  0.12771441157E+02  0.14497395540E+03  0.17016852943E+03  0.88181294462E+02 0.  0.
          5    1    3    3  502    0  0.27561584769E+02 -0.35650214266E+02  0.46557935666E+02  0.64963913873E+02  0.47000000000E+01 0. -1.
         -5    1    4    4    0  503  0.25725835133E+02  0.10961464508E+01  0.13723429762E+03  0.13970813353E+03  0.47000000000E+01 0.  1.
          5    1    4    4  503    0 -0.26637021406E+02  0.11675294706E+02  0.77396577818E+01  0.30460395901E+02  0.47000000000E+01 0. -1.
         -5    1    3    3    0  502 -0.26650398496E+02  0.22878773109E+02 -0.46735624562E+00  0.35439955147E+02  0.47000000000E+01 0.  1.
<mgrwt>
<rscale>  0 0.89176305E+02</rscale>
<asrwt>0</asrwt>
<pdfrwt beam="1">  1        3 0.35510532E-01 0.89199750E+02</pdfrwt>
<pdfrwt beam="2">  1       -3 0.61159897E-02 0.89199750E+02</pdfrwt>
<totfact> 0.27145428E+03</totfact>
</mgrwt>
</event>
<event>
 8    1  0.3400573E-004  0.1016931E+03  0.7546771E-02  0.1278002E+00
         -1   -1    0    0    0  501 -0.00000000000E+00  0.00000000000E+00  0.25545096280E+02  0.25545096280E+02  0.00000000000E+00 0.  1.
          1   -1    0    0  501    0  0.00000000000E+00 -0.00000000000E+00 -0.39916555130E+03  0.39916555130E+03  0.00000000000E+00 0. -1.
         23    2    1    2    0    0 -0.37986006596E+02  0.30455747235E+02 -0.16432261782E+03  0.19201542128E+03  0.86588163417E+02 0.  0.
         23    2    1    2    0    0  0.37986006596E+02 -0.30455747235E+02 -0.20929783720E+03  0.23269522630E+03  0.89280425915E+02 0.  0.
          5    1    3    3  502    0 -0.25691077806E+02 -0.27485503170E+02 -0.45999497170E+02  0.59611476271E+02  0.47000000000E+01 0.  1.
         -5    1    3    3    0  502 -0.12294928790E+02  0.57941250405E+02 -0.11832312065E+03  0.13240394501E+03  0.47000000000E+01 0. -1.
          5    1    4    4  503    0  0.48715828028E+02 -0.52141674937E+02 -0.18384704328E+03  0.19726583964E+03  0.47000000000E+01 0. -1.
         -5    1    4    4    0  503 -0.10729821431E+02  0.21685927703E+02 -0.25450793916E+02  0.35429386662E+02  0.47000000000E+01 0.  1.
<mgrwt>
<rscale>  0 0.10109908E+03</rscale>
<asrwt>0</asrwt>
<pdfrwt beam="1">  1        1 0.61410083E-01 0.10169309E+03</pdfrwt>
<pdfrwt beam="2">  1       -1 0.39300149E-02 0.10169309E+03</pdfrwt>
<totfact> 0.14110126E+04</totfact>
</mgrwt>
</event>
<event>
 8    1  0.3400573E-004  0.9487245E+02  0.7546771E-02  0.1293357E+00
         -2   -1    0    0    0  501 -0.00000000000E+00  0.00000000000E+00  0.67797323034E+02  0.67797323034E+02  0.00000000000E+00 0.  1.
          2   -1    0    0  501    0  0.00000000000E+00 -0.00000000000E+00 -0.17613131897E+03  0.17613131897E+03  0.00000000000E+00 0. -1.
         23    2    1    2    0    0  0.20785878011E+02 -0.10594701555E+02 -0.11709308604E+03  0.14865270552E+03  0.88558091858E+02 0.  0.
         23    2    1    2    0    0 -0.20785878011E+02  0.10594701555E+02  0.87590900999E+01  0.95275936490E+02  0.91959132167E+02 0.  0.
          5    1    4    4  502    0 -0.44864903037E+02  0.27592548476E+02 -0.17316573265E+02  0.55643166387E+02  0.47000000000E+01 0. -1.
         -5    1    3    3    0  503  0.53003786837E+02  0.67685590197E+01 -0.80107630650E+02  0.96408180662E+02  0.47000000000E+01 0.  1.
          5    1    3    3  503    0 -0.32217908826E+02 -0.17363260574E+02 -0.36985455388E+02  0.52244524853E+02  0.47000000000E+01 0. -1.
         -5    1    4    4    0  502  0.24079025026E+02 -0.16997846921E+02  0.26075663365E+02  0.39632770104E+02  0.47000000000E+01 0.  1.
<mgrwt>
<rscale>  0 0.94038321E+02</rscale>
<asrwt>0</asrwt>
<pdfrwt beam="1">  1        2 0.27097125E-01 0.94872453E+02</pdfrwt>
<pdfrwt beam="2">  1       -2 0.10430358E-01 0.94872453E+02</pdfrwt>
<totfact> 0.11100304E+04</totfact>
</mgrwt>
</event>
<event>
 8    1  0.3400573E-004  0.1331285E+03  0.7546771E-02  0.1224008E+00
         -1   -1    0    0    0  501 -0.00000000000E+00  0.00000000000E+00  0.13700851970E+03  0.13700851970E+03  0.00000000000E+00 0.  1.
          1   -1    0    0  501    0  0.00000000000E+00 -0.00000000000E+00 -0.13715767464E+03  0.13715767464E+03  0.00000000000E+00 0. -1.
         23    2    1    2    0    0  0.77634938784E+02 -0.59472691843E+02 -0.38496967804E+02  0.13562470009E+03  0.85719647396E+02 0.  0.
         23    2    1    2    0    0 -0.77634938784E+02  0.59472691843E+02  0.38347812874E+02  0.13854149425E+03  0.90327216726E+02 0.  0.
          5    1    3    3  502    0  0.40239708538E+02 -0.51621063315E+01 -0.54018686832E+02  0.67719938069E+02  0.47000000000E+01 0. -1.
         -5    1    3    3    0  502  0.37395230245E+02 -0.54310585512E+02  0.15521719027E+02  0.67904762022E+02  0.47000000000E+01 0.  1.
          5    1    4    4  503    0  0.28326949308E+01  0.51393526870E+02  0.20416874396E+02  0.55572093040E+02  0.47000000000E+01 0. -1.
         -5    1    4    4    0  503 -0.80467633714E+02  0.80791649731E+01  0.17930938478E+02  0.82969401209E+02  0.47000000000E+01 0.  1.
<mgrwt>
<rscale>  0 0.13235115E+03</rscale>
<asrwt>0</asrwt>
<pdfrwt beam="1">  1        1 0.21101181E-01 0.13312848E+03</pdfrwt>
<pdfrwt beam="2">  1       -1 0.21078234E-01 0.13312848E+03</pdfrwt>
<totfact> 0.42184447E+03</totfact>
</mgrwt>
</event>
<event>
 8    1  0.3400573E-004  0.9785978E+02  0.7546771E-02  0.1286805E+00
          1   -1    0    0  501    0  0.00000000000E+00  0.00000000000E+00  0.21183888109E+03  0.21183888109E+03  0.00000000000E+00 0. -1.
         -1   -1    0    0    0  501 -0.00000000000E+00 -0.00000000000E+00 -0.44797259418E+02  0.44797259418E+02  0.00000000000E+00 0.  1.
         23    2    1    2    0    0  0.25761912418E+02 -0.64723517664E+01  0.10602940886E+03  0.14428711906E+03  0.94185825446E+02 0.  0.
         23    2    1    2    0    0 -0.25761912418E+02  0.64723517664E+01  0.61012212809E+02  0.11234902145E+03  0.90522069348E+02 0.  0.
          5    1    4    4  502    0 -0.49706943749E+02  0.22228283396E+02  0.62795103525E+02  0.83247773942E+02  0.47000000000E+01 0. -1.
         -5    1    4    4    0  502  0.23945031331E+02 -0.15755931630E+02 -0.17828907160E+01  0.29101247503E+02  0.47000000000E+01 0.  1.
          5    1    3    3  503    0 -0.23760067528E+02 -0.81936991519E+01  0.87526902338E+02  0.91185120209E+02  0.47000000000E+01 0. -1.
         -5    1    3    3    0  503  0.49521979946E+02  0.17213473855E+01  0.18502506525E+02  0.53101998854E+02  0.47000000000E+01 0.  1.
<mgrwt>
<rscale>  0 0.96967410E+02</rscale>
<asrwt>0</asrwt>
<pdfrwt beam="1">  1        1 0.32590596E-01 0.97859783E+02</pdfrwt>
<pdfrwt beam="2">  1       -1 0.68918862E-02 0.97859783E+02</pdfrwt>
<totfact> 0.13414983E+04</totfact>
</mgrwt>
</event>
<event>
 8    1  0.3400573E-004  0.1160990E+03  0.7546771E-02  0.1256821E+00
          2   -1    0    0  501    0  0.00000000000E+00  0.00000000000E+00  0.19931623928E+03  0.19931623928E+03  0.00000000000E+00 0. -1.
         -2   -1    0    0    0  501 -0.00000000000E+00 -0.00000000000E+00 -0.60885492811E+02  0.60885492811E+02  0.00000000000E+00 0.  1.
         23    2    1    2    0    0 -0.39831283114E+02  0.10876545305E+02  0.50941719592E+02  0.12678341265E+03  0.10850873042E+03 0.  0.
         23    2    1    2    0    0  0.39831283114E+02 -0.10876545305E+02  0.87489026882E+02  0.13341831944E+03  0.91876481133E+02 0.  0.
          5    1    4    4  502    0  0.60976445323E+02 -0.29931553153E+02  0.76837752612E+02  0.10266525695E+03  0.47000000000E+01 0. -1.
         -5    1    3    3    0  503 -0.26258907444E+02  0.49860996416E+02 -0.53713301002E+01  0.56803084166E+02  0.47000000000E+01 0.  1.
          5    1    3    3  503    0 -0.13572375670E+02 -0.38984451111E+02  0.56313049692E+02  0.69980328488E+02  0.47000000000E+01 0. -1.
         -5    1    4    4    0  502 -0.21145162209E+02  0.19055007848E+02  0.10651274270E+02  0.30753062490E+02  0.47000000000E+01 0.  1.
<mgrwt>
<rscale>  0 0.11204921E+03</rscale>
<asrwt>0</asrwt>
<pdfrwt beam="1">  1        2 0.30664037E-01 0.11609899E+03</pdfrwt>
<pdfrwt beam="2">  1       -2 0.93669990E-02 0.11609899E+03</pdfrwt>
<totfact> 0.11696379E+04</totfact>
</mgrwt>
</event>
<event>
 8    1  0.3400573E-004  0.9999274E+02  0.7546771E-02  0.1281232E+00
          1   -1    0    0  501    0  0.00000000000E+00  0.00000000000E+00  0.25902306901E+03  0.25902306901E+03  0.00000000000E+00 0. -1.
         -1   -1    0    0    0  501 -0.00000000000E+00 -0.00000000000E+00 -0.40543766660E+02  0.40543766660E+02  0.00000000000E+00 0.  1.
         23    2    1    2    0    0  0.37652840482E+02 -0.10209531485E+02  0.72134594167E+02  0.12329617982E+03  0.92068329805E+02 0.  0.
         23    2    1    2    0    0 -0.37652840482E+02  0.10209531485E+02  0.14634470819E+03  0.17627065585E+03  0.90180926871E+02 0.  0.
          5    1    4    4  502    0  0.25818273727E+02 -0.61229514460E+01  0.18995981375E+02  0.32969851396E+02  0.47000000000E+01 0. -1.
         -5    1    3    3    0  503 -0.65040262808E+01  0.31713179384E+02  0.46984913622E+02  0.57251202717E+02  0.47000000000E+01 0.  1.
          5    1    3    3  503    0  0.44156866763E+02 -0.41922710869E+02  0.25149680545E+02  0.66044977103E+02  0.47000000000E+01 0. -1.
         -5    1    4    4    0  502 -0.63471114210E+02  0.16332482931E+02  0.12734872681E+03  0.14330080446E+03  0.47000000000E+01 0.  1.
<mgrwt>
<rscale>  0 0.99556123E+02</rscale>
<asrwt>0</asrwt>
<pdfrwt beam="1">  1        1 0.39849702E-01 0.99992741E+02</pdfrwt>
<pdfrwt beam="2">  1       -1 0.62375027E-02 0.99992741E+02</pdfrwt>
<totfact> 0.12180782E+04</totfact>
</mgrwt>
</event>
<event>
 8    1  0.3400573E-004  0.1725056E+03  0.7546771E-02  0.1175302E+00
          1   -1    0    0  501    0  0.00000000000E+00  0.00000000000E+00  0.11057779216E+04  0.11057779216E+04  0.00000000000E+00 0. -1.
         -1   -1    0    0    0  501 -0.00000000000E+00 -0.00000000000E+00 -0.49812216841E+02  0.49812216841E+02  0.00000000000E+00 0.  1.
         23    2    1    2    0    0 -0.12133682023E+03 -0.81981441417E+02  0.13613085421E+03  0.21974938618E+03  0.91184442631E+02 0.  0.
         23    2    1    2    0    0  0.12133682023E+03  0.81981441417E+02  0.91983485056E+03  0.93584075228E+03  0.90874532364E+02 0.  0.
          5    1    3    3  502    0  0.11327666087E+02 -0.25377640987E+02  0.23029253856E+02  0.36397489120E+02  0.47000000000E+01 0. -1.
         -5    1    3    3    0  502 -0.13266448632E+03 -0.56603800430E+02  0.11310160036E+03  0.18335189706E+03  0.47000000000E+01 0.  1.
          5    1    4    4  503    0  0.83929637343E+02  0.99921908293E+02  0.69229524080E+03  0.70450220881E+03  0.47000000000E+01 0. -1.
         -5    1    4    4    0  503  0.37407182886E+02 -0.17940466876E+02  0.22753960976E+03  0.23133854347E+03  0.47000000000E+01 0.  1.
<mgrwt>
<rscale>  0 0.17246469E+03</rscale>
<asrwt>0</asrwt>
<pdfrwt beam="1">  1        1 0.17011966E+00 0.17250560E+03</pdfrwt>
<pdfrwt beam="2">  1       -1 0.76634188E-02 0.17250560E+03</pdfrwt>
<totfact> 0.12324154E+03</totfact>
</mgrwt>
</event>
<event>
 8    1  0.3400573E-004  0.9555078E+02  0.7546771E-02  0.1291153E+00
          2   -1    0    0  501    0  0.00000000000E+00  0.00000000000E+00  0.19779391472E+03  0.19779391472E+03  0.00000000000E+00 0. -1.
         -2   -1    0    0    0  501 -0.00000000000E+00 -0.00000000000E+00 -0.45431532434E+02  0.45431532434E+02  0.00000000000E+00 0.  1.
         23    2    1    2    0    0 -0.27834299732E+02  0.12159856827E+02  0.65406170340E+02  0.11403050073E+03  0.88331068254E+02 0.  0.
         23    2    1    2    0    0  0.27834299732E+02 -0.12159856827E+02  0.86956211947E+02  0.12919494642E+03  0.90594376347E+02 0.  0.
          5    1    4    4  502    0  0.45060411495E+02 -0.40308962293E+02  0.66891664285E+02  0.90287528907E+02  0.47000000000E+01 0. -1.
         -5    1    3    3    0  503 -0.52991500272E+02  0.82958973951E+01  0.12711741881E+02  0.55322684283E+02  0.47000000000E+01 0.  1.
          5    1    3    3  503    0  0.25157200539E+02  0.38639594316E+01  0.52694428460E+02  0.58707816449E+02  0.47000000000E+01 0. -1.
         -5    1    4    4    0  502 -0.17226111763E+02  0.28149105466E+02  0.20064547662E+02  0.38907417517E+02  0.47000000000E+01 0.  1.
<mgrwt>
<rscale>  0 0.95010429E+02</rscale>
<asrwt>0</asrwt>
<pdfrwt beam="1">  1        2 0.30429832E-01 0.95550779E+02</pdfrwt>
<pdfrwt beam="2">  1       -2 0.69894667E-02 0.95550779E+02</pdfrwt>
<totfact> 0.18151104E+04</totfact>
</mgrwt>
</event>
<event>
 8    1  0.3400573E-004  0.9789261E+02  0.7546771E-02  0.1286325E+00
         -1   -1    0    0    0  501 -0.00000000000E+00  0.00000000000E+00  0.75980917305E+02  0.75980917305E+02  0.00000000000E+00 0.  1.
          1   -1    0    0  501    0  0.00000000000E+00 -0.00000000000E+00 -0.15845352831E+03  0.15845352831E+03  0.00000000000E+00 0. -1.
         23    2    1    2    0    0  0.28121319909E+02 -0.24042118243E+02  0.15015779960E+02  0.96278919242E+02  0.87608929679E+02 0.  0.
         23    2    1    2    0    0 -0.28121319909E+02  0.24042118243E+02 -0.97488390970E+02  0.13815552638E+03  0.90631843255E+02 0.  0.
          5    1    3    3  502    0  0.31292091468E+02 -0.54593908012E+02  0.16321878312E+02  0.65178090583E+02  0.47000000000E+01 0. -1.
         -5    1    4    4    0  503 -0.39962206524E+02  0.49899065065E+02 -0.45155141731E+02  0.78409001201E+02  0.47000000000E+01 0.  1.
          5    1    4    4  503    0  0.11840886615E+02 -0.25856946822E+02 -0.52333249239E+02  0.59746525177E+02  0.47000000000E+01 0. -1.
         -5    1    3    3    0  502 -0.31707715585E+01  0.30551789769E+02 -0.13060983521E+01  0.31100828659E+02  0.47000000000E+01 0.  1.
<mgrwt>
<rscale>  0 0.97187059E+02</rscale>
<asrwt>0</asrwt>
<pdfrwt beam="1">  1        1 0.24377466E-01 0.97892610E+02</pdfrwt>
<pdfrwt beam="2">  1       -1 0.11689372E-01 0.97892610E+02</pdfrwt>
<totfact> 0.86710688E+03</totfact>
</mgrwt>
</event>
<event>
 8    1  0.3400573E-004  0.1446678E+03  0.7546771E-02  0.1208352E+00
         -2   -1    0    0    0  501 -0.00000000000E+00  0.00000000000E+00  0.34838788793E+03  0.34838788793E+03  0.00000000000E+00 0.  1.
          2   -1    0    0  501    0  0.00000000000E+00 -0.00000000000E+00 -0.64543618559E+02  0.64543618559E+02  0.00000000000E+00 0. -1.
         23    2    1    2    0    0  0.81569824626E+02  0.71220021558E+02  0.20298145611E+03  0.24719812347E+03  0.90440659901E+02 0.  0.
         23    2    1    2    0    0 -0.81569824626E+02 -0.71220021558E+02  0.80862813262E+02  0.16573338302E+03  0.95931391722E+02 0.  0.
          5    1    4    4  502    0 -0.73888185890E+02 -0.26857941616E+01  0.53533486187E+02  0.91403510040E+02  0.47000000000E+01 0. -1.
         -5    1    4    4    0  502 -0.76816387357E+01 -0.68534227397E+02  0.27329327076E+02  0.74329872978E+02  0.47000000000E+01 0.  1.
          5    1    3    3  503    0  0.26002599500E+02  0.60613504583E+02  0.46767904895E+02  0.80990487385E+02  0.47000000000E+01 0. -1.
         -5    1    3    3    0  503  0.55567225126E+02  0.10606516976E+02  0.15621355122E+03  0.16620763609E+03  0.47000000000E+01 0.  1.
<mgrwt>
<rscale>  0 0.14376405E+03</rscale>
<asrwt>0</asrwt>
<pdfrwt beam="1">  1        2 0.99297877E-02 0.14466776E+03</pdfrwt>
<pdfrwt beam="2">  1       -2 0.53598135E-01 0.14466776E+03</pdfrwt>
<totfact> 0.20898205E+03</totfact>
</mgrwt>
</event>
<event>
 8    1  0.3400573E-004  0.1677302E+03  0.7546771E-02  0.1181237E+00
         -2   -1    0    0    0  501 -0.00000000000E+00  0.00000000000E+00  0.32359817969E+03  0.32359817969E+03  0.00000000000E+00 0.  1.
          2   -1    0    0  501    0  0.00000000000E+00 -0.00000000000E+00 -0.14103282426E+03  0.14103282426E+03  0.00000000000E+00 0. -1.
         23    2    1    2    0    0  0.94855303814E+02  0.99144544643E+02  0.23706948870E+03  0.28826742629E+03  0.89827597033E+02 0.  0.
         23    2    1    2    0    0 -0.94855303814E+02 -0.99144544643E+02 -0.54504133272E+02  0.17636357767E+03  0.96468863320E+02 0.  0.
          5    1    3    3  502    0  0.51334720151E+02  0.48385251331E+01  0.39905657758E+02  0.65369842738E+02  0.47000000000E+01 0. -1.
         -5    1    4    4    0  503 -0.41023377115E+02 -0.45607953038E+02  0.24929945430E+02  0.66382189098E+02  0.47000000000E+01 0.  1.
          5    1    4    4  503    0 -0.53831926699E+02 -0.53536591605E+02 -0.79434078702E+02  0.10998138857E+03  0.47000000000E+01 0. -1.
         -5    1    3    3    0  502  0.43520583663E+02  0.94306019510E+02  0.19716383095E+03  0.22289758355E+03  0.47000000000E+01 0.  1.
<mgrwt>
<rscale>  0 0.16678988E+03</rscale>
<asrwt>0</asrwt>
<pdfrwt beam="1">  1        2 0.21697358E-01 0.16773017E+03</pdfrwt>
<pdfrwt beam="2">  1       -2 0.49784335E-01 0.16773017E+03</pdfrwt>
<totfact> 0.96947662E+02</totfact>
</mgrwt>
</event>
<event>
 8    1  0.3400573E-004  0.9451161E+02  0.7546771E-02  0.1293281E+00
         -1   -1    0    0    0  501 -0.00000000000E+00  0.00000000000E+00  0.16989262183E+02  0.16989262183E+02  0.00000000000E+00 0.  1.
          1   -1    0    0  501    0  0.00000000000E+00 -0.00000000000E+00 -0.52749786275E+03  0.52749786275E+03  0.00000000000E+00 0. -1.
         23    2    1    2    0    0  0.91044126996E+01  0.23733944365E+02 -0.29295211724E+03  0.30728833130E+03  0.89213144275E+02 0.  0.
         23    2    1    2    0    0 -0.91044126996E+01 -0.23733944365E+02 -0.21755648333E+03  0.23719879364E+03  0.91028862556E+02 0.  0.
          5    1    4    4  502    0  0.27074450224E+02 -0.34138346257E+02 -0.55264314685E+02  0.70531461191E+02  0.47000000000E+01 0. -1.
         -5    1    3    3    0  503 -0.29870632242E+02 -0.18214470527E+02 -0.11380627916E+03  0.11915528013E+03  0.47000000000E+01 0.  1.
          5    1    3    3  503    0  0.38975044941E+02  0.41948414891E+02 -0.17914583808E+03  0.18813305117E+03  0.47000000000E+01 0. -1.
         -5    1    4    4    0  502 -0.36178862924E+02  0.10404401893E+02 -0.16229216864E+03  0.16666733245E+03  0.47000000000E+01 0.  1.
<mgrwt>
<rscale>  0 0.94071666E+02</rscale>
<asrwt>0</asrwt>
<pdfrwt beam="1">  1        1 0.81153511E-01 0.94511609E+02</pdfrwt>
<pdfrwt beam="2">  1       -1 0.26137328E-02 0.94511609E+02</pdfrwt>
<totfact> 0.17737659E+04</totfact>
</mgrwt>
</event>
<event>
 8    1  0.3400573E-004  0.1306748E+03  0.7546771E-02  0.1226742E+00
         -1   -1    0    0    0  501 -0.00000000000E+00  0.00000000000E+00  0.45044852180E+02  0.45044852180E+02  0.00000000000E+00 0.  1.
          1   -1    0    0  501    0  0.00000000000E+00 -0.00000000000E+00 -0.39198880157E+03  0.39198880157E+03  0.00000000000E+00 0. -1.
         23    2    1    2    0    0  0.74928508409E+02  0.56861674423E+02 -0.21688870409E+03  0.25321260461E+03  0.90710428172E+02 0.  0.
         23    2    1    2    0    0 -0.74928508409E+02 -0.56861674423E+02 -0.13005524530E+03  0.18382104915E+03  0.89600669015E+02 0.  0.
          5    1    4    4  502    0 -0.44902771178E+02 -0.75625566499E+02 -0.11550255576E+03  0.14525293647E+03  0.47000000000E+01 0. -1.
         -5    1    3    3    0  503  0.61594199077E+02  0.78868152406E+02 -0.19449431367E+03  0.21877878982E+03  0.47000000000E+01 0.  1.
          5    1    3    3  503    0  0.13334309331E+02 -0.22006477983E+02 -0.22394390415E+02  0.34433814785E+02  0.47000000000E+01 0. -1.
         -5    1    4    4    0  502 -0.30025737231E+02  0.18763892076E+02 -0.14552689544E+02  0.38568112672E+02  0.47000000000E+01 0.  1.
<mgrwt>
<rscale>  0 0.13048244E+03</rscale>
<asrwt>0</asrwt>
<pdfrwt beam="1">  1        1 0.60305970E-01 0.13067484E+03</pdfrwt>
<pdfrwt beam="2">  1       -1 0.69299772E-02 0.13067484E+03</pdfrwt>
<totfact> 0.63705795E+03</totfact>
</mgrwt>
</event>
<event>
 8    1  0.3400573E-004  0.9589987E+02  0.7546771E-02  0.1290282E+00
         -1   -1    0    0    0  501 -0.00000000000E+00  0.00000000000E+00  0.13509202437E+03  0.13509202437E+03  0.00000000000E+00 0.  1.
          1   -1    0    0  501    0  0.00000000000E+00 -0.00000000000E+00 -0.33456082108E+03  0.33456082108E+03  0.00000000000E+00 0. -1.
         23    2    1    2    0    0  0.28629193708E+01 -0.26813915109E+02  0.11018433638E+03  0.14607317860E+03  0.92030446977E+02 0.  0.
         23    2    1    2    0    0 -0.28629193708E+01  0.26813915109E+02 -0.30965313310E+03  0.32357966685E+03  0.89953074472E+02 0.  0.
          5    1    3    3  502    0 -0.36434436775E+02 -0.19336599194E+00  0.15144550327E+02  0.39736041299E+02  0.47000000000E+01 0. -1.
         -5    1    4    4    0  503  0.27585329567E+02  0.40688244202E+02 -0.10351391084E+03  0.11468959570E+03  0.47000000000E+01 0.  1.
          5    1    4    4  503    0 -0.30448248938E+02 -0.13874329094E+02 -0.20613922226E+03  0.20889007115E+03  0.47000000000E+01 0. -1.
         -5    1    3    3    0  502  0.39297356146E+02 -0.26620549117E+02  0.95039786058E+02  0.10633713730E+03  0.47000000000E+01 0.  1.
<mgrwt>
<rscale>  0 0.95398012E+02</rscale>
<asrwt>0</asrwt>
<pdfrwt beam="1">  1        1 0.51470895E-01 0.95899872E+02</pdfrwt>
<pdfrwt beam="2">  1       -1 0.20783389E-01 0.95899872E+02</pdfrwt>
<totfact> 0.14101774E+03</totfact>
</mgrwt>
</event>
<event>
 8    1  0.3400573E-004  0.1039506E+03  0.7546771E-02  0.1272994E+00
          4   -1    0    0  501    0  0.00000000000E+00  0.00000000000E+00  0.10334632227E+03  0.10334632227E+03  0.00000000000E+00 0. -1.
         -4   -1    0    0    0  501 -0.00000000000E+00 -0.00000000000E+00 -0.13466902096E+03  0.13466902096E+03  0.00000000000E+00 0.  1.
         23    2    1    2    0    0  0.30019443760E+02  0.34189857090E+02 -0.73298025374E+02  0.12590978716E+03  0.91709108860E+02 0.  0.
         23    2    1    2    0    0 -0.30019443760E+02 -0.34189857090E+02  0.41975326682E+02  0.11210555607E+03  0.93464508348E+02 0.  0.
          5    1    3    3  502    0  0.32712559992E+02  0.36205509015E+01  0.11837190786E+02  0.35290636942E+02  0.47000000000E+01 0. -1.
         -5    1    4    4    0  503  0.25602860563E+02  0.10036998100E+02  0.28006355247E+02  0.39530921240E+02  0.47000000000E+01 0.  1.
          5    1    4    4  503    0 -0.55622304322E+02 -0.44226855190E+02  0.13968971435E+02  0.72574634833E+02  0.47000000000E+01 0. -1.
         -5    1    3    3    0  502 -0.26931162322E+01  0.30569306189E+02 -0.85135216160E+02  0.90619150220E+02  0.47000000000E+01 0.  1.
<mgrwt>
<rscale>  0 0.10355448E+03</rscale>
<asrwt>0</asrwt>
<pdfrwt beam="1">  1        4 0.15899434E-01 0.10395060E+03</pdfrwt>
<pdfrwt beam="2">  1       -4 0.20718311E-01 0.10395060E+03</pdfrwt>
<totfact> 0.11178889E+03</totfact>
</mgrwt>
</event>
<event>
 8    1  0.3400573E-004  0.1065956E+03  0.7546771E-02  0.1269233E+00
         -2   -1    0    0    0  501 -0.00000000000E+00  0.00000000000E+00  0.48233367852E+02  0.48233367852E+02  0.00000000000E+00 0.  1.
          2   -1    0    0  501    0  0.00000000000E+00 -0.00000000000E+00 -0.27102727582E+03  0.27102727582E+03  0.00000000000E+00 0. -1.
         23    2    1    2    0    0 -0.26047493670E+02  0.31071233274E+02 -0.48150276130E+02  0.11696609764E+03  0.98583596212E+02 0.  0.
         23    2    1    2    0    0  0.26047493670E+02 -0.31071233274E+02 -0.17464363184E+03  0.20229454604E+03  0.93695206651E+02 0.  0.
          5    1    3    3  502    0 -0.31985172496E+02  0.55418972250E+02 -0.60897994360E+02  0.88458857453E+02  0.47000000000E+01 0. -1.
         -5    1    4    4    0  503  0.30140527073E+02 -0.62373241720E+02 -0.10785700813E+03  0.12827352360E+03  0.47000000000E+01 0.  1.
          5    1    4    4  503    0 -0.40930334033E+01  0.31302008445E+02 -0.66786623712E+02  0.74021022432E+02  0.47000000000E+01 0. -1.
         -5    1    3    3    0  502  0.59376788258E+01 -0.24347738976E+02  0.12747718229E+02  0.28507240188E+02  0.47000000000E+01 0.  1.
<mgrwt>
<rscale>  0 0.10545128E+03</rscale>
<asrwt>0</asrwt>
<pdfrwt beam="1">  1        2 0.41696505E-01 0.10659559E+03</pdfrwt>
<pdfrwt beam="2">  1       -2 0.74205179E-02 0.10659559E+03</pdfrwt>
<totfact> 0.11991337E+04</totfact>
</mgrwt>
</event>
<event>
 8    1  0.3400573E-004  0.1069559E+03  0.7546771E-02  0.1266440E+00
         -2   -1    0    0    0  501 -0.00000000000E+00  0.00000000000E+00  0.26270307847E+02  0.26270307847E+02  0.00000000000E+00 0.  1.
          2   -1    0    0  501    0  0.00000000000E+00 -0.00000000000E+00 -0.88884422909E+03  0.88884422909E+03  0.00000000000E+00 0. -1.
         23    2    1    2    0    0 -0.12636034882E+02 -0.54749140854E+02 -0.10385048936E+03  0.14888949739E+03  0.90697411705E+02 0.  0.
         23    2    1    2    0    0  0.12636034882E+02  0.54749140854E+02 -0.75872343188E+03  0.76622503955E+03  0.91007842216E+02 0.  0.
          5    1    4    4  502    0  0.46151884546E+02  0.55520329945E+02 -0.47261436908E+03  0.47812021014E+03  0.47000000000E+01 0. -1.
         -5    1    3    3    0  503  0.20598397739E+02  0.95354372686E+01 -0.12059921832E+01  0.23211268179E+02  0.47000000000E+01 0.  1.
          5    1    3    3  503    0 -0.33234432621E+02 -0.64284578123E+02 -0.10264449718E+03  0.12567822921E+03  0.47000000000E+01 0. -1.
         -5    1    4    4    0  502 -0.33515849664E+02 -0.77118909121E+00 -0.28610906280E+03  0.28810482941E+03  0.47000000000E+01 0.  1.
<mgrwt>
<rscale>  0 0.10688984E+03</rscale>
<asrwt>0</asrwt>
<pdfrwt beam="1">  1        2 0.13674527E+00 0.10695590E+03</pdfrwt>
<pdfrwt beam="2">  1       -2 0.40415858E-02 0.10695590E+03</pdfrwt>
<totfact> 0.79665949E+03</totfact>
</mgrwt>
</event>
<event>
 8    1  0.3400573E-004  0.9485517E+02  0.7546771E-02  0.1291709E+00
          1   -1    0    0  501    0  0.00000000000E+00  0.00000000000E+00  0.54434433289E+03  0.54434433289E+03  0.00000000000E+00 0. -1.
         -1   -1    0    0    0  501 -0.00000000000E+00 -0.00000000000E+00 -0.18977075234E+02  0.18977075234E+02  0.00000000000E+00 0.  1.
         23    2    1    2    0    0 -0.15135109245E+02 -0.19921987786E+02  0.36470908522E+03  0.37675091018E+03  0.91118463282E+02 0.  0.
         23    2    1    2    0    0  0.15135109245E+02  0.19921987786E+02  0.16065817244E+03  0.18657049795E+03  0.91496148570E+02 0.  0.
          5    1    4    4  502    0  0.52443287523E+01  0.48928982178E+02  0.14206007815E+03  0.15041510590E+03  0.47000000000E+01 0. -1.
         -5    1    3    3    0  503  0.14243959770E+02  0.30446486292E+02  0.17367827934E+03  0.17696359408E+03  0.47000000000E+01 0.  1.
          5    1    3    3  503    0 -0.29379069015E+02 -0.50368474078E+02  0.19103080588E+03  0.19978731609E+03  0.47000000000E+01 0. -1.
         -5    1    4    4    0  502  0.98907804927E+01 -0.29006994391E+02  0.18598094291E+02  0.36155392041E+02  0.47000000000E+01 0.  1.
<mgrwt>
<rscale>  0 0.94763969E+02</rscale>
<asrwt>0</asrwt>
<pdfrwt beam="1">  1        1 0.83745270E-01 0.94855165E+02</pdfrwt>
<pdfrwt beam="2">  1       -1 0.29195505E-02 0.94855165E+02</pdfrwt>
<totfact> 0.14523663E+04</totfact>
</mgrwt>
</event>
<event>
 8    1  0.3400573E-004  0.1012384E+03  0.7546771E-02  0.1278003E+00
         -3   -1    0    0    0  501 -0.00000000000E+00  0.00000000000E+00  0.88650295260E+02  0.88650295260E+02  0.00000000000E+00 0.  1.
          3   -1    0    0  501    0  0.00000000000E+00 -0.00000000000E+00 -0.20963831992E+03  0.20963831992E+03  0.00000000000E+00 0. -1.
         23    2    1    2    0    0  0.61921236009E+01 -0.34721101969E+02  0.39635019660E+02  0.10872049825E+03  0.94896336284E+02 0.  0.
         23    2    1    2    0    0 -0.61921236009E+01  0.34721101969E+02 -0.16062304432E+03  0.18956811692E+03  0.94299582565E+02 0.  0.
          5    1    3    3  502    0  0.28111518241E+02 -0.10617267723E+02 -0.22885833643E+02  0.38063568057E+02  0.47000000000E+01 0. -1.
         -5    1    4    4    0  503 -0.32939008433E+02  0.15696953187E+02 -0.14195106539E+02  0.39433027598E+02  0.47000000000E+01 0.  1.
          5    1    4    4  503    0  0.26746884832E+02  0.19024148782E+02 -0.14642793778E+03  0.15013508933E+03  0.47000000000E+01 0. -1.
         -5    1    3    3    0  502 -0.21919394640E+02 -0.24103834246E+02  0.62520853303E+02  0.70656930195E+02  0.47000000000E+01 0.  1.
<mgrwt>
<rscale>  0 0.10109831E+03</rscale>
<asrwt>0</asrwt>
<pdfrwt beam="1">  1        3 0.32252049E-01 0.10123839E+03</pdfrwt>
<pdfrwt beam="2">  1       -3 0.13638507E-01 0.10123839E+03</pdfrwt>
<totfact> 0.90051886E+02</totfact>
</mgrwt>
</event>
<event>
 8    1  0.3400573E-004  0.1099978E+03  0.7546771E-02  0.1260776E+00
         -1   -1    0    0    0  501 -0.00000000000E+00  0.00000000000E+00  0.18895872085E+02  0.18895872085E+02  0.00000000000E+00 0.  1.
          1   -1    0    0  501    0  0.00000000000E+00 -0.00000000000E+00 -0.63785762146E+03  0.63785762146E+03  0.00000000000E+00 0. -1.
         23    2    1    2    0    0  0.44538555593E+02 -0.39472695296E+02 -0.31342548316E+03  0.33216719244E+03  0.92508019260E+02 0.  0.
         23    2    1    2    0    0 -0.44538555593E+02  0.39472695296E+02 -0.30553626621E+03  0.32458630111E+03  0.91989566192E+02 0.  0.
          5    1    4    4  502    0  0.27878076997E+02  0.19243713280E+02 -0.92083599240E+02  0.98229256980E+02  0.47000000000E+01 0. -1.
         -5    1    3    3    0  503 -0.12928107532E+02 -0.49185887620E+02 -0.16124929266E+03  0.16914435222E+03  0.47000000000E+01 0.  1.
          5    1    3    3  503    0  0.57466663124E+02  0.97131923235E+01 -0.15217619050E+03  0.16302284022E+03  0.47000000000E+01 0. -1.
         -5    1    4    4    0  502 -0.72416632590E+02  0.20228982016E+02 -0.21345266697E+03  0.22635704413E+03  0.47000000000E+01 0.  1.
<mgrwt>
<rscale>  0 0.10988870E+03</rscale>
<asrwt>0</asrwt>
<pdfrwt beam="1">  1        1 0.98131936E-01 0.10999777E+03</pdfrwt>
<pdfrwt beam="2">  1       -1 0.29070574E-02 0.10999777E+03</pdfrwt>
<totfact> 0.11962817E+04</totfact>
</mgrwt>
</event>
<event>
 8    1  0.3400573E-004  0.1121639E+03  0.7546771E-02  0.1256878E+00
         -1   -1    0    0    0  501 -0.00000000000E+00  0.00000000000E+00  0.48509372306E+03  0.48509372306E+03  0.00000000000E+00 0.  1.
          1   -1    0    0  501    0  0.00000000000E+00 -0.00000000000E+00 -0.25802774995E+02  0.25802774995E+02  0.00000000000E+00 0. -1.
         23    2    1    2    0    0 -0.16290596976E+02  0.63473520504E+02  0.23281387573E+03  0.25842413060E+03  0.91029990583E+02 0.  0.
         23    2    1    2    0    0  0.16290596976E+02 -0.63473520504E+02  0.22647707233E+03  0.25247236746E+03  0.90311464849E+02 0.  0.
          5    1    3    3  502    0  0.14501690447E+02  0.66731365607E+02  0.94971380215E+02  0.11706847245E+03  0.47000000000E+01 0. -1.
         -5    1    3    3    0  502 -0.30792287423E+02 -0.32578451037E+01  0.13784249552E+03  0.14135565815E+03  0.47000000000E+01 0.  1.
          5    1    4    4  503    0  0.35091325106E+02  0.49973722486E+01  0.11306440458E+03  0.11858340697E+03  0.47000000000E+01 0. -1.
         -5    1    4    4    0  503 -0.18800728130E+02 -0.68470892752E+02  0.11341266775E+03  0.13388896048E+03  0.47000000000E+01 0.  1.
<mgrwt>
<rscale>  0 0.11201798E+03</rscale>
<asrwt>0</asrwt>
<pdfrwt beam="1">  1        1 0.39696580E-02 0.11216386E+03</pdfrwt>
<pdfrwt beam="2">  1       -1 0.74629797E-01 0.11216386E+03</pdfrwt>
<totfact> 0.40918036E+03</totfact>
</mgrwt>
</event>
<event>
 8    1  0.3400573E-004  0.1129528E+03  0.7546771E-02  0.1255198E+00
          1   -1    0    0  501    0  0.00000000000E+00  0.00000000000E+00  0.96489509276E+03  0.96489509276E+03  0.00000000000E+00 0. -1.
         -1   -1    0    0    0  501 -0.00000000000E+00 -0.00000000000E+00 -0.14268960107E+02  0.14268960107E+02  0.00000000000E+00 0.  1.
         23    2    1    2    0    0  0.36297926015E+02  0.55507445034E+02  0.34271786232E+03  0.36085158706E+03  0.91431498071E+02 0.  0.
         23    2    1    2    0    0 -0.36297926015E+02 -0.55507445034E+02  0.60790827033E+03  0.61831246581E+03  0.91428793890E+02 0.  0.
          5    1    3    3  502    0  0.23840212776E+01  0.45674608798E+02  0.30693878099E+03  0.31036326896E+03  0.47000000000E+01 0. -1.
         -5    1    4    4    0  503  0.16865092984E+02  0.16000239292E+02  0.12547063608E+03  0.12769263697E+03  0.47000000000E+01 0.  1.
          5    1    4    4  503    0 -0.53163018998E+02 -0.71507684326E+02  0.48243763425E+03  0.49061982884E+03  0.47000000000E+01 0. -1.
         -5    1    3    3    0  502  0.33913904737E+02  0.98328362359E+01  0.35779081335E+02  0.50488318096E+02  0.47000000000E+01 0.  1.
<mgrwt>
<rscale>  0 0.11295225E+03</rscale>
<asrwt>0</asrwt>
<pdfrwt beam="1">  1        1 0.14844535E+00 0.11295280E+03</pdfrwt>
<pdfrwt beam="2">  1       -1 0.21952254E-02 0.11295280E+03</pdfrwt>
<totfact> 0.96961654E+03</totfact>
</mgrwt>
</event>
<event>
 8    1  0.3400573E-004  0.9924464E+02  0.7546771E-02  0.1282329E+00
          1   -1    0    0  501    0  0.00000000000E+00  0.00000000000E+00  0.21376043228E+03  0.21376043228E+03  0.00000000000E+00 0. -1.
         -1   -1    0    0    0  501 -0.00000000000E+00 -0.00000000000E+00 -0.63546276288E+02  0.63546276288E+02  0.00000000000E+00 0.  1.
         23    2    1    2    0    0  0.38379035284E+02  0.90064222751E+01  0.14881359589E+03  0.17887142074E+03  0.91079266818E+02 0.  0.
         23    2    1    2    0    0 -0.38379035284E+02 -0.90064222751E+01  0.14005601056E+01  0.98435287831E+02  0.90185798939E+02 0.  0.
          5    1    3    3  502    0 -0.14941722271E+02  0.15019955893E+02  0.11089640735E+03  0.11299981108E+03  0.47000000000E+01 0. -1.
         -5    1    3    3    0  502  0.53320757555E+02 -0.60135336177E+01  0.37917188531E+02  0.65871609658E+02  0.47000000000E+01 0.  1.
          5    1    4    4  503    0  0.26773701103E+02  0.89546214306E+01 -0.87613244580E+01  0.29931039440E+02  0.47000000000E+01 0. -1.
         -5    1    4    4    0  503 -0.65152736387E+02 -0.17961043706E+02  0.10161884564E+02  0.68504248391E+02  0.47000000000E+01 0.  1.
<mgrwt>
<rscale>  0 0.99039175E+02</rscale>
<asrwt>0</asrwt>
<pdfrwt beam="1">  1        1 0.32886220E-01 0.99244641E+02</pdfrwt>
<pdfrwt beam="2">  1       -1 0.97763503E-02 0.99244641E+02</pdfrwt>
<totfact> 0.78682960E+03</totfact>
</mgrwt>
</event>
<event>
 8    1  0.3400573E-004  0.1113417E+03  0.7546771E-02  0.1258124E+00
          3   -1    0    0  501    0  0.00000000000E+00  0.00000000000E+00  0.23245803396E+02  0.23245803396E+02  0.00000000000E+00 0. -1.
         -3   -1    0    0    0  501 -0.00000000000E+00 -0.00000000000E+00 -0.55761493635E+03  0.55761493635E+03  0.00000000000E+00 0.  1.
         23    2    1    2    0    0  0.31735701523E+02 -0.55918232416E+02 -0.32802591353E+03  0.34639431258E+03  0.90851617333E+02 0.  0.
         23    2    1    2    0    0 -0.31735701523E+02  0.55918232416E+02 -0.20634321942E+03  0.23446642716E+03  0.90900922978E+02 0.  0.
          5    1    4    4  502    0 -0.93598317556E+01 -0.24049881173E+02 -0.70040121435E+02  0.74791121435E+02  0.47000000000E+01 0. -1.
         -5    1    4    4    0  502 -0.22375869768E+02  0.79968113590E+02 -0.13630309799E+03  0.15967530573E+03  0.47000000000E+01 0.  1.
          5    1    3    3  503    0  0.46785962413E+02 -0.72840463176E+02 -0.27950258319E+03  0.29264046775E+03  0.47000000000E+01 0. -1.
         -5    1    3    3    0  503 -0.15050260890E+02  0.16922230759E+02 -0.48523330346E+02  0.53753844836E+02  0.47000000000E+01 0.  1.
<mgrwt>
<rscale>  0 0.11133167E+03</rscale>
<asrwt>0</asrwt>
<pdfrwt beam="1">  1        3 0.35762776E-02 0.11134173E+03</pdfrwt>
<pdfrwt beam="2">  1       -3 0.85786909E-01 0.11134173E+03</pdfrwt>
<totfact> 0.11038671E+03</totfact>
</mgrwt>
</event>
<event>
 8    1  0.3400573E-004  0.9274685E+02  0.7546771E-02  0.1298661E+00
         -2   -1    0    0    0  501 -0.00000000000E+00  0.00000000000E+00  0.24870598172E+02  0.24870598172E+02  0.00000000000E+00 0.  1.
          2   -1    0    0  501    0  0.00000000000E+00 -0.00000000000E+00 -0.40586448376E+03  0.40586448376E+03  0.00000000000E+00 0. -1.
         23    2    1    2    0    0  0.70957377548E+01 -0.14240376344E+02 -0.28605516288E+03  0.30071503850E+03  0.91371988921E+02 0.  0.
         23    2    1    2    0    0 -0.70957377548E+01  0.14240376344E+02 -0.94938722709E+02  0.13002004343E+03  0.87399730040E+02 0.  0.
          5    1    3    3  502    0  0.39029749640E+01  0.37022816499E+02 -0.16346992286E+03  0.16772128020E+03  0.47000000000E+01 0. -1.
         -5    1    4    4    0  503 -0.25186869092E+02 -0.25357282110E+02 -0.15348052373E+02  0.39179367559E+02  0.47000000000E+01 0.  1.
          5    1    4    4  503    0  0.18091131337E+02  0.39597658454E+02 -0.79590670336E+02  0.90840675871E+02  0.47000000000E+01 0. -1.
         -5    1    3    3    0  502  0.31927627909E+01 -0.51263192843E+02 -0.12258524002E+03  0.13299375830E+03  0.47000000000E+01 0.  1.
<mgrwt>
<rscale>  0 0.91753308E+02</rscale>
<asrwt>0</asrwt>
<pdfrwt beam="1">  1        2 0.62440691E-01 0.92746850E+02</pdfrwt>
<pdfrwt beam="2">  1       -2 0.38262458E-02 0.92746850E+02</pdfrwt>
<totfact> 0.20848703E+04</totfact>
</mgrwt>
</event>
<event>
 8    1  0.3400573E-004  0.1024049E+03  0.7546771E-02  0.1275547E+00
         -1   -1    0    0    0  501 -0.00000000000E+00  0.00000000000E+00  0.15641218260E+02  0.15641218260E+02  0.00000000000E+00 0.  1.
          1   -1    0    0  501    0  0.00000000000E+00 -0.00000000000E+00 -0.71139871061E+03  0.71139871061E+03  0.00000000000E+00 0. -1.
         23    2    1    2    0    0  0.60085720310E+01 -0.46547654440E+02 -0.25832463031E+03  0.27788196576E+03  0.91016400710E+02 0.  0.
         23    2    1    2    0    0 -0.60085720310E+01  0.46547654440E+02 -0.43743286205E+03  0.44915796311E+03  0.90512871795E+02 0.  0.
          5    1    4    4  502    0  0.25443886952E+02  0.57948493699E+02 -0.21488305196E+03  0.22405855334E+03  0.47000000000E+01 0. -1.
         -5    1    3    3    0  503 -0.36463065607E+02 -0.45027723029E+02 -0.17181816720E+03  0.18138529041E+03  0.47000000000E+01 0.  1.
          5    1    3    3  503    0  0.42471637638E+02 -0.15199314107E+01 -0.86506463105E+02  0.96496675352E+02  0.47000000000E+01 0. -1.
         -5    1    4    4    0  502 -0.31452458984E+02 -0.11400839259E+02 -0.22254981009E+03  0.22509940978E+03  0.47000000000E+01 0.  1.
<mgrwt>
<rscale>  0 0.10229294E+03</rscale>
<asrwt>0</asrwt>
<pdfrwt beam="1">  1        1 0.10944595E+00 0.10240494E+03</pdfrwt>
<pdfrwt beam="2">  1       -1 0.24063415E-02 0.10240494E+03</pdfrwt>
<totfact> 0.13413010E+04</totfact>
</mgrwt>
</event>
<event>
 8    1  0.3400573E-004  0.1691305E+03  0.7546771E-02  0.1180389E+00
          2   -1    0    0  501    0  0.00000000000E+00  0.00000000000E+00  0.18832642267E+03  0.18832642267E+03  0.00000000000E+00 0. -1.
         -2   -1    0    0    0  501 -0.00000000000E+00 -0.00000000000E+00 -0.15723819621E+03  0.15723819621E+03  0.00000000000E+00 0.  1.
         23    2    1    2    0    0 -0.13473541873E+03  0.11289340898E+02 -0.29403570136E+02  0.17166737731E+03  0.10160726459E+03 0.  0.
         23    2    1    2    0    0  0.13473541873E+03 -0.11289340898E+02  0.60491796591E+02  0.17389724157E+03  0.91103846757E+02 0.  0.
          5    1    3    3  502    0 -0.32913146421E+02  0.45085205502E+02  0.10709615363E+02  0.57032769735E+02  0.47000000000E+01 0. -1.
         -5    1    3    3    0  502 -0.10182227231E+03 -0.33795864603E+02 -0.40113185499E+02  0.11463460757E+03  0.47000000000E+01 0.  1.
          5    1    4    4  503    0  0.26739055344E+02  0.34317675903E+02  0.28735783481E+02  0.52349930395E+02  0.47000000000E+01 0. -1.
         -5    1    4    4    0  503  0.10799636339E+03 -0.45607016801E+02  0.31756013110E+02  0.12154731118E+03  0.47000000000E+01 0.  1.
<mgrwt>
<rscale>  0 0.16758603E+03</rscale>
<asrwt>0</asrwt>
<pdfrwt beam="1">  1        2 0.28973296E-01 0.16913048E+03</pdfrwt>
<pdfrwt beam="2">  1       -2 0.24190492E-01 0.16913048E+03</pdfrwt>
<totfact> 0.26858664E+03</totfact>
</mgrwt>
</event>
<event>
 8    1  0.3400573E-004  0.1099323E+03  0.7546771E-02  0.1261062E+00
         -2   -1    0    0    0  501 -0.00000000000E+00  0.00000000000E+00  0.29806645041E+02  0.29806645041E+02  0.00000000000E+00 0.  1.
          2   -1    0    0  501    0  0.00000000000E+00 -0.00000000000E+00 -0.40254930530E+03  0.40254930530E+03  0.00000000000E+00 0. -1.
         23    2    1    2    0    0 -0.34319107328E+02  0.48625130482E+02 -0.18556223524E+03  0.21528079390E+03  0.91489194066E+02 0.  0.
         23    2    1    2    0    0  0.34319107328E+02 -0.48625130482E+02 -0.18718042501E+03  0.21707515644E+03  0.92427850745E+02 0.  0.
          5    1    3    3  502    0 -0.11718338235E+02  0.40221746823E+02 -0.18599298628E+03  0.19071074776E+03  0.47000000000E+01 0. -1.
         -5    1    4    4    0  503  0.59516940278E+02 -0.10419734744E+02 -0.79402788349E+02  0.99888587185E+02  0.47000000000E+01 0.  1.
          5    1    4    4  503    0 -0.25197832951E+02 -0.38205395738E+02 -0.10777763667E+03  0.11718656926E+03  0.47000000000E+01 0. -1.
         -5    1    3    3    0  502 -0.22600769093E+02  0.84033836587E+01  0.43075103507E+00  0.24570046133E+02  0.47000000000E+01 0.  1.
<mgrwt>
<rscale>  0 0.10973477E+03</rscale>
<asrwt>0</asrwt>
<pdfrwt beam="1">  1        2 0.61930663E-01 0.10993231E+03</pdfrwt>
<pdfrwt beam="2">  1       -2 0.45856377E-02 0.10993231E+03</pdfrwt>
<totfact> 0.16360412E+04</totfact>
</mgrwt>
</event>
<event>
 8    1  0.3400573E-004  0.1113522E+03  0.7546771E-02  0.1260362E+00
         -2   -1    0    0    0  501 -0.00000000000E+00  0.00000000000E+00  0.63657408164E+02  0.63657408164E+02  0.00000000000E+00 0.  1.
          2   -1    0    0  501    0  0.00000000000E+00 -0.00000000000E+00 -0.18675255397E+03  0.18675255397E+03  0.00000000000E+00 0. -1.
         23    2    1    2    0    0 -0.29741313791E+02  0.47262757705E+02 -0.54314436345E+02  0.11952793287E+03  0.90656244842E+02 0.  0.
         23    2    1    2    0    0  0.29741313791E+02 -0.47262757705E+02 -0.68780709465E+02  0.13088202927E+03  0.96337975787E+02 0.  0.
          5    1    4    4  502    0  0.64166803967E+02 -0.22324321950E+02 -0.48104456824E+02  0.83377951811E+02  0.47000000000E+01 0. -1.
         -5    1    4    4    0  502 -0.34425490176E+02 -0.24938435754E+02 -0.20676252641E+02  0.47504077456E+02  0.47000000000E+01 0.  1.
          5    1    3    3  503    0 -0.28800009983E+01  0.32742947872E+02 -0.75221912260E+02  0.82224212524E+02  0.47000000000E+01 0. -1.
         -5    1    3    3    0  503 -0.26861312792E+02  0.14519809832E+02  0.20907475915E+02  0.37303720346E+02  0.47000000000E+01 0.  1.
<mgrwt>
<rscale>  0 0.11011230E+03</rscale>
<asrwt>0</asrwt>
<pdfrwt beam="1">  1        2 0.28731162E-01 0.11135223E+03</pdfrwt>
<pdfrwt beam="2">  1       -2 0.97934475E-02 0.11135223E+03</pdfrwt>
<totfact> 0.11663924E+04</totfact>
</mgrwt>
</event>
<event>
 8    1  0.3400573E-004  0.1018623E+03  0.7546771E-02  0.1280444E+00
          1   -1    0    0  501    0  0.00000000000E+00  0.00000000000E+00  0.13063824524E+03  0.13063824524E+03  0.00000000000E+00 0. -1.
         -1   -1    0    0    0  501 -0.00000000000E+00 -0.00000000000E+00 -0.74517185024E+02  0.74517185024E+02  0.00000000000E+00 0.  1.
         23    2    1    2    0    0  0.41431530069E+02  0.17278554156E+02  0.40019699900E+02  0.10944181515E+03  0.91437489059E+02 0.  0.
         23    2    1    2    0    0 -0.41431530069E+02 -0.17278554156E+02  0.16101360320E+02  0.95713615118E+02  0.82986277162E+02 0.  0.
          5    1    4    4  502    0  0.19648166700E+02 -0.13550143388E+02  0.23589024384E+02  0.33884936357E+02  0.47000000000E+01 0. -1.
         -5    1    3    3    0  503  0.18383125078E+02 -0.36201400930E+02  0.46282055539E+01  0.41133818247E+02  0.47000000000E+01 0.  1.
          5    1    3    3  503    0  0.23048404990E+02  0.53479955087E+02  0.35391494346E+02  0.68307996901E+02  0.47000000000E+01 0. -1.
         -5    1    4    4    0  502 -0.61079696768E+02 -0.37284107681E+01 -0.74876640647E+01  0.61828678761E+02  0.47000000000E+01 0.  1.
<mgrwt>
<rscale>  0 0.99929841E+02</rscale>
<asrwt>0</asrwt>
<pdfrwt beam="1">  1        1 0.20098192E-01 0.10186233E+03</pdfrwt>
<pdfrwt beam="2">  1       -1 0.11464182E-01 0.10186233E+03</pdfrwt>
<totfact> 0.11413968E+04</totfact>
</mgrwt>
</event>
<event>
 8    1  0.3400573E-004  0.9833689E+02  0.7546771E-02  0.1284152E+00
          1   -1    0    0  501    0  0.00000000000E+00  0.00000000000E+00  0.15604992704E+03  0.15604992704E+03  0.00000000000E+00 0. -1.
         -1   -1    0    0    0  501 -0.00000000000E+00 -0.00000000000E+00 -0.81265583513E+02  0.81265583513E+02  0.00000000000E+00 0.  1.
         23    2    1    2    0    0  0.25077302895E+02  0.15605177405E+02 -0.20899186804E+02  0.10053318086E+03  0.93796331283E+02 0.  0.
         23    2    1    2    0    0 -0.25077302895E+02 -0.15605177405E+02  0.95683530335E+02  0.13678232970E+03  0.93175506748E+02 0.  0.
          5    1    4    4  502    0 -0.59305542923E+02 -0.20242343873E+02  0.59549882245E+02  0.86574698280E+02  0.47000000000E+01 0. -1.
         -5    1    4    4    0  502  0.34228240028E+02  0.46371664684E+01  0.36133648091E+02  0.50207631418E+02  0.47000000000E+01 0.  1.
          5    1    3    3  503    0  0.50540433337E+02 -0.16154807600E+02 -0.25938392071E+02  0.59246969490E+02  0.47000000000E+01 0. -1.
         -5    1    3    3    0  503 -0.25463130442E+02  0.31759985005E+02  0.50392052671E+01  0.41286211369E+02  0.47000000000E+01 0.  1.
<mgrwt>
<rscale>  0 0.98188562E+02</rscale>
<asrwt>0</asrwt>
<pdfrwt beam="1">  1        1 0.24007681E-01 0.98336893E+02</pdfrwt>
<pdfrwt beam="2">  1       -1 0.12502397E-01 0.98336893E+02</pdfrwt>
<totfact> 0.79764994E+03</totfact>
</mgrwt>
</event>
<event>
 8    1  0.3400573E-004  0.9796755E+02  0.7546771E-02  0.1285885E+00
          1   -1    0    0  501    0  0.00000000000E+00  0.00000000000E+00  0.63454992068E+03  0.63454992068E+03  0.00000000000E+00 0. -1.
         -1   -1    0    0    0  501 -0.00000000000E+00 -0.00000000000E+00 -0.14785177981E+02  0.14785177981E+02  0.00000000000E+00 0.  1.
         23    2    1    2    0    0 -0.11301061133E+02  0.30195771309E+02  0.32293455755E+03  0.33746758280E+03  0.92510228587E+02 0.  0.
         23    2    1    2    0    0  0.11301061133E+02 -0.30195771309E+02  0.29683018515E+03  0.31186751586E+03  0.90076023702E+02 0.  0.
          5    1    3    3  502    0  0.37710131944E+02  0.28954461835E+02  0.18237707421E+03  0.18853090492E+03  0.47000000000E+01 0. -1.
         -5    1    3    3    0  502 -0.49011193076E+02  0.12413094737E+01  0.14055748334E+03  0.14893667788E+03  0.47000000000E+01 0.  1.
          5    1    4    4  503    0  0.25536777116E+01  0.32081807050E+02  0.10724804625E+03  0.11207139259E+03  0.47000000000E+01 0. -1.
         -5    1    4    4    0  503  0.87473834210E+01 -0.62277578359E+02  0.18958213890E+03  0.19979612327E+03  0.47000000000E+01 0.  1.
<mgrwt>
<rscale>  0 0.97388626E+02</rscale>
<asrwt>0</asrwt>
<pdfrwt beam="1">  1        1 0.97623044E-01 0.97967551E+02</pdfrwt>
<pdfrwt beam="2">  1       -1 0.22746433E-02 0.97967551E+02</pdfrwt>
<totfact> 0.16987678E+04</totfact>
</mgrwt>
</event>
<event>
 8    1  0.3400573E-004  0.1013335E+03  0.7546771E-02  0.1278610E+00
         -1   -1    0    0    0  501 -0.00000000000E+00  0.00000000000E+00  0.72741988954E+03  0.72741988954E+03  0.00000000000E+00 0.  1.
          1   -1    0    0  501    0  0.00000000000E+00 -0.00000000000E+00 -0.14377428141E+02  0.14377428141E+02  0.00000000000E+00 0. -1.
         23    2    1    2    0    0  0.24379913490E+02 -0.33505453213E+02  0.43272023683E+03  0.44442691875E+03  0.92474251395E+02 0.  0.
         23    2    1    2    0    0 -0.24379913490E+02  0.33505453213E+02  0.28032222457E+03  0.29737039893E+03  0.90175434551E+02 0.  0.
          5    1    4    4  502    0 -0.54294944593E+02  0.99492514216E+01  0.11490544325E+03  0.12756284530E+03  0.47000000000E+01 0. -1.
         -5    1    3    3    0  503  0.45797471764E+02  0.13162542018E+02  0.16597998302E+03  0.17274867784E+03  0.47000000000E+01 0.  1.
          5    1    3    3  503    0 -0.21417558273E+02 -0.46667995231E+02  0.26674025381E+03  0.27167824091E+03  0.47000000000E+01 0. -1.
         -5    1    4    4    0  502  0.29915031103E+02  0.23556201791E+02  0.16541678132E+03  0.16980755363E+03  0.47000000000E+01 0.  1.
<mgrwt>
<rscale>  0 0.10080607E+03</rscale>
<asrwt>0</asrwt>
<pdfrwt beam="1">  1        1 0.22119126E-02 0.10133352E+03</pdfrwt>
<pdfrwt beam="2">  1       -1 0.11191072E+00 0.10133352E+03</pdfrwt>
<totfact> 0.38384465E+03</totfact>
</mgrwt>
</event>
<event>
 8    1  0.3400573E-004  0.9480203E+02  0.7546771E-02  0.1292851E+00
          2   -1    0    0  501    0  0.00000000000E+00  0.00000000000E+00  0.10729949277E+04  0.10729949277E+04  0.00000000000E+00 0. -1.
         -2   -1    0    0    0  501 -0.00000000000E+00 -0.00000000000E+00 -0.90605418366E+01  0.90605418366E+01  0.00000000000E+00 0.  1.
         23    2    1    2    0    0  0.47211286691E+00 -0.22961298485E+02  0.69441586364E+03  0.70056973903E+03  0.89761480919E+02 0.  0.
         23    2    1    2    0    0 -0.47211286691E+00  0.22961298485E+02  0.36951852224E+03  0.38148573052E+03  0.91978150627E+02 0.  0.
          5    1    4    4  502    0 -0.38804440810E+02  0.82072599542E+01  0.28057669507E+03  0.28340521442E+03  0.47000000000E+01 0. -1.
         -5    1    3    3    0  503  0.23002226861E+02 -0.50751286455E+02  0.38051431837E+03  0.38460113365E+03  0.47000000000E+01 0.  1.
          5    1    3    3  503    0 -0.22530113994E+02  0.27789987970E+02  0.31390154527E+03  0.31596860538E+03  0.47000000000E+01 0. -1.
         -5    1    4    4    0  502  0.38332327943E+02  0.14754038531E+02  0.88941827173E+02  0.98080516105E+02  0.47000000000E+01 0.  1.
<mgrwt>
<rscale>  0 0.94260127E+02</rscale>
<asrwt>0</asrwt>
<pdfrwt beam="1">  1        2 0.16507604E+00 0.94802027E+02</pdfrwt>
<pdfrwt beam="2">  1       -2 0.13939304E-02 0.94802027E+02</pdfrwt>
<totfact> 0.28667042E+04</totfact>
</mgrwt>
</event>
<event>
 8    1  0.3576308E-004  0.3153521E+03  0.7546771E-02  0.1078304E+00
         -1   -1    0    0    0  501 -0.00000000000E+00  0.00000000000E+00  0.54367318322E+03  0.54367318322E+03  0.00000000000E+00 0.  1.
          1   -1    0    0  501    0  0.00000000000E+00 -0.00000000000E+00 -0.52799261082E+03  0.52799261082E+03  0.00000000000E+00 0. -1.
         23    2    1    2    0    0 -0.11991312181E+03  0.27078431634E+03 -0.42687944804E+03  0.52824486408E+03  0.95463451147E+02 0.  0.
         23    2    1    2    0    0  0.11991312181E+03 -0.27078431634E+03  0.44256002044E+03  0.54342092996E+03  0.10836804264E+03 0.  0.
          5    1    3    3  502    0 -0.81644755816E+02  0.16492566679E+03 -0.18285780494E+03  0.25947140217E+03  0.47000000000E+01 0. -1.
         -5    1    3    3    0  502 -0.38268365991E+02  0.10585864955E+03 -0.24402164310E+03  0.26877346190E+03  0.47000000000E+01 0.  1.
          5    1    4    4  503    0  0.59746394250E+02 -0.16444977310E+03  0.16684176243E+03  0.24180906350E+03  0.47000000000E+01 0. -1.
         -5    1    4    4    0  503  0.60166727557E+02 -0.10633454325E+03  0.27571825801E+03  0.30161186646E+03  0.47000000000E+01 0.  1.
<mgrwt>
<rscale>  0 0.31429718E+03</rscale>
<asrwt>0</asrwt>
<pdfrwt beam="1">  1        1 0.81229633E-01 0.31535208E+03</pdfrwt>
<pdfrwt beam="2">  1       -1 0.83642028E-01 0.31535208E+03</pdfrwt>
<totfact> 0.62632660E+01</totfact>
</mgrwt>
</event>
<event>
 8    1  0.3400573E-004  0.1388863E+03  0.7546771E-02  0.1216090E+00
          2   -1    0    0  501    0  0.00000000000E+00  0.00000000000E+00  0.49470585864E+03  0.49470585864E+03  0.00000000000E+00 0. -1.
         -2   -1    0    0    0  501 -0.00000000000E+00 -0.00000000000E+00 -0.39564199644E+02  0.39564199644E+02  0.00000000000E+00 0.  1.
         23    2    1    2    0    0 -0.36902253828E+02  0.93932103891E+02  0.28397721087E+03  0.31612096846E+03  0.95416947789E+02 0.  0.
         23    2    1    2    0    0  0.36902253828E+02 -0.93932103891E+02  0.17116444812E+03  0.21814908983E+03  0.90037440053E+02 0.  0.
          5    1    4    4  502    0 -0.32154983681E+01 -0.50126182098E+02  0.14415463850E+03  0.15272728428E+03  0.47000000000E+01 0. -1.
         -5    1    3    3    0  503 -0.62655194825E+02  0.29694852888E+02  0.14510370408E+03  0.16088701832E+03  0.47000000000E+01 0.  1.
          5    1    3    3  503    0  0.25752940997E+02  0.64237251003E+02  0.13887350679E+03  0.15523395014E+03  0.47000000000E+01 0. -1.
         -5    1    4    4    0  502  0.40117752196E+02 -0.43805921794E+02  0.27009809625E+02  0.65421805550E+02  0.47000000000E+01 0.  1.
<mgrwt>
<rscale>  0 0.13796742E+03</rscale>
<asrwt>0</asrwt>
<pdfrwt beam="1">  1        2 0.76108589E-01 0.13888632E+03</pdfrwt>
<pdfrwt beam="2">  1       -2 0.60868003E-02 0.13888632E+03</pdfrwt>
<totfact> 0.87176789E+03</totfact>
</mgrwt>
</event>
<event>
 8    1  0.3400573E-004  0.1177273E+03  0.7546771E-02  0.1249593E+00
         -1   -1    0    0    0  501 -0.00000000000E+00  0.00000000000E+00  0.14965687737E+03  0.14965687737E+03  0.00000000000E+00 0.  1.
          1   -1    0    0  501    0  0.00000000000E+00 -0.00000000000E+00 -0.10419591901E+03  0.10419591901E+03  0.00000000000E+00 0. -1.
         23    2    1    2    0    0 -0.39014624822E+02 -0.48867771044E+02  0.72547346648E+02  0.13304971298E+03  0.92352090517E+02 0.  0.
         23    2    1    2    0    0  0.39014624822E+02  0.48867771044E+02 -0.27086388287E+02  0.12080308339E+03  0.99747243214E+02 0.  0.
          5    1    3    3  502    0 -0.35308385847E+02  0.69340771288E+01 -0.57241868994E+01  0.36737172624E+02  0.47000000000E+01 0. -1.
         -5    1    3    3    0  502 -0.37062389747E+01 -0.55801848173E+02  0.78271533548E+02  0.96312540361E+02  0.47000000000E+01 0.  1.
          5    1    4    4  503    0  0.29802277829E+01  0.58981352600E+02 -0.49260284671E+02  0.77047695345E+02  0.47000000000E+01 0. -1.
         -5    1    4    4    0  503  0.36034397039E+02 -0.10113581556E+02  0.22173896384E+02  0.43755388042E+02  0.47000000000E+01 0.  1.
<mgrwt>
<rscale>  0 0.11614660E+03</rscale>
<asrwt>0</asrwt>
<pdfrwt beam="1">  1        1 0.16030141E-01 0.11772728E+03</pdfrwt>
<pdfrwt beam="2">  1       -1 0.23024135E-01 0.11772728E+03</pdfrwt>
<totfact> 0.51510707E+03</totfact>
</mgrwt>
</event>
<event>
 8    1  0.3400573E-004  0.1066684E+03  0.7546771E-02  0.1270198E+00
          1   -1    0    0  501    0  0.00000000000E+00  0.00000000000E+00  0.21164909592E+02  0.21164909592E+02  0.00000000000E+00 0. -1.
         -1   -1    0    0    0  501 -0.00000000000E+00 -0.00000000000E+00 -0.52320286714E+03  0.52320286714E+03  0.00000000000E+00 0.  1.
         23    2    1    2    0    0 -0.45507108513E+02  0.34521204917E+02 -0.29464120330E+03  0.31114777206E+03  0.82078540805E+02 0.  0.
         23    2    1    2    0    0  0.45507108513E+02 -0.34521204917E+02 -0.20739675425E+03  0.23322000467E+03  0.90086327450E+02 0.  0.
          5    1    3    3  502    0 -0.58017542041E+02 -0.48603096247E+01 -0.17205688014E+03  0.18170117721E+03  0.47000000000E+01 0. -1.
         -5    1    4    4    0  503  0.35813089846E+02  0.26236353446E+02 -0.96069971195E+02  0.10593607984E+03  0.47000000000E+01 0.  1.
          5    1    4    4  503    0  0.96940186675E+01 -0.60757558363E+02 -0.11132678305E+03  0.12728392483E+03  0.47000000000E+01 0. -1.
         -5    1    3    3    0  502  0.12510433527E+02  0.39381514542E+02 -0.12258432316E+03  0.12944659485E+03  0.47000000000E+01 0.  1.
<mgrwt>
<rscale>  0 0.10496010E+03</rscale>
<asrwt>0</asrwt>
<pdfrwt beam="1">  1        1 0.32561400E-02 0.10666844E+03</pdfrwt>
<pdfrwt beam="2">  1       -1 0.80492747E-01 0.10666844E+03</pdfrwt>
<totfact> 0.45924378E+03</totfact>
</mgrwt>
</event>
<event>
 8    1  0.3400573E-004  0.1003805E+03  0.7546771E-02  0.1280524E+00
         -1   -1    0    0    0  501 -0.00000000000E+00  0.00000000000E+00  0.42757367433E+03  0.42757367433E+03  0.00000000000E+00 0.  1.
          1   -1    0    0  501    0  0.00000000000E+00 -0.00000000000E+00 -0.72329047581E+02  0.72329047581E+02  0.00000000000E+00 0. -1.
         23    2    1    2    0    0 -0.39710764900E+02 -0.21560377522E+02  0.38324865148E+03  0.39568913560E+03  0.87456094378E+02 0.  0.
         23    2    1    2    0    0  0.39710764900E+02  0.21560377522E+02 -0.28004024735E+02  0.10421358631E+03  0.89635101615E+02 0.  0.
          5    1    4    4  502    0 -0.92208458633E+00  0.43904394295E+02 -0.35931953297E+02  0.56935413813E+02  0.47000000000E+01 0. -1.
         -5    1    3    3    0  503 -0.98516736906E+01 -0.51565556900E+02  0.16137630862E+03  0.16976591270E+03  0.47000000000E+01 0.  1.
          5    1    3    3  503    0 -0.29859091210E+02  0.30005179378E+02  0.22187234286E+03  0.22592322290E+03  0.47000000000E+01 0. -1.
         -5    1    4    4    0  502  0.40632849487E+02 -0.22344016773E+02  0.79279285619E+01  0.47278172493E+02  0.47000000000E+01 0.  1.
<mgrwt>
<rscale>  0 0.99891732E+02</rscale>
<asrwt>0</asrwt>
<pdfrwt beam="1">  1        1 0.11127546E-01 0.10038051E+03</pdfrwt>
<pdfrwt beam="2">  1       -1 0.65780564E-01 0.10038051E+03</pdfrwt>
<totfact> 0.13081018E+03</totfact>
</mgrwt>
</event>
<event>
 8    1  0.3400573E-004  0.1096857E+03  0.7546771E-02  0.1261504E+00
          1   -1    0    0  501    0  0.00000000000E+00  0.00000000000E+00  0.71704213700E+03  0.71704213700E+03  0.00000000000E+00 0. -1.
         -1   -1    0    0    0  501 -0.00000000000E+00 -0.00000000000E+00 -0.20262285908E+02  0.20262285908E+02  0.00000000000E+00 0.  1.
         23    2    1    2    0    0  0.58247046419E+02  0.18731214017E+02  0.50276292670E+03  0.51442887164E+03  0.90127280659E+02 0.  0.
         23    2    1    2    0    0 -0.58247046419E+02 -0.18731214017E+02  0.19401692440E+03  0.22287555127E+03  0.91034980129E+02 0.  0.
          5    1    3    3  502    0  0.71274505513E+02 -0.14540682867E+02  0.33642045493E+03  0.34422710395E+03  0.47000000000E+01 0. -1.
         -5    1    4    4    0  503 -0.66931541944E+02 -0.45556456258E+02  0.14346213398E+03  0.16479895600E+03  0.47000000000E+01 0.  1.
          5    1    4    4  503    0  0.86844955249E+01  0.26825242241E+02  0.50554790417E+02  0.58076595268E+02  0.47000000000E+01 0. -1.
         -5    1    3    3    0  502 -0.13027459094E+02  0.33271896884E+02  0.16634247176E+03  0.17020176769E+03  0.47000000000E+01 0.  1.
<mgrwt>
<rscale>  0 0.10949713E+03</rscale>
<asrwt>0</asrwt>
<pdfrwt beam="1">  1        1 0.11031416E+00 0.10968566E+03</pdfrwt>
<pdfrwt beam="2">  1       -1 0.31172753E-02 0.10968566E+03</pdfrwt>
<totfact> 0.91752484E+03</totfact>
</mgrwt>
</event>
<event>
 8    1  0.3400573E-004  0.1009895E+03  0.7546771E-02  0.1279942E+00
         -1   -1    0    0    0  501 -0.00000000000E+00  0.00000000000E+00  0.44321162608E+03  0.44321162608E+03  0.00000000000E+00 0.  1.
          1   -1    0    0  501    0  0.00000000000E+00 -0.00000000000E+00 -0.22754755596E+02  0.22754755596E+02  0.00000000000E+00 0. -1.
         23    2    1    2    0    0 -0.31521781923E+02 -0.55166202771E+01  0.17315317074E+03  0.19883720034E+03  0.92358842928E+02 0.  0.
         23    2    1    2    0    0  0.31521781923E+02  0.55166202771E+01  0.24730369975E+03  0.26712918134E+03  0.95785300432E+02 0.  0.
          5    1    3    3  502    0  0.28661565446E+02 -0.17938688401E+02  0.43627206376E+02  0.55395893454E+02  0.47000000000E+01 0. -1.
         -5    1    4    4    0  503  0.52818297999E+01 -0.41467175152E+02  0.68897986441E+02  0.80724512243E+02  0.47000000000E+01 0.  1.
          5    1    4    4  503    0  0.26239952123E+02  0.46983795429E+02  0.17840571331E+03  0.18640466909E+03  0.47000000000E+01 0. -1.
         -5    1    3    3    0  502 -0.60183347369E+02  0.12422068124E+02  0.12952596436E+03  0.14344130689E+03  0.47000000000E+01 0.  1.
<mgrwt>
<rscale>  0 0.10016858E+03</rscale>
<asrwt>0</asrwt>
<pdfrwt beam="1">  1        1 0.35007319E-02 0.10098950E+03</pdfrwt>
<pdfrwt beam="2">  1       -1 0.68186398E-01 0.10098950E+03</pdfrwt>
<totfact> 0.57597641E+03</totfact>
</mgrwt>
</event>
<event>
 7    1  0.3400573E-004  0.2426238E+03  0.7546771E-02  0.1124700E+00
          1   -1    0    0  501    0  0.00000000000E+00  0.00000000000E+00  0.58583300878E+03  0.58583300878E+03  0.00000000000E+00 0. -1.
         -1   -1    0    0    0  501 -0.00000000000E+00 -0.00000000000E+00 -0.11489789201E+04  0.11489789201E+04  0.00000000000E+00 0.  1.
         23    2    1    2    0    0  0.18467200268E+03 -0.37344619740E-01 -0.11140443202E+04  0.11328523064E+04  0.90309749012E+02 0.  0.
          5    1    1    2  502    0 -0.20394282581E+03 -0.16881187019E+02  0.53122843733E+03  0.56930079334E+03  0.47000000000E+01 0. -1.
         -5    1    3    3    0  503  0.18052808868E+03 -0.20857536387E+02 -0.10363324795E+04  0.10521561318E+04  0.47000000000E+01 0.  1.
          5    1    3    3  503    0  0.41439139931E+01  0.20820191767E+02 -0.77711840687E+02  0.80696174577E+02  0.47000000000E+01 0. -1.
         -5    1    1    2    0  502  0.19270823129E+02  0.16918531639E+02  0.19669971585E+02  0.32658829113E+02  0.47000000000E+01 0.  1.
<mgrwt>
<rscale>  0 0.23277738E+03</rscale>
<asrwt>0</asrwt>
<pdfrwt beam="1">  1        1 0.90128156E-01 0.24262384E+03</pdfrwt>
<pdfrwt beam="2">  1       -1 0.17676599E+00 0.24262384E+03</pdfrwt>
<totfact> 0.90155116E+00</totfact>
</mgrwt>
</event>
<event>
 8    1  0.3400573E-004  0.1105235E+03  0.7546771E-02  0.1261455E+00
         -1   -1    0    0    0  501 -0.00000000000E+00  0.00000000000E+00  0.24933552346E+03  0.24933552346E+03  0.00000000000E+00 0.  1.
          1   -1    0    0  501    0  0.00000000000E+00 -0.00000000000E+00 -0.14404897257E+03  0.14404897257E+03  0.00000000000E+00 0. -1.
         23    2    1    2    0    0 -0.29104604479E+02 -0.46167088538E+02  0.21355166287E+03  0.23866937814E+03  0.91543876273E+02 0.  0.
         23    2    1    2    0    0  0.29104604479E+02  0.46167088538E+02 -0.10826511198E+03  0.15471511788E+03  0.96109079511E+02 0.  0.
          5    1    4    4  502    0  0.57357365642E+02  0.24769390574E+02 -0.31705022533E+02  0.70218861830E+02  0.47000000000E+01 0. -1.
         -5    1    3    3    0  503  0.93544817941E+01 -0.61350641230E+02  0.10059867495E+03  0.11829450921E+03  0.47000000000E+01 0.  1.
          5    1    3    3  503    0 -0.38459086273E+02  0.15183552692E+02  0.11295298792E+03  0.12037486893E+03  0.47000000000E+01 0. -1.
         -5    1    4    4    0  502 -0.28252761163E+02  0.21397697963E+02 -0.76560089444E+02  0.84496256054E+02  0.47000000000E+01 0.  1.
<mgrwt>
<rscale>  0 0.10952347E+03</rscale>
<asrwt>0</asrwt>
<pdfrwt beam="1">  1        1 0.22161380E-01 0.11052345E+03</pdfrwt>
<pdfrwt beam="2">  1       -1 0.38359311E-01 0.11052345E+03</pdfrwt>
<totfact> 0.14496745E+03</totfact>
</mgrwt>
</event>
<event>
 8    1  0.3400573E-004  0.9665962E+02  0.7546771E-02  0.1288097E+00
          2   -1    0    0  501    0  0.00000000000E+00  0.00000000000E+00  0.89251763398E+03  0.89251763398E+03  0.00000000000E+00 0. -1.
         -2   -1    0    0    0  501 -0.00000000000E+00 -0.00000000000E+00 -0.10350916264E+02  0.10350916264E+02  0.00000000000E+00 0.  1.
         23    2    1    2    0    0  0.28611968112E+02  0.42518978777E+01  0.43612755069E+03  0.44671055892E+03  0.92229928055E+02 0.  0.
         23    2    1    2    0    0 -0.28611968112E+02 -0.42518978777E+01  0.44603916703E+03  0.45615799133E+03  0.91062896772E+02 0.  0.
          5    1    4    4  502    0 -0.55523083539E+02 -0.24338069915E+02  0.31410211710E+03  0.31993340623E+03  0.47000000000E+01 0. -1.
         -5    1    4    4    0  502  0.26911115427E+02  0.20086172037E+02  0.13193704993E+03  0.13622458510E+03  0.47000000000E+01 0.  1.
          5    1    3    3  503    0  0.50793505577E+02 -0.27006083711E+02  0.27897166932E+03  0.28487995901E+03  0.47000000000E+01 0. -1.
         -5    1    3    3    0  503 -0.22181537466E+02  0.31257981589E+02  0.15715588137E+03  0.16183059991E+03  0.47000000000E+01 0.  1.
<mgrwt>
<rscale>  0 0.96380187E+02</rscale>
<asrwt>0</asrwt>
<pdfrwt beam="1">  1        2 0.13731034E+00 0.96659624E+02</pdfrwt>
<pdfrwt beam="2">  1       -2 0.15924494E-02 0.96659624E+02</pdfrwt>
<totfact> 0.30392240E+04</totfact>
</mgrwt>
</event>
<event>
 8    1  0.3400573E-004  0.9421064E+02  0.7546771E-02  0.1293439E+00
          2   -1    0    0  501    0  0.00000000000E+00  0.00000000000E+00  0.64130738546E+02  0.64130738546E+02  0.00000000000E+00 0. -1.
         -2   -1    0    0    0  501 -0.00000000000E+00 -0.00000000000E+00 -0.33360364350E+03  0.33360364350E+03  0.00000000000E+00 0.  1.
         23    2    1    2    0    0 -0.55351254758E+01 -0.21234787634E+02 -0.28708652393E+03  0.30189136325E+03  0.90764360648E+02 0.  0.
         23    2    1    2    0    0  0.55351254758E+01  0.21234787634E+02  0.17613618979E+02  0.95843018791E+02  0.91619271213E+02 0.  0.
          5    1    4    4  502    0 -0.24538701304E+02  0.47321075257E+02  0.46597771433E+01  0.53714388651E+02  0.47000000000E+01 0. -1.
         -5    1    4    4    0  502  0.30073826780E+02 -0.26086287623E+02  0.12953841836E+02  0.42128630140E+02  0.47000000000E+01 0.  1.
          5    1    3    3  503    0  0.26981489518E+02  0.84558462221E+01 -0.31878391682E+02  0.42869849174E+02  0.47000000000E+01 0. -1.
         -5    1    3    3    0  503 -0.32516614994E+02 -0.29690633856E+02 -0.25520813225E+03  0.25902151408E+03  0.47000000000E+01 0.  1.
<mgrwt>
<rscale>  0 0.94002153E+02</rscale>
<asrwt>0</asrwt>
<pdfrwt beam="1">  1        2 0.98662674E-02 0.94210640E+02</pdfrwt>
<pdfrwt beam="2">  1       -2 0.51323638E-01 0.94210640E+02</pdfrwt>
<totfact> 0.22405140E+03</totfact>
</mgrwt>
</event>
<event>
 8    1  0.3400573E-004  0.9340873E+02  0.7546771E-02  0.1295454E+00
          2   -1    0    0  501    0  0.00000000000E+00  0.00000000000E+00  0.31956298318E+03  0.31956298318E+03  0.00000000000E+00 0. -1.
         -2   -1    0    0    0  501 -0.00000000000E+00 -0.00000000000E+00 -0.27260165036E+02  0.27260165036E+02  0.00000000000E+00 0.  1.
         23    2    1    2    0    0  0.10265651657E+02 -0.70994726595E+01  0.16476762321E+03  0.18940316891E+03  0.92571078744E+02 0.  0.
         23    2    1    2    0    0 -0.10265651657E+02  0.70994726595E+01  0.12753519494E+03  0.15741997931E+03  0.91433242431E+02 0.  0.
          5    1    4    4  502    0 -0.21651466244E+02 -0.11348020138E+02  0.13239258289E+03  0.13471246994E+03  0.47000000000E+01 0. -1.
         -5    1    3    3    0  503  0.47377565568E+02  0.57346255472E+00  0.52775932257E+02  0.71079895921E+02  0.47000000000E+01 0.  1.
          5    1    3    3  503    0 -0.37111913912E+02 -0.76729352142E+01  0.11199169095E+03  0.11832327299E+03  0.47000000000E+01 0. -1.
         -5    1    4    4    0  502  0.11385814587E+02  0.18447492798E+02 -0.48573879496E+01  0.22707509375E+02  0.47000000000E+01 0.  1.
<mgrwt>
<rscale>  0 0.93125568E+02</rscale>
<asrwt>0</asrwt>
<pdfrwt beam="1">  1        2 0.49163533E-01 0.93408729E+02</pdfrwt>
<pdfrwt beam="2">  1       -2 0.41938718E-02 0.93408729E+02</pdfrwt>
<totfact> 0.23427439E+04</totfact>
</mgrwt>
</event>
<event>
 8    1  0.3400573E-004  0.1079025E+03  0.7546771E-02  0.1265922E+00
         -2   -1    0    0    0  501 -0.00000000000E+00  0.00000000000E+00  0.22286665397E+03  0.22286665397E+03  0.00000000000E+00 0.  1.
          2   -1    0    0  501    0  0.00000000000E+00 -0.00000000000E+00 -0.51082738206E+02  0.51082738206E+02  0.00000000000E+00 0. -1.
         23    2    1    2    0    0  0.27109569973E+02  0.50592931908E+02  0.94380559022E+02  0.14115548666E+03  0.87878370204E+02 0.  0.
         23    2    1    2    0    0 -0.27109569973E+02 -0.50592931908E+02  0.77403356743E+02  0.13279390552E+03  0.91369404969E+02 0.  0.
          5    1    4    4  502    0  0.97321146935E+01  0.21701786912E+02  0.69202324667E+01  0.25212322958E+02  0.47000000000E+01 0. -1.
         -5    1    3    3    0  503 -0.22927776410E+02  0.18760695760E+02  0.48416841611E+00  0.29999517589E+02  0.47000000000E+01 0.  1.
          5    1    3    3  503    0  0.50037346383E+02  0.31832236148E+02  0.93896390606E+02  0.11115596907E+03  0.47000000000E+01 0. -1.
         -5    1    4    4    0  502 -0.36841684666E+02 -0.72294718819E+02  0.70483124276E+02  0.10758158256E+03  0.47000000000E+01 0.  1.
<mgrwt>
<rscale>  0 0.10715991E+03</rscale>
<asrwt>0</asrwt>
<pdfrwt beam="1">  1        2 0.78588829E-02 0.10790246E+03</pdfrwt>
<pdfrwt beam="2">  1       -2 0.34287177E-01 0.10790246E+03</pdfrwt>
<totfact> 0.64447363E+03</totfact>
</mgrwt>
</event>
<event>
 8    1  0.3400573E-004  0.1578919E+03  0.7546771E-02  0.1192142E+00
         -2   -1    0    0    0  501 -0.00000000000E+00  0.00000000000E+00  0.16498605252E+02  0.16498605252E+02  0.00000000000E+00 0.  1.
          2   -1    0    0  501    0  0.00000000000E+00 -0.00000000000E+00 -0.14782352872E+04  0.14782352872E+04  0.00000000000E+00 0. -1.
         23    2    1    2    0    0 -0.12716127342E+03  0.23248028217E+02 -0.71650264256E+03  0.73369331897E+03  0.90660847313E+02 0.  0.
         23    2    1    2    0    0  0.12716127342E+03 -0.23248028217E+02 -0.74523403942E+03  0.76104057351E+03  0.84252719535E+02 0.  0.
          5    1    3    3  502    0 -0.83317761424E+02  0.12351678751E+02 -0.63335476828E+03  0.63894817148E+03  0.47000000000E+01 0. -1.
         -5    1    3    3    0  502 -0.43843511994E+02  0.10896349465E+02 -0.83147874275E+02  0.94745147486E+02  0.47000000000E+01 0.  1.
          5    1    4    4  503    0  0.10706306052E+03  0.16208021368E+02 -0.47907591590E+03  0.49118328766E+03  0.47000000000E+01 0. -1.
         -5    1    4    4    0  503  0.20098212902E+02 -0.39456049584E+02 -0.26615812352E+03  0.26985728585E+03  0.47000000000E+01 0.  1.
<mgrwt>
<rscale>  0 0.15698656E+03</rscale>
<asrwt>0</asrwt>
<pdfrwt beam="1">  1        2 0.22742076E+00 0.15789189E+03</pdfrwt>
<pdfrwt beam="2">  1       -2 0.25382476E-02 0.15789189E+03</pdfrwt>
<totfact> 0.74958138E+03</totfact>
</mgrwt>
</event>
<event>
 8    1  0.3400573E-004  0.1080738E+03  0.7546771E-02  0.1264256E+00
          1   -1    0    0  501    0  0.00000000000E+00  0.00000000000E+00  0.33393895848E+03  0.33393895848E+03  0.00000000000E+00 0. -1.
         -1   -1    0    0    0  501 -0.00000000000E+00 -0.00000000000E+00 -0.38455246702E+02  0.38455246702E+02  0.00000000000E+00 0.  1.
         23    2    1    2    0    0  0.58019990401E+02  0.34970672897E+01  0.20426829678E+03  0.23109624738E+03  0.91111962537E+02 0.  0.
         23    2    1    2    0    0 -0.58019990401E+02 -0.34970672897E+01  0.91215414998E+02  0.14129795780E+03  0.90919261877E+02 0.  0.
          5    1    3    3  502    0 -0.16501741243E+02 -0.16538100478E+02  0.90216619469E+02  0.93311010390E+02  0.47000000000E+01 0. -1.
         -5    1    4    4    0  503  0.19935056024E+02  0.14331437176E+02  0.91566504977E+01  0.26621998395E+02  0.47000000000E+01 0.  1.
          5    1    4    4  503    0 -0.77955046426E+02 -0.17828504465E+02  0.82058764500E+02  0.11467595941E+03  0.47000000000E+01 0. -1.
         -5    1    3    3    0  502  0.74521731644E+02  0.20035167768E+02  0.11405167731E+03  0.13778523699E+03  0.47000000000E+01 0.  1.
<mgrwt>
<rscale>  0 0.10803314E+03</rscale>
<asrwt>0</asrwt>
<pdfrwt beam="1">  1        1 0.51375222E-01 0.10807376E+03</pdfrwt>
<pdfrwt beam="2">  1       -1 0.59161920E-02 0.10807376E+03</pdfrwt>
<totfact> 0.97096568E+03</totfact>
</mgrwt>
</event>
<event>
 8    1  0.3400573E-004  0.9774120E+02  0.7546771E-02  0.1285811E+00
          2   -1    0    0  501    0  0.00000000000E+00  0.00000000000E+00  0.41314593499E+03  0.41314593499E+03  0.00000000000E+00 0.  1.
         -2   -1    0    0    0  501 -0.00000000000E+00 -0.00000000000E+00 -0.33155617660E+02  0.33155617660E+02  0.00000000000E+00 0. -1.
         23    2    1    2    0    0 -0.30063743490E+02  0.65376738758E+01  0.31370405847E+03  0.32820324238E+03  0.91436109696E+02 0.  0.
         23    2    1    2    0    0  0.30063743490E+02 -0.65376738758E+01  0.66286258857E+02  0.11809831027E+03  0.92772694918E+02 0.  0.
          5    1    3    3  502    0  0.45068842193E+01  0.37338781627E+02  0.65518652809E+02  0.75692010705E+02  0.47000000000E+01 0. -1.
         -5    1    3    3    0  502 -0.34570627709E+02 -0.30801107751E+02  0.24818540566E+03  0.25251123168E+03  0.47000000000E+01 0.  1.
          5    1    4    4  503    0  0.61689519804E+02  0.82391491186E+01  0.44970339828E+02  0.76927900635E+02  0.47000000000E+01 0. -1.
         -5    1    4    4    0  503 -0.31625776314E+02 -0.14776822994E+02  0.21315919029E+02  0.41170409632E+02  0.47000000000E+01 0.  1.
<mgrwt>
<rscale>  0 0.97422719E+02</rscale>
<asrwt>0</asrwt>
<pdfrwt beam="1">  1        2 0.63560909E-01 0.97741203E+02</pdfrwt>
<pdfrwt beam="2">  1       -2 0.51008646E-02 0.97741203E+02</pdfrwt>
<totfact> 0.13440074E+04</totfact>
</mgrwt>
</event>
<event>
 8    1  0.3400573E-004  0.9395740E+02  0.7546771E-02  0.1293582E+00
         -3   -1    0    0    0  501 -0.00000000000E+00  0.00000000000E+00  0.37786500699E+03  0.37786500699E+03  0.00000000000E+00 0.  1.
          3   -1    0    0  501    0  0.00000000000E+00 -0.00000000000E+00 -0.32119887672E+02  0.32119887672E+02  0.00000000000E+00 0. -1.
         23    2    1    2    0    0 -0.14666845781E+02 -0.31703198226E+01  0.28006274431E+03  0.29540333972E+03  0.92751415470E+02 0.  0.
         23    2    1    2    0    0  0.14666845781E+02  0.31703198226E+01  0.65682375001E+02  0.11458155494E+03  0.92680046685E+02 0.  0.
          5    1    3    3  502    0  0.22954817169E+02 -0.55271169503E+01  0.16662628556E+02  0.29278077865E+02  0.47000000000E+01 0. -1.
         -5    1    4    4    0  503 -0.64597943436E+01  0.38875433323E+02  0.37160188983E+01  0.39861347888E+02  0.47000000000E+01 0.  1.
          5    1    4    4  503    0  0.21126640125E+02 -0.35705113501E+02  0.61966356103E+02  0.74720207051E+02  0.47000000000E+01 0. -1.
         -5    1    3    3    0  502 -0.37621662951E+02  0.23567971277E+01  0.26340011576E+03  0.26612526185E+03  0.47000000000E+01 0.  1.
<mgrwt>
<rscale>  0 0.93939779E+02</rscale>
<asrwt>0</asrwt>
<pdfrwt beam="1">  1        3 0.49415215E-02 0.93957397E+02</pdfrwt>
<pdfrwt beam="2">  1       -3 0.58133075E-01 0.93957397E+02</pdfrwt>
<totfact> 0.14682509E+03</totfact>
</mgrwt>
</event>
<event>
 8    1  0.4830217E-004  0.1030386E+03  0.7546771E-02  0.1274681E+00
         -1   -1    0    0    0  501 -0.00000000000E+00  0.00000000000E+00  0.28684383683E+02  0.28684383683E+02  0.00000000000E+00 0.  1.
          1   -1    0    0  501    0  0.00000000000E+00 -0.00000000000E+00 -0.81971495991E+03  0.81971495991E+03  0.00000000000E+00 0. -1.
         23    2    1    2    0    0 -0.81200365494E+01  0.42308034537E+02 -0.71235782728E+03  0.71977123951E+03  0.93600525372E+02 0.  0.
         23    2    1    2    0    0  0.81200365494E+01 -0.42308034537E+02 -0.78672748946E+02  0.12862810409E+03  0.92194809803E+02 0.  0.
          5    1    3    3  502    0  0.61154390847E+01  0.69127547889E+02 -0.56341683278E+03  0.56769413766E+03  0.47000000000E+01 0. -1.
         -5    1    3    3    0  502 -0.14235475634E+02 -0.26819513352E+02 -0.14894099450E+03  0.15207710185E+03  0.47000000000E+01 0.  1.
          5    1    4    4  503    0  0.16377444605E+02  0.22883344829E+02 -0.36136561052E+01  0.28757897572E+02  0.47000000000E+01 0. -1.
         -5    1    4    4    0  503 -0.82574080559E+01 -0.65191379366E+02 -0.75059092840E+02  0.99870206515E+02  0.47000000000E+01 0.  1.
<mgrwt>
<rscale>  0 0.10271834E+03</rscale>
<asrwt>0</asrwt>
<pdfrwt beam="1">  1        1 0.12610999E+00 0.10303865E+03</pdfrwt>
<pdfrwt beam="2">  1       -1 0.44129822E-02 0.10303865E+03</pdfrwt>
<totfact> 0.45301496E+03</totfact>
</mgrwt>
</event>
<event>
 8    1  0.3400573E-004  0.9715945E+02  0.7546771E-02  0.1286641E+00
          1   -1    0    0  501    0  0.00000000000E+00  0.00000000000E+00  0.39888440020E+03  0.39888440020E+03  0.00000000000E+00 0. -1.
         -1   -1    0    0    0  501 -0.00000000000E+00 -0.00000000000E+00 -0.66293286132E+02  0.66293286132E+02  0.00000000000E+00 0.  1.
         23    2    1    2    0    0  0.13325966352E+02  0.30833001954E+02 -0.20318575457E+02  0.99261286329E+02  0.91168542088E+02 0.  0.
         23    2    1    2    0    0 -0.13325966352E+02 -0.30833001954E+02  0.35290968952E+03  0.36591640000E+03  0.90671425718E+02 0.  0.
          5    1    4    4  502    0 -0.57083954086E+01 -0.61560249641E+02  0.27038872979E+03  0.27740657042E+03  0.47000000000E+01 0. -1.
         -5    1    4    4    0  502 -0.76175709437E+01  0.30727247686E+02  0.82520959734E+02  0.88509829583E+02  0.47000000000E+01 0.  1.
          5    1    3    3  503    0 -0.95506719752E+01 -0.17961917947E+02  0.22185076815E+02  0.30464954699E+02  0.47000000000E+01 0. -1.
         -5    1    3    3    0  503  0.22876638327E+02  0.48794919901E+02 -0.42503652272E+02  0.68796331630E+02  0.47000000000E+01 0.  1.
<mgrwt>
<rscale>  0 0.97042660E+02</rscale>
<asrwt>0</asrwt>
<pdfrwt beam="1">  1        1 0.61366829E-01 0.97159449E+02</pdfrwt>
<pdfrwt beam="2">  1       -1 0.10198967E-01 0.97159449E+02</pdfrwt>
<totfact> 0.34253535E+03</totfact>
</mgrwt>
</event>
<event>
 7    1  0.3400573E-004  0.1755229E+03  0.7546771E-02  0.1198779E+00
          1   -1    0    0  501    0  0.00000000000E+00  0.00000000000E+00  0.51911800357E+03  0.51911800357E+03  0.00000000000E+00 0. -1.
         -1   -1    0    0    0  501 -0.00000000000E+00 -0.00000000000E+00 -0.10154653897E+03  0.10154653897E+03  0.00000000000E+00 0.  1.
         23    2    1    2    0    0 -0.58085928388E+01 -0.69830666534E+01  0.43366153495E+03  0.44440569396E+03  0.96703624295E+02 0.  0.
          5    1    3    3  502    0  0.97997031300E+01 -0.47036280209E+02  0.30174268321E+03  0.30558007577E+03  0.47000000000E+01 0. -1.
         -5    1    3    3    0  502 -0.15608295969E+02  0.40053213556E+02  0.13191885174E+03  0.13882561818E+03  0.47000000000E+01 0.  1.
          5    1    1    2  503    0  0.59374088381E+02 -0.57264565540E+02  0.20042127479E+02  0.85019349042E+02  0.47000000000E+01 0. -1.
         -5    1    1    2    0  503 -0.53565495542E+02  0.64247632194E+02 -0.36132197833E+02  0.91239499535E+02  0.47000000000E+01 0.  1.
<mgrwt>
<rscale>  0 0.15138675E+03</rscale>
<asrwt>0</asrwt>
<pdfrwt beam="1">  1        1 0.79864307E-01 0.17552291E+03</pdfrwt>
<pdfrwt beam="2">  1       -1 0.15622545E-01 0.17552291E+03</pdfrwt>
<totfact> 0.12873951E+03</totfact>
</mgrwt>
</event>
<event>
 8    1  0.3400573E-004  0.9402300E+02  0.7546771E-02  0.1293481E+00
          1   -1    0    0  501    0  0.00000000000E+00  0.00000000000E+00  0.33401920881E+02  0.33401920881E+02  0.00000000000E+00 0. -1.
         -1   -1    0    0    0  501 -0.00000000000E+00 -0.00000000000E+00 -0.44397208718E+03  0.44397208718E+03  0.00000000000E+00 0.  1.
         23    2    1    2    0    0 -0.21116729349E+02  0.18798540852E+02 -0.35725802397E+03  0.36942336159E+03  0.89671751393E+02 0.  0.
         23    2    1    2    0    0  0.21116729349E+02 -0.18798540852E+02 -0.53312142322E+02  0.10795064647E+03  0.89508972496E+02 0.  0.
          5    1    4    4  502    0 -0.17789825867E+02 -0.43443199301E+02 -0.21965295604E+02  0.52041845479E+02  0.47000000000E+01 0. -1.
         -5    1    4    4    0  502  0.38906555216E+02  0.24644658449E+02 -0.31346846718E+02  0.55908800989E+02  0.47000000000E+01 0.  1.
          5    1    3    3  503    0 -0.54510484537E+02  0.22996004144E+02 -0.24798895098E+03  0.25499180171E+03  0.47000000000E+01 0. -1.
         -5    1    3    3    0  503  0.33393755188E+02 -0.41974632920E+01 -0.10926907300E+03  0.11443155988E+03  0.47000000000E+01 0.  1.
<mgrwt>
<rscale>  0 0.93984167E+02</rscale>
<asrwt>0</asrwt>
<pdfrwt beam="1">  1        1 0.51387571E-02 0.94022999E+02</pdfrwt>
<pdfrwt beam="2">  1       -1 0.68303397E-01 0.94022999E+02</pdfrwt>
<totfact> 0.33873827E+03</totfact>
</mgrwt>
</event>
<event>
 8    1  0.3400573E-004  0.9563350E+02  0.7546771E-02  0.1290721E+00
         -1   -1    0    0    0  501 -0.00000000000E+00  0.00000000000E+00  0.16298546726E+02  0.16298546726E+02  0.00000000000E+00 0.  1.
          1   -1    0    0  501    0  0.00000000000E+00 -0.00000000000E+00 -0.55153668238E+03  0.55153668238E+03  0.00000000000E+00 0. -1.
         23    2    1    2    0    0 -0.12947940101E+02  0.22597317285E+02 -0.26236089058E+03  0.27924720884E+03  0.92018904780E+02 0.  0.
         23    2    1    2    0    0  0.12947940101E+02 -0.22597317285E+02 -0.27287724508E+03  0.28858802027E+03  0.90237279776E+02 0.  0.
          5    1    4    4  502    0  0.48540420088E+02  0.35962752062E+01 -0.15886118814E+03  0.16621694461E+03  0.47000000000E+01 0. -1.
         -5    1    4    4    0  502 -0.35592479987E+02 -0.26193592491E+02 -0.11401605694E+03  0.12237107567E+03  0.47000000000E+01 0.  1.
          5    1    3    3  503    0  0.36886479172E+02 -0.35315982357E+01 -0.78922889751E+02  0.87315502968E+02  0.47000000000E+01 0. -1.
         -5    1    3    3    0  503 -0.49834419272E+02  0.26128915521E+02 -0.18343800083E+03  0.19193170587E+03  0.47000000000E+01 0.  1.
<mgrwt>
<rscale>  0 0.95202337E+02</rscale>
<asrwt>0</asrwt>
<pdfrwt beam="1">  1        1 0.84851779E-01 0.95633502E+02</pdfrwt>
<pdfrwt beam="2">  1       -1 0.25074693E-02 0.95633502E+02</pdfrwt>
<totfact> 0.17781560E+04</totfact>
</mgrwt>
</event>
<event>
 8    1  0.3400573E-004  0.1268728E+03  0.7546771E-02  0.1232196E+00
          1   -1    0    0  501    0  0.00000000000E+00  0.00000000000E+00  0.16287702681E+03  0.16287702681E+03  0.00000000000E+00 0. -1.
         -1   -1    0    0    0  501 -0.00000000000E+00 -0.00000000000E+00 -0.10410341990E+03  0.10410341990E+03  0.00000000000E+00 0.  1.
         23    2    1    2    0    0  0.83498112003E+02  0.32977848988E+02  0.59589569897E+02  0.14016994974E+03  0.89650570205E+02 0.  0.
         23    2    1    2    0    0 -0.83498112003E+02 -0.32977848988E+02 -0.81596299041E+00  0.12681049698E+03  0.89558713232E+02 0.  0.
          5    1    3    3  502    0  0.71532324169E+01  0.47798108838E+02  0.28349600462E+02  0.56228265035E+02  0.47000000000E+01 0. -1.
         -5    1    3    3    0  502  0.76344879586E+02 -0.14820259850E+02  0.31239969435E+02  0.83941684706E+02  0.47000000000E+01 0.  1.
          5    1    4    4  503    0 -0.20199708945E+02  0.27318839540E+02  0.15695958693E+02  0.37720025909E+02  0.47000000000E+01 0. -1.
         -5    1    4    4    0  503 -0.63298403058E+02 -0.60296688528E+02 -0.16511921684E+02  0.89090471066E+02  0.47000000000E+01 0.  1.
<mgrwt>
<rscale>  0 0.12685654E+03</rscale>
<asrwt>0</asrwt>
<pdfrwt beam="1">  1        1 0.25058004E-01 0.12687276E+03</pdfrwt>
<pdfrwt beam="2">  1       -1 0.16015911E-01 0.12687276E+03</pdfrwt>
<totfact> 0.52447366E+03</totfact>
</mgrwt>
</event>
<event>
 8    1  0.3826899E-004  0.9562074E+02  0.7546771E-02  0.1295691E+00
         -1   -1    0    0    0  501 -0.00000000000E+00  0.00000000000E+00  0.12624167014E+03  0.12624167014E+03  0.00000000000E+00 0.  1.
          1   -1    0    0  501    0  0.00000000000E+00 -0.00000000000E+00 -0.82583603623E+02  0.82583603623E+02  0.00000000000E+00 0. -1.
         23    2    1    2    0    0 -0.14284728164E+02  0.31472583440E+02 -0.27143891000E+02  0.89845264390E+02  0.78363280607E+02 0.  0.
         23    2    1    2    0    0  0.14284728164E+02 -0.31472583440E+02  0.70801957514E+02  0.11898000937E+03  0.89155754020E+02 0.  0.
          5    1    3    3  502    0  0.24549313896E+02 -0.80155354705E+01 -0.21586382830E+02  0.33984990000E+02  0.47000000000E+01 0. -1.
         -5    1    4    4    0  503 -0.34826032964E+02 -0.15485240778E+02  0.50135469891E+02  0.63152993557E+02  0.47000000000E+01 0.  1.
          5    1    4    4  503    0  0.49110761128E+02 -0.15987342661E+02  0.20666487623E+02  0.55827015813E+02  0.47000000000E+01 0. -1.
         -5    1    3    3    0  502 -0.38834042060E+02  0.39488118910E+02 -0.55575081703E+01  0.55860274389E+02  0.47000000000E+01 0.  1.
<mgrwt>
<rscale>  0 0.93023334E+02</rscale>
<asrwt>0</asrwt>
<pdfrwt beam="1">  1        1 0.12705170E-01 0.95620738E+02</pdfrwt>
<pdfrwt beam="2">  1       -1 0.19421795E-01 0.95620738E+02</pdfrwt>
<totfact> 0.89826199E+03</totfact>
</mgrwt>
</event>
<event>
 8    1  0.3400573E-004  0.2272614E+03  0.7546771E-02  0.1128784E+00
          1   -1    0    0  501    0  0.00000000000E+00  0.00000000000E+00  0.20660271521E+03  0.20660271521E+03  0.00000000000E+00 0. -1.
         -1   -1    0    0    0  501 -0.00000000000E+00 -0.00000000000E+00 -0.37935620154E+03  0.37935620154E+03  0.00000000000E+00 0.  1.
         23    2    1    2    0    0 -0.14304304455E+03 -0.15097558530E+03  0.85673590389E+02  0.24181896791E+03  0.88777864368E+02 0.  0.
         23    2    1    2    0    0  0.14304304455E+03  0.15097558530E+03 -0.25842707672E+03  0.34413994884E+03  0.91612283356E+02 0.  0.
          5    1    4    4  502    0  0.44372116021E+02 -0.15272572631E+00 -0.33972153520E+02  0.56081237683E+02  0.47000000000E+01 0. -1.
         -5    1    4    4    0  502  0.98670928529E+02  0.15112831102E+03 -0.22445492320E+03  0.28805871116E+03  0.47000000000E+01 0.  1.
          5    1    3    3  503    0 -0.38887060609E+02 -0.84930134879E+02  0.71215930439E+02  0.11755479591E+03  0.47000000000E+01 0. -1.
         -5    1    3    3    0  503 -0.10415598394E+03 -0.66045450417E+02  0.14457659950E+02  0.12426417200E+03  0.47000000000E+01 0.  1.
<mgrwt>
<rscale>  0 0.22697896E+03</rscale>
<asrwt>0</asrwt>
<pdfrwt beam="1">  1        1 0.31785033E-01 0.22726141E+03</pdfrwt>
<pdfrwt beam="2">  1       -1 0.58362492E-01 0.22726141E+03</pdfrwt>
<totfact> 0.43396318E+02</totfact>
</mgrwt>
</event>
<event>
 8    1  0.3400573E-004  0.1136074E+03  0.7546771E-02  0.1254722E+00
          1   -1    0    0  501    0  0.00000000000E+00  0.00000000000E+00  0.35667459260E+03  0.35667459260E+03  0.00000000000E+00 0. -1.
         -1   -1    0    0    0  501 -0.00000000000E+00 -0.00000000000E+00 -0.35744955265E+02  0.35744955265E+02  0.00000000000E+00 0.  1.
         23    2    1    2    0    0  0.55251173504E+02 -0.34416905345E+02  0.16667001119E+03  0.20084010933E+03  0.91217549519E+02 0.  0.
         23    2    1    2    0    0 -0.55251173504E+02  0.34416905345E+02  0.15425962615E+03  0.19157943854E+03  0.93109792519E+02 0.  0.
          5    1    3    3  502    0 -0.20995195298E+02 -0.10516762510E+02  0.77020218331E+02  0.80657327944E+02  0.47000000000E+01 0. -1.
         -5    1    3    3    0  502  0.76246368802E+02 -0.23900142834E+02  0.89649792855E+02  0.12018278139E+03  0.47000000000E+01 0.  1.
          5    1    4    4  503    0 -0.32263162496E+02  0.12519919728E+02  0.15558647640E+03  0.15945815026E+03  0.47000000000E+01 0. -1.
         -5    1    4    4    0  503 -0.22988011008E+02  0.21896985617E+02 -0.13268502504E+01  0.32121288281E+02  0.47000000000E+01 0.  1.
<mgrwt>
<rscale>  0 0.11321905E+03</rscale>
<asrwt>0</asrwt>
<pdfrwt beam="1">  1        1 0.54873012E-01 0.11360743E+03</pdfrwt>
<pdfrwt beam="2">  1       -1 0.54992241E-02 0.11360743E+03</pdfrwt>
<totfact> 0.10010150E+04</totfact>
</mgrwt>
</event>
<event>
 8    1  0.3400573E-004  0.4196015E+03  0.7546771E-02  0.1037727E+00
          2   -1    0    0  501    0  0.00000000000E+00  0.00000000000E+00  0.51573844336E+03  0.51573844336E+03  0.00000000000E+00 0. -1.
         -2   -1    0    0    0  501 -0.00000000000E+00 -0.00000000000E+00 -0.36078096843E+03  0.36078096843E+03  0.00000000000E+00 0.  1.
         23    2    1    2    0    0  0.16896908070E+03 -0.36655655451E+03 -0.37597755532E+02  0.41484537193E+03  0.88140986506E+02 0.  0.
         23    2    1    2    0    0 -0.16896908070E+03  0.36655655451E+03  0.19255523046E+03  0.46167403986E+03  0.11467843919E+03 0.  0.
          5    1    4    4  502    0 -0.10069979796E+03  0.27438345228E+03  0.18644341940E+03  0.34671309008E+03  0.47000000000E+01 0. -1.
         -5    1    4    4    0  502 -0.68269282741E+02  0.92173102229E+02  0.61118110655E+01  0.11496094978E+03  0.47000000000E+01 0.  1.
          5    1    3    3  503    0  0.51307135636E+01 -0.50974348250E+02 -0.29161516803E+02  0.59137065056E+02  0.47000000000E+01 0. -1.
         -5    1    3    3    0  503  0.16383836714E+03 -0.31558220626E+03 -0.84362387296E+01  0.35570830687E+03  0.47000000000E+01 0.  1.
<mgrwt>
<rscale>  0 0.41797622E+03</rscale>
<asrwt>0</asrwt>
<pdfrwt beam="1">  1        2 0.79344376E-01 0.41960148E+03</pdfrwt>
<pdfrwt beam="2">  1       -2 0.55504764E-01 0.41960148E+03</pdfrwt>
<totfact> 0.18619942E+02</totfact>
</mgrwt>
</event>
<event>
 8    1  0.3400573E-004  0.1015884E+03  0.7546771E-02  0.1277277E+00
          1   -1    0    0  501    0  0.00000000000E+00  0.00000000000E+00  0.24788301952E+03  0.24788301952E+03  0.00000000000E+00 0. -1.
         -1   -1    0    0    0  501 -0.00000000000E+00 -0.00000000000E+00 -0.64397519716E+02  0.64397519716E+02  0.00000000000E+00 0.  1.
         23    2    1    2    0    0 -0.42540169651E+02  0.12820078574E+02  0.18519933272E+03  0.21123209020E+03  0.91357444370E+02 0.  0.
         23    2    1    2    0    0  0.42540169651E+02 -0.12820078574E+02 -0.17138329192E+01  0.10104844903E+03  0.90740461649E+02 0.  0.
          5    1    3    3  502    0 -0.19809054153E+02  0.49777984245E+02  0.71678102479E+02  0.89610751123E+02  0.47000000000E+01 0. -1.
         -5    1    3    3    0  502 -0.22731115498E+02 -0.36957905671E+02  0.11352123024E+03  0.12162133908E+03  0.47000000000E+01 0.  1.
          5    1    4    4  503    0 -0.21508521026E+01  0.33346834363E+02  0.10773377009E+02  0.35423059989E+02  0.47000000000E+01 0. -1.
         -5    1    4    4    0  503  0.44691021754E+02 -0.46166912937E+02 -0.12487209928E+02  0.65625389045E+02  0.47000000000E+01 0.  1.
<mgrwt>
<rscale>  0 0.10144949E+03</rscale>
<asrwt>0</asrwt>
<pdfrwt beam="1">  1        1 0.38135849E-01 0.10158840E+03</pdfrwt>
<pdfrwt beam="2">  1       -1 0.99073109E-02 0.10158840E+03</pdfrwt>
<totfact> 0.64422760E+03</totfact>
</mgrwt>
</event>
<event>
 8    1  0.3400573E-004  0.1075858E+03  0.7546771E-02  0.1266722E+00
         -1   -1    0    0    0  501 -0.00000000000E+00  0.00000000000E+00  0.83687751007E+02  0.83687751007E+02  0.00000000000E+00 0.  1.
          1   -1    0    0  501    0  0.00000000000E+00 -0.00000000000E+00 -0.13406622175E+03  0.13406622175E+03  0.00000000000E+00 0. -1.
         23    2    1    2    0    0 -0.53040405494E+02 -0.28843450153E+02 -0.25409250018E+02  0.10730870257E+03  0.84995873012E+02 0.  0.
         23    2    1    2    0    0  0.53040405494E+02  0.28843450153E+02 -0.24969220729E+02  0.11044527019E+03  0.89047551859E+02 0.  0.
          5    1    3    3  502    0 -0.43207811637E+02 -0.20779266357E+01 -0.52161792338E+02  0.67927721480E+02  0.47000000000E+01 0. -1.
         -5    1    3    3    0  502 -0.98325938572E+01 -0.26765523517E+02  0.26752542319E+02  0.39380981090E+02  0.47000000000E+01 0.  1.
          5    1    4    4  503    0  0.11227993491E+02 -0.27107992807E+02  0.11065522317E+02  0.31708782632E+02  0.47000000000E+01 0. -1.
         -5    1    4    4    0  503  0.41812412003E+02  0.55951442959E+02 -0.36034743046E+02  0.78736487559E+02  0.47000000000E+01 0.  1.
<mgrwt>
<rscale>  0 0.10674374E+03</rscale>
<asrwt>0</asrwt>
<pdfrwt beam="1">  1        1 0.20625573E-01 0.10758576E+03</pdfrwt>
<pdfrwt beam="2">  1       -1 0.12875039E-01 0.10758576E+03</pdfrwt>
<totfact> 0.92918368E+03</totfact>
</mgrwt>
</event>
<event>
 8    1  0.3400573E-004  0.1029773E+03  0.7546771E-02  0.1275940E+00
         -1   -1    0    0    0  501 -0.00000000000E+00  0.00000000000E+00  0.12182396108E+03  0.12182396108E+03  0.00000000000E+00 0.  1.
          1   -1    0    0  501    0  0.00000000000E+00 -0.00000000000E+00 -0.11047719853E+03  0.11047719853E+03  0.00000000000E+00 0. -1.
         23    2    1    2    0    0  0.31385315006E+02 -0.34006867674E+02  0.62448338249E+02  0.12043308399E+03  0.91993628703E+02 0.  0.
         23    2    1    2    0    0 -0.31385315006E+02  0.34006867674E+02 -0.51101575700E+02  0.11186807563E+03  0.88099887960E+02 0.  0.
          5    1    3    3  502    0  0.37292879830E+02  0.13764091187E+02 -0.17369461576E+01  0.40066395822E+02  0.47000000000E+01 0. -1.
         -5    1    3    3    0  502 -0.59075648235E+01 -0.47770958861E+02  0.64185284407E+02  0.80366688167E+02  0.47000000000E+01 0.  1.
          5    1    4    4  503    0 -0.76504540957E+01  0.60236719659E+02 -0.44861097156E+02  0.75641257798E+02  0.47000000000E+01 0. -1.
         -5    1    4    4    0  503 -0.23734860911E+02 -0.26229851985E+02 -0.62404785436E+01  0.36226817830E+02  0.47000000000E+01 0.  1.
<mgrwt>
<rscale>  0 0.10210044E+03</rscale>
<asrwt>0</asrwt>
<pdfrwt beam="1">  1        1 0.16996492E-01 0.10297734E+03</pdfrwt>
<pdfrwt beam="2">  1       -1 0.18742148E-01 0.10297734E+03</pdfrwt>
<totfact> 0.65824657E+03</totfact>
</mgrwt>
</event>
<event>
 8    1  0.3400573E-004  0.1142923E+03  0.7546771E-02  0.1253213E+00
          3   -1    0    0  501    0  0.00000000000E+00  0.00000000000E+00  0.11253483552E+03  0.11253483552E+03  0.00000000000E+00 0. -1.
         -3   -1    0    0    0  501 -0.00000000000E+00 -0.00000000000E+00 -0.22049629107E+03  0.22049629107E+03  0.00000000000E+00 0.  1.
         23    2    1    2    0    0  0.34104811863E+02  0.57349274247E+02 -0.16895119454E+03  0.20348395687E+03  0.91701347419E+02 0.  0.
         23    2    1    2    0    0 -0.34104811863E+02 -0.57349274247E+02  0.60989738990E+02  0.12954716973E+03  0.92793552970E+02 0.  0.
          5    1    3    3  502    0 -0.22005626670E+02  0.48091184416E+02 -0.57440179119E+02  0.78220673744E+02  0.47000000000E+01 0. -1.
         -5    1    3    3    0  502  0.56110438533E+02  0.92580898313E+01 -0.11151101542E+03  0.12526328313E+03  0.47000000000E+01 0.  1.
          5    1    4    4  503    0 -0.52103846561E+02 -0.66854163263E+01  0.53383662636E+02  0.75042728190E+02  0.47000000000E+01 0. -1.
         -5    1    4    4    0  503  0.17999034698E+02 -0.50663857921E+02  0.76060763545E+01  0.54504441535E+02  0.47000000000E+01 0.  1.
<mgrwt>
<rscale>  0 0.11407037E+03</rscale>
<asrwt>0</asrwt>
<pdfrwt beam="1">  1        3 0.17313052E-01 0.11429226E+03</pdfrwt>
<pdfrwt beam="2">  1       -3 0.33922506E-01 0.11429226E+03</pdfrwt>
<totfact> 0.55666715E+02</totfact>
</mgrwt>
</event>
<event>
 8    1  0.3400573E-004  0.1543959E+03  0.7546771E-02  0.1196098E+00
         -1   -1    0    0    0  501 -0.00000000000E+00  0.00000000000E+00  0.48124009241E+03  0.48124009241E+03  0.00000000000E+00 0.  1.
          1   -1    0    0  501    0  0.00000000000E+00 -0.00000000000E+00 -0.13933193448E+03  0.13933193448E+03  0.00000000000E+00 0. -1.
         23    2    1    2    0    0  0.39132745904E+02 -0.11674353555E+03 -0.80107971804E+02  0.17119944602E+03  0.87929166241E+02 0.  0.
         23    2    1    2    0    0 -0.39132745904E+02  0.11674353555E+03  0.42201612974E+03  0.44937258087E+03  0.93154054023E+02 0.  0.
          5    1    4    4  502    0  0.20679459659E+02  0.88815420258E+00  0.34747548254E+02  0.40717453006E+02  0.47000000000E+01 0. -1.
         -5    1    3    3    0  503  0.12895310886E+02 -0.85359565769E+02 -0.63030007190E+01  0.86685421665E+02  0.47000000000E+01 0.  1.
          5    1    3    3  503    0  0.26237435018E+02 -0.31383969780E+02 -0.73804971085E+02  0.84514024353E+02  0.47000000000E+01 0. -1.
         -5    1    4    4    0  502 -0.59812205563E+02  0.11585538135E+03  0.38726858148E+03  0.40865512786E+03  0.47000000000E+01 0.  1.
<mgrwt>
<rscale>  0 0.15361629E+03</rscale>
<asrwt>0</asrwt>
<pdfrwt beam="1">  1        1 0.21435682E-01 0.15439593E+03</pdfrwt>
<pdfrwt beam="2">  1       -1 0.74036937E-01 0.15439593E+03</pdfrwt>
<totfact> 0.44886131E+02</totfact>
</mgrwt>
</event>
<event>
 8    1  0.3400573E-004  0.1017824E+03  0.7546771E-02  0.1276765E+00
         -1   -1    0    0    0  501 -0.00000000000E+00  0.00000000000E+00  0.56451381055E+02  0.56451381055E+02  0.00000000000E+00 0.  1.
          1   -1    0    0  501    0  0.00000000000E+00 -0.00000000000E+00 -0.18297932778E+03  0.18297932778E+03  0.00000000000E+00 0. -1.
         23    2    1    2    0    0 -0.33384257971E+02 -0.27158206852E+02 -0.65546590603E+02  0.12077836232E+03  0.91863923196E+02 0.  0.
         23    2    1    2    0    0  0.33384257971E+02  0.27158206852E+02 -0.60981356126E+02  0.11865234652E+03  0.92236525631E+02 0.  0.
          5    1    4    4  502    0  0.61937572057E+02  0.98347126243E+01 -0.56662103499E+02  0.84650270984E+02  0.47000000000E+01 0. -1.
         -5    1    4    4    0  502 -0.28553314086E+02  0.17323494227E+02 -0.43192526263E+01  0.34002075537E+02  0.47000000000E+01 0.  1.
          5    1    3    3  503    0  0.21858863205E+02  0.18500790605E+02 -0.13076684959E+02  0.31830470357E+02  0.47000000000E+01 0. -1.
         -5    1    3    3    0  503 -0.55243121176E+02 -0.45658997457E+02 -0.52469905644E+02  0.88947891961E+02  0.47000000000E+01 0.  1.
<mgrwt>
<rscale>  0 0.10169789E+03</rscale>
<asrwt>0</asrwt>
<pdfrwt beam="1">  1        1 0.28150666E-01 0.10178238E+03</pdfrwt>
<pdfrwt beam="2">  1       -1 0.86848279E-02 0.10178238E+03</pdfrwt>
<totfact> 0.11415114E+04</totfact>
</mgrwt>
</event>
<event>
 8    1  0.1080549E-003  0.1054158E+03  0.7546771E-02  0.1276339E+00
         -1   -1    0    0    0  501 -0.00000000000E+00  0.00000000000E+00  0.44467796757E+02  0.44467796757E+02  0.00000000000E+00 0.  1.
          1   -1    0    0  501    0  0.00000000000E+00 -0.00000000000E+00 -0.59505220047E+03  0.59505220047E+03  0.00000000000E+00 0. -1.
         23    2    1    2    0    0 -0.27268062481E+02 -0.45061208129E+02 -0.52233359991E+03  0.53038431810E+03  0.75505467208E+02 0.  0.
         23    2    1    2    0    0  0.27268062481E+02  0.45061208129E+02 -0.28250803800E+02  0.10913567913E+03  0.91314997858E+02 0.  0.
          5    1    3    3  502    0 -0.50531984613E+02 -0.35462115553E+02 -0.28345240270E+03  0.29013513697E+03  0.47000000000E+01 0. -1.
         -5    1    4    4    0  503  0.59495437032E+02  0.41100910037E+02 -0.16797126749E+02  0.74385652518E+02  0.47000000000E+01 0.  1.
          5    1    4    4  503    0 -0.32227374551E+02  0.39602980918E+01 -0.11453677051E+02  0.34750026610E+02  0.47000000000E+01 0. -1.
         -5    1    3    3    0  502  0.23263922132E+02 -0.95990925758E+01 -0.23888119721E+03  0.24024918113E+03  0.47000000000E+01 0.  1.
<mgrwt>
<rscale>  0 0.10190549E+03</rscale>
<asrwt>0</asrwt>
<pdfrwt beam="1">  1        1 0.91546487E-01 0.10541579E+03</pdfrwt>
<pdfrwt beam="2">  1       -1 0.68411999E-02 0.10541579E+03</pdfrwt>
<totfact> 0.37414319E+03</totfact>
</mgrwt>
</event>
<event>
 8    1  0.3400573E-004  0.9885211E+02  0.7546771E-02  0.1285082E+00
          1   -1    0    0  501    0  0.00000000000E+00  0.00000000000E+00  0.43255573215E+03  0.43255573215E+03  0.00000000000E+00 0. -1.
         -1   -1    0    0    0  501 -0.00000000000E+00 -0.00000000000E+00 -0.23908394161E+02  0.23908394161E+02  0.00000000000E+00 0.  1.
         23    2    1    2    0    0  0.28045974084E+02 -0.13752488122E+02  0.27083769735E+03  0.28686684688E+03  0.89240248413E+02 0.  0.
         23    2    1    2    0    0 -0.28045974084E+02  0.13752488122E+02  0.13780964064E+03  0.16959727944E+03  0.93787166224E+02 0.  0.
          5    1    4    4  502    0 -0.59227329776E+02  0.13403648273E+02  0.11673249311E+03  0.13166662192E+03  0.47000000000E+01 0. -1.
         -5    1    3    3    0  503  0.28887486947E+02 -0.49771481405E+02  0.15191853969E+03  0.16252082932E+03  0.47000000000E+01 0.  1.
          5    1    3    3  503    0 -0.84151286386E+00  0.36018993283E+02  0.11891915767E+03  0.12434601755E+03  0.47000000000E+01 0. -1.
         -5    1    4    4    0  502  0.31181355693E+02  0.34883984885E+00  0.21077147528E+02  0.37930657521E+02  0.47000000000E+01 0.  1.
<mgrwt>
<rscale>  0 0.97758336E+02</rscale>
<asrwt>0</asrwt>
<pdfrwt beam="1">  1        1 0.66547030E-01 0.98852112E+02</pdfrwt>
<pdfrwt beam="2">  1       -1 0.36782148E-02 0.98852112E+02</pdfrwt>
<totfact> 0.14012823E+04</totfact>
</mgrwt>
</event>
<event>
 8    1  0.3400573E-004  0.1083085E+03  0.7546771E-02  0.1266163E+00
         -1   -1    0    0    0  501 -0.00000000000E+00  0.00000000000E+00  0.87630386463E+03  0.87630386463E+03  0.00000000000E+00 0.  1.
          1   -1    0    0  501    0  0.00000000000E+00 -0.00000000000E+00 -0.12782668604E+02  0.12782668604E+02  0.00000000000E+00 0. -1.
         23    2    1    2    0    0 -0.25633306098E+02 -0.53411920539E+02  0.43087015434E+03  0.44427448319E+03  0.90668775622E+02 0.  0.
         23    2    1    2    0    0  0.25633306098E+02  0.53411920539E+02  0.43265104168E+03  0.44481205005E+03  0.84622315961E+02 0.  0.
          5    1    3    3  502    0 -0.57022933494E+02 -0.47893894933E+02  0.26498095230E+03  0.27528609699E+03  0.47000000000E+01 0. -1.
         -5    1    4    4    0  503  0.52171170406E+02  0.25227068711E+02  0.17966617333E+03  0.18883924342E+03  0.47000000000E+01 0.  1.
          5    1    4    4  503    0 -0.26537864308E+02  0.28184851827E+02  0.25298486836E+03  0.25597280663E+03  0.47000000000E+01 0. -1.
         -5    1    3    3    0  502  0.31389627396E+02 -0.55180256055E+01  0.16588920204E+03  0.16898838620E+03  0.47000000000E+01 0.  1.
<mgrwt>
<rscale>  0 0.10703397E+03</rscale>
<asrwt>0</asrwt>
<pdfrwt beam="1">  1        1 0.19665651E-02 0.10830848E+03</pdfrwt>
<pdfrwt beam="2">  1       -1 0.13481593E+00 0.10830848E+03</pdfrwt>
<totfact> 0.29251643E+03</totfact>
</mgrwt>
</event>
<event>
 8    1  0.3400573E-004  0.9294057E+02  0.7546771E-02  0.1296619E+00
         -1   -1    0    0    0  501 -0.00000000000E+00  0.00000000000E+00  0.56499786837E+03  0.56499786837E+03  0.00000000000E+00 0.  1.
          1   -1    0    0  501    0  0.00000000000E+00 -0.00000000000E+00 -0.16311619436E+02  0.16311619436E+02  0.00000000000E+00 0. -1.
         23    2    1    2    0    0  0.14610088546E+02  0.14807478143E+02  0.19281292101E+03  0.21350005901E+03  0.89290181963E+02 0.  0.
         23    2    1    2    0    0 -0.14610088546E+02 -0.14807478143E+02  0.35587332792E+03  0.36780942879E+03  0.90582748262E+02 0.  0.
          5    1    3    3  502    0 -0.35897193434E+02  0.12791069733E+02  0.10838164028E+03  0.11498212866E+03  0.47000000000E+01 0. -1.
         -5    1    3    3    0  502  0.50507281980E+02  0.20164084101E+01  0.84431280727E+02  0.98517930353E+02  0.47000000000E+01 0.  1.
          5    1    4    4  503    0  0.31630404167E+01 -0.51539651738E+02  0.20180204095E+03  0.20835665158E+03  0.47000000000E+01 0. -1.
         -5    1    4    4    0  503 -0.17773128963E+02  0.36732173595E+02  0.15407128697E+03  0.15945277721E+03  0.47000000000E+01 0.  1.
<mgrwt>
<rscale>  0 0.92624132E+02</rscale>
<asrwt>0</asrwt>
<pdfrwt beam="1">  1        1 0.25094804E-02 0.92940574E+02</pdfrwt>
<pdfrwt beam="2">  1       -1 0.86922734E-01 0.92940574E+02</pdfrwt>
<totfact> 0.55453690E+03</totfact>
</mgrwt>
</event>
<event>
 8    1  0.3400573E-004  0.1181057E+03  0.7546771E-02  0.1246314E+00
          1   -1    0    0  501    0  0.00000000000E+00  0.00000000000E+00  0.20627099013E+03  0.20627099013E+03  0.00000000000E+00 0. -1.
         -1   -1    0    0    0  501 -0.00000000000E+00 -0.00000000000E+00 -0.80213431318E+02  0.80213431318E+02  0.00000000000E+00 0.  1.
         23    2    1    2    0    0  0.75153671985E+02  0.90360065305E+01  0.61326674775E+01  0.11826477323E+03  0.90659931335E+02 0.  0.
         23    2    1    2    0    0 -0.75153671985E+02 -0.90360065305E+01  0.11992489133E+03  0.16821964822E+03  0.90477326763E+02 0.  0.
          5    1    4    4  502    0 -0.13108357385E+02 -0.43256949695E+02  0.34036890423E+02  0.56776690991E+02  0.47000000000E+01 0. -1.
         -5    1    4    4    0  502 -0.62045314601E+02  0.34220943164E+02  0.85888000911E+02  0.11144295723E+03  0.47000000000E+01 0.  1.
          5    1    3    3  503    0  0.37903881454E+02  0.71835745824E+01  0.48155844662E+02  0.61882011507E+02  0.47000000000E+01 0. -1.
         -5    1    3    3    0  503  0.37249790531E+02  0.18524319481E+01 -0.42023177184E+02  0.56382761722E+02  0.47000000000E+01 0.  1.
<mgrwt>
<rscale>  0 0.11807062E+03</rscale>
<asrwt>0</asrwt>
<pdfrwt beam="1">  1        1 0.31733998E-01 0.11810566E+03</pdfrwt>
<pdfrwt beam="2">  1       -1 0.12340528E-01 0.11810566E+03</pdfrwt>
<totfact> 0.58375234E+03</totfact>
</mgrwt>
</event>
<event>
 8    1  0.3400573E-004  0.9235684E+02  0.7546771E-02  0.1297809E+00
          2   -1    0    0  501    0  0.00000000000E+00  0.00000000000E+00  0.66993156574E+02  0.66993156574E+02  0.00000000000E+00 0. -1.
         -2   -1    0    0    0  501 -0.00000000000E+00 -0.00000000000E+00 -0.28685192577E+03  0.28685192577E+03  0.00000000000E+00 0.  1.
         23    2    1    2    0    0  0.32520349624E+01 -0.10039608186E+02 -0.24266737214E+03  0.25964829841E+03  0.91751925872E+02 0.  0.
         23    2    1    2    0    0 -0.32520349624E+01  0.10039608186E+02  0.22808602941E+02  0.94196783939E+02  0.90782334583E+02 0.  0.
          5    1    3    3  502    0  0.38202650596E+02 -0.18286968004E+02 -0.61028598992E+02  0.74434102441E+02  0.47000000000E+01 0. -1.
         -5    1    3    3    0  502 -0.34950615633E+02  0.82473598179E+01 -0.18163877315E+03  0.18521419597E+03  0.47000000000E+01 0.  1.
          5    1    4    4  503    0  0.25089612965E+02  0.25393675461E+02 -0.19384713469E+02  0.40892353178E+02  0.47000000000E+01 0. -1.
         -5    1    4    4    0  503 -0.28341647927E+02 -0.15354067274E+02  0.42193316410E+02  0.53304430761E+02  0.47000000000E+01 0.  1.
<mgrwt>
<rscale>  0 0.92115096E+02</rscale>
<asrwt>0</asrwt>
<pdfrwt beam="1">  1        2 0.10306639E-01 0.92356837E+02</pdfrwt>
<pdfrwt beam="2">  1       -2 0.44131067E-01 0.92356837E+02</pdfrwt>
<totfact> 0.28460345E+03</totfact>
</mgrwt>
</event>
<event>
 8    1  0.3400573E-004  0.9359939E+02  0.7546771E-02  0.1295103E+00
          4   -1    0    0  501    0  0.00000000000E+00  0.00000000000E+00  0.12148115170E+03  0.12148115170E+03  0.00000000000E+00 0. -1.
         -4   -1    0    0    0  501 -0.00000000000E+00 -0.00000000000E+00 -0.80380053308E+02  0.80380053308E+02  0.00000000000E+00 0.  1.
         23    2    1    2    0    0 -0.13365617343E+02 -0.83781794508E+01  0.54906189998E+02  0.10851513901E+03  0.92260566205E+02 0.  0.
         23    2    1    2    0    0  0.13365617343E+02  0.83781794508E+01 -0.13805091610E+02  0.93346065994E+02  0.90961936349E+02 0.  0.
          5    1    4    4  502    0 -0.37386312317E+02  0.15699651707E+02 -0.66729256044E+01  0.41362221272E+02  0.47000000000E+01 0. -1.
         -5    1    4    4    0  502  0.50751929660E+02 -0.73214722558E+01 -0.71321660056E+01  0.51983844723E+02  0.47000000000E+01 0.  1.
          5    1    3    3  503    0 -0.16212211585E+02  0.18258785517E+02  0.72147893361E+02  0.76312695992E+02  0.47000000000E+01 0. -1.
         -5    1    3    3    0  503  0.28465942425E+01 -0.26636964968E+02 -0.17241703364E+02  0.32202443019E+02  0.47000000000E+01 0.  1.
<mgrwt>
<rscale>  0 0.93277787E+02</rscale>
<asrwt>0</asrwt>
<pdfrwt beam="1">  1        4 0.18689408E-01 0.93599389E+02</pdfrwt>
<pdfrwt beam="2">  1       -4 0.12366162E-01 0.93599389E+02</pdfrwt>
<totfact> 0.20185689E+03</totfact>
</mgrwt>
</event>
<event>
 8    1  0.3400573E-004  0.1082816E+03  0.7546771E-02  0.1264134E+00
          1   -1    0    0  501    0  0.00000000000E+00  0.00000000000E+00  0.40491081483E+02  0.40491081483E+02  0.00000000000E+00 0. -1.
         -1   -1    0    0    0  501 -0.00000000000E+00 -0.00000000000E+00 -0.35577010597E+03  0.35577010597E+03  0.00000000000E+00 0.  1.
         23    2    1    2    0    0  0.17990255057E+02 -0.58693503637E+02 -0.24393067758E+03  0.26658664412E+03  0.88304511257E+02 0.  0.
         23    2    1    2    0    0 -0.17990255057E+02  0.58693503637E+02 -0.71348346899E+02  0.12967454333E+03  0.89198228331E+02 0.  0.
          5    1    3    3  502    0  0.51719224500E+01 -0.29935257524E+02 -0.12840783220E+02  0.33314323324E+02  0.47000000000E+01 0. -1.
         -5    1    4    4    0  503 -0.10211661722E+02 -0.22185146042E+02 -0.28043315144E+02  0.37483013010E+02  0.47000000000E+01 0.  1.
          5    1    4    4  503    0 -0.77785933344E+01  0.80878649679E+02 -0.43305031755E+02  0.92191530324E+02  0.47000000000E+01 0. -1.
         -5    1    3    3    0  502  0.12818332607E+02 -0.28758246113E+02 -0.23108989436E+03  0.23327232079E+03  0.47000000000E+01 0.  1.
<mgrwt>
<rscale>  0 0.10809736E+03</rscale>
<asrwt>0</asrwt>
<pdfrwt beam="1">  1        1 0.62293972E-02 0.10828158E+03</pdfrwt>
<pdfrwt beam="2">  1       -1 0.54733862E-01 0.10828158E+03</pdfrwt>
<totfact> 0.40136769E+03</totfact>
</mgrwt>
</event>
<event>
 8    1  0.3400573E-004  0.1009979E+03  0.7546771E-02  0.1282055E+00
         -1   -1    0    0    0  501 -0.00000000000E+00  0.00000000000E+00  0.41434634190E+03  0.41434634190E+03  0.00000000000E+00 0.  1.
          1   -1    0    0  501    0  0.00000000000E+00 -0.00000000000E+00 -0.85170266191E+02  0.85170266191E+02  0.00000000000E+00 0. -1.
         23    2    1    2    0    0  0.43411967093E+02 -0.21549776364E+02  0.37646719106E+03  0.38799521904E+03  0.80397464575E+02 0.  0.
         23    2    1    2    0    0 -0.43411967093E+02  0.21549776364E+02 -0.47291115347E+02  0.11152138905E+03  0.88609135399E+02 0.  0.
          5    1    4    4  502    0 -0.13380627895E+02 -0.27649829218E+02 -0.43640951126E+02  0.53574031711E+02  0.47000000000E+01 0. -1.
         -5    1    4    4    0  502 -0.30031339198E+02  0.49199605582E+02 -0.36501642212E+01  0.57947357337E+02  0.47000000000E+01 0.  1.
          5    1    3    3  503    0 -0.17676175775E+02 -0.17675846903E+02  0.18968513407E+03  0.19138292202E+03  0.47000000000E+01 0. -1.
         -5    1    3    3    0  503  0.61088142868E+02 -0.38739294612E+01  0.18678205698E+03  0.19661229702E+03  0.47000000000E+01 0.  1.
<mgrwt>
<rscale>  0 0.99168346E+02</rscale>
<asrwt>0</asrwt>
<pdfrwt beam="1">  1        1 0.13103118E-01 0.10099787E+03</pdfrwt>
<pdfrwt beam="2">  1       -1 0.63745590E-01 0.10099787E+03</pdfrwt>
<totfact> 0.11237596E+03</totfact>
</mgrwt>
</event>
<event>
 8    1  0.3400573E-004  0.1046813E+03  0.7546771E-02  0.1271887E+00
          1   -1    0    0  501    0  0.00000000000E+00  0.00000000000E+00  0.52715203226E+02  0.52715203226E+02  0.00000000000E+00 0. -1.
         -1   -1    0    0    0  501 -0.00000000000E+00 -0.00000000000E+00 -0.20354239743E+03  0.20354239743E+03  0.00000000000E+00 0.  1.
         23    2    1    2    0    0  0.47997152040E+01  0.46949831332E+02 -0.78161685256E+02  0.12882738657E+03  0.90884116100E+02 0.  0.
         23    2    1    2    0    0 -0.47997152040E+01 -0.46949831332E+02 -0.72665508950E+02  0.12743021409E+03  0.93439067548E+02 0.  0.
          5    1    3    3  502    0 -0.28562494079E+02  0.70069084103E+01  0.54039419806E+01  0.30268885384E+02  0.47000000000E+01 0. -1.
         -5    1    3    3    0  502  0.33362209283E+02  0.39942922922E+02 -0.83565627237E+02  0.98558501182E+02  0.47000000000E+01 0.  1.
          5    1    4    4  503    0 -0.29462511040E+02 -0.13878121779E+02 -0.78859111043E+02  0.85448763686E+02  0.47000000000E+01 0. -1.
         -5    1    4    4    0  503  0.24662795836E+02 -0.33071709554E+02  0.61936020938E+01  0.41981450405E+02  0.47000000000E+01 0.  1.
<mgrwt>
<rscale>  0 0.10410813E+03</rscale>
<asrwt>0</asrwt>
<pdfrwt beam="1">  1        1 0.81100313E-02 0.10468134E+03</pdfrwt>
<pdfrwt beam="2">  1       -1 0.31314215E-01 0.10468134E+03</pdfrwt>
<totfact> 0.74954386E+03</totfact>
</mgrwt>
</event>
<event>
 8    1  0.3400573E-004  0.9539867E+02  0.7546771E-02  0.1290600E+00
          4   -1    0    0  501    0  0.00000000000E+00  0.00000000000E+00  0.10434226777E+03  0.10434226777E+03  0.00000000000E+00 0. -1.
         -4   -1    0    0    0  501 -0.00000000000E+00 -0.00000000000E+00 -0.13551868422E+03  0.13551868422E+03  0.00000000000E+00 0.  1.
         23    2    1    2    0    0 -0.21466033216E+02 -0.17897608639E+02 -0.87537611510E+02  0.12905711011E+03  0.90618923322E+02 0.  0.
         23    2    1    2    0    0  0.21466033216E+02  0.17897608639E+02  0.56361195061E+02  0.11080384188E+03  0.91212894318E+02 0.  0.
          5    1    4    4  502    0  0.54077034829E+02  0.58713654353E+01  0.52108004118E+02  0.75472728327E+02  0.47000000000E+01 0. -1.
         -5    1    3    3    0  503 -0.29252224577E+02  0.30723322591E+02 -0.25518785665E+02  0.49728398481E+02  0.47000000000E+01 0.  1.
          5    1    3    3  503    0  0.77861913610E+01 -0.48620931229E+02 -0.62018825845E+02  0.79328711629E+02  0.47000000000E+01 0. -1.
         -5    1    4    4    0  502 -0.32611001613E+02  0.12026243203E+02  0.42531909432E+01  0.35331113554E+02  0.47000000000E+01 0.  1.
<mgrwt>
<rscale>  0 0.95256419E+02</rscale>
<asrwt>0</asrwt>
<pdfrwt beam="1">  1        4 0.16052657E-01 0.95398674E+02</pdfrwt>
<pdfrwt beam="2">  1       -4 0.20849028E-01 0.95398674E+02</pdfrwt>
<totfact> 0.10649178E+03</totfact>
</mgrwt>
</event>
<event>
 8    1  0.3400573E-004  0.9715903E+02  0.7546771E-02  0.1287508E+00
         -2   -1    0    0    0  501 -0.00000000000E+00  0.00000000000E+00  0.79394437392E+01  0.79394437392E+01  0.00000000000E+00 0.  1.
          2   -1    0    0  501    0  0.00000000000E+00 -0.00000000000E+00 -0.13232967570E+04  0.13232967570E+04  0.00000000000E+00 0. -1.
         23    2    1    2    0    0  0.28087151730E+02  0.21185133638E+01 -0.89452133428E+03  0.89978235946E+03  0.92986562030E+02 0.  0.
         23    2    1    2    0    0 -0.28087151730E+02 -0.21185133638E+01 -0.42083597895E+03  0.43145384125E+03  0.90863192547E+02 0.  0.
          5    1    4    4  502    0 -0.55755146373E+02 -0.66544861793E+01 -0.35901103289E+03  0.36340601298E+03  0.47000000000E+01 0. -1.
         -5    1    3    3    0  503  0.55796430943E+02  0.24050077234E+02 -0.60994800813E+03  0.61298475555E+03  0.47000000000E+01 0.  1.
          5    1    3    3  503    0 -0.27709279214E+02 -0.21931563871E+02 -0.28457332615E+03  0.28679760390E+03  0.47000000000E+01 0. -1.
         -5    1    4    4    0  502  0.27667994643E+02  0.45359728156E+01 -0.61824946056E+02  0.68047828267E+02  0.47000000000E+01 0.  1.
<mgrwt>
<rscale>  0 0.96647455E+02</rscale>
<asrwt>0</asrwt>
<pdfrwt beam="1">  1        2 0.20358417E+00 0.97159029E+02</pdfrwt>
<pdfrwt beam="2">  1       -2 0.12214525E-02 0.97159029E+02</pdfrwt>
<totfact> 0.25314191E+04</totfact>
</mgrwt>
</event>
<event>
 8    1  0.3400573E-004  0.2874967E+03  0.7546771E-02  0.1091911E+00
         -1   -1    0    0    0  501 -0.00000000000E+00  0.00000000000E+00  0.14136284330E+03  0.14136284330E+03  0.00000000000E+00 0.  1.
          1   -1    0    0  501    0  0.00000000000E+00 -0.00000000000E+00 -0.58095160783E+03  0.58095160783E+03  0.00000000000E+00 0. -1.
         23    2    1    2    0    0  0.18589324680E+03  0.19919246479E+03 -0.21725549612E+03  0.36035306416E+03  0.91762971980E+02 0.  0.
         23    2    1    2    0    0 -0.18589324680E+03 -0.19919246479E+03 -0.22233326841E+03  0.36196138696E+03  0.85732293676E+02 0.  0.
          5    1    4    4  502    0 -0.14608258231E+03 -0.15843634183E+03 -0.12526515789E+03  0.24931033883E+03  0.47000000000E+01 0. -1.
         -5    1    4    4    0  502 -0.39810664487E+02 -0.40756122952E+02 -0.97068110520E+02  0.11265104813E+03  0.47000000000E+01 0.  1.
          5    1    3    3  503    0  0.22722232220E+02 -0.39726364522E+01 -0.35569415901E+02  0.42653898121E+02  0.47000000000E+01 0. -1.
         -5    1    3    3    0  503  0.16317101458E+03  0.20316510124E+03 -0.18168608022E+03  0.31769916604E+03  0.47000000000E+01 0.  1.
<mgrwt>
<rscale>  0 0.28702869E+03</rscale>
<asrwt>0</asrwt>
<pdfrwt beam="1">  1        1 0.89377172E-01 0.28749675E+03</pdfrwt>
<pdfrwt beam="2">  1       -1 0.21748129E-01 0.28749675E+03</pdfrwt>
<totfact> 0.64850197E+02</totfact>
</mgrwt>
</event>
<event>
 8    1  0.3400573E-004  0.1322035E+03  0.7546771E-02  0.1228165E+00
         -1   -1    0    0    0  501 -0.00000000000E+00  0.00000000000E+00  0.72582853381E+03  0.72582853381E+03  0.00000000000E+00 0.  1.
          1   -1    0    0  501    0  0.00000000000E+00 -0.00000000000E+00 -0.23877013638E+02  0.23877013638E+02  0.00000000000E+00 0. -1.
         23    2    1    2    0    0  0.77019691468E+02 -0.26482997280E+02  0.23900826447E+03  0.26825542243E+03  0.90568422524E+02 0.  0.
         23    2    1    2    0    0 -0.77019691468E+02  0.26482997280E+02  0.46294325570E+03  0.48145012502E+03  0.10413636667E+03 0.  0.
          5    1    3    3  502    0  0.19476363232E+02 -0.52974407016E+02  0.13476683473E+03  0.14618415190E+03  0.47000000000E+01 0. -1.
         -5    1    4    4    0  503 -0.49482159645E+02  0.36447340245E+02  0.43907304082E+03  0.44337807559E+03  0.47000000000E+01 0.  1.
          5    1    4    4  503    0 -0.27537531823E+02 -0.99643429642E+01  0.23870214879E+02  0.38072049432E+02  0.47000000000E+01 0. -1.
         -5    1    3    3    0  502  0.57543328236E+02  0.26491409735E+02  0.10424142974E+03  0.12207127053E+03  0.47000000000E+01 0.  1.
<mgrwt>
<rscale>  0 0.12952300E+03</rscale>
<asrwt>0</asrwt>
<pdfrwt beam="1">  1        1 0.36733873E-02 0.13220350E+03</pdfrwt>
<pdfrwt beam="2">  1       -1 0.11166591E+00 0.13220350E+03</pdfrwt>
<totfact> 0.19472505E+03</totfact>
</mgrwt>
</event>
<event>
 8    1  0.3400573E-004  0.9611933E+02  0.7546771E-02  0.1290039E+00
          1   -1    0    0  501    0  0.00000000000E+00  0.00000000000E+00  0.22098626793E+02  0.22098626793E+02  0.00000000000E+00 0. -1.
         -1   -1    0    0    0  501 -0.00000000000E+00 -0.00000000000E+00 -0.52906755469E+03  0.52906755469E+03  0.00000000000E+00 0.  1.
         23    2    1    2    0    0  0.24406070250E+02 -0.13432534625E+02 -0.38303289678E+03  0.39432529126E+03  0.89454715157E+02 0.  0.
         23    2    1    2    0    0 -0.24406070250E+02  0.13432534625E+02 -0.12393603112E+03  0.15684089022E+03  0.91993672521E+02 0.  0.
          5    1    3    3  502    0  0.29148834564E+01  0.37474048841E+02 -0.17258160086E+03  0.17668984079E+03  0.47000000000E+01 0.  1.
         -5    1    3    3    0  502  0.21491186794E+02 -0.50906583466E+02 -0.21045129591E+03  0.21763545047E+03  0.47000000000E+01 0. -1.
          5    1    4    4  503    0  0.67098018194E+01 -0.35891295343E+02 -0.57919197493E+02  0.68628929469E+02  0.47000000000E+01 0. -1.
         -5    1    4    4    0  503 -0.31115872069E+02  0.49323829969E+02 -0.66016833627E+02  0.88211960751E+02  0.47000000000E+01 0.  1.
<mgrwt>
<rscale>  0 0.95506723E+02</rscale>
<asrwt>0</asrwt>
<pdfrwt beam="1">  1        1 0.33997889E-02 0.96119327E+02</pdfrwt>
<pdfrwt beam="2">  1       -1 0.81395005E-01 0.96119327E+02</pdfrwt>
<totfact> 0.41977536E+03</totfact>
</mgrwt>
</event>
<event>
 8    1  0.3400573E-004  0.1121433E+03  0.7546771E-02  0.1257198E+00
          2   -1    0    0  501    0  0.00000000000E+00  0.00000000000E+00  0.31603554711E+03  0.31603554711E+03  0.00000000000E+00 0. -1.
         -2   -1    0    0    0  501 -0.00000000000E+00 -0.00000000000E+00 -0.51446982089E+02  0.51446982089E+02  0.00000000000E+00 0.  1.
         23    2    1    2    0    0  0.56619924225E+02  0.30805070419E+02  0.43807203820E+02  0.12039595691E+03  0.91767898262E+02 0.  0.
         23    2    1    2    0    0 -0.56619924225E+02 -0.30805070419E+02  0.22078136120E+03  0.24708657229E+03  0.90291730343E+02 0.  0.
          5    1    3    3  502    0 -0.22239337214E+02 -0.77211634154E+01  0.61883720225E+01  0.24790934482E+02  0.47000000000E+01 0. -1.
         -5    1    4    4    0  503 -0.63959174523E+02 -0.26094751165E+01  0.76695174439E+02  0.10000912533E+03  0.47000000000E+01 0.  1.
          5    1    4    4  503    0  0.73392502981E+01 -0.28195595302E+02  0.14408618676E+03  0.14707744696E+03  0.47000000000E+01 0. -1.
         -5    1    3    3    0  502  0.78859261438E+02  0.38526233834E+02  0.37618831797E+02  0.95605022430E+02  0.47000000000E+01 0.  1.
<mgrwt>
<rscale>  0 0.11184088E+03</rscale>
<asrwt>0</asrwt>
<pdfrwt beam="1">  1        2 0.48620852E-01 0.11214328E+03</pdfrwt>
<pdfrwt beam="2">  1       -2 0.79149205E-02 0.11214328E+03</pdfrwt>
<totfact> 0.92811117E+03</totfact>
</mgrwt>
</event>
<event>
 8    1  0.3400573E-004  0.1260983E+03  0.7546771E-02  0.1233460E+00
         -1   -1    0    0    0  501 -0.00000000000E+00  0.00000000000E+00  0.17257697863E+03  0.17257697863E+03  0.00000000000E+00 0.  1.
          1   -1    0    0  501    0  0.00000000000E+00 -0.00000000000E+00 -0.27329061874E+03  0.27329061874E+03  0.00000000000E+00 0. -1.
         23    2    1    2    0    0 -0.11037580837E+02  0.88991182635E+02  0.13122272168E+03  0.18198953641E+03  0.88653989764E+02 0.  0.
         23    2    1    2    0    0  0.11037580837E+02 -0.88991182635E+02 -0.23193636179E+03  0.26387806095E+03  0.88294373300E+02 0.  0.
          5    1    3    3  502    0 -0.25683257026E+02  0.30419928209E+02  0.30176605512E+01  0.40201965112E+02  0.47000000000E+01 0. -1.
         -5    1    3    3    0  502  0.14645676189E+02  0.58571254427E+02  0.12820506113E+03  0.14178757130E+03  0.47000000000E+01 0.  1.
          5    1    4    4  503    0  0.38075126978E+02 -0.13851703320E+02 -0.46087693929E+02  0.61544703354E+02  0.47000000000E+01 0. -1.
         -5    1    4    4    0  503 -0.27037546141E+02 -0.75139479316E+02 -0.18584866786E+03  0.20233335760E+03  0.47000000000E+01 0.  1.
<mgrwt>
<rscale>  0 0.12603514E+03</rscale>
<asrwt>0</asrwt>
<pdfrwt beam="1">  1        1 0.42044710E-01 0.12609833E+03</pdfrwt>
<pdfrwt beam="2">  1       -1 0.26550304E-01 0.12609833E+03</pdfrwt>
<totfact> 0.12242945E+03</totfact>
</mgrwt>
</event>
<event>
 8    1  0.3400573E-004  0.1101547E+03  0.7546771E-02  0.1264199E+00
         -1   -1    0    0    0  501 -0.00000000000E+00  0.00000000000E+00  0.39611646792E+02  0.39611646792E+02  0.00000000000E+00 0.  1.
          1   -1    0    0  501    0  0.00000000000E+00 -0.00000000000E+00 -0.28958039577E+03  0.28958039577E+03  0.00000000000E+00 0. -1.
         23    2    1    2    0    0  0.20786097280E+02  0.38438458061E+02 -0.14284613961E+03  0.17553884284E+03  0.92191587713E+02 0.  0.
         23    2    1    2    0    0 -0.20786097280E+02 -0.38438458061E+02 -0.10712260937E+03  0.15365319973E+03  0.10111614831E+03 0.  0.
          5    1    4    4  502    0 -0.24880301014E+02  0.30941274800E+02 -0.32055737803E+02  0.51245021133E+02  0.47000000000E+01 0. -1.
         -5    1    4    4    0  502  0.40942037343E+01 -0.69379732862E+02 -0.75066871568E+02  0.10240817860E+03  0.47000000000E+01 0.  1.
          5    1    3    3  503    0  0.14267991412E+02  0.61564968238E+02 -0.13612056841E+03  0.15014899280E+03  0.47000000000E+01 0. -1.
         -5    1    3    3    0  503  0.65181058674E+01 -0.23126510177E+02 -0.67255711958E+01  0.25389850039E+02  0.47000000000E+01 0.  1.
<mgrwt>
<rscale>  0 0.10806315E+03</rscale>
<asrwt>0</asrwt>
<pdfrwt beam="1">  1        1 0.44550829E-01 0.11015467E+03</pdfrwt>
<pdfrwt beam="2">  1       -1 0.60940997E-02 0.11015467E+03</pdfrwt>
<totfact> 0.11092129E+04</totfact>
</mgrwt>
</event>
<event>
 8    1  0.3400573E-004  0.1117983E+03  0.7546771E-02  0.1257784E+00
          1   -1    0    0  501    0  0.00000000000E+00  0.00000000000E+00  0.25489263471E+03  0.25489263471E+03  0.00000000000E+00 0. -1.
         -1   -1    0    0    0  501 -0.00000000000E+00 -0.00000000000E+00 -0.95576427225E+02  0.95576427225E+02  0.00000000000E+00 0.  1.
         23    2    1    2    0    0 -0.17788102829E+01  0.64290267560E+02  0.20278185420E+03  0.23155849057E+03  0.91446440572E+02 0.  0.
         23    2    1    2    0    0  0.17788102829E+01 -0.64290267560E+02 -0.43465646716E+02  0.11891057136E+03  0.90078070966E+02 0.  0.
          5    1    4    4  502    0 -0.36102089709E+00 -0.87012917404E+02 -0.37432078123E+02  0.94840015837E+02  0.47000000000E+01 0. -1.
         -5    1    3    3    0  503  0.15088042368E+02  0.78198416795E+02  0.10857422270E+03  0.13473341548E+03  0.47000000000E+01 0.  1.
          5    1    3    3  503    0 -0.16866852650E+02 -0.13908149235E+02  0.94207631502E+02  0.96825075092E+02  0.47000000000E+01 0. -1.
         -5    1    4    4    0  502  0.21398311800E+01  0.22722649845E+02 -0.60335685927E+01  0.24070555528E+02  0.47000000000E+01 0.  1.
<mgrwt>
<rscale>  0 0.11151811E+03</rscale>
<asrwt>0</asrwt>
<pdfrwt beam="1">  1        1 0.39214251E-01 0.11179827E+03</pdfrwt>
<pdfrwt beam="2">  1       -1 0.14704066E-01 0.11179827E+03</pdfrwt>
<totfact> 0.34177709E+03</totfact>
</mgrwt>
</event>
<event>
 8    1  0.3400573E-004  0.1013334E+03  0.7546771E-02  0.1279995E+00
         -1   -1    0    0    0  501 -0.00000000000E+00  0.00000000000E+00  0.12965124351E+03  0.12965124351E+03  0.00000000000E+00 0.  1.
          1   -1    0    0  501    0  0.00000000000E+00 -0.00000000000E+00 -0.84170715561E+02  0.84170715561E+02  0.00000000000E+00 0. -1.
         23    2    1    2    0    0 -0.29105831281E+02 -0.27092794106E+02  0.57354633593E+02  0.11643888651E+03  0.93205640331E+02 0.  0.
         23    2    1    2    0    0  0.29105831281E+02  0.27092794106E+02 -0.11874105642E+02  0.97383072566E+02  0.88098237954E+02 0.  0.
          5    1    4    4  502    0 -0.80331527122E+01 -0.18651496892E+02  0.21132038696E+02  0.29682704362E+02  0.47000000000E+01 0. -1.
         -5    1    4    4    0  502  0.37138983993E+02  0.45744290998E+02 -0.33006144338E+02  0.67700368204E+02  0.47000000000E+01 0.  1.
          5    1    3    3  503    0 -0.61594404140E+02 -0.17383291130E+02  0.50179523130E+02  0.81462408345E+02  0.47000000000E+01 0. -1.
         -5    1    3    3    0  503  0.32488572859E+02 -0.97095029757E+01  0.71751104637E+01  0.34976478162E+02  0.47000000000E+01 0.  1.
<mgrwt>
<rscale>  0 0.10014337E+03</rscale>
<asrwt>0</asrwt>
<pdfrwt beam="1">  1        1 0.12949341E-01 0.10133341E+03</pdfrwt>
<pdfrwt beam="2">  1       -1 0.19946345E-01 0.10133341E+03</pdfrwt>
<totfact> 0.84434727E+03</totfact>
</mgrwt>
</event>
<event>
 8    1  0.3400573E-004  0.1053829E+03  0.7546771E-02  0.1270220E+00
          1   -1    0    0  501    0  0.00000000000E+00  0.00000000000E+00  0.73504792102E+02  0.73504792102E+02  0.00000000000E+00 0. -1.
         -1   -1    0    0    0  501 -0.00000000000E+00 -0.00000000000E+00 -0.17530936853E+03  0.17530936853E+03  0.00000000000E+00 0.  1.
         23    2    1    2    0    0 -0.44267248371E+02  0.25678520260E+02 -0.20095721741E+01  0.10367765642E+03  0.90144563786E+02 0.  0.
         23    2    1    2    0    0  0.44267248371E+02 -0.25678520260E+02 -0.99795004250E+02  0.14513650421E+03  0.92122669840E+02 0.  0.
          5    1    3    3  502    0  0.30836957878E+01  0.47138184579E+02  0.13263581873E+02  0.49290265055E+02  0.47000000000E+01 0. -1.
         -5    1    3    3    0  502 -0.47350944159E+02 -0.21459664318E+02 -0.15273154047E+02  0.54387391369E+02  0.47000000000E+01 0.  1.
          5    1    4    4  503    0  0.42219116300E+02  0.26433700405E+02 -0.31676139751E+02  0.59217076319E+02  0.47000000000E+01 0. -1.
         -5    1    4    4    0  503  0.20481320715E+01 -0.52112220665E+02 -0.68118864499E+02  0.85919427886E+02  0.47000000000E+01 0.  1.
<mgrwt>
<rscale>  0 0.10494907E+03</rscale>
<asrwt>0</asrwt>
<pdfrwt beam="1">  1        1 0.11308430E-01 0.10538293E+03</pdfrwt>
<pdfrwt beam="2">  1       -1 0.26970672E-01 0.10538293E+03</pdfrwt>
<totfact> 0.62006075E+03</totfact>
</mgrwt>
</event>
<event>
 8    1  0.3400573E-004  0.1027609E+03  0.7546771E-02  0.1275460E+00
         -2   -1    0    0    0  501 -0.00000000000E+00  0.00000000000E+00  0.72007837594E+02  0.72007837594E+02  0.00000000000E+00 0.  1.
          2   -1    0    0  501    0  0.00000000000E+00 -0.00000000000E+00 -0.14487131570E+03  0.14487131570E+03  0.00000000000E+00 0. -1.
         23    2    1    2    0    0  0.33825785068E+02 -0.26702786059E+02 -0.43265870190E+02  0.10994079593E+03  0.91421116645E+02 0.  0.
         23    2    1    2    0    0 -0.33825785068E+02  0.26702786059E+02 -0.29597607920E+02  0.10693835736E+03  0.93287573462E+02 0.  0.
          5    1    3    3  502    0  0.61989350945E+02 -0.17397232974E+02 -0.10343573617E+02  0.65379070511E+02  0.47000000000E+01 0. -1.
         -5    1    4    4    0  503 -0.16270740828E+02 -0.29965847159E+02  0.95309997021E+01  0.35715808242E+02  0.47000000000E+01 0.  1.
          5    1    4    4  503    0 -0.17555044240E+02  0.56668633218E+02 -0.39128607622E+02  0.71222549123E+02  0.47000000000E+01 0. -1.
         -5    1    3    3    0  502 -0.28163565877E+02 -0.93055530847E+01 -0.32922296572E+02  0.44561725423E+02  0.47000000000E+01 0.  1.
<mgrwt>
<rscale>  0 0.10233538E+03</rscale>
<asrwt>0</asrwt>
<pdfrwt beam="1">  1        2 0.22287895E-01 0.10276086E+03</pdfrwt>
<pdfrwt beam="2">  1       -2 0.11078129E-01 0.10276086E+03</pdfrwt>
<totfact> 0.12599949E+04</totfact>
</mgrwt>
</event>
<event>
 8    1  0.3400573E-004  0.9814587E+02  0.7546771E-02  0.1284956E+00
         -1   -1    0    0    0  501 -0.00000000000E+00  0.00000000000E+00  0.60793083668E+03  0.60793083668E+03  0.00000000000E+00 0.  1.
          1   -1    0    0  501    0  0.00000000000E+00 -0.00000000000E+00 -0.37448162189E+02  0.37448162189E+02  0.00000000000E+00 0. -1.
         23    2    1    2    0    0  0.33757178682E+02  0.26347734025E+01  0.38157472853E+02  0.10408173041E+03  0.90722239432E+02 0.  0.
         23    2    1    2    0    0 -0.33757178682E+02 -0.26347734025E+01  0.53232520164E+03  0.54129726846E+03  0.92120157384E+02 0.  0.
          5    1    3    3  502    0  0.64035850682E+02 -0.70431648865E+01  0.27786446794E+02  0.70316235463E+02  0.47000000000E+01 0. -1.
         -5    1    4    4    0  503 -0.12425319268E+02  0.40646012042E+02  0.15220317480E+03  0.15809612036E+03  0.47000000000E+01 0.  1.
          5    1    4    4  503    0 -0.21331859414E+02 -0.43280785445E+02  0.38012202684E+03  0.38320114810E+03  0.47000000000E+01 0. -1.
         -5    1    3    3    0  502 -0.30278672000E+02  0.96779382891E+01  0.10371026060E+02  0.33765494949E+02  0.47000000000E+01 0.  1.
<mgrwt>
<rscale>  0 0.97816497E+02</rscale>
<asrwt>0</asrwt>
<pdfrwt beam="1">  1        1 0.57612562E-02 0.98145874E+02</pdfrwt>
<pdfrwt beam="2">  1       -1 0.93527814E-01 0.98145874E+02</pdfrwt>
<totfact> 0.15371548E+03</totfact>
</mgrwt>
</event>
<event>
 8    1  0.3400573E-004  0.1131736E+03  0.7546771E-02  0.1255180E+00
          1   -1    0    0  501    0  0.00000000000E+00  0.00000000000E+00  0.60785246347E+03  0.60785246347E+03  0.00000000000E+00 0. -1.
         -1   -1    0    0    0  501 -0.00000000000E+00 -0.00000000000E+00 -0.25643910404E+02  0.25643910404E+02  0.00000000000E+00 0.  1.
         23    2    1    2    0    0  0.64339489203E+02  0.12770772090E+02  0.42623849349E+03  0.44079215129E+03  0.91191034775E+02 0.  0.
         23    2    1    2    0    0 -0.64339489203E+02 -0.12770772090E+02  0.15597005958E+03  0.19270422258E+03  0.92225785025E+02 0.  0.
          5    1    3    3  502    0  0.87059057565E+02  0.85892015425E+01  0.30752159971E+03  0.31975721755E+03  0.47000000000E+01 0. -1.
         -5    1    4    4    0  503 -0.38058278214E+02 -0.48969128439E+02  0.58631960512E+02  0.85476341020E+02  0.47000000000E+01 0.  1.
          5    1    4    4  503    0 -0.26281210990E+02  0.36198356349E+02  0.97338099066E+02  0.10722788156E+03  0.47000000000E+01 0. -1.
         -5    1    3    3    0  502 -0.22719568362E+02  0.41815705470E+01  0.11871689378E+03  0.12103493375E+03  0.47000000000E+01 0.  1.
<mgrwt>
<rscale>  0 0.11296258E+03</rscale>
<asrwt>0</asrwt>
<pdfrwt beam="1">  1        1 0.93515752E-01 0.11317357E+03</pdfrwt>
<pdfrwt beam="2">  1       -1 0.39452175E-02 0.11317357E+03</pdfrwt>
<totfact> 0.82133638E+03</totfact>
</mgrwt>
</event>
<event>
 8    1  0.3400573E-004  0.2992967E+03  0.7546771E-02  0.1085710E+00
          3   -1    0    0  501    0  0.00000000000E+00  0.00000000000E+00  0.54731625261E+02  0.54731625261E+02  0.00000000000E+00 0. -1.
         -3   -1    0    0    0  501 -0.00000000000E+00 -0.00000000000E+00 -0.16315897960E+04  0.16315897960E+04  0.00000000000E+00 0.  1.
         23    2    1    2    0    0  0.11861713801E+03  0.25906344317E+03 -0.78657235000E+03  0.84125919274E+03  0.88527253231E+02 0.  0.
         23    2    1    2    0    0 -0.11861713801E+03 -0.25906344317E+03 -0.79028582070E+03  0.84506222848E+03  0.91622042075E+02 0.  0.
          5    1    4    4  502    0 -0.73345126880E+02 -0.22420829235E+03 -0.55855230284E+03  0.60634283289E+03  0.47000000000E+01 0. -1.
         -5    1    3    3    0  503 -0.54158882095E+01  0.56389306445E+02 -0.21166067779E+03  0.21916071329E+03  0.47000000000E+01 0.  1.
          5    1    3    3  503    0  0.12403302622E+03  0.20267413672E+03 -0.57491167221E+03  0.62209847945E+03  0.47000000000E+01 0. -1.
         -5    1    4    4    0  502 -0.45272011130E+02 -0.34855150820E+02 -0.23173351786E+03  0.23871939559E+03  0.47000000000E+01 0.  1.
<mgrwt>
<rscale>  0 0.29906318E+03</rscale>
<asrwt>0</asrwt>
<pdfrwt beam="1">  1        3 0.84202507E-02 0.29929666E+03</pdfrwt>
<pdfrwt beam="2">  1       -3 0.25101380E+00 0.29929666E+03</pdfrwt>
<totfact> 0.19778242E+01</totfact>
</mgrwt>
</event>
<event>
 8    1  0.3400573E-004  0.1115036E+03  0.7546771E-02  0.1259370E+00
          2   -1    0    0  501    0  0.00000000000E+00  0.00000000000E+00  0.13961949879E+03  0.13961949879E+03  0.00000000000E+00 0. -1.
         -2   -1    0    0    0  501 -0.00000000000E+00 -0.00000000000E+00 -0.86399664639E+02  0.86399664639E+02  0.00000000000E+00 0.  1.
         23    2    1    2    0    0 -0.31871288648E+02 -0.37135935778E+02  0.28112446855E+02  0.11172375052E+03  0.96421107621E+02 0.  0.
         23    2    1    2    0    0  0.31871288648E+02  0.37135935778E+02  0.25107387299E+02  0.11429541292E+03  0.10019083666E+03 0.  0.
          5    1    3    3  502    0  0.34386188446E+02 -0.97664002364E+01  0.12875743914E+02  0.38284034672E+02  0.47000000000E+01 0. -1.
         -5    1    4    4    0  503  0.98999070268E+01  0.48542180975E+02  0.55679780907E+02  0.74677168498E+02  0.47000000000E+01 0.  1.
          5    1    4    4  503    0  0.21971381622E+02 -0.11406245196E+02 -0.30572393608E+02  0.39618244418E+02  0.47000000000E+01 0. -1.
         -5    1    3    3    0  502 -0.66257477094E+02 -0.27369535542E+02  0.15236702941E+02  0.73439715844E+02  0.47000000000E+01 0.  1.
<mgrwt>
<rscale>  0 0.11065024E+03</rscale>
<asrwt>0</asrwt>
<pdfrwt beam="1">  1        2 0.21479923E-01 0.11150363E+03</pdfrwt>
<pdfrwt beam="2">  1       -2 0.13292256E-01 0.11150363E+03</pdfrwt>
<totfact> 0.98999471E+03</totfact>
</mgrwt>
</event>
<event>
 8    1  0.3400573E-004  0.1318451E+03  0.7546771E-02  0.1227882E+00
         -1   -1    0    0    0  501 -0.00000000000E+00  0.00000000000E+00  0.18293146647E+03  0.18293146647E+03  0.00000000000E+00 0.  1.
          1   -1    0    0  501    0  0.00000000000E+00 -0.00000000000E+00 -0.24341262386E+03  0.24341262386E+03  0.00000000000E+00 0. -1.
         23    2    1    2    0    0 -0.25965996184E+02  0.90958558898E+02  0.13980551346E+03  0.18655692067E+03  0.79436834415E+02 0.  0.
         23    2    1    2    0    0  0.25965996184E+02 -0.90958558898E+02 -0.20028667084E+03  0.23978716966E+03  0.91844672265E+02 0.  0.
          5    1    4    4  502    0  0.43599608485E+02 -0.10157591021E+03 -0.16476274361E+03  0.19846269946E+03  0.47000000000E+01 0. -1.
         -5    1    3    3    0  503  0.25343707981E+02  0.28804996592E+02  0.69390732530E+02  0.79430442048E+02  0.47000000000E+01 0.  1.
          5    1    3    3  503    0 -0.51309704165E+02  0.62153562306E+02  0.70414780927E+02  0.10712647862E+03  0.47000000000E+01 0. -1.
         -5    1    4    4    0  502 -0.17633612302E+02  0.10617351310E+02 -0.35523927229E+02  0.41324470202E+02  0.47000000000E+01 0.  1.
<mgrwt>
<rscale>  0 0.12971342E+03</rscale>
<asrwt>0</asrwt>
<pdfrwt beam="1">  1        1 0.37448096E-01 0.13184512E+03</pdfrwt>
<pdfrwt beam="2">  1       -1 0.28143303E-01 0.13184512E+03</pdfrwt>
<totfact> 0.12836882E+03</totfact>
</mgrwt>
</event>
<event>
 8    1  0.3400573E-004  0.1203201E+03  0.7546771E-02  0.1247593E+00
          1   -1    0    0  501    0  0.00000000000E+00  0.00000000000E+00  0.46151985771E+03  0.46151985771E+03  0.00000000000E+00 0. -1.
         -1   -1    0    0    0  501 -0.00000000000E+00 -0.00000000000E+00 -0.39690729159E+02  0.39690729159E+02  0.00000000000E+00 0.  1.
         23    2    1    2    0    0  0.40284216124E+02 -0.39612146293E+02  0.69876624550E+02  0.12925967392E+03  0.92915985920E+02 0.  0.
         23    2    1    2    0    0 -0.40284216124E+02  0.39612146293E+02  0.35195250400E+03  0.37195091295E+03  0.10623076942E+03 0.  0.
          5    1    4    4  502    0 -0.33161200598E+02  0.75732098378E+02  0.25656685629E+03  0.26959906842E+03  0.47000000000E+01 0. -1.
         -5    1    4    4    0  502 -0.71230155258E+01 -0.36119952085E+02  0.95385647714E+02  0.10235184453E+03  0.47000000000E+01 0.  1.
          5    1    3    3  503    0 -0.14256782177E+02 -0.36418144590E+02  0.62572976837E+02  0.73939194773E+02  0.47000000000E+01 0. -1.
         -5    1    3    3    0  503  0.54540998301E+02 -0.31940017028E+01  0.73036477124E+01  0.55320479142E+02  0.47000000000E+01 0.  1.
<mgrwt>
<rscale>  0 0.11731543E+03</rscale>
<asrwt>0</asrwt>
<pdfrwt beam="1">  1        1 0.71003051E-01 0.12032006E+03</pdfrwt>
<pdfrwt beam="2">  1       -1 0.61062664E-02 0.12032006E+03</pdfrwt>
<totfact> 0.62236899E+03</totfact>
</mgrwt>
</event>
<event>
 8    1  0.3400573E-004  0.1132041E+03  0.7546771E-02  0.1257750E+00
          2   -1    0    0  501    0  0.00000000000E+00  0.00000000000E+00  0.18012228925E+03  0.18012228925E+03  0.00000000000E+00 0. -1.
         -2   -1    0    0    0  501 -0.00000000000E+00 -0.00000000000E+00 -0.87717995705E+02  0.87717995705E+02  0.00000000000E+00 0.  1.
         23    2    1    2    0    0  0.35462766141E+02  0.41253345616E+02 -0.17644472305E+02  0.11457093081E+03  0.99276001518E+02 0.  0.
         23    2    1    2    0    0 -0.35462766141E+02 -0.41253345616E+02  0.11004876585E+03  0.15326935414E+03  0.91767738050E+02 0.  0.
          5    1    3    3  502    0 -0.23699376364E+02  0.22214738510E+02  0.23074927669E+02  0.40121033561E+02  0.47000000000E+01 0. -1.
         -5    1    4    4    0  503 -0.17794020097E+02  0.21819794139E+02  0.44114760030E+01  0.28883934773E+02  0.47000000000E+01 0.  1.
          5    1    4    4  503    0 -0.17668746045E+02 -0.63073139754E+02  0.10563728984E+03  0.12438541937E+03  0.47000000000E+01 0. -1.
         -5    1    3    3    0  502  0.59162142505E+02  0.19038607106E+02 -0.40719399974E+02  0.74449897251E+02  0.47000000000E+01 0.  1.
<mgrwt>
<rscale>  0 0.11153677E+03</rscale>
<asrwt>0</asrwt>
<pdfrwt beam="1">  1        2 0.27711121E-01 0.11320411E+03</pdfrwt>
<pdfrwt beam="2">  1       -2 0.13495076E-01 0.11320411E+03</pdfrwt>
<totfact> 0.73102263E+03</totfact>
</mgrwt>
</event>
<event>
 7    1  0.3400573E-004  0.2810220E+03  0.7546771E-02  0.1097244E+00
         -2   -1    0    0    0  501 -0.00000000000E+00  0.00000000000E+00  0.31751505770E+03  0.31751505770E+03  0.00000000000E+00 0.  1.
          2   -1    0    0  501    0  0.00000000000E+00 -0.00000000000E+00 -0.71924485294E+03  0.71924485294E+03  0.00000000000E+00 0. -1.
         23    2    1    2    0    0 -0.11525532647E+03 -0.22168579402E+03 -0.62410280554E+03  0.67839819537E+03  0.91057224028E+02 0.  0.
          5    1    3    3  502    0 -0.11114637704E+03 -0.17996338860E+03 -0.57992426966E+03  0.61731239004E+03  0.47000000000E+01 0. -1.
         -5    1    1    2    0  503  0.10015161871E+03  0.18035476435E+03  0.23461104693E+03  0.31244618912E+03  0.47000000000E+01 0.  1.
          5    1    1    2  503    0  0.15103707761E+02  0.41331029667E+02 -0.12238036630E+02  0.45915526154E+02  0.47000000000E+01 0. -1.
         -5    1    3    3    0  502 -0.41089494345E+01 -0.41722405421E+02 -0.44178535885E+02  0.61085805328E+02  0.47000000000E+01 0.  1.
<mgrwt>
<rscale>  0 0.27717105E+03</rscale>
<asrwt>0</asrwt>
<pdfrwt beam="1">  1        2 0.11065305E+00 0.28102200E+03</pdfrwt>
<pdfrwt beam="2">  1       -2 0.48848470E-01 0.28102200E+03</pdfrwt>
<totfact> 0.16480889E+02</totfact>
</mgrwt>
</event>
<event>
 8    1  0.3400573E-004  0.1009374E+03  0.7546771E-02  0.1279202E+00
         -4   -1    0    0    0  501 -0.00000000000E+00  0.00000000000E+00  0.18103673526E+03  0.18103673526E+03  0.00000000000E+00 0.  1.
          4   -1    0    0  501    0  0.00000000000E+00 -0.00000000000E+00 -0.61008639814E+02  0.61008639814E+02  0.00000000000E+00 0. -1.
         23    2    1    2    0    0  0.23533814308E+02 -0.32634082807E+02  0.97285147002E+02  0.14018826176E+03  0.92571729662E+02 0.  0.
         23    2    1    2    0    0 -0.23533814308E+02  0.32634082807E+02  0.22742948449E+02  0.10185711331E+03  0.90767869052E+02 0.  0.
          5    1    3    3  502    0  0.76340554672E+01 -0.60748900866E+02  0.85958576670E+02  0.10563936133E+03  0.47000000000E+01 0. -1.
         -5    1    3    3    0  502  0.15899758840E+02  0.28114818058E+02  0.11326570332E+02  0.34548900433E+02  0.47000000000E+01 0.  1.
          5    1    4    4  503    0 -0.57513615631E+02  0.15591941309E+02  0.21531975019E+02  0.63534561972E+02  0.47000000000E+01 0.  1.
         -5    1    4    4    0  503  0.33979801323E+02  0.17042141498E+02  0.12109734298E+01  0.38322551343E+02  0.47000000000E+01 0. -1.
<mgrwt>
<rscale>  0 0.10052185E+03</rscale>
<asrwt>0</asrwt>
<pdfrwt beam="1">  1        4 0.93859446E-02 0.10093735E+03</pdfrwt>
<pdfrwt beam="2">  1       -4 0.27851805E-01 0.10093735E+03</pdfrwt>
<totfact> 0.15870392E+03</totfact>
</mgrwt>
</event>
<event>
 8    1  0.3400573E-004  0.1140314E+03  0.7546771E-02  0.1253632E+00
         -1   -1    0    0    0  501 -0.00000000000E+00  0.00000000000E+00  0.23897256595E+02  0.23897256595E+02  0.00000000000E+00 0.  1.
          1   -1    0    0  501    0  0.00000000000E+00 -0.00000000000E+00 -0.56489026859E+03  0.56489026859E+03  0.00000000000E+00 0. -1.
         23    2    1    2    0    0 -0.54002825707E+02  0.36461955030E+02 -0.33275283543E+03  0.35174935246E+03  0.93580864083E+02 0.  0.
         23    2    1    2    0    0  0.54002825707E+02 -0.36461955030E+02 -0.20824017656E+03  0.23703817272E+03  0.92613955981E+02 0.  0.
          5    1    3    3  502    0 -0.35087298904E+01 -0.29450936731E+02 -0.70588570316E+02  0.76710528085E+02  0.47000000000E+01 0. -1.
         -5    1    4    4    0  503  0.42227916108E+02 -0.11310729177E+01 -0.23589972816E+02  0.48611243990E+02  0.47000000000E+01 0.  1.
          5    1    4    4  503    0  0.11774909599E+02 -0.35330882112E+02 -0.18465020375E+03  0.18842692873E+03  0.47000000000E+01 0. -1.
         -5    1    3    3    0  502 -0.50494095817E+02  0.65912891761E+02 -0.26216426512E+03  0.27503882438E+03  0.47000000000E+01 0.  1.
<mgrwt>
<rscale>  0 0.11383283E+03</rscale>
<asrwt>0</asrwt>
<pdfrwt beam="1">  1        1 0.86906185E-01 0.11403139E+03</pdfrwt>
<pdfrwt beam="2">  1       -1 0.36765014E-02 0.11403139E+03</pdfrwt>
<totfact> 0.10051200E+04</totfact>
</mgrwt>
</event>
<event>
 8    1  0.3400573E-004  0.1031741E+03  0.7546771E-02  0.1276024E+00
          2   -1    0    0  501    0  0.00000000000E+00  0.00000000000E+00  0.73560391512E+02  0.73560391512E+02  0.00000000000E+00 0. -1.
         -2   -1    0    0    0  501 -0.00000000000E+00 -0.00000000000E+00 -0.18332430666E+03  0.18332430666E+03  0.00000000000E+00 0.  1.
         23    2    1    2    0    0 -0.39307328923E+02  0.19991684053E+02 -0.11919775188E+03  0.15764832877E+03  0.93274637349E+02 0.  0.
         23    2    1    2    0    0  0.39307328923E+02 -0.19991684053E+02  0.94338367339E+01  0.99236369400E+02  0.88397546334E+02 0.  0.
          5    1    3    3  502    0 -0.33548280903E+01 -0.27098389652E+02 -0.39609468140E+01  0.27988510016E+02  0.47000000000E+01 0. -1.
         -5    1    3    3    0  502 -0.35952500833E+02  0.47090073705E+02 -0.11523680506E+03  0.12965981875E+03  0.47000000000E+01 0.  1.
          5    1    4    4  503    0  0.28031332087E+02 -0.38043228208E+02  0.39728592362E+02  0.61915214949E+02  0.47000000000E+01 0. -1.
         -5    1    4    4    0  503  0.11275996836E+02  0.18051544155E+02 -0.30294755628E+02  0.37321154452E+02  0.47000000000E+01 0.  1.
<mgrwt>
<rscale>  0 0.10205936E+03</rscale>
<asrwt>0</asrwt>
<pdfrwt beam="1">  1        2 0.11316983E-01 0.10317408E+03</pdfrwt>
<pdfrwt beam="2">  1       -2 0.28203739E-01 0.10317408E+03</pdfrwt>
<totfact> 0.58373028E+03</totfact>
</mgrwt>
</event>
<event>
 8    1  0.5512509E-004  0.9741032E+02  0.7546771E-02  0.1285908E+00
          1   -1    0    0  501    0  0.00000000000E+00  0.00000000000E+00  0.27151232821E+03  0.27151232821E+03  0.00000000000E+00 0. -1.
         -1   -1    0    0    0  501 -0.00000000000E+00 -0.00000000000E+00 -0.13907701200E+03  0.13907701200E+03  0.00000000000E+00 0.  1.
         23    2    1    2    0    0 -0.33430025338E+02 -0.55362013445E+01  0.24388406465E+03  0.26257044459E+03  0.91189830924E+02 0.  0.
         23    2    1    2    0    0  0.33430025338E+02  0.55362013445E+01 -0.11144874843E+03  0.14801889562E+03  0.91326632550E+02 0.  0.
          5    1    3    3  502    0 -0.64057367875E+02 -0.10379117220E+02  0.14749954106E+03  0.16121190113E+03  0.47000000000E+01 0. -1.
         -5    1    3    3    0  502  0.30627342537E+02  0.48429158760E+01  0.96384523589E+02  0.10135854346E+03  0.47000000000E+01 0.  1.
          5    1    4    4  503    0  0.65030896599E+01  0.45931547097E+02 -0.39572040975E+02  0.61155814285E+02  0.47000000000E+01 0. -1.
         -5    1    4    4    0  503  0.26926935678E+02 -0.40395345753E+02 -0.71876707458E+02  0.86863081332E+02  0.47000000000E+01 0.  1.
<mgrwt>
<rscale>  0 0.97378240E+02</rscale>
<asrwt>0</asrwt>
<pdfrwt beam="1">  1        1 0.41771127E-01 0.97410317E+02</pdfrwt>
<pdfrwt beam="2">  1       -1 0.21396463E-01 0.97410317E+02</pdfrwt>
<totfact> 0.17391869E+03</totfact>
</mgrwt>
</event>
<event>
 8    1  0.3400573E-004  0.1207942E+03  0.7546771E-02  0.1243933E+00
         -1   -1    0    0    0  501 -0.00000000000E+00  0.00000000000E+00  0.11504280320E+03  0.11504280320E+03  0.00000000000E+00 0.  1.
          1   -1    0    0  501    0  0.00000000000E+00 -0.00000000000E+00 -0.12220266600E+03  0.12220266600E+03  0.00000000000E+00 0. -1.
         23    2    1    2    0    0 -0.31954100152E+02 -0.64203800728E+02  0.53643199579E+01  0.11580369077E+03  0.90766328132E+02 0.  0.
         23    2    1    2    0    0  0.31954100152E+02  0.64203800728E+02 -0.12524182758E+02  0.12144177843E+03  0.97201120624E+02 0.  0.
          5    1    3    3  502    0  0.94146911076E+00  0.20827776396E+02  0.11562783066E+02  0.24299600531E+02  0.47000000000E+01 0. -1.
         -5    1    3    3    0  502 -0.32895569262E+02 -0.85031577124E+02 -0.61984631085E+01  0.91504090238E+02  0.47000000000E+01 0.  1.
          5    1    4    4  503    0 -0.18883828268E+02  0.49162107850E+02 -0.35273305775E+02  0.63559483309E+02  0.47000000000E+01 0. -1.
         -5    1    4    4    0  503  0.50837928419E+02  0.15041692878E+02  0.22749123017E+02  0.57882295123E+02  0.47000000000E+01 0.  1.
<mgrwt>
<rscale>  0 0.11949471E+03</rscale>
<asrwt>0</asrwt>
<pdfrwt beam="1">  1        1 0.18800410E-01 0.12079425E+03</pdfrwt>
<pdfrwt beam="2">  1       -1 0.17698893E-01 0.12079425E+03</pdfrwt>
<totfact> 0.64153392E+03</totfact>
</mgrwt>
</event>
<event>
 8    1  0.3400573E-004  0.1909667E+03  0.7546771E-02  0.1158360E+00
         -2   -1    0    0    0  501 -0.00000000000E+00  0.00000000000E+00  0.59279024755E+02  0.59279024755E+02  0.00000000000E+00 0.  1.
          2   -1    0    0  501    0  0.00000000000E+00 -0.00000000000E+00 -0.85898682621E+03  0.85898682621E+03  0.00000000000E+00 0. -1.
         23    2    1    2    0    0 -0.87626761127E+02 -0.14315603951E+03 -0.64732370341E+03  0.67395210180E+03  0.83733849880E+02 0.  0.
         23    2    1    2    0    0  0.87626761127E+02  0.14315603951E+03 -0.15238409805E+03  0.24431374917E+03  0.91083444038E+02 0.  0.
          5    1    3    3  502    0 -0.48564218515E+02 -0.90270054587E+02 -0.52563980288E+03  0.53556181571E+03  0.47000000000E+01 0. -1.
         -5    1    3    3    0  502 -0.39062542613E+02 -0.52885984927E+02 -0.12168390053E+03  0.13839028609E+03  0.47000000000E+01 0.  1.
          5    1    4    4  503    0  0.78289708408E+02  0.55778517401E+02 -0.47265257079E+02  0.10722227368E+03  0.47000000000E+01 0. -1.
         -5    1    4    4    0  503  0.93370527191E+01  0.87377522113E+02 -0.10511884097E+03  0.13709147549E+03  0.47000000000E+01 0.  1.
<mgrwt>
<rscale>  0 0.19011247E+03</rscale>
<asrwt>0</asrwt>
<pdfrwt beam="1">  1        2 0.13215181E+00 0.19096674E+03</pdfrwt>
<pdfrwt beam="2">  1       -2 0.91198504E-02 0.19096674E+03</pdfrwt>
<totfact> 0.24676788E+03</totfact>
</mgrwt>
</event>
<event>
 8    1  0.3400573E-004  0.9601885E+02  0.7546771E-02  0.1290525E+00
          2   -1    0    0  501    0  0.00000000000E+00  0.00000000000E+00  0.32192429997E+02  0.32192429997E+02  0.00000000000E+00 0. -1.
         -2   -1    0    0    0  501 -0.00000000000E+00 -0.00000000000E+00 -0.27978408819E+03  0.27978408819E+03  0.00000000000E+00 0.  1.
         23    2    1    2    0    0 -0.35694808700E+01 -0.94799663648E+01 -0.11272290936E+03  0.14807455566E+03  0.95483028765E+02 0.  0.
         23    2    1    2    0    0  0.35694808700E+01  0.94799663648E+01 -0.13486874883E+03  0.16390196253E+03  0.92583275779E+02 0.  0.
          5    1    4    4  502    0  0.93821460523E+01  0.43098194675E+02 -0.11695116207E+03  0.12508054748E+03  0.47000000000E+01 0. -1.
         -5    1    3    3    0  503 -0.65601548667E+01 -0.37123691435E+02 -0.11367876400E+03  0.11985889822E+03  0.47000000000E+01 0.  1.
          5    1    3    3  503    0  0.29906739968E+01  0.27643725070E+02  0.95585463570E+00  0.28215657441E+02  0.47000000000E+01 0. -1.
         -5    1    4    4    0  502 -0.58126651824E+01 -0.33618228310E+02 -0.17917586768E+02  0.38821415054E+02  0.47000000000E+01 0.  1.
<mgrwt>
<rscale>  0 0.95289823E+02</rscale>
<asrwt>0</asrwt>
<pdfrwt beam="1">  1        2 0.49526816E-02 0.96018851E+02</pdfrwt>
<pdfrwt beam="2">  1       -2 0.43043706E-01 0.96018851E+02</pdfrwt>
<totfact> 0.75019432E+03</totfact>
</mgrwt>
</event>
<event>
 8    1  0.3400573E-004  0.1180575E+03  0.7546771E-02  0.1246371E+00
          2   -1    0    0  501    0  0.00000000000E+00  0.00000000000E+00  0.18983862123E+03  0.18983862123E+03  0.00000000000E+00 0. -1.
         -2   -1    0    0    0  501 -0.00000000000E+00 -0.00000000000E+00 -0.13256789013E+03  0.13256789013E+03  0.00000000000E+00 0.  1.
         23    2    1    2    0    0 -0.27768050573E+02  0.51339235543E+02  0.13635585738E+03  0.18030785213E+03  0.10252424083E+03 0.  0.
         23    2    1    2    0    0  0.27768050573E+02 -0.51339235543E+02 -0.79085126281E+02  0.14209865924E+03  0.10261963759E+03 0.  0.
          5    1    4    4  502    0  0.33746478134E+01 -0.73742154820E+02 -0.79573826399E+02  0.10864334997E+03  0.47000000000E+01 0. -1.
         -5    1    4    4    0  502  0.24393402759E+02  0.22402919278E+02  0.48870011765E+00  0.33455309267E+02  0.47000000000E+01 0.  1.
          5    1    3    3  503    0 -0.68224544305E+01 -0.20992962111E+02  0.87634768208E+02  0.90494159710E+02  0.47000000000E+01 0. -1.
         -5    1    3    3    0  503 -0.20945596142E+02  0.72332197653E+02  0.48721089175E+02  0.89813692416E+02  0.47000000000E+01 0.  1.
<mgrwt>
<rscale>  0 0.11803676E+03</rscale>
<asrwt>0</asrwt>
<pdfrwt beam="1">  1        2 0.29205942E-01 0.11805749E+03</pdfrwt>
<pdfrwt beam="2">  1       -2 0.20395060E-01 0.11805749E+03</pdfrwt>
<totfact> 0.35069943E+03</totfact>
</mgrwt>
</event>
<event>
 8    1  0.3400573E-004  0.2595007E+03  0.7546771E-02  0.1109773E+00
          1   -1    0    0  501    0  0.00000000000E+00  0.00000000000E+00  0.33794367708E+03  0.33794367708E+03  0.00000000000E+00 0. -1.
         -1   -1    0    0    0  501 -0.00000000000E+00 -0.00000000000E+00 -0.37087845371E+03  0.37087845371E+03  0.00000000000E+00 0.  1.
         23    2    1    2    0    0 -0.95525938023E+01 -0.22922039560E+03 -0.26558016739E+03  0.37131311973E+03  0.12127392861E+03 0.  0.
         23    2    1    2    0    0  0.95525938023E+01  0.22922039560E+03  0.23264539076E+03  0.33750901107E+03  0.84588491525E+02 0.  0.
          5    1    3    3  502    0 -0.31680456181E+02 -0.32023579776E+01 -0.37478889337E+02  0.49403072237E+02  0.47000000000E+01 0. -1.
         -5    1    3    3    0  502  0.22127862379E+02 -0.22601803763E+03 -0.22810127805E+03  0.32191004749E+03  0.47000000000E+01 0.  1.
          5    1    4    4  503    0  0.16273021705E+02  0.11735848195E+03  0.17503377736E+03  0.21141602999E+03  0.47000000000E+01 0. -1.
         -5    1    4    4    0  503 -0.67204279028E+01  0.11186191365E+03  0.57611613408E+02  0.12609298108E+03  0.47000000000E+01 0.  1.
<mgrwt>
<rscale>  0 0.25567075E+03</rscale>
<asrwt>0</asrwt>
<pdfrwt beam="1">  1        1 0.51991335E-01 0.25950069E+03</pdfrwt>
<pdfrwt beam="2">  1       -1 0.57058224E-01 0.25950069E+03</pdfrwt>
<totfact> 0.24321382E+02</totfact>
</mgrwt>
</event>
<event>
 8    1  0.3400573E-004  0.1050273E+03  0.7546771E-02  0.1270841E+00
         -1   -1    0    0    0  501 -0.00000000000E+00  0.00000000000E+00  0.36020220650E+03  0.36020220650E+03  0.00000000000E+00 0.  1.
          1   -1    0    0  501    0  0.00000000000E+00 -0.00000000000E+00 -0.67915018391E+03  0.67915018391E+03  0.00000000000E+00 0. -1.
         23    2    1    2    0    0 -0.20560511706E+02  0.41085191336E+02  0.34858075584E+03  0.36361179978E+03  0.92705285774E+02 0.  0.
         23    2    1    2    0    0  0.20560511706E+02 -0.41085191336E+02 -0.66752873325E+03  0.67574059063E+03  0.94445796794E+02 0.  0.
          5    1    3    3  502    0  0.26872259523E+02 -0.67043497868E+01  0.48631870773E+02  0.56162402841E+02  0.47000000000E+01 0. -1.
         -5    1    3    3    0  502 -0.47432771229E+02  0.47789541123E+02  0.29994888507E+03  0.30744939694E+03  0.47000000000E+01 0.  1.
          5    1    4    4  503    0  0.52430851578E+02 -0.35955022939E+02 -0.55282681768E+03  0.55649019597E+03  0.47000000000E+01 0. -1.
         -5    1    4    4    0  503 -0.31870339873E+02 -0.51301683976E+01 -0.11470191557E+03  0.11925039466E+03  0.47000000000E+01 0.  1.
<mgrwt>
<rscale>  0 0.10463453E+03</rscale>
<asrwt>0</asrwt>
<pdfrwt beam="1">  1        1 0.10448464E+00 0.10502731E+03</pdfrwt>
<pdfrwt beam="2">  1       -1 0.55415724E-01 0.10502731E+03</pdfrwt>
<totfact> 0.10619030E+02</totfact>
</mgrwt>
</event>
<event>
 8    1  0.3400573E-004  0.1826284E+03  0.7546771E-02  0.1165462E+00
         -2   -1    0    0    0  501 -0.00000000000E+00  0.00000000000E+00  0.28002398915E+03  0.28002398915E+03  0.00000000000E+00 0.  1.
          2   -1    0    0  501    0  0.00000000000E+00 -0.00000000000E+00 -0.24681076903E+03  0.24681076903E+03  0.00000000000E+00 0. -1.
         23    2    1    2    0    0  0.17648410493E+02  0.15742571844E+03  0.20643178049E+03  0.27512501068E+03  0.89360887891E+02 0.  0.
         23    2    1    2    0    0 -0.17648410493E+02 -0.15742571844E+03 -0.17321856037E+03  0.25170974751E+03  0.90877962760E+02 0.  0.
          5    1    3    3  502    0  0.27117277897E+02  0.36815931989E+01  0.30832182109E+02  0.41492340771E+02  0.47000000000E+01 0. -1.
         -5    1    3    3    0  502 -0.94688674043E+01  0.15374412524E+03  0.17559959838E+03  0.23363266990E+03  0.47000000000E+01 0.  1.
          5    1    4    4  503    0 -0.92160147346E+01 -0.13870257929E+03 -0.18185142635E+03  0.22894403616E+03  0.47000000000E+01 0. -1.
         -5    1    4    4    0  503 -0.84323957584E+01 -0.18723139151E+02  0.86328659837E+01  0.22765711344E+02  0.47000000000E+01 0.  1.
<mgrwt>
<rscale>  0 0.18244056E+03</rscale>
<asrwt>0</asrwt>
<pdfrwt beam="1">  1        2 0.37970888E-01 0.18262839E+03</pdfrwt>
<pdfrwt beam="2">  1       -2 0.43080614E-01 0.18262839E+03</pdfrwt>
<totfact> 0.69713051E+02</totfact>
</mgrwt>
</event>
<event>
 8    1  0.3400573E-004  0.1027024E+03  0.7546771E-02  0.1275044E+00
          1   -1    0    0  501    0  0.00000000000E+00  0.00000000000E+00  0.61602946089E+02  0.61602946089E+02  0.00000000000E+00 0. -1.
         -1   -1    0    0    0  501 -0.00000000000E+00 -0.00000000000E+00 -0.21386839216E+03  0.21386839216E+03  0.00000000000E+00 0.  1.
         23    2    1    2    0    0  0.28191567485E+02  0.27741910903E+02 -0.14044880870E+02  0.10365829586E+03  0.94780828884E+02 0.  0.
         23    2    1    2    0    0 -0.28191567485E+02 -0.27741910903E+02 -0.13822056520E+03  0.17181304239E+03  0.94076664445E+02 0.  0.
          5    1    4    4  502    0 -0.14418970383E+02  0.34601308751E+02 -0.45521555246E+02  0.59156227619E+02  0.47000000000E+01 0. -1.
         -5    1    3    3    0  503 -0.18580848242E+02  0.10899144854E+02  0.29893552801E+02  0.37145037071E+02  0.47000000000E+01 0.  1.
          5    1    3    3  503    0  0.46772415727E+02  0.16842766049E+02 -0.43938433670E+02  0.66513258788E+02  0.47000000000E+01 0. -1.
         -5    1    4    4    0  502 -0.13772597102E+02 -0.62343219653E+02 -0.92699009955E+02  0.11265681477E+03  0.47000000000E+01 0.  1.
<mgrwt>
<rscale>  0 0.10253964E+03</rscale>
<asrwt>0</asrwt>
<pdfrwt beam="1">  1        1 0.94773764E-02 0.10270240E+03</pdfrwt>
<pdfrwt beam="2">  1       -1 0.32902829E-01 0.10270240E+03</pdfrwt>
<totfact> 0.56019776E+03</totfact>
</mgrwt>
</event>
<event>
 8    1  0.3400573E-004  0.9262462E+02  0.7546771E-02  0.1296651E+00
          1   -1    0    0  501    0  0.00000000000E+00  0.00000000000E+00  0.19723413083E+03  0.19723413083E+03  0.00000000000E+00 0. -1.
         -1   -1    0    0    0  501 -0.00000000000E+00 -0.00000000000E+00 -0.45284239777E+02  0.45284239777E+02  0.00000000000E+00 0.  1.
         23    2    1    2    0    0  0.21087046311E+01 -0.17293852958E+01  0.51734802028E+02  0.10609339793E+03  0.92584458390E+02 0.  0.
         23    2    1    2    0    0 -0.21087046311E+01  0.17293852958E+01  0.10021508902E+03  0.13642497267E+03  0.92527140298E+02 0.  0.
          5    1    4    4  502    0 -0.19477828403E+02  0.17462592401E+02  0.10805045934E+03  0.11127137861E+03  0.47000000000E+01 0. -1.
         -5    1    3    3    0  503  0.44299513062E+01 -0.46490709114E+02  0.20258984020E+02  0.51122665580E+02  0.47000000000E+01 0.  1.
          5    1    3    3  503    0 -0.23212466751E+01  0.44761323818E+02  0.31475818008E+02  0.54970732353E+02  0.47000000000E+01 0. -1.
         -5    1    4    4    0  502  0.17369123772E+02 -0.15733207106E+02 -0.78353703183E+01  0.25153594067E+02  0.47000000000E+01 0.  1.
<mgrwt>
<rscale>  0 0.92610289E+02</rscale>
<asrwt>0</asrwt>
<pdfrwt beam="1">  1        1 0.30343712E-01 0.92624615E+02</pdfrwt>
<pdfrwt beam="2">  1       -1 0.69668062E-02 0.92624615E+02</pdfrwt>
<totfact> 0.14335460E+04</totfact>
</mgrwt>
</event>
<event>
 8    1  0.3400573E-004  0.1277721E+03  0.7546771E-02  0.1231249E+00
          2   -1    0    0  501    0  0.00000000000E+00  0.00000000000E+00  0.29242796928E+03  0.29242796928E+03  0.00000000000E+00 0. -1.
         -2   -1    0    0    0  501 -0.00000000000E+00 -0.00000000000E+00 -0.67104314441E+02  0.67104314441E+02  0.00000000000E+00 0.  1.
         23    2    1    2    0    0  0.79185778150E+02  0.37795799406E+02  0.37743108688E+02  0.13323011544E+03  0.92880630336E+02 0.  0.
         23    2    1    2    0    0 -0.79185778150E+02 -0.37795799406E+02  0.18758054615E+03  0.22630216829E+03  0.91254041896E+02 0.  0.
          5    1    4    4  502    0 -0.46120304303E+01 -0.48075449066E+02  0.96759306623E+02  0.10824496776E+03  0.47000000000E+01 0. -1.
         -5    1    3    3    0  503  0.81247784795E+02 -0.63022267520E+01  0.13787071475E+02  0.82783415827E+02  0.47000000000E+01 0.  1.
          5    1    3    3  503    0 -0.20620066452E+01  0.44098026158E+02  0.23956037213E+02  0.50446699608E+02  0.47000000000E+01 0. -1.
         -5    1    4    4    0  502 -0.74573747719E+02  0.10279649660E+02  0.90821239528E+02  0.11805720052E+03  0.47000000000E+01 0.  1.
<mgrwt>
<rscale>  0 0.12747675E+03</rscale>
<asrwt>0</asrwt>
<pdfrwt beam="1">  1        2 0.44988917E-01 0.12777215E+03</pdfrwt>
<pdfrwt beam="2">  1       -2 0.10323741E-01 0.12777215E+03</pdfrwt>
<totfact> 0.67287587E+03</totfact>
</mgrwt>
</event>
<event>
 8    1  0.3400573E-004  0.1077467E+03  0.7546771E-02  0.1266611E+00
          1   -1    0    0  501    0  0.00000000000E+00  0.00000000000E+00  0.45502481892E+03  0.45502481892E+03  0.00000000000E+00 0. -1.
         -1   -1    0    0    0  501 -0.00000000000E+00 -0.00000000000E+00 -0.24649623958E+02  0.24649623958E+02  0.00000000000E+00 0.  1.
         23    2    1    2    0    0 -0.51111813389E+02  0.21294109444E+02  0.21674993408E+03  0.24041494104E+03  0.88050856802E+02 0.  0.
         23    2    1    2    0    0  0.51111813389E+02 -0.21294109444E+02  0.21362526088E+03  0.23925950184E+03  0.92431058474E+02 0.  0.
          5    1    3    3  502    0 -0.38564097309E+02  0.45988767379E+02  0.76339670126E+02  0.97221353423E+02  0.47000000000E+01 0. -1.
         -5    1    4    4    0  503  0.36346574859E+02 -0.42486596717E+02  0.55328434236E+02  0.78800444412E+02  0.47000000000E+01 0.  1.
          5    1    4    4  503    0  0.14765238529E+02  0.21192487273E+02  0.15829682664E+03  0.16045905743E+03  0.47000000000E+01 0. -1.
         -5    1    3    3    0  502 -0.12547716080E+02 -0.24694657935E+02  0.14041026396E+03  0.14319358761E+03  0.47000000000E+01 0.  1.
<mgrwt>
<rscale>  0 0.10680104E+03</rscale>
<asrwt>0</asrwt>
<pdfrwt beam="1">  1        1 0.70003812E-01 0.10774673E+03</pdfrwt>
<pdfrwt beam="2">  1       -1 0.37922502E-02 0.10774673E+03</pdfrwt>
<totfact> 0.12667653E+04</totfact>
</mgrwt>
</event>
<event>
 8    1  0.3400573E-004  0.1160324E+03  0.7546771E-02  0.1250023E+00
          3   -1    0    0  501    0  0.00000000000E+00  0.00000000000E+00  0.39894651988E+02  0.39894651988E+02  0.00000000000E+00 0. -1.
         -3   -1    0    0    0  501 -0.00000000000E+00 -0.00000000000E+00 -0.34710903795E+03  0.34710903795E+03  0.00000000000E+00 0.  1.
         23    2    1    2    0    0  0.13781346164E+00 -0.70741314819E+02 -0.18801709673E+03  0.22065614317E+03  0.91292673522E+02 0.  0.
         23    2    1    2    0    0 -0.13781346164E+00  0.70741314819E+02 -0.11919728922E+03  0.16634754677E+03  0.91973691573E+02 0.  0.
          5    1    3    3  502    0 -0.19547455892E+02 -0.12990352124E+02 -0.10830923450E+01  0.23960704689E+02  0.47000000000E+01 0. -1.
         -5    1    4    4    0  503 -0.22551279725E+02  0.67434039166E+01 -0.88622913627E+02  0.91815818535E+02  0.47000000000E+01 0.  1.
          5    1    4    4  503    0  0.22413466263E+02  0.63997910902E+02 -0.30574375598E+02  0.74531728230E+02  0.47000000000E+01 0. -1.
         -5    1    3    3    0  502  0.19685269354E+02 -0.57750962694E+02 -0.18693400439E+03  0.19669543848E+03  0.47000000000E+01 0.  1.
<mgrwt>
<rscale>  0 0.11589738E+03</rscale>
<asrwt>0</asrwt>
<pdfrwt beam="1">  1        3 0.61376385E-02 0.11603238E+03</pdfrwt>
<pdfrwt beam="2">  1       -3 0.53401393E-01 0.11603238E+03</pdfrwt>
<totfact> 0.12861797E+03</totfact>
</mgrwt>
</event>
<event>
 8    1  0.3400573E-004  0.1058905E+03  0.7546771E-02  0.1269524E+00
         -2   -1    0    0    0  501 -0.00000000000E+00  0.00000000000E+00  0.12604970059E+03  0.12604970059E+03  0.00000000000E+00 0.  1.
          2   -1    0    0  501    0  0.00000000000E+00 -0.00000000000E+00 -0.87455517326E+02  0.87455517326E+02  0.00000000000E+00 0. -1.
         23    2    1    2    0    0  0.35935036152E+02  0.35069448648E+02  0.11447146018E+02  0.10419025169E+03  0.90572503241E+02 0.  0.
         23    2    1    2    0    0 -0.35935036152E+02 -0.35069448648E+02  0.27147037249E+02  0.10931496623E+03  0.93228789324E+02 0.  0.
          5    1    3    3  502    0  0.64779417298E+02  0.35522290498E+02  0.11777861207E+02  0.74960082993E+02  0.47000000000E+01 0. -1.
         -5    1    4    4    0  503  0.27904924640E+02 -0.20583377427E+02 -0.64539002246E+01  0.35582342159E+02  0.47000000000E+01 0. -1.
          5    1    4    4  503    0 -0.63839960791E+02 -0.14486071222E+02  0.33600937474E+02  0.73732624071E+02  0.47000000000E+01 0.  1.
         -5    1    3    3    0  502 -0.28844381147E+02 -0.45284184965E+00 -0.33071518871E+00  0.29230168696E+02  0.47000000000E+01 0.  1.
<mgrwt>
<rscale>  0 0.10530289E+03</rscale>
<asrwt>0</asrwt>
<pdfrwt beam="1">  1        2 0.13454695E-01 0.10589051E+03</pdfrwt>
<pdfrwt beam="2">  1       -2 0.19392262E-01 0.10589051E+03</pdfrwt>
<totfact> 0.90707545E+03</totfact>
</mgrwt>
</event>
<event>
 8    1  0.3400573E-004  0.9360875E+02  0.7546771E-02  0.1295169E+00
         -2   -1    0    0    0  501 -0.00000000000E+00  0.00000000000E+00  0.19530962974E+02  0.19530962974E+02  0.00000000000E+00 0.  1.
          2   -1    0    0  501    0  0.00000000000E+00 -0.00000000000E+00 -0.55071659055E+03  0.55071659055E+03  0.00000000000E+00 0. -1.
         23    2    1    2    0    0 -0.21036395897E+02  0.52397736315E+01 -0.39073650197E+03  0.40146202522E+03  0.89592179028E+02 0.  0.
         23    2    1    2    0    0  0.21036395897E+02 -0.52397736315E+01 -0.14044912560E+03  0.16878552830E+03  0.91063782596E+02 0.  0.
          5    1    4    4  502    0 -0.18452253750E+02  0.32982780445E+02 -0.50134948567E+02  0.62959928066E+02  0.47000000000E+01 0. -1.
         -5    1    4    4    0  502  0.39488649646E+02 -0.38222554076E+02 -0.90314177037E+02  0.10582560023E+03  0.47000000000E+01 0.  1.
          5    1    3    3  503    0 -0.15075812722E+02  0.37321047015E+02 -0.32889410284E+03  0.33138129332E+03  0.47000000000E+01 0. -1.
         -5    1    3    3    0  503 -0.59605831745E+01 -0.32081273384E+02 -0.61842399134E+02  0.70080731905E+02  0.47000000000E+01 0.  1.
<mgrwt>
<rscale>  0 0.93248937E+02</rscale>
<asrwt>0</asrwt>
<pdfrwt beam="1">  1        2 0.84725628E-01 0.93608748E+02</pdfrwt>
<pdfrwt beam="2">  1       -2 0.30047636E-02 0.93608748E+02</pdfrwt>
<totfact> 0.21402859E+04</totfact>
</mgrwt>
</event>
<event>
 8    1  0.3400573E-004  0.1001810E+03  0.7546771E-02  0.1281735E+00
         -1   -1    0    0    0  501 -0.00000000000E+00  0.00000000000E+00  0.25786411445E+02  0.25786411445E+02  0.00000000000E+00 0.  1.
          1   -1    0    0  501    0  0.00000000000E+00 -0.00000000000E+00 -0.38568908225E+03  0.38568908225E+03  0.00000000000E+00 0. -1.
         23    2    1    2    0    0  0.28866974041E+02  0.13909372270E+02 -0.15053179411E+03  0.18082047554E+03  0.94918125298E+02 0.  0.
         23    2    1    2    0    0 -0.28866974041E+02 -0.13909372270E+02 -0.20937087670E+03  0.23065501816E+03  0.91317033263E+02 0.  0.
          5    1    4    4  502    0 -0.19438682215E+02 -0.35008507428E+02 -0.20194520054E+03  0.20593059991E+03  0.47000000000E+01 0. -1.
         -5    1    3    3    0  503  0.47833751212E+02  0.40223005851E+02 -0.70462951057E+02  0.94303104012E+02  0.47000000000E+01 0.  1.
          5    1    3    3  503    0 -0.18966777171E+02 -0.26313633581E+02 -0.80068843054E+02  0.86517371531E+02  0.47000000000E+01 0. -1.
         -5    1    4    4    0  502 -0.94282918255E+01  0.21099135158E+02 -0.74256761590E+01  0.24724418246E+02  0.47000000000E+01 0.  1.
<mgrwt>
<rscale>  0 0.99318617E+02</rscale>
<asrwt>0</asrwt>
<pdfrwt beam="1">  1        1 0.59336783E-01 0.10018095E+03</pdfrwt>
<pdfrwt beam="2">  1       -1 0.39671402E-02 0.10018095E+03</pdfrwt>
<totfact> 0.14506448E+04</totfact>
</mgrwt>
</event>
<event>
 8    1  0.3400573E-004  0.1253718E+03  0.7546771E-02  0.1234606E+00
          1   -1    0    0  501    0  0.00000000000E+00  0.00000000000E+00  0.16990448125E+03  0.16990448125E+03  0.00000000000E+00 0. -1.
         -1   -1    0    0    0  501 -0.00000000000E+00 -0.00000000000E+00 -0.13566329590E+03  0.13566329590E+03  0.00000000000E+00 0.  1.
         23    2    1    2    0    0 -0.64313887553E+02 -0.55129544645E+02 -0.69252954295E+02  0.14322727165E+03  0.92425845096E+02 0.  0.
         23    2    1    2    0    0  0.64313887553E+02  0.55129544645E+02  0.10349413965E+03  0.16234050550E+03  0.92020975658E+02 0.  0.
          5    1    3    3  502    0 -0.37598705377E+02  0.21391831407E+02 -0.31339997438E+02  0.53624234600E+02  0.47000000000E+01 0. -1.
         -5    1    3    3    0  502 -0.26715182176E+02 -0.76521376052E+02 -0.37912956857E+02  0.89603037054E+02  0.47000000000E+01 0.  1.
          5    1    4    4  503    0  0.10965861731E+02  0.47613019041E+02  0.95897990995E+02  0.10773005329E+03  0.47000000000E+01 0. -1.
         -5    1    4    4    0  503  0.53348025822E+02  0.75165256037E+01  0.75961486516E+01  0.54610452210E+02  0.47000000000E+01 0.  1.
<mgrwt>
<rscale>  0 0.12529716E+03</rscale>
<asrwt>0</asrwt>
<pdfrwt beam="1">  1        1 0.26139151E-01 0.12537177E+03</pdfrwt>
<pdfrwt beam="2">  1       -1 0.20871276E-01 0.12537177E+03</pdfrwt>
<totfact> 0.32632678E+03</totfact>
</mgrwt>
</event>
<event>
 8    1  0.3400573E-004  0.9788736E+02  0.7546771E-02  0.1285681E+00
         -2   -1    0    0    0  501 -0.00000000000E+00  0.00000000000E+00  0.25561183437E+02  0.25561183437E+02  0.00000000000E+00 0.  1.
          2   -1    0    0  501    0  0.00000000000E+00 -0.00000000000E+00 -0.58670971134E+03  0.58670971134E+03  0.00000000000E+00 0. -1.
         23    2    1    2    0    0 -0.21358776139E+02 -0.31156944207E+02 -0.92516148331E+02  0.13352436155E+03  0.88558257299E+02 0.  0.
         23    2    1    2    0    0  0.21358776139E+02  0.31156944207E+02 -0.46863237957E+03  0.47874653323E+03  0.90304946706E+02 0.  0.
          5    1    4    4  502    0  0.28136342013E+02  0.57963968598E+02 -0.38879850966E+03  0.39412922565E+03  0.47000000000E+01 0. -1.
         -5    1    4    4    0  502 -0.67775658738E+01 -0.26807024392E+02 -0.79833869919E+02  0.84617307580E+02  0.47000000000E+01 0.  1.
          5    1    3    3  503    0 -0.46727377603E+02 -0.29904843504E+01 -0.80915857559E+02  0.93604790576E+02  0.47000000000E+01 0. -1.
         -5    1    3    3    0  503  0.25368601463E+02 -0.28166459857E+02 -0.11600290773E+02  0.39919570978E+02  0.47000000000E+01 0.  1.
<mgrwt>
<rscale>  0 0.97482602E+02</rscale>
<asrwt>0</asrwt>
<pdfrwt beam="1">  1        2 0.90263026E-01 0.97887363E+02</pdfrwt>
<pdfrwt beam="2">  1       -2 0.39324900E-02 0.97887363E+02</pdfrwt>
<totfact> 0.13512547E+04</totfact>
</mgrwt>
</event>
<event>
 8    1  0.3400573E-004  0.9017943E+02  0.7546771E-02  0.1304011E+00
         -1   -1    0    0    0  501 -0.00000000000E+00  0.00000000000E+00  0.20426912818E+03  0.20426912818E+03  0.00000000000E+00 0.  1.
          1   -1    0    0  501    0  0.00000000000E+00 -0.00000000000E+00 -0.12192904460E+03  0.12192904460E+03  0.00000000000E+00 0. -1.
         23    2    1    2    0    0  0.10585658575E+01 -0.81123170845E+00  0.17574804884E+03  0.19636221112E+03  0.87572613457E+02 0.  0.
         23    2    1    2    0    0 -0.10585658575E+01  0.81123170845E+00 -0.93407965261E+02  0.12983596166E+03  0.90169564201E+02 0.  0.
          5    1    4    4  502    0  0.43743831197E+02 -0.10859129609E+01 -0.36125228445E+02  0.56937018757E+02  0.47000000000E+01 0. -1.
         -5    1    4    4    0  502 -0.44802397054E+02  0.18971446694E+01 -0.57282736817E+02  0.72898942907E+02  0.47000000000E+01 0.  1.
          5    1    3    3  503    0  0.29567900351E+02  0.29444965614E+02  0.11645894212E+03  0.12379839228E+03  0.47000000000E+01 0. -1.
         -5    1    3    3    0  503 -0.28509334493E+02 -0.30256197322E+02  0.59289106721E+02  0.72563818846E+02  0.47000000000E+01 0.  1.
<mgrwt>
<rscale>  0 0.89523132E+02</rscale>
<asrwt>0</asrwt>
<pdfrwt beam="1">  1        1 0.18758315E-01 0.90179427E+02</pdfrwt>
<pdfrwt beam="2">  1       -1 0.31426020E-01 0.90179427E+02</pdfrwt>
<totfact> 0.24869561E+03</totfact>
</mgrwt>
</event>
<event>
 8    1  0.3400573E-004  0.1154717E+03  0.7546771E-02  0.1251882E+00
          1   -1    0    0  501    0  0.00000000000E+00  0.00000000000E+00  0.57336061348E+03  0.57336061348E+03  0.00000000000E+00 0. -1.
         -1   -1    0    0    0  501 -0.00000000000E+00 -0.00000000000E+00 -0.25821260077E+02  0.25821260077E+02  0.00000000000E+00 0.  1.
         23    2    1    2    0    0  0.16287344227E+02 -0.68225315503E+02  0.16765133702E+03  0.20213197895E+03  0.88489518316E+02 0.  0.
         23    2    1    2    0    0 -0.16287344227E+02  0.68225315503E+02  0.37988801639E+03  0.39704989461E+03  0.91726455063E+02 0.  0.
          5    1    4    4  502    0  0.31295266804E+02  0.57474696159E+02  0.19322261613E+03  0.20405833432E+03  0.47000000000E+01 0. -1.
         -5    1    3    3    0  503  0.32211080026E+02 -0.31322923720E+02  0.20664559666E+02  0.49676888519E+02  0.47000000000E+01 0.  1.
          5    1    3    3  503    0 -0.15923735799E+02 -0.36902391783E+02  0.14698677735E+03  0.15245509043E+03  0.47000000000E+01 0. -1.
         -5    1    4    4    0  502 -0.47582611031E+02  0.10750619344E+02  0.18666540025E+03  0.19299156028E+03  0.47000000000E+01 0.  1.
<mgrwt>
<rscale>  0 0.11482779E+03</rscale>
<asrwt>0</asrwt>
<pdfrwt beam="1">  1        1 0.88209315E-01 0.11547170E+03</pdfrwt>
<pdfrwt beam="2">  1       -1 0.39725020E-02 0.11547170E+03</pdfrwt>
<totfact> 0.88083358E+03</totfact>
</mgrwt>
</event>
<event>
 8    1  0.3400573E-004  0.1057378E+03  0.7546771E-02  0.1270692E+00
          4   -1    0    0  501    0  0.00000000000E+00  0.00000000000E+00  0.25471137957E+02  0.25471137957E+02  0.00000000000E+00 0. -1.
         -4   -1    0    0    0  501 -0.00000000000E+00 -0.00000000000E+00 -0.43945160851E+03  0.43945160851E+03  0.00000000000E+00 0.  1.
         23    2    1    2    0    0  0.21894547855E+02  0.39481843994E+02 -0.16494148728E+03  0.19592388804E+03  0.95615314922E+02 0.  0.
         23    2    1    2    0    0 -0.21894547855E+02 -0.39481843994E+02 -0.24903898327E+03  0.26899885843E+03  0.91114123026E+02 0.  0.
          5    1    3    3  502    0  0.35856901082E+01  0.68657108278E+02 -0.90359415392E+02  0.11363788823E+03  0.47000000000E+01 0. -1.
         -5    1    3    3    0  502  0.18308857747E+02 -0.29175264285E+02 -0.74582071890E+02  0.82285999815E+02  0.47000000000E+01 0.  1.
          5    1    4    4  503    0  0.23695474194E+02 -0.13674698435E+02 -0.20560203739E+02  0.34543955366E+02  0.47000000000E+01 0. -1.
         -5    1    4    4    0  503 -0.45590022049E+02 -0.25807145559E+02 -0.22847877953E+03  0.23445490306E+03  0.47000000000E+01 0.  1.
<mgrwt>
<rscale>  0 0.10470985E+03</rscale>
<asrwt>0</asrwt>
<pdfrwt beam="1">  1        4 0.39186367E-02 0.10573777E+03</pdfrwt>
<pdfrwt beam="2">  1       -4 0.67607938E-01 0.10573777E+03</pdfrwt>
<totfact> 0.11342746E+03</totfact>
</mgrwt>
</event>
<event>
 8    1  0.3400573E-004  0.9709534E+02  0.7546771E-02  0.1287450E+00
         -2   -1    0    0    0  501 -0.00000000000E+00  0.00000000000E+00  0.26494611536E+03  0.26494611536E+03  0.00000000000E+00 0.  1.
          2   -1    0    0  501    0  0.00000000000E+00 -0.00000000000E+00 -0.36542279734E+02  0.36542279734E+02  0.00000000000E+00 0. -1.
         23    2    1    2    0    0 -0.24615966348E+01 -0.10344297075E+02  0.14640189679E+03  0.17567304877E+03  0.96511350313E+02 0.  0.
         23    2    1    2    0    0  0.24615966348E+01  0.10344297075E+02  0.82001938831E+02  0.12581534632E+03  0.94826786608E+02 0.  0.
          5    1    4    4  502    0  0.82458837513E+01  0.51227594331E+02  0.57415325477E+02  0.77529804717E+02  0.47000000000E+01 0. -1.
         -5    1    4    4    0  502 -0.57842871165E+01 -0.40883297256E+02  0.24586613353E+02  0.48285541606E+02  0.47000000000E+01 0.  1.
          5    1    3    3  503    0  0.33506678602E+02  0.25765752450E+02  0.44008859070E+02  0.61200009697E+02  0.47000000000E+01 0. -1.
         -5    1    3    3    0  503 -0.35968275237E+02 -0.36110049525E+02  0.10239303772E+03  0.11447303907E+03  0.47000000000E+01 0.  1.
<mgrwt>
<rscale>  0 0.96674041E+02</rscale>
<asrwt>0</asrwt>
<pdfrwt beam="1">  1        2 0.56218894E-02 0.97095338E+02</pdfrwt>
<pdfrwt beam="2">  1       -2 0.40760940E-01 0.97095338E+02</pdfrwt>
<totfact> 0.70739170E+03</totfact>
</mgrwt>
</event>
<event>
 8    1  0.3400573E-004  0.1404760E+03  0.7546771E-02  0.1213414E+00
         -1   -1    0    0    0  501 -0.00000000000E+00  0.00000000000E+00  0.53449873740E+03  0.53449873740E+03  0.00000000000E+00 0.  1.
          1   -1    0    0  501    0  0.00000000000E+00 -0.00000000000E+00 -0.48234417942E+02  0.48234417942E+02  0.00000000000E+00 0. -1.
         23    2    1    2    0    0 -0.58749556112E+02  0.85780591161E+02  0.38629663723E+03  0.41031786905E+03  0.91246049589E+02 0.  0.
         23    2    1    2    0    0  0.58749556112E+02 -0.85780591161E+02  0.99967682235E+02  0.17241528630E+03  0.94465196202E+02 0.  0.
          5    1    3    3  502    0 -0.57058032416E+02  0.60342210154E+02  0.14138829456E+03  0.16404127904E+03  0.47000000000E+01 0. -1.
         -5    1    4    4    0  503  0.83545549849E+02 -0.56134219010E+02  0.63714792259E+02  0.11921650136E+03  0.47000000000E+01 0.  1.
          5    1    4    4  503    0 -0.24795993737E+02 -0.29646372151E+02  0.36252889976E+02  0.53198784937E+02  0.47000000000E+01 0. -1.
         -5    1    3    3    0  502 -0.16915236964E+01  0.25438381007E+02  0.24490834267E+03  0.24627659002E+03  0.47000000000E+01 0.  1.
<mgrwt>
<rscale>  0 0.13993680E+03</rscale>
<asrwt>0</asrwt>
<pdfrwt beam="1">  1        1 0.74206801E-02 0.14047595E+03</pdfrwt>
<pdfrwt beam="2">  1       -1 0.82230571E-01 0.14047595E+03</pdfrwt>
<totfact> 0.14529781E+03</totfact>
</mgrwt>
</event>
<event>
 8    1  0.3400573E-004  0.1050609E+03  0.7546771E-02  0.1271378E+00
          1   -1    0    0  501    0  0.00000000000E+00  0.00000000000E+00  0.57474032346E+03  0.57474032346E+03  0.00000000000E+00 0. -1.
         -1   -1    0    0    0  501 -0.00000000000E+00 -0.00000000000E+00 -0.30505448015E+02  0.30505448015E+02  0.00000000000E+00 0.  1.
         23    2    1    2    0    0  0.53085460225E+01  0.47069468259E+02  0.86118866842E+02  0.13584640516E+03  0.93776708552E+02 0.  0.
         23    2    1    2    0    0 -0.53085460225E+01 -0.47069468259E+02  0.45811600861E+03  0.46939936632E+03  0.90673988830E+02 0.  0.
          5    1    4    4  502    0 -0.31359753905E+02 -0.63533361443E+02  0.32860510473E+03  0.33618942136E+03  0.47000000000E+01 0. -1.
         -5    1    4    4    0  502  0.26051207883E+02  0.16463893183E+02  0.12951090388E+03  0.13320994495E+03  0.47000000000E+01 0.  1.
          5    1    3    3  503    0 -0.25945270892E+02 -0.16902819815E+02  0.13713891779E+02  0.34190981664E+02  0.47000000000E+01 0. -1.
         -5    1    3    3    0  503  0.31253816915E+02  0.63972288075E+02  0.72404975062E+02  0.10165542350E+03  0.47000000000E+01 0.  1.
<mgrwt>
<rscale>  0 0.10436399E+03</rscale>
<asrwt>0</asrwt>
<pdfrwt beam="1">  1        1 0.88421580E-01 0.10506087E+03</pdfrwt>
<pdfrwt beam="2">  1       -1 0.46931463E-02 0.10506087E+03</pdfrwt>
<totfact> 0.68357398E+03</totfact>
</mgrwt>
</event>
<event>
 8    1  0.3400573E-004  0.9232476E+02  0.7546771E-02  0.1297979E+00
         -3   -1    0    0    0  501 -0.00000000000E+00  0.00000000000E+00  0.21635602169E+03  0.21635602169E+03  0.00000000000E+00 0.  1.
          3   -1    0    0  501    0  0.00000000000E+00 -0.00000000000E+00 -0.39198977828E+02  0.39198977828E+02  0.00000000000E+00 0. -1.
         23    2    1    2    0    0  0.50187902614E+01  0.17229557320E+02  0.98833085494E+02  0.13448268811E+03  0.89417944014E+02 0.  0.
         23    2    1    2    0    0 -0.50187902614E+01 -0.17229557320E+02  0.78323958368E+02  0.12107231141E+03  0.90563879303E+02 0.  0.
          5    1    4    4  502    0 -0.22691553484E+02 -0.42602105863E+02  0.75413583904E+02  0.89661277376E+02  0.47000000000E+01 0. -1.
         -5    1    4    4    0  502  0.17672763223E+02  0.25372548543E+02  0.29103744640E+01  0.31411034033E+02  0.47000000000E+01 0.  1.
          5    1    3    3  503    0 -0.36961978205E+02  0.34200181227E+01  0.16442391073E+02  0.40869629078E+02  0.47000000000E+01 0. -1.
         -5    1    3    3    0  503  0.41980768467E+02  0.13809539197E+02  0.82390694421E+02  0.93613059031E+02  0.47000000000E+01 0.  1.
<mgrwt>
<rscale>  0 0.92042521E+02</rscale>
<asrwt>0</asrwt>
<pdfrwt beam="1">  1        3 0.60306121E-02 0.92324764E+02</pdfrwt>
<pdfrwt beam="2">  1       -3 0.33285541E-01 0.92324764E+02</pdfrwt>
<totfact> 0.31543819E+03</totfact>
</mgrwt>
</event>
<event>
 8    1  0.3400573E-004  0.1324440E+03  0.7546771E-02  0.1224037E+00
          1   -1    0    0  501    0  0.00000000000E+00  0.00000000000E+00  0.15389811135E+03  0.15389811135E+03  0.00000000000E+00 0. -1.
         -1   -1    0    0    0  501 -0.00000000000E+00 -0.00000000000E+00 -0.14286307273E+03  0.14286307273E+03  0.00000000000E+00 0.  1.
         23    2    1    2    0    0  0.68589388812E+02 -0.67204615141E+02  0.72672922201E+02  0.15067685441E+03  0.90560456483E+02 0.  0.
         23    2    1    2    0    0 -0.68589388812E+02  0.67204615141E+02 -0.61637883586E+02  0.14608432967E+03  0.91216435634E+02 0.  0.
          5    1    4    4  502    0 -0.73910138236E+01 -0.20624050805E+02 -0.23185141733E+02  0.32243128789E+02  0.47000000000E+01 0. -1.
         -5    1    4    4    0  502 -0.61198374988E+02  0.87828665945E+02 -0.38452741853E+02  0.11384120088E+03  0.47000000000E+01 0.  1.
          5    1    3    3  503    0  0.33244928999E+02 -0.42996710886E+02  0.89167151455E+02  0.10453139887E+03  0.47000000000E+01 0. -1.
         -5    1    3    3    0  503  0.35344459812E+02 -0.24207904254E+02 -0.16494229254E+02  0.46145455535E+02  0.47000000000E+01 0.  1.
<mgrwt>
<rscale>  0 0.13233108E+03</rscale>
<asrwt>0</asrwt>
<pdfrwt beam="1">  1        1 0.23676632E-01 0.13244396E+03</pdfrwt>
<pdfrwt beam="2">  1       -1 0.21978934E-01 0.13244396E+03</pdfrwt>
<totfact> 0.34083657E+03</totfact>
</mgrwt>
</event>
<event>
 8    1  0.3400573E-004  0.1045526E+03  0.7546771E-02  0.1271097E+00
         -1   -1    0    0    0  501 -0.00000000000E+00  0.00000000000E+00  0.65495188792E+02  0.65495188792E+02  0.00000000000E+00 0.  1.
          1   -1    0    0  501    0  0.00000000000E+00 -0.00000000000E+00 -0.21524080832E+03  0.21524080832E+03  0.00000000000E+00 0. -1.
         23    2    1    2    0    0 -0.22551594877E+02 -0.44543920006E+02 -0.14165064078E+03  0.17605722896E+03  0.91861355284E+02 0.  0.
         23    2    1    2    0    0  0.22551594877E+02  0.44543920006E+02 -0.80949787539E+01  0.10467876816E+03  0.91648134630E+02 0.  0.
          5    1    4    4  502    0 -0.71003327352E+01 -0.21578480549E+02  0.15984683751E+02  0.28171717420E+02  0.47000000000E+01 0.  1.
         -5    1    3    3    0  503  0.87983925192E+01 -0.60904315126E+02 -0.11827236874E+03  0.13340611125E+03  0.47000000000E+01 0.  1.
          5    1    3    3  503    0 -0.31349987396E+02  0.16360395119E+02 -0.23378272040E+02  0.42651117708E+02  0.47000000000E+01 0. -1.
         -5    1    4    4    0  502  0.29651927612E+02  0.66122400555E+02 -0.24079662505E+02  0.76507050738E+02  0.47000000000E+01 0. -1.
<mgrwt>
<rscale>  0 0.10450574E+03</rscale>
<asrwt>0</asrwt>
<pdfrwt beam="1">  1        1 0.33113971E-01 0.10455259E+03</pdfrwt>
<pdfrwt beam="2">  1       -1 0.10076183E-01 0.10455259E+03</pdfrwt>
<totfact> 0.74838776E+03</totfact>
</mgrwt>
</event>
<event>
 8    1  0.3400573E-004  0.9976929E+02  0.7546771E-02  0.1281073E+00
          1   -1    0    0  501    0  0.00000000000E+00  0.00000000000E+00  0.52596941120E+03  0.52596941120E+03  0.00000000000E+00 0. -1.
         -1   -1    0    0    0  501 -0.00000000000E+00 -0.00000000000E+00 -0.21944946565E+02  0.21944946565E+02  0.00000000000E+00 0.  1.
         23    2    1    2    0    0 -0.13975043826E+02 -0.34622094094E+02  0.14924163952E+03  0.17951873949E+03  0.92519833613E+02 0.  0.
         23    2    1    2    0    0  0.13975043826E+02  0.34622094094E+02  0.35478282511E+03  0.36839561827E+03  0.91926532185E+02 0.  0.
          5    1    3    3  502    0 -0.66262522200E+01  0.31680892828E+02  0.54302101999E+02  0.63390807459E+02  0.47000000000E+01 0. -1.
         -5    1    4    4    0  503 -0.26372761006E+02  0.30730180116E+02  0.72476342397E+02  0.83155136344E+02  0.47000000000E+01 0.  1.
          5    1    4    4  503    0  0.40347804832E+02  0.38919139789E+01  0.28230648271E+03  0.28524048193E+03  0.47000000000E+01 0. -1.
         -5    1    3    3    0  502 -0.73487916058E+01 -0.66302986922E+02  0.94939537526E+02  0.11612793203E+03  0.47000000000E+01 0.  1.
<mgrwt>
<rscale>  0 0.99631517E+02</rscale>
<asrwt>0</asrwt>
<pdfrwt beam="1">  1        1 0.80918362E-01 0.99769288E+02</pdfrwt>
<pdfrwt beam="2">  1       -1 0.33761460E-02 0.99769288E+02</pdfrwt>
<totfact> 0.12366924E+04</totfact>
</mgrwt>
</event>
<event>
 8    1  0.3400573E-004  0.1209317E+03  0.7546771E-02  0.1248817E+00
          1   -1    0    0  501    0  0.00000000000E+00  0.00000000000E+00  0.85847043224E+02  0.85847043224E+02  0.00000000000E+00 0. -1.
         -1   -1    0    0    0  501 -0.00000000000E+00 -0.00000000000E+00 -0.16707797448E+03  0.16707797448E+03  0.00000000000E+00 0.  1.
         23    2    1    2    0    0 -0.16360848569E+02  0.78336546622E+02 -0.85867313662E+02  0.14831614308E+03  0.90665268097E+02 0.  0.
         23    2    1    2    0    0  0.16360848569E+02 -0.78336546622E+02  0.46363824013E+01  0.10460887463E+03  0.67210331850E+02 0.  0.
          5    1    3    3  502    0 -0.48944099426E+02  0.52453850505E+02 -0.77309909231E+02  0.10557387635E+03  0.47000000000E+01 0. -1.
         -5    1    3    3    0  502  0.32583250857E+02  0.25882696117E+02 -0.85574044312E+01  0.42742266731E+02  0.47000000000E+01 0.  1.
          5    1    4    4  503    0 -0.23372219107E+02 -0.48732912164E+02  0.74358086836E+01  0.54758913473E+02  0.47000000000E+01 0. -1.
         -5    1    4    4    0  503  0.39733067675E+02 -0.29603634458E+02 -0.27994262822E+01  0.49849961159E+02  0.47000000000E+01 0.  1.
<mgrwt>
<rscale>  0 0.11659786E+03</rscale>
<asrwt>0</asrwt>
<pdfrwt beam="1">  1        1 0.13207237E-01 0.12093173E+03</pdfrwt>
<pdfrwt beam="2">  1       -1 0.25704304E-01 0.12093173E+03</pdfrwt>
<totfact> 0.55374783E+03</totfact>
</mgrwt>
</event>
<event>
 8    1  0.3400573E-004  0.1025301E+03  0.7546771E-02  0.1275508E+00
          2   -1    0    0  501    0  0.00000000000E+00  0.00000000000E+00  0.66522543759E+03  0.66522543759E+03  0.00000000000E+00 0. -1.
         -2   -1    0    0    0  501 -0.00000000000E+00 -0.00000000000E+00 -0.22776665008E+02  0.22776665008E+02  0.00000000000E+00 0.  1.
         23    2    1    2    0    0 -0.35598911499E+02  0.22862750135E+02  0.51433058299E+03  0.52445053308E+03  0.93393924883E+02 0.  0.
         23    2    1    2    0    0  0.35598911499E+02 -0.22862750135E+02  0.12811818960E+03  0.16355156953E+03  0.92438398646E+02 0.  0.
          5    1    4    4  502    0 -0.25106805914E+02 -0.23563438680E-01  0.76700852218E+01  0.26669691894E+02  0.47000000000E+01 0. -1.
         -5    1    4    4    0  502  0.60705717413E+02 -0.22839186696E+02  0.12044810438E+03  0.13688187763E+03  0.47000000000E+01 0.  1.
          5    1    3    3  503    0 -0.23177466256E+02  0.55485999268E+02  0.40808969359E+03  0.41252294369E+03  0.47000000000E+01 0. -1.
         -5    1    3    3    0  503 -0.12421445243E+02 -0.32623249133E+02  0.10624088940E+03  0.11192758939E+03  0.47000000000E+01 0.  1.
<mgrwt>
<rscale>  0 0.10231196E+03</rscale>
<asrwt>0</asrwt>
<pdfrwt beam="1">  1        2 0.10234236E+00 0.10253006E+03</pdfrwt>
<pdfrwt beam="2">  1       -2 0.35041028E-02 0.10253006E+03</pdfrwt>
<totfact> 0.13934123E+04</totfact>
</mgrwt>
</event>
<event>
 8    1  0.3400573E-004  0.9361350E+02  0.7546771E-02  0.1295632E+00
         -4   -1    0    0    0  501 -0.00000000000E+00  0.00000000000E+00  0.11376420991E+03  0.11376420991E+03  0.00000000000E+00 0.  1.
          4   -1    0    0  501    0  0.00000000000E+00 -0.00000000000E+00 -0.19383985748E+03  0.19383985748E+03  0.00000000000E+00 0. -1.
         23    2    1    2    0    0  0.22901238952E+01 -0.14444701867E+02  0.80095164504E+02  0.12320196283E+03  0.92464015641E+02 0.  0.
         23    2    1    2    0    0 -0.22901238952E+01  0.14444701867E+02 -0.16017081207E+03  0.18440210456E+03  0.90197300660E+02 0.  0.
          5    1    4    4  502    0  0.37952967800E+02  0.13569578786E+01 -0.33819741255E+02  0.51069893265E+02  0.47000000000E+01 0. -1.
         -5    1    4    4    0  502 -0.40243091696E+02  0.13087743988E+02 -0.12635107081E+03  0.13333221129E+03  0.47000000000E+01 0.  1.
          5    1    3    3  503    0 -0.16737618634E+02  0.28174254721E+02  0.33762054189E+01  0.33277999785E+02  0.47000000000E+01 0. -1.
         -5    1    3    3    0  503  0.19027742530E+02 -0.42618956588E+02  0.76718959085E+02  0.89923963044E+02  0.47000000000E+01 0.  1.
<mgrwt>
<rscale>  0 0.93048868E+02</rscale>
<asrwt>0</asrwt>
<pdfrwt beam="1">  1        4 0.29821516E-01 0.93613505E+02</pdfrwt>
<pdfrwt beam="2">  1       -4 0.17502186E-01 0.93613505E+02</pdfrwt>
<totfact> 0.47307331E+02</totfact>
</mgrwt>
</event>
<event>
 7    1  0.3400573E-004  0.2849394E+03  0.7546771E-02  0.1136909E+00
         -1   -1    0    0    0  501 -0.00000000000E+00  0.00000000000E+00  0.13184295125E+03  0.13184295125E+03  0.00000000000E+00 0.  1.
          1   -1    0    0  501    0  0.00000000000E+00 -0.00000000000E+00 -0.95841843934E+03  0.95841843934E+03  0.00000000000E+00 0. -1.
         23    2    1    2    0    0  0.19273294817E+02 -0.73120582238E+01  0.90136684397E+02  0.13028656366E+03  0.91788020497E+02 0.  0.
          5    1    1    2  502    0  0.86156378182E+02 -0.10108029908E+03 -0.46376648630E+03  0.48243299243E+03  0.47000000000E+01 0. -1.
         -5    1    3    3    0  503  0.85235039492E+01  0.42065396585E+02  0.37837481446E+02  0.57410040164E+02  0.47000000000E+01 0.  1.
          5    1    3    3  503    0  0.10749790868E+02 -0.49377454809E+02  0.52299202951E+02  0.72876523493E+02  0.47000000000E+01 0. -1.
         -5    1    1    2    0  502 -0.10542967300E+03  0.10839235730E+03 -0.45294568619E+03  0.47754183451E+03  0.47000000000E+01 0.  1.
<mgrwt>
<rscale>  0 0.21598922E+03</rscale>
<asrwt>0</asrwt>
<pdfrwt beam="1">  1        1 0.14744900E+00 0.28493940E+03</pdfrwt>
<pdfrwt beam="2">  1       -1 0.20283530E-01 0.28493940E+03</pdfrwt>
<totfact> 0.34063756E+02</totfact>
</mgrwt>
</event>
<event>
 8    1  0.3400573E-004  0.1148699E+03  0.7546771E-02  0.1257786E+00
         -1   -1    0    0    0  501 -0.00000000000E+00  0.00000000000E+00  0.22022014871E+02  0.22022014871E+02  0.00000000000E+00 0.  1.
          1   -1    0    0  501    0  0.00000000000E+00 -0.00000000000E+00 -0.60183579375E+03  0.60183579375E+03  0.00000000000E+00 0. -1.
         23    2    1    2    0    0  0.68986095190E+02 -0.47088000361E+01 -0.40961336763E+03  0.42541532173E+03  0.91726936550E+02 0.  0.
         23    2    1    2    0    0 -0.68986095190E+02  0.47088000361E+01 -0.17020041124E+03  0.19844248689E+03  0.75033235894E+02 0.  0.
          5    1    4    4  502    0 -0.17572366641E+02  0.36551157256E+02 -0.58556235477E+02  0.71384157061E+02  0.47000000000E+01 0. -1.
         -5    1    4    4    0  502 -0.51413728549E+02 -0.31842357219E+02 -0.11164417577E+03  0.12705832983E+03  0.47000000000E+01 0.  1.
          5    1    3    3  503    0  0.74112516048E+01  0.33144777900E+02 -0.21585029147E+03  0.21855649448E+03  0.47000000000E+01 0. -1.
         -5    1    3    3    0  503  0.61574843585E+02 -0.37853577936E+02 -0.19376307616E+03  0.20685882725E+03  0.47000000000E+01 0.  1.
<mgrwt>
<rscale>  0 0.11151734E+03</rscale>
<asrwt>0</asrwt>
<pdfrwt beam="1">  1        1 0.92590105E-01 0.11486986E+03</pdfrwt>
<pdfrwt beam="2">  1       -1 0.33880029E-02 0.11486986E+03</pdfrwt>
<totfact> 0.10403981E+04</totfact>
</mgrwt>
</event>
<event>
 8    1  0.3400573E-004  0.1026564E+03  0.7546771E-02  0.1274974E+00
          3   -1    0    0  501    0  0.00000000000E+00  0.00000000000E+00  0.85038009626E+03  0.85038009626E+03  0.00000000000E+00 0. -1.
         -3   -1    0    0    0  501 -0.00000000000E+00 -0.00000000000E+00 -0.13390110322E+02  0.13390110322E+02  0.00000000000E+00 0.  1.
         23    2    1    2    0    0 -0.17439771885E+02 -0.42864283252E+02  0.29890987114E+03  0.31604657744E+03  0.91634249174E+02 0.  0.
         23    2    1    2    0    0  0.17439771885E+02  0.42864283252E+02  0.53808011480E+03  0.54772362915E+03  0.91265938680E+02 0.  0.
          5    1    3    3  502    0  0.35493338920E+02 -0.13612585510E+02  0.77084309484E+02  0.86076479717E+02  0.47000000000E+01 0. -1.
         -5    1    3    3    0  502 -0.52933110806E+02 -0.29251697743E+02  0.22182556166E+03  0.22997009772E+03  0.47000000000E+01 0.  1.
          5    1    4    4  503    0  0.62904667832E+01 -0.26763048424E+02  0.22757220878E+03  0.22927501160E+03  0.47000000000E+01 0. -1.
         -5    1    4    4    0  503  0.11149305102E+02  0.69627331677E+02  0.31050790602E+03  0.31844861755E+03  0.47000000000E+01 0.  1.
<mgrwt>
<rscale>  0 0.10257410E+03</rscale>
<asrwt>0</asrwt>
<pdfrwt beam="1">  1        3 0.13082766E+00 0.10265636E+03</pdfrwt>
<pdfrwt beam="2">  1       -3 0.20600176E-02 0.10265636E+03</pdfrwt>
<totfact> 0.96874525E+02</totfact>
</mgrwt>
</event>
<event>
 8    1  0.3400573E-004  0.1265275E+03  0.7546771E-02  0.1232917E+00
          2   -1    0    0  501    0  0.00000000000E+00  0.00000000000E+00  0.10602664165E+04  0.10602664165E+04  0.00000000000E+00 0. -1.
         -2   -1    0    0    0  501 -0.00000000000E+00 -0.00000000000E+00 -0.16281916319E+02  0.16281916319E+02  0.00000000000E+00 0.  1.
         23    2    1    2    0    0  0.79210014167E+02 -0.33230768776E+02  0.37181300133E+03  0.39257192402E+03  0.92137382414E+02 0.  0.
         23    2    1    2    0    0 -0.79210014167E+02  0.33230768776E+02  0.67217149884E+03  0.68397640878E+03  0.92901526244E+02 0.  0.
          5    1    3    3  502    0 -0.99680600492E+01 -0.34928068289E+02  0.11164248650E+03  0.11749666790E+03  0.47000000000E+01 0. -1.
         -5    1    4    4    0  503 -0.43419560979E+02  0.63430883452E+02  0.34900922911E+03  0.35740490659E+03  0.47000000000E+01 0.  1.
          5    1    4    4  503    0 -0.35790453188E+02 -0.30200114676E+02  0.32316226973E+03  0.32657150219E+03  0.47000000000E+01 0. -1.
         -5    1    3    3    0  502  0.89178074216E+02  0.16972995131E+01  0.26017051483E+03  0.27507525612E+03  0.47000000000E+01 0.  1.
<mgrwt>
<rscale>  0 0.12638725E+03</rscale>
<asrwt>0</asrwt>
<pdfrwt beam="1">  1        2 0.16311786E+00 0.12652748E+03</pdfrwt>
<pdfrwt beam="2">  1       -2 0.25049110E-02 0.12652748E+03</pdfrwt>
<totfact> 0.12803045E+04</totfact>
</mgrwt>
</event>
<event>
 8    1  0.3400573E-004  0.1086138E+03  0.7546771E-02  0.1264506E+00
          1   -1    0    0  501    0  0.00000000000E+00  0.00000000000E+00  0.45061771422E+03  0.45061771422E+03  0.00000000000E+00 0. -1.
         -1   -1    0    0    0  501 -0.00000000000E+00 -0.00000000000E+00 -0.63647037130E+02  0.63647037130E+02  0.00000000000E+00 0.  1.
         23    2    1    2    0    0  0.26276513577E+02 -0.50766751363E+02  0.39151455029E+03  0.40555595386E+03  0.89018371209E+02 0.  0.
         23    2    1    2    0    0 -0.26276513577E+02  0.50766751363E+02 -0.45438731957E+01  0.10870879749E+03  0.92353871923E+02 0.  0.
          5    1    4    4  502    0  0.22069749189E+02  0.27079794309E+02  0.28531289263E+02  0.45348798839E+02  0.47000000000E+01 0. -1.
         -5    1    3    3    0  503 -0.23378902427E+02 -0.31815426218E+02  0.78167041800E+02  0.87698180414E+02  0.47000000000E+01 0.  1.
          5    1    3    3  503    0  0.49655416003E+02 -0.18951325145E+02  0.31334750849E+03  0.31785777344E+03  0.47000000000E+01 0. -1.
         -5    1    4    4    0  502 -0.48346262766E+02  0.23686957054E+02 -0.33075162459E+02  0.63359998655E+02  0.47000000000E+01 0.  1.
<mgrwt>
<rscale>  0 0.10790142E+03</rscale>
<asrwt>0</asrwt>
<pdfrwt beam="1">  1        1 0.69325800E-01 0.10861379E+03</pdfrwt>
<pdfrwt beam="2">  1       -1 0.97918522E-02 0.10861379E+03</pdfrwt>
<totfact> 0.31428632E+03</totfact>
</mgrwt>
</event>
<event>
 8    1  0.3400573E-004  0.9267655E+02  0.7546771E-02  0.1296985E+00
         -1   -1    0    0    0  501 -0.00000000000E+00  0.00000000000E+00  0.39022564254E+03  0.39022564254E+03  0.00000000000E+00 0.  1.
          1   -1    0    0  501    0  0.00000000000E+00 -0.00000000000E+00 -0.22030951805E+02  0.22030951805E+02  0.00000000000E+00 0. -1.
         23    2    1    2    0    0 -0.11774195543E+02  0.72248393393E+01  0.16273141650E+03  0.18685894708E+03  0.90796047292E+02 0.  0.
         23    2    1    2    0    0  0.11774195543E+02 -0.72248393393E+01  0.20546327423E+03  0.22539764726E+03  0.91641215337E+02 0.  0.
          5    1    4    4  502    0  0.37005895542E+02  0.28342833556E+02  0.12905406257E+03  0.13729455045E+03  0.47000000000E+01 0. -1.
         -5    1    3    3    0  503 -0.13906564165E+02  0.45918418928E+02  0.11812691843E+03  0.12758507977E+03  0.47000000000E+01 0.  1.
          5    1    3    3  503    0  0.21323686222E+01 -0.38693579588E+02  0.44604498078E+02  0.59273867312E+02  0.47000000000E+01 0. -1.
         -5    1    4    4    0  502 -0.25231699999E+02 -0.35567672895E+02  0.76409211664E+02  0.88103096808E+02  0.47000000000E+01 0.  1.
<mgrwt>
<rscale>  0 0.92466927E+02</rscale>
<asrwt>0</asrwt>
<pdfrwt beam="1">  1        1 0.33893775E-02 0.92676547E+02</pdfrwt>
<pdfrwt beam="2">  1       -1 0.60034709E-01 0.92676547E+02</pdfrwt>
<totfact> 0.76222575E+03</totfact>
</mgrwt>
</event>
<event>
 8    1  0.3400573E-004  0.1154104E+03  0.7546771E-02  0.1251555E+00
         -3   -1    0    0    0  501 -0.00000000000E+00  0.00000000000E+00  0.36282642738E+02  0.36282642738E+02  0.00000000000E+00 0.  1.
          3   -1    0    0  501    0  0.00000000000E+00 -0.00000000000E+00 -0.90859598177E+03  0.90859598177E+03  0.00000000000E+00 0. -1.
         23    2    1    2    0    0  0.64829714245E+02 -0.19665073742E+02 -0.68571763120E+02  0.13289335321E+03  0.91481963547E+02 0.  0.
         23    2    1    2    0    0 -0.64829714245E+02  0.19665073742E+02 -0.80374157591E+03  0.81198527130E+03  0.93434217447E+02 0.  0.
          5    1    3    3  502    0  0.12195108041E+02 -0.49448374617E+02 -0.43920996088E+02  0.67416661960E+02  0.47000000000E+01 0. -1.
         -5    1    4    4    0  503 -0.26703235191E+02  0.54324452472E+02 -0.52334296160E+03  0.52685306715E+03  0.47000000000E+01 0.  1.
          5    1    4    4  503    0 -0.38126479054E+02 -0.34659378730E+02 -0.28039861431E+03  0.28513220415E+03  0.47000000000E+01 0. -1.
         -5    1    3    3    0  502  0.52634606204E+02  0.29783300875E+02 -0.24650767032E+02  0.65476691246E+02  0.47000000000E+01 0.  1.
<mgrwt>
<rscale>  0 0.11501468E+03</rscale>
<asrwt>0</asrwt>
<pdfrwt beam="1">  1        3 0.13978400E+00 0.11541040E+03</pdfrwt>
<pdfrwt beam="2">  1       -3 0.55819451E-02 0.11541040E+03</pdfrwt>
<totfact> 0.17989411E+02</totfact>
</mgrwt>
</event>
<event>
 8    1  0.3400573E-004  0.9710263E+02  0.7546771E-02  0.1286572E+00
         -1   -1    0    0    0  501 -0.00000000000E+00  0.00000000000E+00  0.68601734922E+02  0.68601734922E+02  0.00000000000E+00 0.  1.
          1   -1    0    0  501    0  0.00000000000E+00 -0.00000000000E+00 -0.14738957605E+03  0.14738957605E+03  0.00000000000E+00 0. -1.
         23    2    1    2    0    0  0.31155484329E+02  0.12077197502E+02 -0.11133723659E+02  0.97738841182E+02  0.91172355294E+02 0.  0.
         23    2    1    2    0    0 -0.31155484329E+02 -0.12077197502E+02 -0.67654117465E+02  0.11825246979E+03  0.91049679282E+02 0.  0.
          5    1    4    4  502    0 -0.58511872641E+02 -0.11733332213E+01 -0.66071217906E+02  0.88388414323E+02  0.47000000000E+01 0. -1.
         -5    1    4    4    0  502  0.27356388312E+02 -0.10903864281E+02 -0.15828995586E+01  0.29864055464E+02  0.47000000000E+01 0.  1.
          5    1    3    3  503    0 -0.21612821841E+02  0.17214197336E+02 -0.30199691975E+02  0.41201384118E+02  0.47000000000E+01 0. -1.
         -5    1    3    3    0  503  0.52768306171E+02 -0.51369998332E+01  0.19065968316E+02  0.56537457064E+02  0.47000000000E+01 0.  1.
<mgrwt>
<rscale>  0 0.97073826E+02</rscale>
<asrwt>0</asrwt>
<pdfrwt beam="1">  1        1 0.22675319E-01 0.97102633E+02</pdfrwt>
<pdfrwt beam="2">  1       -1 0.10554113E-01 0.97102633E+02</pdfrwt>
<totfact> 0.11078407E+04</totfact>
</mgrwt>
</event>
<event>
 8    1  0.3400573E-004  0.1197730E+03  0.7546771E-02  0.1245524E+00
          1   -1    0    0  501    0  0.00000000000E+00  0.00000000000E+00  0.30765454566E+03  0.30765454566E+03  0.00000000000E+00 0. -1.
         -1   -1    0    0    0  501 -0.00000000000E+00 -0.00000000000E+00 -0.51681147867E+02  0.51681147867E+02  0.00000000000E+00 0.  1.
         23    2    1    2    0    0  0.71933534852E+02 -0.82391476141E+01  0.59951334982E+02  0.12961797992E+03  0.89243157512E+02 0.  0.
         23    2    1    2    0    0 -0.71933534852E+02  0.82391476141E+01  0.19602206281E+03  0.22971771360E+03  0.95411015330E+02 0.  0.
          5    1    3    3  502    0  0.81345106354E+02 -0.30442997350E+02  0.58856529443E+02  0.10502372814E+03  0.47000000000E+01 0. -1.
         -5    1    4    4    0  503 -0.49609691378E+02  0.46201603379E+02  0.15544852862E+03  0.16965271787E+03  0.47000000000E+01 0.  1.
          5    1    4    4  503    0 -0.22323843473E+02 -0.37962455765E+02  0.40573534192E+02  0.60064995729E+02  0.47000000000E+01 0. -1.
         -5    1    3    3    0  502 -0.94115715019E+01  0.22203849736E+02  0.10948055394E+01  0.24594251775E+02  0.47000000000E+01 0.  1.
<mgrwt>
<rscale>  0 0.11854095E+03</rscale>
<asrwt>0</asrwt>
<pdfrwt beam="1">  1        1 0.47331468E-01 0.11977303E+03</pdfrwt>
<pdfrwt beam="2">  1       -1 0.79509460E-02 0.11977303E+03</pdfrwt>
<totfact> 0.69662875E+03</totfact>
</mgrwt>
</event>
<event>
 8    1  0.3400573E-004  0.9428759E+02  0.7546771E-02  0.1292867E+00
         -2   -1    0    0    0  501 -0.00000000000E+00  0.00000000000E+00  0.38926743280E+03  0.38926743280E+03  0.00000000000E+00 0.  1.
          2   -1    0    0  501    0  0.00000000000E+00 -0.00000000000E+00 -0.44665895195E+03  0.44665895195E+03  0.00000000000E+00 0. -1.
         23    2    1    2    0    0 -0.13364068177E+02 -0.21044338573E+02  0.37845661774E+03  0.39002507842E+03  0.90932325298E+02 0.  0.
         23    2    1    2    0    0  0.13364068177E+02  0.21044338573E+02 -0.43584813689E+03  0.44590130633E+03  0.90790495395E+02 0.  0.
          5    1    3    3  502    0  0.30849992934E+02 -0.34856936850E+02  0.21719635075E+03  0.22217802071E+03  0.47000000000E+01 0. -1.
         -5    1    4    4    0  503  0.25178710099E+02 -0.31073133462E+02 -0.20264248274E+03  0.20660487138E+03  0.47000000000E+01 0.  1.
          5    1    4    4  503    0 -0.11814641921E+02  0.52117472035E+02 -0.23320565415E+03  0.23929643495E+03  0.47000000000E+01 0. -1.
         -5    1    3    3    0  502 -0.44214061111E+02  0.13812598278E+02  0.16126026699E+03  0.16784705771E+03  0.47000000000E+01 0.  1.
<mgrwt>
<rscale>  0 0.94253381E+02</rscale>
<asrwt>0</asrwt>
<pdfrwt beam="1">  1        2 0.68716762E-01 0.94287594E+02</pdfrwt>
<pdfrwt beam="2">  1       -2 0.59887298E-01 0.94287594E+02</pdfrwt>
<totfact> 0.19322212E+02</totfact>
</mgrwt>
</event>
<event>
 8    1  0.3400573E-004  0.2196217E+03  0.7546771E-02  0.1135582E+00
          2   -1    0    0  501    0  0.00000000000E+00  0.00000000000E+00  0.17224987958E+04  0.17224987958E+04  0.00000000000E+00 0. -1.
         -2   -1    0    0    0  501 -0.00000000000E+00 -0.00000000000E+00 -0.29138695134E+02  0.29138695134E+02  0.00000000000E+00 0.  1.
         23    2    1    2    0    0  0.19259385091E+03 -0.37168937197E+02  0.62639689069E+03  0.66378216564E+03  0.98791585957E+02 0.  0.
         23    2    1    2    0    0 -0.19259385091E+03  0.37168937197E+02  0.10669632100E+04  0.10878553253E+04  0.80899913622E+02 0.  0.
          5    1    3    3  502    0  0.17084633219E+03 -0.61228850333E+02  0.46691588330E+03  0.50096903438E+03  0.47000000000E+01 0. -1.
         -5    1    4    4    0  503 -0.11232748219E+03  0.96518825337E+01  0.40382041589E+03  0.41928944702E+03  0.47000000000E+01 0.  1.
          5    1    4    4  503    0 -0.80266368728E+02  0.27517054663E+02  0.66314279411E+03  0.66856587829E+03  0.47000000000E+01 0. -1.
         -5    1    3    3    0  502  0.21747518718E+02  0.24059913136E+02  0.15948100740E+03  0.16281313126E+03  0.47000000000E+01 0.  1.
<mgrwt>
<rscale>  0 0.21773618E+03</rscale>
<asrwt>0</asrwt>
<pdfrwt beam="1">  1        2 0.26499974E+00 0.21962172E+03</pdfrwt>
<pdfrwt beam="2">  1       -2 0.44828775E-02 0.21962172E+03</pdfrwt>
<totfact> 0.24064117E+03</totfact>
</mgrwt>
</event>
<event>
 8    1  0.3400573E-004  0.1009203E+03  0.7546771E-02  0.1280958E+00
          1   -1    0    0  501    0  0.00000000000E+00  0.00000000000E+00  0.31589746580E+03  0.31589746580E+03  0.00000000000E+00 0. -1.
         -1   -1    0    0    0  501 -0.00000000000E+00 -0.00000000000E+00 -0.80109649522E+02  0.80109649522E+02  0.00000000000E+00 0.  1.
         23    2    1    2    0    0  0.37904414771E+02 -0.15484909464E+02 -0.36460515834E+02  0.10730456163E+03  0.92240840474E+02 0.  0.
         23    2    1    2    0    0 -0.37904414771E+02  0.15484909464E+02  0.27224833212E+03  0.28870255370E+03  0.86910776609E+02 0.  0.
          5    1    3    3  502    0 -0.16279957141E+02  0.24342501983E+02  0.19407246139E+01  0.29722900587E+02  0.47000000000E+01 0. -1.
         -5    1    4    4    0  503  0.14535678876E+02  0.32166131373E+02  0.15584305177E+03  0.15985960325E+03  0.47000000000E+01 0.  1.
          5    1    4    4  503    0 -0.52440093647E+02 -0.16681221909E+02  0.11640528035E+03  0.12884295044E+03  0.47000000000E+01 0. -1.
         -5    1    3    3    0  502  0.54184371912E+02 -0.39827411447E+02 -0.38401240447E+02  0.77581661042E+02  0.47000000000E+01 0.  1.
<mgrwt>
<rscale>  0 0.99685974E+02</rscale>
<asrwt>0</asrwt>
<pdfrwt beam="1">  1        1 0.48599609E-01 0.10092026E+03</pdfrwt>
<pdfrwt beam="2">  1       -1 0.12324562E-01 0.10092026E+03</pdfrwt>
<totfact> 0.34313258E+03</totfact>
</mgrwt>
</event>
<event>
 8    1  0.3400573E-004  0.1660212E+03  0.7546771E-02  0.1182862E+00
         -3   -1    0    0    0  501 -0.00000000000E+00  0.00000000000E+00  0.34126317420E+02  0.34126317420E+02  0.00000000000E+00 0.  1.
          3   -1    0    0  501    0  0.00000000000E+00 -0.00000000000E+00 -0.11990879925E+04  0.11990879925E+04  0.00000000000E+00 0. -1.
         23    2    1    2    0    0  0.11029301436E+03 -0.75928550552E+02 -0.93767602003E+03  0.95175059772E+03  0.93076247821E+02 0.  0.
         23    2    1    2    0    0 -0.11029301436E+03  0.75928550552E+02 -0.22728565502E+03  0.28146371217E+03  0.98149673902E+02 0.  0.
          5    1    3    3  502    0  0.60755299370E+02 -0.91517530322E+02 -0.58533033210E+03  0.59556725265E+03  0.47000000000E+01 0. -1.
         -5    1    3    3    0  502  0.49537714988E+02  0.15588979770E+02 -0.35234568794E+03  0.35618334507E+03  0.47000000000E+01 0.  1.
          5    1    4    4  503    0 -0.10752951559E+03  0.22355015075E+02 -0.12981685321E+03  0.17010834430E+03  0.47000000000E+01 0. -1.
         -5    1    4    4    0  503 -0.27634987709E+01  0.53573535477E+02 -0.97468801808E+02  0.11135536788E+03  0.47000000000E+01 0.  1.
<mgrwt>
<rscale>  0 0.16527928E+03</rscale>
<asrwt>0</asrwt>
<pdfrwt beam="1">  1        3 0.18447505E+00 0.16602124E+03</pdfrwt>
<pdfrwt beam="2">  1       -3 0.52502035E-02 0.16602124E+03</pdfrwt>
<totfact> 0.10190414E+02</totfact>
</mgrwt>
</event>
<event>
 8    1  0.3400573E-004  0.1251573E+03  0.7546771E-02  0.1236537E+00
          1   -1    0    0  501    0  0.00000000000E+00  0.00000000000E+00  0.66222274042E+02  0.66222274042E+02  0.00000000000E+00 0. -1.
         -1   -1    0    0    0  501 -0.00000000000E+00 -0.00000000000E+00 -0.23588064405E+03  0.23588064405E+03  0.00000000000E+00 0.  1.
         23    2    1    2    0    0  0.62479475545E+02 -0.51526595037E+02 -0.59490247437E+02  0.13857644782E+03  0.95423621230E+02 0.  0.
         23    2    1    2    0    0 -0.62479475545E+02  0.51526595037E+02 -0.11016812257E+03  0.16352647028E+03  0.89695130244E+02 0.  0.
          5    1    3    3  502    0  0.48688701713E+02  0.19439020969E+02 -0.27414445507E+02  0.59347342259E+02  0.47000000000E+01 0. -1.
         -5    1    3    3    0  502  0.13790773832E+02 -0.70965616005E+02 -0.32075801930E+02  0.79229105557E+02  0.47000000000E+01 0.  1.
          5    1    4    4  503    0 -0.26428163053E+02  0.71211951392E+02 -0.52038351605E+02  0.92193654127E+02  0.47000000000E+01 0. -1.
         -5    1    4    4    0  503 -0.36051312492E+02 -0.19685356355E+02 -0.58129770966E+02  0.71332816149E+02  0.47000000000E+01 0.  1.
<mgrwt>
<rscale>  0 0.12406539E+03</rscale>
<asrwt>0</asrwt>
<pdfrwt beam="1">  1        1 0.10188042E-01 0.12515727E+03</pdfrwt>
<pdfrwt beam="2">  1       -1 0.36289330E-01 0.12515727E+03</pdfrwt>
<totfact> 0.43692343E+03</totfact>
</mgrwt>
</event>
<event>
 7    1  0.3400573E-004  0.3593732E+03  0.7546771E-02  0.1058832E+00
         -1   -1    0    0    0  501 -0.00000000000E+00  0.00000000000E+00  0.94250500893E+02  0.94250500893E+02  0.00000000000E+00 0.  1.
          1   -1    0    0  501    0  0.00000000000E+00 -0.00000000000E+00 -0.34256867174E+03  0.34256867174E+03  0.00000000000E+00 0. -1.
         23    2    1    2    0    0  0.23688810710E+02  0.54600113027E+02 -0.19232661403E+02  0.11086844052E+03  0.91540066322E+02 0.  0.
          5    1    1    2  502    0 -0.28015651638E+02 -0.89533335146E+02 -0.26150647989E+03  0.27786475823E+03  0.47000000000E+01 0. -1.
         -5    1    3    3    0  503  0.45928012496E+02  0.36286916130E+02  0.19941372422E+02  0.62015086456E+02  0.47000000000E+01 0.  1.
          5    1    3    3  503    0 -0.22239201786E+02  0.18313196897E+02 -0.39174033826E+02  0.48853354059E+02  0.47000000000E+01 0. -1.
         -5    1    1    2    0  502  0.43268409284E+01  0.34933222119E+02  0.32420970449E+02  0.48085973889E+02  0.47000000000E+01 0.  1.
<mgrwt>
<rscale>  0 0.35937317E+03</rscale>
<asrwt>0</asrwt>
<pdfrwt beam="1">  1        1 0.52702872E-01 0.35937317E+03</pdfrwt>
<pdfrwt beam="2">  1       -1 0.14500077E-01 0.35937317E+03</pdfrwt>
<totfact> 0.25187473E+03</totfact>
</mgrwt>
</event>
<event>
 8    1  0.3400573E-004  0.1220854E+03  0.7546771E-02  0.1239998E+00
          1   -1    0    0  501    0  0.00000000000E+00  0.00000000000E+00  0.14189269045E+03  0.14189269045E+03  0.00000000000E+00 0. -1.
         -1   -1    0    0    0  501 -0.00000000000E+00 -0.00000000000E+00 -0.11678894567E+03  0.11678894567E+03  0.00000000000E+00 0.  1.
         23    2    1    2    0    0  0.50997613664E+02  0.61005686133E+02  0.54710682808E+02  0.13378382715E+03  0.92641261079E+02 0.  0.
         23    2    1    2    0    0 -0.50997613664E+02 -0.61005686133E+02 -0.29606938031E+02  0.12489780896E+03  0.91653922795E+02 0.  0.
          5    1    4    4  502    0  0.15922635561E+02 -0.50782254703E+02 -0.14844110049E+02  0.55450927125E+02  0.47000000000E+01 0. -1.
         -5    1    4    4    0  502 -0.66920249226E+02 -0.10223431430E+02 -0.14762827982E+02  0.69446881835E+02  0.47000000000E+01 0.  1.
          5    1    3    3  503    0  0.71224694236E+02  0.31073149354E+02  0.58180780071E+02  0.97188429607E+02  0.47000000000E+01 0. -1.
         -5    1    3    3    0  503 -0.20227080572E+02  0.29932536779E+02 -0.34700972629E+01  0.36595397546E+02  0.47000000000E+01 0.  1.
<mgrwt>
<rscale>  0 0.12189813E+03</rscale>
<asrwt>0</asrwt>
<pdfrwt beam="1">  1        1 0.21829645E-01 0.12208544E+03</pdfrwt>
<pdfrwt beam="2">  1       -1 0.17967530E-01 0.12208544E+03</pdfrwt>
<totfact> 0.51885714E+03</totfact>
</mgrwt>
</event>
<event>
 8    1  0.3400573E-004  0.1758294E+03  0.7546771E-02  0.1172060E+00
         -2   -1    0    0    0  501 -0.00000000000E+00  0.00000000000E+00  0.25583206310E+02  0.25583206310E+02  0.00000000000E+00 0.  1.
          2   -1    0    0  501    0  0.00000000000E+00 -0.00000000000E+00 -0.14617750032E+04  0.14617750032E+04  0.00000000000E+00 0. -1.
         23    2    1    2    0    0 -0.15033109183E+03 -0.72981458407E+01 -0.40479888030E+03  0.44108514736E+03  0.89673148853E+02 0.  0.
         23    2    1    2    0    0  0.15033109183E+03  0.72981458407E+01 -0.10313929166E+04  0.10462730622E+04  0.90902541686E+02 0.  0.
          5    1    4    4  502    0  0.58403355496E+02  0.36971075079E+02 -0.61014604198E+03  0.61406684886E+03  0.47000000000E+01 0.  1.
         -5    1    4    4    0  502  0.91927736336E+02 -0.29672929238E+02 -0.42124687461E+03  0.43220621329E+03  0.47000000000E+01 0.  1.
          5    1    3    3  503    0 -0.20413198941E+02  0.20843071836E+02 -0.15784798717E+03  0.16059019082E+03  0.47000000000E+01 0. -1.
         -5    1    3    3    0  503 -0.12991789289E+03 -0.28141217677E+02 -0.24695089313E+03  0.28049495654E+03  0.47000000000E+01 0.  1.
<mgrwt>
<rscale>  0 0.17567106E+03</rscale>
<asrwt>0</asrwt>
<pdfrwt beam="1">  1        2 0.22488851E+00 0.17582938E+03</pdfrwt>
<pdfrwt beam="2">  1       -2 0.39358771E-02 0.17582938E+03</pdfrwt>
<totfact> 0.40052569E+03</totfact>
</mgrwt>
</event>
<event>
 8    1  0.3400573E-004  0.9703314E+02  0.7546771E-02  0.1288519E+00
         -1   -1    0    0    0  501 -0.00000000000E+00  0.00000000000E+00  0.33008035243E+02  0.33008035243E+02  0.00000000000E+00 0.  1.
          1   -1    0    0  501    0  0.00000000000E+00 -0.00000000000E+00 -0.42545992689E+03  0.42545992689E+03  0.00000000000E+00 0. -1.
         23    2    1    2    0    0  0.34061953816E+02  0.19375039390E+01 -0.57946804901E+02  0.11017342730E+03  0.87271881300E+02 0.  0.
         23    2    1    2    0    0 -0.34061953816E+02 -0.19375039390E+01 -0.33450508674E+03  0.34829453483E+03  0.90837543536E+02 0.  0.
          5    1    3    3  502    0 -0.38482180624E+01  0.39303881455E+02 -0.19170274360E+02  0.44149669294E+02  0.47000000000E+01 0. -1.
         -5    1    3    3    0  502  0.37910171878E+02 -0.37366377516E+02 -0.38776530541E+02  0.66023758006E+02  0.47000000000E+01 0.  1.
          5    1    4    4  503    0 -0.58476972973E+02 -0.76473979360E+01 -0.29764419956E+03  0.30346696459E+03  0.47000000000E+01 0. -1.
         -5    1    4    4    0  503  0.24415019158E+02  0.57098939971E+01 -0.36860887178E+02  0.44827570238E+02  0.47000000000E+01 0.  1.
<mgrwt>
<rscale>  0 0.96189806E+02</rscale>
<asrwt>0</asrwt>
<pdfrwt beam="1">  1        1 0.65455377E-01 0.97033138E+02</pdfrwt>
<pdfrwt beam="2">  1       -1 0.50781590E-02 0.97033138E+02</pdfrwt>
<totfact> 0.89226441E+03</totfact>
</mgrwt>
</event>
<event>
 8    1  0.3400573E-004  0.1006351E+03  0.7546771E-02  0.1288226E+00
          1   -1    0    0  501    0  0.00000000000E+00  0.00000000000E+00  0.38045085975E+02  0.38045085975E+02  0.00000000000E+00 0. -1.
         -1   -1    0    0    0  501 -0.00000000000E+00 -0.00000000000E+00 -0.24262106864E+03  0.24262106864E+03  0.00000000000E+00 0.  1.
         23    2    1    2    0    0 -0.25779229791E+02 -0.28534543971E+02 -0.73035426014E+02  0.12434469687E+03  0.92998071481E+02 0.  0.
         23    2    1    2    0    0  0.25779229791E+02  0.28534543971E+02 -0.13154055665E+03  0.15632145774E+03  0.75197680933E+02 0.  0.
          5    1    3    3  502    0 -0.13351951687E+02 -0.57737723226E+02 -0.20682008767E+02  0.62942472019E+02  0.47000000000E+01 0. -1.
         -5    1    3    3    0  502 -0.12427278105E+02  0.29203179255E+02 -0.52353417246E+02  0.61402224854E+02  0.47000000000E+01 0.  1.
          5    1    4    4  503    0  0.47192481191E+02  0.36412265344E+02 -0.81072731625E+02  0.10073659296E+03  0.47000000000E+01 0. -1.
         -5    1    4    4    0  503 -0.21413251400E+02 -0.78777213732E+01 -0.50467825023E+02  0.55584864776E+02  0.47000000000E+01 0.  1.
<mgrwt>
<rscale>  0 0.96321870E+02</rscale>
<asrwt>0</asrwt>
<pdfrwt beam="1">  1        1 0.58530901E-02 0.10063513E+03</pdfrwt>
<pdfrwt beam="2">  1       -1 0.37326319E-01 0.10063513E+03</pdfrwt>
<totfact> 0.85782878E+03</totfact>
</mgrwt>
</event>
<event>
 8    1  0.3400573E-004  0.9638295E+02  0.7546771E-02  0.1290222E+00
         -1   -1    0    0    0  501 -0.00000000000E+00  0.00000000000E+00  0.17420558969E+02  0.17420558969E+02  0.00000000000E+00 0.  1.
          1   -1    0    0  501    0  0.00000000000E+00 -0.00000000000E+00 -0.52039140874E+03  0.52039140874E+03  0.00000000000E+00 0. -1.
         23    2    1    2    0    0 -0.23724696434E+02  0.16669631812E+02 -0.22349070431E+03  0.24338809996E+03  0.91918085509E+02 0.  0.
         23    2    1    2    0    0  0.23724696434E+02 -0.16669631812E+02 -0.27948014546E+03  0.29442386775E+03  0.87951829697E+02 0.  0.
          5    1    4    4  502    0  0.15785838997E+02  0.26691230163E+02 -0.20772062741E+03  0.21007513783E+03  0.47000000000E+01 0. -1.
         -5    1    3    3    0  503 -0.47472740982E+02  0.36031566254E+02 -0.10416435390E+03  0.12010094723E+03  0.47000000000E+01 0.  1.
          5    1    3    3  503    0  0.23748044548E+02 -0.19361934442E+02 -0.11932635041E+03  0.12328715272E+03  0.47000000000E+01 0. -1.
         -5    1    4    4    0  502  0.79388574374E+01 -0.43360861975E+02 -0.71759518045E+02  0.84348729917E+02  0.47000000000E+01 0.  1.
<mgrwt>
<rscale>  0 0.95425052E+02</rscale>
<asrwt>0</asrwt>
<pdfrwt beam="1">  1        1 0.80060213E-01 0.96382946E+02</pdfrwt>
<pdfrwt beam="2">  1       -1 0.26800861E-02 0.96382946E+02</pdfrwt>
<totfact> 0.17446196E+04</totfact>
</mgrwt>
</event>
<event>
 8    1  0.3400573E-004  0.9114438E+02  0.7546771E-02  0.1300730E+00
          1   -1    0    0  501    0  0.00000000000E+00  0.00000000000E+00  0.10724321249E+02  0.10724321249E+02  0.00000000000E+00 0. -1.
         -1   -1    0    0    0  501 -0.00000000000E+00 -0.00000000000E+00 -0.79575955625E+03  0.79575955625E+03  0.00000000000E+00 0.  1.
         23    2    1    2    0    0 -0.62770988881E+01  0.67055929486E+01 -0.31204052361E+03  0.32478760885E+03  0.89628876711E+02 0.  0.
         23    2    1    2    0    0  0.62770988881E+01 -0.67055929486E+01 -0.47299471139E+03  0.48169626865E+03  0.90680379792E+02 0.  0.
          5    1    4    4  502    0 -0.28528837186E+02  0.19846747336E+02 -0.97237858794E+02  0.10336865634E+03  0.47000000000E+01 0. -1.
         -5    1    3    3    0  503  0.27912944011E+02  0.33939767432E+02 -0.18993842548E+03  0.19501214252E+03  0.47000000000E+01 0.  1.
          5    1    3    3  503    0 -0.34190042900E+02 -0.27234174483E+02 -0.12210209813E+03  0.12977546633E+03  0.47000000000E+01 0. -1.
         -5    1    4    4    0  502  0.34805936074E+02 -0.26552340285E+02 -0.37575685259E+03  0.37832761230E+03  0.47000000000E+01 0.  1.
<mgrwt>
<rscale>  0 0.90881726E+02</rscale>
<asrwt>0</asrwt>
<pdfrwt beam="1">  1        1 0.16498954E-02 0.91144381E+02</pdfrwt>
<pdfrwt beam="2">  1       -1 0.12242456E+00 0.91144381E+02</pdfrwt>
<totfact> 0.46381025E+03</totfact>
</mgrwt>
</event>
<event>
 8    1  0.3400573E-004  0.1539770E+03  0.7546771E-02  0.1195767E+00
          1   -1    0    0  501    0  0.00000000000E+00  0.00000000000E+00  0.44898852554E+03  0.44898852554E+03  0.00000000000E+00 0. -1.
         -1   -1    0    0    0  501 -0.00000000000E+00 -0.00000000000E+00 -0.61023302675E+02  0.61023302675E+02  0.00000000000E+00 0.  1.
         23    2    1    2    0    0  0.90168249014E+02 -0.84745683613E+02  0.28838402126E+03  0.32691627143E+03  0.91633840833E+02 0.  0.
         23    2    1    2    0    0 -0.90168249014E+02  0.84745683613E+02  0.99581201611E+02  0.18309555679E+03  0.91079213770E+02 0.  0.
          5    1    4    4  502    0 -0.53131275207E+02 -0.20279294075E+01  0.12958436692E+02  0.54927734200E+02  0.47000000000E+01 0. -1.
         -5    1    3    3    0  503  0.30178114015E+02  0.39860300641E+01  0.17130798560E+02  0.35244308199E+02  0.47000000000E+01 0.  1.
          5    1    3    3  503    0  0.59990134999E+02 -0.88731713677E+02  0.27125322270E+03  0.29167196323E+03  0.47000000000E+01 0. -1.
         -5    1    4    4    0  502 -0.37036973806E+02  0.86773613021E+02  0.86622764920E+02  0.12816782259E+03  0.47000000000E+01 0.  1.
<mgrwt>
<rscale>  0 0.15389454E+03</rscale>
<asrwt>0</asrwt>
<pdfrwt beam="1">  1        1 0.69075156E-01 0.15397696E+03</pdfrwt>
<pdfrwt beam="2">  1       -1 0.93882007E-02 0.15397696E+03</pdfrwt>
<totfact> 0.34175519E+03</totfact>
</mgrwt>
</event>
<event>
 8    1  0.3400573E-004  0.3393902E+03  0.7546771E-02  0.1067179E+00
         -2   -1    0    0    0  501 -0.00000000000E+00  0.00000000000E+00  0.11409216122E+03  0.11409216122E+03  0.00000000000E+00 0. -1.
          2   -1    0    0  501    0  0.00000000000E+00 -0.00000000000E+00 -0.14384180664E+04  0.14384180664E+04  0.00000000000E+00 0.  1.
         23    2    1    2    0    0 -0.76383275614E+00 -0.32634150679E+03 -0.10884716699E+04  0.11401562483E+04  0.93200492675E+02 0.  0.
         23    2    1    2    0    0  0.76383275614E+00  0.32634150679E+03 -0.23585423526E+03  0.41235397932E+03  0.88933803859E+02 0.  0.
          5    1    3    3  502    0 -0.26098924470E+02 -0.30035432094E+03 -0.93666273051E+03  0.98399849222E+03  0.47000000000E+01 0. -1.
         -5    1    4    4    0  503 -0.16022686181E+02  0.19678233946E+03 -0.91664281634E+02  0.21772562119E+03  0.47000000000E+01 0.  1.
          5    1    4    4  503    0  0.16786518937E+02  0.12955916733E+03 -0.14418995363E+03  0.19462835812E+03  0.47000000000E+01 0. -1.
         -5    1    3    3    0  502  0.25335091714E+02 -0.25987185856E+02 -0.15180893942E+03  0.15615775610E+03  0.47000000000E+01 0.  1.
<mgrwt>
<rscale>  0 0.33910312E+03</rscale>
<asrwt>0</asrwt>
<pdfrwt beam="1">  1        2 0.22129510E+00 0.33939018E+03</pdfrwt>
<pdfrwt beam="2">  1       -2 0.17552639E-01 0.33939018E+03</pdfrwt>
<totfact> 0.38575569E+02</totfact>
</mgrwt>
</event>
<event>
 8    1  0.3400573E-004  0.9651363E+02  0.7546771E-02  0.1288313E+00
         -1   -1    0    0    0  501 -0.00000000000E+00  0.00000000000E+00  0.13130188386E+02  0.13130188386E+02  0.00000000000E+00 0.  1.
          1   -1    0    0  501    0  0.00000000000E+00 -0.00000000000E+00 -0.71078525512E+03  0.71078525512E+03  0.00000000000E+00 0. -1.
         23    2    1    2    0    0  0.34070936086E+01  0.28429990135E+02 -0.30850270982E+03  0.32297350592E+03  0.91203568658E+02 0.  0.
         23    2    1    2    0    0 -0.34070936086E+01 -0.28429990135E+02 -0.38915235691E+03  0.40094193758E+03  0.92168366560E+02 0.  0.
          5    1    4    4  502    0  0.17287600956E+02 -0.48404565021E+02 -0.33924184472E+03  0.34314571580E+03  0.47000000000E+01 0. -1.
         -5    1    3    3    0  503  0.24985070769E+02  0.55239423259E+02 -0.20131712085E+03  0.21030054871E+03  0.47000000000E+01 0.  1.
          5    1    3    3  503    0 -0.21577977160E+02 -0.26809433123E+02 -0.10718558897E+03  0.11267295721E+03  0.47000000000E+01 0. -1.
         -5    1    4    4    0  502 -0.20694694565E+02  0.19974574886E+02 -0.49910512193E+02  0.57796221783E+02  0.47000000000E+01 0.  1.
<mgrwt>
<rscale>  0 0.96282567E+02</rscale>
<asrwt>0</asrwt>
<pdfrwt beam="1">  1        1 0.10935156E+00 0.96513628E+02</pdfrwt>
<pdfrwt beam="2">  1       -1 0.20200294E-02 0.96513628E+02</pdfrwt>
<totfact> 0.17172129E+04</totfact>
</mgrwt>
</event>
<event>
 8    1  0.3400573E-004  0.1086584E+03  0.7546771E-02  0.1265671E+00
         -1   -1    0    0    0  501 -0.00000000000E+00  0.00000000000E+00  0.68408705533E+02  0.68408705533E+02  0.00000000000E+00 0.  1.
          1   -1    0    0  501    0  0.00000000000E+00 -0.00000000000E+00 -0.16818184569E+03  0.16818184569E+03  0.00000000000E+00 0. -1.
         23    2    1    2    0    0  0.42267013772E+02 -0.31495095918E+02 -0.66920846669E+02  0.12307441820E+03  0.88828324180E+02 0.  0.
         23    2    1    2    0    0 -0.42267013772E+02  0.31495095918E+02 -0.32852293489E+02  0.11351613302E+03  0.95016828766E+02 0.  0.
          5    1    4    4  502    0 -0.66312073879E+00  0.28032611823E+02 -0.57971234622E+02  0.64567957211E+02  0.47000000000E+01 0. -1.
         -5    1    4    4    0  502 -0.41603893033E+02  0.34624840946E+01  0.25118941134E+02  0.48948175811E+02  0.47000000000E+01 0.  1.
          5    1    3    3  503    0 -0.24163115863E+02 -0.27303068438E+01 -0.37175288823E+02  0.44669932199E+02  0.47000000000E+01 0. -1.
         -5    1    3    3    0  503  0.66430129634E+02 -0.28764789074E+02 -0.29745557846E+02  0.78404486002E+02  0.47000000000E+01 0.  1.
<mgrwt>
<rscale>  0 0.10729077E+03</rscale>
<asrwt>0</asrwt>
<pdfrwt beam="1">  1        1 0.25874130E-01 0.10865836E+03</pdfrwt>
<pdfrwt beam="2">  1       -1 0.10524416E-01 0.10865836E+03</pdfrwt>
<totfact> 0.95331823E+03</totfact>
</mgrwt>
</event>
<event>
 8    1  0.3400573E-004  0.1468942E+03  0.7546771E-02  0.1204617E+00
         -2   -1    0    0    0  501 -0.00000000000E+00  0.00000000000E+00  0.83077978152E+03  0.83077978152E+03  0.00000000000E+00 0.  1.
          2   -1    0    0  501    0  0.00000000000E+00 -0.00000000000E+00 -0.32672913198E+02  0.32672913198E+02  0.00000000000E+00 0. -1.
         23    2    1    2    0    0  0.34094888485E+01 -0.11492033699E+03  0.20226688328E+03  0.24997957639E+03  0.91430782938E+02 0.  0.
         23    2    1    2    0    0 -0.34094888485E+01  0.11492033699E+03  0.59583998504E+03  0.61347311833E+03  0.90031498229E+02 0.  0.
          5    1    4    4  502    0 -0.25003481012E+02  0.49566081102E+02  0.43372895647E+03  0.43729265731E+03  0.47000000000E+01 0. -1.
         -5    1    4    4    0  502  0.21593992164E+02  0.65354255893E+02  0.16211102857E+03  0.17618046102E+03  0.47000000000E+01 0.  1.
          5    1    3    3  503    0 -0.16512720206E+02 -0.74500354679E+02  0.50578179300E+02  0.91669051469E+02  0.47000000000E+01 0. -1.
         -5    1    3    3    0  503  0.19922209055E+02 -0.40419982316E+02  0.15168870398E+03  0.15831052492E+03  0.47000000000E+01 0.  1.
<mgrwt>
<rscale>  0 0.14667698E+03</rscale>
<asrwt>0</asrwt>
<pdfrwt beam="1">  1        2 0.50266027E-02 0.14689417E+03</pdfrwt>
<pdfrwt beam="2">  1       -2 0.12781226E+00 0.14689417E+03</pdfrwt>
<totfact> 0.72606846E+02</totfact>
</mgrwt>
</event>
<event>
 8    1  0.3400573E-004  0.1014164E+03  0.7546771E-02  0.1279386E+00
         -1   -1    0    0    0  501 -0.00000000000E+00  0.00000000000E+00  0.53132361650E+02  0.53132361650E+02  0.00000000000E+00 0.  1.
          1   -1    0    0  501    0  0.00000000000E+00 -0.00000000000E+00 -0.19165899686E+03  0.19165899686E+03  0.00000000000E+00 0. -1.
         23    2    1    2    0    0  0.33379632559E+01 -0.33991101054E+02 -0.91117904236E+02  0.13633692969E+03  0.95492140910E+02 0.  0.
         23    2    1    2    0    0 -0.33379632559E+01  0.33991101054E+02 -0.47408730970E+02  0.10845442882E+03  0.91368694902E+02 0.  0.
          5    1    4    4  502    0 -0.43412163276E+02  0.31250560272E+02 -0.40884766226E+02  0.67489758830E+02  0.47000000000E+01 0. -1.
         -5    1    3    3    0  503  0.40761548682E+02 -0.17399185071E+02 -0.10484238725E+02  0.45784765521E+02  0.47000000000E+01 0.  1.
          5    1    3    3  503    0 -0.37423585427E+02 -0.16591915983E+02 -0.80633665511E+02  0.90552164170E+02  0.47000000000E+01 0. -1.
         -5    1    4    4    0  502  0.40074200020E+02  0.27405407820E+01 -0.65239647444E+01  0.40964669986E+02  0.47000000000E+01 0.  1.
<mgrwt>
<rscale>  0 0.10043405E+03</rscale>
<asrwt>0</asrwt>
<pdfrwt beam="1">  1        1 0.29486000E-01 0.10141640E+03</pdfrwt>
<pdfrwt beam="2">  1       -1 0.81742094E-02 0.10141640E+03</pdfrwt>
<totfact> 0.11802701E+04</totfact>
</mgrwt>
</event>
<event>
 8    1  0.3400573E-004  0.1672004E+03  0.7546771E-02  0.1181378E+00
          1   -1    0    0  501    0  0.00000000000E+00  0.00000000000E+00  0.42013767896E+03  0.42013767896E+03  0.00000000000E+00 0. -1.
         -1   -1    0    0    0  501 -0.00000000000E+00 -0.00000000000E+00 -0.17511297939E+03  0.17511297939E+03  0.00000000000E+00 0.  1.
         23    2    1    2    0    0  0.15655354796E+02 -0.13856559661E+03  0.35808314138E+03  0.39519552854E+03  0.92252127004E+02 0.  0.
         23    2    1    2    0    0 -0.15655354796E+02  0.13856559661E+03 -0.11305844182E+03  0.20005512982E+03  0.88285497129E+02 0.  0.
          5    1    4    4  502    0 -0.48023718029E+02  0.99633032839E+02 -0.57516718555E+02  0.12475288229E+03  0.47000000000E+01 0. -1.
         -5    1    3    3    0  503 -0.32802704795E+02 -0.39420048983E+02  0.71927638359E+02  0.88462607149E+02  0.47000000000E+01 0.  1.
          5    1    3    3  503    0  0.48458059590E+02 -0.99145547623E+02  0.28615550302E+03  0.30673292139E+03  0.47000000000E+01 0. -1.
         -5    1    4    4    0  502  0.32368363233E+02  0.38932563767E+02 -0.55541723260E+02  0.75302247527E+02  0.47000000000E+01 0.  1.
<mgrwt>
<rscale>  0 0.16665891E+03</rscale>
<asrwt>0</asrwt>
<pdfrwt beam="1">  1        1 0.64636566E-01 0.16720039E+03</pdfrwt>
<pdfrwt beam="2">  1       -1 0.26940458E-01 0.16720039E+03</pdfrwt>
<totfact> 0.70061074E+02</totfact>
</mgrwt>
</event>
<event>
 8    1  0.3400573E-004  0.1158708E+03  0.7546771E-02  0.1250248E+00
         -1   -1    0    0    0  501 -0.00000000000E+00  0.00000000000E+00  0.23868910086E+02  0.23868910086E+02  0.00000000000E+00 0.  1.
          1   -1    0    0  501    0  0.00000000000E+00 -0.00000000000E+00 -0.82323149045E+03  0.82323149045E+03  0.00000000000E+00 0. -1.
         23    2    1    2    0    0 -0.62386242059E+02 -0.33672444153E+02 -0.63945403211E+03  0.64986728876E+03  0.91652371094E+02 0.  0.
         23    2    1    2    0    0  0.62386242059E+02  0.33672444153E+02 -0.15990854826E+03  0.19723311178E+03  0.91127821670E+02 0.  0.
          5    1    3    3  502    0 -0.58720619681E+02  0.18716351123E+02 -0.29549430234E+03  0.30188969126E+03  0.47000000000E+01 0. -1.
         -5    1    4    4    0  503  0.66800396556E+02  0.61771477526E+01 -0.50124836918E+02  0.83875141791E+02  0.47000000000E+01 0.  1.
          5    1    4    4  503    0 -0.44141544971E+01  0.27495296400E+02 -0.10978371134E+03  0.11335796999E+03  0.47000000000E+01 0. -1.
         -5    1    3    3    0  502 -0.36656223780E+01 -0.52388795276E+02 -0.34395972977E+03  0.34797759750E+03  0.47000000000E+01 0.  1.
<mgrwt>
<rscale>  0 0.11576701E+03</rscale>
<asrwt>0</asrwt>
<pdfrwt beam="1">  1        1 0.12665100E+00 0.11587076E+03</pdfrwt>
<pdfrwt beam="2">  1       -1 0.36721401E-02 0.11587076E+03</pdfrwt>
<totfact> 0.59205655E+03</totfact>
</mgrwt>
</event>
<event>
 8    1  0.3400573E-004  0.1051969E+03  0.7546771E-02  0.1270137E+00
          1   -1    0    0  501    0  0.00000000000E+00  0.00000000000E+00  0.36065478757E+03  0.36065478757E+03  0.00000000000E+00 0. -1.
         -1   -1    0    0    0  501 -0.00000000000E+00 -0.00000000000E+00 -0.30714850446E+02  0.30714850446E+02  0.00000000000E+00 0.  1.
         23    2    1    2    0    0  0.33507850636E+02 -0.39428837483E+02  0.14599507051E+03  0.17946846591E+03  0.90647450949E+02 0.  0.
         23    2    1    2    0    0 -0.33507850636E+02  0.39428837483E+02  0.18394486661E+03  0.21190117211E+03  0.91591394283E+02 0.  0.
          5    1    4    4  502    0 -0.28347446453E+02  0.68663277079E+02  0.14163217462E+03  0.15999995696E+03  0.47000000000E+01 0. -1.
         -5    1    4    4    0  502 -0.51604041831E+01 -0.29234439596E+02  0.42312691997E+02  0.51901215148E+02  0.47000000000E+01 0.  1.
          5    1    3    3  503    0  0.20740878139E+02  0.21104998426E+02  0.93542695521E+02  0.98223881362E+02  0.47000000000E+01 0. -1.
         -5    1    3    3    0  503  0.12766972498E+02 -0.60533835909E+02  0.52452374992E+02  0.81244584551E+02  0.47000000000E+01 0.  1.
<mgrwt>
<rscale>  0 0.10499111E+03</rscale>
<asrwt>0</asrwt>
<pdfrwt beam="1">  1        1 0.55485349E-01 0.10519692E+03</pdfrwt>
<pdfrwt beam="2">  1       -1 0.47253619E-02 0.10519692E+03</pdfrwt>
<totfact> 0.12264390E+04</totfact>
</mgrwt>
</event>
<event>
 8    1  0.3400573E-004  0.1470115E+03  0.7546771E-02  0.1204763E+00
         -2   -1    0    0    0  501 -0.00000000000E+00  0.00000000000E+00  0.24276140062E+02  0.24276140062E+02  0.00000000000E+00 0.  1.
          2   -1    0    0  501    0  0.00000000000E+00 -0.00000000000E+00 -0.95533791237E+03  0.95533791237E+03  0.00000000000E+00 0. -1.
         23    2    1    2    0    0 -0.76123596297E+02  0.80533698738E+02 -0.60095155349E+03  0.61824838275E+03  0.93849957866E+02 0.  0.
         23    2    1    2    0    0  0.76123596297E+02 -0.80533698738E+02 -0.33011021882E+03  0.36136566968E+03  0.96601822483E+02 0.  0.
          5    1    4    4  502    0  0.11462724149E+02 -0.18762161442E+02 -0.21178612042E+03  0.21297620419E+03  0.47000000000E+01 0. -1.
         -5    1    3    3    0  503 -0.73721129231E+02  0.10070187227E+02 -0.30650597590E+03  0.31544288996E+03  0.47000000000E+01 0.  1.
          5    1    3    3  503    0 -0.24024670652E+01  0.70463511512E+02 -0.29444557759E+03  0.30280549279E+03  0.47000000000E+01 0. -1.
         -5    1    4    4    0  502  0.64660872147E+02 -0.61771537296E+02 -0.11832409840E+03  0.14838946549E+03  0.47000000000E+01 0.  1.
<mgrwt>
<rscale>  0 0.14656111E+03</rscale>
<asrwt>0</asrwt>
<pdfrwt beam="1">  1        2 0.14697506E+00 0.14701153E+03</pdfrwt>
<pdfrwt beam="2">  1       -2 0.37347909E-02 0.14701153E+03</pdfrwt>
<totfact> 0.82837560E+03</totfact>
</mgrwt>
</event>
<event>
 8    1  0.3400573E-004  0.1566145E+03  0.7546771E-02  0.1192787E+00
         -3   -1    0    0    0  501 -0.00000000000E+00  0.00000000000E+00  0.45677379369E+02  0.45677379369E+02  0.00000000000E+00 0.  1.
          3   -1    0    0  501    0  0.00000000000E+00 -0.00000000000E+00 -0.58656622610E+03  0.58656622610E+03  0.00000000000E+00 0. -1.
         23    2    1    2    0    0  0.40162559558E+02 -0.12072546059E+03 -0.36407579771E+03  0.39604252468E+03  0.90060129089E+02 0.  0.
         23    2    1    2    0    0 -0.40162559558E+02  0.12072546059E+03 -0.17681304902E+03  0.23620108079E+03  0.91325945033E+02 0.  0.
          5    1    3    3  502    0 -0.14677546268E+02 -0.53279940222E+02 -0.22685789281E+03  0.23353966670E+03  0.47000000000E+01 0. -1.
         -5    1    3    3    0  502  0.54840105826E+02 -0.67445520368E+02 -0.13721790490E+03  0.16250285797E+03  0.47000000000E+01 0.  1.
          5    1    4    4  503    0  0.16729204562E+02  0.87350287604E+02 -0.85503857062E+02  0.12346229628E+03  0.47000000000E+01 0. -1.
         -5    1    4    4    0  503 -0.56891764120E+02  0.33375172987E+02 -0.91309191956E+02  0.11273878451E+03  0.47000000000E+01 0.  1.
<mgrwt>
<rscale>  0 0.15643047E+03</rscale>
<asrwt>0</asrwt>
<pdfrwt beam="1">  1        3 0.90240955E-01 0.15661448E+03</pdfrwt>
<pdfrwt beam="2">  1       -3 0.70272894E-02 0.15661448E+03</pdfrwt>
<totfact> 0.35750550E+02</totfact>
</mgrwt>
</event>
<event>
 8    1  0.3400573E-004  0.1025836E+03  0.7546771E-02  0.1276742E+00
         -3   -1    0    0    0  501 -0.00000000000E+00  0.00000000000E+00  0.89478615855E+01  0.89478615855E+01  0.00000000000E+00 0.  1.
          3   -1    0    0  501    0  0.00000000000E+00 -0.00000000000E+00 -0.13415199011E+04  0.13415199011E+04  0.00000000000E+00 0. -1.
         23    2    1    2    0    0 -0.30002668290E+02 -0.28861336485E+02 -0.93967853110E+03  0.94526141090E+03  0.93756366661E+02 0.  0.
         23    2    1    2    0    0  0.30002668290E+02  0.28861336485E+02 -0.39289350840E+03  0.40520635177E+03  0.89965225058E+02 0.  0.
          5    1    3    3  502    0  0.29032348365E+02 -0.31553893108E+02 -0.42252078487E+03  0.42471688108E+03  0.47000000000E+01 0. -1.
         -5    1    4    4    0  503 -0.30608177388E+02  0.17529120132E+02 -0.18140690563E+03  0.18486396616E+03  0.47000000000E+01 0.  1.
          5    1    4    4  503    0  0.60610845678E+02  0.11332216353E+02 -0.21148660277E+03  0.22034238560E+03  0.47000000000E+01 0. -1.
         -5    1    3    3    0  502 -0.59035016655E+02  0.26925566227E+01 -0.51715774623E+03  0.52054452983E+03  0.47000000000E+01 0.  1.
<mgrwt>
<rscale>  0 0.10170923E+03</rscale>
<asrwt>0</asrwt>
<pdfrwt beam="1">  1        3 0.20638752E+00 0.10258359E+03</pdfrwt>
<pdfrwt beam="2">  1       -3 0.13765952E-02 0.10258359E+03</pdfrwt>
<totfact> 0.55722574E+02</totfact>
</mgrwt>
</event>
<event>
 8    1  0.3400573E-004  0.9378457E+02  0.7546771E-02  0.1298267E+00
          1   -1    0    0  501    0  0.00000000000E+00  0.00000000000E+00  0.22044762967E+03  0.22044762967E+03  0.00000000000E+00 0. -1.
         -1   -1    0    0    0  501 -0.00000000000E+00 -0.00000000000E+00 -0.79644491680E+02  0.79644491680E+02  0.00000000000E+00 0.  1.
         23    2    1    2    0    0  0.20632922716E+02 -0.15736099479E+01 -0.40815029722E+02  0.95688832282E+02  0.84037445369E+02 0.  0.
         23    2    1    2    0    0 -0.20632922716E+02  0.15736099479E+01  0.18161816771E+03  0.20440328906E+03  0.91473231005E+02 0.  0.
          5    1    4    4  502    0 -0.52925557002E+02 -0.89637972041E+01  0.14268866921E+03  0.15252413109E+03  0.47000000000E+01 0. -1.
         -5    1    4    4    0  502  0.32292634286E+02  0.10537407152E+02  0.38929498498E+02  0.51879157972E+02  0.47000000000E+01 0.  1.
          5    1    3    3  503    0 -0.13242333045E+02 -0.32637911727E+02 -0.24216574217E+01  0.35616668725E+02  0.47000000000E+01 0. -1.
         -5    1    3    3    0  503  0.33875255760E+02  0.31064301779E+02 -0.38393372300E+02  0.60072163557E+02  0.47000000000E+01 0.  1.
<mgrwt>
<rscale>  0 0.91920483E+02</rscale>
<asrwt>0</asrwt>
<pdfrwt beam="1">  1        1 0.33915020E-01 0.93784571E+02</pdfrwt>
<pdfrwt beam="2">  1       -1 0.12252999E-01 0.93784571E+02</pdfrwt>
<totfact> 0.53523137E+03</totfact>
</mgrwt>
</event>
<event>
 8    1  0.3400573E-004  0.9145106E+02  0.7546771E-02  0.1301263E+00
          1   -1    0    0  501    0  0.00000000000E+00  0.00000000000E+00  0.28048889679E+03  0.28048889679E+03  0.00000000000E+00 0. -1.
         -1   -1    0    0    0  501 -0.00000000000E+00 -0.00000000000E+00 -0.28813594360E+02  0.28813594360E+02  0.00000000000E+00 0.  1.
         23    2    1    2    0    0 -0.81892106007E+01 -0.33738871645E+01  0.12615203769E+03  0.15399831806E+03  0.87878888640E+02 0.  0.
         23    2    1    2    0    0  0.81892106007E+01  0.33738871645E+01  0.12552326474E+03  0.15530417309E+03  0.91021150850E+02 0.  0.
          5    1    4    4  502    0 -0.13287853677E+02  0.36096522512E+02  0.22071536469E+02  0.44595613180E+02  0.47000000000E+01 0. -1.
         -5    1    3    3    0  503 -0.41656019675E+02 -0.70281473941E+01  0.30031347114E+02  0.52044122054E+02  0.47000000000E+01 0.  1.
          5    1    3    3  503    0  0.33466809074E+02  0.36542602296E+01  0.96120690575E+02  0.10195419601E+03  0.47000000000E+01 0. -1.
         -5    1    4    4    0  502  0.21477064278E+02 -0.32722635348E+02  0.10345172828E+03  0.11070855991E+03  0.47000000000E+01 0.  1.
<mgrwt>
<rscale>  0 0.90659089E+02</rscale>
<asrwt>0</asrwt>
<pdfrwt beam="1">  1        1 0.43152136E-01 0.91451059E+02</pdfrwt>
<pdfrwt beam="2">  1       -1 0.44328609E-02 0.91451059E+02</pdfrwt>
<totfact> 0.18092368E+04</totfact>
</mgrwt>
</event>
<event>
 8    1  0.3400573E-004  0.2283793E+03  0.7546771E-02  0.1128855E+00
          2   -1    0    0  501    0  0.00000000000E+00  0.00000000000E+00  0.21981061703E+03  0.21981061703E+03  0.00000000000E+00 0. -1.
         -2   -1    0    0    0  501 -0.00000000000E+00 -0.00000000000E+00 -0.23182699498E+03  0.23182699498E+03  0.00000000000E+00 0.  1.
         23    2    1    2    0    0  0.16784600182E+01 -0.20320917053E+03  0.60894232408E+01  0.22846049914E+03  0.10421292807E+03 0.  0.
         23    2    1    2    0    0 -0.16784600182E+01  0.20320917053E+03 -0.18105801195E+02  0.22317711287E+03  0.90462254306E+02 0.  0.
          5    1    3    3  502    0 -0.50947671131E+02 -0.99966579336E+02  0.64329013730E+01  0.11248312939E+03  0.47000000000E+01 0. -1.
         -5    1    3    3    0  502  0.52626131149E+02 -0.10324259120E+03 -0.34347813213E+00  0.11597736975E+03  0.47000000000E+01 0.  1.
          5    1    4    4  503    0 -0.10857302949E+02  0.79321574117E+02  0.35613696344E+02  0.87750888970E+02  0.47000000000E+01 0. -1.
         -5    1    4    4    0  503  0.91788429304E+01  0.12388759641E+03 -0.53719497539E+02  0.13542622390E+03  0.47000000000E+01 0.  1.
<mgrwt>
<rscale>  0 0.22688017E+03</rscale>
<asrwt>0</asrwt>
<pdfrwt beam="1">  1        2 0.33817018E-01 0.22837933E+03</pdfrwt>
<pdfrwt beam="2">  1       -2 0.35665691E-01 0.22837933E+03</pdfrwt>
<totfact> 0.11356176E+03</totfact>
</mgrwt>
</event>
<event>
 8    1  0.3400573E-004  0.9182142E+02  0.7546771E-02  0.1298748E+00
         -1   -1    0    0    0  501 -0.00000000000E+00  0.00000000000E+00  0.48284608267E+02  0.48284608267E+02  0.00000000000E+00 0.  1.
          1   -1    0    0  501    0  0.00000000000E+00 -0.00000000000E+00 -0.17677313601E+03  0.17677313601E+03  0.00000000000E+00 0. -1.
         23    2    1    2    0    0 -0.14679254631E+02  0.63268483505E+01 -0.78656096683E+02  0.12058552300E+03  0.89992095683E+02 0.  0.
         23    2    1    2    0    0  0.14679254631E+02 -0.63268483505E+01 -0.49832431057E+02  0.10447222127E+03  0.90419380145E+02 0.  0.
          5    1    3    3  502    0  0.80740201397E+01  0.45175343532E+02 -0.40227394356E+02  0.61207309377E+02  0.47000000000E+01 0. -1.
         -5    1    3    3    0  502 -0.22753274771E+02 -0.38848495182E+02 -0.38428702326E+02  0.59378213624E+02  0.47000000000E+01 0.  1.
          5    1    4    4  503    0  0.39142836298E+02 -0.99559861761E+01 -0.63820388784E+02  0.75673081863E+02  0.47000000000E+01 0. -1.
         -5    1    4    4    0  503 -0.24463581667E+02  0.36291378256E+01  0.13987957727E+02  0.28799139409E+02  0.47000000000E+01 0.  1.
<mgrwt>
<rscale>  0 0.91716060E+02</rscale>
<asrwt>0</asrwt>
<pdfrwt beam="1">  1        1 0.27195867E-01 0.91821424E+02</pdfrwt>
<pdfrwt beam="2">  1       -1 0.74284013E-02 0.91821424E+02</pdfrwt>
<totfact> 0.14900275E+04</totfact>
</mgrwt>
</event>
<event>
 8    1  0.3400573E-004  0.1159366E+03  0.7546771E-02  0.1253154E+00
         -1   -1    0    0    0  501 -0.00000000000E+00  0.00000000000E+00  0.20569349750E+02  0.20569349750E+02  0.00000000000E+00 0.  1.
          1   -1    0    0  501    0  0.00000000000E+00 -0.00000000000E+00 -0.71545432302E+03  0.71545432302E+03  0.00000000000E+00 0. -1.
         23    2    1    2    0    0 -0.57818323010E+02 -0.31915742497E+02 -0.21823039550E+03  0.24711495933E+03  0.95287588439E+02 0.  0.
         23    2    1    2    0    0  0.57818323010E+02  0.31915742497E+02 -0.47665457777E+03  0.48890871343E+03  0.86432461907E+02 0.  0.
          5    1    4    4  502    0  0.24702691666E+02  0.52590979382E+02 -0.16942450526E+03  0.17917250646E+03  0.47000000000E+01 0. -1.
         -5    1    3    3    0  503 -0.61467397292E+02 -0.54268976879E+02 -0.20410913112E+03  0.22001361364E+03  0.47000000000E+01 0.  1.
          5    1    3    3  503    0  0.36490742822E+01  0.22353234382E+02 -0.14121264380E+02  0.27101345689E+02  0.47000000000E+01 0. -1.
         -5    1    4    4    0  502  0.33115631344E+02 -0.20675236885E+02 -0.30723007250E+03  0.30973620697E+03  0.47000000000E+01 0.  1.
<mgrwt>
<rscale>  0 0.11410335E+03</rscale>
<asrwt>0</asrwt>
<pdfrwt beam="1">  1        1 0.11006987E+00 0.11593661E+03</pdfrwt>
<pdfrwt beam="2">  1       -1 0.31645161E-02 0.11593661E+03</pdfrwt>
<totfact> 0.90387397E+03</totfact>
</mgrwt>
</event>
<event>
 8    1  0.3400573E-004  0.9696318E+02  0.7546771E-02  0.1291531E+00
         -1   -1    0    0    0  501 -0.00000000000E+00  0.00000000000E+00  0.13302547053E+02  0.13302547053E+02  0.00000000000E+00 0.  1.
          1   -1    0    0  501    0  0.00000000000E+00 -0.00000000000E+00 -0.67281052797E+03  0.67281052797E+03  0.00000000000E+00 0. -1.
         23    2    1    2    0    0  0.23111551657E+02  0.30729208712E+02 -0.38125742494E+03  0.39145186401E+03  0.79993185169E+02 0.  0.
         23    2    1    2    0    0 -0.23111551657E+02 -0.30729208712E+02 -0.27825055598E+03  0.29466121102E+03  0.89013646644E+02 0.  0.
          5    1    3    3  502    0 -0.19554171464E+02 -0.13697150106E+02 -0.15562171648E+03  0.15751249532E+03  0.47000000000E+01 0. -1.
         -5    1    4    4    0  503  0.32585928993E+02 -0.22967140226E+02 -0.12884059053E+03  0.13494932407E+03  0.47000000000E+01 0.  1.
          5    1    4    4  503    0 -0.55697480650E+02 -0.77620684862E+01 -0.14940996545E+03  0.15971188695E+03  0.47000000000E+01 0. -1.
         -5    1    3    3    0  502  0.42665723121E+02  0.44426358818E+02 -0.22563570846E+03  0.23393936868E+03  0.47000000000E+01 0.  1.
<mgrwt>
<rscale>  0 0.94842404E+02</rscale>
<asrwt>0</asrwt>
<pdfrwt beam="1">  1        1 0.10350931E+00 0.96963175E+02</pdfrwt>
<pdfrwt beam="2">  1       -1 0.20465457E-02 0.96963175E+02</pdfrwt>
<totfact> 0.18213496E+04</totfact>
</mgrwt>
</event>
<event>
 8    1  0.3400573E-004  0.1016595E+03  0.7546771E-02  0.1287677E+00
          2   -1    0    0  501    0  0.00000000000E+00  0.00000000000E+00  0.14004159562E+03  0.14004159562E+03  0.00000000000E+00 0. -1.
         -2   -1    0    0    0  501 -0.00000000000E+00 -0.00000000000E+00 -0.61371541768E+02  0.61371541768E+02  0.00000000000E+00 0.  1.
         23    2    1    2    0    0 -0.27473872607E+02 -0.33068133584E+02  0.45596694918E+02  0.94508973676E+02  0.70743002362E+02 0.  0.
         23    2    1    2    0    0  0.27473872607E+02  0.33068133584E+02  0.33073358932E+02  0.10690416371E+03  0.92121322248E+02 0.  0.
          5    1    4    4  502    0 -0.29825694857E+02  0.16298435782E+02  0.32133158384E+02  0.47008945429E+02  0.47000000000E+01 0. -1.
         -5    1    3    3    0  503 -0.33958079121E+01 -0.50958158640E+02  0.36018586749E+02  0.62671317480E+02  0.47000000000E+01 0.  1.
          5    1    3    3  503    0 -0.24078064694E+02  0.17890025056E+02  0.95781081694E+01  0.31837656196E+02  0.47000000000E+01 0. -1.
         -5    1    4    4    0  502  0.57299567463E+02  0.16769697801E+02  0.94020054800E+00  0.59895218281E+02  0.47000000000E+01 0.  1.
<mgrwt>
<rscale>  0 0.96570652E+02</rscale>
<asrwt>0</asrwt>
<pdfrwt beam="1">  1        2 0.21544861E-01 0.10165950E+03</pdfrwt>
<pdfrwt beam="2">  1       -2 0.94417757E-02 0.10165950E+03</pdfrwt>
<totfact> 0.16777879E+04</totfact>
</mgrwt>
</event>
<event>
 8    1  0.3400573E-004  0.1031428E+03  0.7546771E-02  0.1277643E+00
         -1   -1    0    0    0  501 -0.00000000000E+00  0.00000000000E+00  0.29311531228E+02  0.29311531228E+02  0.00000000000E+00 0.  1.
          1   -1    0    0  501    0  0.00000000000E+00 -0.00000000000E+00 -0.35436565316E+03  0.35436565316E+03  0.00000000000E+00 0. -1.
         23    2    1    2    0    0 -0.15166183385E+02  0.26412865818E+02 -0.19834313408E+03  0.22029385553E+03  0.90894066634E+02 0.  0.
         23    2    1    2    0    0  0.15166183385E+02 -0.26412865818E+02 -0.12671098786E+03  0.16338332886E+03  0.98543315889E+02 0.  0.
          5    1    4    4  502    0 -0.66259806268E+01 -0.21260066489E+02 -0.13658103896E+03  0.13846430677E+03  0.47000000000E+01 0. -1.
         -5    1    3    3    0  503 -0.10549445404E+02 -0.31165887472E+02 -0.10765769437E+03  0.11267152479E+03  0.47000000000E+01 0.  1.
          5    1    3    3  503    0 -0.46167379805E+01  0.57578753290E+02 -0.90685439705E+02  0.10762233074E+03  0.47000000000E+01 0. -1.
         -5    1    4    4    0  502  0.21792164011E+02 -0.51527993290E+01  0.98700511004E+01  0.24919022091E+02  0.47000000000E+01 0.  1.
<mgrwt>
<rscale>  0 0.10127214E+03</rscale>
<asrwt>0</asrwt>
<pdfrwt beam="1">  1        1 0.54517794E-01 0.10314280E+03</pdfrwt>
<pdfrwt beam="2">  1       -1 0.45094663E-02 0.10314280E+03</pdfrwt>
<totfact> 0.13399664E+04</totfact>
</mgrwt>
</event>
<event>
 8    1  0.3400573E-004  0.1120792E+03  0.7546771E-02  0.1259536E+00
         -1   -1    0    0    0  501 -0.00000000000E+00  0.00000000000E+00  0.30154562975E+03  0.30154562975E+03  0.00000000000E+00 0.  1.
          1   -1    0    0  501    0  0.00000000000E+00 -0.00000000000E+00 -0.77349605940E+02  0.77349605940E+02  0.00000000000E+00 0. -1.
         23    2    1    2    0    0  0.48064730936E+02  0.19113112265E+02  0.24620115276E+03  0.27051202263E+03  0.99429459135E+02 0.  0.
         23    2    1    2    0    0 -0.48064730936E+02 -0.19113112265E+02 -0.22005128951E+02  0.10838321306E+03  0.92666961499E+02 0.  0.
          5    1    3    3  502    0 -0.72951514870E+01 -0.34048628237E+02  0.80857023695E+02  0.88161650397E+02  0.47000000000E+01 0. -1.
         -5    1    3    3    0  502  0.55359882423E+02  0.53161740502E+02  0.16534412907E+03  0.18235037223E+03  0.47000000000E+01 0.  1.
          5    1    4    4  503    0 -0.44989130609E+02  0.12029375772E+02 -0.48285818505E+02  0.67248331006E+02  0.47000000000E+01 0. -1.
         -5    1    4    4    0  503 -0.30756003272E+01 -0.31142488037E+02  0.26280689554E+02  0.41134882058E+02  0.47000000000E+01 0.  1.
<mgrwt>
<rscale>  0 0.11056026E+03</rscale>
<asrwt>0</asrwt>
<pdfrwt beam="1">  1        1 0.11899940E-01 0.11207920E+03</pdfrwt>
<pdfrwt beam="2">  1       -1 0.46391635E-01 0.11207920E+03</pdfrwt>
<totfact> 0.23010637E+03</totfact>
</mgrwt>
</event>
<event>
 8    1  0.3400573E-004  0.1226338E+03  0.7546771E-02  0.1239373E+00
          2   -1    0    0  501    0  0.00000000000E+00  0.00000000000E+00  0.11036712266E+04  0.11036712266E+04  0.00000000000E+00 0. -1.
         -2   -1    0    0    0  501 -0.00000000000E+00 -0.00000000000E+00 -0.17320901425E+02  0.17320901425E+02  0.00000000000E+00 0.  1.
         23    2    1    2    0    0 -0.22877857419E+02 -0.77444255601E+02  0.28139584709E+03  0.30695710535E+03  0.92293188687E+02 0.  0.
         23    2    1    2    0    0  0.22877857419E+02  0.77444255601E+02  0.80495447807E+03  0.81403502266E+03  0.90444995824E+02 0.  0.
          5    1    3    3  502    0  0.20879935805E+02  0.61271554135E+01  0.99958393224E+02  0.10240744176E+03  0.47000000000E+01 0. -1.
         -5    1    4    4    0  503 -0.26327266355E+02  0.36455206720E+01  0.10277905183E+03  0.10626400270E+03  0.47000000000E+01 0.  1.
          5    1    4    4  503    0  0.49205123775E+02  0.73798734929E+02  0.70217542625E+03  0.70777101997E+03  0.47000000000E+01 0. -1.
         -5    1    3    3    0  502 -0.43757793224E+02 -0.83571411015E+02  0.18143745387E+03  0.20454966359E+03  0.47000000000E+01 0.  1.
<mgrwt>
<rscale>  0 0.12228609E+03</rscale>
<asrwt>0</asrwt>
<pdfrwt beam="1">  1        2 0.16979552E+00 0.12263377E+03</pdfrwt>
<pdfrwt beam="2">  1       -2 0.26647549E-02 0.12263377E+03</pdfrwt>
<totfact> 0.11025015E+04</totfact>
</mgrwt>
</event>
<event>
 8    1  0.3400573E-004  0.1055494E+03  0.7546771E-02  0.1269569E+00
         -2   -1    0    0    0  501 -0.00000000000E+00  0.00000000000E+00  0.41236869378E+02  0.41236869378E+02  0.00000000000E+00 0.  1.
          2   -1    0    0  501    0  0.00000000000E+00 -0.00000000000E+00 -0.47474104537E+03  0.47474104537E+03  0.00000000000E+00 0. -1.
         23    2    1    2    0    0  0.43878412331E+02  0.95255262831E+01 -0.38661373570E+03  0.40048167156E+03  0.94336302144E+02 0.  0.
         23    2    1    2    0    0 -0.43878412331E+02 -0.95255262831E+01 -0.46890440297E+02  0.11549624319E+03  0.95522866797E+02 0.  0.
          5    1    4    4  502    0  0.22988934271E+02 -0.10662918672E+02 -0.40692983388E+02  0.48168431888E+02  0.47000000000E+01 0. -1.
         -5    1    3    3    0  503  0.47942971593E+01 -0.37239866459E+02 -0.21503612228E+03  0.21834014020E+03  0.47000000000E+01 0.  1.
          5    1    3    3  503    0  0.39084115172E+02  0.46765392742E+02 -0.17157761342E+03  0.18214153136E+03  0.47000000000E+01 0. -1.
         -5    1    4    4    0  502 -0.66867346603E+02  0.11373923891E+01 -0.61974569089E+01  0.67327811306E+02  0.47000000000E+01 0.  1.
<mgrwt>
<rscale>  0 0.10528018E+03</rscale>
<asrwt>0</asrwt>
<pdfrwt beam="1">  1        2 0.73037083E-01 0.10554937E+03</pdfrwt>
<pdfrwt beam="2">  1       -2 0.63441338E-02 0.10554937E+03</pdfrwt>
<totfact> 0.84039846E+03</totfact>
</mgrwt>
</event>
<event>
 8    1  0.3400573E-004  0.1145170E+03  0.7546771E-02  0.1253215E+00
         -1   -1    0    0    0  501 -0.00000000000E+00  0.00000000000E+00  0.94847952059E+02  0.94847952059E+02  0.00000000000E+00 0.  1.
          1   -1    0    0  501    0  0.00000000000E+00 -0.00000000000E+00 -0.14447831511E+03  0.14447831511E+03  0.00000000000E+00 0. -1.
         23    2    1    2    0    0 -0.45561618535E+02  0.51160962756E+02 -0.53774284652E+02  0.12651410397E+03  0.91765132915E+02 0.  0.
         23    2    1    2    0    0  0.45561618535E+02 -0.51160962756E+02  0.41439215998E+01  0.11281216320E+03  0.89532714059E+02 0.  0.
          5    1    4    4  502    0  0.25298233792E+02 -0.12623007992E+02 -0.40929968841E+02  0.49966922190E+02  0.47000000000E+01 0. -1.
         -5    1    3    3    0  503 -0.26791384250E+02 -0.22956429314E+02 -0.29288421205E+02  0.46094224514E+02  0.47000000000E+01 0.  1.
          5    1    3    3  503    0 -0.18770234285E+02  0.74117392070E+02 -0.24485863447E+02  0.80419879452E+02  0.47000000000E+01 0. -1.
         -5    1    4    4    0  502  0.20263384742E+02 -0.38537954764E+02  0.45073890441E+02  0.62845241014E+02  0.47000000000E+01 0.  1.
<mgrwt>
<rscale>  0 0.11406914E+03</rscale>
<asrwt>0</asrwt>
<pdfrwt beam="1">  1        1 0.22227433E-01 0.11451701E+03</pdfrwt>
<pdfrwt beam="2">  1       -1 0.14591993E-01 0.11451701E+03</pdfrwt>
<totfact> 0.70015308E+03</totfact>
</mgrwt>
</event>
<event>
 8    1  0.3400573E-004  0.1168511E+03  0.7546771E-02  0.1257669E+00
         -2   -1    0    0    0  501 -0.00000000000E+00  0.00000000000E+00  0.63052115093E+02  0.63052115093E+02  0.00000000000E+00 0.  1.
          2   -1    0    0  501    0  0.00000000000E+00 -0.00000000000E+00 -0.41771456062E+03  0.41771456062E+03  0.00000000000E+00 0. -1.
         23    2    1    2    0    0 -0.14685915897E+02  0.26058903278E+02  0.10162577521E+02  0.97685122552E+02  0.92435721560E+02 0.  0.
         23    2    1    2    0    0  0.14685915897E+02 -0.26058903278E+02 -0.36482502305E+03  0.38308155316E+03  0.11295767510E+03 0.  0.
          5    1    4    4  502    0  0.54172268414E+02 -0.17689583163E+02 -0.30775681485E+03  0.31302380597E+03  0.47000000000E+01 0. -1.
         -5    1    3    3    0  503 -0.28856360586E+02  0.49399574149E+02 -0.15986211956E+02  0.59587384949E+02  0.47000000000E+01 0.  1.
          5    1    3    3  503    0  0.14170444689E+02 -0.23340670871E+02  0.26148789477E+02  0.38097737603E+02  0.47000000000E+01 0. -1.
         -5    1    4    4    0  502 -0.39486352516E+02 -0.83693201156E+01 -0.57068208191E+02  0.70057747183E+02  0.47000000000E+01 0.  1.
<mgrwt>
<rscale>  0 0.11158118E+03</rscale>
<asrwt>0</asrwt>
<pdfrwt beam="1">  1        2 0.64263781E-01 0.11685110E+03</pdfrwt>
<pdfrwt beam="2">  1       -2 0.97003250E-02 0.11685110E+03</pdfrwt>
<totfact> 0.50565641E+03</totfact>
</mgrwt>
</event>
<event>
 8    1  0.3400573E-004  0.1380624E+03  0.7546771E-02  0.1216744E+00
          1   -1    0    0  501    0  0.00000000000E+00  0.00000000000E+00  0.30289588248E+02  0.30289588248E+02  0.00000000000E+00 0. -1.
         -1   -1    0    0    0  501 -0.00000000000E+00 -0.00000000000E+00 -0.75842382912E+03  0.75842382912E+03  0.00000000000E+00 0.  1.
         23    2    1    2    0    0  0.98953839530E+02 -0.12766958950E+02 -0.19745488780E+03  0.24093497607E+03  0.95427314645E+02 0.  0.
         23    2    1    2    0    0 -0.98953839530E+02  0.12766958950E+02 -0.53067935307E+03  0.54777844130E+03  0.92118333530E+02 0.  0.
          5    1    4    4  502    0 -0.15132441160E+02  0.13660535753E+02 -0.16110639083E+02  0.26405372639E+02  0.47000000000E+01 0.  1.
         -5    1    4    4    0  502 -0.83821398369E+02 -0.89357680249E+00 -0.51456871399E+03  0.52137306866E+03  0.47000000000E+01 0.  1.
          5    1    3    3  503    0  0.35432140418E+01  0.29164847915E+02 -0.71124591523E+02  0.77096953500E+02  0.47000000000E+01 0. -1.
         -5    1    3    3    0  503  0.95410625488E+02 -0.41931806865E+02 -0.12633029628E+03  0.16383802257E+03  0.47000000000E+01 0. -1.
<mgrwt>
<rscale>  0 0.13749237E+03</rscale>
<asrwt>0</asrwt>
<pdfrwt beam="1">  1        1 0.46599367E-02 0.13806241E+03</pdfrwt>
<pdfrwt beam="2">  1       -1 0.11668059E+00 0.13806241E+03</pdfrwt>
<totfact> 0.12714126E+03</totfact>
</mgrwt>
</event>
<event>
 8    1  0.3400573E-004  0.9380730E+02  0.7546771E-02  0.1294209E+00
          2   -1    0    0  501    0  0.00000000000E+00  0.00000000000E+00  0.60486420817E+03  0.60486420817E+03  0.00000000000E+00 0. -1.
         -2   -1    0    0    0  501 -0.00000000000E+00 -0.00000000000E+00 -0.17132738180E+02  0.17132738180E+02  0.00000000000E+00 0.  1.
         23    2    1    2    0    0 -0.26559242977E+02 -0.22954045929E+01  0.41742104567E+03  0.42783190399E+03  0.89939682211E+02 0.  0.
         23    2    1    2    0    0  0.26559242977E+02  0.22954045929E+01  0.17031042432E+03  0.19416504235E+03  0.89351892939E+02 0.  0.
          5    1    3    3  502    0 -0.74605125433E-01 -0.43326998873E+02  0.16313474357E+03  0.16885576376E+03  0.47000000000E+01 0.  1.
         -5    1    4    4    0  503  0.15863678859E+02  0.45101036576E+02  0.75541484090E+02  0.89522989370E+02  0.47000000000E+01 0.  1.
          5    1    4    4  503    0  0.10695564118E+02 -0.42805631983E+02  0.94768940227E+02  0.10464205299E+03  0.47000000000E+01 0. -1.
         -5    1    3    3    0  502 -0.26484637851E+02  0.41031594280E+02  0.25428630210E+03  0.25897614023E+03  0.47000000000E+01 0. -1.
<mgrwt>
<rscale>  0 0.93666126E+02</rscale>
<asrwt>0</asrwt>
<pdfrwt beam="1">  1        2 0.93056015E-01 0.93807296E+02</pdfrwt>
<pdfrwt beam="2">  1       -2 0.26358063E-02 0.93807296E+02</pdfrwt>
<totfact> 0.23331442E+04</totfact>
</mgrwt>
</event>
<event>
 8    1  0.3400573E-004  0.1017227E+03  0.7546771E-02  0.1276807E+00
         -3   -1    0    0    0  501 -0.00000000000E+00  0.00000000000E+00  0.44666756567E+02  0.44666756567E+02  0.00000000000E+00 0.  1.
          3   -1    0    0  501    0  0.00000000000E+00 -0.00000000000E+00 -0.35319916205E+03  0.35319916205E+03  0.00000000000E+00 0. -1.
         23    2    1    2    0    0  0.12650335628E+01 -0.42382699809E+02 -0.37463096229E+02  0.10840194999E+03  0.92464077506E+02 0.  0.
         23    2    1    2    0    0 -0.12650335628E+01  0.42382699809E+02 -0.27106930926E+03  0.28946396863E+03  0.92265514485E+02 0.  0.
          5    1    3    3  502    0  0.22270828459E+02 -0.57374093461E+02 -0.49900000168E+02  0.79371760831E+02  0.47000000000E+01 0. -1.
         -5    1    4    4    0  503  0.23276516188E+02  0.50265144385E+02 -0.85040213055E+02  0.10159876369E+03  0.47000000000E+01 0.  1.
          5    1    4    4  503    0 -0.24541549751E+02 -0.78824445764E+01 -0.18602909620E+03  0.18786520495E+03  0.47000000000E+01 0. -1.
         -5    1    3    3    0  502 -0.21005794896E+02  0.14991393653E+02  0.12436903938E+02  0.29030189156E+02  0.47000000000E+01 0.  1.
<mgrwt>
<rscale>  0 0.10167751E+03</rscale>
<asrwt>0</asrwt>
<pdfrwt beam="1">  1        3 0.54338335E-01 0.10172266E+03</pdfrwt>
<pdfrwt beam="2">  1       -3 0.68718084E-02 0.10172266E+03</pdfrwt>
<totfact> 0.10137422E+03</totfact>
</mgrwt>
</event>
<event>
 8    1  0.3400573E-004  0.1012217E+03  0.7546771E-02  0.1279349E+00
         -1   -1    0    0    0  501 -0.00000000000E+00  0.00000000000E+00  0.84020842128E+03  0.84020842128E+03  0.00000000000E+00 0.  1.
          1   -1    0    0  501    0  0.00000000000E+00 -0.00000000000E+00 -0.17677454697E+02  0.17677454697E+02  0.00000000000E+00 0. -1.
         23    2    1    2    0    0  0.46989208228E+02  0.56840805135E+01  0.16038337634E+03  0.18804615067E+03  0.86012981079E+02 0.  0.
         23    2    1    2    0    0 -0.46989208228E+02 -0.56840805135E+01  0.66214759024E+03  0.66983972531E+03  0.89473637882E+02 0.  0.
          5    1    4    4  502    0 -0.68885238538E+02 -0.22089850900E+02  0.43453917393E+03  0.44054457355E+03  0.47000000000E+01 0. -1.
         -5    1    4    4    0  502  0.21896030310E+02  0.16405770387E+02  0.22760841631E+03  0.22929515176E+03  0.47000000000E+01 0.  1.
          5    1    3    3  503    0  0.59074976175E+02  0.23803021505E+02  0.15084902465E+03  0.16381072883E+03  0.47000000000E+01 0. -1.
         -5    1    3    3    0  503 -0.12085767947E+02 -0.18118940992E+02  0.95343516938E+01  0.24235421840E+02  0.47000000000E+01 0.  1.
<mgrwt>
<rscale>  0 0.10045151E+03</rscale>
<asrwt>0</asrwt>
<pdfrwt beam="1">  1        1 0.27196091E-02 0.10122167E+03</pdfrwt>
<pdfrwt beam="2">  1       -1 0.12926280E+00 0.10122167E+03</pdfrwt>
<totfact> 0.20613241E+03</totfact>
</mgrwt>
</event>
<event>
 8    1  0.3400573E-004  0.9445768E+02  0.7546771E-02  0.1294354E+00
         -2   -1    0    0    0  501 -0.00000000000E+00  0.00000000000E+00  0.11642782242E+03  0.11642782242E+03  0.00000000000E+00 0.  1.
          2   -1    0    0  501    0  0.00000000000E+00 -0.00000000000E+00 -0.13553450099E+03  0.13553450099E+03  0.00000000000E+00 0. -1.
         23    2    1    2    0    0  0.25486199731E+01  0.21503434710E+02  0.75284890867E+02  0.12078935676E+03  0.91942159780E+02 0.  0.
         23    2    1    2    0    0 -0.25486199731E+01 -0.21503434710E+02 -0.94391569438E+02  0.13117296665E+03  0.88474208842E+02 0.  0.
          5    1    3    3  502    0  0.39766083718E+02 -0.69536924949E+01  0.12921146220E+02  0.42646702959E+02  0.47000000000E+01 0. -1.
         -5    1    4    4    0  503  0.24625674616E+02  0.18393000916E+02 -0.80126644007E+01  0.32109486508E+02  0.47000000000E+01 0.  1.
          5    1    4    4  503    0 -0.27174294589E+02 -0.39896435626E+02 -0.86378905037E+02  0.99063480140E+02  0.47000000000E+01 0. -1.
         -5    1    3    3    0  502 -0.37217463745E+02  0.28457127205E+02  0.62363744647E+02  0.78142653799E+02  0.47000000000E+01 0.  1.
<mgrwt>
<rscale>  0 0.93603125E+02</rscale>
<asrwt>0</asrwt>
<pdfrwt beam="1">  1        2 0.20851462E-01 0.94457683E+02</pdfrwt>
<pdfrwt beam="2">  1       -2 0.17911973E-01 0.94457683E+02</pdfrwt>
<totfact> 0.62102806E+03</totfact>
</mgrwt>
</event>
<event>
 8    1  0.3400573E-004  0.1024149E+03  0.7546771E-02  0.1278630E+00
         -2   -1    0    0    0  501 -0.00000000000E+00  0.00000000000E+00  0.28573140432E+03  0.28573140432E+03  0.00000000000E+00 0.  1.
          2   -1    0    0  501    0  0.00000000000E+00 -0.00000000000E+00 -0.37217569659E+02  0.37217569659E+02  0.00000000000E+00 0. -1.
         23    2    1    2    0    0  0.17937039608E+02 -0.35857605641E+02  0.17171217664E+03  0.19993468682E+03  0.94240660625E+02 0.  0.
         23    2    1    2    0    0 -0.17937039608E+02  0.35857605641E+02  0.76801658021E+02  0.12301428716E+03  0.87329919834E+02 0.  0.
          5    1    4    4  502    0 -0.47364888281E+02  0.44203744015E+02  0.48361853348E+02  0.80983717414E+02  0.47000000000E+01 0. -1.
         -5    1    3    3    0  503  0.48659947099E+02 -0.42054676087E+02  0.79130875727E+02  0.10207924238E+03  0.47000000000E+01 0.  1.
          5    1    3    3  503    0 -0.30722907491E+02  0.61970704468E+01  0.92581300917E+02  0.97855444438E+02  0.47000000000E+01 0. -1.
         -5    1    4    4    0  502  0.29427848673E+02 -0.83461383748E+01  0.28439804673E+02  0.42030569745E+02  0.47000000000E+01 0.  1.
<mgrwt>
<rscale>  0 0.10079666E+03</rscale>
<asrwt>0</asrwt>
<pdfrwt beam="1">  1        2 0.57257801E-02 0.10241488E+03</pdfrwt>
<pdfrwt beam="2">  1       -2 0.43958676E-01 0.10241488E+03</pdfrwt>
<totfact> 0.60149550E+03</totfact>
</mgrwt>
</event>
<event>
 8    1  0.3400573E-004  0.1023666E+03  0.7546771E-02  0.1283369E+00
          2   -1    0    0  501    0  0.00000000000E+00  0.00000000000E+00  0.42288574186E+03  0.42288574186E+03  0.00000000000E+00 0. -1.
         -2   -1    0    0    0  501 -0.00000000000E+00 -0.00000000000E+00 -0.24345494659E+02  0.24345494659E+02  0.00000000000E+00 0.  1.
         23    2    1    2    0    0  0.61858070307E+01 -0.72687839198E+01  0.28998929353E+03  0.30752676632E+03  0.10192066628E+03 0.  0.
         23    2    1    2    0    0 -0.61858070307E+01  0.72687839198E+01  0.10855095368E+03  0.13970447020E+03  0.87423852705E+02 0.  0.
          5    1    4    4  502    0 -0.13554286629E+02 -0.22313292443E+02  0.10541252766E+03  0.10869909242E+03  0.47000000000E+01 0. -1.
         -5    1    3    3    0  503 -0.40378759744E+02  0.43779289069E+01  0.21141097269E+03  0.21532835362E+03  0.47000000000E+01 0.  1.
          5    1    3    3  503    0  0.46564566775E+02 -0.11646712827E+02  0.78578320839E+02  0.92198412700E+02  0.47000000000E+01 0. -1.
         -5    1    4    4    0  502  0.73684795980E+01  0.29582076363E+02  0.31384260200E+01  0.31005377782E+02  0.47000000000E+01 0.  1.
<mgrwt>
<rscale>  0 0.98552909E+02</rscale>
<asrwt>0</asrwt>
<pdfrwt beam="1">  1        2 0.65059340E-01 0.10236660E+03</pdfrwt>
<pdfrwt beam="2">  1       -2 0.37454610E-02 0.10236660E+03</pdfrwt>
<totfact> 0.20801220E+04</totfact>
</mgrwt>
</event>
<event>
 8    1  0.3400573E-004  0.9695704E+02  0.7546771E-02  0.1287790E+00
         -3   -1    0    0    0  501 -0.00000000000E+00  0.00000000000E+00  0.10949729860E+03  0.10949729860E+03  0.00000000000E+00 0.  1.
          3   -1    0    0  501    0  0.00000000000E+00 -0.00000000000E+00 -0.86830243184E+02  0.86830243184E+02  0.00000000000E+00 0. -1.
         23    2    1    2    0    0 -0.29509356135E+02  0.13752101002E+02  0.28118996840E+02  0.10095219099E+03  0.91327676535E+02 0.  0.
         23    2    1    2    0    0  0.29509356135E+02 -0.13752101002E+02 -0.54519414217E+01  0.95375350795E+02  0.89480788399E+02 0.  0.
          5    1    4    4  502    0  0.50391678368E+01  0.24911957124E+02  0.28296716001E+02  0.38324834725E+02  0.47000000000E+01 0. -1.
         -5    1    4    4    0  502  0.24470188298E+02 -0.38664058126E+02 -0.33748657422E+02  0.57050516070E+02  0.47000000000E+01 0.  1.
          5    1    3    3  503    0 -0.20440423068E+01  0.22528325027E+02 -0.28831055829E+02  0.36946221967E+02  0.47000000000E+01 0. -1.
         -5    1    3    3    0  503 -0.27465313828E+02 -0.87762240251E+01  0.56950052669E+02  0.64005969024E+02  0.47000000000E+01 0.  1.
<mgrwt>
<rscale>  0 0.96519676E+02</rscale>
<asrwt>0</asrwt>
<pdfrwt beam="1">  1        3 0.13358499E-01 0.96957036E+02</pdfrwt>
<pdfrwt beam="2">  1       -3 0.16845738E-01 0.96957036E+02</pdfrwt>
<totfact> 0.29399280E+03</totfact>
</mgrwt>
</event>
<event>
 8    1  0.3400573E-004  0.9766131E+02  0.7546771E-02  0.1286144E+00
          2   -1    0    0  501    0  0.00000000000E+00  0.00000000000E+00  0.64786061826E+02  0.64786061826E+02  0.00000000000E+00 0. -1.
         -2   -1    0    0    0  501 -0.00000000000E+00 -0.00000000000E+00 -0.23990358558E+03  0.23990358558E+03  0.00000000000E+00 0.  1.
         23    2    1    2    0    0 -0.28451837844E+02 -0.22465057446E+01 -0.18386070736E+03  0.20818859708E+03  0.93397957029E+02 0.  0.
         23    2    1    2    0    0  0.28451837844E+02  0.22465057446E+01  0.87431836102E+01  0.96501050325E+02  0.91768489088E+02 0.  0.
          5    1    4    4  502    0  0.47765616405E+02 -0.30634152258E+02  0.11082500900E+02  0.58007906541E+02  0.47000000000E+01 0. -1.
         -5    1    4    4    0  502 -0.19313778562E+02  0.32880658002E+02 -0.23393172898E+01  0.38493143784E+02  0.47000000000E+01 0.  1.
          5    1    3    3  503    0  0.13255013810E+02  0.28946542582E+02 -0.24439999624E+02  0.40410410790E+02  0.47000000000E+01 0. -1.
         -5    1    3    3    0  503 -0.41706851653E+02 -0.31193048327E+02 -0.15942070774E+03  0.16777818629E+03  0.47000000000E+01 0.  1.
<mgrwt>
<rscale>  0 0.97269676E+02</rscale>
<asrwt>0</asrwt>
<pdfrwt beam="1">  1        2 0.99670865E-02 0.97661314E+02</pdfrwt>
<pdfrwt beam="2">  1       -2 0.36908244E-01 0.97661314E+02</pdfrwt>
<totfact> 0.41653556E+03</totfact>
</mgrwt>
</event>
<event>
 8    1  0.3400573E-004  0.9097650E+02  0.7546771E-02  0.1300867E+00
         -1   -1    0    0    0  501 -0.00000000000E+00  0.00000000000E+00  0.13573527694E+03  0.13573527694E+03  0.00000000000E+00 0.  1.
          1   -1    0    0  501    0  0.00000000000E+00 -0.00000000000E+00 -0.74189572930E+02  0.74189572930E+02  0.00000000000E+00 0. -1.
         23    2    1    2    0    0  0.41603104535E+01 -0.74634820222E+01 -0.14112821508E+02  0.92064626011E+02  0.90574344517E+02 0.  0.
         23    2    1    2    0    0 -0.41603104535E+01  0.74634820222E+01  0.75658525520E+02  0.11786022386E+03  0.89965594188E+02 0.  0.
          5    1    4    4  502    0 -0.50869656258E+01 -0.26590744090E+02 -0.69810113891E+01  0.28350827334E+02  0.47000000000E+01 0. -1.
         -5    1    3    3    0  503  0.35186569249E+02  0.23612661023E+02  0.68438823531E+01  0.43180795984E+02  0.47000000000E+01 0.  1.
          5    1    3    3  503    0 -0.31026258795E+02 -0.31076143046E+02 -0.20956703861E+02  0.48883830027E+02  0.47000000000E+01 0. -1.
         -5    1    4    4    0  502  0.92665517228E+00  0.34054226112E+02  0.82639536909E+02  0.89509396526E+02  0.47000000000E+01 0.  1.
<mgrwt>
<rscale>  0 0.90824610E+02</rscale>
<asrwt>0</asrwt>
<pdfrwt beam="1">  1        1 0.11413780E-01 0.90976500E+02</pdfrwt>
<pdfrwt beam="2">  1       -1 0.20882350E-01 0.90976500E+02</pdfrwt>
<totfact> 0.91569002E+03</totfact>
</mgrwt>
</event>
<event>
 8    1  0.3400573E-004  0.1077268E+03  0.7546771E-02  0.1264990E+00
          2   -1    0    0  501    0  0.00000000000E+00  0.00000000000E+00  0.76708492659E+03  0.76708492659E+03  0.00000000000E+00 0. -1.
         -2   -1    0    0    0  501 -0.00000000000E+00 -0.00000000000E+00 -0.21425536983E+02  0.21425536983E+02  0.00000000000E+00 0.  1.
         23    2    1    2    0    0  0.41124893377E+02 -0.38704250980E+02  0.15794969914E+03  0.19100920604E+03  0.91362647925E+02 0.  0.
         23    2    1    2    0    0 -0.41124893377E+02  0.38704250980E+02  0.58770969047E+03  0.59750125753E+03  0.91737650826E+02 0.  0.
          5    1    4    4  502    0  0.13259084968E+02  0.46969522183E+02  0.20227636721E+03  0.20813399069E+03  0.47000000000E+01 0. -1.
         -5    1    3    3    0  503  0.35016235825E+02 -0.61256448632E+02  0.15008889561E+03  0.16591339866E+03  0.47000000000E+01 0.  1.
          5    1    3    3  503    0  0.61086575523E+01  0.22552197652E+02  0.78608035301E+01  0.25095807382E+02  0.47000000000E+01 0. -1.
         -5    1    4    4    0  502 -0.54383978345E+02 -0.82652712030E+01  0.38543332326E+03  0.38936726684E+03  0.47000000000E+01 0.  1.
<mgrwt>
<rscale>  0 0.10764696E+03</rscale>
<asrwt>0</asrwt>
<pdfrwt beam="1">  1        2 0.11801304E+00 0.10772684E+03</pdfrwt>
<pdfrwt beam="2">  1       -2 0.32962370E-02 0.10772684E+03</pdfrwt>
<totfact> 0.12928452E+04</totfact>
</mgrwt>
</event>
<event>
 8    1  0.3400573E-004  0.1028739E+03  0.7546771E-02  0.1276852E+00
         -2   -1    0    0    0  501 -0.00000000000E+00  0.00000000000E+00  0.98641946493E+03  0.98641946493E+03  0.00000000000E+00 0.  1.
          2   -1    0    0  501    0  0.00000000000E+00 -0.00000000000E+00 -0.36149029139E+02  0.36149029139E+02  0.00000000000E+00 0. -1.
         23    2    1    2    0    0 -0.27558878536E+02  0.10025874775E+02  0.91119645361E+03  0.91698528402E+03  0.98605395808E+02 0.  0.
         23    2    1    2    0    0  0.27558878536E+02 -0.10025874775E+02  0.39073982179E+02  0.10558321005E+03  0.93600364368E+02 0.  0.
          5    1    4    4  502    0  0.51081408465E+02  0.23855022068E+02  0.22254156927E+02  0.60792350416E+02  0.47000000000E+01 0. -1.
         -5    1    3    3    0  503  0.39185531567E+01  0.50377459273E+02  0.39809933530E+03  0.40132083702E+03  0.47000000000E+01 0.  1.
          5    1    3    3  503    0 -0.31477431692E+02 -0.40351584498E+02  0.51309711831E+03  0.51566444700E+03  0.47000000000E+01 0. -1.
         -5    1    4    4    0  502 -0.23522529929E+02 -0.33880896843E+02  0.16819825252E+02  0.44790859633E+02  0.47000000000E+01 0.  1.
<mgrwt>
<rscale>  0 0.10165566E+03</rscale>
<asrwt>0</asrwt>
<pdfrwt beam="1">  1        2 0.55613899E-02 0.10287387E+03</pdfrwt>
<pdfrwt beam="2">  1       -2 0.15175682E+00 0.10287387E+03</pdfrwt>
<totfact> 0.40936965E+02</totfact>
</mgrwt>
</event>
<event>
 8    1  0.3400573E-004  0.1122441E+03  0.7546771E-02  0.1257021E+00
         -2   -1    0    0    0  501 -0.00000000000E+00  0.00000000000E+00  0.95725784816E+02  0.95725784816E+02  0.00000000000E+00 0.  1.
          2   -1    0    0  501    0  0.00000000000E+00 -0.00000000000E+00 -0.14259522061E+03  0.14259522061E+03  0.00000000000E+00 0. -1.
         23    2    1    2    0    0  0.44354985068E+02 -0.45496441660E+02 -0.58697564579E+02  0.12666543229E+03  0.92528032211E+02 0.  0.
         23    2    1    2    0    0 -0.44354985068E+02  0.45496441660E+02  0.11828128783E+02  0.11165557314E+03  0.91048182184E+02 0.  0.
          5    1    4    4  502    0 -0.61144131634E+02  0.15669907317E+02 -0.18223409623E+02  0.65866026803E+02  0.47000000000E+01 0. -1.
         -5    1    3    3    0  503  0.46246881291E+02 -0.82974005687E+01  0.10102907436E+02  0.48288504056E+02  0.47000000000E+01 0.  1.
          5    1    3    3  503    0 -0.18918962225E+01 -0.37199041091E+02 -0.68800472015E+02  0.78376928231E+02  0.47000000000E+01 0. -1.
         -5    1    4    4    0  502  0.16789146565E+02  0.29826534344E+02  0.30051538406E+02  0.45789546339E+02  0.47000000000E+01 0.  1.
<mgrwt>
<rscale>  0 0.11193862E+03</rscale>
<asrwt>0</asrwt>
<pdfrwt beam="1">  1        2 0.21937726E-01 0.11224405E+03</pdfrwt>
<pdfrwt beam="2">  1       -2 0.14727044E-01 0.11224405E+03</pdfrwt>
<totfact> 0.81998774E+03</totfact>
</mgrwt>
</event>
<event>
 8    1  0.3400573E-004  0.1074685E+03  0.7546771E-02  0.1265490E+00
         -2   -1    0    0    0  501 -0.00000000000E+00  0.00000000000E+00  0.34317907393E+02  0.34317907393E+02  0.00000000000E+00 0.  1.
          2   -1    0    0  501    0  0.00000000000E+00 -0.00000000000E+00 -0.36529194784E+03  0.36529194784E+03  0.00000000000E+00 0. -1.
         23    2    1    2    0    0 -0.45965369282E+02  0.33386441005E+02 -0.10866743745E+03  0.15283355069E+03  0.91225065836E+02 0.  0.
         23    2    1    2    0    0  0.45965369282E+02 -0.33386441005E+02 -0.22230660299E+03  0.24677630455E+03  0.90834184833E+02 0.  0.
          5    1    3    3  502    0  0.13155477261E+02 -0.21487738128E+02 -0.17611911391E+02  0.31097570559E+02  0.47000000000E+01 0. -1.
         -5    1    4    4    0  503  0.48557378653E+02 -0.13192944513E+01 -0.44574861044E+02  0.66095142005E+02  0.47000000000E+01 0.  1.
          5    1    4    4  503    0 -0.25920093714E+01 -0.32067146553E+02 -0.17773174195E+03  0.18068116254E+03  0.47000000000E+01 0. -1.
         -5    1    3    3    0  502 -0.59120846543E+02  0.54874179132E+02 -0.91055526060E+02  0.12173598013E+03  0.47000000000E+01 0.  1.
<mgrwt>
<rscale>  0 0.10738552E+03</rscale>
<asrwt>0</asrwt>
<pdfrwt beam="1">  1        2 0.56198763E-01 0.10746852E+03</pdfrwt>
<pdfrwt beam="2">  1       -2 0.52796779E-02 0.10746852E+03</pdfrwt>
<totfact> 0.14661976E+04</totfact>
</mgrwt>
</event>
<event>
 8    1  0.3400573E-004  0.9369532E+02  0.7546771E-02  0.1295995E+00
         -2   -1    0    0    0  501 -0.00000000000E+00  0.00000000000E+00  0.33255680871E+02  0.33255680871E+02  0.00000000000E+00 0.  1.
          2   -1    0    0  501    0  0.00000000000E+00 -0.00000000000E+00 -0.40724427520E+03  0.40724427520E+03  0.00000000000E+00 0. -1.
         23    2    1    2    0    0 -0.70652143833E+01 -0.19708584264E+02 -0.50377064099E+02  0.10359754251E+03  0.88069612686E+02 0.  0.
         23    2    1    2    0    0  0.70652143833E+01  0.19708584264E+02 -0.32361153023E+03  0.33690241356E+03  0.91326163931E+02 0.  0.
          5    1    4    4  502    0  0.44780315161E+02 -0.81071522617E+01 -0.18209403222E+03  0.18775337310E+03  0.47000000000E+01 0. -1.
         -5    1    3    3    0  503 -0.32615136478E+02 -0.23790861872E+02  0.62892083958E+01  0.41126589675E+02  0.47000000000E+01 0.  1.
          5    1    3    3  503    0  0.25549922095E+02  0.40822776078E+01 -0.56666272495E+02  0.62470952834E+02  0.47000000000E+01 0. -1.
         -5    1    4    4    0  502 -0.37715100778E+02  0.27815736526E+02 -0.14151749801E+03  0.14914904045E+03  0.47000000000E+01 0.  1.
<mgrwt>
<rscale>  0 0.92892237E+02</rscale>
<asrwt>0</asrwt>
<pdfrwt beam="1">  1        2 0.62652969E-01 0.93695324E+02</pdfrwt>
<pdfrwt beam="2">  1       -2 0.51162583E-02 0.93695324E+02</pdfrwt>
<totfact> 0.13534307E+04</totfact>
</mgrwt>
</event>
<event>
 8    1  0.3400573E-004  0.1057032E+03  0.7546771E-02  0.1269004E+00
         -2   -1    0    0    0  501 -0.00000000000E+00  0.00000000000E+00  0.11791579645E+03  0.11791579645E+03  0.00000000000E+00 0.  1.
          2   -1    0    0  501    0  0.00000000000E+00 -0.00000000000E+00 -0.94350821051E+02  0.94350821051E+02  0.00000000000E+00 0. -1.
         23    2    1    2    0    0  0.21853945493E+02  0.47730514668E+02  0.87787623872E+01  0.10606710815E+03  0.91746214076E+02 0.  0.
         23    2    1    2    0    0 -0.21853945493E+02 -0.47730514668E+02  0.14786213007E+02  0.10619950935E+03  0.91125774220E+02 0.  0.
          5    1    4    4  502    0  0.16127186874E+02 -0.55488982638E+02 -0.11528695434E+02  0.59111032550E+02  0.47000000000E+01 0. -1.
         -5    1    4    4    0  502 -0.37981132367E+02  0.77584679703E+01  0.26314908441E+02  0.47088476801E+02  0.47000000000E+01 0.  1.
          5    1    3    3  503    0  0.32169494241E+02 -0.19241678613E+02  0.31468128284E+01  0.37909246715E+02  0.47000000000E+01 0. -1.
         -5    1    3    3    0  503 -0.10315548747E+02  0.66972193282E+02  0.56319495588E+01  0.68157861430E+02  0.47000000000E+01 0.  1.
<mgrwt>
<rscale>  0 0.10556842E+03</rscale>
<asrwt>0</asrwt>
<pdfrwt beam="1">  1        2 0.14515511E-01 0.10570319E+03</pdfrwt>
<pdfrwt beam="2">  1       -2 0.18140892E-01 0.10570319E+03</pdfrwt>
<totfact> 0.92742332E+03</totfact>
</mgrwt>
</event>
<event>
 8    1  0.3400573E-004  0.1071768E+03  0.7546771E-02  0.1267545E+00
         -1   -1    0    0    0  501 -0.00000000000E+00  0.00000000000E+00  0.21705046225E+02  0.21705046225E+02  0.00000000000E+00 0.  1.
          1   -1    0    0  501    0  0.00000000000E+00 -0.00000000000E+00 -0.55801976731E+03  0.55801976731E+03  0.00000000000E+00 0. -1.
         23    2    1    2    0    0 -0.54871850951E+02 -0.73203198489E+01 -0.35481496145E+03  0.37064877316E+03  0.91773357041E+02 0.  0.
         23    2    1    2    0    0  0.54871850951E+02  0.73203198489E+01 -0.18149975963E+03  0.20907604037E+03  0.87784513463E+02 0.  0.
          5    1    4    4  502    0  0.59537208211E+02 -0.28823009476E+02 -0.10462067010E+03  0.12386694333E+03  0.47000000000E+01 0. -1.
         -5    1    4    4    0  502 -0.46653572595E+01  0.36143329325E+02 -0.76879089527E+02  0.85209097047E+02  0.47000000000E+01 0.  1.
          5    1    3    3  503    0 -0.21722532261E+02 -0.29794190903E+02 -0.30159771442E+03  0.30387963664E+03  0.47000000000E+01 0. -1.
         -5    1    3    3    0  503 -0.33149318690E+02  0.22473871054E+02 -0.53217247029E+02  0.66769136517E+02  0.47000000000E+01 0.  1.
<mgrwt>
<rscale>  0 0.10631770E+03</rscale>
<asrwt>0</asrwt>
<pdfrwt beam="1">  1        1 0.85849195E-01 0.10717675E+03</pdfrwt>
<pdfrwt beam="2">  1       -1 0.33392379E-02 0.10717675E+03</pdfrwt>
<totfact> 0.11695119E+04</totfact>
</mgrwt>
</event>
<event>
 8    1  0.3400573E-004  0.1019045E+03  0.7546771E-02  0.1277136E+00
         -2   -1    0    0    0  501 -0.00000000000E+00  0.00000000000E+00  0.19157906598E+03  0.19157906598E+03  0.00000000000E+00 0.  1.
          2   -1    0    0  501    0  0.00000000000E+00 -0.00000000000E+00 -0.20524661951E+03  0.20524661951E+03  0.00000000000E+00 0. -1.
         23    2    1    2    0    0  0.40685152875E+02 -0.17497183361E+02  0.16384505003E+03  0.19214237356E+03  0.90066965143E+02 0.  0.
         23    2    1    2    0    0 -0.40685152875E+02  0.17497183361E+02 -0.17751260355E+03  0.20468331192E+03  0.91777451863E+02 0.  0.
          5    1    4    4  502    0 -0.24901393947E+02  0.55211405025E+02 -0.10648080815E+03  0.12259131768E+03  0.47000000000E+01 0. -1.
         -5    1    4    4    0  502 -0.15783758928E+02 -0.37714221664E+02 -0.71031795401E+02  0.82091994247E+02  0.47000000000E+01 0.  1.
          5    1    3    3  503    0  0.39645336719E+02 -0.51983367009E+02  0.10750518563E+03  0.12591059569E+03  0.47000000000E+01 0. -1.
         -5    1    3    3    0  503  0.10398161560E+01  0.34486183648E+02  0.56339864398E+02  0.66231777876E+02  0.47000000000E+01 0.  1.
<mgrwt>
<rscale>  0 0.10151790E+03</rscale>
<asrwt>0</asrwt>
<pdfrwt beam="1">  1        2 0.31576403E-01 0.10190453E+03</pdfrwt>
<pdfrwt beam="2">  1       -2 0.29473702E-01 0.10190453E+03</pdfrwt>
<totfact> 0.16907433E+03</totfact>
</mgrwt>
</event>
<event>
 8    1  0.3400573E-004  0.9248215E+02  0.7546771E-02  0.1297293E+00
          2   -1    0    0  501    0  0.00000000000E+00  0.00000000000E+00  0.34214909127E+03  0.34214909127E+03  0.00000000000E+00 0.  1.
         -2   -1    0    0    0  501 -0.00000000000E+00 -0.00000000000E+00 -0.51021138322E+02  0.51021138322E+02  0.00000000000E+00 0. -1.
         23    2    1    2    0    0  0.11373179200E+02  0.37271891845E+00  0.28616137310E+03  0.30055481272E+03  0.91188682806E+02 0.  0.
         23    2    1    2    0    0 -0.11373179200E+02 -0.37271891845E+00  0.49665798475E+01  0.92615416869E+02  0.91779411645E+02 0.  0.
          5    1    3    3  502    0 -0.30667964383E+02  0.27381843774E+02  0.14198266133E+03  0.14789001159E+03  0.47000000000E+01 0. -1.
         -5    1    4    4    0  503  0.77708529025E+01  0.35186079129E+02  0.28010616614E+02  0.45881706185E+02  0.47000000000E+01 0.  1.
          5    1    4    4  503    0 -0.19144032102E+02 -0.35558798048E+02 -0.23044036767E+02  0.46733710684E+02  0.47000000000E+01 0. -1.
         -5    1    3    3    0  502  0.42041143583E+02 -0.27009124855E+02  0.14417871177E+03  0.15266480114E+03  0.47000000000E+01 0.  1.
<mgrwt>
<rscale>  0 0.92335250E+02</rscale>
<asrwt>0</asrwt>
<pdfrwt beam="1">  1        2 0.52638320E-01 0.92482152E+02</pdfrwt>
<pdfrwt beam="2">  1       -2 0.78494061E-02 0.92482152E+02</pdfrwt>
<totfact> 0.85183105E+03</totfact>
</mgrwt>
</event>
<event>
 8    1  0.3400573E-004  0.2000576E+03  0.7546771E-02  0.1151222E+00
         -1   -1    0    0    0  501 -0.00000000000E+00  0.00000000000E+00  0.39629996616E+02  0.39629996616E+02  0.00000000000E+00 0.  1.
          1   -1    0    0  501    0  0.00000000000E+00 -0.00000000000E+00 -0.12729243066E+04  0.12729243066E+04  0.00000000000E+00 0. -1.
         23    2    1    2    0    0  0.57837584289E+02  0.16118907510E+03 -0.30735716954E+03  0.36673079267E+03  0.10342118032E+03 0.  0.
         23    2    1    2    0    0 -0.57837584289E+02 -0.16118907510E+03 -0.92593714043E+03  0.94582351053E+03  0.88856181258E+02 0.  0.
          5    1    4    4  502    0 -0.78790240123E+02 -0.14620991165E+03 -0.82336444463E+03  0.83996210562E+03  0.47000000000E+01 0. -1.
         -5    1    4    4    0  502  0.20952655834E+02 -0.14979163456E+02 -0.10257269581E+03  0.10586140491E+03  0.47000000000E+01 0.  1.
          5    1    3    3  503    0  0.26146656983E+02  0.55511459977E+01 -0.11029244891E+03  0.11358246863E+03  0.47000000000E+01 0. -1.
         -5    1    3    3    0  503  0.31690927306E+02  0.15563792911E+03 -0.19706472063E+03  0.25314832404E+03  0.47000000000E+01 0.  1.
<mgrwt>
<rscale>  0 0.19825175E+03</rscale>
<asrwt>0</asrwt>
<pdfrwt beam="1">  1        1 0.19583454E+00 0.20005760E+03</pdfrwt>
<pdfrwt beam="2">  1       -1 0.60969217E-02 0.20005760E+03</pdfrwt>
<totfact> 0.13315936E+03</totfact>
</mgrwt>
</event>
<event>
 8    1  0.3400573E-004  0.1672823E+03  0.7546771E-02  0.1181076E+00
          2   -1    0    0  501    0  0.00000000000E+00  0.00000000000E+00  0.21169046331E+03  0.21169046331E+03  0.00000000000E+00 0. -1.
         -2   -1    0    0    0  501 -0.00000000000E+00 -0.00000000000E+00 -0.18251821159E+03  0.18251821159E+03  0.00000000000E+00 0.  1.
         23    2    1    2    0    0  0.64340003221E+02 -0.12245185746E+03 -0.89969505742E+02  0.18994178399E+03  0.94070590151E+02 0.  0.
         23    2    1    2    0    0 -0.64340003221E+02  0.12245185746E+03  0.11914175746E+03  0.20426689091E+03  0.91630294878E+02 0.  0.
          5    1    4    4  502    0 -0.40995489058E+02  0.12836391541E+03  0.11883834274E+03  0.17972914791E+03  0.47000000000E+01 0. -1.
         -5    1    4    4    0  502 -0.23344514163E+02 -0.59120579539E+01  0.30341471999E+00  0.24537742994E+02  0.47000000000E+01 0.  1.
          5    1    3    3  503    0 -0.13519299933E+01 -0.38643712429E+02  0.13661980735E+02  0.41278371366E+02  0.47000000000E+01 0. -1.
         -5    1    3    3    0  503  0.65691933214E+02 -0.83808145029E+02 -0.10363148648E+03  0.14866341262E+03  0.47000000000E+01 0.  1.
<mgrwt>
<rscale>  0 0.16694126E+03</rscale>
<asrwt>0</asrwt>
<pdfrwt beam="1">  1        2 0.32567763E-01 0.16728230E+03</pdfrwt>
<pdfrwt beam="2">  1       -2 0.28079725E-01 0.16728230E+03</pdfrwt>
<totfact> 0.18168230E+03</totfact>
</mgrwt>
</event>
<event>
 8    1  0.3400573E-004  0.1066934E+03  0.7546771E-02  0.1268104E+00
          1   -1    0    0  501    0  0.00000000000E+00  0.00000000000E+00  0.99457823400E+03  0.99457823400E+03  0.00000000000E+00 0. -1.
         -1   -1    0    0    0  501 -0.00000000000E+00 -0.00000000000E+00 -0.11199170265E+02  0.11199170265E+02  0.00000000000E+00 0.  1.
         23    2    1    2    0    0  0.46741185594E+02 -0.30374105119E+02  0.51326876360E+03  0.52371186415E+03  0.87874730573E+02 0.  0.
         23    2    1    2    0    0 -0.46741185594E+02  0.30374105119E+02  0.47011030013E+03  0.48206554011E+03  0.90973435567E+02 0.  0.
          5    1    4    4  502    0 -0.52887719584E+02 -0.72774856854E+00  0.41444516118E+03  0.41783312713E+03  0.47000000000E+01 0. -1.
         -5    1    4    4    0  502  0.61465339901E+01  0.31101853688E+02  0.55665138956E+02  0.64232412985E+02  0.47000000000E+01 0.  1.
          5    1    3    3  503    0 -0.23685401343E+02  0.56653396852E+01  0.11939263687E+03  0.12194173219E+03  0.47000000000E+01 0. -1.
         -5    1    3    3    0  503  0.70426586937E+02 -0.36039444804E+02  0.39387612673E+03  0.40177013197E+03  0.47000000000E+01 0.  1.
<mgrwt>
<rscale>  0 0.10602989E+03</rscale>
<asrwt>0</asrwt>
<pdfrwt beam="1">  1        1 0.15301197E+00 0.10669344E+03</pdfrwt>
<pdfrwt beam="2">  1       -1 0.17229501E-02 0.10669344E+03</pdfrwt>
<totfact> 0.13002754E+04</totfact>
</mgrwt>
</event>
<event>
 8    1  0.3400573E-004  0.1080014E+03  0.7546771E-02  0.1265014E+00
         -2   -1    0    0    0  501 -0.00000000000E+00  0.00000000000E+00  0.17207413720E+02  0.17207413720E+02  0.00000000000E+00 0.  1.
          2   -1    0    0  501    0  0.00000000000E+00 -0.00000000000E+00 -0.79947575343E+03  0.79947575343E+03  0.00000000000E+00 0. -1.
         23    2    1    2    0    0  0.54882151175E+02  0.12137284938E+02 -0.22378388262E+03  0.24785174192E+03  0.90509091542E+02 0.  0.
         23    2    1    2    0    0 -0.54882151175E+02 -0.12137284938E+02 -0.55848445709E+03  0.56883142522E+03  0.92222217001E+02 0.  0.
          5    1    4    4  502    0 -0.63775394802E+02  0.22226833671E+02 -0.43584863035E+03  0.44107533563E+03  0.47000000000E+01 0. -1.
         -5    1    4    4    0  502  0.88932436265E+01 -0.34364118609E+02 -0.12263582673E+03  0.12775608960E+03  0.47000000000E+01 0.  1.
          5    1    3    3  503    0 -0.13161821609E+01  0.24935589146E+02 -0.15897878787E+03  0.16099646249E+03  0.47000000000E+01 0. -1.
         -5    1    3    3    0  503  0.56198333336E+02 -0.12798304208E+02 -0.64805094750E+02  0.86855279436E+02  0.47000000000E+01 0.  1.
<mgrwt>
<rscale>  0 0.10763476E+03</rscale>
<asrwt>0</asrwt>
<pdfrwt beam="1">  1        2 0.12299625E+00 0.10800140E+03</pdfrwt>
<pdfrwt beam="2">  1       -2 0.26472949E-02 0.10800140E+03</pdfrwt>
<totfact> 0.16932699E+04</totfact>
</mgrwt>
</event>
<event>
 8    1  0.3400573E-004  0.1094153E+03  0.7546771E-02  0.1262531E+00
         -2   -1    0    0    0  501 -0.00000000000E+00  0.00000000000E+00  0.22037939532E+02  0.22037939532E+02  0.00000000000E+00 0.  1.
          2   -1    0    0  501    0  0.00000000000E+00 -0.00000000000E+00 -0.55841878191E+03  0.55841878191E+03  0.00000000000E+00 0. -1.
         23    2    1    2    0    0  0.36941352012E+02 -0.42505701122E+02 -0.32662537796E+03  0.34387892414E+03  0.91636121821E+02 0.  0.
         23    2    1    2    0    0 -0.36941352012E+02  0.42505701122E+02 -0.20975546442E+03  0.23657779731E+03  0.93809920628E+02 0.  0.
          5    1    3    3  502    0  0.13734606877E+02 -0.31400981814E+02 -0.31200515700E+03  0.31391713728E+03  0.47000000000E+01 0. -1.
         -5    1    3    3    0  502  0.23206745135E+02 -0.11104719308E+02 -0.14620220960E+02  0.29961786856E+02  0.47000000000E+01 0.  1.
          5    1    4    4  503    0  0.18111312634E+01  0.63298488876E+02 -0.14343720444E+03  0.15686395541E+03  0.47000000000E+01 0. -1.
         -5    1    4    4    0  503 -0.38752483275E+02 -0.20792787755E+02 -0.66318259981E+02  0.79713841894E+02  0.47000000000E+01 0.  1.
<mgrwt>
<rscale>  0 0.10894779E+03</rscale>
<asrwt>0</asrwt>
<pdfrwt beam="1">  1        2 0.85910582E-01 0.10941526E+03</pdfrwt>
<pdfrwt beam="2">  1       -2 0.33904522E-02 0.10941526E+03</pdfrwt>
<totfact> 0.17926534E+04</totfact>
</mgrwt>
</event>
<event>
 8    1  0.3400573E-004  0.1195785E+03  0.7546771E-02  0.1244077E+00
          2   -1    0    0  501    0  0.00000000000E+00  0.00000000000E+00  0.10385586961E+04  0.10385586961E+04  0.00000000000E+00 0. -1.
         -2   -1    0    0    0  501 -0.00000000000E+00 -0.00000000000E+00 -0.14269767409E+02  0.14269767409E+02  0.00000000000E+00 0.  1.
         23    2    1    2    0    0  0.28409655081E+02  0.70503959413E+02  0.40462218968E+03  0.42172951345E+03  0.91426196138E+02 0.  0.
         23    2    1    2    0    0 -0.28409655081E+02 -0.70503959413E+02  0.61966673904E+03  0.63109895009E+03  0.92309807350E+02 0.  0.
          5    1    3    3  502    0  0.38976207555E+02 -0.74006405610E+01  0.12513617660E+03  0.13135854342E+03  0.47000000000E+01 0.  1.
         -5    1    4    4    0  503 -0.11606055606E+02 -0.88398466392E+02  0.54738209021E+03  0.55461539112E+03  0.47000000000E+01 0.  1.
          5    1    4    4  503    0 -0.16803599475E+02  0.17894506979E+02  0.72284648833E+02  0.76483558967E+02  0.47000000000E+01 0. -1.
         -5    1    3    3    0  502 -0.10566552474E+02  0.77904599974E+02  0.27948601308E+03  0.29037097003E+03  0.47000000000E+01 0. -1.
<mgrwt>
<rscale>  0 0.11940794E+03</rscale>
<asrwt>0</asrwt>
<pdfrwt beam="1">  1        2 0.15977820E+00 0.11957850E+03</pdfrwt>
<pdfrwt beam="2">  1       -2 0.21953496E-02 0.11957850E+03</pdfrwt>
<totfact> 0.15909463E+04</totfact>
</mgrwt>
</event>
<event>
 8    1  0.3400573E-004  0.9216173E+02  0.7546771E-02  0.1298893E+00
          1   -1    0    0  501    0  0.00000000000E+00  0.00000000000E+00  0.16743851163E+03  0.16743851163E+03  0.00000000000E+00 0. -1.
         -1   -1    0    0    0  501 -0.00000000000E+00 -0.00000000000E+00 -0.50475891744E+02  0.50475891744E+02  0.00000000000E+00 0.  1.
         23    2    1    2    0    0  0.64263807016E+01  0.92716477014E+01  0.71975447777E+02  0.11535890285E+03  0.89442437156E+02 0.  0.
         23    2    1    2    0    0 -0.64263807016E+01 -0.92716477014E+01  0.44987172107E+02  0.10255550052E+03  0.91468700729E+02 0.  0.
          5    1    4    4  502    0 -0.23768245268E+02  0.15056313464E+01  0.67541308077E+02  0.71771266574E+02  0.47000000000E+01 0. -1.
         -5    1    4    4    0  502  0.17341864566E+02 -0.10777279048E+02 -0.22554135971E+02  0.30784233947E+02  0.47000000000E+01 0.  1.
          5    1    3    3  503    0 -0.37058522900E+02 -0.13369328041E+02  0.22796438987E+02  0.45758503935E+02  0.47000000000E+01 0. -1.
         -5    1    3    3    0  503  0.43484903602E+02  0.22640975743E+02  0.49179008790E+02  0.69600398917E+02  0.47000000000E+01 0.  1.
<mgrwt>
<rscale>  0 0.91654896E+02</rscale>
<asrwt>0</asrwt>
<pdfrwt beam="1">  1        1 0.25759771E-01 0.92161733E+02</pdfrwt>
<pdfrwt beam="2">  1       -1 0.77655219E-02 0.92161733E+02</pdfrwt>
<totfact> 0.14920503E+04</totfact>
</mgrwt>
</event>
<event>
 8    1  0.3400573E-004  0.1732897E+03  0.7546771E-02  0.1174559E+00
          2   -1    0    0  501    0  0.00000000000E+00  0.00000000000E+00  0.18977459253E+03  0.18977459253E+03  0.00000000000E+00 0. -1.
         -2   -1    0    0    0  501 -0.00000000000E+00 -0.00000000000E+00 -0.79153712724E+03  0.79153712724E+03  0.00000000000E+00 0.  1.
         23    2    1    2    0    0 -0.14576293204E+03  0.24307787897E+02 -0.73995115215E+03  0.75997172994E+03  0.90507578867E+02 0.  0.
         23    2    1    2    0    0  0.14576293204E+03 -0.24307787897E+02  0.13818861744E+03  0.22133998983E+03  0.89764114202E+02 0.  0.
          5    1    4    4  502    0  0.94989906148E+02  0.18354370731E+02  0.11628448307E+03  0.15134112527E+03  0.47000000000E+01 0. -1.
         -5    1    3    3    0  503 -0.98485808790E+02  0.58272167351E+02 -0.46648613876E+03  0.48033999175E+03  0.47000000000E+01 0.  1.
          5    1    3    3  503    0 -0.47277123247E+02 -0.33964379454E+02 -0.27346501339E+03  0.27963173819E+03  0.47000000000E+01 0. -1.
         -5    1    4    4    0  502  0.50773025889E+02 -0.42662158628E+02  0.21904134366E+02  0.69998864556E+02  0.47000000000E+01 0.  1.
<mgrwt>
<rscale>  0 0.17319284E+03</rscale>
<asrwt>0</asrwt>
<pdfrwt beam="1">  1        2 0.29196091E-01 0.17328971E+03</pdfrwt>
<pdfrwt beam="2">  1       -2 0.12177494E+00 0.17328971E+03</pdfrwt>
<totfact> 0.98404856E+01</totfact>
</mgrwt>
</event>
<event>
 8    1  0.3400573E-004  0.9724703E+02  0.7546771E-02  0.1287062E+00
         -2   -1    0    0    0  501 -0.00000000000E+00  0.00000000000E+00  0.18691653730E+03  0.18691653730E+03  0.00000000000E+00 0.  1.
          2   -1    0    0  501    0  0.00000000000E+00 -0.00000000000E+00 -0.51004225628E+02  0.51004225628E+02  0.00000000000E+00 0. -1.
         23    2    1    2    0    0 -0.28141075966E+02  0.91483135250E+01  0.85860332464E+02  0.12854898439E+03  0.90979299292E+02 0.  0.
         23    2    1    2    0    0  0.28141075966E+02 -0.91483135250E+01  0.50051979210E+02  0.10937177854E+03  0.92635703276E+02 0.  0.
          5    1    4    4  502    0  0.44879783153E+02  0.24889772502E+02  0.49037682075E+02  0.71137050644E+02  0.47000000000E+01 0. -1.
         -5    1    4    4    0  502 -0.16738707187E+02 -0.34038086027E+02  0.10142971345E+01  0.38234727897E+02  0.47000000000E+01 0.  1.
          5    1    3    3  503    0  0.19006384342E+02  0.30648807965E+02  0.60681998280E+02  0.70745932680E+02  0.47000000000E+01 0. -1.
         -5    1    3    3    0  503 -0.47147460308E+02 -0.21500494440E+02  0.25178334184E+02  0.57803051709E+02  0.47000000000E+01 0.  1.
<mgrwt>
<rscale>  0 0.96850481E+02</rscale>
<asrwt>0</asrwt>
<pdfrwt beam="1">  1        2 0.78468041E-02 0.97247032E+02</pdfrwt>
<pdfrwt beam="2">  1       -2 0.28756390E-01 0.97247032E+02</pdfrwt>
<totfact> 0.87812275E+03</totfact>
</mgrwt>
</event>
<event>
 8    1  0.3400573E-004  0.1371539E+03  0.7546771E-02  0.1219350E+00
         -2   -1    0    0    0  501 -0.00000000000E+00  0.00000000000E+00  0.56191654672E+02  0.56191654672E+02  0.00000000000E+00 0.  1.
          2   -1    0    0  501    0  0.00000000000E+00 -0.00000000000E+00 -0.38392934899E+03  0.38392934899E+03  0.00000000000E+00 0. -1.
         23    2    1    2    0    0  0.71559363343E+02 -0.12262988576E+02 -0.25659401805E+03  0.29094963228E+03  0.11636182815E+03 0.  0.
         23    2    1    2    0    0 -0.71559363343E+02  0.12262988576E+02 -0.71143676267E+02  0.14917137139E+03  0.10917670080E+03 0.  0.
          5    1    3    3  502    0  0.38423154382E+02  0.48743577256E+02 -0.16178574388E+03  0.17334645090E+03  0.47000000000E+01 0. -1.
         -5    1    4    4    0  503  0.17919727028E+02  0.25631412747E+02  0.34581069577E+01  0.31814060412E+02  0.47000000000E+01 0.  1.
          5    1    4    4  503    0 -0.89479090371E+02 -0.13368424171E+02 -0.74601783225E+02  0.11735731097E+03  0.47000000000E+01 0. -1.
         -5    1    3    3    0  502  0.33136208962E+02 -0.61006565832E+02 -0.94808274170E+02  0.11760318138E+03  0.47000000000E+01 0.  1.
<mgrwt>
<rscale>  0 0.13561814E+03</rscale>
<asrwt>0</asrwt>
<pdfrwt beam="1">  1        2 0.59066052E-01 0.13715392E+03</pdfrwt>
<pdfrwt beam="2">  1       -2 0.86448701E-02 0.13715392E+03</pdfrwt>
<totfact> 0.66833359E+03</totfact>
</mgrwt>
</event>
<event>
 8    1  0.3400573E-004  0.9599385E+02  0.7546771E-02  0.1290918E+00
          1   -1    0    0  501    0  0.00000000000E+00  0.00000000000E+00  0.40217604705E+03  0.40217604705E+03  0.00000000000E+00 0. -1.
         -1   -1    0    0    0  501 -0.00000000000E+00 -0.00000000000E+00 -0.39211843738E+02  0.39211843738E+02  0.00000000000E+00 0.  1.
         23    2    1    2    0    0  0.22069417622E+02  0.22500265097E+02  0.32541231975E+03  0.33831042920E+03  0.86991077334E+02 0.  0.
         23    2    1    2    0    0 -0.22069417622E+02 -0.22500265097E+02  0.37551883557E+02  0.10307746158E+03  0.90672476553E+02 0.  0.
          5    1    4    4  502    0 -0.55854790829E+02 -0.13815224738E+02  0.35601187355E+02  0.67824425056E+02  0.47000000000E+01 0. -1.
         -5    1    3    3    0  503  0.93172358468E+01 -0.32654320592E+02  0.15253577814E+03  0.15634055504E+03  0.47000000000E+01 0.  1.
          5    1    3    3  503    0  0.12752181775E+02  0.55154585689E+02  0.17287654161E+03  0.18196987416E+03  0.47000000000E+01 0. -1.
         -5    1    4    4    0  502  0.33785373207E+02 -0.86850403592E+01  0.19506962014E+01  0.35253036528E+02  0.47000000000E+01 0.  1.
<mgrwt>
<rscale>  0 0.95114483E+02</rscale>
<asrwt>0</asrwt>
<pdfrwt beam="1">  1        1 0.61873235E-01 0.95993849E+02</pdfrwt>
<pdfrwt beam="2">  1       -1 0.60325916E-02 0.95993849E+02</pdfrwt>
<totfact> 0.74241850E+03</totfact>
</mgrwt>
</event>
<event>
 8    1  0.3400573E-004  0.1184894E+03  0.7546771E-02  0.1246614E+00
          1   -1    0    0  501    0  0.00000000000E+00  0.00000000000E+00  0.98575343467E+02  0.98575343467E+02  0.00000000000E+00 0. -1.
         -1   -1    0    0    0  501 -0.00000000000E+00 -0.00000000000E+00 -0.75880329669E+03  0.75880329669E+03  0.00000000000E+00 0.  1.
         23    2    1    2    0    0  0.72622839703E+02  0.37683333240E+01 -0.71675203220E+03  0.72609763378E+03  0.90531878042E+02 0.  0.
         23    2    1    2    0    0 -0.72622839703E+02 -0.37683333240E+01  0.56524078978E+02  0.13128100637E+03  0.93549206020E+02 0.  0.
          5    1    4    4  502    0 -0.85419544756E+02 -0.28461288800E+02  0.45585462814E+02  0.10102805554E+03  0.47000000000E+01 0. -1.
         -5    1    3    3    0  503  0.90584837350E+02 -0.12328039552E+02 -0.56142343378E+03  0.56883737159E+03  0.47000000000E+01 0.  1.
          5    1    3    3  503    0 -0.17961997647E+02  0.16096372876E+02 -0.15532859842E+03  0.15726026219E+03  0.47000000000E+01 0. -1.
         -5    1    4    4    0  502  0.12796705053E+02  0.24692955476E+02  0.10938616165E+02  0.30252950830E+02  0.47000000000E+01 0.  1.
<mgrwt>
<rscale>  0 0.11789302E+03</rscale>
<asrwt>0</asrwt>
<pdfrwt beam="1">  1        1 0.15165437E-01 0.11848937E+03</pdfrwt>
<pdfrwt beam="2">  1       -1 0.11673897E+00 0.11848937E+03</pdfrwt>
<totfact> 0.26273619E+02</totfact>
</mgrwt>
</event>
<event>
 8    1  0.3400573E-004  0.1079577E+03  0.7546771E-02  0.1264715E+00
          1   -1    0    0  501    0  0.00000000000E+00  0.00000000000E+00  0.23999487033E+03  0.23999487033E+03  0.00000000000E+00 0. -1.
         -1   -1    0    0    0  501 -0.00000000000E+00 -0.00000000000E+00 -0.83042133421E+02  0.83042133421E+02  0.00000000000E+00 0.  1.
         23    2    1    2    0    0 -0.32116885155E+02 -0.47538165663E+02 -0.26187731060E+02  0.11044514639E+03  0.90669518557E+02 0.  0.
         23    2    1    2    0    0  0.32116885155E+02  0.47538165663E+02  0.18314046797E+03  0.21259185737E+03  0.91452147616E+02 0.  0.
          5    1    4    4  502    0 -0.27982375888E+02  0.36902115160E+02  0.72840521897E+02  0.86444265824E+02  0.47000000000E+01 0. -1.
         -5    1    3    3    0  503 -0.50434298728E+02 -0.62077044168E+02 -0.31356755458E+02  0.86037863837E+02  0.47000000000E+01 0.  1.
          5    1    3    3  503    0  0.18317413573E+02  0.14538878505E+02  0.51690243979E+01  0.24407282548E+02  0.47000000000E+01 0. -1.
         -5    1    4    4    0  502  0.60099261043E+02  0.10636050503E+02  0.11029994607E+03  0.12614759154E+03  0.47000000000E+01 0.  1.
<mgrwt>
<rscale>  0 0.10779178E+03</rscale>
<asrwt>0</asrwt>
<pdfrwt beam="1">  1        1 0.36922287E-01 0.10795771E+03</pdfrwt>
<pdfrwt beam="2">  1       -1 0.12775713E-01 0.10795771E+03</pdfrwt>
<totfact> 0.45659095E+03</totfact>
</mgrwt>
</event>
<event>
 8    1  0.3400573E-004  0.1039935E+03  0.7546771E-02  0.1274784E+00
          1   -1    0    0  501    0  0.00000000000E+00  0.00000000000E+00  0.11319244216E+03  0.11319244216E+03  0.00000000000E+00 0. -1.
         -1   -1    0    0    0  501 -0.00000000000E+00 -0.00000000000E+00 -0.10217227635E+03  0.10217227635E+03  0.00000000000E+00 0.  1.
         23    2    1    2    0    0 -0.47180858013E+01  0.32720455975E+02  0.41516740201E+02  0.11197453655E+03  0.98599029128E+02 0.  0.
         23    2    1    2    0    0  0.47180858013E+01 -0.32720455975E+02 -0.30496574390E+02  0.10339018197E+03  0.93094576128E+02 0.  0.
          5    1    4    4  502    0  0.47691924959E+02 -0.17036583767E+02 -0.57991171671E+01  0.51190669586E+02  0.47000000000E+01 0. -1.
         -5    1    3    3    0  503 -0.30869465731E+02  0.17114213992E+02 -0.21663740554E+02  0.41680065857E+02  0.47000000000E+01 0.  1.
          5    1    3    3  503    0  0.26151379930E+02  0.15606241983E+02  0.63180480755E+02  0.70294470689E+02  0.47000000000E+01 0. -1.
         -5    1    4    4    0  502 -0.42973839158E+02 -0.15683872208E+02 -0.24697457222E+02  0.52199512379E+02  0.47000000000E+01 0.  1.
<mgrwt>
<rscale>  0 0.10266754E+03</rscale>
<asrwt>0</asrwt>
<pdfrwt beam="1">  1        1 0.17414222E-01 0.10399354E+03</pdfrwt>
<pdfrwt beam="2">  1       -1 0.15718812E-01 0.10399354E+03</pdfrwt>
<totfact> 0.84228901E+03</totfact>
</mgrwt>
</event>
<event>
 8    1  0.3400573E-004  0.1261285E+03  0.7546771E-02  0.1233786E+00
         -2   -1    0    0    0  501 -0.00000000000E+00  0.00000000000E+00  0.35429431168E+02  0.35429431168E+02  0.00000000000E+00 0.  1.
          2   -1    0    0  501    0  0.00000000000E+00 -0.00000000000E+00 -0.53440868251E+03  0.53440868251E+03  0.00000000000E+00 0. -1.
         23    2    1    2    0    0  0.86103987123E+02  0.13681847469E+02 -0.13176886430E+03  0.18157034533E+03  0.89463216781E+02 0.  0.
         23    2    1    2    0    0 -0.86103987123E+02 -0.13681847469E+02 -0.36721038705E+03  0.38826776835E+03  0.91144402103E+02 0.  0.
          5    1    3    3  502    0  0.51602008358E+02  0.30227115612E+02 -0.19832379612E+02  0.63181160687E+02  0.47000000000E+01 0. -1.
         -5    1    4    4    0  503 -0.67626409982E+02 -0.42815216038E+02 -0.16939875095E+03  0.18741531654E+03  0.47000000000E+01 0.  1.
          5    1    4    4  503    0 -0.18477577142E+02  0.29133368569E+02 -0.19781163610E+03  0.20085245181E+03  0.47000000000E+01 0. -1.
         -5    1    3    3    0  502  0.34501978766E+02 -0.16545268143E+02 -0.11193648469E+03  0.11838918465E+03  0.47000000000E+01 0.  1.
<mgrwt>
<rscale>  0 0.12582501E+03</rscale>
<asrwt>0</asrwt>
<pdfrwt beam="1">  1        2 0.82216718E-01 0.12612847E+03</pdfrwt>
<pdfrwt beam="2">  1       -2 0.54506818E-02 0.12612847E+03</pdfrwt>
<totfact> 0.93999785E+03</totfact>
</mgrwt>
</event>
<event>
 8    1  0.3400573E-004  0.9410560E+02  0.7546771E-02  0.1294135E+00
          3   -1    0    0  501    0  0.00000000000E+00  0.00000000000E+00  0.93227336458E+03  0.93227336458E+03  0.00000000000E+00 0. -1.
         -3   -1    0    0    0  501 -0.00000000000E+00 -0.00000000000E+00 -0.93384174119E+01  0.93384174119E+01  0.00000000000E+00 0.  1.
         23    2    1    2    0    0  0.54842343001E+01  0.18257804313E+02  0.45869542511E+03  0.46824924725E+03  0.92154437150E+02 0.  0.
         23    2    1    2    0    0 -0.54842343001E+01 -0.18257804313E+02  0.46423952205E+03  0.47336253474E+03  0.90500448702E+02 0.  0.
          5    1    3    3  502    0 -0.29506258881E+02  0.33697588450E+02  0.35080816116E+03  0.35368715374E+03  0.47000000000E+01 0. -1.
         -5    1    3    3    0  502  0.34990493182E+02 -0.15439784137E+02  0.10788726395E+03  0.11456209351E+03  0.47000000000E+01 0.  1.
          5    1    4    4  503    0 -0.45832859291E+02 -0.19232606275E+02  0.20713704498E+03  0.21306897836E+03  0.47000000000E+01 0. -1.
         -5    1    4    4    0  503  0.40348624991E+02  0.97480196237E+00  0.25710247707E+03  0.26029355638E+03  0.47000000000E+01 0.  1.
<mgrwt>
<rscale>  0 0.93698193E+02</rscale>
<asrwt>0</asrwt>
<pdfrwt beam="1">  1        3 0.14342660E+00 0.94105603E+02</pdfrwt>
<pdfrwt beam="2">  1       -3 0.14366803E-02 0.94105603E+02</pdfrwt>
<totfact> 0.13149993E+03</totfact>
</mgrwt>
</event>
<event>
 8    1  0.3400573E-004  0.2247526E+03  0.7546771E-02  0.1130422E+00
         -1   -1    0    0    0  501 -0.00000000000E+00  0.00000000000E+00  0.13331120506E+03  0.13331120506E+03  0.00000000000E+00 0.  1.
          1   -1    0    0  501    0  0.00000000000E+00 -0.00000000000E+00 -0.39382010963E+03  0.39382010963E+03  0.00000000000E+00 0. -1.
         23    2    1    2    0    0  0.10616016008E+03 -0.17564839585E+03 -0.78391158419E+02  0.23785529853E+03  0.91146205450E+02 0.  0.
         23    2    1    2    0    0 -0.10616016008E+03  0.17564839585E+03 -0.18211774615E+03  0.28927601616E+03  0.91604593284E+02 0.  0.
          5    1    4    4  502    0 -0.53017112509E+02  0.16020239182E+03 -0.12943334672E+03  0.21272212345E+03  0.47000000000E+01 0. -1.
         -5    1    4    4    0  502 -0.53143047569E+02  0.15446004032E+02 -0.52684399434E+02  0.76553892711E+02  0.47000000000E+01 0.  1.
          5    1    3    3  503    0  0.76096074524E+02 -0.75556245514E+02 -0.78936984813E+02  0.13323849431E+03  0.47000000000E+01 0. -1.
         -5    1    3    3    0  503  0.30064085554E+02 -0.10009215033E+03  0.54582639470E+00  0.10461680422E+03  0.47000000000E+01 0.  1.
<mgrwt>
<rscale>  0 0.22470600E+03</rscale>
<asrwt>0</asrwt>
<pdfrwt beam="1">  1        1 0.60587708E-01 0.22475262E+03</pdfrwt>
<pdfrwt beam="2">  1       -1 0.20509416E-01 0.22475262E+03</pdfrwt>
<totfact> 0.11946424E+03</totfact>
</mgrwt>
</event>
<event>
 8    1  0.3400573E-004  0.1135800E+03  0.7546771E-02  0.1254622E+00
          3   -1    0    0  501    0  0.00000000000E+00  0.00000000000E+00  0.53281440348E+02  0.53281440348E+02  0.00000000000E+00 0. -1.
         -3   -1    0    0    0  501 -0.00000000000E+00 -0.00000000000E+00 -0.24177574481E+03  0.24177574481E+03  0.00000000000E+00 0.  1.
         23    2    1    2    0    0 -0.42726777212E+00  0.67179240505E+02 -0.10793410558E+03  0.15580788898E+03  0.90072716228E+02 0.  0.
         23    2    1    2    0    0  0.42726777212E+00 -0.67179240505E+02 -0.80560198882E+02  0.13924929618E+03  0.91581591652E+02 0.  0.
          5    1    4    4  502    0 -0.39343443498E+02 -0.64524240003E+01 -0.21439472504E+02  0.45511331590E+02  0.47000000000E+01 0. -1.
         -5    1    3    3    0  503 -0.21593003332E+02  0.68730571057E+02 -0.11242705432E+03  0.13361168263E+03  0.47000000000E+01 0.  1.
          5    1    3    3  503    0  0.21165735560E+02 -0.15513305518E+01  0.44929487388E+01  0.22196206357E+02  0.47000000000E+01 0. -1.
         -5    1    4    4    0  502  0.39770711270E+02 -0.60726816505E+02 -0.59120726377E+02  0.93737964588E+02  0.47000000000E+01 0.  1.
<mgrwt>
<rscale>  0 0.11327553E+03</rscale>
<asrwt>0</asrwt>
<pdfrwt beam="1">  1        3 0.81971446E-02 0.11358002E+03</pdfrwt>
<pdfrwt beam="2">  1       -3 0.37196269E-01 0.11358002E+03</pdfrwt>
<totfact> 0.16303376E+03</totfact>
</mgrwt>
</event>
<event>
 8    1  0.3400573E-004  0.9849919E+02  0.7546771E-02  0.1285733E+00
          1   -1    0    0  501    0  0.00000000000E+00  0.00000000000E+00  0.30377889931E+03  0.30377889931E+03  0.00000000000E+00 0. -1.
         -1   -1    0    0    0  501 -0.00000000000E+00 -0.00000000000E+00 -0.22326203602E+03  0.22326203602E+03  0.00000000000E+00 0.  1.
         23    2    1    2    0    0 -0.20120086891E+02 -0.11048159731E+02 -0.20439825970E+03  0.22689367243E+03  0.95787318004E+02 0.  0.
         23    2    1    2    0    0  0.20120086891E+02  0.11048159731E+02  0.28491512298E+03  0.30014726291E+03  0.91568948857E+02 0.  0.
          5    1    4    4  502    0 -0.22425843340E+01  0.43316413371E+02  0.21882786110E+03  0.22313463121E+03  0.47000000000E+01 0. -1.
         -5    1    4    4    0  502  0.22362671225E+02 -0.32268253639E+02  0.66087261884E+02  0.77012631695E+02  0.47000000000E+01 0.  1.
          5    1    3    3  503    0  0.92519993717E+01  0.20428955461E+02 -0.58111051816E+01  0.23638964805E+02  0.47000000000E+01 0. -1.
         -5    1    3    3    0  503 -0.29372086263E+02 -0.31477115192E+02 -0.19858715452E+03  0.20325470762E+03  0.47000000000E+01 0.  1.
<mgrwt>
<rscale>  0 0.97458534E+02</rscale>
<asrwt>0</asrwt>
<pdfrwt beam="1">  1        1 0.46735215E-01 0.98499188E+02</pdfrwt>
<pdfrwt beam="2">  1       -1 0.34348005E-01 0.98499188E+02</pdfrwt>
<totfact> 0.69578302E+02</totfact>
</mgrwt>
</event>
<event>
 8    1  0.3400573E-004  0.1919315E+03  0.7546771E-02  0.1157608E+00
          1   -1    0    0  501    0  0.00000000000E+00  0.00000000000E+00  0.50123585371E+03  0.50123585371E+03  0.00000000000E+00 0. -1.
         -1   -1    0    0    0  501 -0.00000000000E+00 -0.00000000000E+00 -0.11694465594E+03  0.11694465594E+03  0.00000000000E+00 0.  1.
         23    2    1    2    0    0 -0.70984374017E+01  0.16541381399E+03  0.38495109930E+03  0.43014536866E+03  0.97085383329E+02 0.  0.
         23    2    1    2    0    0  0.70984374017E+01 -0.16541381399E+03 -0.65990152554E+00  0.18803514098E+03  0.89132828412E+02 0.  0.
          5    1    3    3  502    0  0.31497147042E+02  0.10776484659E+03  0.16632166566E+03  0.20072448505E+03  0.47000000000E+01 0. -1.
         -5    1    4    4    0  503  0.23643839858E+02 -0.91085750242E+02  0.39090016180E+02  0.10200864878E+03  0.47000000000E+01 0.  1.
          5    1    4    4  503    0 -0.16545402457E+02 -0.74328063752E+02 -0.39749917705E+02  0.86026492205E+02  0.47000000000E+01 0. -1.
         -5    1    3    3    0  502 -0.38595584444E+02  0.57648967400E+02  0.21862943364E+03  0.22942088361E+03  0.47000000000E+01 0.  1.
<mgrwt>
<rscale>  0 0.19094959E+03</rscale>
<asrwt>0</asrwt>
<pdfrwt beam="1">  1        1 0.77113207E-01 0.19193147E+03</pdfrwt>
<pdfrwt beam="2">  1       -1 0.17991486E-01 0.19193147E+03</pdfrwt>
<totfact> 0.10780182E+03</totfact>
</mgrwt>
</event>
<event>
 8    1  0.3400573E-004  0.1099550E+03  0.7546771E-02  0.1268423E+00
          2   -1    0    0  501    0  0.00000000000E+00  0.00000000000E+00  0.63888534271E+03  0.63888534271E+03  0.00000000000E+00 0. -1.
         -2   -1    0    0    0  501 -0.00000000000E+00 -0.00000000000E+00 -0.16368927561E+02  0.16368927561E+02  0.00000000000E+00 0.  1.
         23    2    1    2    0    0 -0.14665752049E+02 -0.16443365479E+02  0.34417330308E+03  0.36131062705E+03  0.10772482591E+03 0.  0.
         23    2    1    2    0    0  0.14665752049E+02  0.16443365479E+02  0.27834311207E+03  0.29394364322E+03  0.91883125766E+02 0.  0.
          5    1    4    4  502    0 -0.31262722734E+02  0.13136427414E+02  0.20031748458E+03  0.20322182015E+03  0.47000000000E+01 0. -1.
         -5    1    4    4    0  502  0.45928474783E+02  0.33069380643E+01  0.78025627496E+02  0.90721823072E+02  0.47000000000E+01 0.  1.
          5    1    3    3  503    0  0.84661079576E+01  0.34515570870E+02  0.24269796090E+03  0.24533118400E+03  0.47000000000E+01 0. -1.
         -5    1    3    3    0  503 -0.23131860006E+02 -0.50958936349E+02  0.10147534218E+03  0.11597944306E+03  0.47000000000E+01 0.  1.
<mgrwt>
<rscale>  0 0.10586574E+03</rscale>
<asrwt>0</asrwt>
<pdfrwt beam="1">  1        2 0.98290034E-01 0.10995502E+03</pdfrwt>
<pdfrwt beam="2">  1       -2 0.25182970E-02 0.10995502E+03</pdfrwt>
<totfact> 0.23790128E+04</totfact>
</mgrwt>
</event>
<event>
 8    1  0.3400573E-004  0.1024833E+03  0.7546771E-02  0.1275834E+00
          1   -1    0    0  501    0  0.00000000000E+00  0.00000000000E+00  0.42362539642E+02  0.42362539642E+02  0.00000000000E+00 0. -1.
         -1   -1    0    0    0  501 -0.00000000000E+00 -0.00000000000E+00 -0.27982237414E+03  0.27982237414E+03  0.00000000000E+00 0.  1.
         23    2    1    2    0    0  0.14232376695E+01 -0.43492974414E+02 -0.61027414028E+02  0.11814761078E+03  0.91328244494E+02 0.  0.
         23    2    1    2    0    0 -0.14232376695E+01  0.43492974414E+02 -0.17643242047E+03  0.20403730300E+03  0.92785546251E+02 0.  0.
          5    1    3    3  502    0  0.30510161361E+02  0.14180528118E+02 -0.91886540082E+01  0.35192025893E+02  0.47000000000E+01 0. -1.
         -5    1    3    3    0  502 -0.29086923692E+02 -0.57673502533E+02 -0.51838760020E+02  0.82955584891E+02  0.47000000000E+01 0.  1.
          5    1    4    4  503    0  0.10977249665E+02 -0.24320082528E+02 -0.22175160687E+02  0.35011343531E+02  0.47000000000E+01 0.  1.
         -5    1    4    4    0  503 -0.12400487334E+02  0.67813056942E+02 -0.15425725979E+03  0.16902595947E+03  0.47000000000E+01 0. -1.
<mgrwt>
<rscale>  0 0.10215230E+03</rscale>
<asrwt>0</asrwt>
<pdfrwt beam="1">  1        1 0.65173140E-02 0.10248328E+03</pdfrwt>
<pdfrwt beam="2">  1       -1 0.43049595E-01 0.10248328E+03</pdfrwt>
<totfact> 0.58007267E+03</totfact>
</mgrwt>
</event>
<event>
 8    1  0.3400573E-004  0.1049270E+03  0.7546771E-02  0.1271318E+00
          1   -1    0    0  501    0  0.00000000000E+00  0.00000000000E+00  0.13005857015E+03  0.13005857015E+03  0.00000000000E+00 0. -1.
         -1   -1    0    0    0  501 -0.00000000000E+00 -0.00000000000E+00 -0.82959450341E+02  0.82959450341E+02  0.00000000000E+00 0.  1.
         23    2    1    2    0    0  0.13889166306E+02 -0.46408797130E+02  0.22894873334E+02  0.10739580117E+03  0.93075224916E+02 0.  0.
         23    2    1    2    0    0 -0.13889166306E+02  0.46408797130E+02  0.24204246472E+02  0.10562221931E+03  0.90683638402E+02 0.  0.
          5    1    4    4  502    0 -0.48818920478E+00 -0.26696624985E+02  0.13816751365E+02  0.30429274270E+02  0.47000000000E+01 0. -1.
         -5    1    4    4    0  502 -0.13400977101E+02  0.73105422114E+02  0.10387495106E+02  0.75192945044E+02  0.47000000000E+01 0.  1.
          5    1    3    3  503    0  0.39833442557E+02 -0.50028829309E+02  0.40170967263E+02  0.75666264073E+02  0.47000000000E+01 0. -1.
         -5    1    3    3    0  503 -0.25944276251E+02  0.36200321789E+01 -0.17276093929E+02  0.31729537101E+02  0.47000000000E+01 0.  1.
<mgrwt>
<rscale>  0 0.10439411E+03</rscale>
<asrwt>0</asrwt>
<pdfrwt beam="1">  1        1 0.20009011E-01 0.10492704E+03</pdfrwt>
<pdfrwt beam="2">  1       -1 0.12762992E-01 0.10492704E+03</pdfrwt>
<totfact> 0.97635127E+03</totfact>
</mgrwt>
</event>
<event>
 8    1  0.3400573E-004  0.1157783E+03  0.7546771E-02  0.1250307E+00
          2   -1    0    0  501    0  0.00000000000E+00  0.00000000000E+00  0.20856616232E+03  0.20856616232E+03  0.00000000000E+00 0. -1.
         -2   -1    0    0    0  501 -0.00000000000E+00 -0.00000000000E+00 -0.64335277198E+02  0.64335277198E+02  0.00000000000E+00 0.  1.
         23    2    1    2    0    0 -0.60176953911E+02  0.38615170913E+02  0.65243049948E+02  0.13289568846E+03  0.91061579373E+02 0.  0.
         23    2    1    2    0    0  0.60176953911E+02 -0.38615170913E+02  0.78987835179E+02  0.14000575106E+03  0.90830253868E+02 0.  0.
          5    1    3    3  502    0 -0.46903405078E+02 -0.22911945672E+02  0.33946747903E+02  0.62444842506E+02  0.47000000000E+01 0. -1.
         -5    1    4    4    0  503 -0.19705849758E+02  0.72344945894E+01  0.25615119426E+02  0.33449705079E+02  0.47000000000E+01 0.  1.
          5    1    4    4  503    0  0.79882803670E+02 -0.45849665502E+02  0.53372715753E+02  0.10655604598E+03  0.47000000000E+01 0. -1.
         -5    1    3    3    0  502 -0.13273548834E+02  0.61527116585E+02  0.31296302045E+02  0.70450845954E+02  0.47000000000E+01 0.  1.
<mgrwt>
<rscale>  0 0.11573278E+03</rscale>
<asrwt>0</asrwt>
<pdfrwt beam="1">  1        2 0.32087101E-01 0.11577827E+03</pdfrwt>
<pdfrwt beam="2">  1       -2 0.98977351E-02 0.11577827E+03</pdfrwt>
<totfact> 0.10219975E+04</totfact>
</mgrwt>
</event>
<event>
 8    1  0.3400573E-004  0.1103330E+03  0.7546771E-02  0.1261048E+00
          1   -1    0    0  501    0  0.00000000000E+00  0.00000000000E+00  0.42516633617E+03  0.42516633617E+03  0.00000000000E+00 0. -1.
         -1   -1    0    0    0  501 -0.00000000000E+00 -0.00000000000E+00 -0.52858851104E+02  0.52858851104E+02  0.00000000000E+00 0.  1.
         23    2    1    2    0    0 -0.16511585349E+01 -0.61634336326E+02  0.23398811447E+02  0.11278685754E+03  0.91497831217E+02 0.  0.
         23    2    1    2    0    0  0.16511585349E+01  0.61634336326E+02  0.34890867362E+03  0.36523832974E+03  0.88658091810E+02 0.  0.
          5    1    4    4  502    0  0.42126129236E+02  0.46505754365E+02  0.23623632230E+03  0.24447307812E+03  0.47000000000E+01 0. -1.
         -5    1    3    3    0  503 -0.34011717017E+02 -0.62714837003E+02 -0.17506400616E+01  0.71519944179E+02  0.47000000000E+01 0.  1.
          5    1    3    3  503    0  0.32360558482E+02  0.10805006777E+01  0.25149451508E+02  0.41266913359E+02  0.47000000000E+01 0. -1.
         -5    1    4    4    0  502 -0.40474970701E+02  0.15128581961E+02  0.11267235132E+03  0.12076525161E+03  0.47000000000E+01 0.  1.
<mgrwt>
<rscale>  0 0.10974245E+03</rscale>
<asrwt>0</asrwt>
<pdfrwt beam="1">  1        1 0.65410203E-01 0.11033300E+03</pdfrwt>
<pdfrwt beam="2">  1       -1 0.81321312E-02 0.11033300E+03</pdfrwt>
<totfact> 0.44801237E+03</totfact>
</mgrwt>
</event>
<event>
 8    1  0.3400573E-004  0.9453215E+02  0.7546771E-02  0.1293570E+00
         -1   -1    0    0    0  501 -0.00000000000E+00  0.00000000000E+00  0.17885294512E+03  0.17885294512E+03  0.00000000000E+00 0.  1.
          1   -1    0    0  501    0  0.00000000000E+00 -0.00000000000E+00 -0.74262073933E+02  0.74262073933E+02  0.00000000000E+00 0. -1.
         23    2    1    2    0    0 -0.92423840606E+01  0.40826141663E+00  0.12690792471E+03  0.15824648200E+03  0.94078368248E+02 0.  0.
         23    2    1    2    0    0  0.92423840606E+01 -0.40826141663E+00 -0.22317053519E+02  0.94868537052E+02  0.91740940175E+02 0.  0.
          5    1    4    4  502    0  0.25970225262E+02  0.40154552682E+02 -0.12784434839E+02  0.49722957227E+02  0.47000000000E+01 0. -1.
         -5    1    3    3    0  503  0.29734825012E+02 -0.31569502637E+02  0.52743616453E+02  0.68445397156E+02  0.47000000000E+01 0.  1.
          5    1    3    3  503    0 -0.38977209072E+02  0.31977764053E+02  0.74164308254E+02  0.89801084847E+02  0.47000000000E+01 0. -1.
         -5    1    4    4    0  502 -0.16727841201E+02 -0.40562814099E+02 -0.95326186798E+01  0.45145579825E+02  0.47000000000E+01 0.  1.
<mgrwt>
<rscale>  0 0.93945227E+02</rscale>
<asrwt>0</asrwt>
<pdfrwt beam="1">  1        1 0.11424935E-01 0.94532152E+02</pdfrwt>
<pdfrwt beam="2">  1       -1 0.27515838E-01 0.94532152E+02</pdfrwt>
<totfact> 0.58697290E+03</totfact>
</mgrwt>
</event>
<event>
 8    1  0.3400573E-004  0.9456008E+02  0.7546771E-02  0.1292411E+00
         -1   -1    0    0    0  501 -0.00000000000E+00  0.00000000000E+00  0.10596792602E+03  0.10596792602E+03  0.00000000000E+00 0.  1.
          1   -1    0    0  501    0  0.00000000000E+00 -0.00000000000E+00 -0.85917857617E+02  0.85917857617E+02  0.00000000000E+00 0. -1.
         23    2    1    2    0    0 -0.21553436701E+02 -0.49474725161E+01 -0.43260948364E+01  0.94234336486E+02  0.91500639116E+02 0.  0.
         23    2    1    2    0    0  0.21553436701E+02  0.49474725161E+01  0.24376163241E+02  0.97651447151E+02  0.91937912085E+02 0.  0.
          5    1    4    4  502    0 -0.35653318157E+02 -0.42208431949E+01  0.12639395045E+02  0.38351257085E+02  0.47000000000E+01 0. -1.
         -5    1    3    3    0  503 -0.65156035637E+00  0.41910798776E+02  0.25418445409E+01  0.42255065479E+02  0.47000000000E+01 0.  1.
          5    1    3    3  503    0 -0.20901876344E+02 -0.46858271292E+02 -0.68679393773E+01  0.51979271008E+02  0.47000000000E+01 0. -1.
         -5    1    4    4    0  502  0.57206754857E+02  0.91683157110E+01  0.11736768195E+02  0.59300190067E+02  0.47000000000E+01 0.  1.
<mgrwt>
<rscale>  0 0.94453622E+02</rscale>
<asrwt>0</asrwt>
<pdfrwt beam="1">  1        1 0.13218132E-01 0.94560075E+02</pdfrwt>
<pdfrwt beam="2">  1       -1 0.16302758E-01 0.94560075E+02</pdfrwt>
<totfact> 0.11230560E+04</totfact>
</mgrwt>
</event>
<event>
 8    1  0.3400573E-004  0.1556833E+03  0.7546771E-02  0.1193835E+00
         -2   -1    0    0    0  501 -0.00000000000E+00  0.00000000000E+00  0.13746085942E+02  0.13746085942E+02  0.00000000000E+00 0.  1.
          2   -1    0    0  501    0  0.00000000000E+00 -0.00000000000E+00 -0.17577318083E+04  0.17577318083E+04  0.00000000000E+00 0. -1.
         23    2    1    2    0    0 -0.98427535497E+02  0.79032584300E+02 -0.89490769890E+03  0.90824514411E+03  0.90085088240E+02 0.  0.
         23    2    1    2    0    0  0.98427535497E+02 -0.79032584300E+02 -0.84907802342E+03  0.86323275009E+03  0.91121687079E+02 0.  0.
          5    1    3    3  502    0 -0.32117555063E+02 -0.17700266868E+02 -0.25431138452E+03  0.25698483824E+03  0.47000000000E+01 0. -1.
         -5    1    3    3    0  502 -0.66309980434E+02  0.96732851167E+02 -0.64059631439E+03  0.65126030587E+03  0.47000000000E+01 0.  1.
          5    1    4    4  503    0  0.38405576974E+02 -0.85738557120E+02 -0.46659234075E+03  0.47597961193E+03  0.47000000000E+01 0. -1.
         -5    1    4    4    0  503  0.60021958523E+02  0.67059728202E+01 -0.38248568266E+03  0.38725313816E+03  0.47000000000E+01 0.  1.
<mgrwt>
<rscale>  0 0.15553197E+03</rscale>
<asrwt>0</asrwt>
<pdfrwt beam="1">  1        2 0.27042037E+00 0.15568330E+03</pdfrwt>
<pdfrwt beam="2">  1       -2 0.21147817E-02 0.15568330E+03</pdfrwt>
<totfact> 0.70084824E+03</totfact>
</mgrwt>
</event>
<event>
 8    1  0.3400573E-004  0.1110340E+03  0.7546771E-02  0.1260151E+00
          1   -1    0    0  501    0  0.00000000000E+00  0.00000000000E+00  0.66300166594E+02  0.66300166594E+02  0.00000000000E+00 0. -1.
         -1   -1    0    0    0  501 -0.00000000000E+00 -0.00000000000E+00 -0.25215449713E+03  0.25215449713E+03  0.00000000000E+00 0.  1.
         23    2    1    2    0    0  0.41801858570E+02 -0.43880954247E+02 -0.17869032662E+03  0.21037770357E+03  0.93035540554E+02 0.  0.
         23    2    1    2    0    0 -0.41801858570E+02  0.43880954247E+02 -0.71640039179E+01  0.10807696016E+03  0.89198502448E+02 0.  0.
          5    1    4    4  502    0 -0.38712823303E+02  0.20567895006E+02  0.37173803104E+02  0.57668905229E+02  0.47000000000E+01 0. -1.
         -5    1    4    4    0  502 -0.30890352664E+01  0.23313059242E+02 -0.44337807022E+02  0.50408054927E+02  0.47000000000E+01 0.  1.
          5    1    3    3  503    0 -0.26359639513E+02  0.42786974025E+01 -0.50991857039E+02  0.57752898897E+02  0.47000000000E+01 0. -1.
         -5    1    3    3    0  503  0.68161498083E+02 -0.48159651650E+02 -0.12769846958E+03  0.15262480467E+03  0.47000000000E+01 0.  1.
<mgrwt>
<rscale>  0 0.11022654E+03</rscale>
<asrwt>0</asrwt>
<pdfrwt beam="1">  1        1 0.10200026E-01 0.11103398E+03</pdfrwt>
<pdfrwt beam="2">  1       -1 0.38792999E-01 0.11103398E+03</pdfrwt>
<totfact> 0.38579273E+03</totfact>
</mgrwt>
</event>
<event>
 8    1  0.3400573E-004  0.1231124E+03  0.7546771E-02  0.1238542E+00
          4   -1    0    0  501    0  0.00000000000E+00  0.00000000000E+00  0.18803613284E+03  0.18803613284E+03  0.00000000000E+00 0. -1.
         -4   -1    0    0    0  501 -0.00000000000E+00 -0.00000000000E+00 -0.88275206802E+02  0.88275206802E+02  0.00000000000E+00 0.  1.
         23    2    1    2    0    0  0.36507184924E+02 -0.74195745133E+02  0.68518137900E+01  0.12207524800E+03  0.89541251252E+02 0.  0.
         23    2    1    2    0    0 -0.36507184924E+02  0.74195745133E+02  0.92909112244E+02  0.15423609164E+03  0.91207925523E+02 0.  0.
          5    1    3    3  502    0  0.34531625295E+02 -0.21631743842E+02 -0.35604066897E+02  0.54314869665E+02  0.47000000000E+01 0.  1.
         -5    1    4    4    0  503  0.36045919712E+01  0.28400990469E+02 -0.13152714101E+02  0.31854249813E+02  0.47000000000E+01 0.  1.
          5    1    4    4  503    0 -0.40111776896E+02  0.45794754664E+02  0.10606182634E+03  0.12238184182E+03  0.47000000000E+01 0. -1.
         -5    1    3    3    0  502  0.19755596296E+01 -0.52564001291E+02  0.42455880687E+02  0.67760378338E+02  0.47000000000E+01 0. -1.
<mgrwt>
<rscale>  0 0.12280386E+03</rscale>
<asrwt>0</asrwt>
<pdfrwt beam="1">  1        4 0.28928636E-01 0.12311242E+03</pdfrwt>
<pdfrwt beam="2">  1       -4 0.13580801E-01 0.12311242E+03</pdfrwt>
<totfact> 0.82736187E+02</totfact>
</mgrwt>
</event>
<event>
 8    1  0.3400573E-004  0.1598742E+03  0.7546771E-02  0.1188934E+00
         -1   -1    0    0    0  501 -0.00000000000E+00  0.00000000000E+00  0.31774338012E+02  0.31774338012E+02  0.00000000000E+00 0.  1.
          1   -1    0    0  501    0  0.00000000000E+00 -0.00000000000E+00 -0.89036506841E+03  0.89036506841E+03  0.00000000000E+00 0. -1.
         23    2    1    2    0    0 -0.48821641765E+02 -0.12191879933E+03 -0.57354680876E+03  0.59532172854E+03  0.90577438123E+02 0.  0.
         23    2    1    2    0    0  0.48821641765E+02  0.12191879933E+03 -0.28504392163E+03  0.32681767788E+03  0.91170230759E+02 0.  0.
          5    1    3    3  502    0 -0.72967384697E+02 -0.66240386447E+02 -0.35242201249E+03  0.36597184716E+03  0.47000000000E+01 0. -1.
         -5    1    3    3    0  502  0.24145742933E+02 -0.55678412888E+02 -0.22112479627E+03  0.22934988138E+03  0.47000000000E+01 0.  1.
          5    1    4    4  503    0 -0.80605789897E+01  0.82274614170E+02 -0.20336647658E+03  0.21957709095E+03  0.47000000000E+01 0. -1.
         -5    1    4    4    0  503  0.56882220754E+02  0.39644185165E+02 -0.81677445051E+02  0.10724058693E+03  0.47000000000E+01 0.  1.
<mgrwt>
<rscale>  0 0.15978980E+03</rscale>
<asrwt>0</asrwt>
<pdfrwt beam="1">  1        1 0.13697921E+00 0.15987419E+03</pdfrwt>
<pdfrwt beam="2">  1       -1 0.48883607E-02 0.15987419E+03</pdfrwt>
<totfact> 0.34862111E+03</totfact>
</mgrwt>
</event>
<event>
 8    1  0.3400573E-004  0.1123241E+03  0.7546771E-02  0.1264416E+00
         -2   -1    0    0    0  501 -0.00000000000E+00  0.00000000000E+00  0.21417094553E+03  0.21417094553E+03  0.00000000000E+00 0.  1.
          2   -1    0    0  501    0  0.00000000000E+00 -0.00000000000E+00 -0.58527754554E+02  0.58527754554E+02  0.00000000000E+00 0. -1.
         23    2    1    2    0    0  0.25203110287E+02 -0.14763919275E+02  0.13329021516E+03  0.17430718634E+03  0.10845987126E+03 0.  0.
         23    2    1    2    0    0 -0.25203110287E+02  0.14763919275E+02  0.22352975817E+02  0.98391513742E+02  0.91258229043E+02 0.  0.
          5    1    4    4  502    0  0.19343221040E+02  0.34271222101E+02  0.28965144179E+02  0.49089168274E+02  0.47000000000E+01 0. -1.
         -5    1    4    4    0  502 -0.44546331327E+02 -0.19507302826E+02 -0.66121683613E+01  0.49302345468E+02  0.47000000000E+01 0.  1.
          5    1    3    3  503    0 -0.62070677235E+01 -0.25641032890E+02 -0.88777787780E+01  0.28229332500E+02  0.47000000000E+01 0. -1.
         -5    1    3    3    0  503  0.31410178010E+02  0.10877113615E+02  0.14216799394E+03  0.14607785384E+03  0.47000000000E+01 0.  1.
<mgrwt>
<rscale>  0 0.10794872E+03</rscale>
<asrwt>0</asrwt>
<pdfrwt beam="1">  1        2 0.90042700E-02 0.11232415E+03</pdfrwt>
<pdfrwt beam="2">  1       -2 0.32949376E-01 0.11232415E+03</pdfrwt>
<totfact> 0.58727497E+03</totfact>
</mgrwt>
</event>
<event>
 8    1  0.3400573E-004  0.1136243E+03  0.7546771E-02  0.1254341E+00
         -1   -1    0    0    0  501 -0.00000000000E+00  0.00000000000E+00  0.27354710605E+03  0.27354710605E+03  0.00000000000E+00 0.  1.
          1   -1    0    0  501    0  0.00000000000E+00 -0.00000000000E+00 -0.77858790401E+02  0.77858790401E+02  0.00000000000E+00 0. -1.
         23    2    1    2    0    0  0.32973964887E+02  0.60551030909E+02  0.20887089680E+03  0.23777622886E+03  0.90314859118E+02 0.  0.
         23    2    1    2    0    0 -0.32973964887E+02 -0.60551030909E+02 -0.13182581152E+02  0.11362966759E+03  0.89354413466E+02 0.  0.
          5    1    3    3  502    0  0.48870851134E+02  0.46224766984E+01  0.13451323533E+03  0.14326767905E+03  0.47000000000E+01 0. -1.
         -5    1    3    3    0  502 -0.15896886247E+02  0.55928554210E+02  0.74357661471E+02  0.94508549813E+02  0.47000000000E+01 0.  1.
          5    1    4    4  503    0 -0.61031344592E+02 -0.57936632891E+02 -0.91383322511E+01  0.84776633396E+02  0.47000000000E+01 0. -1.
         -5    1    4    4    0  503  0.28057379705E+02 -0.26143980173E+01 -0.40442489009E+01  0.28853034192E+02  0.47000000000E+01 0.  1.
<mgrwt>
<rscale>  0 0.11343335E+03</rscale>
<asrwt>0</asrwt>
<pdfrwt beam="1">  1        1 0.11978276E-01 0.11362431E+03</pdfrwt>
<pdfrwt beam="2">  1       -1 0.42084170E-01 0.11362431E+03</pdfrwt>
<totfact> 0.27141379E+03</totfact>
</mgrwt>
</event>
<event>
 8    1  0.3400573E-004  0.1004605E+03  0.7546771E-02  0.1281262E+00
         -1   -1    0    0    0  501 -0.00000000000E+00  0.00000000000E+00  0.61141220084E+02  0.61141220084E+02  0.00000000000E+00 0.  1.
          1   -1    0    0  501    0  0.00000000000E+00 -0.00000000000E+00 -0.33327665858E+03  0.33327665858E+03  0.00000000000E+00 0. -1.
         23    2    1    2    0    0 -0.41393270610E+02 -0.80884781342E+01 -0.27978984155E+03  0.29727876108E+03  0.91178287012E+02 0.  0.
         23    2    1    2    0    0  0.41393270610E+02  0.80884781342E+01  0.76544030618E+01  0.97139117580E+02  0.87169902763E+02 0.  0.
          5    1    4    4  502    0 -0.71330934465E+01  0.38346125358E+02  0.27619160844E+00  0.39287054279E+02  0.47000000000E+01 0. -1.
         -5    1    4    4    0  502  0.48526364056E+02 -0.30257647224E+02  0.73782114533E+01  0.57852063302E+02  0.47000000000E+01 0.  1.
          5    1    3    3  503    0 -0.62655543377E+02  0.17250756885E+02 -0.21052016880E+03  0.22037272336E+03  0.47000000000E+01 0. -1.
         -5    1    3    3    0  503  0.21262272767E+02 -0.25339235020E+02 -0.69269672752E+02  0.76906037720E+02  0.47000000000E+01 0.  1.
<mgrwt>
<rscale>  0 0.99542105E+02</rscale>
<asrwt>0</asrwt>
<pdfrwt beam="1">  1        1 0.51273332E-01 0.10046047E+03</pdfrwt>
<pdfrwt beam="2">  1       -1 0.94063416E-02 0.10046047E+03</pdfrwt>
<totfact> 0.48441277E+03</totfact>
</mgrwt>
</event>
<event>
 8    1  0.3400573E-004  0.1290075E+03  0.7546771E-02  0.1229715E+00
          2   -1    0    0  501    0  0.00000000000E+00  0.00000000000E+00  0.20045391181E+03  0.20045391181E+03  0.00000000000E+00 0. -1.
         -2   -1    0    0    0  501 -0.00000000000E+00 -0.00000000000E+00 -0.10280707750E+03  0.10280707750E+03  0.00000000000E+00 0.  1.
         23    2    1    2    0    0 -0.45330533974E+01 -0.91677111163E+02 -0.20184540177E+02  0.12854075714E+03  0.87693040197E+02 0.  0.
         23    2    1    2    0    0  0.45330533974E+01  0.91677111163E+02  0.11783137449E+03  0.17472023217E+03  0.90651450238E+02 0.  0.
          5    1    4    4  502    0 -0.15987176424E+02  0.18224993286E+02  0.90118173873E+02  0.93440437993E+02  0.47000000000E+01 0. -1.
         -5    1    3    3    0  503  0.18588339331E+02 -0.80439814259E+02 -0.43571964620E+02  0.93470295699E+02  0.47000000000E+01 0.  1.
          5    1    3    3  503    0 -0.23121392729E+02 -0.11237296904E+02  0.23387424444E+02  0.35070461439E+02  0.47000000000E+01 0. -1.
         -5    1    4    4    0  502  0.20520229821E+02  0.73452117877E+02  0.27713200617E+02  0.81279794174E+02  0.47000000000E+01 0.  1.
<mgrwt>
<rscale>  0 0.12848901E+03</rscale>
<asrwt>0</asrwt>
<pdfrwt beam="1">  1        2 0.30839063E-01 0.12900747E+03</pdfrwt>
<pdfrwt beam="2">  1       -2 0.15816474E-01 0.12900747E+03</pdfrwt>
<totfact> 0.50770124E+03</totfact>
</mgrwt>
</event>
<event>
 8    1  0.3400573E-004  0.1042249E+03  0.7546771E-02  0.1272633E+00
          1   -1    0    0  501    0  0.00000000000E+00  0.00000000000E+00  0.38635799083E+02  0.38635799083E+02  0.00000000000E+00 0. -1.
         -1   -1    0    0    0  501 -0.00000000000E+00 -0.00000000000E+00 -0.29392910667E+03  0.29392910667E+03  0.00000000000E+00 0.  1.
         23    2    1    2    0    0 -0.13001765273E+02 -0.48214761193E+02 -0.16766396359E+03  0.19639687230E+03  0.89257031461E+02 0.  0.
         23    2    1    2    0    0  0.13001765273E+02  0.48214761193E+02 -0.87629343989E+02  0.13616803345E+03  0.91482907187E+02 0.  0.
          5    1    3    3  502    0 -0.37670747559E+02 -0.61930778734E+02 -0.13205777289E+03  0.15071778912E+03  0.47000000000E+01 0. -1.
         -5    1    4    4    0  503  0.59317933127E+00 -0.26220149212E+02 -0.11984395580E+02  0.29215814619E+02  0.47000000000E+01 0.  1.
          5    1    4    4  503    0  0.12408585942E+02  0.74434910406E+02 -0.75644948409E+02  0.10695221883E+03  0.47000000000E+01 0. -1.
         -5    1    3    3    0  502  0.24668982285E+02  0.13716017540E+02 -0.35606190707E+02  0.45679083187E+02  0.47000000000E+01 0.  1.
<mgrwt>
<rscale>  0 0.10373441E+03</rscale>
<asrwt>0</asrwt>
<pdfrwt beam="1">  1        1 0.59439691E-02 0.10422491E+03</pdfrwt>
<pdfrwt beam="2">  1       -1 0.45219862E-01 0.10422491E+03</pdfrwt>
<totfact> 0.60262159E+03</totfact>
</mgrwt>
</event>
<event>
 8    1  0.3400573E-004  0.1152126E+03  0.7546771E-02  0.1255449E+00
          2   -1    0    0  501    0  0.00000000000E+00  0.00000000000E+00  0.48591340404E+02  0.48591340404E+02  0.00000000000E+00 0. -1.
         -2   -1    0    0    0  501 -0.00000000000E+00 -0.00000000000E+00 -0.25552183031E+03  0.25552183031E+03  0.00000000000E+00 0.  1.
         23    2    1    2    0    0 -0.46999769386E+02 -0.42072954892E+02 -0.80251305034E+02  0.13287779863E+03  0.85071296891E+02 0.  0.
         23    2    1    2    0    0  0.46999769386E+02  0.42072954892E+02 -0.12667918488E+03  0.17123537208E+03  0.96409672314E+02 0.  0.
          5    1    4    4  502    0 -0.15320358701E+02  0.37477802755E+02 -0.15492514368E+02  0.43605126895E+02  0.47000000000E+01 0. -1.
         -5    1    4    4    0  502  0.62320128087E+02  0.45951521363E+01 -0.11118667051E+03  0.12763024519E+03  0.47000000000E+01 0.  1.
          5    1    3    3  503    0 -0.45393280389E+02 -0.11344554075E+02 -0.24059640521E+00  0.47025489878E+02  0.47000000000E+01 0. -1.
         -5    1    3    3    0  503 -0.16064889976E+01 -0.30728400817E+02 -0.80010708629E+02  0.85852308757E+02  0.47000000000E+01 0.  1.
<mgrwt>
<rscale>  0 0.11281213E+03</rscale>
<asrwt>0</asrwt>
<pdfrwt beam="1">  1        2 0.74755908E-02 0.11521257E+03</pdfrwt>
<pdfrwt beam="2">  1       -2 0.39311051E-01 0.11521257E+03</pdfrwt>
<totfact> 0.53528945E+03</totfact>
</mgrwt>
</event>
<event>
 8    1  0.3400573E-004  0.9730665E+02  0.7546771E-02  0.1287150E+00
          1   -1    0    0  501    0  0.00000000000E+00  0.00000000000E+00  0.84798870682E+02  0.84798870682E+02  0.00000000000E+00 0. -1.
         -1   -1    0    0    0  501 -0.00000000000E+00 -0.00000000000E+00 -0.11125813106E+03  0.11125813106E+03  0.00000000000E+00 0.  1.
         23    2    1    2    0    0  0.17304641049E+02 -0.28134413884E+02 -0.72772022240E+00  0.97309370705E+02  0.91529165864E+02 0.  0.
         23    2    1    2    0    0 -0.17304641049E+02  0.28134413884E+02 -0.25731540158E+02  0.98747631039E+02  0.89431463314E+02 0.  0.
          5    1    3    3  502    0  0.47963819976E+02 -0.11751993190E+02 -0.24108118764E+02  0.55153683114E+02  0.47000000000E+01 0. -1.
         -5    1    4    4    0  503 -0.52299717682E+02  0.27848967980E+02 -0.21396014008E+02  0.63172026267E+02  0.47000000000E+01 0.  1.
          5    1    4    4  503    0  0.34995076633E+02  0.28544590427E+00 -0.43355261497E+01  0.35575604772E+02  0.47000000000E+01 0. -1.
         -5    1    3    3    0  502 -0.30659178927E+02 -0.16382420694E+02  0.23380398542E+02  0.42155687591E+02  0.47000000000E+01 0.  1.
<mgrwt>
<rscale>  0 0.96810240E+02</rscale>
<asrwt>0</asrwt>
<pdfrwt beam="1">  1        1 0.13045980E-01 0.97306650E+02</pdfrwt>
<pdfrwt beam="2">  1       -1 0.17116636E-01 0.97306650E+02</pdfrwt>
<totfact> 0.10612031E+04</totfact>
</mgrwt>
</event>
<event>
 8    1  0.3400573E-004  0.9976666E+02  0.7546771E-02  0.1281900E+00
          2   -1    0    0  501    0  0.00000000000E+00  0.00000000000E+00  0.48164477620E+03  0.48164477620E+03  0.00000000000E+00 0. -1.
         -2   -1    0    0    0  501 -0.00000000000E+00 -0.00000000000E+00 -0.23640423619E+02  0.23640423619E+02  0.00000000000E+00 0.  1.
         23    2    1    2    0    0  0.31485505674E+02 -0.25154273944E+02  0.32280735607E+03  0.33726253878E+03  0.88979527795E+02 0.  0.
         23    2    1    2    0    0 -0.31485505674E+02  0.25154273944E+02  0.13519699652E+03  0.16802266105E+03  0.91265065563E+02 0.  0.
          5    1    4    4  502    0 -0.38504023334E+02 -0.22065276640E+02  0.96754329539E+02  0.10655011277E+03  0.47000000000E+01 0. -1.
         -5    1    4    4    0  502  0.70185176600E+01  0.47219550583E+02  0.38442666981E+02  0.61472548280E+02  0.47000000000E+01 0.  1.
          5    1    3    3  503    0  0.54345648526E+02 -0.38824459476E+02  0.18301890593E+03  0.19488149757E+03  0.47000000000E+01 0. -1.
         -5    1    3    3    0  503 -0.22860142852E+02  0.13670185533E+02  0.13978845013E+03  0.14238104121E+03  0.47000000000E+01 0.  1.
<mgrwt>
<rscale>  0 0.99240917E+02</rscale>
<asrwt>0</asrwt>
<pdfrwt beam="1">  1        2 0.74099189E-01 0.99766662E+02</pdfrwt>
<pdfrwt beam="2">  1       -2 0.36369886E-02 0.99766662E+02</pdfrwt>
<totfact> 0.18848980E+04</totfact>
</mgrwt>
</event>
<event>
 8    1  0.3400573E-004  0.9438694E+02  0.7546771E-02  0.1301329E+00
          1   -1    0    0  501    0  0.00000000000E+00  0.00000000000E+00  0.55505358501E+03  0.55505358501E+03  0.00000000000E+00 0. -1.
         -1   -1    0    0    0  501 -0.00000000000E+00 -0.00000000000E+00 -0.16134404312E+02  0.16134404312E+02  0.00000000000E+00 0.  1.
         23    2    1    2    0    0  0.18739103249E+02 -0.21568383777E+01  0.39787527079E+03  0.40891762603E+03  0.92482905573E+02 0.  0.
         23    2    1    2    0    0 -0.18739103249E+02  0.21568383777E+01  0.14104390990E+03  0.16227036330E+03  0.77990257987E+02 0.  0.
          5    1    4    4  502    0 -0.36745709629E+02 -0.86742787497E+01  0.13448185831E+03  0.13976033236E+03  0.47000000000E+01 0. -1.
         -5    1    3    3    0  503  0.59795389877E+01  0.40645242599E+02  0.27501764574E+03  0.27810894646E+03  0.47000000000E+01 0.  1.
          5    1    3    3  503    0  0.12759564262E+02 -0.42802080977E+02  0.12285762505E+03  0.13080867957E+03  0.47000000000E+01 0. -1.
         -5    1    4    4    0  502  0.18006606379E+02  0.10831117127E+02  0.65620515971E+01  0.22510030935E+02  0.47000000000E+01 0.  1.
<mgrwt>
<rscale>  0 0.90631716E+02</rscale>
<asrwt>0</asrwt>
<pdfrwt beam="1">  1        1 0.85392844E-01 0.94386936E+02</pdfrwt>
<pdfrwt beam="2">  1       -1 0.24822165E-02 0.94386936E+02</pdfrwt>
<totfact> 0.17869573E+04</totfact>
</mgrwt>
</event>
<event>
 8    1  0.3400573E-004  0.9822249E+02  0.7546771E-02  0.1284995E+00
          2   -1    0    0  501    0  0.00000000000E+00  0.00000000000E+00  0.31283043094E+03  0.31283043094E+03  0.00000000000E+00 0. -1.
         -2   -1    0    0    0  501 -0.00000000000E+00 -0.00000000000E+00 -0.32048779380E+02  0.32048779380E+02  0.00000000000E+00 0.  1.
         23    2    1    2    0    0  0.22924625448E+02 -0.23929990800E+02  0.99109773710E+02  0.13835480728E+03  0.90670406087E+02 0.  0.
         23    2    1    2    0    0 -0.22924625448E+02  0.23929990800E+02  0.18167187785E+03  0.20652440305E+03  0.92463370800E+02 0.  0.
          5    1    4    4  502    0 -0.13684476175E+02 -0.25714629139E+02  0.16637602164E+02  0.33873394363E+02  0.47000000000E+01 0. -1.
         -5    1    4    4    0  502 -0.92401492736E+01  0.49644619938E+02  0.16503427569E+03  0.17265100868E+03  0.47000000000E+01 0.  1.
          5    1    3    3  503    0  0.30789186535E+02 -0.49024351916E+02  0.94968064698E+02  0.11132108695E+03  0.47000000000E+01 0. -1.
         -5    1    3    3    0  503 -0.78645610863E+01  0.25094361116E+02  0.41417090125E+01  0.27033720322E+02  0.47000000000E+01 0.  1.
<mgrwt>
<rscale>  0 0.97798266E+02</rscale>
<asrwt>0</asrwt>
<pdfrwt beam="1">  1        2 0.48127756E-01 0.98222492E+02</pdfrwt>
<pdfrwt beam="2">  1       -2 0.49305817E-02 0.98222492E+02</pdfrwt>
<totfact> 0.18948187E+04</totfact>
</mgrwt>
</event>
<event>
 8    1  0.3400573E-004  0.1196491E+03  0.7546771E-02  0.1245961E+00
          1   -1    0    0  501    0  0.00000000000E+00  0.00000000000E+00  0.21262181606E+03  0.21262181606E+03  0.00000000000E+00 0. -1.
         -1   -1    0    0    0  501 -0.00000000000E+00 -0.00000000000E+00 -0.68632323733E+02  0.68632323733E+02  0.00000000000E+00 0.  1.
         23    2    1    2    0    0  0.59266223706E+02  0.33653365608E+02  0.38369921254E+02  0.12565096305E+03  0.98340629293E+02 0.  0.
         23    2    1    2    0    0 -0.59266223706E+02 -0.33653365608E+02  0.10561957108E+03  0.15560317674E+03  0.91715977504E+02 0.  0.
          5    1    4    4  502    0 -0.40520694554E+02  0.21087736721E+02  0.79797174129E+02  0.92066814467E+02  0.47000000000E+01 0. -1.
         -5    1    3    3    0  503  0.27379502659E+02  0.67244512922E+02  0.27985401975E+02  0.77953411777E+02  0.47000000000E+01 0. -1.
          5    1    3    3  503    0  0.31886721047E+02 -0.33591147314E+02  0.10384519279E+02  0.47697551275E+02  0.47000000000E+01 0.  1.
         -5    1    4    4    0  502 -0.18745529152E+02 -0.54741102328E+02  0.25822396947E+02  0.63536362277E+02  0.47000000000E+01 0.  1.
<mgrwt>
<rscale>  0 0.11828018E+03</rscale>
<asrwt>0</asrwt>
<pdfrwt beam="1">  1        1 0.32711048E-01 0.11964913E+03</pdfrwt>
<pdfrwt beam="2">  1       -1 0.10558819E-01 0.11964913E+03</pdfrwt>
<totfact> 0.71473548E+03</totfact>
</mgrwt>
</event>
<event>
 8    1  0.3400573E-004  0.9391190E+02  0.7546771E-02  0.1294537E+00
         -1   -1    0    0    0  501 -0.00000000000E+00  0.00000000000E+00  0.32771569048E+03  0.32771569048E+03  0.00000000000E+00 0.  1.
          1   -1    0    0  501    0  0.00000000000E+00 -0.00000000000E+00 -0.26727918485E+02  0.26727918485E+02  0.00000000000E+00 0. -1.
         23    2    1    2    0    0 -0.17274416395E+02 -0.11357696157E+02  0.16663717237E+03  0.19052433523E+03  0.90023176889E+02 0.  0.
         23    2    1    2    0    0  0.17274416395E+02  0.11357696157E+02  0.13435059963E+03  0.16391927373E+03  0.91608088928E+02 0.  0.
          5    1    4    4  502    0  0.64307018465E+01  0.51149316960E+02  0.83930865594E+02  0.98610784152E+02  0.47000000000E+01 0. -1.
         -5    1    4    4    0  502  0.10843714549E+02 -0.39791620803E+02  0.50419734034E+02  0.65308489581E+02  0.47000000000E+01 0.  1.
          5    1    3    3  503    0 -0.97198973720E+01  0.29638006217E+02  0.18513640414E+02  0.36575028350E+02  0.47000000000E+01 0. -1.
         -5    1    3    3    0  503 -0.75545190233E+01 -0.40995702374E+02  0.14812353196E+03  0.15394930688E+03  0.47000000000E+01 0.  1.
<mgrwt>
<rscale>  0 0.93523148E+02</rscale>
<asrwt>0</asrwt>
<pdfrwt beam="1">  1        1 0.41119877E-02 0.93911899E+02</pdfrwt>
<pdfrwt beam="2">  1       -1 0.50417796E-01 0.93911899E+02</pdfrwt>
<totfact> 0.80918599E+03</totfact>
</mgrwt>
</event>
<event>
 8    1  0.3400573E-004  0.3892168E+03  0.7546771E-02  0.1047634E+00
         -2   -1    0    0    0  501 -0.00000000000E+00  0.00000000000E+00  0.18658534220E+03  0.18658534220E+03  0.00000000000E+00 0.  1.
          2   -1    0    0  501    0  0.00000000000E+00 -0.00000000000E+00 -0.10557115375E+04  0.10557115375E+04  0.00000000000E+00 0. -1.
         23    2    1    2    0    0  0.32835258099E+03  0.18830374889E+03 -0.13553902095E+03  0.41214143060E+03  0.90642227042E+02 0.  0.
         23    2    1    2    0    0 -0.32835258099E+03 -0.18830374889E+03 -0.73358717434E+03  0.83015544908E+03  0.87944346024E+02 0.  0.
          5    1    4    4  502    0 -0.19354895425E+03 -0.60781731276E+02 -0.38985651489E+03  0.43950632390E+03  0.47000000000E+01 0. -1.
         -5    1    3    3    0  503  0.13520181228E+03  0.10463737780E+03 -0.20595783740E+02  0.17226371407E+03  0.47000000000E+01 0.  1.
          5    1    3    3  503    0  0.19315076872E+03  0.83666371083E+02 -0.11494323721E+03  0.23987771653E+03  0.47000000000E+01 0. -1.
         -5    1    4    4    0  502 -0.13480362674E+03 -0.12752201761E+03 -0.34373065944E+03  0.39064912518E+03  0.47000000000E+01 0.  1.
<mgrwt>
<rscale>  0 0.38906187E+03</rscale>
<asrwt>0</asrwt>
<pdfrwt beam="1">  1        2 0.16241716E+00 0.38921682E+03</pdfrwt>
<pdfrwt beam="2">  1       -2 0.28705437E-01 0.38921682E+03</pdfrwt>
<totfact> 0.26764955E+02</totfact>
</mgrwt>
</event>
<event>
 8    1  0.3400573E-004  0.1062174E+03  0.7546771E-02  0.1268290E+00
         -1   -1    0    0    0  501 -0.00000000000E+00  0.00000000000E+00  0.60174339406E+02  0.60174339406E+02  0.00000000000E+00 0.  1.
          1   -1    0    0  501    0  0.00000000000E+00 -0.00000000000E+00 -0.66111968685E+03  0.66111968685E+03  0.00000000000E+00 0. -1.
         23    2    1    2    0    0  0.27689523530E+02  0.44420188576E+02  0.49693135134E+01  0.10633355278E+03  0.92424388035E+02 0.  0.
         23    2    1    2    0    0 -0.27689523530E+02 -0.44420188576E+02 -0.60591466095E+03  0.61496047347E+03  0.91125982616E+02 0.  0.
          5    1    4    4  502    0  0.37576801283E+01 -0.65003378709E+02 -0.43715046829E+03  0.44199794268E+03  0.47000000000E+01 0. -1.
         -5    1    3    3    0  503  0.48471866433E+02  0.33029015655E+02  0.34474303961E+02  0.68198279628E+02  0.47000000000E+01 0.  1.
          5    1    3    3  503    0 -0.20782342903E+02  0.11391172921E+02 -0.29504990448E+02  0.38135273152E+02  0.47000000000E+01 0. -1.
         -5    1    4    4    0  502 -0.31447203658E+02  0.20583190132E+02 -0.16876419266E+03  0.17296253079E+03  0.47000000000E+01 0.  1.
<mgrwt>
<rscale>  0 0.10593428E+03</rscale>
<asrwt>0</asrwt>
<pdfrwt beam="1">  1        1 0.10171072E+00 0.10621737E+03</pdfrwt>
<pdfrwt beam="2">  1       -1 0.92575903E-02 0.10621737E+03</pdfrwt>
<totfact> 0.20600169E+03</totfact>
</mgrwt>
</event>
<event>
 8    1  0.3400573E-004  0.9284114E+02  0.7546771E-02  0.1298130E+00
          1   -1    0    0  501    0  0.00000000000E+00  0.00000000000E+00  0.19629993742E+03  0.19629993742E+03  0.00000000000E+00 0. -1.
         -1   -1    0    0    0  501 -0.00000000000E+00 -0.00000000000E+00 -0.48491592131E+02  0.48491592131E+02  0.00000000000E+00 0.  1.
         23    2    1    2    0    0  0.94999408123E+01  0.13478471974E+02  0.11878378609E+03  0.15076161988E+03  0.91364982938E+02 0.  0.
         23    2    1    2    0    0 -0.94999408123E+01 -0.13478471974E+02  0.29024559196E+02  0.94029909672E+02  0.87904953184E+02 0.  0.
          5    1    4    4  502    0 -0.24967617985E+02  0.29429096305E+02  0.28446872013E+02  0.48174351936E+02  0.47000000000E+01 0. -1.
         -5    1    3    3    0  503  0.46738485909E+02  0.24433978409E+02  0.77890858919E+02  0.94183763299E+02  0.47000000000E+01 0.  1.
          5    1    3    3  503    0 -0.37238545097E+02 -0.10955506435E+02  0.40892927174E+02  0.56577856578E+02  0.47000000000E+01 0. -1.
         -5    1    4    4    0  502  0.15467677172E+02 -0.42907568280E+02  0.57768718288E+00  0.45855557736E+02  0.47000000000E+01 0.  1.
<mgrwt>
<rscale>  0 0.91978469E+02</rscale>
<asrwt>0</asrwt>
<pdfrwt beam="1">  1        1 0.30199990E-01 0.92841145E+02</pdfrwt>
<pdfrwt beam="2">  1       -1 0.74602450E-02 0.92841145E+02</pdfrwt>
<totfact> 0.13028094E+04</totfact>
</mgrwt>
</event>
<event>
 8    1  0.3400573E-004  0.9372674E+02  0.7546771E-02  0.1294490E+00
          1   -1    0    0  501    0  0.00000000000E+00  0.00000000000E+00  0.57544384871E+02  0.57544384871E+02  0.00000000000E+00 0. -1.
         -1   -1    0    0    0  501 -0.00000000000E+00 -0.00000000000E+00 -0.25227101640E+03  0.25227101640E+03  0.00000000000E+00 0.  1.
         23    2    1    2    0    0 -0.11973962224E+02  0.19144392904E+02 -0.19505294586E+03  0.21608809478E+03  0.90213798651E+02 0.  0.
         23    2    1    2    0    0  0.11973962224E+02 -0.19144392904E+02  0.32631432418E+00  0.93727306494E+02  0.90966026354E+02 0.  0.
          5    1    4    4  502    0  0.22473739147E+02 -0.50594883517E+02  0.14408370611E+02  0.57398626578E+02  0.47000000000E+01 0. -1.
         -5    1    3    3    0  503 -0.44175450067E+02  0.33323239006E+02 -0.96516679746E+02  0.11135289900E+03  0.47000000000E+01 0.  1.
          5    1    3    3  503    0  0.32201487842E+02 -0.14178846102E+02 -0.98536266112E+02  0.10473519578E+03  0.47000000000E+01 0. -1.
         -5    1    4    4    0  502 -0.10499776923E+02  0.31450490613E+02 -0.14082056287E+02  0.36328679917E+02  0.47000000000E+01 0.  1.
<mgrwt>
<rscale>  0 0.93543730E+02</rscale>
<asrwt>0</asrwt>
<pdfrwt beam="1">  1        1 0.88529824E-02 0.93726738E+02</pdfrwt>
<pdfrwt beam="2">  1       -1 0.38810925E-01 0.93726738E+02</pdfrwt>
<totfact> 0.45917746E+03</totfact>
</mgrwt>
</event>
<event>
 8    1  0.3400573E-004  0.1349317E+03  0.7546771E-02  0.1220717E+00
         -3   -1    0    0    0  501 -0.00000000000E+00  0.00000000000E+00  0.17523162653E+03  0.17523162653E+03  0.00000000000E+00 0.  1.
          3   -1    0    0  501    0  0.00000000000E+00 -0.00000000000E+00 -0.19030914434E+03  0.19030914434E+03  0.00000000000E+00 0. -1.
         23    2    1    2    0    0 -0.85425020857E+02 -0.43199477761E+02 -0.13132915065E+03  0.18829210777E+03  0.95094389796E+02 0.  0.
         23    2    1    2    0    0  0.85425020857E+02  0.43199477761E+02  0.11625163284E+03  0.17724866310E+03  0.93482711588E+02 0.  0.
          5    1    3    3  502    0 -0.10335000020E+03 -0.23751268692E+02 -0.11650631092E+03  0.15761077308E+03  0.47000000000E+01 0. -1.
         -5    1    4    4    0  503  0.76876003514E+02 -0.11743934870E+02  0.64550036944E+02  0.10117626793E+03  0.47000000000E+01 0.  1.
          5    1    4    4  503    0  0.85490173428E+01  0.54943412631E+02  0.51701595895E+02  0.76072395172E+02  0.47000000000E+01 0. -1.
         -5    1    3    3    0  502  0.17924979347E+02 -0.19448209069E+02 -0.14822839724E+02  0.30681334686E+02  0.47000000000E+01 0.  1.
<mgrwt>
<rscale>  0 0.13464810E+03</rscale>
<asrwt>0</asrwt>
<pdfrwt beam="1">  1        3 0.29278330E-01 0.13493173E+03</pdfrwt>
<pdfrwt beam="2">  1       -3 0.26958712E-01 0.13493173E+03</pdfrwt>
<totfact> 0.34186130E+02</totfact>
</mgrwt>
</event>
<event>
 8    1  0.3400573E-004  0.1269458E+03  0.7546771E-02  0.1241466E+00
          2   -1    0    0  501    0  0.00000000000E+00  0.00000000000E+00  0.86685637139E+03  0.86685637139E+03  0.00000000000E+00 0. -1.
         -2   -1    0    0    0  501 -0.00000000000E+00 -0.00000000000E+00 -0.12034148908E+03  0.12034148908E+03  0.00000000000E+00 0.  1.
         23    2    1    2    0    0 -0.48333170752E+02 -0.14122868143E+02 -0.91820072145E+02  0.13930592711E+03  0.91867648705E+02 0.  0.
         23    2    1    2    0    0  0.48333170752E+02  0.14122868143E+02  0.83833495445E+03  0.84789193337E+03  0.11653190126E+03 0.  0.
          5    1    4    4  502    0 -0.28674614628E+02 -0.24253070485E+02  0.34702039564E+03  0.34907834356E+03  0.47000000000E+01 0. -1.
         -5    1    4    4    0  502  0.77007785380E+02  0.38375938627E+02  0.49131455882E+03  0.49881358981E+03  0.47000000000E+01 0.  1.
          5    1    3    3  503    0  0.38047527001E+01 -0.29996357024E+02  0.20406219139E+01  0.30667763460E+02  0.47000000000E+01 0. -1.
         -5    1    3    3    0  503 -0.52137923452E+02  0.15873488882E+02 -0.93860694059E+02  0.10863816365E+03  0.47000000000E+01 0.  1.
<mgrwt>
<rscale>  0 0.12099443E+03</rscale>
<asrwt>0</asrwt>
<pdfrwt beam="1">  1        2 0.13336251E+00 0.12694579E+03</pdfrwt>
<pdfrwt beam="2">  1       -2 0.18514076E-01 0.12694579E+03</pdfrwt>
<totfact> 0.77363952E+02</totfact>
</mgrwt>
</event>
<event>
 8    1  0.3400573E-004  0.1220331E+03  0.7546771E-02  0.1240070E+00
          1   -1    0    0  501    0  0.00000000000E+00  0.00000000000E+00  0.47112458233E+03  0.47112458233E+03  0.00000000000E+00 0. -1.
         -1   -1    0    0    0  501 -0.00000000000E+00 -0.00000000000E+00 -0.34529677496E+02  0.34529677496E+02  0.00000000000E+00 0.  1.
         23    2    1    2    0    0  0.79838804343E+02  0.86785452993E+01  0.14189639016E+03  0.18668828081E+03  0.90930615436E+02 0.  0.
         23    2    1    2    0    0 -0.79838804343E+02 -0.86785452993E+01  0.29469851468E+03  0.31896597902E+03  0.91883237819E+02 0.  0.
          5    1    3    3  502    0  0.69900778032E+02 -0.13575606486E+02  0.14506306621E+03  0.16166570149E+03  0.47000000000E+01 0. -1.
         -5    1    3    3    0  502  0.99380263104E+01  0.22254151785E+02 -0.31666760460E+01  0.25022579319E+02  0.47000000000E+01 0.  1.
          5    1    4    4  503    0 -0.80691714677E+02  0.26970372515E+02  0.18913422743E+03  0.20744252167E+03  0.47000000000E+01 0. -1.
         -5    1    4    4    0  503  0.85291033435E+00 -0.35648917814E+02  0.10556428725E+03  0.11152345735E+03  0.47000000000E+01 0.  1.
<mgrwt>
<rscale>  0 0.12185381E+03</rscale>
<asrwt>0</asrwt>
<pdfrwt beam="1">  1        1 0.72480700E-01 0.12203312E+03</pdfrwt>
<pdfrwt beam="2">  1       -1 0.53122584E-02 0.12203312E+03</pdfrwt>
<totfact> 0.74580704E+03</totfact>
</mgrwt>
</event>
<event>
 8    1  0.3400573E-004  0.9195261E+02  0.7546771E-02  0.1298655E+00
          2   -1    0    0  501    0  0.00000000000E+00  0.00000000000E+00  0.29571786815E+03  0.29571786815E+03  0.00000000000E+00 0. -1.
         -2   -1    0    0    0  501 -0.00000000000E+00 -0.00000000000E+00 -0.87083229065E+02  0.87083229065E+02  0.00000000000E+00 0.  1.
         23    2    1    2    0    0  0.63941991198E+01 -0.28794321443E+01 -0.52725739008E+02  0.10599663384E+03  0.91684818367E+02 0.  0.
         23    2    1    2    0    0 -0.63941991198E+01  0.28794321443E+01  0.26136037809E+03  0.27680446337E+03  0.90897122052E+02 0.  0.
          5    1    3    3  502    0 -0.34308616342E+02 -0.14636125184E+02 -0.50968454853E+02  0.63333803816E+02  0.47000000000E+01 0. -1.
         -5    1    4    4    0  503  0.30411786132E+02 -0.49810365049E+01  0.33310271954E+02  0.45621833348E+02  0.47000000000E+01 0.  1.
          5    1    4    4  503    0 -0.36805985251E+02  0.78604686491E+01  0.22805010614E+03  0.23118263003E+03  0.47000000000E+01 0. -1.
         -5    1    3    3    0  502  0.40702815462E+02  0.11756693040E+02 -0.17572841545E+01  0.42662830021E+02  0.47000000000E+01 0.  1.
<mgrwt>
<rscale>  0 0.91755634E+02</rscale>
<asrwt>0</asrwt>
<pdfrwt beam="1">  1        2 0.45495056E-01 0.91952612E+02</pdfrwt>
<pdfrwt beam="2">  1       -2 0.13397420E-01 0.91952612E+02</pdfrwt>
<totfact> 0.43066839E+03</totfact>
</mgrwt>
</event>
<event>
 8    1  0.3400573E-004  0.1015368E+03  0.7546771E-02  0.1279254E+00
         -2   -1    0    0    0  501 -0.00000000000E+00  0.00000000000E+00  0.17120243430E+02  0.17120243430E+02  0.00000000000E+00 0.  1.
          2   -1    0    0  501    0  0.00000000000E+00 -0.00000000000E+00 -0.64189137238E+03  0.64189137238E+03  0.00000000000E+00 0. -1.
         23    2    1    2    0    0  0.22008079917E+02 -0.25428368207E+02 -0.21436386876E+03  0.23719524761E+03  0.95805844117E+02 0.  0.
         23    2    1    2    0    0 -0.22008079917E+02  0.25428368207E+02 -0.41040726020E+03  0.42181636821E+03  0.91454752608E+02 0.  0.
          5    1    3    3  502    0  0.59721210138E+02 -0.11304475103E+02 -0.12594535330E+03  0.13992403695E+03  0.47000000000E+01 0. -1.
         -5    1    4    4    0  503 -0.55206027345E+02  0.30025717572E+02 -0.24434354561E+03  0.25233927053E+03  0.47000000000E+01 0.  1.
          5    1    4    4  503    0  0.33197947428E+02 -0.45973493655E+01 -0.16606371458E+03  0.16947709767E+03  0.47000000000E+01 0. -1.
         -5    1    3    3    0  502 -0.37713130220E+02 -0.14123893104E+02 -0.88418515455E+02  0.97271210657E+02  0.47000000000E+01 0.  1.
<mgrwt>
<rscale>  0 0.10049721E+03</rscale>
<asrwt>0</asrwt>
<pdfrwt beam="1">  1        2 0.98752532E-01 0.10153678E+03</pdfrwt>
<pdfrwt beam="2">  1       -2 0.26338833E-02 0.10153678E+03</pdfrwt>
<totfact> 0.22002792E+04</totfact>
</mgrwt>
</event>
<event>
 8    1  0.3400573E-004  0.1160418E+03  0.7546771E-02  0.1251487E+00
          2   -1    0    0  501    0  0.00000000000E+00  0.00000000000E+00  0.24328579305E+02  0.24328579305E+02  0.00000000000E+00 0. -1.
         -2   -1    0    0    0  501 -0.00000000000E+00 -0.00000000000E+00 -0.53857749563E+03  0.53857749563E+03  0.00000000000E+00 0.  1.
         23    2    1    2    0    0 -0.30540096737E+02  0.60370255223E+02 -0.28428105365E+03  0.30705280436E+03  0.94278534023E+02 0.  0.
         23    2    1    2    0    0  0.30540096737E+02 -0.60370255223E+02 -0.22996786267E+03  0.25585327057E+03  0.89433846922E+02 0.  0.
          5    1    3    3  502    0  0.12034718948E+02 -0.19276349370E+02 -0.36166237145E+02  0.42970906604E+02  0.47000000000E+01 0. -1.
         -5    1    4    4    0  503 -0.24243077275E+02 -0.49463299219E+02 -0.98941274201E+02  0.11333935992E+03  0.47000000000E+01 0.  1.
          5    1    4    4  503    0  0.54783174011E+02 -0.10906956004E+02 -0.13102658847E+03  0.14251391065E+03  0.47000000000E+01 0. -1.
         -5    1    3    3    0  502 -0.42574815684E+02  0.79646604593E+02 -0.24811481651E+03  0.26408189776E+03  0.47000000000E+01 0.  1.
<mgrwt>
<rscale>  0 0.11505417E+03</rscale>
<asrwt>0</asrwt>
<pdfrwt beam="1">  1        2 0.37428589E-02 0.11604183E+03</pdfrwt>
<pdfrwt beam="2">  1       -2 0.82858064E-01 0.11604183E+03</pdfrwt>
<totfact> 0.28815903E+03</totfact>
</mgrwt>
</event>
<event>
 8    1  0.3400573E-004  0.9184548E+02  0.7546771E-02  0.1299850E+00
          1   -1    0    0  501    0  0.00000000000E+00  0.00000000000E+00  0.56957387396E+03  0.56957387396E+03  0.00000000000E+00 0. -1.
         -1   -1    0    0    0  501 -0.00000000000E+00 -0.00000000000E+00 -0.29158843945E+02  0.29158843945E+02  0.00000000000E+00 0.  1.
         23    2    1    2    0    0 -0.40211808403E+01  0.80161946486E+01  0.59209607437E+02  0.10927657420E+03  0.91406579544E+02 0.  0.
         23    2    1    2    0    0  0.40211808403E+01 -0.80161946486E+01  0.48120542258E+03  0.48945614371E+03  0.89040600970E+02 0.  0.
          5    1    4    4  502    0  0.43934254701E+02 -0.88842761637E+01  0.17889492776E+03  0.18448478061E+03  0.47000000000E+01 0.  1.
         -5    1    4    4    0  502 -0.39913073861E+02  0.86808151515E+00  0.30231049482E+03  0.30497136310E+03  0.47000000000E+01 0. -1.
          5    1    3    3  503    0  0.24016903464E+02 -0.26039577784E+02  0.53798888267E+02  0.64585459989E+02  0.47000000000E+01 0. -1.
         -5    1    3    3    0  503 -0.28038084304E+02  0.34055772433E+02  0.54107191695E+01  0.44691114211E+02  0.47000000000E+01 0.  1.
<mgrwt>
<rscale>  0 0.91251142E+02</rscale>
<asrwt>0</asrwt>
<pdfrwt beam="1">  1        1 0.87626742E-01 0.91845479E+02</pdfrwt>
<pdfrwt beam="2">  1       -1 0.44859764E-02 0.91845479E+02</pdfrwt>
<totfact> 0.73238560E+03</totfact>
</mgrwt>
</event>
<event>
 8    1  0.3400573E-004  0.1042706E+03  0.7546771E-02  0.1272033E+00
          1   -1    0    0  501    0  0.00000000000E+00  0.00000000000E+00  0.76666958327E+03  0.76666958327E+03  0.00000000000E+00 0. -1.
         -1   -1    0    0    0  501 -0.00000000000E+00 -0.00000000000E+00 -0.15935150500E+02  0.15935150500E+02  0.00000000000E+00 0.  1.
         23    2    1    2    0    0 -0.46974539334E+02 -0.21021428169E+02  0.24241450564E+03  0.26388853265E+03  0.90685485773E+02 0.  0.
         23    2    1    2    0    0  0.46974539334E+02  0.21021428169E+02  0.50831992713E+03  0.51871620113E+03  0.89603801267E+02 0.  0.
          5    1    4    4  502    0 -0.20751494558E+02  0.18411637226E+02  0.25123581338E+03  0.25280652055E+03  0.47000000000E+01 0. -1.
         -5    1    4    4    0  502  0.67726033892E+02  0.26097909431E+01  0.25708411376E+03  0.26590968057E+03  0.47000000000E+01 0.  1.
          5    1    3    3  503    0 -0.27065162499E+02 -0.56020837220E+02  0.12568462694E+03  0.14031953775E+03  0.47000000000E+01 0. -1.
         -5    1    3    3    0  503 -0.19909376836E+02  0.34999409050E+02  0.11672987870E+03  0.12356899490E+03  0.47000000000E+01 0.  1.
<mgrwt>
<rscale>  0 0.10403499E+03</rscale>
<asrwt>0</asrwt>
<pdfrwt beam="1">  1        1 0.11794914E+00 0.10427063E+03</pdfrwt>
<pdfrwt beam="2">  1       -1 0.24515622E-02 0.10427063E+03</pdfrwt>
<totfact> 0.11739514E+04</totfact>
</mgrwt>
</event>
<event>
 8    1  0.3400573E-004  0.9385990E+02  0.7546771E-02  0.1296129E+00
          1   -1    0    0  501    0  0.00000000000E+00  0.00000000000E+00  0.68386199360E+03  0.68386199360E+03  0.00000000000E+00 0. -1.
         -1   -1    0    0    0  501 -0.00000000000E+00 -0.00000000000E+00 -0.21958686009E+02  0.21958686009E+02  0.00000000000E+00 0.  1.
         23    2    1    2    0    0 -0.24038369791E+02 -0.70301120569E+01  0.10142810009E+03  0.13819312959E+03  0.90456707209E+02 0.  0.
         23    2    1    2    0    0  0.24038369791E+02  0.70301120569E+01  0.56047520750E+03  0.56762755002E+03  0.86263037417E+02 0.  0.
          5    1    4    4  502    0  0.44700762411E+02  0.24970540961E+02  0.47456121415E+03  0.47733858219E+03  0.47000000000E+01 0. -1.
         -5    1    3    3    0  503 -0.48825765866E+02 -0.17101227622E+02  0.26138006514E+02  0.58152323970E+02  0.47000000000E+01 0.  1.
          5    1    3    3  503    0  0.24787396075E+02  0.10071115565E+02  0.75290093579E+02  0.80040805618E+02  0.47000000000E+01 0. -1.
         -5    1    4    4    0  502 -0.20662392620E+02 -0.17940428904E+02  0.85913993350E+02  0.90288967827E+02  0.47000000000E+01 0.  1.
<mgrwt>
<rscale>  0 0.92834564E+02</rscale>
<asrwt>0</asrwt>
<pdfrwt beam="1">  1        1 0.10520952E+00 0.93859904E+02</pdfrwt>
<pdfrwt beam="2">  1       -1 0.33782599E-02 0.93859904E+02</pdfrwt>
<totfact> 0.86382485E+03</totfact>
</mgrwt>
</event>
<event>
 8    1  0.3400573E-004  0.1199009E+03  0.7546771E-02  0.1246532E+00
         -1   -1    0    0    0  501 -0.00000000000E+00  0.00000000000E+00  0.52854007777E+03  0.52854007777E+03  0.00000000000E+00 0.  1.
          1   -1    0    0  501    0  0.00000000000E+00 -0.00000000000E+00 -0.53406391186E+02  0.53406391186E+02  0.00000000000E+00 0. -1.
         23    2    1    2    0    0 -0.54663544344E+02  0.35660365192E+02  0.44413801239E+03  0.45810398179E+03  0.91328633817E+02 0.  0.
         23    2    1    2    0    0  0.54663544344E+02 -0.35660365192E+02  0.30995674191E+02  0.12384248716E+03  0.10058063970E+03 0.  0.
          5    1    3    3  502    0  0.75664644370E+01  0.46074558679E+02  0.14716905906E+03  0.15446986206E+03  0.47000000000E+01 0. -1.
         -5    1    4    4    0  503  0.87668040697E+01 -0.63542975382E+02  0.65452066610E+01  0.64649024001E+02  0.47000000000E+01 0.  1.
          5    1    4    4  503    0  0.45896740275E+02  0.27882610190E+02  0.24450467530E+02  0.59193463164E+02  0.47000000000E+01 0. -1.
         -5    1    3    3    0  502 -0.62230008781E+02 -0.10414193487E+02  0.29696895333E+03  0.30363411973E+03  0.47000000000E+01 0.  1.
<mgrwt>
<rscale>  0 0.11794136E+03</rscale>
<asrwt>0</asrwt>
<pdfrwt beam="1">  1        1 0.82163682E-02 0.11990092E+03</pdfrwt>
<pdfrwt beam="2">  1       -1 0.81313855E-01 0.11990092E+03</pdfrwt>
<totfact> 0.12897773E+03</totfact>
</mgrwt>
</event>
<event>
 8    1  0.3400573E-004  0.9640080E+02  0.7546771E-02  0.1290835E+00
         -2   -1    0    0    0  501 -0.00000000000E+00  0.00000000000E+00  0.24148118609E+03  0.24148118609E+03  0.00000000000E+00 0.  1.
          2   -1    0    0  501    0  0.00000000000E+00 -0.00000000000E+00 -0.38964566311E+02  0.38964566311E+02  0.00000000000E+00 0. -1.
         23    2    1    2    0    0 -0.15916197751E+02  0.28946163102E+01  0.68859447637E+02  0.11846829454E+03  0.95033726262E+02 0.  0.
         23    2    1    2    0    0  0.15916197751E+02 -0.28946163102E+01  0.13365717215E+03  0.16197745787E+03  0.90059719280E+02 0.  0.
          5    1    4    4  502    0 -0.33831342871E+02 -0.14878294780E+02  0.36984722202E+02  0.52496505525E+02  0.47000000000E+01 0. -1.
         -5    1    3    3    0  503  0.33449820444E+02 -0.71132906467E+01  0.56792059369E+02  0.66459893161E+02  0.47000000000E+01 0.  1.
          5    1    3    3  503    0 -0.49366018195E+02  0.10007906957E+02  0.12067388267E+02  0.52008401376E+02  0.47000000000E+01 0. -1.
         -5    1    4    4    0  502  0.49747540622E+02  0.11983678470E+02  0.96672449944E+02  0.10948095234E+03  0.47000000000E+01 0.  1.
<mgrwt>
<rscale>  0 0.95151815E+02</rscale>
<asrwt>0</asrwt>
<pdfrwt beam="1">  1        2 0.59945488E-02 0.96400795E+02</pdfrwt>
<pdfrwt beam="2">  1       -2 0.37150951E-01 0.96400795E+02</pdfrwt>
<totfact> 0.77451735E+03</totfact>
</mgrwt>
</event>
<event>
 8    1  0.3400573E-004  0.1061442E+03  0.7546771E-02  0.1268442E+00
         -1   -1    0    0    0  501 -0.00000000000E+00  0.00000000000E+00  0.74028892850E+03  0.74028892850E+03  0.00000000000E+00 0.  1.
          1   -1    0    0  501    0  0.00000000000E+00 -0.00000000000E+00 -0.15159971713E+02  0.15159971713E+02  0.00000000000E+00 0. -1.
         23    2    1    2    0    0 -0.50890026577E+02  0.13391741657E+02  0.32918158948E+03  0.34552097038E+03  0.90857517951E+02 0.  0.
         23    2    1    2    0    0  0.50890026577E+02 -0.13391741657E+02  0.39594736730E+03  0.40992792983E+03  0.92181649111E+02 0.  0.
          5    1    3    3  502    0 -0.60455960814E+02  0.42192288088E+02  0.21801500598E+03  0.23019067141E+03  0.47000000000E+01 0. -1.
         -5    1    3    3    0  502  0.95659342376E+01 -0.28800546431E+02  0.11116658350E+03  0.11533029897E+03  0.47000000000E+01 0.  1.
          5    1    4    4  503    0  0.49948519048E+02 -0.48176408586E+02  0.29353530014E+03  0.30166352668E+03  0.47000000000E+01 0.  1.
         -5    1    4    4    0  503  0.94150752877E+00  0.34784666929E+02  0.10241206717E+03  0.10826440316E+03  0.47000000000E+01 0. -1.
<mgrwt>
<rscale>  0 0.10585605E+03</rscale>
<asrwt>0</asrwt>
<pdfrwt beam="1">  1        1 0.23323039E-02 0.10614419E+03</pdfrwt>
<pdfrwt beam="2">  1       -1 0.11389058E+00 0.10614419E+03</pdfrwt>
<totfact> 0.34394767E+03</totfact>
</mgrwt>
</event>
<event>
 8    1  0.3400573E-004  0.1034783E+03  0.7546771E-02  0.1274052E+00
          1   -1    0    0  501    0  0.00000000000E+00  0.00000000000E+00  0.97149906469E+02  0.97149906469E+02  0.00000000000E+00 0. -1.
         -1   -1    0    0    0  501 -0.00000000000E+00 -0.00000000000E+00 -0.14057345114E+03  0.14057345114E+03  0.00000000000E+00 0.  1.
         23    2    1    2    0    0  0.39072694622E+02  0.43183673820E+02  0.35362769597E+02  0.10766547872E+03  0.83365608527E+02 0.  0.
         23    2    1    2    0    0 -0.39072694622E+02 -0.43183673820E+02 -0.78786314270E+02  0.13005787889E+03  0.85535158824E+02 0.  0.
          5    1    4    4  502    0  0.25176907435E+02 -0.24633426500E-02 -0.15315251235E+02  0.29841641953E+02  0.47000000000E+01 0. -1.
         -5    1    4    4    0  502 -0.64249602057E+02 -0.43181210477E+02 -0.63471063035E+02  0.10021623694E+03  0.47000000000E+01 0.  1.
          5    1    3    3  503    0  0.56566892510E+02  0.10054223541E+02  0.39202318260E+02  0.69712355405E+02  0.47000000000E+01 0. -1.
         -5    1    3    3    0  503 -0.17494197887E+02  0.33129450279E+02 -0.38395486625E+01  0.37953123316E+02  0.47000000000E+01 0.  1.
<mgrwt>
<rscale>  0 0.10302892E+03</rscale>
<asrwt>0</asrwt>
<pdfrwt beam="1">  1        1 0.14946140E-01 0.10347835E+03</pdfrwt>
<pdfrwt beam="2">  1       -1 0.21626685E-01 0.10347835E+03</pdfrwt>
<totfact> 0.61770489E+03</totfact>
</mgrwt>
</event>
<event>
 8    1  0.3400573E-004  0.9293281E+02  0.7546771E-02  0.1296799E+00
         -1   -1    0    0    0  501 -0.00000000000E+00  0.00000000000E+00  0.34130745660E+03  0.34130745660E+03  0.00000000000E+00 0.  1.
          1   -1    0    0  501    0  0.00000000000E+00 -0.00000000000E+00 -0.26842510765E+02  0.26842510765E+02  0.00000000000E+00 0. -1.
         23    2    1    2    0    0  0.35708750400E+01 -0.33128625013E+00  0.10634830987E+03  0.14022664356E+03  0.91327365312E+02 0.  0.
         23    2    1    2    0    0 -0.35708750400E+01  0.33128625013E+00  0.20811663597E+03  0.22792332380E+03  0.92863590641E+02 0.  0.
          5    1    3    3  502    0 -0.36466615539E+02  0.23330751246E+02  0.40457317768E+02  0.59439234211E+02  0.47000000000E+01 0. -1.
         -5    1    3    3    0  502  0.40037490579E+02 -0.23662037496E+02  0.65890992097E+02  0.80787409352E+02  0.47000000000E+01 0.  1.
          5    1    4    4  503    0 -0.66402149626E+01  0.45652489645E+02  0.12060462020E+03  0.12921225437E+03  0.47000000000E+01 0. -1.
         -5    1    4    4    0  503  0.30693399226E+01 -0.45321203394E+02  0.87512015773E+02  0.98711069437E+02  0.47000000000E+01 0.  1.
<mgrwt>
<rscale>  0 0.92546645E+02</rscale>
<asrwt>0</asrwt>
<pdfrwt beam="1">  1        1 0.41296173E-02 0.92932811E+02</pdfrwt>
<pdfrwt beam="2">  1       -1 0.52508836E-01 0.92932811E+02</pdfrwt>
<totfact> 0.74648312E+03</totfact>
</mgrwt>
</event>
<event>
 7    1  0.5347771E-004  0.2196383E+03  0.7546771E-02  0.1141096E+00
          2   -1    0    0  501    0  0.00000000000E+00  0.00000000000E+00  0.75037949673E+03  0.75037949673E+03  0.00000000000E+00 0. -1.
         -2   -1    0    0    0  501 -0.00000000000E+00 -0.00000000000E+00 -0.34251515295E+03  0.34251515295E+03  0.00000000000E+00 0.  1.
         23    2    1    2    0    0  0.15455550009E+03 -0.37917144394E+02  0.70181426320E+03  0.72595112379E+03  0.95585886244E+02 0.  0.
          5    1    1    2  502    0 -0.99746187172E+02  0.52110716685E+02 -0.62894989214E+02  0.12900658246E+03  0.47000000000E+01 0. -1.
         -5    1    3    3    0  503  0.46860746017E+02 -0.57407049973E+02  0.33491092770E+03  0.34304361005E+03  0.47000000000E+01 0.  1.
          5    1    3    3  503    0  0.10769475407E+03  0.19489905579E+02  0.36690333550E+03  0.38290751374E+03  0.47000000000E+01 0. -1.
         -5    1    1    2    0  502 -0.54809312917E+02 -0.14193572291E+02 -0.23105493021E+03  0.23793694343E+03  0.47000000000E+01 0.  1.
<mgrwt>
<rscale>  0 0.21059512E+03</rscale>
<asrwt>0</asrwt>
<pdfrwt beam="1">  1        2 0.11544300E+00 0.21963833E+03</pdfrwt>
<pdfrwt beam="2">  1       -2 0.52694639E-01 0.21963833E+03</pdfrwt>
<totfact> 0.13560521E+02</totfact>
</mgrwt>
</event>
<event>
 8    1  0.3400573E-004  0.1139137E+03  0.7546771E-02  0.1254731E+00
         -1   -1    0    0    0  501 -0.00000000000E+00  0.00000000000E+00  0.19555707585E+03  0.19555707585E+03  0.00000000000E+00 0.  1.
          1   -1    0    0  501    0  0.00000000000E+00 -0.00000000000E+00 -0.17039259936E+03  0.17039259936E+03  0.00000000000E+00 0. -1.
         23    2    1    2    0    0  0.17478052984E+02  0.61557658395E+02 -0.13154601247E+03  0.17221139916E+03  0.90871254857E+02 0.  0.
         23    2    1    2    0    0 -0.17478052984E+02 -0.61557658395E+02  0.15671048896E+03  0.19373827605E+03  0.94241788032E+02 0.  0.
          5    1    4    4  502    0  0.27066728109E+02  0.67271009199E+01  0.65297874020E+02  0.71160129348E+02  0.47000000000E+01 0. -1.
         -5    1    3    3    0  503  0.30231543841E+02 -0.62758941405E+01 -0.10792221073E+02  0.33043836429E+02  0.47000000000E+01 0.  1.
          5    1    3    3  503    0 -0.12753490857E+02  0.67833552536E+02 -0.12075379140E+03  0.13916756273E+03  0.47000000000E+01 0. -1.
         -5    1    4    4    0  502 -0.44544781094E+02 -0.68284759315E+02  0.91412614941E+02  0.12257814670E+03  0.47000000000E+01 0.  1.
<mgrwt>
<rscale>  0 0.11321425E+03</rscale>
<asrwt>0</asrwt>
<pdfrwt beam="1">  1        1 0.26214246E-01 0.11391375E+03</pdfrwt>
<pdfrwt beam="2">  1       -1 0.30085704E-01 0.11391375E+03</pdfrwt>
<totfact> 0.17781502E+03</totfact>
</mgrwt>
</event>
<event>
 8    1  0.3400573E-004  0.9504286E+02  0.7546771E-02  0.1292408E+00
         -1   -1    0    0    0  501 -0.00000000000E+00  0.00000000000E+00  0.23170248198E+02  0.23170248198E+02  0.00000000000E+00 0.  1.
          1   -1    0    0  501    0  0.00000000000E+00 -0.00000000000E+00 -0.39728946125E+03  0.39728946125E+03  0.00000000000E+00 0. -1.
         23    2    1    2    0    0 -0.44115827944E+01 -0.23196324265E+02 -0.14145047820E+03  0.16912748726E+03  0.89656776879E+02 0.  0.
         23    2    1    2    0    0  0.44115827944E+01  0.23196324265E+02 -0.23266873485E+03  0.25133222219E+03  0.92063099083E+02 0.  0.
          5    1    3    3  502    0  0.33487384313E+02 -0.15462796087E+02 -0.21377141544E+02  0.42890268728E+02  0.47000000000E+01 0. -1.
         -5    1    4    4    0  503 -0.36368875423E+02  0.35549227334E+02 -0.10726591706E+03  0.11880450171E+03  0.47000000000E+01 0.  1.
          5    1    4    4  503    0  0.40780458217E+02 -0.12352903069E+02 -0.12540281779E+03  0.13252772048E+03  0.47000000000E+01 0. -1.
         -5    1    3    3    0  502 -0.37898967108E+02 -0.77335281784E+01 -0.12007333666E+03  0.12623721853E+03  0.47000000000E+01 0.  1.
<mgrwt>
<rscale>  0 0.94455197E+02</rscale>
<asrwt>0</asrwt>
<pdfrwt beam="1">  1        1 0.61121451E-01 0.95042863E+02</pdfrwt>
<pdfrwt beam="2">  1       -1 0.35646539E-02 0.95042863E+02</pdfrwt>
<totfact> 0.16251679E+04</totfact>
</mgrwt>
</event>
<event>
 8    1  0.3400573E-004  0.2155446E+03  0.7546771E-02  0.1139127E+00
          3   -1    0    0  501    0  0.00000000000E+00  0.00000000000E+00  0.58062566476E+03  0.58062566476E+03  0.00000000000E+00 0. -1.
         -3   -1    0    0    0  501 -0.00000000000E+00 -0.00000000000E+00 -0.87282054372E+02  0.87282054372E+02  0.00000000000E+00 0.  1.
         23    2    1    2    0    0 -0.18452221705E+03 -0.47634801392E+01  0.36893323470E+03  0.42728354173E+03  0.11130298305E+03 0.  0.
         23    2    1    2    0    0  0.18452221705E+03  0.47634801392E+01  0.12441037568E+03  0.24062417740E+03  0.91383334613E+02 0.  0.
          5    1    3    3  502    0 -0.10931228492E+03 -0.44748518569E+02  0.28059439641E+03  0.30447809583E+03  0.47000000000E+01 0. -1.
         -5    1    3    3    0  502 -0.75209932133E+02  0.39985038430E+02  0.88338838298E+02  0.12280544589E+03  0.47000000000E+01 0.  1.
          5    1    4    4  503    0  0.42917324900E+02 -0.57605317146E+01  0.81167389739E+02  0.92115773129E+02  0.47000000000E+01 0. -1.
         -5    1    4    4    0  503  0.14160489215E+03  0.10524011854E+02  0.43242985943E+02  0.14850840427E+03  0.47000000000E+01 0.  1.
<mgrwt>
<rscale>  0 0.21310905E+03</rscale>
<asrwt>0</asrwt>
<pdfrwt beam="1">  1        3 0.89327023E-01 0.21554464E+03</pdfrwt>
<pdfrwt beam="2">  1       -3 0.13428009E-01 0.21554464E+03</pdfrwt>
<totfact> 0.12915468E+02</totfact>
</mgrwt>
</event>
<event>
 8    1  0.3400573E-004  0.1063766E+03  0.7546771E-02  0.1285549E+00
         -1   -1    0    0    0  501 -0.00000000000E+00  0.00000000000E+00  0.74741472164E+01  0.74741472164E+01  0.00000000000E+00 0.  1.
          1   -1    0    0  501    0  0.00000000000E+00 -0.00000000000E+00 -0.11062198028E+04  0.11062198028E+04  0.00000000000E+00 0. -1.
         23    2    1    2    0    0  0.70581528289E+01  0.48652136550E+02 -0.42511860769E+03  0.43171932760E+03  0.56911328478E+02 0.  0.
         23    2    1    2    0    0 -0.70581528289E+01 -0.48652136550E+02 -0.67362704785E+03  0.68197462237E+03  0.94335242882E+02 0.  0.
          5    1    4    4  502    0  0.42987240557E+02 -0.25132367732E+02 -0.36292542663E+03  0.36635569336E+03  0.47000000000E+01 0. -1.
         -5    1    4    4    0  502 -0.50045393386E+02 -0.23519768818E+02 -0.31070162122E+03  0.31561892901E+03  0.47000000000E+01 0.  1.
          5    1    3    3  503    0  0.29154147792E+02  0.12306568022E+02 -0.20470314641E+03  0.20718804044E+03  0.47000000000E+01 0. -1.
         -5    1    3    3    0  503 -0.22095994963E+02  0.36345568527E+02 -0.22041546128E+03  0.22453128716E+03  0.47000000000E+01 0.  1.
<mgrwt>
<rscale>  0 0.97542953E+02</rscale>
<asrwt>0</asrwt>
<pdfrwt beam="1">  1        1 0.17018754E+00 0.10637662E+03</pdfrwt>
<pdfrwt beam="2">  1       -1 0.11498696E-02 0.10637662E+03</pdfrwt>
<totfact> 0.19262250E+04</totfact>
</mgrwt>
</event>
<event>
 8    1  0.3400573E-004  0.1191752E+03  0.7546771E-02  0.1245096E+00
          1   -1    0    0  501    0  0.00000000000E+00  0.00000000000E+00  0.11137409939E+02  0.11137409939E+02  0.00000000000E+00 0. -1.
         -1   -1    0    0    0  501 -0.00000000000E+00 -0.00000000000E+00 -0.12697343857E+04  0.12697343857E+04  0.00000000000E+00 0.  1.
         23    2    1    2    0    0  0.53915674676E+02 -0.52079781872E+02 -0.68381341896E+03  0.69386339629E+03  0.90699598116E+02 0.  0.
         23    2    1    2    0    0 -0.53915674676E+02  0.52079781872E+02 -0.57478355683E+03  0.58700839938E+03  0.92647288616E+02 0.  0.
          5    1    3    3  502    0  0.53950114346E+02  0.77547394422E+01 -0.40386923256E+03  0.40755760063E+03  0.47000000000E+01 0. -1.
         -5    1    3    3    0  502 -0.34439669160E-01 -0.59834521314E+02 -0.27994418640E+03  0.28630579565E+03  0.47000000000E+01 0.  1.
          5    1    4    4  503    0  0.78660955061E+01  0.39594455702E+02 -0.98583687260E+02  0.10663221734E+03  0.47000000000E+01 0. -1.
         -5    1    4    4    0  503 -0.61781770182E+02  0.12485326171E+02 -0.47619986957E+03  0.48037618204E+03  0.47000000000E+01 0.  1.
<mgrwt>
<rscale>  0 0.11879644E+03</rscale>
<asrwt>0</asrwt>
<pdfrwt beam="1">  1        1 0.17134472E-02 0.11917518E+03</pdfrwt>
<pdfrwt beam="2">  1       -1 0.19534381E+00 0.11917518E+03</pdfrwt>
<totfact> 0.13125864E+03</totfact>
</mgrwt>
</event>
<event>
 8    1  0.3400573E-004  0.9445368E+02  0.7546771E-02  0.1293810E+00
          1   -1    0    0  501    0  0.00000000000E+00  0.00000000000E+00  0.32904461138E+03  0.32904461138E+03  0.00000000000E+00 0. -1.
         -1   -1    0    0    0  501 -0.00000000000E+00 -0.00000000000E+00 -0.27099371655E+02  0.27099371655E+02  0.00000000000E+00 0.  1.
         23    2    1    2    0    0 -0.13379577824E+01  0.24703948698E+02  0.18108006013E+03  0.20423390026E+03  0.91156034495E+02 0.  0.
         23    2    1    2    0    0  0.13379577824E+01 -0.24703948698E+02  0.12086517960E+03  0.15191008278E+03  0.88635243549E+02 0.  0.
          5    1    3    3  502    0  0.13496307068E+02 -0.24133379745E+02  0.12562967703E+03  0.12872247696E+03  0.47000000000E+01 0. -1.
         -5    1    4    4    0  503  0.13630439444E+02  0.27189992180E+02  0.17248919765E+02  0.35280303106E+02  0.47000000000E+01 0.  1.
          5    1    4    4  503    0 -0.12292481662E+02 -0.51893940878E+02  0.10361625983E+03  0.11662977968E+03  0.47000000000E+01 0. -1.
         -5    1    3    3    0  502 -0.14834264850E+02  0.48837328443E+02  0.55450383096E+02  0.75511423299E+02  0.47000000000E+01 0.  1.
<mgrwt>
<rscale>  0 0.93840125E+02</rscale>
<asrwt>0</asrwt>
<pdfrwt beam="1">  1        1 0.50622245E-01 0.94453681E+02</pdfrwt>
<pdfrwt beam="2">  1       -1 0.41691343E-02 0.94453681E+02</pdfrwt>
<totfact> 0.16327040E+04</totfact>
</mgrwt>
</event>
<event>
 8    1  0.3400573E-004  0.1264481E+03  0.7546771E-02  0.1234360E+00
          1   -1    0    0  501    0  0.00000000000E+00  0.00000000000E+00  0.11359794646E+03  0.11359794646E+03  0.00000000000E+00 0. -1.
         -1   -1    0    0    0  501 -0.00000000000E+00 -0.00000000000E+00 -0.14408464058E+03  0.14408464058E+03  0.00000000000E+00 0.  1.
         23    2    1    2    0    0 -0.15543713866E+02 -0.83216694779E+02 -0.44735705084E+02  0.13043413828E+03  0.88572884056E+02 0.  0.
         23    2    1    2    0    0  0.15543713866E+02  0.83216694779E+02  0.14249010963E+02  0.12724844876E+03  0.93928206990E+02 0.  0.
          5    1    3    3  502    0 -0.31311881657E+02  0.41464813014E+01 -0.21669796684E+02  0.38591415217E+02  0.47000000000E+01 0. -1.
         -5    1    3    3    0  502  0.15768167790E+02 -0.87363176080E+02 -0.23065908400E+02  0.91842723068E+02  0.47000000000E+01 0.  1.
          5    1    4    4  503    0  0.38786885619E+02  0.88527486773E+02 -0.40151694855E+01  0.96849109425E+02  0.47000000000E+01 0. -1.
         -5    1    4    4    0  503 -0.23243171752E+02 -0.53107919942E+01  0.18264180449E+02  0.30399339338E+02  0.47000000000E+01 0.  1.
<mgrwt>
<rscale>  0 0.12545512E+03</rscale>
<asrwt>0</asrwt>
<pdfrwt beam="1">  1        1 0.17476607E-01 0.12644815E+03</pdfrwt>
<pdfrwt beam="2">  1       -1 0.22166868E-01 0.12644815E+03</pdfrwt>
<totfact> 0.49269939E+03</totfact>
</mgrwt>
</event>
<event>
 8    1  0.3400573E-004  0.1024639E+03  0.7546771E-02  0.1276316E+00
          4   -1    0    0  501    0  0.00000000000E+00  0.00000000000E+00  0.44881208636E+03  0.44881208636E+03  0.00000000000E+00 0. -1.
         -4   -1    0    0    0  501 -0.00000000000E+00 -0.00000000000E+00 -0.24007796752E+02  0.24007796752E+02  0.00000000000E+00 0.  1.
         23    2    1    2    0    0  0.15315557449E+02 -0.41241017722E+02  0.15943883952E+03  0.18835954886E+03  0.90128731597E+02 0.  0.
         23    2    1    2    0    0 -0.15315557449E+02  0.41241017722E+02  0.26536545009E+03  0.28446033425E+03  0.92539028606E+02 0.  0.
          5    1    4    4  502    0 -0.43234313947E+02 -0.92325739566E+01  0.12254564393E+03  0.13036092655E+03  0.47000000000E+01 0. -1.
         -5    1    3    3    0  503  0.49879961844E+02 -0.16860010564E+02  0.58666902297E+02  0.78969398978E+02  0.47000000000E+01 0.  1.
          5    1    3    3  503    0 -0.34564404395E+02 -0.24381007158E+02  0.10077193722E+03  0.10939014989E+03  0.47000000000E+01 0. -1.
         -5    1    4    4    0  502  0.27918756498E+02  0.50473591679E+02  0.14281980616E+03  0.15409940770E+03  0.47000000000E+01 0.  1.
<mgrwt>
<rscale>  0 0.10191670E+03</rscale>
<asrwt>0</asrwt>
<pdfrwt beam="1">  1        4 0.69048007E-01 0.10246394E+03</pdfrwt>
<pdfrwt beam="2">  1       -4 0.36935075E-02 0.10246394E+03</pdfrwt>
<totfact> 0.11813739E+03</totfact>
</mgrwt>
</event>
<event>
 8    1  0.3400573E-004  0.1400111E+03  0.7546771E-02  0.1214758E+00
         -1   -1    0    0    0  501 -0.00000000000E+00  0.00000000000E+00  0.72550628783E+02  0.72550628783E+02  0.00000000000E+00 0.  1.
          1   -1    0    0  501    0  0.00000000000E+00 -0.00000000000E+00 -0.43580305522E+03  0.43580305522E+03  0.00000000000E+00 0. -1.
         23    2    1    2    0    0 -0.39515559104E+02 -0.97746234630E+02 -0.34375154915E+03  0.37117142977E+03  0.92126526776E+02 0.  0.
         23    2    1    2    0    0  0.39515559104E+02  0.97746234630E+02 -0.19500877282E+02  0.13718225423E+03  0.85573832833E+02 0.  0.
          5    1    4    4  502    0  0.53592556808E+02  0.30897112605E+02  0.96014179496E+01  0.62777949467E+02  0.47000000000E+01 0. -1.
         -5    1    3    3    0  503 -0.21152656892E+02  0.67308167886E+01 -0.19304026788E+02  0.29790505845E+02  0.47000000000E+01 0.  1.
          5    1    3    3  503    0 -0.18362902212E+02 -0.10447705142E+03 -0.32444752236E+03  0.34138092392E+03  0.47000000000E+01 0. -1.
         -5    1    4    4    0  502 -0.14076997704E+02  0.66849122025E+02 -0.29102295232E+02  0.74404304766E+02  0.47000000000E+01 0.  1.
<mgrwt>
<rscale>  0 0.13894344E+03</rscale>
<asrwt>0</asrwt>
<pdfrwt beam="1">  1        1 0.67046622E-01 0.14001108E+03</pdfrwt>
<pdfrwt beam="2">  1       -1 0.11161636E-01 0.14001108E+03</pdfrwt>
<totfact> 0.27138961E+03</totfact>
</mgrwt>
</event>
<event>
 8    1  0.3400573E-004  0.1033202E+03  0.7546771E-02  0.1275007E+00
          1   -1    0    0  501    0  0.00000000000E+00  0.00000000000E+00  0.38191751856E+02  0.38191751856E+02  0.00000000000E+00 0. -1.
         -1   -1    0    0    0  501 -0.00000000000E+00 -0.00000000000E+00 -0.33075312194E+03  0.33075312194E+03  0.00000000000E+00 0.  1.
         23    2    1    2    0    0 -0.63043820477E+01 -0.47897558488E+02 -0.69929458747E+02  0.12476054400E+03  0.91329857098E+02 0.  0.
         23    2    1    2    0    0  0.63043820477E+01  0.47897558488E+02 -0.22263191134E+03  0.24418432979E+03  0.87903911337E+02 0.  0.
          5    1    4    4  502    0  0.24260182664E+02  0.64825945698E+02 -0.12084551698E+03  0.13934377873E+03  0.47000000000E+01 0. -1.
         -5    1    4    4    0  502 -0.17955800616E+02 -0.16928387210E+02 -0.10178639436E+03  0.10484055106E+03  0.47000000000E+01 0.  1.
          5    1    3    3  503    0 -0.42178534690E+02 -0.56268992059E+00 -0.38959364063E+02  0.57613084076E+02  0.47000000000E+01 0. -1.
         -5    1    3    3    0  503  0.35874152643E+02 -0.47334868567E+02 -0.30970094684E+02  0.67147459928E+02  0.47000000000E+01 0.  1.
<mgrwt>
<rscale>  0 0.10255791E+03</rscale>
<asrwt>0</asrwt>
<pdfrwt beam="1">  1        1 0.58756541E-02 0.10332020E+03</pdfrwt>
<pdfrwt beam="2">  1       -1 0.50885096E-01 0.10332020E+03</pdfrwt>
<totfact> 0.49468189E+03</totfact>
</mgrwt>
</event>
<event>
 8    1  0.3400573E-004  0.9556802E+02  0.7546771E-02  0.1294002E+00
          1   -1    0    0  501    0  0.00000000000E+00  0.00000000000E+00  0.98254317252E+02  0.98254317252E+02  0.00000000000E+00 0. -1.
         -1   -1    0    0    0  501 -0.00000000000E+00 -0.00000000000E+00 -0.10365036567E+03  0.10365036567E+03  0.00000000000E+00 0.  1.
         23    2    1    2    0    0 -0.21769395863E+02  0.78373737248E+01 -0.44145094382E+02  0.10527125142E+03  0.92724948070E+02 0.  0.
         23    2    1    2    0    0  0.21769395863E+02 -0.78373737248E+01  0.38749045959E+02  0.96633431505E+02  0.85447062551E+02 0.  0.
          5    1    4    4  502    0  0.31407359224E+01 -0.41890621095E+02  0.39029523509E+02  0.57533312639E+02  0.47000000000E+01 0. -1.
         -5    1    3    3    0  503 -0.36068076678E+02 -0.19647335567E+02 -0.57822209495E+02  0.71080390130E+02  0.47000000000E+01 0.  1.
          5    1    3    3  503    0  0.14298680815E+02  0.27484709292E+02  0.13677115114E+02  0.34190861290E+02  0.47000000000E+01 0. -1.
         -5    1    4    4    0  502  0.18628659941E+02  0.34053247370E+02 -0.28047755034E+00  0.39100118866E+02  0.47000000000E+01 0.  1.
<mgrwt>
<rscale>  0 0.93756187E+02</rscale>
<asrwt>0</asrwt>
<pdfrwt beam="1">  1        1 0.15116049E-01 0.95568023E+02</pdfrwt>
<pdfrwt beam="2">  1       -1 0.15946210E-01 0.95568023E+02</pdfrwt>
<totfact> 0.97934924E+03</totfact>
</mgrwt>
</event>
<event>
 8    1  0.3400573E-004  0.1087104E+03  0.7546771E-02  0.1264760E+00
         -1   -1    0    0    0  501 -0.00000000000E+00  0.00000000000E+00  0.14630478160E+02  0.14630478160E+02  0.00000000000E+00 0.  1.
          1   -1    0    0  501    0  0.00000000000E+00 -0.00000000000E+00 -0.78322849600E+03  0.78322849600E+03  0.00000000000E+00 0. -1.
         23    2    1    2    0    0 -0.66438658692E+01 -0.52843196412E+02 -0.35347699677E+03  0.36873962913E+03  0.90478630003E+02 0.  0.
         23    2    1    2    0    0  0.66438658692E+01  0.52843196412E+02 -0.41512102107E+03  0.42911934502E+03  0.94770278993E+02 0.  0.
          5    1    4    4  502    0 -0.33677964619E+02 -0.71050741849E+01 -0.17079723966E+03  0.17429421807E+03  0.47000000000E+01 0. -1.
         -5    1    4    4    0  502  0.40321830488E+02  0.59948270597E+02 -0.24432378141E+03  0.25482512695E+03  0.47000000000E+01 0.  1.
          5    1    3    3  503    0  0.29805116832E+02 -0.59488771206E+02 -0.24934768282E+03  0.25811550867E+03  0.47000000000E+01 0. -1.
         -5    1    3    3    0  503 -0.36448982701E+02  0.66455747947E+01 -0.10412931395E+03  0.11062412047E+03  0.47000000000E+01 0.  1.
<mgrwt>
<rscale>  0 0.10776815E+03</rscale>
<asrwt>0</asrwt>
<pdfrwt beam="1">  1        1 0.12049673E+00 0.10871040E+03</pdfrwt>
<pdfrwt beam="2">  1       -1 0.22508420E-02 0.10871040E+03</pdfrwt>
<totfact> 0.12903558E+04</totfact>
</mgrwt>
</event>
<event>
 8    1  0.3400573E-004  0.9575546E+02  0.7546771E-02  0.1295388E+00
         -1   -1    0    0    0  501 -0.00000000000E+00  0.00000000000E+00  0.13328418596E+03  0.13328418596E+03  0.00000000000E+00 0.  1.
          1   -1    0    0  501    0  0.00000000000E+00 -0.00000000000E+00 -0.35034955970E+03  0.35034955970E+03  0.00000000000E+00 0. -1.
         23    2    1    2    0    0 -0.75084647958E+01  0.12656191959E+02  0.11191589749E+03  0.14100014272E+03  0.84494472589E+02 0.  0.
         23    2    1    2    0    0  0.75084647958E+01 -0.12656191959E+02 -0.32898127124E+03  0.34263360294E+03  0.94617930643E+02 0.  0.
          5    1    4    4  502    0  0.96771494407E+01 -0.33027779119E+02 -0.31605494262E+03  0.31795801322E+03  0.47000000000E+01 0. -1.
         -5    1    4    4    0  502 -0.21686846449E+01  0.20371587159E+02 -0.12926328614E+02  0.24675589718E+02  0.47000000000E+01 0.  1.
          5    1    3    3  503    0 -0.29550550051E+02 -0.17511931751E+02  0.16447625738E+02  0.38373391228E+02  0.47000000000E+01 0. -1.
         -5    1    3    3    0  503  0.22042085255E+02  0.30168123710E+02  0.95468271754E+02  0.10262675149E+03  0.47000000000E+01 0.  1.
<mgrwt>
<rscale>  0 0.93154094E+02</rscale>
<asrwt>0</asrwt>
<pdfrwt beam="1">  1        1 0.53899932E-01 0.95755465E+02</pdfrwt>
<pdfrwt beam="2">  1       -1 0.20505260E-01 0.95755465E+02</pdfrwt>
<totfact> 0.13612665E+03</totfact>
</mgrwt>
</event>
<event>
 8    1  0.3400573E-004  0.9341355E+02  0.7546771E-02  0.1295739E+00
          3   -1    0    0  501    0  0.00000000000E+00  0.00000000000E+00  0.21284732880E+02  0.21284732880E+02  0.00000000000E+00 0. -1.
         -3   -1    0    0    0  501 -0.00000000000E+00 -0.00000000000E+00 -0.45726169413E+03  0.45726169413E+03  0.00000000000E+00 0.  1.
         23    2    1    2    0    0 -0.39851809042E+01 -0.10743875191E+02 -0.13713258356E+03  0.16592599662E+03  0.92708027468E+02 0.  0.
         23    2    1    2    0    0  0.39851809042E+01  0.10743875191E+02 -0.29884437769E+03  0.31262043039E+03  0.91061841097E+02 0.  0.
          5    1    4    4  502    0  0.77460523855E+00  0.43674702856E+02 -0.24742437057E+03  0.25129462556E+03  0.47000000000E+01 0. -1.
         -5    1    4    4    0  502  0.32105756657E+01 -0.32930827665E+02 -0.51420007114E+02  0.61325804833E+02  0.47000000000E+01 0.  1.
          5    1    3    3  503    0  0.35337970751E+02  0.22023276036E+02 -0.57616739591E+02  0.71243073665E+02  0.47000000000E+01 0. -1.
         -5    1    3    3    0  503 -0.39323151655E+02 -0.32767151227E+02 -0.79515843973E+02  0.94682922950E+02  0.47000000000E+01 0.  1.
<mgrwt>
<rscale>  0 0.93002459E+02</rscale>
<asrwt>0</asrwt>
<pdfrwt beam="1">  1        3 0.32745744E-02 0.93413548E+02</pdfrwt>
<pdfrwt beam="2">  1       -3 0.70347951E-01 0.93413548E+02</pdfrwt>
<totfact> 0.18733189E+03</totfact>
</mgrwt>
</event>
<event>
 8    1  0.3400573E-004  0.1113818E+03  0.7546771E-02  0.1258215E+00
          1   -1    0    0  501    0  0.00000000000E+00  0.00000000000E+00  0.93732509818E+03  0.93732509818E+03  0.00000000000E+00 0. -1.
         -1   -1    0    0    0  501 -0.00000000000E+00 -0.00000000000E+00 -0.13187946110E+02  0.13187946110E+02  0.00000000000E+00 0.  1.
         23    2    1    2    0    0 -0.62247747770E+02  0.11045452844E+02  0.46154256994E+03  0.47479200214E+03  0.91701239322E+02 0.  0.
         23    2    1    2    0    0  0.62247747770E+02 -0.11045452844E+02  0.46259458213E+03  0.47572104215E+03  0.91213915616E+02 0.  0.
          5    1    4    4  502    0  0.53552816535E+02  0.33631883010E+02  0.30974342371E+03  0.31616781342E+03  0.47000000000E+01 0. -1.
         -5    1    3    3    0  503 -0.81914200941E+02  0.43023571650E+01  0.27431751874E+03  0.28635753470E+03  0.47000000000E+01 0.  1.
          5    1    3    3  503    0  0.19666453171E+02  0.67430956791E+01  0.18722505120E+03  0.18843446743E+03  0.47000000000E+01 0. -1.
         -5    1    4    4    0  502  0.86949312348E+01 -0.44677335854E+02  0.15285115842E+03  0.15955322873E+03  0.47000000000E+01 0.  1.
<mgrwt>
<rscale>  0 0.11128143E+03</rscale>
<asrwt>0</asrwt>
<pdfrwt beam="1">  1        1 0.14420381E+00 0.11138178E+03</pdfrwt>
<pdfrwt beam="2">  1       -1 0.20289155E-02 0.11138178E+03</pdfrwt>
<totfact> 0.11372286E+04</totfact>
</mgrwt>
</event>
<event>
 8    1  0.3400573E-004  0.9217576E+02  0.7546771E-02  0.1297913E+00
         -1   -1    0    0    0  501 -0.00000000000E+00  0.00000000000E+00  0.24632395391E+03  0.24632395391E+03  0.00000000000E+00 0.  1.
          1   -1    0    0  501    0  0.00000000000E+00 -0.00000000000E+00 -0.84474310081E+02  0.84474310081E+02  0.00000000000E+00 0. -1.
         23    2    1    2    0    0  0.90350610971E+01  0.11227012454E+02 -0.46575014182E+02  0.10290089882E+03  0.90618347453E+02 0.  0.
         23    2    1    2    0    0 -0.90350610971E+01 -0.11227012454E+02  0.20842465801E+03  0.22789736516E+03  0.91042258568E+02 0.  0.
          5    1    4    4  502    0  0.40460466839E+02 -0.18802393852E+01  0.10820940087E+03  0.11563714418E+03  0.47000000000E+01 0. -1.
         -5    1    3    3    0  503 -0.14129868530E+02  0.21733308065E+02  0.18951523386E+02  0.32453660853E+02  0.47000000000E+01 0.  1.
          5    1    3    3  503    0  0.23164929627E+02 -0.10506295612E+02 -0.65526537568E+02  0.70447237971E+02  0.47000000000E+01 0. -1.
         -5    1    4    4    0  502 -0.49495527936E+02 -0.93467730685E+01  0.10021525714E+03  0.11226022098E+03  0.47000000000E+01 0.  1.
<mgrwt>
<rscale>  0 0.92070914E+02</rscale>
<asrwt>0</asrwt>
<pdfrwt beam="1">  1        1 0.12996048E-01 0.92175761E+02</pdfrwt>
<pdfrwt beam="2">  1       -1 0.37895993E-01 0.92175761E+02</pdfrwt>
<totfact> 0.28954241E+03</totfact>
</mgrwt>
</event>
<event>
 8    1  0.3400573E-004  0.1382910E+03  0.7546771E-02  0.1216353E+00
         -2   -1    0    0    0  501 -0.00000000000E+00  0.00000000000E+00  0.61927502349E+02  0.61927502349E+02  0.00000000000E+00 0.  1.
          2   -1    0    0  501    0  0.00000000000E+00 -0.00000000000E+00 -0.32007406757E+03  0.32007406757E+03  0.00000000000E+00 0. -1.
         23    2    1    2    0    0 -0.37171419366E+02 -0.95778148983E+02 -0.87542021112E+02  0.16367041635E+03  0.92570143612E+02 0.  0.
         23    2    1    2    0    0  0.37171419366E+02  0.95778148983E+02 -0.17060454411E+03  0.21833115357E+03  0.89484154500E+02 0.  0.
          5    1    3    3  502    0 -0.45696609844E+02 -0.69890827893E+02 -0.10244808421E+03  0.13225206211E+03  0.47000000000E+01 0. -1.
         -5    1    4    4    0  503  0.47281392501E+02  0.61368413979E+02 -0.49771275691E+02  0.92200228823E+02  0.47000000000E+01 0.  1.
          5    1    4    4  503    0 -0.10109973136E+02  0.34409735004E+02 -0.12083326842E+03  0.12613092474E+03  0.47000000000E+01 0. -1.
         -5    1    3    3    0  502  0.85251904786E+01 -0.25887321090E+02  0.14906063100E+02  0.31418354238E+02  0.47000000000E+01 0.  1.
<mgrwt>
<rscale>  0 0.13777653E+03</rscale>
<asrwt>0</asrwt>
<pdfrwt beam="1">  1        2 0.49242166E-01 0.13829100E+03</pdfrwt>
<pdfrwt beam="2">  1       -2 0.95273078E-02 0.13829100E+03</pdfrwt>
<totfact> 0.69721891E+03</totfact>
</mgrwt>
</event>
<event>
 8    1  0.3400573E-004  0.1108144E+03  0.7546771E-02  0.1261269E+00
          1   -1    0    0  501    0  0.00000000000E+00  0.00000000000E+00  0.79513744645E+03  0.79513744645E+03  0.00000000000E+00 0. -1.
         -1   -1    0    0    0  501 -0.00000000000E+00 -0.00000000000E+00 -0.16063402756E+02  0.16063402756E+02  0.00000000000E+00 0.  1.
         23    2    1    2    0    0  0.37561716076E+02 -0.53604310654E+02  0.51113542540E+03  0.52300979810E+03  0.89417678182E+02 0.  0.
         23    2    1    2    0    0 -0.37561716076E+02  0.53604310654E+02  0.26793861829E+03  0.28819105111E+03  0.83538458993E+02 0.  0.
          5    1    4    4  502    0 -0.27581270844E+02 -0.14066114538E+02  0.13532963583E+03  0.13890566012E+03  0.47000000000E+01 0. -1.
         -5    1    3    3    0  503  0.24086094625E+02 -0.65760169797E+01  0.29749728036E+02  0.39121864371E+02  0.47000000000E+01 0.  1.
          5    1    3    3  503    0  0.13475621451E+02 -0.47028293675E+02  0.48138569736E+03  0.48388793373E+03  0.47000000000E+01 0. -1.
         -5    1    4    4    0  502 -0.99804452329E+01  0.67670425192E+02  0.13260898247E+03  0.14928539099E+03  0.47000000000E+01 0.  1.
<mgrwt>
<rscale>  0 0.10962352E+03</rscale>
<asrwt>0</asrwt>
<pdfrwt beam="1">  1        1 0.12232881E+00 0.11081438E+03</pdfrwt>
<pdfrwt beam="2">  1       -1 0.24712934E-02 0.11081438E+03</pdfrwt>
<totfact> 0.11045108E+04</totfact>
</mgrwt>
</event>
<event>
 8    1  0.3400573E-004  0.1562501E+03  0.7546771E-02  0.1193814E+00
          2   -1    0    0  501    0  0.00000000000E+00  0.00000000000E+00  0.66058092870E+03  0.66058092870E+03  0.00000000000E+00 0. -1.
         -2   -1    0    0    0  501 -0.00000000000E+00 -0.00000000000E+00 -0.36916435242E+02  0.36916435242E+02  0.00000000000E+00 0.  1.
         23    2    1    2    0    0 -0.12450807130E+03  0.21455839677E+02  0.35399319277E+03  0.38582976017E+03  0.87125257119E+02 0.  0.
         23    2    1    2    0    0  0.12450807130E+03 -0.21455839677E+02  0.26967130068E+03  0.31166760377E+03  0.91931887573E+02 0.  0.
          5    1    4    4  502    0  0.46680437091E+02 -0.33528213319E+01  0.20029272431E+03  0.20574151265E+03  0.47000000000E+01 0. -1.
         -5    1    4    4    0  502  0.77827634208E+02 -0.18103018345E+02  0.69378576378E+02  0.10592609112E+03  0.47000000000E+01 0.  1.
          5    1    3    3  503    0 -0.25547838541E+02  0.43565636593E+02  0.14199368360E+03  0.15078114248E+03  0.47000000000E+01 0.  1.
         -5    1    3    3    0  503 -0.98960232758E+02 -0.22109796916E+02  0.21199950917E+03  0.23504861768E+03  0.47000000000E+01 0. -1.
<mgrwt>
<rscale>  0 0.15555068E+03</rscale>
<asrwt>0</asrwt>
<pdfrwt beam="1">  1        2 0.10162783E+00 0.15625007E+03</pdfrwt>
<pdfrwt beam="2">  1       -2 0.56794521E-02 0.15625007E+03</pdfrwt>
<totfact> 0.70307929E+03</totfact>
</mgrwt>
</event>
<event>
 8    1  0.3400573E-004  0.1075807E+03  0.7546771E-02  0.1266164E+00
         -2   -1    0    0    0  501 -0.00000000000E+00  0.00000000000E+00  0.90207470702E+02  0.90207470702E+02  0.00000000000E+00 0.  1.
          2   -1    0    0  501    0  0.00000000000E+00 -0.00000000000E+00 -0.22009531489E+03  0.22009531489E+03  0.00000000000E+00 0. -1.
         23    2    1    2    0    0 -0.47542575222E+02 -0.25164002122E+02 -0.16615767945E+03  0.19677258632E+03  0.90650718827E+02 0.  0.
         23    2    1    2    0    0  0.47542575222E+02  0.25164002122E+02  0.36269835264E+02  0.11353019928E+03  0.93166956244E+02 0.  0.
          5    1    3    3  502    0 -0.50070619425E+02  0.23798185518E+02 -0.97825458758E+02  0.11254035252E+03  0.47000000000E+01 0. -1.
         -5    1    3    3    0  502  0.25280442028E+01 -0.48962187640E+02 -0.68332220696E+02  0.84232233802E+02  0.47000000000E+01 0.  1.
          5    1    4    4  503    0  0.19260984072E+02  0.56213858052E+02  0.28924615217E+01  0.59677798872E+02  0.47000000000E+01 0. -1.
         -5    1    4    4    0  503  0.28281591150E+02 -0.31049855930E+02  0.33377373742E+02  0.53852400403E+02  0.47000000000E+01 0.  1.
<mgrwt>
<rscale>  0 0.10703363E+03</rscale>
<asrwt>0</asrwt>
<pdfrwt beam="1">  1        2 0.33860817E-01 0.10758069E+03</pdfrwt>
<pdfrwt beam="2">  1       -2 0.13878073E-01 0.10758069E+03</pdfrwt>
<totfact> 0.56136906E+03</totfact>
</mgrwt>
</event>
<event>
 8    1  0.3400573E-004  0.1346348E+03  0.7546771E-02  0.1221767E+00
         -2   -1    0    0    0  501 -0.00000000000E+00  0.00000000000E+00  0.42338919321E+03  0.42338919321E+03  0.00000000000E+00 0.  1.
          2   -1    0    0  501    0  0.00000000000E+00 -0.00000000000E+00 -0.58523184542E+02  0.58523184542E+02  0.00000000000E+00 0. -1.
         23    2    1    2    0    0  0.96159635204E+02  0.93788653309E+01  0.52618709298E+02  0.14187575057E+03  0.89584381868E+02 0.  0.
         23    2    1    2    0    0 -0.96159635204E+02 -0.93788653309E+01  0.31224729937E+03  0.34003662718E+03  0.93765096398E+02 0.  0.
          5    1    4    4  502    0 -0.67919638753E+02  0.38836723897E+02  0.19062863127E+03  0.20611339964E+03  0.47000000000E+01 0. -1.
         -5    1    4    4    0  502 -0.28239996451E+02 -0.48215589228E+02  0.12161866810E+03  0.13392322754E+03  0.47000000000E+01 0.  1.
          5    1    3    3  503    0  0.39594962697E+02  0.26463033200E+02 -0.16685069633E+02  0.50680713745E+02  0.47000000000E+01 0. -1.
         -5    1    3    3    0  503  0.56564672508E+02 -0.17084167870E+02  0.69303778931E+02  0.91195036826E+02  0.47000000000E+01 0.  1.
<mgrwt>
<rscale>  0 0.13390961E+03</rscale>
<asrwt>0</asrwt>
<pdfrwt beam="1">  1        2 0.90035671E-02 0.13463481E+03</pdfrwt>
<pdfrwt beam="2">  1       -2 0.65136797E-01 0.13463481E+03</pdfrwt>
<totfact> 0.15762111E+03</totfact>
</mgrwt>
</event>
<event>
 8    1  0.3400573E-004  0.1374405E+03  0.7546771E-02  0.1218358E+00
          1   -1    0    0  501    0  0.00000000000E+00  0.00000000000E+00  0.28287990250E+02  0.28287990250E+02  0.00000000000E+00 0. -1.
         -1   -1    0    0    0  501 -0.00000000000E+00 -0.00000000000E+00 -0.68678875814E+03  0.68678875814E+03  0.00000000000E+00 0.  1.
         23    2    1    2    0    0  0.10010236312E+03  0.24360747386E+02 -0.41071953332E+03  0.43172988552E+03  0.84179747471E+02 0.  0.
         23    2    1    2    0    0 -0.10010236312E+03 -0.24360747386E+02 -0.24778123457E+03  0.28334686287E+03  0.90972388003E+02 0.  0.
          5    1    4    4  502    0 -0.61520309566E+02 -0.42771813725E+02 -0.78229403191E+02  0.10842557845E+03  0.47000000000E+01 0. -1.
         -5    1    3    3    0  503  0.49549918626E+02 -0.79460846275E+01 -0.31251897607E+03  0.31655731724E+03  0.47000000000E+01 0.  1.
          5    1    3    3  503    0  0.50552444492E+02  0.32306832013E+02 -0.98200557251E+02  0.11517256828E+03  0.47000000000E+01 0. -1.
         -5    1    4    4    0  502 -0.38582053552E+02  0.18411066339E+02 -0.16955183138E+03  0.17492128442E+03  0.47000000000E+01 0.  1.
<mgrwt>
<rscale>  0 0.13632745E+03</rscale>
<asrwt>0</asrwt>
<pdfrwt beam="1">  1        1 0.43519989E-02 0.13744055E+03</pdfrwt>
<pdfrwt beam="2">  1       -1 0.10565980E+00 0.13744055E+03</pdfrwt>
<totfact> 0.17508736E+03</totfact>
</mgrwt>
</event>
<event>
 8    1  0.3400573E-004  0.1097100E+03  0.7546771E-02  0.1262576E+00
          1   -1    0    0  501    0  0.00000000000E+00  0.00000000000E+00  0.15401676372E+03  0.15401676372E+03  0.00000000000E+00 0. -1.
         -1   -1    0    0    0  501 -0.00000000000E+00 -0.00000000000E+00 -0.10330740790E+03  0.10330740790E+03  0.00000000000E+00 0.  1.
         23    2    1    2    0    0 -0.46668352644E+02 -0.38527701564E+02  0.91829073702E+02  0.14306940382E+03  0.91509325243E+02 0.  0.
         23    2    1    2    0    0  0.46668352644E+02  0.38527701564E+02 -0.41119717878E+02  0.11425476780E+03  0.87755352208E+02 0.  0.
          5    1    3    3  502    0  0.62486878962E+01 -0.42410733798E+02  0.76199485657E+02  0.87556656264E+02  0.47000000000E+01 0. -1.
         -5    1    3    3    0  502 -0.52917040540E+02  0.38830322345E+01  0.15629588045E+02  0.55512747557E+02  0.47000000000E+01 0.  1.
          5    1    4    4  503    0  0.64422758222E+02  0.52038587746E+02 -0.38013902857E+02  0.91243921452E+02  0.47000000000E+01 0. -1.
         -5    1    4    4    0  503 -0.17754405578E+02 -0.13510886183E+02 -0.31058150213E+01  0.23010846352E+02  0.47000000000E+01 0.  1.
<mgrwt>
<rscale>  0 0.10892378E+03</rscale>
<asrwt>0</asrwt>
<pdfrwt beam="1">  1        1 0.23694887E-01 0.10970996E+03</pdfrwt>
<pdfrwt beam="2">  1       -1 0.15893447E-01 0.10970996E+03</pdfrwt>
<totfact> 0.56382021E+03</totfact>
</mgrwt>
</event>
<event>
 8    1  0.3400573E-004  0.9378303E+02  0.7546771E-02  0.1294767E+00
         -2   -1    0    0    0  501 -0.00000000000E+00  0.00000000000E+00  0.93373006354E+02  0.93373006354E+02  0.00000000000E+00 0.  1.
          2   -1    0    0  501    0  0.00000000000E+00 -0.00000000000E+00 -0.11734383238E+03  0.11734383238E+03  0.00000000000E+00 0. -1.
         23    2    1    2    0    0 -0.16598082507E+02  0.10598661799E+02  0.36161254841E+02  0.10051315125E+03  0.91692034813E+02 0.  0.
         23    2    1    2    0    0  0.16598082507E+02 -0.10598661799E+02 -0.60132080868E+02  0.11020368748E+03  0.90228363670E+02 0.  0.
          5    1    4    4  502    0  0.70631796799E+01  0.26335251497E+02 -0.65775908698E+02  0.71358210065E+02  0.47000000000E+01 0. -1.
         -5    1    3    3    0  503 -0.94033486873E+01 -0.39953770860E+02  0.24125108356E+02  0.47841797893E+02  0.47000000000E+01 0.  1.
          5    1    3    3  503    0 -0.71947338201E+01  0.50552432659E+02  0.12036146485E+02  0.52671353359E+02  0.47000000000E+01 0. -1.
         -5    1    4    4    0  502  0.95349028274E+01 -0.36933913296E+02  0.56438278295E+01  0.38845477419E+02  0.47000000000E+01 0.  1.
<mgrwt>
<rscale>  0 0.93423337E+02</rscale>
<asrwt>0</asrwt>
<pdfrwt beam="1">  1        2 0.18052897E-01 0.93783033E+02</pdfrwt>
<pdfrwt beam="2">  1       -2 0.14365078E-01 0.93783033E+02</pdfrwt>
<totfact> 0.10458344E+04</totfact>
</mgrwt>
</event>
<event>
 8    1  0.3400573E-004  0.9703323E+02  0.7546771E-02  0.1288352E+00
         -1   -1    0    0    0  501 -0.00000000000E+00  0.00000000000E+00  0.18964453721E+03  0.18964453721E+03  0.00000000000E+00 0.  1.
          1   -1    0    0  501    0  0.00000000000E+00 -0.00000000000E+00 -0.56330717041E+02  0.56330717041E+02  0.00000000000E+00 0. -1.
         23    2    1    2    0    0 -0.14612494373E+02  0.24456554779E+02  0.18764003327E+02  0.95851610953E+02  0.89575640873E+02 0.  0.
         23    2    1    2    0    0  0.14612494373E+02 -0.24456554779E+02  0.11454981685E+03  0.15012364330E+03  0.92756669168E+02 0.  0.
          5    1    3    3  502    0 -0.30733640832E+02  0.51693833684E+02  0.35675334150E+01  0.60428688670E+02  0.47000000000E+01 0. -1.
         -5    1    4    4    0  503  0.69595860391E+01 -0.58072911797E+02  0.90382234242E+02  0.10775869890E+03  0.47000000000E+01 0.  1.
          5    1    4    4  503    0  0.76529083343E+01  0.33616357017E+02  0.24167582603E+02  0.42364944399E+02  0.47000000000E+01 0. -1.
         -5    1    3    3    0  502  0.16121146459E+02 -0.27237278904E+02  0.15196469912E+02  0.35422922283E+02  0.47000000000E+01 0.  1.
<mgrwt>
<rscale>  0 0.96265110E+02</rscale>
<asrwt>0</asrwt>
<pdfrwt beam="1">  1        1 0.86662642E-02 0.97033230E+02</pdfrwt>
<pdfrwt beam="2">  1       -1 0.29176082E-01 0.97033230E+02</pdfrwt>
<totfact> 0.76735534E+03</totfact>
</mgrwt>
</event>
<event>
 8    1  0.3400573E-004  0.9367547E+02  0.7546771E-02  0.1300039E+00
          1   -1    0    0  501    0  0.00000000000E+00  0.00000000000E+00  0.46957577400E+02  0.46957577400E+02  0.00000000000E+00 0. -1.
         -1   -1    0    0    0  501 -0.00000000000E+00 -0.00000000000E+00 -0.20233231024E+03  0.20233231024E+03  0.00000000000E+00 0.  1.
         23    2    1    2    0    0 -0.12435868778E+02 -0.21119911017E+02 -0.12534456690E+03  0.15091862572E+03  0.80401925747E+02 0.  0.
         23    2    1    2    0    0  0.12435868778E+02  0.21119911017E+02 -0.30030165946E+02  0.98371261928E+02  0.90412348896E+02 0.  0.
          5    1    3    3  502    0  0.17358959842E+02  0.19687612211E+02 -0.17964923164E+02  0.32152200945E+02  0.47000000000E+01 0. -1.
         -5    1    3    3    0  502 -0.29794828619E+02 -0.40807523228E+02 -0.10737964373E+03  0.11876642477E+03  0.47000000000E+01 0.  1.
          5    1    4    4  503    0 -0.11716558061E+02  0.37736417034E+02  0.16579855989E+02  0.43107963626E+02  0.47000000000E+01 0. -1.
         -5    1    4    4    0  503  0.24152426839E+02 -0.16616506017E+02 -0.46610021935E+02  0.55263298302E+02  0.47000000000E+01 0.  1.
<mgrwt>
<rscale>  0 0.91171638E+02</rscale>
<asrwt>0</asrwt>
<pdfrwt beam="1">  1        1 0.72242427E-02 0.93675473E+02</pdfrwt>
<pdfrwt beam="2">  1       -1 0.31128047E-01 0.93675473E+02</pdfrwt>
<totfact> 0.87443319E+03</totfact>
</mgrwt>
</event>
<event>
 8    1  0.3400573E-004  0.1294659E+03  0.7546771E-02  0.1235830E+00
         -1   -1    0    0    0  501 -0.00000000000E+00  0.00000000000E+00  0.14784942374E+03  0.14784942374E+03  0.00000000000E+00 0.  1.
          1   -1    0    0  501    0  0.00000000000E+00 -0.00000000000E+00 -0.10815776637E+03  0.10815776637E+03  0.00000000000E+00 0. -1.
         23    2    1    2    0    0  0.17516354125E+02 -0.66742741269E+02 -0.21457700317E+02  0.11282663835E+03  0.86648723278E+02 0.  0.
         23    2    1    2    0    0 -0.17516354125E+02  0.66742741269E+02  0.61149357683E+02  0.14318055176E+03  0.10954455843E+03 0.  0.
          5    1    4    4  502    0  0.47448306775E+01 -0.20997533710E+02  0.46373402746E+02  0.51341915842E+02  0.47000000000E+01 0. -1.
         -5    1    4    4    0  502 -0.22261184802E+02  0.87740274979E+02  0.14775954936E+02  0.91838635913E+02  0.47000000000E+01 0.  1.
          5    1    3    3  503    0  0.49712700106E+02 -0.39326231237E+02  0.32151080187E+01  0.63642218179E+02  0.47000000000E+01 0. -1.
         -5    1    3    3    0  503 -0.32196345981E+02 -0.27416510031E+02 -0.24672808336E+02  0.49184420176E+02  0.47000000000E+01 0.  1.
<mgrwt>
<rscale>  0 0.12451441E+03</rscale>
<asrwt>0</asrwt>
<pdfrwt beam="1">  1        1 0.16639656E-01 0.12946593E+03</pdfrwt>
<pdfrwt beam="2">  1       -1 0.22746065E-01 0.12946593E+03</pdfrwt>
<totfact> 0.50398036E+03</totfact>
</mgrwt>
</event>
<event>
 8    1  0.3400573E-004  0.1011242E+03  0.7546771E-02  0.1278039E+00
          1   -1    0    0  501    0  0.00000000000E+00  0.00000000000E+00  0.67525217925E+02  0.67525217925E+02  0.00000000000E+00 0. -1.
         -1   -1    0    0    0  501 -0.00000000000E+00 -0.00000000000E+00 -0.23460586374E+03  0.23460586374E+03  0.00000000000E+00 0.  1.
         23    2    1    2    0    0 -0.31626617091E+02 -0.29164361850E+02  0.65872866010E+01  0.10116678537E+03  0.91326464988E+02 0.  0.
         23    2    1    2    0    0  0.31626617091E+02  0.29164361850E+02 -0.17366793241E+03  0.20096429629E+03  0.91516636319E+02 0.  0.
          5    1    3    3  502    0 -0.61760259445E+02 -0.91569319653E+01  0.13478904424E+02  0.64046466836E+02  0.47000000000E+01 0. -1.
         -5    1    3    3    0  502  0.30133642354E+02 -0.20007429885E+02 -0.68916178227E+01  0.37120318537E+02  0.47000000000E+01 0.  1.
          5    1    4    4  503    0  0.47089787667E+02  0.50421090465E+02 -0.15044248655E+03  0.16557405058E+03  0.47000000000E+01 0.  1.
         -5    1    4    4    0  503 -0.15463170576E+02 -0.21256728616E+02 -0.23225445863E+02  0.35390245708E+02  0.47000000000E+01 0. -1.
<mgrwt>
<rscale>  0 0.10108112E+03</rscale>
<asrwt>0</asrwt>
<pdfrwt beam="1">  1        1 0.10388495E-01 0.10112417E+03</pdfrwt>
<pdfrwt beam="2">  1       -1 0.36093210E-01 0.10112417E+03</pdfrwt>
<totfact> 0.42376638E+03</totfact>
</mgrwt>
</event>
<event>
 8    1  0.3400573E-004  0.1107736E+03  0.7546771E-02  0.1259985E+00
         -2   -1    0    0    0  501 -0.00000000000E+00  0.00000000000E+00  0.88695205284E+02  0.88695205284E+02  0.00000000000E+00 0.  1.
          2   -1    0    0  501    0  0.00000000000E+00 -0.00000000000E+00 -0.23348900269E+03  0.23348900269E+03  0.00000000000E+00 0. -1.
         23    2    1    2    0    0  0.56697649024E+02  0.67545831472E+01 -0.17609200133E+03  0.20707394204E+03  0.92795348714E+02 0.  0.
         23    2    1    2    0    0 -0.56697649024E+02 -0.67545831472E+01  0.31298203916E+02  0.11511026594E+03  0.94923906144E+02 0.  0.
          5    1    4    4  502    0 -0.24693017699E+02 -0.50449024899E+02  0.17551994520E+02  0.59033988074E+02  0.47000000000E+01 0. -1.
         -5    1    3    3    0  503 -0.21798061800E+02  0.14967682559E+02 -0.25734202874E+02  0.37195782247E+02  0.47000000000E+01 0.  1.
          5    1    3    3  503    0  0.78495710823E+02 -0.82130994114E+01 -0.15035779845E+03  0.16987815979E+03  0.47000000000E+01 0. -1.
         -5    1    4    4    0  502 -0.32004631325E+02  0.43694441752E+02  0.13746209396E+02  0.56076277863E+02  0.47000000000E+01 0.  1.
<mgrwt>
<rscale>  0 0.11031618E+03</rscale>
<asrwt>0</asrwt>
<pdfrwt beam="1">  1        2 0.35921385E-01 0.11077362E+03</pdfrwt>
<pdfrwt beam="2">  1       -2 0.13645416E-01 0.11077362E+03</pdfrwt>
<totfact> 0.54281032E+03</totfact>
</mgrwt>
</event>
<event>
 8    1  0.3400573E-004  0.9556432E+02  0.7546771E-02  0.1294505E+00
         -1   -1    0    0    0  501 -0.00000000000E+00  0.00000000000E+00  0.75078577675E+02  0.75078577675E+02  0.00000000000E+00 0.  1.
          1   -1    0    0  501    0  0.00000000000E+00 -0.00000000000E+00 -0.12423088742E+03  0.12423088742E+03  0.00000000000E+00 0. -1.
         23    2    1    2    0    0  0.12363064991E+02  0.10461054857E+02 -0.55064982242E+02  0.10356241271E+03  0.86201751798E+02 0.  0.
         23    2    1    2    0    0 -0.12363064991E+02 -0.10461054857E+02  0.59126724956E+01  0.95747052383E+02  0.94182054019E+02 0.  0.
          5    1    3    3  502    0  0.31983024818E+02 -0.27880755824E+02 -0.37467326903E+02  0.56799128577E+02  0.47000000000E+01 0. -1.
         -5    1    3    3    0  502 -0.19619959826E+02  0.38341810680E+02 -0.17597655339E+02  0.46763284137E+02  0.47000000000E+01 0.  1.
          5    1    4    4  503    0  0.31543586002E+02  0.22400530890E+02 -0.59931932048E+01  0.39430825084E+02  0.47000000000E+01 0. -1.
         -5    1    4    4    0  503 -0.43906650993E+02 -0.32861585746E+02  0.11905865700E+02  0.56316227300E+02  0.47000000000E+01 0.  1.
<mgrwt>
<rscale>  0 0.93537106E+02</rscale>
<asrwt>0</asrwt>
<pdfrwt beam="1">  1        1 0.19112444E-01 0.95564315E+02</pdfrwt>
<pdfrwt beam="2">  1       -1 0.11550551E-01 0.95564315E+02</pdfrwt>
<totfact> 0.11950473E+04</totfact>
</mgrwt>
</event>
<event>
 8    1  0.3400573E-004  0.1343622E+03  0.7546771E-02  0.1222384E+00
          2   -1    0    0  501    0  0.00000000000E+00  0.00000000000E+00  0.65557755576E+03  0.65557755576E+03  0.00000000000E+00 0. -1.
         -2   -1    0    0    0  501 -0.00000000000E+00 -0.00000000000E+00 -0.27018835397E+02  0.27018835397E+02  0.00000000000E+00 0.  1.
         23    2    1    2    0    0 -0.36626274418E+02 -0.86689117985E+02  0.34730528322E+03  0.37238980003E+03  0.95899511269E+02 0.  0.
         23    2    1    2    0    0  0.36626274418E+02  0.86689117985E+02  0.28125343715E+03  0.31020659113E+03  0.90929346843E+02 0.  0.
          5    1    4    4  502    0  0.64264850181E+02  0.78284958350E+02  0.21086476552E+03  0.23397552225E+03  0.47000000000E+01 0. -1.
         -5    1    3    3    0  503 -0.98736113957E+01 -0.18533779113E+02  0.47129276691E+01  0.22029318133E+02  0.47000000000E+01 0.  1.
          5    1    3    3  503    0 -0.26752663022E+02 -0.68155338872E+02  0.34259235555E+03  0.35036048190E+03  0.47000000000E+01 0. -1.
         -5    1    4    4    0  502 -0.27638575763E+02  0.84041596351E+01  0.70388671630E+02  0.76231068884E+02  0.47000000000E+01 0.  1.
<mgrwt>
<rscale>  0 0.13347825E+03</rscale>
<asrwt>0</asrwt>
<pdfrwt beam="1">  1        2 0.10085807E+00 0.13436221E+03</pdfrwt>
<pdfrwt beam="2">  1       -2 0.41567444E-02 0.13436221E+03</pdfrwt>
<totfact> 0.11234415E+04</totfact>
</mgrwt>
</event>
<event>
 8    1  0.3400573E-004  0.9543707E+02  0.7546771E-02  0.1290462E+00
         -2   -1    0    0    0  501 -0.00000000000E+00  0.00000000000E+00  0.49836898831E+03  0.49836898831E+03  0.00000000000E+00 0.  1.
          2   -1    0    0  501    0  0.00000000000E+00 -0.00000000000E+00 -0.80006921931E+02  0.80006921931E+02  0.00000000000E+00 0. -1.
         23    2    1    2    0    0 -0.13253447134E+02  0.31770779804E+02  0.46350696711E+03  0.47323032751E+03  0.89012347495E+02 0.  0.
         23    2    1    2    0    0  0.13253447134E+02 -0.31770779804E+02 -0.45144900735E+02  0.10514558273E+03  0.88501385266E+02 0.  0.
          5    1    3    3  502    0 -0.47470951354E+02  0.25707045534E+02  0.35725124475E+03  0.36133763337E+03  0.47000000000E+01 0.  1.
         -5    1    3    3    0  502  0.34217504221E+02  0.60637342697E+01  0.10625572236E+03  0.11189269415E+03  0.47000000000E+01 0. -1.
          5    1    4    4  503    0  0.30745327509E+02 -0.53173253775E+02 -0.13872035932E+02  0.63144227460E+02  0.47000000000E+01 0. -1.
         -5    1    4    4    0  503 -0.17491880375E+02  0.21402473971E+02 -0.31272864803E+02  0.42001355266E+02  0.47000000000E+01 0.  1.
<mgrwt>
<rscale>  0 0.95317750E+02</rscale>
<asrwt>0</asrwt>
<pdfrwt beam="1">  1        2 0.12308758E-01 0.95437070E+02</pdfrwt>
<pdfrwt beam="2">  1       -2 0.76672150E-01 0.95437070E+02</pdfrwt>
<totfact> 0.75165826E+02</totfact>
</mgrwt>
</event>
<event>
 8    1  0.3400573E-004  0.2358032E+03  0.7546771E-02  0.1122856E+00
         -1   -1    0    0    0  501 -0.00000000000E+00  0.00000000000E+00  0.41427434877E+02  0.41427434877E+02  0.00000000000E+00 0.  1.
          1   -1    0    0  501    0  0.00000000000E+00 -0.00000000000E+00 -0.14811883809E+04  0.14811883809E+04  0.00000000000E+00 0. -1.
         23    2    1    2    0    0 -0.59444024831E+02  0.20881301669E+03 -0.96149516888E+03  0.98998793973E+03  0.92014634745E+02 0.  0.
         23    2    1    2    0    0  0.59444024831E+02 -0.20881301669E+03 -0.47826577718E+03  0.53262787608E+03  0.88418509001E+02 0.  0.
          5    1    3    3  502    0 -0.26129213034E+02  0.18718208538E+03 -0.86705302794E+03  0.88742487689E+03  0.47000000000E+01 0. -1.
         -5    1    4    4    0  503  0.45494032791E+02 -0.18237634802E+03 -0.46081400166E+03  0.49769717044E+03  0.47000000000E+01 0.  1.
          5    1    4    4  503    0  0.13949992040E+02 -0.26436668666E+02 -0.17451775521E+02  0.34930705645E+02  0.47000000000E+01 0. -1.
         -5    1    3    3    0  502 -0.33314811797E+02  0.21630931310E+02 -0.94442140941E+02  0.10256306284E+03  0.47000000000E+01 0.  1.
<mgrwt>
<rscale>  0 0.23545749E+03</rscale>
<asrwt>0</asrwt>
<pdfrwt beam="1">  1        1 0.22787514E+00 0.23580323E+03</pdfrwt>
<pdfrwt beam="2">  1       -1 0.63734515E-02 0.23580323E+03</pdfrwt>
<totfact> 0.90090820E+02</totfact>
</mgrwt>
</event>
<event>
 8    1  0.3400573E-004  0.1020790E+03  0.7546771E-02  0.1278203E+00
          1   -1    0    0  501    0  0.00000000000E+00  0.00000000000E+00  0.67481126780E+02  0.67481126780E+02  0.00000000000E+00 0. -1.
         -1   -1    0    0    0  501 -0.00000000000E+00 -0.00000000000E+00 -0.20556541086E+03  0.20556541086E+03  0.00000000000E+00 0.  1.
         23    2    1    2    0    0 -0.76553960829E+01  0.44566592495E+02  0.20953283076E+01  0.10210054596E+03  0.91516910070E+02 0.  0.
         23    2    1    2    0    0  0.76553960829E+01 -0.44566592495E+02 -0.14017961238E+03  0.17094599168E+03  0.86760717416E+02 0.  0.
          5    1    3    3  502    0 -0.33907821886E+02  0.28390467618E+02  0.35124408373E+02  0.56670742895E+02  0.47000000000E+01 0. -1.
         -5    1    3    3    0  502  0.26252425803E+02  0.16176124877E+02 -0.33029080066E+02  0.45429803066E+02  0.47000000000E+01 0.  1.
          5    1    4    4  503    0 -0.29716956513E+02 -0.22634597011E+02 -0.19013139183E+02  0.42178335053E+02  0.47000000000E+01 0. -1.
         -5    1    4    4    0  503  0.37372352596E+02 -0.21931995483E+02 -0.12116647320E+03  0.12876765662E+03  0.47000000000E+01 0.  1.
<mgrwt>
<rscale>  0 0.10100176E+03</rscale>
<asrwt>0</asrwt>
<pdfrwt beam="1">  1        1 0.10381712E-01 0.10207904E+03</pdfrwt>
<pdfrwt beam="2">  1       -1 0.31625447E-01 0.10207904E+03</pdfrwt>
<totfact> 0.53092928E+03</totfact>
</mgrwt>
</event>
<event>
 8    1  0.3400573E-004  0.1079106E+03  0.7546771E-02  0.1265920E+00
         -1   -1    0    0    0  501 -0.00000000000E+00  0.00000000000E+00  0.37419650604E+02  0.37419650604E+02  0.00000000000E+00 0.  1.
          1   -1    0    0  501    0  0.00000000000E+00 -0.00000000000E+00 -0.66017889428E+03  0.66017889428E+03  0.00000000000E+00 0. -1.
         23    2    1    2    0    0 -0.54028530387E+02  0.96565420050E+01 -0.56711717134E+02  0.12190531573E+03  0.92910474353E+02 0.  0.
         23    2    1    2    0    0  0.54028530387E+02 -0.96565420050E+01 -0.56604752654E+03  0.57569322915E+03  0.89445854500E+02 0.  0.
          5    1    3    3  502    0 -0.36001491029E+02 -0.29908349266E+02 -0.62033119866E+02  0.77851234238E+02  0.47000000000E+01 0. -1.
         -5    1    4    4    0  503  0.45620580007E+02  0.35914103705E+02 -0.32780348407E+03  0.33293884473E+03  0.47000000000E+01 0.  1.
          5    1    4    4  503    0  0.84079503799E+01 -0.45570645710E+02 -0.23824404247E+03  0.24275438442E+03  0.47000000000E+01 0. -1.
         -5    1    3    3    0  502 -0.18027039358E+02  0.39564891271E+02  0.53214027314E+01  0.44054081495E+02  0.47000000000E+01 0.  1.
<mgrwt>
<rscale>  0 0.10716072E+03</rscale>
<asrwt>0</asrwt>
<pdfrwt beam="1">  1        1 0.10156597E+00 0.10791055E+03</pdfrwt>
<pdfrwt beam="2">  1       -1 0.57568699E-02 0.10791055E+03</pdfrwt>
<totfact> 0.41980593E+03</totfact>
</mgrwt>
</event>
<event>
 8    1  0.3400573E-004  0.9302440E+02  0.7546771E-02  0.1297401E+00
          2   -1    0    0  501    0  0.00000000000E+00  0.00000000000E+00  0.83927716746E+03  0.83927716746E+03  0.00000000000E+00 0. -1.
         -2   -1    0    0    0  501 -0.00000000000E+00 -0.00000000000E+00 -0.99912652082E+01  0.99912652082E+01  0.00000000000E+00 0.  1.
         23    2    1    2    0    0  0.35004820290E+01  0.19939747438E+02  0.42311908575E+03  0.43322430665E+03  0.90794780940E+02 0.  0.
         23    2    1    2    0    0 -0.35004820290E+01 -0.19939747438E+02  0.40616681650E+03  0.41604412602E+03  0.87814492329E+02 0.  0.
          5    1    3    3  502    0 -0.24886693526E+02  0.35404936604E+02  0.35520437056E+03  0.35786183355E+03  0.47000000000E+01 0. -1.
         -5    1    3    3    0  502  0.28387175555E+02 -0.15465189166E+02  0.67914715190E+02  0.75362473097E+02  0.47000000000E+01 0.  1.
          5    1    4    4  503    0 -0.11687265792E+02  0.19997081354E+02  0.32794204083E+02  0.40423078381E+02  0.47000000000E+01 0. -1.
         -5    1    4    4    0  503  0.81867837626E+01 -0.39936828792E+02  0.37337261242E+03  0.37562104764E+03  0.47000000000E+01 0.  1.
<mgrwt>
<rscale>  0 0.92289098E+02</rscale>
<asrwt>0</asrwt>
<pdfrwt beam="1">  1        2 0.12911951E+00 0.93024401E+02</pdfrwt>
<pdfrwt beam="2">  1       -2 0.15371184E-02 0.93024401E+02</pdfrwt>
<totfact> 0.34419750E+04</totfact>
</mgrwt>
</event>
<event>
 8    1  0.3400573E-004  0.1257349E+03  0.7546771E-02  0.1254050E+00
         -2   -1    0    0    0  501 -0.00000000000E+00  0.00000000000E+00  0.70675468226E+02  0.70675468226E+02  0.00000000000E+00 0. -1.
          2   -1    0    0  501    0  0.00000000000E+00 -0.00000000000E+00 -0.17240564143E+03  0.17240564143E+03  0.00000000000E+00 0.  1.
         23    2    1    2    0    0  0.37589129386E+02 -0.52120654915E+01 -0.97665837462E+02  0.15921017403E+03  0.11987141208E+03 0.  0.
         23    2    1    2    0    0 -0.37589129386E+02  0.52120654915E+01 -0.40643357382E+01  0.83870935621E+02  0.74684046103E+02 0.  0.
          5    1    3    3  502    0  0.77353426213E+02  0.15754433749E+02 -0.50209965758E+02  0.93674358237E+02  0.47000000000E+01 0. -1.
         -5    1    4    4    0  503  0.11755441066E+02 -0.23334080789E+02 -0.33690114843E+00  0.26549448644E+02  0.47000000000E+01 0.  1.
          5    1    4    4  503    0 -0.49344570452E+02  0.28546146281E+02 -0.37274345897E+01  0.57321486977E+02  0.47000000000E+01 0. -1.
         -5    1    3    3    0  502 -0.39764296827E+02 -0.20966499240E+02 -0.47455871704E+02  0.65535815794E+02  0.47000000000E+01 0.  1.
<mgrwt>
<rscale>  0 0.11359706E+03</rscale>
<asrwt>0</asrwt>
<pdfrwt beam="1">  1        2 0.26523945E-01 0.12573489E+03</pdfrwt>
<pdfrwt beam="2">  1       -2 0.10873149E-01 0.12573489E+03</pdfrwt>
<totfact> 0.10907865E+04</totfact>
</mgrwt>
</event>
<event>
 8    1  0.3400573E-004  0.1061059E+03  0.7546771E-02  0.1268858E+00
         -2   -1    0    0    0  501 -0.00000000000E+00  0.00000000000E+00  0.13770556439E+02  0.13770556439E+02  0.00000000000E+00 0.  1.
          2   -1    0    0  501    0  0.00000000000E+00 -0.00000000000E+00 -0.10907582349E+04  0.10907582349E+04  0.00000000000E+00 0. -1.
         23    2    1    2    0    0 -0.25032569037E+02  0.45079103958E+02 -0.82538014039E+03  0.83217235454E+03  0.92734547963E+02 0.  0.
         23    2    1    2    0    0  0.25032569037E+02 -0.45079103958E+02 -0.25160753809E+03  0.27235643682E+03  0.90625163865E+02 0.  0.
          5    1    3    3  502    0 -0.20174278129E+02 -0.26777504922E+02 -0.24893093969E+03  0.25122248905E+03  0.47000000000E+01 0. -1.
         -5    1    3    3    0  502 -0.48582909080E+01  0.71856608879E+02 -0.57644920070E+03  0.58094986549E+03  0.47000000000E+01 0.  1.
          5    1    4    4  503    0  0.54231090778E+02 -0.47800036029E+02 -0.20127559728E+03  0.21391542888E+03  0.47000000000E+01 0. -1.
         -5    1    4    4    0  503 -0.29198521741E+02  0.27209320714E+01 -0.50331940804E+02  0.58441007934E+02  0.47000000000E+01 0.  1.
<mgrwt>
<rscale>  0 0.10564320E+03</rscale>
<asrwt>0</asrwt>
<pdfrwt beam="1">  1        2 0.16780891E+00 0.10610585E+03</pdfrwt>
<pdfrwt beam="2">  1       -2 0.21185478E-02 0.10610585E+03</pdfrwt>
<totfact> 0.15501536E+04</totfact>
</mgrwt>
</event>
<event>
 8    1  0.3400573E-004  0.1343101E+03  0.7546771E-02  0.1228311E+00
          3   -1    0    0  501    0  0.00000000000E+00  0.00000000000E+00  0.12003059463E+03  0.12003059463E+03  0.00000000000E+00 0. -1.
         -3   -1    0    0    0  501 -0.00000000000E+00 -0.00000000000E+00 -0.13615864263E+03  0.13615864263E+03  0.00000000000E+00 0.  1.
         23    2    1    2    0    0  0.73304351498E+02 -0.10695029051E+02  0.19007035852E+02  0.11735953629E+03  0.89017311533E+02 0.  0.
         23    2    1    2    0    0 -0.73304351498E+02  0.10695029051E+02 -0.35135083855E+02  0.13882970097E+03  0.11203258526E+03 0.  0.
          5    1    3    3  502    0  0.18571364040E+02 -0.24610012584E+02  0.45211651111E+02  0.54924782001E+02  0.47000000000E+01 0. -1.
         -5    1    3    3    0  502  0.54732987458E+02  0.13914983533E+02 -0.26204615259E+02  0.62434754293E+02  0.47000000000E+01 0.  1.
          5    1    4    4  503    0  0.13959247304E+02  0.35937542100E+02  0.54578639294E+01  0.39220476746E+02  0.47000000000E+01 0. -1.
         -5    1    4    4    0  503 -0.87263598801E+02 -0.25242513049E+02 -0.40592947784E+02  0.99609224224E+02  0.47000000000E+01 0.  1.
<mgrwt>
<rscale>  0 0.12942502E+03</rscale>
<asrwt>0</asrwt>
<pdfrwt beam="1">  1        3 0.18466245E-01 0.13431013E+03</pdfrwt>
<pdfrwt beam="2">  1       -3 0.20947484E-01 0.13431013E+03</pdfrwt>
<totfact> 0.12272581E+03</totfact>
</mgrwt>
</event>
<event>
 8    1  0.3400573E-004  0.1066781E+03  0.7546771E-02  0.1267358E+00
         -1   -1    0    0    0  501 -0.00000000000E+00  0.00000000000E+00  0.18635115740E+02  0.18635115740E+02  0.00000000000E+00 0.  1.
          1   -1    0    0  501    0  0.00000000000E+00 -0.00000000000E+00 -0.60688724404E+03  0.60688724404E+03  0.00000000000E+00 0. -1.
         23    2    1    2    0    0  0.34832082343E+02 -0.41538756711E+02 -0.31445476380E+03  0.33205724387E+03  0.91877486151E+02 0.  0.
         23    2    1    2    0    0 -0.34832082343E+02  0.41538756711E+02 -0.27379736451E+03  0.29346511591E+03  0.90653379303E+02 0.  0.
          5    1    4    4  502    0  0.16692003197E+02  0.40099961937E+02 -0.19011109010E+03  0.19506651814E+03  0.47000000000E+01 0. -1.
         -5    1    3    3    0  503  0.11239049419E+02 -0.63776300897E+02 -0.26424481028E+03  0.27210502117E+03  0.47000000000E+01 0.  1.
          5    1    3    3  503    0  0.23593032923E+02  0.22237544186E+02 -0.50209953520E+02  0.59952222698E+02  0.47000000000E+01 0. -1.
         -5    1    4    4    0  502 -0.51524085540E+02  0.14387947738E+01 -0.83686274403E+02  0.98398597778E+02  0.47000000000E+01 0.  1.
<mgrwt>
<rscale>  0 0.10641400E+03</rscale>
<asrwt>0</asrwt>
<pdfrwt beam="1">  1        1 0.93367261E-01 0.10667809E+03</pdfrwt>
<pdfrwt beam="2">  1       -1 0.28669411E-02 0.10667809E+03</pdfrwt>
<totfact> 0.13030735E+04</totfact>
</mgrwt>
</event>
<event>
 8    1  0.3400573E-004  0.1086432E+03  0.7546771E-02  0.1265810E+00
          3   -1    0    0  501    0  0.00000000000E+00  0.00000000000E+00  0.13597852524E+02  0.13597852524E+02  0.00000000000E+00 0. -1.
         -3   -1    0    0    0  501 -0.00000000000E+00 -0.00000000000E+00 -0.11209891422E+04  0.11209891422E+04  0.00000000000E+00 0.  1.
         23    2    1    2    0    0 -0.63174676407E+01 -0.43703282668E+02 -0.27249497180E+03  0.29335449035E+03  0.99264596107E+02 0.  0.
         23    2    1    2    0    0  0.63174676407E+01  0.43703282668E+02 -0.83489631791E+03  0.84123250440E+03  0.93114861842E+02 0.  0.
          5    1    3    3  502    0 -0.20412729849E+01  0.25200841113E+02 -0.23202186108E+02  0.34636406112E+02  0.47000000000E+01 0. -1.
         -5    1    3    3    0  502 -0.42761946558E+01 -0.68904123780E+02 -0.24929278569E+03  0.25871808424E+03  0.47000000000E+01 0.  1.
          5    1    4    4  503    0  0.31859116835E+01  0.72970760239E+02 -0.60565684260E+03  0.61006326137E+03  0.47000000000E+01 0. -1.
         -5    1    4    4    0  503  0.31315559572E+01 -0.29267477571E+02 -0.22923947531E+03  0.23116924303E+03  0.47000000000E+01 0.  1.
<mgrwt>
<rscale>  0 0.10721829E+03</rscale>
<asrwt>0</asrwt>
<pdfrwt beam="1">  1        3 0.20919766E-02 0.10864321E+03</pdfrwt>
<pdfrwt beam="2">  1       -3 0.17245992E+00 0.10864321E+03</pdfrwt>
<totfact> 0.48018073E+02</totfact>
</mgrwt>
</event>
<event>
 8    1  0.3400573E-004  0.1007941E+03  0.7546771E-02  0.1279064E+00
          4   -1    0    0  501    0  0.00000000000E+00  0.00000000000E+00  0.18609994439E+02  0.18609994439E+02  0.00000000000E+00 0. -1.
         -4   -1    0    0    0  501 -0.00000000000E+00 -0.00000000000E+00 -0.63803117668E+03  0.63803117668E+03  0.00000000000E+00 0.  1.
         23    2    1    2    0    0  0.23852678253E+01  0.42367438605E+02 -0.43850513140E+03  0.44994022010E+03  0.91426265617E+02 0.  0.
         23    2    1    2    0    0 -0.23852678253E+01 -0.42367438605E+02 -0.18091605084E+03  0.20670095102E+03  0.90520585188E+02 0.  0.
          5    1    3    3  502    0 -0.18278403335E+02  0.65704871288E+02 -0.32672581141E+03  0.33380095264E+03  0.47000000000E+01 0. -1.
         -5    1    3    3    0  502  0.20663671160E+02 -0.23337432682E+02 -0.11177931999E+03  0.11613926746E+03  0.47000000000E+01 0.  1.
          5    1    4    4  503    0  0.81361128838E+01  0.26206145072E+02 -0.32434462790E+02  0.42743920607E+02  0.47000000000E+01 0. -1.
         -5    1    4    4    0  503 -0.10521380709E+02 -0.68573583678E+02 -0.14848158805E+03  0.16395703041E+03  0.47000000000E+01 0.  1.
<mgrwt>
<rscale>  0 0.10058828E+03</rscale>
<asrwt>0</asrwt>
<pdfrwt beam="1">  1        4 0.28630766E-02 0.10079410E+03</pdfrwt>
<pdfrwt beam="2">  1       -4 0.98158625E-01 0.10079410E+03</pdfrwt>
<totfact> 0.80568718E+02</totfact>
</mgrwt>
</event>
<event>
 8    1  0.3400573E-004  0.1264467E+03  0.7546771E-02  0.1244527E+00
          2   -1    0    0  501    0  0.00000000000E+00  0.00000000000E+00  0.70511021245E+03  0.70511021245E+03  0.00000000000E+00 0. -1.
         -2   -1    0    0    0  501 -0.00000000000E+00 -0.00000000000E+00 -0.30776682208E+02  0.30776682208E+02  0.00000000000E+00 0.  1.
         23    2    1    2    0    0 -0.28971055334E+01 -0.42726984583E+02  0.78695003912E+02  0.12697473691E+03  0.89976062036E+02 0.  0.
         23    2    1    2    0    0  0.28971055334E+01  0.42726984583E+02  0.59563852633E+03  0.60891215776E+03  0.11897383485E+03 0.  0.
          5    1    3    3  502    0  0.29585642227E+02  0.11295821450E+02  0.45336105643E+02  0.55500975514E+02  0.47000000000E+01 0. -1.
         -5    1    4    4    0  503 -0.14164859490E+02 -0.38505826575E+02  0.14979541617E+03  0.15538371418E+03  0.47000000000E+01 0.  1.
          5    1    4    4  503    0  0.17061965024E+02  0.81232811158E+02  0.44584311016E+03  0.45352844358E+03  0.47000000000E+01 0. -1.
         -5    1    3    3    0  502 -0.32482747760E+02 -0.54022806033E+02  0.33358898269E+02  0.71473761392E+02  0.47000000000E+01 0.  1.
<mgrwt>
<rscale>  0 0.11913722E+03</rscale>
<asrwt>0</asrwt>
<pdfrwt beam="1">  1        2 0.10847848E+00 0.12644668E+03</pdfrwt>
<pdfrwt beam="2">  1       -2 0.47348747E-02 0.12644668E+03</pdfrwt>
<totfact> 0.84592851E+03</totfact>
</mgrwt>
</event>
<event>
 8    1  0.3400573E-004  0.1011219E+03  0.7546771E-02  0.1279319E+00
          1   -1    0    0  501    0  0.00000000000E+00  0.00000000000E+00  0.27124291825E+03  0.27124291825E+03  0.00000000000E+00 0. -1.
         -1   -1    0    0    0  501 -0.00000000000E+00 -0.00000000000E+00 -0.56962177197E+02  0.56962177197E+02  0.00000000000E+00 0.  1.
         23    2    1    2    0    0  0.34497046370E+02 -0.21412008725E+02  0.84615742770E+01  0.98886181458E+02  0.89768359226E+02 0.  0.
         23    2    1    2    0    0 -0.34497046370E+02  0.21412008725E+02  0.20581916678E+03  0.22931891399E+03  0.92612712814E+02 0.  0.
          5    1    4    4  502    0  0.12638636777E+01  0.47090113999E+02  0.57225201105E+02  0.74269036815E+02  0.47000000000E+01 0. -1.
         -5    1    4    4    0  502 -0.35760910048E+02 -0.25678105274E+02  0.14859396567E+03  0.15504987718E+03  0.47000000000E+01 0.  1.
          5    1    3    3  503    0  0.55682234146E+02 -0.27546954390E+02  0.28692212791E+02  0.68590662415E+02  0.47000000000E+01 0. -1.
         -5    1    3    3    0  503 -0.21185187776E+02  0.61349456641E+01 -0.20230638514E+02  0.30295519043E+02  0.47000000000E+01 0.  1.
<mgrwt>
<rscale>  0 0.10046593E+03</rscale>
<asrwt>0</asrwt>
<pdfrwt beam="1">  1        1 0.41729679E-01 0.10112188E+03</pdfrwt>
<pdfrwt beam="2">  1       -1 0.87634120E-02 0.10112188E+03</pdfrwt>
<totfact> 0.69406132E+03</totfact>
</mgrwt>
</event>
<event>
 8    1  0.3400573E-004  0.9641034E+02  0.7546771E-02  0.1288884E+00
          1   -1    0    0  501    0  0.00000000000E+00  0.00000000000E+00  0.32834047344E+03  0.32834047344E+03  0.00000000000E+00 0. -1.
         -1   -1    0    0    0  501 -0.00000000000E+00 -0.00000000000E+00 -0.51709569536E+02  0.51709569536E+02  0.00000000000E+00 0.  1.
         23    2    1    2    0    0  0.98238194671E+01  0.26647708406E+02  0.86709695128E+01  0.95273850201E+02  0.90527968206E+02 0.  0.
         23    2    1    2    0    0 -0.98238194671E+01 -0.26647708406E+02  0.26795993439E+03  0.28477619277E+03  0.92132218797E+02 0.  0.
          5    1    3    3  502    0 -0.21027371663E+02 -0.25654567870E+02  0.76296568955E+01  0.34359989464E+02  0.47000000000E+01 0. -1.
         -5    1    4    4    0  503 -0.17933315939E+02  0.16606560715E+02  0.17474954725E+02  0.30411276231E+02  0.47000000000E+01 0.  1.
          5    1    4    4  503    0  0.81094964723E+01 -0.43254269122E+02  0.25048497966E+03  0.25436491654E+03  0.47000000000E+01 0. -1.
         -5    1    3    3    0  502  0.30851191130E+02  0.52302276277E+02  0.10413126173E+01  0.60913860737E+02  0.47000000000E+01 0.  1.
<mgrwt>
<rscale>  0 0.96025064E+02</rscale>
<asrwt>0</asrwt>
<pdfrwt beam="1">  1        1 0.50513918E-01 0.96410339E+02</pdfrwt>
<pdfrwt beam="2">  1       -1 0.79553186E-02 0.96410339E+02</pdfrwt>
<totfact> 0.63275932E+03</totfact>
</mgrwt>
</event>
<event>
 8    1  0.3400573E-004  0.1077976E+03  0.7546771E-02  0.1265446E+00
          1   -1    0    0  501    0  0.00000000000E+00  0.00000000000E+00  0.53109669603E+03  0.53109669603E+03  0.00000000000E+00 0. -1.
         -1   -1    0    0    0  501 -0.00000000000E+00 -0.00000000000E+00 -0.24110822701E+02  0.24110822701E+02  0.00000000000E+00 0.  1.
         23    2    1    2    0    0 -0.26285791771E+02  0.45442411206E+02  0.34530392165E+03  0.36173900835E+03  0.94150710410E+02 0.  0.
         23    2    1    2    0    0  0.26285791771E+02 -0.45442411206E+02  0.16168195168E+03  0.19346851038E+03  0.92374538834E+02 0.  0.
          5    1    3    3  502    0  0.22051103148E+02  0.10927479965E+02  0.23535314700E+03  0.23668302595E+03  0.47000000000E+01 0. -1.
         -5    1    4    4    0  503 -0.18012390685E+02 -0.38153941129E+02  0.24421096446E+02  0.48976008346E+02  0.47000000000E+01 0.  1.
          5    1    4    4  503    0  0.44298182456E+02 -0.72884700775E+01  0.13726085523E+03  0.14449250203E+03  0.47000000000E+01 0. -1.
         -5    1    3    3    0  502 -0.48336894919E+02  0.34514931242E+02  0.10995077465E+03  0.12505598241E+03  0.47000000000E+01 0.  1.
<mgrwt>
<rscale>  0 0.10740850E+03</rscale>
<asrwt>0</asrwt>
<pdfrwt beam="1">  1        1 0.81707175E-01 0.10779755E+03</pdfrwt>
<pdfrwt beam="2">  1       -1 0.37093577E-02 0.10779755E+03</pdfrwt>
<totfact> 0.10718170E+04</totfact>
</mgrwt>
</event>
<event>
 8    1  0.3400573E-004  0.1046083E+03  0.7546771E-02  0.1271149E+00
          2   -1    0    0  501    0  0.00000000000E+00  0.00000000000E+00  0.24219987592E+03  0.24219987592E+03  0.00000000000E+00 0. -1.
         -2   -1    0    0    0  501 -0.00000000000E+00 -0.00000000000E+00 -0.50721209710E+02  0.50721209710E+02  0.00000000000E+00 0.  1.
         23    2    1    2    0    0  0.60946770834E+01  0.50020845656E+02  0.46583348133E+02  0.11451160665E+03  0.91671531268E+02 0.  0.
         23    2    1    2    0    0 -0.60946770834E+01 -0.50020845656E+02  0.14489531808E+03  0.17840947899E+03  0.91082703633E+02 0.  0.
          5    1    4    4  502    0 -0.46380416060E+02 -0.28056687741E+02  0.54964733826E+02  0.77340369055E+02  0.47000000000E+01 0. -1.
         -5    1    4    4    0  502  0.40285738977E+02 -0.21964157915E+02  0.89930584255E+02  0.10106910993E+03  0.47000000000E+01 0.  1.
          5    1    3    3  503    0  0.14446519283E+02 -0.19878552553E+02  0.34986334507E+02  0.43011537676E+02  0.47000000000E+01 0. -1.
         -5    1    3    3    0  503 -0.83518421993E+01  0.69899398209E+02  0.11597013626E+02  0.71500068973E+02  0.47000000000E+01 0.  1.
<mgrwt>
<rscale>  0 0.10447917E+03</rscale>
<asrwt>0</asrwt>
<pdfrwt beam="1">  1        2 0.37261519E-01 0.10460832E+03</pdfrwt>
<pdfrwt beam="2">  1       -2 0.78032631E-02 0.10460832E+03</pdfrwt>
<totfact> 0.12481590E+04</totfact>
</mgrwt>
</event>
<event>
 8    1  0.3400573E-004  0.1053385E+03  0.7546771E-02  0.1269927E+00
          1   -1    0    0  501    0  0.00000000000E+00  0.00000000000E+00  0.56448081897E+02  0.56448081897E+02  0.00000000000E+00 0. -1.
         -1   -1    0    0    0  501 -0.00000000000E+00 -0.00000000000E+00 -0.22671398645E+03  0.22671398645E+03  0.00000000000E+00 0.  1.
         23    2    1    2    0    0 -0.50064394098E+02  0.53607544491E-02 -0.13792736176E+03  0.17297141582E+03  0.91589901093E+02 0.  0.
         23    2    1    2    0    0  0.50064394098E+02 -0.53607544491E-02 -0.32338542792E+02  0.11019065253E+03  0.92680930993E+02 0.  0.
          5    1    4    4  502    0  0.70278225760E+02 -0.84565524789E+01 -0.11413256993E+00  0.70941139842E+02  0.47000000000E+01 0. -1.
         -5    1    3    3    0  503 -0.18004209863E+02 -0.45011499573E+02 -0.59061230455E+02  0.76553939216E+02  0.47000000000E+01 0.  1.
          5    1    3    3  503    0 -0.32060184235E+02  0.45016860328E+02 -0.78866131305E+02  0.96417476600E+02  0.47000000000E+01 0. -1.
         -5    1    4    4    0  502 -0.20213831662E+02  0.84511917245E+01 -0.32224410222E+02  0.39249512687E+02  0.47000000000E+01 0.  1.
<mgrwt>
<rscale>  0 0.10509801E+03</rscale>
<asrwt>0</asrwt>
<pdfrwt beam="1">  1        1 0.86843201E-02 0.10533850E+03</pdfrwt>
<pdfrwt beam="2">  1       -1 0.34879076E-01 0.10533850E+03</pdfrwt>
<totfact> 0.57070035E+03</totfact>
</mgrwt>
</event>
<event>
 8    1  0.3400573E-004  0.1631194E+03  0.7546771E-02  0.1185377E+00
         -1   -1    0    0    0  501 -0.00000000000E+00  0.00000000000E+00  0.16940426219E+03  0.16940426219E+03  0.00000000000E+00 0.  1.
          1   -1    0    0  501    0  0.00000000000E+00 -0.00000000000E+00 -0.21529026075E+03  0.21529026075E+03  0.00000000000E+00 0. -1.
         23    2    1    2    0    0 -0.13435352111E+03 -0.22335999687E+02 -0.12347084221E+03  0.20458001294E+03  0.89767295279E+02 0.  0.
         23    2    1    2    0    0  0.13435352111E+03  0.22335999687E+02  0.77584843648E+02  0.18011451000E+03  0.88724648385E+02 0.  0.
          5    1    3    3  502    0 -0.13463176827E+03  0.15925087926E+01 -0.11906773704E+03  0.17979840131E+03  0.47000000000E+01 0. -1.
         -5    1    4    4    0  503  0.10727785292E+03 -0.22691229184E+02  0.50403906545E+02  0.12077281732E+03  0.47000000000E+01 0.  1.
          5    1    4    4  503    0  0.27075668191E+02  0.45027228871E+02  0.27180937102E+02  0.59341692675E+02  0.47000000000E+01 0. -1.
         -5    1    3    3    0  502  0.27824716386E+00 -0.23928508480E+02 -0.44031051753E+01  0.24781611625E+02  0.47000000000E+01 0.  1.
<mgrwt>
<rscale>  0 0.16297633E+03</rscale>
<asrwt>0</asrwt>
<pdfrwt beam="1">  1        1 0.33121579E-01 0.16311938E+03</pdfrwt>
<pdfrwt beam="2">  1       -1 0.26062194E-01 0.16311938E+03</pdfrwt>
<totfact> 0.17082562E+03</totfact>
</mgrwt>
</event>
<event>
 8    1  0.3400573E-004  0.1028628E+03  0.7546771E-02  0.1276338E+00
          2   -1    0    0  501    0  0.00000000000E+00  0.00000000000E+00  0.18538598274E+03  0.18538598274E+03  0.00000000000E+00 0. -1.
         -2   -1    0    0    0  501 -0.00000000000E+00 -0.00000000000E+00 -0.10870172730E+03  0.10870172730E+03  0.00000000000E+00 0.  1.
         23    2    1    2    0    0  0.11042525291E+02  0.41060446276E+02 -0.65364346617E+02  0.11870653311E+03  0.89503327206E+02 0.  0.
         23    2    1    2    0    0 -0.11042525291E+02 -0.41060446276E+02  0.14204860206E+03  0.17538117693E+03  0.93663516166E+02 0.  0.
          5    1    4    4  502    0 -0.37334804638E+02 -0.22122181387E+02  0.13501030588E+03  0.14189133603E+03  0.47000000000E+01 0. -1.
         -5    1    3    3    0  503  0.45106111827E+02  0.38976946790E+02 -0.58350938724E+02  0.83550498234E+02  0.47000000000E+01 0.  1.
          5    1    3    3  503    0 -0.34063586536E+02  0.20834994861E+01 -0.70134078933E+01  0.35156034875E+02  0.47000000000E+01 0. -1.
         -5    1    4    4    0  502  0.26292279348E+02 -0.18938264889E+02  0.70382961811E+01  0.33489840899E+02  0.47000000000E+01 0.  1.
<mgrwt>
<rscale>  0 0.10190622E+03</rscale>
<asrwt>0</asrwt>
<pdfrwt beam="1">  1        2 0.28520920E-01 0.10286278E+03</pdfrwt>
<pdfrwt beam="2">  1       -2 0.16723343E-01 0.10286278E+03</pdfrwt>
<totfact> 0.49658287E+03</totfact>
</mgrwt>
</event>
<event>
 8    1  0.3400573E-004  0.1176236E+03  0.7546771E-02  0.1247383E+00
         -1   -1    0    0    0  501 -0.00000000000E+00  0.00000000000E+00  0.81767608804E+02  0.81767608804E+02  0.00000000000E+00 0.  1.
          1   -1    0    0  501    0  0.00000000000E+00 -0.00000000000E+00 -0.37012184525E+03  0.37012184525E+03  0.00000000000E+00 0. -1.
         23    2    1    2    0    0 -0.34590433000E+02 -0.64790244204E+02  0.22526112109E+02  0.11976115111E+03  0.91875098859E+02 0.  0.
         23    2    1    2    0    0  0.34590433000E+02  0.64790244204E+02 -0.31088034856E+03  0.33212830294E+03  0.90930438786E+02 0.  0.
          5    1    4    4  502    0  0.43772496835E+01  0.49315359418E+02 -0.28467835378E+03  0.28898965397E+03  0.47000000000E+01 0. -1.
         -5    1    3    3    0  503 -0.49923993057E+02 -0.32638632516E+02  0.47172568381E+02  0.76190725308E+02  0.47000000000E+01 0.  1.
          5    1    3    3  503    0  0.15333560057E+02 -0.32151611688E+02 -0.24646456272E+02  0.43570425806E+02  0.47000000000E+01 0. -1.
         -5    1    4    4    0  502  0.30213183316E+02  0.15474884786E+02 -0.26201994780E+02  0.43138648978E+02  0.47000000000E+01 0.  1.
<mgrwt>
<rscale>  0 0.11743906E+03</rscale>
<asrwt>0</asrwt>
<pdfrwt beam="1">  1        1 0.56941821E-01 0.11762358E+03</pdfrwt>
<pdfrwt beam="2">  1       -1 0.12579632E-01 0.11762358E+03</pdfrwt>
<totfact> 0.27538300E+03</totfact>
</mgrwt>
</event>
<event>
 8    1  0.3400573E-004  0.1242308E+03  0.7546771E-02  0.1236746E+00
         -1   -1    0    0    0  501 -0.00000000000E+00  0.00000000000E+00  0.10872811599E+02  0.10872811599E+02  0.00000000000E+00 0.  1.
          1   -1    0    0  501    0  0.00000000000E+00 -0.00000000000E+00 -0.14517578204E+04  0.14517578204E+04  0.00000000000E+00 0. -1.
         23    2    1    2    0    0 -0.70638946066E+02  0.42660798223E+02 -0.59385223241E+03  0.60670731182E+03  0.92862715169E+02 0.  0.
         23    2    1    2    0    0  0.70638946066E+02 -0.42660798223E+02 -0.84703277637E+03  0.85592332016E+03  0.91271032328E+02 0.  0.
          5    1    3    3  502    0  0.11193295575E+02  0.40374224543E+02 -0.21153472020E+03  0.21569514534E+03  0.47000000000E+01 0. -1.
         -5    1    3    3    0  502 -0.81832241641E+02  0.22865736802E+01 -0.38231751221E+03  0.39101216648E+03  0.47000000000E+01 0.  1.
          5    1    4    4  503    0  0.91778724915E+02 -0.25870760809E+02 -0.67633271737E+03  0.68303782120E+03  0.47000000000E+01 0. -1.
         -5    1    4    4    0  503 -0.21139778849E+02 -0.16790037414E+02 -0.17070005900E+03  0.17288549896E+03  0.47000000000E+01 0.  1.
<mgrwt>
<rscale>  0 0.12393341E+03</rscale>
<asrwt>0</asrwt>
<pdfrwt beam="1">  1        1 0.22334732E+00 0.12423079E+03</pdfrwt>
<pdfrwt beam="2">  1       -1 0.16727405E-02 0.12423079E+03</pdfrwt>
<totfact> 0.66886498E+03</totfact>
</mgrwt>
</event>
<event>
 8    1  0.3400573E-004  0.9483499E+02  0.7546771E-02  0.1300199E+00
         -3   -1    0    0    0  501 -0.00000000000E+00  0.00000000000E+00  0.34797124411E+03  0.34797124411E+03  0.00000000000E+00 0.  1.
          3   -1    0    0  501    0  0.00000000000E+00 -0.00000000000E+00 -0.22926768443E+02  0.22926768443E+02  0.00000000000E+00 0. -1.
         23    2    1    2    0    0 -0.25862803251E+02 -0.17821931211E+01  0.11602683139E+03  0.14137230191E+03  0.76497328974E+02 0.  0.
         23    2    1    2    0    0  0.25862803251E+02  0.17821931211E+01  0.20901764428E+03  0.22952571064E+03  0.91222888700E+02 0.  0.
          5    1    3    3  502    0  0.11418373287E+02 -0.25064811014E+02  0.16448552235E+02  0.32423276675E+02  0.47000000000E+01 0. -1.
         -5    1    4    4    0  503 -0.32189933135E+02 -0.57453984955E+01  0.10500803694E+03  0.11008169340E+03  0.47000000000E+01 0.  1.
          5    1    4    4  503    0  0.58052736386E+02  0.75275916166E+01  0.10400960733E+03  0.11944401724E+03  0.47000000000E+01 0. -1.
         -5    1    3    3    0  502 -0.37281176538E+02  0.23282617893E+02  0.99578279151E+02  0.10894902523E+03  0.47000000000E+01 0.  1.
<mgrwt>
<rscale>  0 0.91104515E+02</rscale>
<asrwt>0</asrwt>
<pdfrwt beam="1">  1        3 0.35271954E-02 0.94834995E+02</pdfrwt>
<pdfrwt beam="2">  1       -3 0.53534034E-01 0.94834995E+02</pdfrwt>
<totfact> 0.29341739E+03</totfact>
</mgrwt>
</event>
<event>
 8    1  0.3400573E-004  0.1000133E+03  0.7546771E-02  0.1281707E+00
         -1   -1    0    0    0  501 -0.00000000000E+00  0.00000000000E+00  0.52260196141E+02  0.52260196141E+02  0.00000000000E+00 0.  1.
          1   -1    0    0  501    0  0.00000000000E+00 -0.00000000000E+00 -0.23025085534E+03  0.23025085534E+03  0.00000000000E+00 0. -1.
         23    2    1    2    0    0  0.39716432939E+02 -0.19063431395E+02 -0.28251491320E+02  0.10392694965E+03  0.89787831247E+02 0.  0.
         23    2    1    2    0    0 -0.39716432939E+02  0.19063431395E+02 -0.14973916788E+03  0.17858410183E+03  0.86773576434E+02 0.  0.
          5    1    4    4  502    0 -0.36990120624E+02 -0.28111926380E+02 -0.96750861145E+02  0.10743076171E+03  0.47000000000E+01 0. -1.
         -5    1    4    4    0  502 -0.27263123145E+01  0.47175357775E+02 -0.52988306734E+02  0.71153340122E+02  0.47000000000E+01 0.  1.
          5    1    3    3  503    0 -0.19841056142E+02  0.90787454159E+01 -0.30565288901E+02  0.37847298619E+02  0.47000000000E+01 0. -1.
         -5    1    3    3    0  503  0.59557489081E+02 -0.28142176811E+02  0.23137975813E+01  0.66079651032E+02  0.47000000000E+01 0.  1.
<mgrwt>
<rscale>  0 0.99332138E+02</rscale>
<asrwt>0</asrwt>
<pdfrwt beam="1">  1        1 0.35423209E-01 0.10001332E+03</pdfrwt>
<pdfrwt beam="2">  1       -1 0.80400302E-02 0.10001332E+03</pdfrwt>
<totfact> 0.96443886E+03</totfact>
</mgrwt>
</event>
<event>
 8    1  0.3400573E-004  0.1317739E+03  0.7546771E-02  0.1225253E+00
          1   -1    0    0  501    0  0.00000000000E+00  0.00000000000E+00  0.43333473023E+03  0.43333473023E+03  0.00000000000E+00 0. -1.
         -1   -1    0    0    0  501 -0.00000000000E+00 -0.00000000000E+00 -0.45840771053E+02  0.45840771053E+02  0.00000000000E+00 0.  1.
         23    2    1    2    0    0  0.85769404264E+02  0.32000953012E+02  0.28189568650E+03  0.31117443550E+03  0.94783434958E+02 0.  0.
         23    2    1    2    0    0 -0.85769404264E+02 -0.32000953012E+02  0.10559827268E+03  0.16800106578E+03  0.93235782880E+02 0.  0.
          5    1    3    3  502    0  0.10461457472E+03  0.14671228132E+02  0.22675054978E+03  0.25019463625E+03  0.47000000000E+01 0. -1.
         -5    1    4    4    0  503 -0.55573105150E+02 -0.23101939761E+02  0.28482459880E+01  0.60434031323E+02  0.47000000000E+01 0.  1.
          5    1    4    4  503    0 -0.30196299114E+02 -0.88990132504E+01  0.10275002669E+03  0.10756703446E+03  0.47000000000E+01 0. -1.
         -5    1    3    3    0  502 -0.18845170459E+02  0.17329724880E+02  0.55145136715E+02  0.60979799256E+02  0.47000000000E+01 0.  1.
<mgrwt>
<rscale>  0 0.13149579E+03</rscale>
<asrwt>0</asrwt>
<pdfrwt beam="1">  1        1 0.66666879E-01 0.13177386E+03</pdfrwt>
<pdfrwt beam="2">  1       -1 0.70524266E-02 0.13177386E+03</pdfrwt>
<totfact> 0.54697613E+03</totfact>
</mgrwt>
</event>
<event>
 8    1  0.3400573E-004  0.1588599E+03  0.7546771E-02  0.1190808E+00
          4   -1    0    0  501    0  0.00000000000E+00  0.00000000000E+00  0.36769543380E+03  0.36769543380E+03  0.00000000000E+00 0. -1.
         -4   -1    0    0    0  501 -0.00000000000E+00 -0.00000000000E+00 -0.38795405054E+03  0.38795405054E+03  0.00000000000E+00 0.  1.
         23    2    1    2    0    0 -0.31201978320E+02  0.12416397398E+03 -0.35357700825E+03  0.38762504679E+03  0.94054347288E+02 0.  0.
         23    2    1    2    0    0  0.31201978320E+02 -0.12416397398E+03  0.33331839151E+03  0.36802443756E+03  0.89166028471E+02 0.  0.
          5    1    4    4  502    0  0.55312467549E+02 -0.11841833148E+03  0.28040260603E+03  0.30940278241E+03  0.47000000000E+01 0. -1.
         -5    1    3    3    0  503  0.31901524781E+02  0.51112384152E+02 -0.10877947664E+03  0.12443973495E+03  0.47000000000E+01 0.  1.
          5    1    3    3  503    0 -0.63103503101E+02  0.73051589832E+02 -0.24479753162E+03  0.26318531184E+03  0.47000000000E+01 0. -1.
         -5    1    4    4    0  502 -0.24110489230E+02 -0.57456425033E+01  0.52915785488E+02  0.58621655150E+02  0.47000000000E+01 0.  1.
<mgrwt>
<rscale>  0 0.15814399E+03</rscale>
<asrwt>0</asrwt>
<pdfrwt beam="1">  1        4 0.56568528E-01 0.15885993E+03</pdfrwt>
<pdfrwt beam="2">  1       -4 0.59685238E-01 0.15885993E+03</pdfrwt>
<totfact> 0.13961356E+01</totfact>
</mgrwt>
</event>
<event>
 8    1  0.3400573E-004  0.1028958E+03  0.7546771E-02  0.1280257E+00
          1   -1    0    0  501    0  0.00000000000E+00  0.00000000000E+00  0.15938783726E+03  0.15938783726E+03  0.00000000000E+00 0. -1.
         -1   -1    0    0    0  501 -0.00000000000E+00 -0.00000000000E+00 -0.10080131603E+03  0.10080131603E+03  0.00000000000E+00 0.  1.
         23    2    1    2    0    0  0.57518200007E+01 -0.32316415826E+02 -0.52928601388E+02  0.11571078083E+03  0.97519812294E+02 0.  0.
         23    2    1    2    0    0 -0.57518200007E+01  0.32316415826E+02  0.11151512262E+03  0.14447837246E+03  0.85795940300E+02 0.  0.
          5    1    4    4  502    0 -0.31093814414E+02  0.50528206220E+02  0.81567473657E+02  0.10097161818E+03  0.47000000000E+01 0. -1.
         -5    1    4    4    0  502  0.25341994413E+02 -0.18211790394E+02  0.29947648961E+02  0.43506754286E+02  0.47000000000E+01 0.  1.
          5    1    3    3  503    0 -0.11152521433E+02 -0.18864070145E+02  0.25660907534E+02  0.34070574580E+02  0.47000000000E+01 0. -1.
         -5    1    3    3    0  503  0.16904341434E+02 -0.13452345682E+02 -0.78589508923E+02  0.81640206249E+02  0.47000000000E+01 0.  1.
<mgrwt>
<rscale>  0 0.10001857E+03</rscale>
<asrwt>0</asrwt>
<pdfrwt beam="1">  1        1 0.24521206E-01 0.10289581E+03</pdfrwt>
<pdfrwt beam="2">  1       -1 0.15507895E-01 0.10289581E+03</pdfrwt>
<totfact> 0.55873772E+03</totfact>
</mgrwt>
</event>
<event>
 8    1  0.3400573E-004  0.9564707E+02  0.7546771E-02  0.1302576E+00
          2   -1    0    0  501    0  0.00000000000E+00  0.00000000000E+00  0.77199465813E+03  0.77199465813E+03  0.00000000000E+00 0. -1.
         -2   -1    0    0    0  501 -0.00000000000E+00 -0.00000000000E+00 -0.11689072346E+02  0.11689072346E+02  0.00000000000E+00 0.  1.
         23    2    1    2    0    0  0.14824784456E+02  0.24022813327E+02  0.24694713948E+03  0.26482305813E+03  0.91386501319E+02 0.  0.
         23    2    1    2    0    0 -0.14824784456E+02 -0.24022813327E+02  0.51335844631E+03  0.51886067235E+03  0.69875840786E+02 0.  0.
          5    1    4    4  502    0 -0.39826958360E+02 -0.16179866327E+02  0.40403105512E+03  0.40633872347E+03  0.47000000000E+01 0. -1.
         -5    1    3    3    0  503  0.24416554603E+02 -0.27065075127E+02  0.15299117887E+03  0.15734381857E+03  0.47000000000E+01 0.  1.
          5    1    3    3  503    0 -0.95917701468E+01  0.51087888454E+02  0.93955960613E+02  0.10747923956E+03  0.47000000000E+01 0. -1.
         -5    1    4    4    0  502  0.25002173904E+02 -0.78429470000E+01  0.10932739119E+03  0.11252194889E+03  0.47000000000E+01 0.  1.
<mgrwt>
<rscale>  0 0.90114059E+02</rscale>
<asrwt>0</asrwt>
<pdfrwt beam="1">  1        2 0.11876837E+00 0.95647072E+02</pdfrwt>
<pdfrwt beam="2">  1       -2 0.17983194E-02 0.95647072E+02</pdfrwt>
<totfact> 0.30549405E+04</totfact>
</mgrwt>
</event>
<event>
 8    1  0.3400573E-004  0.9901241E+02  0.7546771E-02  0.1283803E+00
          1   -1    0    0  501    0  0.00000000000E+00  0.00000000000E+00  0.64384290531E+03  0.64384290531E+03  0.00000000000E+00 0. -1.
         -1   -1    0    0    0  501 -0.00000000000E+00 -0.00000000000E+00 -0.14841910267E+02  0.14841910267E+02  0.00000000000E+00 0.  1.
         23    2    1    2    0    0  0.31630890365E+02 -0.52608946290E+01  0.29953870740E+03  0.31466612892E+03  0.90901843883E+02 0.  0.
         23    2    1    2    0    0 -0.31630890365E+02  0.52608946290E+01  0.32946228765E+03  0.34401868666E+03  0.93676398052E+02 0.  0.
          5    1    3    3  502    0 -0.22204306489E+02  0.12643628485E+02  0.18441172023E+03  0.18623282505E+03  0.47000000000E+01 0. -1.
         -5    1    4    4    0  503  0.19018156993E+02  0.18537565479E+02  0.22946501670E+03  0.23104461802E+03  0.47000000000E+01 0. -1.
          5    1    4    4  503    0 -0.50649047358E+02 -0.13276670850E+02  0.99997270951E+02  0.11297406864E+03  0.47000000000E+01 0.  1.
         -5    1    3    3    0  502  0.53835196854E+02 -0.17904523114E+02  0.11512698717E+03  0.12843330387E+03  0.47000000000E+01 0.  1.
<mgrwt>
<rscale>  0 0.98350597E+02</rscale>
<asrwt>0</asrwt>
<pdfrwt beam="1">  1        1 0.99052733E-01 0.99012412E+02</pdfrwt>
<pdfrwt beam="2">  1       -1 0.22833713E-02 0.99012412E+02</pdfrwt>
<totfact> 0.16577359E+04</totfact>
</mgrwt>
</event>
<event>
 8    1  0.3400573E-004  0.1235895E+03  0.7546771E-02  0.1244123E+00
          2   -1    0    0  501    0  0.00000000000E+00  0.00000000000E+00  0.36281457881E+03  0.36281457881E+03  0.00000000000E+00 0. -1.
         -2   -1    0    0    0  501 -0.00000000000E+00 -0.00000000000E+00 -0.41620785765E+02  0.41620785765E+02  0.00000000000E+00 0.  1.
         23    2    1    2    0    0 -0.28866476187E+02 -0.49458965378E+02  0.23891462314E+03  0.26898804438E+03  0.10952126808E+03 0.  0.
         23    2    1    2    0    0  0.28866476187E+02  0.49458965378E+02  0.82279169901E+02  0.13544732020E+03  0.91085959649E+02 0.  0.
          5    1    3    3  502    0 -0.49757180481E+02 -0.27161788310E+02  0.22983330464E+03  0.23676777161E+03  0.47000000000E+01 0. -1.
         -5    1    3    3    0  502  0.20890704293E+02 -0.22297177068E+02  0.90813185024E+01  0.32220272761E+02  0.47000000000E+01 0.  1.
          5    1    4    4  503    0 -0.10688383625E+02  0.23046117102E+02  0.83735716042E+02  0.87630617931E+02  0.47000000000E+01 0. -1.
         -5    1    4    4    0  503  0.39554859813E+02  0.26412848276E+02 -0.14565461410E+01  0.47816702265E+02  0.47000000000E+01 0.  1.
<mgrwt>
<rscale>  0 0.11938001E+03</rscale>
<asrwt>0</asrwt>
<pdfrwt beam="1">  1        2 0.55817625E-01 0.12358953E+03</pdfrwt>
<pdfrwt beam="2">  1       -2 0.64031981E-02 0.12358953E+03</pdfrwt>
<totfact> 0.11170758E+04</totfact>
</mgrwt>
</event>
<event>
 8    1  0.3400573E-004  0.9376662E+02  0.7546771E-02  0.1294429E+00
         -2   -1    0    0    0  501 -0.00000000000E+00  0.00000000000E+00  0.87573019974E+02  0.87573019974E+02  0.00000000000E+00 0.  1.
          2   -1    0    0  501    0  0.00000000000E+00 -0.00000000000E+00 -0.11647920823E+03  0.11647920823E+03  0.00000000000E+00 0. -1.
         23    2    1    2    0    0  0.15611177089E+02 -0.13403232223E+02  0.24377958976E+02  0.96883767960E+02  0.91481277463E+02 0.  0.
         23    2    1    2    0    0 -0.15611177089E+02  0.13403232223E+02 -0.53284147235E+02  0.10716846025E+03  0.90678128790E+02 0.  0.
          5    1    4    4  502    0 -0.34734522464E+02  0.26714480335E+01 -0.70578254701E+02  0.78847978554E+02  0.47000000000E+01 0. -1.
         -5    1    3    3    0  503 -0.30215092614E+00 -0.36725174179E+02  0.47403152582E+02  0.60149634981E+02  0.47000000000E+01 0.  1.
          5    1    3    3  503    0  0.15913328015E+02  0.23321941956E+02 -0.23025193606E+02  0.36734132979E+02  0.47000000000E+01 0. -1.
         -5    1    4    4    0  502  0.19123345375E+02  0.10731784189E+02  0.17294107466E+02  0.28320481692E+02  0.47000000000E+01 0.  1.
<mgrwt>
<rscale>  0 0.93570155E+02</rscale>
<asrwt>0</asrwt>
<pdfrwt beam="1">  1        2 0.17919878E-01 0.93766623E+02</pdfrwt>
<pdfrwt beam="2">  1       -2 0.13472772E-01 0.93766623E+02</pdfrwt>
<totfact> 0.11690248E+04</totfact>
</mgrwt>
</event>
<event>
 8    1  0.3400573E-004  0.9393050E+02  0.7546771E-02  0.1295675E+00
         -1   -1    0    0    0  501 -0.00000000000E+00  0.00000000000E+00  0.16043212734E+02  0.16043212734E+02  0.00000000000E+00 0.  1.
          1   -1    0    0  501    0  0.00000000000E+00 -0.00000000000E+00 -0.55261715493E+03  0.55261715493E+03  0.00000000000E+00 0. -1.
         23    2    1    2    0    0  0.16130046430E+02 -0.83576407247E+01 -0.21492564488E+03  0.23455483577E+03  0.92156983453E+02 0.  0.
         23    2    1    2    0    0 -0.16130046430E+02  0.83576407247E+01 -0.32164829731E+03  0.33410553189E+03  0.88537284349E+02 0.  0.
          5    1    4    4  502    0 -0.95061989274E+01 -0.25676886625E+02 -0.27172373077E+03  0.27314015851E+03  0.47000000000E+01 0. -1.
         -5    1    4    4    0  502 -0.66238475030E+01  0.34034527349E+02 -0.49924566544E+02  0.60965373387E+02  0.47000000000E+01 0.  1.
          5    1    3    3  503    0 -0.27484519556E+02 -0.25828836301E+02 -0.14696919992E+03  0.15180435872E+03  0.47000000000E+01 0. -1.
         -5    1    3    3    0  503  0.43614565986E+02  0.17471195576E+02 -0.67956444963E+02  0.82750477057E+02  0.47000000000E+01 0.  1.
<mgrwt>
<rscale>  0 0.93030482E+02</rscale>
<asrwt>0</asrwt>
<pdfrwt beam="1">  1        1 0.85018022E-01 0.93930496E+02</pdfrwt>
<pdfrwt beam="2">  1       -1 0.24681866E-02 0.93930496E+02</pdfrwt>
<totfact> 0.18111702E+04</totfact>
</mgrwt>
</event>
<event>
 7    1  0.3400573E-004  0.1609909E+03  0.7546771E-02  0.1204449E+00
          3   -1    0    0  501    0  0.00000000000E+00  0.00000000000E+00  0.51542308959E+03  0.51542308959E+03  0.00000000000E+00 0. -1.
         -3   -1    0    0    0  501 -0.00000000000E+00 -0.00000000000E+00 -0.39736501330E+02  0.39736501330E+02  0.00000000000E+00 0.  1.
         23    2    1    2    0    0  0.20535705186E+01 -0.52447611762E+02  0.28274521806E+03  0.30387402144E+03  0.98181431213E+02 0.  0.
          5    1    3    3  502    0 -0.45436108593E+02 -0.30582632472E+02  0.10472195168E+03  0.11827305076E+03  0.47000000000E+01 0. -1.
         -5    1    1    2    0  503  0.50250709454E+02  0.81598198454E+02  0.14754281927E+03  0.17599537866E+03  0.47000000000E+01 0.  1.
          5    1    1    2  503    0 -0.52304279972E+02 -0.29150586692E+02  0.45398550923E+02  0.75290190821E+02  0.47000000000E+01 0. -1.
         -5    1    3    3    0  502  0.47489679111E+02 -0.21864979290E+02  0.17802326638E+03  0.18560097067E+03  0.47000000000E+01 0.  1.
<mgrwt>
<rscale>  0 0.14680974E+03</rscale>
<asrwt>0</asrwt>
<pdfrwt beam="1">  1        3 0.79295855E-01 0.16099089E+03</pdfrwt>
<pdfrwt beam="2">  1       -3 0.61133083E-02 0.16099089E+03</pdfrwt>
<totfact> 0.59685012E+02</totfact>
</mgrwt>
</event>
<event>
 8    1  0.3400573E-004  0.1032394E+03  0.7546771E-02  0.1275002E+00
         -1   -1    0    0    0  501 -0.00000000000E+00  0.00000000000E+00  0.90595291785E+02  0.90595291785E+02  0.00000000000E+00 0.  1.
          1   -1    0    0  501    0  0.00000000000E+00 -0.00000000000E+00 -0.13633001371E+03  0.13633001371E+03  0.00000000000E+00 0. -1.
         23    2    1    2    0    0  0.44528034738E+02 -0.52838113136E+01 -0.67906110683E+02  0.12133203579E+03  0.89997547191E+02 0.  0.
         23    2    1    2    0    0 -0.44528034738E+02  0.52838113136E+01  0.22171388754E+02  0.10559326971E+03  0.92993029790E+02 0.  0.
          5    1    3    3  502    0 -0.16895551121E+02 -0.29103524903E+02 -0.17324698531E+02  0.38140660569E+02  0.47000000000E+01 0. -1.
         -5    1    4    4    0  503  0.12179980362E+02 -0.23313714627E+02  0.31414824478E+02  0.41241513167E+02  0.47000000000E+01 0.  1.
          5    1    4    4  503    0 -0.56708015100E+02  0.28597525941E+02 -0.92434357232E+01  0.64351756545E+02  0.47000000000E+01 0. -1.
         -5    1    3    3    0  502  0.61423585859E+02  0.23819713590E+02 -0.50581412153E+02  0.83191375217E+02  0.47000000000E+01 0.  1.
<mgrwt>
<rscale>  0 0.10256026E+03</rscale>
<asrwt>0</asrwt>
<pdfrwt beam="1">  1        1 0.20973848E-01 0.10323937E+03</pdfrwt>
<pdfrwt beam="2">  1       -1 0.13937737E-01 0.10323937E+03</pdfrwt>
<totfact> 0.80213774E+03</totfact>
</mgrwt>
</event>
<event>
 8    1  0.3400573E-004  0.1168214E+03  0.7546771E-02  0.1249922E+00
         -2   -1    0    0    0  501 -0.00000000000E+00  0.00000000000E+00  0.20078580054E+02  0.20078580054E+02  0.00000000000E+00 0.  1.
          2   -1    0    0  501    0  0.00000000000E+00 -0.00000000000E+00 -0.66501712606E+03  0.66501712606E+03  0.00000000000E+00 0. -1.
         23    2    1    2    0    0 -0.27383571168E+01 -0.67608778660E+02 -0.29723051931E+03  0.31936376114E+03  0.95230167324E+02 0.  0.
         23    2    1    2    0    0  0.27383571168E+01  0.67608778660E+02 -0.34770802669E+03  0.36573194497E+03  0.90997462573E+02 0.  0.
          5    1    3    3  502    0  0.13323380758E+02  0.20833903338E+02 -0.89441780081E+02  0.92916554107E+02  0.47000000000E+01 0. -1.
         -5    1    3    3    0  502 -0.16061737874E+02 -0.88442681998E+02 -0.20778873923E+03  0.22644720704E+03  0.47000000000E+01 0.  1.
          5    1    4    4  503    0  0.39005157963E+02  0.64962547568E+01 -0.91070567361E+02  0.99395884790E+02  0.47000000000E+01 0. -1.
         -5    1    4    4    0  503 -0.36266800846E+02  0.61112523904E+02 -0.25663745933E+03  0.26633606018E+03  0.47000000000E+01 0.  1.
<mgrwt>
<rscale>  0 0.11595581E+03</rscale>
<asrwt>0</asrwt>
<pdfrwt beam="1">  1        2 0.10231033E+00 0.11682136E+03</pdfrwt>
<pdfrwt beam="2">  1       -2 0.30890121E-02 0.11682136E+03</pdfrwt>
<totfact> 0.16948774E+04</totfact>
</mgrwt>
</event>
<event>
 8    1  0.3400573E-004  0.1070341E+03  0.7546771E-02  0.1266864E+00
          1   -1    0    0  501    0  0.00000000000E+00  0.00000000000E+00  0.33366513099E+03  0.33366513099E+03  0.00000000000E+00 0. -1.
         -1   -1    0    0    0  501 -0.00000000000E+00 -0.00000000000E+00 -0.48562540254E+02  0.48562540254E+02  0.00000000000E+00 0.  1.
         23    2    1    2    0    0 -0.51400317675E+02  0.14614576593E+02  0.38114602961E+02  0.11361783169E+03  0.92740014084E+02 0.  0.
         23    2    1    2    0    0  0.51400317675E+02 -0.14614576593E+02  0.24698798778E+03  0.26860983956E+03  0.91063721073E+02 0.  0.
          5    1    4    4  502    0  0.29917444283E+02  0.32558722574E+02  0.16971275501E+03  0.17544125257E+03  0.47000000000E+01 0. -1.
         -5    1    4    4    0  502  0.21482873392E+02 -0.47173299167E+02  0.77275232768E+02  0.93168586996E+02  0.47000000000E+01 0.  1.
          5    1    3    3  503    0  0.24533693820E+02  0.12263935363E+02 -0.13870828989E+01  0.27862523970E+02  0.47000000000E+01 0. -1.
         -5    1    3    3    0  503 -0.75934011494E+02  0.23506412304E+01  0.39501685860E+02  0.85755307717E+02  0.47000000000E+01 0.  1.
<mgrwt>
<rscale>  0 0.10666992E+03</rscale>
<asrwt>0</asrwt>
<pdfrwt beam="1">  1        1 0.51333096E-01 0.10703405E+03</pdfrwt>
<pdfrwt beam="2">  1       -1 0.74711603E-02 0.10703405E+03</pdfrwt>
<totfact> 0.68649311E+03</totfact>
</mgrwt>
</event>
<event>
 8    1  0.3400573E-004  0.1650254E+03  0.7546771E-02  0.1190531E+00
         -1   -1    0    0    0  501 -0.00000000000E+00  0.00000000000E+00  0.10219263470E+03  0.10219263470E+03  0.00000000000E+00 0.  1.
          1   -1    0    0  501    0  0.00000000000E+00 -0.00000000000E+00 -0.51898079710E+03  0.51898079710E+03  0.00000000000E+00 0. -1.
         23    2    1    2    0    0  0.35756810490E+02  0.10037138173E+03 -0.44824394297E+03  0.47765679113E+03  0.12601751439E+03 0.  0.
         23    2    1    2    0    0 -0.35756810490E+02 -0.10037138173E+03  0.31455780569E+02  0.14351664067E+03  0.90854808631E+02 0.  0.
          5    1    4    4  502    0  0.11539784409E+02 -0.81880772584E+02 -0.14260905629E+01  0.82835688429E+02  0.47000000000E+01 0. -1.
         -5    1    4    4    0  502 -0.47296594899E+02 -0.18490609142E+02  0.32881871132E+02  0.60680952239E+02  0.47000000000E+01 0.  1.
          5    1    3    3  503    0  0.75227752017E+02  0.99220570018E+02 -0.35712207785E+03  0.37823564702E+03  0.47000000000E+01 0. -1.
         -5    1    3    3    0  503 -0.39470941527E+02  0.11508117079E+01 -0.91121865127E+02  0.99421144113E+02  0.47000000000E+01 0.  1.
<mgrwt>
<rscale>  0 0.15838572E+03</rscale>
<asrwt>0</asrwt>
<pdfrwt beam="1">  1        1 0.79843200E-01 0.16502539E+03</pdfrwt>
<pdfrwt beam="2">  1       -1 0.15721944E-01 0.16502539E+03</pdfrwt>
<totfact> 0.12739814E+03</totfact>
</mgrwt>
</event>
<event>
 8    1  0.3400573E-004  0.9148791E+02  0.7546771E-02  0.1299559E+00
         -3   -1    0    0    0  501 -0.00000000000E+00  0.00000000000E+00  0.50483692954E+02  0.50483692954E+02  0.00000000000E+00 0.  1.
          3   -1    0    0  501    0  0.00000000000E+00 -0.00000000000E+00 -0.21475417424E+03  0.21475417424E+03  0.00000000000E+00 0. -1.
         23    2    1    2    0    0  0.12860767453E+02 -0.49173027922E+01 -0.18440757297E+02  0.93327909058E+02  0.90445883672E+02 0.  0.
         23    2    1    2    0    0 -0.12860767453E+02  0.49173027922E+01 -0.14582972399E+03  0.17190995814E+03  0.89984143614E+02 0.  0.
          5    1    3    3  502    0  0.13030868517E+02 -0.46342463548E+02 -0.16919982031E+01  0.48398143765E+02  0.47000000000E+01 0. -1.
         -5    1    3    3    0  502 -0.17010106363E+00  0.41425160756E+02 -0.16748759094E+02  0.44929765292E+02  0.47000000000E+01 0.  1.
          5    1    4    4  503    0 -0.44187718201E+02  0.12744535951E+02 -0.12480818116E+03  0.13309451424E+03  0.47000000000E+01 0. -1.
         -5    1    4    4    0  503  0.31326950748E+02 -0.78272331584E+01 -0.21021542832E+02  0.38815443900E+02  0.47000000000E+01 0.  1.
<mgrwt>
<rscale>  0 0.91373579E+02</rscale>
<asrwt>0</asrwt>
<pdfrwt beam="1">  1        3 0.33039104E-01 0.91487907E+02</pdfrwt>
<pdfrwt beam="2">  1       -3 0.77667219E-02 0.91487907E+02</pdfrwt>
<totfact> 0.21322154E+03</totfact>
</mgrwt>
</event>
<event>
 8    1  0.3400573E-004  0.9974678E+02  0.7546771E-02  0.1280834E+00
          1   -1    0    0  501    0  0.00000000000E+00  0.00000000000E+00  0.10358457677E+03  0.10358457677E+03  0.00000000000E+00 0. -1.
         -1   -1    0    0    0  501 -0.00000000000E+00 -0.00000000000E+00 -0.10610681541E+03  0.10610681541E+03  0.00000000000E+00 0.  1.
         23    2    1    2    0    0  0.18554208657E+02  0.33284671976E+02 -0.33550615931E+02  0.10523812982E+03  0.92180757703E+02 0.  0.
         23    2    1    2    0    0 -0.18554208657E+02 -0.33284671976E+02  0.31028377287E+02  0.10445326236E+03  0.92171556201E+02 0.  0.
          5    1    4    4  502    0 -0.16554617207E+02 -0.13185283333E+02  0.62842446041E+02  0.66476838612E+02  0.47000000000E+01 0. -1.
         -5    1    4    4    0  502 -0.19995914500E+01 -0.20099388643E+02 -0.31814068754E+02  0.37976423745E+02  0.47000000000E+01 0.  1.
          5    1    3    3  503    0 -0.31590355055E+02 -0.98319034827E+01 -0.12470193124E+02  0.35668089032E+02  0.47000000000E+01 0. -1.
         -5    1    3    3    0  503  0.50144563712E+02  0.43116575459E+02 -0.21080422807E+02  0.69570040785E+02  0.47000000000E+01 0.  1.
<mgrwt>
<rscale>  0 0.99744654E+02</rscale>
<asrwt>0</asrwt>
<pdfrwt beam="1">  1        1 0.15936089E-01 0.99746780E+02</pdfrwt>
<pdfrwt beam="2">  1       -1 0.16324125E-01 0.99746780E+02</pdfrwt>
<totfact> 0.88584985E+03</totfact>
</mgrwt>
</event>
<event>
 8    1  0.3400573E-004  0.1175533E+03  0.7546771E-02  0.1247935E+00
         -1   -1    0    0    0  501 -0.00000000000E+00  0.00000000000E+00  0.20918570692E+03  0.20918570692E+03  0.00000000000E+00 0.  1.
          1   -1    0    0  501    0  0.00000000000E+00 -0.00000000000E+00 -0.82914569871E+02  0.82914569871E+02  0.00000000000E+00 0. -1.
         23    2    1    2    0    0 -0.36266192549E+02  0.61072066138E+02  0.13123719656E+03  0.17618737469E+03  0.93668325789E+02 0.  0.
         23    2    1    2    0    0  0.36266192549E+02 -0.61072066138E+02 -0.49660595145E+01  0.11591290210E+03  0.91466415371E+02 0.  0.
          5    1    4    4  502    0  0.11318372940E+02 -0.80433648307E+02  0.73481663777E+01  0.81693101882E+02  0.47000000000E+01 0. -1.
         -5    1    4    4    0  502  0.24947819609E+02  0.19361582169E+02 -0.12314225892E+02  0.34219800213E+02  0.47000000000E+01 0.  1.
          5    1    3    3  503    0 -0.13231870180E+02 -0.24328190349E+02  0.22849013479E+02  0.36209261952E+02  0.47000000000E+01 0. -1.
         -5    1    3    3    0  503 -0.23034322369E+02  0.85400256487E+02  0.10838818308E+03  0.13997811274E+03  0.47000000000E+01 0.  1.
<mgrwt>
<rscale>  0 0.11711417E+03</rscale>
<asrwt>0</asrwt>
<pdfrwt beam="1">  1        1 0.12756088E-01 0.11755335E+03</pdfrwt>
<pdfrwt beam="2">  1       -1 0.32182416E-01 0.11755335E+03</pdfrwt>
<totfact> 0.39771073E+03</totfact>
</mgrwt>
</event>
<event>
 8    1  0.3400573E-004  0.9742465E+02  0.7546771E-02  0.1287474E+00
          1   -1    0    0  501    0  0.00000000000E+00  0.00000000000E+00  0.26589431039E+03  0.26589431039E+03  0.00000000000E+00 0. -1.
         -1   -1    0    0    0  501 -0.00000000000E+00 -0.00000000000E+00 -0.43547151387E+02  0.43547151387E+02  0.00000000000E+00 0.  1.
         23    2    1    2    0    0  0.31430962020E+02  0.77575656448E+01  0.18267778049E+03  0.20703316888E+03  0.91888390647E+02 0.  0.
         23    2    1    2    0    0 -0.31430962020E+02 -0.77575656448E+01  0.39669378518E+02  0.10240829290E+03  0.88688858735E+02 0.  0.
          5    1    4    4  502    0 -0.17531237785E+02 -0.23162331501E+02  0.63787550435E+02  0.70247985660E+02  0.47000000000E+01 0. -1.
         -5    1    4    4    0  502 -0.13899724235E+02  0.15404765856E+02 -0.24118171917E+02  0.32160307236E+02  0.47000000000E+01 0.  1.
          5    1    3    3  503    0  0.34580014816E+02  0.42035481243E+02  0.68114667800E+02  0.87318137163E+02  0.47000000000E+01 0. -1.
         -5    1    3    3    0  503 -0.31490527956E+01 -0.34277915599E+02  0.11456311269E+03  0.11971503172E+03  0.47000000000E+01 0.  1.
<mgrwt>
<rscale>  0 0.96662824E+02</rscale>
<asrwt>0</asrwt>
<pdfrwt beam="1">  1        1 0.40906816E-01 0.97424645E+02</pdfrwt>
<pdfrwt beam="2">  1       -1 0.66995619E-02 0.97424645E+02</pdfrwt>
<totfact> 0.10587514E+04</totfact>
</mgrwt>
</event>
<event>
 8    1  0.3400573E-004  0.9553556E+02  0.7546771E-02  0.1291693E+00
          2   -1    0    0  501    0  0.00000000000E+00  0.00000000000E+00  0.12017769432E+03  0.12017769432E+03  0.00000000000E+00 0. -1.
         -2   -1    0    0    0  501 -0.00000000000E+00 -0.00000000000E+00 -0.91562495623E+02  0.91562495623E+02  0.00000000000E+00 0.  1.
         23    2    1    2    0    0 -0.15617033317E+02  0.84895442121E+01  0.61428905807E+02  0.11358060313E+03  0.93867347078E+02 0.  0.
         23    2    1    2    0    0  0.15617033317E+02 -0.84895442121E+01 -0.32813707106E+02  0.98159586819E+02  0.90788771442E+02 0.  0.
          5    1    4    4  502    0 -0.11301354533E+02 -0.37249404105E+02 -0.41980452105E+02  0.57442902777E+02  0.47000000000E+01 0. -1.
         -5    1    4    4    0  502  0.26918387850E+02  0.28759859893E+02  0.91667449996E+01  0.40716684042E+02  0.47000000000E+01 0.  1.
          5    1    3    3  503    0  0.26153825565E+02  0.23938196585E+02  0.58670529662E+02  0.68712305290E+02  0.47000000000E+01 0. -1.
         -5    1    3    3    0  503 -0.41770858882E+02 -0.15448652373E+02  0.27583761447E+01  0.44868297837E+02  0.47000000000E+01 0.  1.
<mgrwt>
<rscale>  0 0.94770660E+02</rscale>
<asrwt>0</asrwt>
<pdfrwt beam="1">  1        2 0.18488876E-01 0.95535559E+02</pdfrwt>
<pdfrwt beam="2">  1       -2 0.14086538E-01 0.95535559E+02</pdfrwt>
<totfact> 0.10523798E+04</totfact>
</mgrwt>
</event>
<event>
 8    1  0.3400573E-004  0.1067164E+03  0.7546771E-02  0.1267397E+00
          2   -1    0    0  501    0  0.00000000000E+00  0.00000000000E+00  0.23447856598E+03  0.23447856598E+03  0.00000000000E+00 0. -1.
         -2   -1    0    0    0  501 -0.00000000000E+00 -0.00000000000E+00 -0.10342852709E+03  0.10342852709E+03  0.00000000000E+00 0.  1.
         23    2    1    2    0    0 -0.53987282399E+02 -0.44908876187E+01 -0.57988791692E+02  0.12145402296E+03  0.91943379307E+02 0.  0.
         23    2    1    2    0    0  0.53987282399E+02  0.44908876187E+01  0.18903883058E+03  0.21645307011E+03  0.90451408832E+02 0.  0.
          5    1    4    4  502    0  0.52451289469E+02 -0.17134564188E+02  0.18599178764E+03  0.19406124323E+03  0.47000000000E+01 0. -1.
         -5    1    4    4    0  502  0.15359929302E+01  0.21625451807E+02  0.30470429439E+01  0.22391826876E+02  0.47000000000E+01 0.  1.
          5    1    3    3  503    0 -0.16897363323E+02  0.37094397718E+02 -0.19103227018E+00  0.41032203483E+02  0.47000000000E+01 0. -1.
         -5    1    3    3    0  503 -0.37089919076E+02 -0.41585285336E+02 -0.57797759422E+02  0.80421819476E+02  0.47000000000E+01 0.  1.
<mgrwt>
<rscale>  0 0.10639422E+03</rscale>
<asrwt>0</asrwt>
<pdfrwt beam="1">  1        2 0.36073626E-01 0.10671635E+03</pdfrwt>
<pdfrwt beam="2">  1       -2 0.15912081E-01 0.10671635E+03</pdfrwt>
<totfact> 0.42013255E+03</totfact>
</mgrwt>
</event>
<event>
 8    1  0.3400573E-004  0.1081703E+03  0.7546771E-02  0.1270516E+00
          2   -1    0    0  501    0  0.00000000000E+00  0.00000000000E+00  0.94550384114E+03  0.94550384114E+03  0.00000000000E+00 0. -1.
         -2   -1    0    0    0  501 -0.00000000000E+00 -0.00000000000E+00 -0.19700491501E+02  0.19700491501E+02  0.00000000000E+00 0.  1.
         23    2    1    2    0    0  0.33875393538E+02  0.86989469046E+01  0.12529900250E+03  0.15742465019E+03  0.88653632169E+02 0.  0.
         23    2    1    2    0    0 -0.33875393538E+02 -0.86989469046E+01  0.80050434714E+03  0.80777968245E+03  0.10236010756E+03 0.  0.
          5    1    4    4  502    0 -0.57211071425E+02 -0.35302547717E+02  0.62897496259E+03  0.63257487314E+03  0.47000000000E+01 0. -1.
         -5    1    4    4    0  502  0.23335677887E+02  0.26603600812E+02  0.17152938455E+03  0.17520480930E+03  0.47000000000E+01 0.  1.
          5    1    3    3  503    0  0.21689410650E+02  0.33209444988E+02  0.12326745644E+03  0.12957721091E+03  0.47000000000E+01 0. -1.
         -5    1    3    3    0  503  0.12185982888E+02 -0.24510498083E+02  0.20315460613E+01  0.27847439283E+02  0.47000000000E+01 0.  1.
<mgrwt>
<rscale>  0 0.10479913E+03</rscale>
<asrwt>0</asrwt>
<pdfrwt beam="1">  1        2 0.14546209E+00 0.10817026E+03</pdfrwt>
<pdfrwt beam="2">  1       -2 0.30308456E-02 0.10817026E+03</pdfrwt>
<totfact> 0.11225623E+04</totfact>
</mgrwt>
</event>
<event>
 8    1  0.3400573E-004  0.9536038E+02  0.7546771E-02  0.1292193E+00
         -1   -1    0    0    0  501 -0.00000000000E+00  0.00000000000E+00  0.59053571289E+02  0.59053571289E+02  0.00000000000E+00 0.  1.
          1   -1    0    0  501    0  0.00000000000E+00 -0.00000000000E+00 -0.18646784740E+03  0.18646784740E+03  0.00000000000E+00 0. -1.
         23    2    1    2    0    0  0.13704522527E+02 -0.83627795472E+01 -0.77182706332E+01  0.92483070819E+02  0.90751290168E+02 0.  0.
         23    2    1    2    0    0 -0.13704522527E+02  0.83627795472E+01 -0.11969600548E+03  0.15303834787E+03  0.93999213678E+02 0.  0.
          5    1    3    3  502    0 -0.21177562204E+02  0.21743571218E+02 -0.28332288093E+02  0.41786129024E+02  0.47000000000E+01 0. -1.
         -5    1    3    3    0  502  0.34882084731E+02 -0.30106350765E+02  0.20614017460E+02  0.50696941795E+02  0.47000000000E+01 0.  1.
          5    1    4    4  503    0  0.72395269486E+01  0.46096767022E+02 -0.37364231916E+02  0.59962475824E+02  0.47000000000E+01 0. -1.
         -5    1    4    4    0  503 -0.20944049476E+02 -0.37733987475E+02 -0.82331773565E+02  0.93075872048E+02  0.47000000000E+01 0.  1.
<mgrwt>
<rscale>  0 0.94550127E+02</rscale>
<asrwt>0</asrwt>
<pdfrwt beam="1">  1        1 0.28687360E-01 0.95360381E+02</pdfrwt>
<pdfrwt beam="2">  1       -1 0.90851651E-02 0.95360381E+02</pdfrwt>
<totfact> 0.10360657E+04</totfact>
</mgrwt>
</event>
<event>
 8    1  0.3400573E-004  0.1173214E+03  0.7546771E-02  0.1249383E+00
         -2   -1    0    0    0  501 -0.00000000000E+00  0.00000000000E+00  0.74157350765E+02  0.74157350765E+02  0.00000000000E+00 0.  1.
          2   -1    0    0  501    0  0.00000000000E+00 -0.00000000000E+00 -0.20050592950E+03  0.20050592950E+03  0.00000000000E+00 0. -1.
         23    2    1    2    0    0  0.29065579535E+01 -0.60783911202E+02 -0.10702829793E+03  0.15576169809E+03  0.95412358181E+02 0.  0.
         23    2    1    2    0    0 -0.29065579535E+01  0.60783911202E+02 -0.19320280804E+02  0.11890158217E+03  0.10030543880E+03 0.  0.
          5    1    4    4  502    0  0.38524542581E+02  0.22791002202E+02  0.20898015728E+02  0.49622446774E+02  0.47000000000E+01 0. -1.
         -5    1    4    4    0  502 -0.41431100534E+02  0.37992909000E+02 -0.40218296533E+02  0.69279135400E+02  0.47000000000E+01 0.  1.
          5    1    3    3  503    0  0.36500920380E+02 -0.47706840005E+02 -0.10280742403E+03  0.11916256211E+03  0.47000000000E+01 0. -1.
         -5    1    3    3    0  503 -0.33594362427E+02 -0.13077071197E+02 -0.42208738938E+01  0.36599135979E+02  0.47000000000E+01 0.  1.
<mgrwt>
<rscale>  0 0.11626859E+03</rscale>
<asrwt>0</asrwt>
<pdfrwt beam="1">  1        2 0.30847066E-01 0.11732141E+03</pdfrwt>
<pdfrwt beam="2">  1       -2 0.11408823E-01 0.11732141E+03</pdfrwt>
<totfact> 0.85348686E+03</totfact>
</mgrwt>
</event>
<event>
 8    1  0.3400573E-004  0.9474909E+02  0.7546771E-02  0.1293969E+00
          1   -1    0    0  501    0  0.00000000000E+00  0.00000000000E+00  0.40051330289E+03  0.40051330289E+03  0.00000000000E+00 0. -1.
         -1   -1    0    0    0  501 -0.00000000000E+00 -0.00000000000E+00 -0.85972818200E+02  0.85972818200E+02  0.00000000000E+00 0.  1.
         23    2    1    2    0    0 -0.20352125682E+02 -0.19593601236E+02 -0.54158127638E+02  0.10580770380E+03  0.86394728799E+02 0.  0.
         23    2    1    2    0    0  0.20352125682E+02  0.19593601236E+02  0.36869861233E+03  0.38067841729E+03  0.90439330113E+02 0.  0.
          5    1    3    3  502    0  0.19235812821E+02  0.14997042803E+02  0.62254179708E+01  0.25608077175E+02  0.47000000000E+01 0. -1.
         -5    1    4    4    0  503  0.43534614446E+02 -0.19650888888E+02  0.16190722880E+03  0.16887113675E+03  0.47000000000E+01 0.  1.
          5    1    4    4  503    0 -0.23182488764E+02  0.39244490124E+02  0.20679138353E+03  0.21180728054E+03  0.47000000000E+01 0. -1.
         -5    1    3    3    0  502 -0.39587938502E+02 -0.34590644039E+02 -0.60383545609E+02  0.80199626621E+02  0.47000000000E+01 0.  1.
<mgrwt>
<rscale>  0 0.93770892E+02</rscale>
<asrwt>0</asrwt>
<pdfrwt beam="1">  1        1 0.61617430E-01 0.94749093E+02</pdfrwt>
<pdfrwt beam="2">  1       -1 0.13226588E-01 0.94749093E+02</pdfrwt>
<totfact> 0.22895741E+03</totfact>
</mgrwt>
</event>
<event>
 7    1  0.3400573E-004  0.1805377E+03  0.7546771E-02  0.1176174E+00
         -1   -1    0    0    0  501 -0.00000000000E+00  0.00000000000E+00  0.10095191317E+04  0.10095191317E+04  0.00000000000E+00 0.  1.
          1   -1    0    0  501    0  0.00000000000E+00 -0.00000000000E+00 -0.26713995100E+02  0.26713995100E+02  0.00000000000E+00 0. -1.
         23    2    1    2    0    0  0.81014554467E+02  0.80403917653E+02  0.41355859600E+03  0.43904348176E+03  0.93275498079E+02 0.  0.
          5    1    1    2  502    0 -0.10185473050E+03 -0.10257731841E+03  0.51378527901E+03  0.53375452720E+03  0.47000000000E+01 0. -1.
         -5    1    3    3    0  503  0.42971321449E+02  0.81137396369E+02  0.36891006979E+03  0.38019276840E+03  0.47000000000E+01 0.  1.
          5    1    3    3  503    0  0.38043233018E+02 -0.73347871605E+00  0.44648526208E+02  0.58850713352E+02  0.47000000000E+01 0. -1.
         -5    1    1    2    0  502  0.20840176032E+02  0.22173400752E+02  0.55461261567E+02  0.63435117818E+02  0.47000000000E+01 0.  1.
<mgrwt>
<rscale>  0 0.17161471E+03</rscale>
<asrwt>0</asrwt>
<pdfrwt beam="1">  1        1 0.41098462E-02 0.18053766E+03</pdfrwt>
<pdfrwt beam="2">  1       -1 0.15531061E+00 0.18053766E+03</pdfrwt>
<totfact> 0.74965779E+02</totfact>
</mgrwt>
</event>
<event>
 8    1  0.3400573E-004  0.1512165E+03  0.7546771E-02  0.1199556E+00
          2   -1    0    0  501    0  0.00000000000E+00  0.00000000000E+00  0.10167662529E+03  0.10167662529E+03  0.00000000000E+00 0. -1.
         -2   -1    0    0    0  501 -0.00000000000E+00 -0.00000000000E+00 -0.23102469946E+03  0.23102469946E+03  0.00000000000E+00 0.  1.
         23    2    1    2    0    0 -0.72130878315E+02  0.97542521819E+02 -0.32420379248E+02  0.15465282859E+03  0.90271862905E+02 0.  0.
         23    2    1    2    0    0  0.72130878315E+02 -0.97542521819E+02 -0.96927694918E+02  0.17804849615E+03  0.87114188110E+02 0.  0.
          5    1    3    3  502    0 -0.39072619993E+02 -0.76906213792E+01 -0.15354961683E+02  0.42938096588E+02  0.47000000000E+01 0. -1.
         -5    1    4    4    0  503 -0.20064108595E+02 -0.18799526728E+02 -0.15353712826E+02  0.31840495544E+02  0.47000000000E+01 0.  1.
          5    1    4    4  503    0  0.92194986910E+02 -0.78742995090E+02 -0.81573982091E+02  0.14620800061E+03  0.47000000000E+01 0. -1.
         -5    1    3    3    0  502 -0.33058258323E+02  0.10523314320E+03 -0.17065417565E+02  0.11171473201E+03  0.47000000000E+01 0.  1.
<mgrwt>
<rscale>  0 0.15074840E+03</rscale>
<asrwt>0</asrwt>
<pdfrwt beam="1">  1        2 0.15642558E-01 0.15121646E+03</pdfrwt>
<pdfrwt beam="2">  1       -2 0.35542261E-01 0.15121646E+03</pdfrwt>
<totfact> 0.26823254E+03</totfact>
</mgrwt>
</event>
<event>
 8    1  0.3400573E-004  0.9221340E+02  0.7546771E-02  0.1298333E+00
         -2   -1    0    0    0  501 -0.00000000000E+00  0.00000000000E+00  0.30798436886E+02  0.30798436886E+02  0.00000000000E+00 0.  1.
          2   -1    0    0  501    0  0.00000000000E+00 -0.00000000000E+00 -0.32004429596E+03  0.32004429596E+03  0.00000000000E+00 0. -1.
         23    2    1    2    0    0  0.13091764561E+02  0.12391993136E+02 -0.21152973403E+03  0.23024792882E+03  0.89130940501E+02 0.  0.
         23    2    1    2    0    0 -0.13091764561E+02 -0.12391993136E+02 -0.77716125046E+02  0.12059480403E+03  0.90434257185E+02 0.  0.
          5    1    4    4  502    0  0.35650845601E+02  0.11112469489E+02 -0.27410023145E+02  0.46560381646E+02  0.47000000000E+01 0. -1.
         -5    1    3    3    0  503 -0.36710434684E+02 -0.45540278218E+01 -0.10316665724E+03  0.10969888035E+03  0.47000000000E+01 0.  1.
          5    1    3    3  503    0  0.49802199245E+02  0.16946020957E+02 -0.10836307679E+03  0.12054904847E+03  0.47000000000E+01 0. -1.
         -5    1    4    4    0  502 -0.48742610161E+02 -0.23504462625E+02 -0.50306101900E+02  0.74034422379E+02  0.47000000000E+01 0.  1.
<mgrwt>
<rscale>  0 0.91892270E+02</rscale>
<asrwt>0</asrwt>
<pdfrwt beam="1">  1        2 0.49237583E-01 0.92213397E+02</pdfrwt>
<pdfrwt beam="2">  1       -2 0.47382211E-02 0.92213397E+02</pdfrwt>
<totfact> 0.19503265E+04</totfact>
</mgrwt>
</event>
<event>
 8    1  0.3400573E-004  0.9332593E+02  0.7546771E-02  0.1295364E+00
         -2   -1    0    0    0  501 -0.00000000000E+00  0.00000000000E+00  0.30074372045E+03  0.30074372045E+03  0.00000000000E+00 0.  1.
          2   -1    0    0  501    0  0.00000000000E+00 -0.00000000000E+00 -0.60098233157E+02  0.60098233157E+02  0.00000000000E+00 0. -1.
         23    2    1    2    0    0 -0.82408259187E+01  0.35975412901E+01  0.25040528533E+03  0.26700708668E+03  0.92244912588E+02 0.  0.
         23    2    1    2    0    0  0.82408259187E+01 -0.35975412901E+01 -0.97597980415E+01  0.93834866927E+02  0.92891738482E+02 0.  0.
          5    1    4    4  502    0  0.24122692908E+02 -0.36406835460E+02 -0.28718220384E+02  0.52480359787E+02  0.47000000000E+01 0. -1.
         -5    1    3    3    0  503 -0.41184729102E+02  0.12823554003E+02  0.20721266925E+03  0.21170688639E+03  0.47000000000E+01 0.  1.
          5    1    3    3  503    0  0.32943903183E+02 -0.92260127124E+01  0.43192616083E+02  0.55300200286E+02  0.47000000000E+01 0. -1.
         -5    1    4    4    0  502 -0.15881866990E+02  0.32809294170E+02  0.18958422343E+02  0.41354507139E+02  0.47000000000E+01 0.  1.
<mgrwt>
<rscale>  0 0.93164560E+02</rscale>
<asrwt>0</asrwt>
<pdfrwt beam="1">  1        2 0.92458822E-02 0.93325927E+02</pdfrwt>
<pdfrwt beam="2">  1       -2 0.46268264E-01 0.93325927E+02</pdfrwt>
<totfact> 0.29675904E+03</totfact>
</mgrwt>
</event>
<event>
 8    1  0.3400573E-004  0.9304723E+02  0.7546771E-02  0.1295974E+00
         -2   -1    0    0    0  501 -0.00000000000E+00  0.00000000000E+00  0.34713517214E+02  0.34713517214E+02  0.00000000000E+00 0.  1.
          2   -1    0    0  501    0  0.00000000000E+00 -0.00000000000E+00 -0.45094751928E+03  0.45094751928E+03  0.00000000000E+00 0. -1.
         23    2    1    2    0    0 -0.14931097452E+02 -0.12112425161E+02 -0.45511867284E+02  0.10358144818E+03  0.91039210398E+02 0.  0.
         23    2    1    2    0    0  0.14931097452E+02  0.12112425161E+02 -0.37072213478E+03  0.38207958831E+03  0.90444801239E+02 0.  0.
          5    1    3    3  502    0  0.20753223687E+02 -0.27506186614E+02 -0.53325451283E+02  0.63663021842E+02  0.47000000000E+01 0. -1.
         -5    1    3    3    0  502 -0.35684321139E+02  0.15393761453E+02  0.78135839995E+01  0.39918426343E+02  0.47000000000E+01 0.  1.
          5    1    4    4  503    0  0.34995139061E+02 -0.45650867561E+01 -0.33843851138E+03  0.34030606189E+03  0.47000000000E+01 0. -1.
         -5    1    4    4    0  503 -0.20064041609E+02  0.16677511918E+02 -0.32283623401E+02  0.41773526417E+02  0.47000000000E+01 0.  1.
<mgrwt>
<rscale>  0 0.92901510E+02</rscale>
<asrwt>0</asrwt>
<pdfrwt beam="1">  1        2 0.69376538E-01 0.93047226E+02</pdfrwt>
<pdfrwt beam="2">  1       -2 0.53405414E-02 0.93047226E+02</pdfrwt>
<totfact> 0.11388199E+04</totfact>
</mgrwt>
</event>
<event>
 8    1  0.3400573E-004  0.9592311E+02  0.7546771E-02  0.1290156E+00
         -1   -1    0    0    0  501 -0.00000000000E+00  0.00000000000E+00  0.45509458584E+02  0.45509458584E+02  0.00000000000E+00 0.  1.
          1   -1    0    0  501    0  0.00000000000E+00 -0.00000000000E+00 -0.24703553633E+03  0.24703553633E+03  0.00000000000E+00 0. -1.
         23    2    1    2    0    0  0.15707102931E+02  0.23399414964E+02 -0.36575332316E+02  0.10265962654E+03  0.91689684724E+02 0.  0.
         23    2    1    2    0    0 -0.15707102931E+02 -0.23399414964E+02 -0.16495074544E+03  0.18988536838E+03  0.89741066411E+02 0.  0.
          5    1    4    4  502    0 -0.79503936765E+01 -0.49536078533E+02 -0.15042049483E+03  0.15863620993E+03  0.47000000000E+01 0. -1.
         -5    1    4    4    0  502 -0.77567092543E+01  0.26136663569E+02 -0.14530250606E+02  0.31249158447E+02  0.47000000000E+01 0.  1.
          5    1    3    3  503    0  0.17383769929E+02 -0.12187579194E+02 -0.57222859438E+02  0.61215016016E+02  0.47000000000E+01 0. -1.
         -5    1    3    3    0  503 -0.16766669980E+01  0.35586994158E+02  0.20647527122E+02  0.41444610527E+02  0.47000000000E+01 0.  1.
<mgrwt>
<rscale>  0 0.95454473E+02</rscale>
<asrwt>0</asrwt>
<pdfrwt beam="1">  1        1 0.38005467E-01 0.95923115E+02</pdfrwt>
<pdfrwt beam="2">  1       -1 0.70014552E-02 0.95923115E+02</pdfrwt>
<totfact> 0.10835383E+04</totfact>
</mgrwt>
</event>
<event>
 8    1  0.3400573E-004  0.1583476E+03  0.7546771E-02  0.1190611E+00
         -1   -1    0    0    0  501 -0.00000000000E+00  0.00000000000E+00  0.46361976028E+03  0.46361976028E+03  0.00000000000E+00 0.  1.
          1   -1    0    0  501    0  0.00000000000E+00 -0.00000000000E+00 -0.57343132956E+02  0.57343132956E+02  0.00000000000E+00 0. -1.
         23    2    1    2    0    0 -0.36791137248E+02 -0.12505556189E+03  0.26558059038E+03  0.30913902959E+03  0.89673899725E+02 0.  0.
         23    2    1    2    0    0  0.36791137248E+02  0.12505556189E+03  0.14069603694E+03  0.21182386364E+03  0.89897124858E+02 0.  0.
          5    1    3    3  502    0 -0.27311860502E+02 -0.17412564670E+02  0.14589046695E+02  0.35833858513E+02  0.47000000000E+01 0. -1.
         -5    1    4    4    0  503  0.11972953310E+02  0.18206740620E+02  0.86606735352E+02  0.89429601494E+02  0.47000000000E+01 0.  1.
          5    1    4    4  503    0  0.24818183938E+02  0.10684882127E+03  0.54089301590E+02  0.12239426215E+03  0.47000000000E+01 0. -1.
         -5    1    3    3    0  502 -0.94792767463E+01 -0.10764299722E+03  0.25099154369E+03  0.27330517108E+03  0.47000000000E+01 0.  1.
<mgrwt>
<rscale>  0 0.15831597E+03</rscale>
<asrwt>0</asrwt>
<pdfrwt beam="1">  1        1 0.88220208E-02 0.15834764E+03</pdfrwt>
<pdfrwt beam="2">  1       -1 0.71326114E-01 0.15834764E+03</pdfrwt>
<totfact> 0.15428872E+03</totfact>
</mgrwt>
</event>
<event>
 8    1  0.3400573E-004  0.9235360E+02  0.7546771E-02  0.1297461E+00
         -2   -1    0    0    0  501 -0.00000000000E+00  0.00000000000E+00  0.24935144156E+03  0.24935144156E+03  0.00000000000E+00 0.  1.
          2   -1    0    0  501    0  0.00000000000E+00 -0.00000000000E+00 -0.71682101537E+02  0.71682101537E+02  0.00000000000E+00 0. -1.
         23    2    1    2    0    0 -0.15408503319E+02  0.16157561610E+02  0.20502136944E+03  0.22471469739E+03  0.89243736604E+02 0.  0.
         23    2    1    2    0    0  0.15408503319E+02 -0.16157561610E+02 -0.27352029418E+02  0.96318845708E+02  0.89614160452E+02 0.  0.
          5    1    3    3  502    0  0.17388109520E+02  0.24164698564E+02  0.19070982274E+02  0.35666109603E+02  0.47000000000E+01 0. -1.
         -5    1    4    4    0  503 -0.21422655727E+02  0.19833104366E+01  0.22555577125E+02  0.31523130525E+02  0.47000000000E+01 0.  1.
          5    1    4    4  503    0  0.36831159046E+02 -0.18140872047E+02 -0.49907606543E+02  0.64795715183E+02  0.47000000000E+01 0. -1.
         -5    1    3    3    0  502 -0.32796612839E+02 -0.80071369534E+01  0.18595038717E+03  0.18904858779E+03  0.47000000000E+01 0.  1.
<mgrwt>
<rscale>  0 0.92263616E+02</rscale>
<asrwt>0</asrwt>
<pdfrwt beam="1">  1        2 0.11028016E-01 0.92353595E+02</pdfrwt>
<pdfrwt beam="2">  1       -2 0.38361760E-01 0.92353595E+02</pdfrwt>
<totfact> 0.34175516E+03</totfact>
</mgrwt>
</event>
<event>
 8    1  0.3400573E-004  0.1006098E+03  0.7546771E-02  0.1280740E+00
         -1   -1    0    0    0  501 -0.00000000000E+00  0.00000000000E+00  0.41359264289E+02  0.41359264289E+02  0.00000000000E+00 0.  1.
          1   -1    0    0  501    0  0.00000000000E+00 -0.00000000000E+00 -0.27509496061E+03  0.27509496061E+03  0.00000000000E+00 0. -1.
         23    2    1    2    0    0 -0.11563643470E+01  0.39782074555E+02 -0.17745338651E+03  0.20399029423E+03  0.92403382633E+02 0.  0.
         23    2    1    2    0    0  0.11563643470E+01 -0.39782074555E+02 -0.56282309818E+02  0.11246393067E+03  0.88862177948E+02 0.  0.
          5    1    3    3  502    0 -0.23917651263E+02 -0.15313020352E+02 -0.11065216417E+03  0.11433518300E+03  0.47000000000E+01 0. -1.
         -5    1    3    3    0  502  0.22761286916E+02  0.55095094907E+02 -0.66801222331E+02  0.89655111231E+02  0.47000000000E+01 0.  1.
          5    1    4    4  503    0 -0.26752240040E+02 -0.27775348440E+02 -0.69007372363E+02  0.79191285939E+02  0.47000000000E+01 0. -1.
         -5    1    4    4    0  503  0.27908604387E+02 -0.12006726115E+02  0.12725062546E+02  0.33272644735E+02  0.47000000000E+01 0.  1.
<mgrwt>
<rscale>  0 0.99789265E+02</rscale>
<asrwt>0</asrwt>
<pdfrwt beam="1">  1        1 0.42322302E-01 0.10060982E+03</pdfrwt>
<pdfrwt beam="2">  1       -1 0.63629637E-02 0.10060982E+03</pdfrwt>
<totfact> 0.10993443E+04</totfact>
</mgrwt>
</event>
<event>
 8    1  0.3400573E-004  0.1061041E+03  0.7546771E-02  0.1270297E+00
         -2   -1    0    0    0  501 -0.00000000000E+00  0.00000000000E+00  0.16404269830E+02  0.16404269830E+02  0.00000000000E+00 0.  1.
          2   -1    0    0  501    0  0.00000000000E+00 -0.00000000000E+00 -0.68237299189E+03  0.68237299189E+03  0.00000000000E+00 0. -1.
         23    2    1    2    0    0  0.99580068594E+01 -0.53495360784E+02 -0.40857293715E+03  0.42212547970E+03  0.91088748588E+02 0.  0.
         23    2    1    2    0    0 -0.99580068594E+01  0.53495360784E+02 -0.25739578491E+03  0.27665178202E+03  0.85572792853E+02 0.  0.
          5    1    4    4  502    0 -0.28137706464E+02  0.65684197723E+02 -0.23198438885E+03  0.24278589544E+03  0.47000000000E+01 0. -1.
         -5    1    3    3    0  503 -0.33868856176E+02 -0.41702975881E+02 -0.14651413884E+03  0.15612405483E+03  0.47000000000E+01 0.  1.
          5    1    3    3  503    0  0.43826863035E+02 -0.11792384903E+02 -0.26205879830E+03  0.26600142487E+03  0.47000000000E+01 0. -1.
         -5    1    4    4    0  502  0.18179699604E+02 -0.12188836939E+02 -0.25411396058E+02  0.33865886571E+02  0.47000000000E+01 0.  1.
<mgrwt>
<rscale>  0 0.10491010E+03</rscale>
<asrwt>0</asrwt>
<pdfrwt beam="1">  1        2 0.10498044E+00 0.10610408E+03</pdfrwt>
<pdfrwt beam="2">  1       -2 0.25237342E-02 0.10610408E+03</pdfrwt>
<totfact> 0.21904652E+04</totfact>
</mgrwt>
</event>
<event>
 8    1  0.3400573E-004  0.1163223E+03  0.7546771E-02  0.1249818E+00
          1   -1    0    0  501    0  0.00000000000E+00  0.00000000000E+00  0.49799101153E+03  0.49799101153E+03  0.00000000000E+00 0. -1.
         -1   -1    0    0    0  501 -0.00000000000E+00 -0.00000000000E+00 -0.29961117373E+02  0.29961117373E+02  0.00000000000E+00 0.  1.
         23    2    1    2    0    0 -0.64488200149E+02 -0.15610851353E+02  0.15056141785E+03  0.19026198573E+03  0.95542953838E+02 0.  0.
         23    2    1    2    0    0  0.64488200149E+02  0.15610851353E+02  0.31746847630E+03  0.33769014318E+03  0.94053031392E+02 0.  0.
          5    1    3    3  502    0 -0.63288842487E+02  0.28299818253E+02  0.71551845509E+02  0.99740232064E+02  0.47000000000E+01 0. -1.
         -5    1    3    3    0  502 -0.11993576627E+01 -0.43910669606E+02  0.79009572343E+02  0.90521753661E+02  0.47000000000E+01 0.  1.
          5    1    4    4  503    0  0.15092811590E+02  0.50076410597E+02  0.11544858582E+03  0.12683022443E+03  0.47000000000E+01 0. -1.
         -5    1    4    4    0  503  0.49395388560E+02 -0.34465559244E+02  0.20201989048E+03  0.21085991875E+03  0.47000000000E+01 0.  1.
<mgrwt>
<rscale>  0 0.11601596E+03</rscale>
<asrwt>0</asrwt>
<pdfrwt beam="1">  1        1 0.76613996E-01 0.11632232E+03</pdfrwt>
<pdfrwt beam="2">  1       -1 0.46094030E-02 0.11632232E+03</pdfrwt>
<totfact> 0.85305215E+03</totfact>
</mgrwt>
</event>
<event>
 8    1  0.3400573E-004  0.1211316E+03  0.7546771E-02  0.1253881E+00
         -2   -1    0    0    0  501 -0.00000000000E+00  0.00000000000E+00  0.59082807347E+02  0.59082807347E+02  0.00000000000E+00 0.  1.
          2   -1    0    0  501    0  0.00000000000E+00 -0.00000000000E+00 -0.21775424703E+03  0.21775424703E+03  0.00000000000E+00 0. -1.
         23    2    1    2    0    0 -0.67106352975E+01  0.24776150072E+02 -0.11393080626E+03  0.14770691010E+03  0.90433469682E+02 0.  0.
         23    2    1    2    0    0  0.67106352975E+01 -0.24776150072E+02 -0.44740633424E+02  0.12913014427E+03  0.11838065569E+03 0.  0.
          5    1    4    4  502    0  0.53687181439E+02  0.17937273666E+02 -0.14355285953E+02  0.58585181337E+02  0.47000000000E+01 0. -1.
         -5    1    3    3    0  503 -0.41165215782E+02  0.28122062889E+02 -0.34145878114E+02  0.60609045559E+02  0.47000000000E+01 0.  1.
          5    1    3    3  503    0  0.34454580484E+02 -0.33459128172E+01 -0.79784928141E+02  0.87097864540E+02  0.47000000000E+01 0. -1.
         -5    1    4    4    0  502 -0.46976546141E+02 -0.42713423738E+02 -0.30385347471E+02  0.70544962937E+02  0.47000000000E+01 0.  1.
<mgrwt>
<rscale>  0 0.11369252E+03</rscale>
<asrwt>0</asrwt>
<pdfrwt beam="1">  1        2 0.33500654E-01 0.12113162E+03</pdfrwt>
<pdfrwt beam="2">  1       -2 0.90896626E-02 0.12113162E+03</pdfrwt>
<totfact> 0.11186255E+04</totfact>
</mgrwt>
</event>
<event>
 8    1  0.3400573E-004  0.1350883E+03  0.7546771E-02  0.1220336E+00
         -2   -1    0    0    0  501 -0.00000000000E+00  0.00000000000E+00  0.80292496917E+02  0.80292496917E+02  0.00000000000E+00 0.  1.
          2   -1    0    0  501    0  0.00000000000E+00 -0.00000000000E+00 -0.23675440106E+03  0.23675440106E+03  0.00000000000E+00 0. -1.
         23    2    1    2    0    0  0.98851048205E+02 -0.62002673047E+00 -0.44472701414E+02  0.14157491179E+03  0.91069865004E+02 0.  0.
         23    2    1    2    0    0 -0.98851048205E+02  0.62002673047E+00 -0.11198920273E+03  0.17547198619E+03  0.92070202811E+02 0.  0.
          5    1    3    3  502    0  0.17481405396E+02  0.30076718260E+02 -0.41601649959E+02  0.54433406978E+02  0.47000000000E+01 0. -1.
         -5    1    4    4    0  503 -0.36095928907E+02  0.50053575606E+01  0.10049825857E+02  0.38092764244E+02  0.47000000000E+01 0.  1.
          5    1    4    4  503    0 -0.62755119298E+02 -0.43853308302E+01 -0.12203902859E+03  0.13737922195E+03  0.47000000000E+01 0. -1.
         -5    1    3    3    0  502  0.81369642809E+02 -0.30696744990E+02 -0.28710514547E+01  0.87141504809E+02  0.47000000000E+01 0.  1.
<mgrwt>
<rscale>  0 0.13491798E+03</rscale>
<asrwt>0</asrwt>
<pdfrwt beam="1">  1        2 0.36423754E-01 0.13508825E+03</pdfrwt>
<pdfrwt beam="2">  1       -2 0.12352692E-01 0.13508825E+03</pdfrwt>
<totfact> 0.63576350E+03</totfact>
</mgrwt>
</event>
<event>
 8    1  0.3400573E-004  0.9055119E+02  0.7546771E-02  0.1301564E+00
          2   -1    0    0  501    0  0.00000000000E+00  0.00000000000E+00  0.88035845198E+02  0.88035845198E+02  0.00000000000E+00 0. -1.
         -2   -1    0    0    0  501 -0.00000000000E+00 -0.00000000000E+00 -0.93724236966E+02  0.93724236966E+02  0.00000000000E+00 0.  1.
         23    2    1    2    0    0 -0.45529081106E+01  0.61352174260E+00  0.47678110230E+01  0.90676618485E+02  0.90434571579E+02 0.  0.
         23    2    1    2    0    0  0.45529081106E+01 -0.61352174260E+00 -0.10456202791E+02  0.91083463680E+02  0.90364593718E+02 0.  0.
          5    1    4    4  502    0  0.89284569561E+01 -0.44000896210E+02 -0.13499019914E+02  0.47118040596E+02  0.47000000000E+01 0. -1.
         -5    1    3    3    0  503 -0.36702602113E+02  0.25311946767E+02 -0.12223288932E+02  0.46467993752E+02  0.47000000000E+01 0.  1.
          5    1    3    3  503    0  0.32149694002E+02 -0.24698425025E+02  0.16991099955E+02  0.44208624733E+02  0.47000000000E+01 0. -1.
         -5    1    4    4    0  502 -0.43755488455E+01  0.43387374468E+02  0.30428171231E+01  0.43965423084E+02  0.47000000000E+01 0.  1.
<mgrwt>
<rscale>  0 0.90533708E+02</rscale>
<asrwt>0</asrwt>
<pdfrwt beam="1">  1        2 0.13543976E-01 0.90551185E+02</pdfrwt>
<pdfrwt beam="2">  1       -2 0.14419113E-01 0.90551185E+02</pdfrwt>
<totfact> 0.14421739E+04</totfact>
</mgrwt>
</event>
<event>
 8    1  0.3400573E-004  0.1661656E+03  0.7546771E-02  0.1182020E+00
          1   -1    0    0  501    0  0.00000000000E+00  0.00000000000E+00  0.14581589956E+03  0.14581589956E+03  0.00000000000E+00 0. -1.
         -1   -1    0    0    0  501 -0.00000000000E+00 -0.00000000000E+00 -0.28423490703E+03  0.28423490703E+03  0.00000000000E+00 0.  1.
         23    2    1    2    0    0  0.53208004377E+02  0.12845221587E+03  0.55280044777E+02  0.17511967325E+03  0.90994247724E+02 0.  0.
         23    2    1    2    0    0 -0.53208004377E+02 -0.12845221587E+03 -0.19369905225E+03  0.25493113333E+03  0.90219157662E+02 0.  0.
          5    1    3    3  502    0  0.25968016920E+02  0.49809496925E+02  0.70622540914E+02  0.90360152567E+02  0.47000000000E+01 0. -1.
         -5    1    3    3    0  502  0.27239987457E+02  0.78642718941E+02 -0.15342496138E+02  0.84759520686E+02  0.47000000000E+01 0.  1.
          5    1    4    4  503    0 -0.26802148402E+02 -0.10161013894E+02 -0.92536158376E+02  0.96987792888E+02  0.47000000000E+01 0. -1.
         -5    1    4    4    0  503 -0.26405855975E+02 -0.11829120197E+03 -0.10116289387E+03  0.15794334044E+03  0.47000000000E+01 0.  1.
<mgrwt>
<rscale>  0 0.16605973E+03</rscale>
<asrwt>0</asrwt>
<pdfrwt beam="1">  1        1 0.22433215E-01 0.16616563E+03</pdfrwt>
<pdfrwt beam="2">  1       -1 0.43728447E-01 0.16616563E+03</pdfrwt>
<totfact> 0.11463639E+03</totfact>
</mgrwt>
</event>
<event>
 8    1  0.3400573E-004  0.1013732E+03  0.7546771E-02  0.1282487E+00
         -2   -1    0    0    0  501 -0.00000000000E+00  0.00000000000E+00  0.30268684537E+02  0.30268684537E+02  0.00000000000E+00 0.  1.
          2   -1    0    0  501    0  0.00000000000E+00 -0.00000000000E+00 -0.36324702378E+03  0.36324702378E+03  0.00000000000E+00 0. -1.
         23    2    1    2    0    0  0.25966396967E+02  0.35449583198E+02 -0.97402862420E+02  0.14058396408E+03  0.91354291796E+02 0.  0.
         23    2    1    2    0    0 -0.25966396967E+02 -0.35449583198E+02 -0.23557547682E+03  0.25293174423E+03  0.80918077338E+02 0.  0.
          5    1    4    4  502    0 -0.24244698394E+02 -0.58208750668E+02 -0.20473753029E+03  0.21427928123E+03  0.47000000000E+01 0. -1.
         -5    1    4    4    0  502 -0.17216985733E+01  0.22759167470E+02 -0.30837946525E+02  0.38652462998E+02  0.47000000000E+01 0.  1.
          5    1    3    3  503    0  0.29802693339E+02 -0.13580805263E+02 -0.82645764746E+02  0.89022756822E+02  0.47000000000E+01 0. -1.
         -5    1    3    3    0  503 -0.38362963724E+01  0.49030388461E+02 -0.14757097674E+02  0.51561207261E+02  0.47000000000E+01 0.  1.
<mgrwt>
<rscale>  0 0.98965404E+02</rscale>
<asrwt>0</asrwt>
<pdfrwt beam="1">  1        2 0.55884158E-01 0.10137324E+03</pdfrwt>
<pdfrwt beam="2">  1       -2 0.46567207E-02 0.10137324E+03</pdfrwt>
<totfact> 0.17687750E+04</totfact>
</mgrwt>
</event>
<event>
 8    1  0.3400573E-004  0.1211781E+03  0.7546771E-02  0.1241183E+00
          1   -1    0    0  501    0  0.00000000000E+00  0.00000000000E+00  0.63032404880E+03  0.63032404880E+03  0.00000000000E+00 0. -1.
         -1   -1    0    0    0  501 -0.00000000000E+00 -0.00000000000E+00 -0.19175650300E+03  0.19175650300E+03  0.00000000000E+00 0.  1.
         23    2    1    2    0    0  0.17153867065E+02  0.79053151577E+02  0.60455201932E+03  0.61656904645E+03  0.90169779048E+02 0.  0.
         23    2    1    2    0    0 -0.17153867065E+02 -0.79053151577E+02 -0.16598447352E+03  0.20551150535E+03  0.90224594495E+02 0.  0.
          5    1    4    4  502    0 -0.46482974335E+02 -0.74488317568E+02 -0.14218874274E+03  0.16717925983E+03  0.47000000000E+01 0.  1.
         -5    1    3    3    0  503  0.30065899400E+02  0.23358057852E+02  0.78225809293E+02  0.87125911260E+02  0.47000000000E+01 0.  1.
          5    1    3    3  503    0 -0.12912032335E+02  0.55695093724E+02  0.52632621003E+03  0.52944313519E+03  0.47000000000E+01 0. -1.
         -5    1    4    4    0  502  0.29329107270E+02 -0.45648340081E+01 -0.23795730782E+02  0.38332245515E+02  0.47000000000E+01 0. -1.
<mgrwt>
<rscale>  0 0.12116790E+03</rscale>
<asrwt>0</asrwt>
<pdfrwt beam="1">  1        1 0.96972930E-01 0.12117811E+03</pdfrwt>
<pdfrwt beam="2">  1       -1 0.29501001E-01 0.12117811E+03</pdfrwt>
<totfact> 0.35370922E+02</totfact>
</mgrwt>
</event>
<event>
 8    1  0.3400573E-004  0.9427892E+02  0.7546771E-02  0.1292855E+00
         -1   -1    0    0    0  501 -0.00000000000E+00  0.00000000000E+00  0.14464907107E+03  0.14464907107E+03  0.00000000000E+00 0.  1.
          1   -1    0    0  501    0  0.00000000000E+00 -0.00000000000E+00 -0.42397526860E+03  0.42397526860E+03  0.00000000000E+00 0. -1.
         23    2    1    2    0    0 -0.18408698150E+02  0.19888773262E+02  0.12326756519E+03  0.15513884743E+03  0.90214887258E+02 0.  0.
         23    2    1    2    0    0  0.18408698150E+02 -0.19888773262E+02 -0.40259376272E+03  0.41348549224E+03  0.90299894994E+02 0.  0.
          5    1    4    4  502    0 -0.30498650984E+02  0.12769623344E+02 -0.18733064503E+03  0.19028423887E+03  0.47000000000E+01 0. -1.
         -5    1    4    4    0  502  0.48907349133E+02 -0.32658396605E+02 -0.21526311769E+03  0.22320125337E+03  0.47000000000E+01 0.  1.
          5    1    3    3  503    0 -0.24665494933E+02 -0.19026161628E+02  0.69858010112E+01  0.32268760161E+02  0.47000000000E+01 0. -1.
         -5    1    3    3    0  503  0.62567967835E+01  0.38914934890E+02  0.11628176418E+03  0.12287008727E+03  0.47000000000E+01 0.  1.
<mgrwt>
<rscale>  0 0.94258558E+02</rscale>
<asrwt>0</asrwt>
<pdfrwt beam="1">  1        1 0.65226962E-01 0.94278919E+02</pdfrwt>
<pdfrwt beam="2">  1       -1 0.22253704E-01 0.94278919E+02</pdfrwt>
<totfact> 0.94209982E+02</totfact>
</mgrwt>
</event>
<event>
 8    1  0.3400573E-004  0.2490036E+03  0.7546771E-02  0.1114036E+00
          2   -1    0    0  501    0  0.00000000000E+00  0.00000000000E+00  0.19488774745E+04  0.19488774745E+04  0.00000000000E+00 0. -1.
         -2   -1    0    0    0  501 -0.00000000000E+00 -0.00000000000E+00 -0.32101835017E+02  0.32101835017E+02  0.00000000000E+00 0.  1.
         23    2    1    2    0    0 -0.44150807377E+01  0.23072488235E+03  0.10655295690E+04  0.10942376578E+04  0.93537827110E+02 0.  0.
         23    2    1    2    0    0  0.44150807377E+01 -0.23072488235E+03  0.85124607052E+03  0.88674165174E+03  0.91855430271E+02 0.  0.
          5    1    4    4  502    0 -0.30175747433E+02 -0.94454940918E+02  0.47006211140E+03  0.48042979734E+03  0.47000000000E+01 0. -1.
         -5    1    3    3    0  503  0.35126386177E+02  0.13765014802E+03  0.50419472104E+03  0.52384714658E+03  0.47000000000E+01 0.  1.
          5    1    3    3  503    0 -0.39541466915E+02  0.93074734333E+02  0.56133484792E+03  0.57039051120E+03  0.47000000000E+01 0. -1.
         -5    1    4    4    0  502  0.34590828171E+02 -0.13626994143E+03  0.38118395912E+03  0.40631185440E+03  0.47000000000E+01 0.  1.
<mgrwt>
<rscale>  0 0.24884667E+03</rscale>
<asrwt>0</asrwt>
<pdfrwt beam="1">  1        2 0.29982721E+00 0.24900359E+03</pdfrwt>
<pdfrwt beam="2">  1       -2 0.49387454E-02 0.24900359E+03</pdfrwt>
<totfact> 0.15795982E+03</totfact>
</mgrwt>
</event>
<event>
 8    1  0.3400573E-004  0.9939677E+02  0.7546771E-02  0.1282045E+00
          2   -1    0    0  501    0  0.00000000000E+00  0.00000000000E+00  0.80834276575E+03  0.80834276575E+03  0.00000000000E+00 0. -1.
         -2   -1    0    0    0  501 -0.00000000000E+00 -0.00000000000E+00 -0.12808548477E+02  0.12808548477E+02  0.00000000000E+00 0.  1.
         23    2    1    2    0    0 -0.31574441969E+02 -0.50655062989E+01  0.30376913272E+03  0.31961758870E+03  0.94112232334E+02 0.  0.
         23    2    1    2    0    0  0.31574441969E+02  0.50655062989E+01  0.49176508455E+03  0.50153372552E+03  0.93169601878E+02 0.  0.
          5    1    4    4  502    0  0.36108244243E+02 -0.38690288139E+02  0.30560309499E+03  0.31018717795E+03  0.47000000000E+01 0. -1.
         -5    1    3    3    0  503  0.16486016986E+02  0.15843451204E+02  0.19202189508E+02  0.30226110964E+02  0.47000000000E+01 0.  1.
          5    1    3    3  503    0 -0.48060458954E+02 -0.20908957502E+02  0.28456694321E+03  0.28939147774E+03  0.47000000000E+01 0. -1.
         -5    1    4    4    0  502 -0.45338022743E+01  0.43755794438E+02  0.18616198956E+03  0.19134654757E+03  0.47000000000E+01 0.  1.
<mgrwt>
<rscale>  0 0.99172999E+02</rscale>
<asrwt>0</asrwt>
<pdfrwt beam="1">  1        2 0.12436039E+00 0.99396766E+02</pdfrwt>
<pdfrwt beam="2">  1       -2 0.19705466E-02 0.99396766E+02</pdfrwt>
<totfact> 0.25420500E+04</totfact>
</mgrwt>
</event>
<event>
 7    1  0.3400573E-004  0.1862090E+03  0.7546771E-02  0.1168479E+00
          1   -1    0    0  501    0  0.00000000000E+00  0.00000000000E+00  0.67341278656E+03  0.67341278656E+03  0.00000000000E+00 0. -1.
         -1   -1    0    0    0  501 -0.00000000000E+00 -0.00000000000E+00 -0.54643251014E+02  0.54643251014E+02  0.00000000000E+00 0.  1.
         23    2    1    2    0    0  0.10208192378E+03  0.83594760894E+02  0.13404761807E+03  0.20879778402E+03  0.90658411028E+02 0.  0.
          5    1    1    2  502    0 -0.13320116971E+03 -0.58046628992E+02  0.36648309165E+03  0.39426375590E+03  0.47000000000E+01 0. -1.
         -5    1    1    2    0  502  0.31119245937E+02 -0.25548131902E+02  0.11823882582E+03  0.12499449765E+03  0.47000000000E+01 0.  1.
          5    1    3    3  503    0  0.23395868185E+02  0.77423530631E+02  0.67381279282E+02  0.10537597706E+03  0.47000000000E+01 0. -1.
         -5    1    3    3    0  503  0.78686055590E+02  0.61712302630E+01  0.66666338786E+02  0.10342180696E+03  0.47000000000E+01 0.  1.
<mgrwt>
<rscale>  0 0.17930373E+03</rscale>
<asrwt>0</asrwt>
<pdfrwt beam="1">  1        1 0.10360196E+00 0.18620901E+03</pdfrwt>
<pdfrwt beam="2">  1       -1 0.84066545E-02 0.18620901E+03</pdfrwt>
<totfact> 0.23574880E+03</totfact>
</mgrwt>
</event>
<event>
 8    1  0.3400573E-004  0.1310360E+03  0.7546771E-02  0.1226006E+00
         -1   -1    0    0    0  501 -0.00000000000E+00  0.00000000000E+00  0.32641371610E+02  0.32641371610E+02  0.00000000000E+00 0.  1.
          1   -1    0    0  501    0  0.00000000000E+00 -0.00000000000E+00 -0.98646367525E+03  0.98646367525E+03  0.00000000000E+00 0. -1.
         23    2    1    2    0    0  0.89671288422E+02 -0.22027044172E+02 -0.12825350194E+03  0.18320178030E+03  0.92670388484E+02 0.  0.
         23    2    1    2    0    0 -0.89671288422E+02  0.22027044172E+02 -0.82556880169E+03  0.83590326656E+03  0.92974695860E+02 0.  0.
          5    1    4    4  502    0 -0.46120123021E+01  0.39923601303E+02 -0.17998718740E+03  0.18447938158E+03  0.47000000000E+01 0. -1.
         -5    1    3    3    0  503  0.51184508606E+02 -0.28098337256E+02 -0.11062478003E+02  0.59614083045E+02  0.47000000000E+01 0.  1.
          5    1    3    3  503    0  0.38486779816E+02  0.60712930844E+01 -0.11719102394E+03  0.12358769725E+03  0.47000000000E+01 0. -1.
         -5    1    4    4    0  502 -0.85059276120E+02 -0.17896557131E+02 -0.64558161429E+03  0.65142388498E+03  0.47000000000E+01 0.  1.
<mgrwt>
<rscale>  0 0.13098200E+03</rscale>
<asrwt>0</asrwt>
<pdfrwt beam="1">  1        1 0.15176360E+00 0.13103597E+03</pdfrwt>
<pdfrwt beam="2">  1       -1 0.50217507E-02 0.13103597E+03</pdfrwt>
<totfact> 0.28186424E+03</totfact>
</mgrwt>
</event>
<event>
 8    1  0.3400573E-004  0.1631221E+03  0.7546771E-02  0.1185446E+00
          2   -1    0    0  501    0  0.00000000000E+00  0.00000000000E+00  0.51362439936E+03  0.51362439936E+03  0.00000000000E+00 0. -1.
         -2   -1    0    0    0  501 -0.00000000000E+00 -0.00000000000E+00 -0.63673451726E+02  0.63673451726E+02  0.00000000000E+00 0.  1.
         23    2    1    2    0    0  0.12484532641E+03  0.50344354185E+02  0.98520452705E+02  0.18985469429E+03  0.90651066285E+02 0.  0.
         23    2    1    2    0    0 -0.12484532641E+03 -0.50344354185E+02  0.35143049493E+03  0.38744315680E+03  0.92129785921E+02 0.  0.
          5    1    3    3  502    0  0.10609298201E+03  0.70587228205E+02  0.99658875519E+02  0.16184022703E+03  0.47000000000E+01 0.  1.
         -5    1    3    3    0  502  0.18752344404E+02 -0.20242874020E+02 -0.11384228141E+01  0.28014467258E+02  0.47000000000E+01 0. -1.
          5    1    4    4  503    0 -0.90394068655E+02 -0.46981384553E+02  0.14033720786E+03  0.17347899024E+03  0.47000000000E+01 0. -1.
         -5    1    4    4    0  503 -0.34451257757E+02 -0.33629696324E+01  0.21109328707E+03  0.21396416656E+03  0.47000000000E+01 0.  1.
<mgrwt>
<rscale>  0 0.16291402E+03</rscale>
<asrwt>0</asrwt>
<pdfrwt beam="1">  1        2 0.79019135E-01 0.16312206E+03</pdfrwt>
<pdfrwt beam="2">  1       -2 0.97959160E-02 0.16312206E+03</pdfrwt>
<totfact> 0.40439839E+03</totfact>
</mgrwt>
</event>
<event>
 8    1  0.3400573E-004  0.1111388E+03  0.7546771E-02  0.1258603E+00
         -2   -1    0    0    0  501 -0.00000000000E+00  0.00000000000E+00  0.29420233699E+03  0.29420233699E+03  0.00000000000E+00 0.  1.
          2   -1    0    0  501    0  0.00000000000E+00 -0.00000000000E+00 -0.41884145673E+02  0.41884145673E+02  0.00000000000E+00 0. -1.
         23    2    1    2    0    0 -0.42296339884E+02  0.46272850875E+02  0.12816235074E+03  0.16963906624E+03  0.91769643959E+02 0.  0.
         23    2    1    2    0    0  0.42296339884E+02 -0.46272850875E+02  0.12415584058E+03  0.16644741642E+03  0.91432557594E+02 0.  0.
          5    1    3    3  502    0  0.59146254784E+01  0.50049802502E+02  0.26892859091E+02  0.57317374287E+02  0.47000000000E+01 0. -1.
         -5    1    3    3    0  502 -0.48210965362E+02 -0.37769516272E+01  0.10126949165E+03  0.11232169195E+03  0.47000000000E+01 0.  1.
          5    1    4    4  503    0  0.18855704327E+02 -0.11156664895E+02 -0.10863895045E+02  0.24902268427E+02  0.47000000000E+01 0. -1.
         -5    1    4    4    0  503  0.23440635557E+02 -0.35116185980E+02  0.13501973563E+03  0.14154514800E+03  0.47000000000E+01 0.  1.
<mgrwt>
<rscale>  0 0.11106915E+03</rscale>
<asrwt>0</asrwt>
<pdfrwt beam="1">  1        2 0.64437149E-02 0.11113876E+03</pdfrwt>
<pdfrwt beam="2">  1       -2 0.45261897E-01 0.11113876E+03</pdfrwt>
<totfact> 0.49243545E+03</totfact>
</mgrwt>
</event>
<event>
 8    1  0.3400573E-004  0.9890538E+02  0.7546771E-02  0.1283961E+00
         -3   -1    0    0    0  501 -0.00000000000E+00  0.00000000000E+00  0.12708049626E+02  0.12708049626E+02  0.00000000000E+00 0.  1.
          3   -1    0    0  501    0  0.00000000000E+00 -0.00000000000E+00 -0.75702903304E+03  0.75702903304E+03  0.00000000000E+00 0. -1.
         23    2    1    2    0    0  0.26525737725E+02 -0.29037395773E+02 -0.34117854524E+03  0.35522538402E+03  0.90749592855E+02 0.  0.
         23    2    1    2    0    0 -0.26525737725E+02  0.29037395773E+02 -0.40314243818E+03  0.41451169865E+03  0.88030322864E+02 0.  0.
          5    1    3    3  502    0 -0.33528452370E+02 -0.62921497085E+01 -0.12579242082E+03  0.13042074759E+03  0.47000000000E+01 0. -1.
         -5    1    4    4    0  503  0.25408665635E+02  0.20289148547E+02 -0.71576578770E+02  0.78756247159E+02  0.47000000000E+01 0.  1.
          5    1    4    4  503    0 -0.51934403361E+02  0.87482472266E+01 -0.33156585941E+03  0.33575545149E+03  0.47000000000E+01 0. -1.
         -5    1    3    3    0  502  0.60054190096E+02 -0.22745246065E+02 -0.21538612442E+03  0.22480463643E+03  0.47000000000E+01 0.  1.
<mgrwt>
<rscale>  0 0.98277174E+02</rscale>
<asrwt>0</asrwt>
<pdfrwt beam="1">  1        3 0.11646599E+00 0.98905378E+02</pdfrwt>
<pdfrwt beam="2">  1       -3 0.19550848E-02 0.98905378E+02</pdfrwt>
<totfact> 0.13689886E+03</totfact>
</mgrwt>
</event>
<event>
 8    1  0.3400573E-004  0.1037205E+03  0.7546771E-02  0.1273717E+00
         -1   -1    0    0    0  501 -0.00000000000E+00  0.00000000000E+00  0.22875677785E+03  0.22875677785E+03  0.00000000000E+00 0.  1.
          1   -1    0    0  501    0  0.00000000000E+00 -0.00000000000E+00 -0.50768279485E+02  0.50768279485E+02  0.00000000000E+00 0. -1.
         23    2    1    2    0    0 -0.78726376573E+01  0.47489779025E+02  0.13061117528E+03  0.16549633912E+03  0.89512577983E+02 0.  0.
         23    2    1    2    0    0  0.78726376573E+01 -0.47489779025E+02  0.47377323085E+02  0.11402871822E+03  0.91873175085E+02 0.  0.
          5    1    4    4  502    0  0.21563966931E+02 -0.66457550000E+02  0.11534088524E+02  0.70969964209E+02  0.47000000000E+01 0. -1.
         -5    1    3    3    0  503 -0.47998680091E+02  0.17733813097E+02  0.69246350386E+02  0.86229394404E+02  0.47000000000E+01 0.  1.
          5    1    3    3  503    0  0.40126042434E+02  0.29755965929E+02  0.61364824895E+02  0.79266944713E+02  0.47000000000E+01 0. -1.
         -5    1    4    4    0  502 -0.13691329273E+02  0.18967770975E+02  0.35843234561E+02  0.43058754009E+02  0.47000000000E+01 0.  1.
<mgrwt>
<rscale>  0 0.10319524E+03</rscale>
<asrwt>0</asrwt>
<pdfrwt beam="1">  1        1 0.78105047E-02 0.10372048E+03</pdfrwt>
<pdfrwt beam="2">  1       -1 0.35193350E-01 0.10372048E+03</pdfrwt>
<totfact> 0.64629053E+03</totfact>
</mgrwt>
</event>
<event>
 8    1  0.3400573E-004  0.9939319E+02  0.7546771E-02  0.1281924E+00
          1   -1    0    0  501    0  0.00000000000E+00  0.00000000000E+00  0.55441194006E+03  0.55441194006E+03  0.00000000000E+00 0. -1.
         -1   -1    0    0    0  501 -0.00000000000E+00 -0.00000000000E+00 -0.23938648231E+02  0.23938648231E+02  0.00000000000E+00 0.  1.
         23    2    1    2    0    0  0.20248255090E+02 -0.34629555318E+02  0.11699489301E+03  0.15309373239E+03  0.90225761126E+02 0.  0.
         23    2    1    2    0    0 -0.20248255090E+02  0.34629555318E+02  0.41347839882E+03  0.42525685590E+03  0.90938491657E+02 0.  0.
          5    1    3    3  502    0  0.24006013776E+02 -0.63445531074E+02  0.69616134916E+02  0.97314543370E+02  0.47000000000E+01 0. -1.
         -5    1    4    4    0  503  0.27524633051E+01  0.57148528273E+02  0.34119392255E+03  0.34598975870E+03  0.47000000000E+01 0.  1.
          5    1    4    4  503    0 -0.23000718396E+02 -0.22518972955E+02  0.72284476269E+02  0.79267097204E+02  0.47000000000E+01 0. -1.
         -5    1    3    3    0  502 -0.37577586860E+01  0.28815975756E+02  0.47378758094E+02  0.55779189019E+02  0.47000000000E+01 0.  1.
<mgrwt>
<rscale>  0 0.99229872E+02</rscale>
<asrwt>0</asrwt>
<pdfrwt beam="1">  1        1 0.85294135E-01 0.99393195E+02</pdfrwt>
<pdfrwt beam="2">  1       -1 0.36828694E-02 0.99393195E+02</pdfrwt>
<totfact> 0.10171516E+04</totfact>
</mgrwt>
</event>
<event>
 8    1  0.3400573E-004  0.9834174E+02  0.7546771E-02  0.1287974E+00
          1   -1    0    0  501    0  0.00000000000E+00  0.00000000000E+00  0.11008983142E+03  0.11008983142E+03  0.00000000000E+00 0. -1.
         -1   -1    0    0    0  501 -0.00000000000E+00 -0.00000000000E+00 -0.12789719899E+03  0.12789719899E+03  0.00000000000E+00 0.  1.
         23    2    1    2    0    0  0.23549839543E+02  0.25481075275E+02 -0.80426784687E+02  0.12140105324E+03  0.84058716931E+02 0.  0.
         23    2    1    2    0    0 -0.23549839543E+02 -0.25481075275E+02  0.62619417120E+02  0.11658597718E+03  0.92017490372E+02 0.  0.
          5    1    4    4  502    0 -0.20837361894E+02 -0.54096545932E+02  0.13859564430E+02  0.59789710308E+02  0.47000000000E+01 0. -1.
         -5    1    3    3    0  503  0.18936581707E+02 -0.10603921980E+02 -0.81733767234E+02  0.84696729538E+02  0.47000000000E+01 0.  1.
          5    1    3    3  503    0  0.46132578361E+01  0.36084997255E+02  0.13069825476E+01  0.36704323698E+02  0.47000000000E+01 0. -1.
         -5    1    4    4    0  502 -0.27124776493E+01  0.28615470658E+02  0.48759852690E+02  0.56796266869E+02  0.47000000000E+01 0.  1.
<mgrwt>
<rscale>  0 0.96436172E+02</rscale>
<asrwt>0</asrwt>
<pdfrwt beam="1">  1        1 0.16936897E-01 0.98341744E+02</pdfrwt>
<pdfrwt beam="2">  1       -1 0.19676492E-01 0.98341744E+02</pdfrwt>
<totfact> 0.60987906E+03</totfact>
</mgrwt>
</event>
<event>
 8    1  0.3400573E-004  0.9233367E+02  0.7546771E-02  0.1297331E+00
         -4   -1    0    0    0  501 -0.00000000000E+00  0.00000000000E+00  0.14643615470E+03  0.14643615470E+03  0.00000000000E+00 0.  1.
          4   -1    0    0  501    0  0.00000000000E+00 -0.00000000000E+00 -0.64447452373E+02  0.64447452373E+02  0.00000000000E+00 0. -1.
         23    2    1    2    0    0  0.69449714913E+01  0.15756355208E+02  0.81328251258E+01  0.92691147162E+02  0.90713893970E+02 0.  0.
         23    2    1    2    0    0 -0.69449714913E+01 -0.15756355208E+02  0.73855877206E+02  0.11819245992E+03  0.90654683412E+02 0.  0.
          5    1    3    3  502    0  0.15877361839E+02  0.51020426512E+02 -0.46647558470E+01  0.53842589904E+02  0.47000000000E+01 0. -1.
         -5    1    3    3    0  502 -0.89323903477E+01 -0.35264071304E+02  0.12797580973E+02  0.38848557258E+02  0.47000000000E+01 0.  1.
          5    1    4    4  503    0 -0.46398821947E+02 -0.15353302661E+02  0.24627674713E+02  0.54928926281E+02  0.47000000000E+01 0. -1.
         -5    1    4    4    0  503  0.39453850456E+02 -0.40305254693E+00  0.49228202493E+02  0.63263533634E+02  0.47000000000E+01 0.  1.
<mgrwt>
<rscale>  0 0.92319120E+02</rscale>
<asrwt>0</asrwt>
<pdfrwt beam="1">  1        4 0.99149927E-02 0.92333666E+02</pdfrwt>
<pdfrwt beam="2">  1       -4 0.22528639E-01 0.92333666E+02</pdfrwt>
<totfact> 0.20892722E+03</totfact>
</mgrwt>
</event>
<event>
 8    1  0.3400573E-004  0.1236074E+03  0.7546771E-02  0.1237587E+00
          2   -1    0    0  501    0  0.00000000000E+00  0.00000000000E+00  0.27843975563E+03  0.27843975563E+03  0.00000000000E+00 0. -1.
         -2   -1    0    0    0  501 -0.00000000000E+00 -0.00000000000E+00 -0.64903352275E+02  0.64903352275E+02  0.00000000000E+00 0.  1.
         23    2    1    2    0    0 -0.75661738555E+02 -0.33759369702E+02  0.37778335420E+02  0.12847180672E+03  0.90627858688E+02 0.  0.
         23    2    1    2    0    0  0.75661738555E+02  0.33759369702E+02  0.17575806794E+03  0.21487130119E+03  0.91729950977E+02 0.  0.
          5    1    3    3  502    0 -0.47257562341E+02  0.19499509798E+02  0.43995826188E+02  0.67610877843E+02  0.47000000000E+01 0. -1.
         -5    1    3    3    0  502 -0.28404176214E+02 -0.53258879500E+02 -0.62174907675E+01  0.60860928874E+02  0.47000000000E+01 0.  1.
          5    1    4    4  503    0  0.23814634370E+02  0.60291281229E+02  0.86715030821E+02  0.10836863925E+03  0.47000000000E+01 0. -1.
         -5    1    4    4    0  503  0.51847104185E+02 -0.26531911527E+02  0.89043037119E+02  0.10650266194E+03  0.47000000000E+01 0.  1.
<mgrwt>
<rscale>  0 0.12340293E+03</rscale>
<asrwt>0</asrwt>
<pdfrwt beam="1">  1        2 0.42836885E-01 0.12360735E+03</pdfrwt>
<pdfrwt beam="2">  1       -2 0.99851313E-02 0.12360735E+03</pdfrwt>
<totfact> 0.74504596E+03</totfact>
</mgrwt>
</event>
<event>
 8    1  0.3400573E-004  0.2316507E+03  0.7546771E-02  0.1126123E+00
          1   -1    0    0  501    0  0.00000000000E+00  0.00000000000E+00  0.53611490265E+03  0.53611490265E+03  0.00000000000E+00 0. -1.
         -1   -1    0    0    0  501 -0.00000000000E+00 -0.00000000000E+00 -0.11053410730E+03  0.11053410730E+03  0.00000000000E+00 0.  1.
         23    2    1    2    0    0 -0.14428255102E+03  0.15165482210E+03  0.31784631104E+03  0.39117144540E+03  0.90400125348E+02 0.  0.
         23    2    1    2    0    0  0.14428255102E+03 -0.15165482210E+03  0.10773448431E+03  0.25547756455E+03  0.99224126522E+02 0.  0.
          5    1    4    4  502    0  0.50467501461E+02 -0.47600519786E+02  0.90669203754E+02  0.11426186020E+03  0.47000000000E+01 0. -1.
         -5    1    4    4    0  502  0.93815049563E+02 -0.10405430231E+03  0.17065280554E+02  0.14121570435E+03  0.47000000000E+01 0.  1.
          5    1    3    3  503    0 -0.10333902603E+03  0.13775296834E+03  0.19167297603E+03  0.25771196000E+03  0.47000000000E+01 0. -1.
         -5    1    3    3    0  503 -0.40943524991E+02  0.13901853758E+02  0.12617333501E+03  0.13345948540E+03  0.47000000000E+01 0.  1.
<mgrwt>
<rscale>  0 0.23073529E+03</rscale>
<asrwt>0</asrwt>
<pdfrwt beam="1">  1        1 0.82479214E-01 0.23165074E+03</pdfrwt>
<pdfrwt beam="2">  1       -1 0.17005248E-01 0.23165074E+03</pdfrwt>
<totfact> 0.10800214E+03</totfact>
</mgrwt>
</event>
<event>
 8    1  0.3400573E-004  0.1358375E+03  0.7546771E-02  0.1219925E+00
          1   -1    0    0  501    0  0.00000000000E+00  0.00000000000E+00  0.13940486459E+03  0.13940486459E+03  0.00000000000E+00 0. -1.
         -1   -1    0    0    0  501 -0.00000000000E+00 -0.00000000000E+00 -0.26760464803E+03  0.26760464803E+03  0.00000000000E+00 0.  1.
         23    2    1    2    0    0  0.39185539669E+02 -0.88757511526E+02 -0.21034757811E+03  0.25039553348E+03  0.95070590596E+02 0.  0.
         23    2    1    2    0    0 -0.39185539669E+02  0.88757511526E+02  0.82147794671E+02  0.15661397914E+03  0.91467348938E+02 0.  0.
          5    1    4    4  502    0 -0.52546561833E+02  0.63760045712E+02  0.94260656606E+02  0.12543383106E+03  0.47000000000E+01 0. -1.
         -5    1    3    3    0  503  0.49769260179E+02 -0.56638796128E+02 -0.20139665817E+03  0.21509913159E+03  0.47000000000E+01 0.  1.
          5    1    3    3  503    0 -0.10583720510E+02 -0.32118715398E+02 -0.89509199364E+01  0.35296401889E+02  0.47000000000E+01 0. -1.
         -5    1    4    4    0  502  0.13361022164E+02  0.24997465814E+02 -0.12112861935E+02  0.31180148085E+02  0.47000000000E+01 0.  1.
<mgrwt>
<rscale>  0 0.13520887E+03</rscale>
<asrwt>0</asrwt>
<pdfrwt beam="1">  1        1 0.21446902E-01 0.13583747E+03</pdfrwt>
<pdfrwt beam="2">  1       -1 0.41169946E-01 0.13583747E+03</pdfrwt>
<totfact> 0.13439704E+03</totfact>
</mgrwt>
</event>
<event>
 8    1  0.3400573E-004  0.1003334E+03  0.7546771E-02  0.1279681E+00
          2   -1    0    0  501    0  0.00000000000E+00  0.00000000000E+00  0.40024552937E+03  0.40024552937E+03  0.00000000000E+00 0. -1.
         -2   -1    0    0    0  501 -0.00000000000E+00 -0.00000000000E+00 -0.26637152705E+02  0.26637152705E+02  0.00000000000E+00 0.  1.
         23    2    1    2    0    0  0.31673501640E+02  0.30625284488E+02  0.23803352967E+03  0.25831521135E+03  0.90142489497E+02 0.  0.
         23    2    1    2    0    0 -0.31673501640E+02 -0.30625284488E+02  0.13557484700E+03  0.16856747072E+03  0.89962960667E+02 0.  0.
          5    1    4    4  502    0  0.25385837391E+02 -0.33990914004E+02  0.62231525145E+02  0.75463075055E+02  0.47000000000E+01 0. -1.
         -5    1    3    3    0  503  0.23166678058E+02  0.62435936172E+02  0.16819646240E+03  0.18096154581E+03  0.47000000000E+01 0.  1.
          5    1    3    3  503    0  0.85068235817E+01 -0.31810651684E+02  0.69837067275E+02  0.77353665547E+02  0.47000000000E+01 0. -1.
         -5    1    4    4    0  502 -0.57059339031E+02  0.33656295160E+01  0.73343321851E+02  0.93104395669E+02  0.47000000000E+01 0.  1.
<mgrwt>
<rscale>  0 0.10029304E+03</rscale>
<asrwt>0</asrwt>
<pdfrwt beam="1">  1        2 0.61576231E-01 0.10033338E+03</pdfrwt>
<pdfrwt beam="2">  1       -2 0.40980238E-02 0.10033338E+03</pdfrwt>
<totfact> 0.19275079E+04</totfact>
</mgrwt>
</event>
<event>
 8    1  0.3400573E-004  0.1324216E+03  0.7546771E-02  0.1225094E+00
         -2   -1    0    0    0  501 -0.00000000000E+00  0.00000000000E+00  0.56592444886E+03  0.56592444886E+03  0.00000000000E+00 0.  1.
          2   -1    0    0  501    0  0.00000000000E+00 -0.00000000000E+00 -0.45310108854E+02  0.45310108854E+02  0.00000000000E+00 0. -1.
         23    2    1    2    0    0  0.89596069251E+02 -0.13548349041E+02  0.43444587749E+03  0.45324570485E+03  0.92072987948E+02 0.  0.
         23    2    1    2    0    0 -0.89596069251E+02  0.13548349041E+02  0.86168462516E+02  0.15798885286E+03  0.96563245130E+02 0.  0.
          5    1    4    4  502    0 -0.88441008024E+02 -0.24211347306E+02  0.74301437835E+02  0.11811348316E+03  0.47000000000E+01 0. -1.
         -5    1    3    3    0  503  0.70608138121E+02 -0.36099762390E+02  0.39933124597E+03  0.40715627960E+03  0.47000000000E+01 0.  1.
          5    1    3    3  503    0  0.18987931130E+02  0.22551413349E+02  0.35114631520E+02  0.46089425245E+02  0.47000000000E+01 0. -1.
         -5    1    4    4    0  502 -0.11550612265E+01  0.37759696346E+02  0.11867024681E+02  0.39875369708E+02  0.47000000000E+01 0.  1.
<mgrwt>
<rscale>  0 0.13160460E+03</rscale>
<asrwt>0</asrwt>
<pdfrwt beam="1">  1        2 0.69707864E-02 0.13242158E+03</pdfrwt>
<pdfrwt beam="2">  1       -2 0.87065295E-01 0.13242158E+03</pdfrwt>
<totfact> 0.11610438E+03</totfact>
</mgrwt>
</event>
<event>
 8    1  0.3400573E-004  0.9677089E+02  0.7546771E-02  0.1287459E+00
          3   -1    0    0  501    0  0.00000000000E+00  0.00000000000E+00  0.26098363589E+02  0.26098363589E+02  0.00000000000E+00 0. -1.
         -3   -1    0    0    0  501 -0.00000000000E+00 -0.00000000000E+00 -0.38991758839E+03  0.38991758839E+03  0.00000000000E+00 0.  1.
         23    2    1    2    0    0 -0.62477822267E+00 -0.33959794456E+02 -0.24239876071E+03  0.26100146332E+03  0.90614274111E+02 0.  0.
         23    2    1    2    0    0  0.62477822267E+00  0.33959794456E+02 -0.12142046410E+03  0.15501448867E+03  0.90182618104E+02 0.  0.
          5    1    4    4  502    0  0.31300933256E+02  0.12790927675E+02 -0.73547104247E+01  0.34921884527E+02  0.47000000000E+01 0. -1.
         -5    1    4    4    0  502 -0.30676155034E+02  0.21168866780E+02 -0.11406575367E+03  0.12009260414E+03  0.47000000000E+01 0.  1.
          5    1    3    3  503    0  0.23673263493E+02  0.22288139150E+02 -0.58323354325E+02  0.66939436888E+02  0.47000000000E+01 0. -1.
         -5    1    3    3    0  503 -0.24298041716E+02 -0.56247933605E+02 -0.18407540638E+03  0.19406202643E+03  0.47000000000E+01 0.  1.
<mgrwt>
<rscale>  0 0.96669710E+02</rscale>
<asrwt>0</asrwt>
<pdfrwt beam="1">  1        3 0.40151329E-02 0.96770887E+02</pdfrwt>
<pdfrwt beam="2">  1       -3 0.59987320E-01 0.96770887E+02</pdfrwt>
<totfact> 0.19149520E+03</totfact>
</mgrwt>
</event>
<event>
 8    1  0.3400573E-004  0.1100635E+03  0.7546771E-02  0.1262087E+00
          1   -1    0    0  501    0  0.00000000000E+00  0.00000000000E+00  0.90223226988E+03  0.90223226988E+03  0.00000000000E+00 0. -1.
         -1   -1    0    0    0  501 -0.00000000000E+00 -0.00000000000E+00 -0.15728451065E+02  0.15728451065E+02  0.00000000000E+00 0.  1.
         23    2    1    2    0    0 -0.10925975287E+02  0.54384260284E+02  0.62829922065E+03  0.63727659336E+03  0.91019344512E+02 0.  0.
         23    2    1    2    0    0  0.10925975287E+02 -0.54384260284E+02  0.25820459817E+03  0.28068412759E+03  0.95062822707E+02 0.  0.
          5    1    4    4  502    0  0.76020924849E+01 -0.74284158439E+02  0.24487502371E+03  0.25605037638E+03  0.47000000000E+01 0. -1.
         -5    1    4    4    0  502  0.33238828022E+01  0.19899898155E+02  0.13329574458E+02  0.24633751211E+02  0.47000000000E+01 0.  1.
          5    1    3    3  503    0  0.57682863677E+01 -0.23159380134E+02  0.21809015979E+03  0.21944256153E+03  0.47000000000E+01 0. -1.
         -5    1    3    3    0  503 -0.16694261655E+02  0.77543640417E+02  0.41020906086E+03  0.41783403183E+03  0.47000000000E+01 0.  1.
<mgrwt>
<rscale>  0 0.10918477E+03</rscale>
<asrwt>0</asrwt>
<pdfrwt beam="1">  1        1 0.13880492E+00 0.11006346E+03</pdfrwt>
<pdfrwt beam="2">  1       -1 0.24197624E-02 0.11006346E+03</pdfrwt>
<totfact> 0.93749824E+03</totfact>
</mgrwt>
</event>
<event>
 8    1  0.3400573E-004  0.1032682E+03  0.7546771E-02  0.1274655E+00
          2   -1    0    0  501    0  0.00000000000E+00  0.00000000000E+00  0.59280093801E+03  0.59280093801E+03  0.00000000000E+00 0. -1.
         -2   -1    0    0    0  501 -0.00000000000E+00 -0.00000000000E+00 -0.24749713945E+02  0.24749713945E+02  0.00000000000E+00 0.  1.
         23    2    1    2    0    0  0.36277091607E+02  0.32170172640E+02  0.12041778526E+03  0.15863404327E+03  0.91177679797E+02 0.  0.
         23    2    1    2    0    0 -0.36277091607E+02 -0.32170172640E+02  0.44763343881E+03  0.45891660869E+03  0.88757032456E+02 0.  0.
          5    1    3    3  502    0  0.58104531462E+02  0.48136560144E+02  0.92791459497E+02  0.11968964013E+03  0.47000000000E+01 0. -1.
         -5    1    3    3    0  502 -0.21827439855E+02 -0.15966387504E+02  0.27626325761E+02  0.38944403136E+02  0.47000000000E+01 0.  1.
          5    1    4    4  503    0 -0.97079004528E+00 -0.44804476210E+02  0.36824575663E+03  0.37099246731E+03  0.47000000000E+01 0. -1.
         -5    1    4    4    0  503 -0.35306301562E+02  0.12634303570E+02  0.79387682173E+02  0.87924141381E+02  0.47000000000E+01 0.  1.
<mgrwt>
<rscale>  0 0.10273129E+03</rscale>
<asrwt>0</asrwt>
<pdfrwt beam="1">  1        2 0.91200134E-01 0.10326818E+03</pdfrwt>
<pdfrwt beam="2">  1       -2 0.38076487E-02 0.10326818E+03</pdfrwt>
<totfact> 0.14069417E+04</totfact>
</mgrwt>
</event>
<event>
 8    1  0.3400573E-004  0.1066703E+03  0.7546771E-02  0.1266976E+00
         -1   -1    0    0    0  501 -0.00000000000E+00  0.00000000000E+00  0.17673670398E+02  0.17673670398E+02  0.00000000000E+00 0.  1.
          1   -1    0    0  501    0  0.00000000000E+00 -0.00000000000E+00 -0.88894908451E+03  0.88894908451E+03  0.00000000000E+00 0. -1.
         23    2    1    2    0    0  0.54992796434E+02  0.16568696409E+02 -0.67402043527E+03  0.68237269317E+03  0.89611471735E+02 0.  0.
         23    2    1    2    0    0 -0.54992796434E+02 -0.16568696409E+02 -0.19725497884E+03  0.22425006173E+03  0.89887897684E+02 0.  0.
          5    1    4    4  502    0  0.28158702877E+00  0.26410865531E+02 -0.10479818774E+03  0.10817746190E+03  0.47000000000E+01 0. -1.
         -5    1    4    4    0  502 -0.55274383463E+02 -0.42979561940E+02 -0.92456791099E+02  0.11607259983E+03  0.47000000000E+01 0.  1.
          5    1    3    3  503    0  0.55486703057E+02  0.48688705046E+02 -0.46629647656E+03  0.47212695143E+03  0.47000000000E+01 0. -1.
         -5    1    3    3    0  503 -0.49390662267E+00 -0.32120008637E+02 -0.20772395871E+03  0.21024574174E+03  0.47000000000E+01 0.  1.
<mgrwt>
<rscale>  0 0.10661209E+03</rscale>
<asrwt>0</asrwt>
<pdfrwt beam="1">  1        1 0.13676141E+00 0.10667035E+03</pdfrwt>
<pdfrwt beam="2">  1       -1 0.27190260E-02 0.10667035E+03</pdfrwt>
<totfact> 0.80956146E+03</totfact>
</mgrwt>
</event>
<event>
 8    1  0.3400573E-004  0.2886483E+03  0.7546771E-02  0.1091316E+00
          1   -1    0    0  501    0  0.00000000000E+00  0.00000000000E+00  0.34743549764E+03  0.34743549764E+03  0.00000000000E+00 0. -1.
         -1   -1    0    0    0  501 -0.00000000000E+00 -0.00000000000E+00 -0.40968576570E+03  0.40968576570E+03  0.00000000000E+00 0.  1.
         23    2    1    2    0    0  0.24052926953E+03  0.12637910343E+03  0.21374860868E+03  0.35917447425E+03  0.97426012716E+02 0.  0.
         23    2    1    2    0    0 -0.24052926953E+03 -0.12637910343E+03 -0.27599887674E+03  0.39794678910E+03  0.91434455823E+02 0.  0.
          5    1    3    3  502    0  0.21587471642E+03  0.85787533693E+02  0.20660865444E+03  0.31091899301E+03  0.47000000000E+01 0. -1.
         -5    1    4    4    0  503 -0.21853869104E+03 -0.10097562379E+03 -0.19402523640E+03  0.30922987961E+03  0.47000000000E+01 0.  1.
          5    1    4    4  503    0 -0.21990578491E+02 -0.25403479631E+02 -0.81973640340E+02  0.88716909495E+02  0.47000000000E+01 0. -1.
         -5    1    3    3    0  502  0.24654553109E+02  0.40591569733E+02  0.71399542387E+01  0.48255481232E+02  0.47000000000E+01 0.  1.
<mgrwt>
<rscale>  0 0.28815532E+03</rscale>
<asrwt>0</asrwt>
<pdfrwt beam="1">  1        1 0.53451615E-01 0.28864829E+03</pdfrwt>
<pdfrwt beam="2">  1       -1 0.63028579E-01 0.28864829E+03</pdfrwt>
<totfact> 0.19316626E+02</totfact>
</mgrwt>
</event>
<event>
 8    1  0.3400573E-004  0.1328039E+03  0.7546771E-02  0.1229322E+00
         -4   -1    0    0    0  501 -0.00000000000E+00  0.00000000000E+00  0.11365270347E+03  0.11365270347E+03  0.00000000000E+00 0.  1.
          4   -1    0    0  501    0  0.00000000000E+00 -0.00000000000E+00 -0.15782329254E+03  0.15782329254E+03  0.00000000000E+00 0. -1.
         23    2    1    2    0    0 -0.28637357107E+02 -0.33485901209E+02  0.27600497316E+02  0.12051915347E+03  0.10872752687E+03 0.  0.
         23    2    1    2    0    0  0.28637357107E+02  0.33485901209E+02 -0.71771086394E+02  0.15095684254E+03  0.12528158550E+03 0.  0.
          5    1    4    4  502    0  0.10688707563E+02  0.65341745492E+02 -0.88374128277E+02  0.11052542116E+03  0.47000000000E+01 0. -1.
         -5    1    3    3    0  503  0.23740220564E+02 -0.37040258320E+02  0.46817722951E+02  0.64417140508E+02  0.47000000000E+01 0.  1.
          5    1    3    3  503    0 -0.52377577670E+02  0.35543571119E+01 -0.19217225636E+02  0.56102012961E+02  0.47000000000E+01 0. -1.
         -5    1    4    4    0  502  0.17948649543E+02 -0.31855844284E+02  0.16603041882E+02  0.40431421385E+02  0.47000000000E+01 0.  1.
<mgrwt>
<rscale>  0 0.12875011E+03</rscale>
<asrwt>0</asrwt>
<pdfrwt beam="1">  1        4 0.24280507E-01 0.13280391E+03</pdfrwt>
<pdfrwt beam="2">  1       -4 0.17485031E-01 0.13280391E+03</pdfrwt>
<totfact> 0.74832430E+02</totfact>
</mgrwt>
</event>
<event>
 8    1  0.3400573E-004  0.2502834E+03  0.7546771E-02  0.1113362E+00
          2   -1    0    0  501    0  0.00000000000E+00  0.00000000000E+00  0.28653204797E+04  0.28653204797E+04  0.00000000000E+00 0. -1.
         -2   -1    0    0    0  501 -0.00000000000E+00 -0.00000000000E+00 -0.22255530658E+02  0.22255530658E+02  0.00000000000E+00 0.  1.
         23    2    1    2    0    0  0.23081829698E+03  0.12571013890E+02  0.16388455578E+04  0.16576223120E+04  0.91988315493E+02 0.  0.
         23    2    1    2    0    0 -0.23081829698E+03 -0.12571013890E+02  0.12042193912E+04  0.12299536984E+04  0.95951244567E+02 0.  0.
          5    1    3    3  502    0  0.33838750992E+02  0.36260124252E+02  0.37373118432E+03  0.37703706159E+03  0.47000000000E+01 0. -1.
         -5    1    3    3    0  502  0.19697954599E+03 -0.23689110362E+02  0.12651143735E+04  0.12805852504E+04  0.47000000000E+01 0.  1.
          5    1    4    4  503    0 -0.87008646179E+02 -0.41994490682E+02  0.34632274410E+03  0.35957693869E+03  0.47000000000E+01 0. -1.
         -5    1    4    4    0  503 -0.14380965081E+03  0.29423476792E+02  0.85789664714E+03  0.87037675970E+03  0.47000000000E+01 0.  1.
<mgrwt>
<rscale>  0 0.24990943E+03</rscale>
<asrwt>0</asrwt>
<pdfrwt beam="1">  1        2 0.44081824E+00 0.25028336E+03</pdfrwt>
<pdfrwt beam="2">  1       -2 0.34239300E-02 0.25028336E+03</pdfrwt>
<totfact> 0.87138857E+02</totfact>
</mgrwt>
</event>
<event>
 8    1  0.3400573E-004  0.1290102E+03  0.7546771E-02  0.1231301E+00
          1   -1    0    0  501    0  0.00000000000E+00  0.00000000000E+00  0.85930102676E+03  0.85930102676E+03  0.00000000000E+00 0. -1.
         -1   -1    0    0    0  501 -0.00000000000E+00 -0.00000000000E+00 -0.18958485973E+02  0.18958485973E+02  0.00000000000E+00 0.  1.
         23    2    1    2    0    0 -0.80191753425E+02 -0.21247117296E+02  0.33863774922E+03  0.36023312261E+03  0.90610264970E+02 0.  0.
         23    2    1    2    0    0  0.80191753425E+02  0.21247117296E+02  0.50170479157E+03  0.51802639012E+03  0.98800231138E+02 0.  0.
          5    1    4    4  502    0  0.24960736166E+02  0.48605125796E+02  0.34903740323E+03  0.35331953733E+03  0.47000000000E+01 0. -1.
         -5    1    4    4    0  502  0.55231017259E+02 -0.27358008500E+02  0.15266738834E+03  0.16470685280E+03  0.47000000000E+01 0.  1.
          5    1    3    3  503    0 -0.80383823863E+02  0.15100195614E+02  0.27333689602E+03  0.28535017745E+03  0.47000000000E+01 0. -1.
         -5    1    3    3    0  503  0.19207043787E+00 -0.36347312910E+02  0.65300853202E+02  0.74882945159E+02  0.47000000000E+01 0.  1.
<mgrwt>
<rscale>  0 0.12744208E+03</rscale>
<asrwt>0</asrwt>
<pdfrwt beam="1">  1        1 0.13220013E+00 0.12901024E+03</pdfrwt>
<pdfrwt beam="2">  1       -1 0.29166908E-02 0.12901024E+03</pdfrwt>
<totfact> 0.77965686E+03</totfact>
</mgrwt>
</event>
<event>
 8    1  0.6028359E-004  0.1306613E+03  0.7546771E-02  0.1240491E+00
         -1   -1    0    0    0  501 -0.00000000000E+00  0.00000000000E+00  0.88253353680E+03  0.88253353680E+03  0.00000000000E+00 0.  1.
          1   -1    0    0  501    0  0.00000000000E+00 -0.00000000000E+00 -0.51178768864E+02  0.51178768864E+02  0.00000000000E+00 0. -1.
         23    2    1    2    0    0  0.40208380641E+02  0.24413735823E+02  0.40478114348E+02  0.13678765308E+03  0.12190012274E+03 0.  0.
         23    2    1    2    0    0 -0.40208380641E+02 -0.24413735823E+02  0.79087665359E+03  0.79692465259E+03  0.85966716452E+02 0.  0.
          5    1    4    4  502    0  0.20589776796E+02  0.10715986958E+02  0.11628249010E+03  0.11866962032E+03  0.47000000000E+01 0. -1.
         -5    1    4    4    0  502 -0.60798157437E+02 -0.35129722781E+02  0.67459416350E+03  0.67825503226E+03  0.47000000000E+01 0.  1.
          5    1    3    3  503    0  0.57889381165E+02  0.56696110148E+02 -0.95165062020E+00  0.81170345549E+02  0.47000000000E+01 0. -1.
         -5    1    3    3    0  503 -0.17681000524E+02 -0.32282374325E+02  0.41429764968E+02  0.55617307530E+02  0.47000000000E+01 0.  1.
<mgrwt>
<rscale>  0 0.12159376E+03</rscale>
<asrwt>0</asrwt>
<pdfrwt beam="1">  1        1 0.78736574E-02 0.13066133E+03</pdfrwt>
<pdfrwt beam="2">  1       -1 0.13577438E+00 0.13066133E+03</pdfrwt>
<totfact> 0.43356056E+02</totfact>
</mgrwt>
</event>
<event>
 8    1  0.3400573E-004  0.1121650E+03  0.7546771E-02  0.1259663E+00
          2   -1    0    0  501    0  0.00000000000E+00  0.00000000000E+00  0.16229014120E+02  0.16229014120E+02  0.00000000000E+00 0. -1.
         -2   -1    0    0    0  501 -0.00000000000E+00 -0.00000000000E+00 -0.74499896254E+03  0.74499896254E+03  0.00000000000E+00 0.  1.
         23    2    1    2    0    0 -0.33332011846E+02 -0.43417954251E+02 -0.32229482772E+03  0.34125494785E+03  0.97902204737E+02 0.  0.
         23    2    1    2    0    0  0.33332011846E+02  0.43417954251E+02 -0.40647512071E+03  0.41997302882E+03  0.90328176191E+02 0.  0.
          5    1    4    4  502    0  0.21731836522E+02 -0.87111954047E+01 -0.24349019233E+02  0.34104580068E+02  0.47000000000E+01 0. -1.
         -5    1    3    3    0  503 -0.49333231201E+02  0.13140551441E+02 -0.18171969022E+03  0.18881360546E+03  0.47000000000E+01 0.  1.
          5    1    3    3  503    0  0.16001219355E+02 -0.56558505691E+02 -0.14057513749E+03  0.15244134239E+03  0.47000000000E+01 0. -1.
         -5    1    4    4    0  502  0.11600175323E+02  0.52129149655E+02 -0.38212610147E+03  0.38586844875E+03  0.47000000000E+01 0.  1.
<mgrwt>
<rscale>  0 0.11049134E+03</rscale>
<asrwt>0</asrwt>
<pdfrwt beam="1">  1        2 0.24967712E-02 0.11216498E+03</pdfrwt>
<pdfrwt beam="2">  1       -2 0.11461523E+00 0.11216498E+03</pdfrwt>
<totfact> 0.23546917E+03</totfact>
</mgrwt>
</event>
<event>
 8    1  0.3400573E-004  0.1312057E+03  0.7546771E-02  0.1226207E+00
          3   -1    0    0  501    0  0.00000000000E+00  0.00000000000E+00  0.68144746349E+02  0.68144746349E+02  0.00000000000E+00 0. -1.
         -3   -1    0    0    0  501 -0.00000000000E+00 -0.00000000000E+00 -0.26303827449E+03  0.26303827449E+03  0.00000000000E+00 0.  1.
         23    2    1    2    0    0 -0.32611958662E+02  0.89394181163E+02 -0.13500955773E+03  0.18826181641E+03  0.90333113326E+02 0.  0.
         23    2    1    2    0    0  0.32611958662E+02 -0.89394181163E+02 -0.59883970405E+02  0.14292120443E+03  0.88235601040E+02 0.  0.
          5    1    3    3  502    0  0.23463741179E+02 -0.51885512714E+00 -0.15728680002E+02  0.28640840340E+02  0.47000000000E+01 0. -1.
         -5    1    4    4    0  503 -0.29308404007E+02 -0.16326630483E+02 -0.15224244813E+02  0.37140396316E+02  0.47000000000E+01 0.  1.
          5    1    4    4  503    0  0.61920362669E+02 -0.73067550681E+02 -0.44659725592E+02  0.10578080812E+03  0.47000000000E+01 0. -1.
         -5    1    3    3    0  502 -0.56075699841E+02  0.89913036290E+02 -0.11928087773E+03  0.15962097607E+03  0.47000000000E+01 0.  1.
<mgrwt>
<rscale>  0 0.13084540E+03</rscale>
<asrwt>0</asrwt>
<pdfrwt beam="1">  1        3 0.10483807E-01 0.13120568E+03</pdfrwt>
<pdfrwt beam="2">  1       -3 0.40467427E-01 0.13120568E+03</pdfrwt>
<totfact> 0.94999691E+02</totfact>
</mgrwt>
</event>
<event>
 8    1  0.3400573E-004  0.9693910E+02  0.7546771E-02  0.1292717E+00
         -1   -1    0    0    0  501 -0.00000000000E+00  0.00000000000E+00  0.73712432466E+02  0.73712432466E+02  0.00000000000E+00 0.  1.
          1   -1    0    0  501    0  0.00000000000E+00 -0.00000000000E+00 -0.16214330393E+03  0.16214330393E+03  0.00000000000E+00 0. -1.
         23    2    1    2    0    0 -0.21643310980E+02 -0.10675010316E+02 -0.10629861190E+03  0.13728370981E+03  0.83456775233E+02 0.  0.
         23    2    1    2    0    0  0.21643310980E+02  0.10675010316E+02  0.17867740436E+02  0.98572026583E+02  0.93887163771E+02 0.  0.
          5    1    4    4  502    0 -0.22305633545E+02  0.17609764287E+02 -0.23851780696E+02  0.37398429492E+02  0.47000000000E+01 0. -1.
         -5    1    4    4    0  502  0.43948944525E+02 -0.69347539712E+01  0.41719521132E+02  0.61173597091E+02  0.47000000000E+01 0.  1.
          5    1    3    3  503    0  0.12670969254E+02  0.29979657885E+02 -0.32961511534E+02  0.46560547584E+02  0.47000000000E+01 0. -1.
         -5    1    3    3    0  503 -0.34314280234E+02 -0.40654668201E+02 -0.73337100363E+02  0.90723162225E+02  0.47000000000E+01 0.  1.
<mgrwt>
<rscale>  0 0.94318971E+02</rscale>
<asrwt>0</asrwt>
<pdfrwt beam="1">  1        1 0.24945124E-01 0.96939096E+02</pdfrwt>
<pdfrwt beam="2">  1       -1 0.11340374E-01 0.96939096E+02</pdfrwt>
<totfact> 0.88178399E+03</totfact>
</mgrwt>
</event>
<event>
 8    1  0.3400573E-004  0.1414881E+03  0.7546771E-02  0.1212536E+00
          2   -1    0    0  501    0  0.00000000000E+00  0.00000000000E+00  0.43435538447E+03  0.43435538447E+03  0.00000000000E+00 0. -1.
         -2   -1    0    0    0  501 -0.00000000000E+00 -0.00000000000E+00 -0.45023574565E+02  0.45023574565E+02  0.00000000000E+00 0.  1.
         23    2    1    2    0    0 -0.49442596584E+02 -0.94353218165E+02  0.18174137602E+03  0.22815658849E+03  0.87626485587E+02 0.  0.
         23    2    1    2    0    0  0.49442596584E+02  0.94353218165E+02  0.20759043388E+03  0.25122237055E+03  0.93122452120E+02 0.  0.
          5    1    3    3  502    0 -0.57547461467E+02 -0.41942989117E+02  0.15015373157E+03  0.16625028650E+03  0.47000000000E+01 0. -1.
         -5    1    3    3    0  502  0.81048648831E+01 -0.52410229048E+02  0.31587644457E+02  0.61906301989E+02  0.47000000000E+01 0.  1.
          5    1    4    4  503    0  0.57406632708E+02  0.41570307432E+02  0.56041750146E+02  0.90478614590E+02  0.47000000000E+01 0. -1.
         -5    1    4    4    0  503 -0.79640361240E+01  0.52782910733E+02  0.15154868373E+03  0.16074375595E+03  0.47000000000E+01 0.  1.
<mgrwt>
<rscale>  0 0.14059084E+03</rscale>
<asrwt>0</asrwt>
<pdfrwt beam="1">  1        2 0.66823902E-01 0.14148813E+03</pdfrwt>
<pdfrwt beam="2">  1       -2 0.69267041E-02 0.14148813E+03</pdfrwt>
<totfact> 0.82559780E+03</totfact>
</mgrwt>
</event>
<event>
 8    1  0.3400573E-004  0.1105623E+03  0.7546771E-02  0.1259565E+00
         -2   -1    0    0    0  501 -0.00000000000E+00  0.00000000000E+00  0.12734033013E+03  0.12734033013E+03  0.00000000000E+00 0.  1.
          2   -1    0    0  501    0  0.00000000000E+00 -0.00000000000E+00 -0.13254817632E+03  0.13254817632E+03  0.00000000000E+00 0. -1.
         23    2    1    2    0    0  0.57300714510E+02  0.26943744599E+02  0.65693615438E+02  0.12854528391E+03  0.90547786552E+02 0.  0.
         23    2    1    2    0    0 -0.57300714510E+02 -0.26943744599E+02 -0.70901461632E+02  0.13134322255E+03  0.90634913752E+02 0.  0.
          5    1    3    3  502    0  0.12749742384E+02  0.48301966886E+02  0.54202709589E+01  0.50468854487E+02  0.47000000000E+01 0. -1.
         -5    1    4    4    0  503  0.12885638838E+01 -0.46573397067E+02 -0.19092976892E+02  0.50570480301E+02  0.47000000000E+01 0.  1.
          5    1    4    4  503    0 -0.58589278394E+02  0.19629652468E+02 -0.51808484740E+02  0.80772742245E+02  0.47000000000E+01 0. -1.
         -5    1    3    3    0  502  0.44550972126E+02 -0.21358222287E+02  0.60273344479E+02  0.78076429422E+02  0.47000000000E+01 0.  1.
<mgrwt>
<rscale>  0 0.11054445E+03</rscale>
<asrwt>0</asrwt>
<pdfrwt beam="1">  1        2 0.20392027E-01 0.11056231E+03</pdfrwt>
<pdfrwt beam="2">  1       -2 0.19590820E-01 0.11056231E+03</pdfrwt>
<totfact> 0.55494906E+03</totfact>
</mgrwt>
</event>
<event>
 8    1  0.3400573E-004  0.9217532E+02  0.7546771E-02  0.1312508E+00
          1   -1    0    0  501    0  0.00000000000E+00  0.00000000000E+00  0.84720778349E+02  0.84720778349E+02  0.00000000000E+00 0. -1.
         -1   -1    0    0    0  501 -0.00000000000E+00 -0.00000000000E+00 -0.80281133750E+02  0.80281133750E+02  0.00000000000E+00 0.  1.
         23    2    1    2    0    0 -0.26019790764E+01  0.10097028758E+01 -0.11676130239E+02  0.92911905440E+02  0.92133057912E+02 0.  0.
         23    2    1    2    0    0  0.26019790764E+01 -0.10097028758E+01  0.16115774837E+02  0.72090006659E+02  0.70210120826E+02 0.  0.
          5    1    4    4  502    0  0.14617146262E+02 -0.32617619216E+02  0.66109093238E+01  0.36651932695E+02  0.47000000000E+01 0.  1.
         -5    1    3    3    0  503 -0.46742492659E+02  0.65106645538E+01 -0.50775747121E+01  0.47698229924E+02  0.47000000000E+01 0.  1.
          5    1    3    3  503    0  0.44140513582E+02 -0.55009616781E+01 -0.65985555266E+01  0.45213675517E+02  0.47000000000E+01 0. -1.
         -5    1    4    4    0  502 -0.12015167186E+02  0.31607916340E+02  0.95048655135E+01  0.35438073964E+02  0.47000000000E+01 0. -1.
<mgrwt>
<rscale>  0 0.86128454E+02</rscale>
<asrwt>0</asrwt>
<pdfrwt beam="1">  1        1 0.13033966E-01 0.92175323E+02</pdfrwt>
<pdfrwt beam="2">  1       -1 0.12350944E-01 0.92175323E+02</pdfrwt>
<totfact> 0.17516721E+04</totfact>
</mgrwt>
</event>
<event>
 8    1  0.3400573E-004  0.1503842E+03  0.7546771E-02  0.1200018E+00
         -2   -1    0    0    0  501 -0.00000000000E+00  0.00000000000E+00  0.11635690194E+03  0.11635690194E+03  0.00000000000E+00 0.  1.
          2   -1    0    0  501    0  0.00000000000E+00 -0.00000000000E+00 -0.71744173177E+03  0.71744173177E+03  0.00000000000E+00 0. -1.
         23    2    1    2    0    0  0.84312071226E+02  0.84728934249E+02  0.55472751442E+02  0.16023848300E+03  0.91168128350E+02 0.  0.
         23    2    1    2    0    0 -0.84312071226E+02 -0.84728934249E+02 -0.65655758128E+03  0.67356015071E+03  0.91257336375E+02 0.  0.
          5    1    4    4  502    0 -0.80710685939E+02 -0.34128397892E+02 -0.52857691748E+03  0.53581210332E+03  0.47000000000E+01 0. -1.
         -5    1    3    3    0  503  0.68329313662E+02  0.24203192698E+02 -0.53388437635E+01  0.72837372928E+02  0.47000000000E+01 0.  1.
          5    1    3    3  503    0  0.15982757564E+02  0.60525741551E+02  0.60811595206E+02  0.87401110068E+02  0.47000000000E+01 0. -1.
         -5    1    4    4    0  502 -0.36013852865E+01 -0.50600536357E+02 -0.12798066380E+03  0.13774804740E+03  0.47000000000E+01 0.  1.
<mgrwt>
<rscale>  0 0.15037071E+03</rscale>
<asrwt>0</asrwt>
<pdfrwt beam="1">  1        2 0.11037565E+00 0.15038424E+03</pdfrwt>
<pdfrwt beam="2">  1       -2 0.17901062E-01 0.15038424E+03</pdfrwt>
<totfact> 0.10348164E+03</totfact>
</mgrwt>
</event>
<event>
 8    1  0.3400573E-004  0.1122428E+03  0.7546771E-02  0.1256550E+00
          2   -1    0    0  501    0  0.00000000000E+00  0.00000000000E+00  0.43223976167E+03  0.43223976167E+03  0.00000000000E+00 0. -1.
         -2   -1    0    0    0  501 -0.00000000000E+00 -0.00000000000E+00 -0.30109611340E+02  0.30109611340E+02  0.00000000000E+00 0.  1.
         23    2    1    2    0    0 -0.21974161027E+02 -0.63246865871E+02  0.24320589294E+03  0.26778484504E+03  0.89869834058E+02 0.  0.
         23    2    1    2    0    0  0.21974161027E+02  0.63246865871E+02  0.15892425739E+03  0.19456452797E+03  0.90085549140E+02 0.  0.
          5    1    4    4  502    0  0.43579550770E+02  0.47656821649E+01  0.37056215494E+02  0.57594635849E+02  0.47000000000E+01 0. -1.
         -5    1    3    3    0  503 -0.32675915355E+02  0.11301717063E+02  0.56494897422E+02  0.66401865091E+02  0.47000000000E+01 0.  1.
          5    1    3    3  503    0  0.10701754329E+02 -0.74548582934E+02  0.18671099552E+03  0.20138297995E+03  0.47000000000E+01 0. -1.
         -5    1    4    4    0  502 -0.21605389743E+02  0.58481183707E+02  0.12186804189E+03  0.13696989212E+03  0.47000000000E+01 0.  1.
<mgrwt>
<rscale>  0 0.11219947E+03</rscale>
<asrwt>0</asrwt>
<pdfrwt beam="1">  1        2 0.66498421E-01 0.11224275E+03</pdfrwt>
<pdfrwt beam="2">  1       -2 0.46322482E-02 0.11224275E+03</pdfrwt>
<totfact> 0.14966891E+04</totfact>
</mgrwt>
</event>
<event>
 8    1  0.3400573E-004  0.9874534E+02  0.7546771E-02  0.1285713E+00
         -1   -1    0    0    0  501 -0.00000000000E+00  0.00000000000E+00  0.15001550488E+03  0.15001550488E+03  0.00000000000E+00 0.  1.
          1   -1    0    0  501    0  0.00000000000E+00 -0.00000000000E+00 -0.65500018014E+02  0.65500018014E+02  0.00000000000E+00 0. -1.
         23    2    1    2    0    0  0.16346808644E+02  0.11248744545E+02  0.69102372905E+02  0.12052294378E+03  0.96731016900E+02 0.  0.
         23    2    1    2    0    0 -0.16346808644E+02 -0.11248744545E+02  0.15413113964E+02  0.94992579113E+02  0.91609353222E+02 0.  0.
          5    1    4    4  502    0 -0.22894444025E+02 -0.38062106050E+02 -0.20756522191E+02  0.49252438494E+02  0.47000000000E+01 0. -1.
         -5    1    4    4    0  502  0.65476353811E+01  0.26813361505E+02  0.36169636155E+02  0.45740140619E+02  0.47000000000E+01 0.  1.
          5    1    3    3  503    0  0.51145355520E+02 -0.16296220303E+02  0.41893050831E+02  0.68253438707E+02  0.47000000000E+01 0.  1.
         -5    1    3    3    0  503 -0.34798546877E+02  0.27544964848E+02  0.27209322074E+02  0.52269505076E+02  0.47000000000E+01 0. -1.
<mgrwt>
<rscale>  0 0.97467879E+02</rscale>
<asrwt>0</asrwt>
<pdfrwt beam="1">  1        1 0.10076926E-01 0.98745339E+02</pdfrwt>
<pdfrwt beam="2">  1       -1 0.23079308E-01 0.98745339E+02</pdfrwt>
<totfact> 0.92455250E+03</totfact>
</mgrwt>
</event>
<event>
 8    1  0.3400573E-004  0.9639098E+02  0.7546771E-02  0.1292468E+00
          2   -1    0    0  501    0  0.00000000000E+00  0.00000000000E+00  0.69453077149E+03  0.69453077149E+03  0.00000000000E+00 0. -1.
         -2   -1    0    0    0  501 -0.00000000000E+00 -0.00000000000E+00 -0.18715422635E+02  0.18715422635E+02  0.00000000000E+00 0.  1.
         23    2    1    2    0    0 -0.19123890428E+02 -0.26060485755E+02  0.13907347918E+03  0.16921186004E+03  0.90809409555E+02 0.  0.
         23    2    1    2    0    0  0.19123890428E+02  0.26060485755E+02  0.53674186968E+03  0.54403433409E+03  0.82684036542E+02 0.  0.
          5    1    4    4  502    0 -0.18115467514E+02  0.39300372263E+02  0.37268366200E+03  0.37521712560E+03  0.47000000000E+01 0. -1.
         -5    1    3    3    0  503 -0.13969023497E+02 -0.48660886013E+02  0.33188336192E+02  0.60717140119E+02  0.47000000000E+01 0.  1.
          5    1    3    3  503    0 -0.51548669316E+01  0.22600400258E+02  0.10588514299E+03  0.10849471992E+03  0.47000000000E+01 0. -1.
         -5    1    4    4    0  502  0.37239357943E+02 -0.13239886508E+02  0.16405820768E+03  0.16881720849E+03  0.47000000000E+01 0.  1.
<mgrwt>
<rscale>  0 0.94428601E+02</rscale>
<asrwt>0</asrwt>
<pdfrwt beam="1">  1        2 0.10685087E+00 0.96390980E+02</pdfrwt>
<pdfrwt beam="2">  1       -2 0.28792963E-02 0.96390980E+02</pdfrwt>
<totfact> 0.17565811E+04</totfact>
</mgrwt>
</event>
<event>
 7    1  0.3400573E-004  0.3672167E+03  0.7546771E-02  0.1055762E+00
          2   -1    0    0  501    0  0.00000000000E+00  0.00000000000E+00  0.48531119001E+03  0.48531119001E+03  0.00000000000E+00 0. -1.
         -2   -1    0    0    0  501 -0.00000000000E+00 -0.00000000000E+00 -0.69464757541E+02  0.69464757541E+02  0.00000000000E+00 0.  1.
         23    2    1    2    0    0 -0.55452635642E+02  0.22003415686E+02  0.34031456299E+03  0.35722850488E+03  0.90769255885E+02 0.  0.
          5    1    1    2  502    0 -0.30322114494E+02  0.33259469164E+02  0.83624981907E+02  0.95083387169E+02  0.47000000000E+01 0. -1.
         -5    1    1    2    0  502  0.85774750136E+02 -0.55262884850E+02 -0.80931124218E+01  0.10246405551E+03  0.47000000000E+01 0.  1.
          5    1    3    3  503    0 -0.50448898987E+02 -0.28093338148E+02  0.19006402961E+03  0.19869764067E+03  0.47000000000E+01 0. -1.
         -5    1    3    3    0  503 -0.50037366546E+01  0.50096753834E+02  0.15025053338E+03  0.15853086421E+03  0.47000000000E+01 0.  1.
<mgrwt>
<rscale>  0 0.36721669E+03</rscale>
<asrwt>0</asrwt>
<pdfrwt beam="1">  1        2 0.74663258E-01 0.36721669E+03</pdfrwt>
<pdfrwt beam="2">  1       -2 0.10686886E-01 0.36721669E+03</pdfrwt>
<totfact> 0.38581281E+03</totfact>
</mgrwt>
</event>
<event>
 8    1  0.3400573E-004  0.1257003E+03  0.7546771E-02  0.1235148E+00
          2   -1    0    0  501    0  0.00000000000E+00  0.00000000000E+00  0.35158723384E+03  0.35158723384E+03  0.00000000000E+00 0. -1.
         -2   -1    0    0    0  501 -0.00000000000E+00 -0.00000000000E+00 -0.61034811841E+02  0.61034811841E+02  0.00000000000E+00 0.  1.
         23    2    1    2    0    0  0.78904549882E+02  0.22057024265E+02  0.34661472461E+02  0.12752427259E+03  0.91370575758E+02 0.  0.
         23    2    1    2    0    0 -0.78904549882E+02 -0.22057024265E+02  0.25589094953E+03  0.28509777309E+03  0.95331641416E+02 0.  0.
          5    1    3    3  502    0  0.24660853359E+01  0.33883963624E+02 -0.12852938986E+02  0.36626392238E+02  0.47000000000E+01 0. -1.
         -5    1    4    4    0  503 -0.29193761519E+02 -0.55867002039E+02  0.10437871866E+03  0.12202624528E+03  0.47000000000E+01 0. -1.
          5    1    4    4  503    0 -0.49710788364E+02  0.33809977774E+02  0.15151223088E+03  0.16307152781E+03  0.47000000000E+01 0. -1.
         -5    1    3    3    0  502  0.76438464547E+02 -0.11826939359E+02  0.47514411448E+02  0.90897880350E+02  0.47000000000E+01 0.  1.
<mgrwt>
<rscale>  0 0.12494935E+03</rscale>
<asrwt>0</asrwt>
<pdfrwt beam="1">  1        2 0.54090343E-01 0.12570029E+03</pdfrwt>
<pdfrwt beam="2">  1       -2 0.93899712E-02 0.12570029E+03</pdfrwt>
<totfact> 0.64169598E+03</totfact>
</mgrwt>
</event>
<event>
 8    1  0.3400573E-004  0.9885887E+02  0.7546771E-02  0.1285196E+00
          4   -1    0    0  501    0  0.00000000000E+00  0.00000000000E+00  0.64152498241E+02  0.64152498241E+02  0.00000000000E+00 0. -1.
         -4   -1    0    0    0  501 -0.00000000000E+00 -0.00000000000E+00 -0.15995645025E+03  0.15995645025E+03  0.00000000000E+00 0.  1.
         23    2    1    2    0    0 -0.15755143056E+02 -0.22608466202E+02 -0.82677880945E+02  0.12887477842E+03  0.94940556342E+02 0.  0.
         23    2    1    2    0    0  0.15755143056E+02  0.22608466202E+02 -0.13126071062E+02  0.95234170068E+02  0.90210232958E+02 0.  0.
          5    1    3    3  502    0 -0.45855602520E+02 -0.16103491768E+02 -0.84582735669E+02  0.97664670700E+02  0.47000000000E+01 0. -1.
         -5    1    4    4    0  503  0.29763086804E+02  0.52045373054E+02 -0.10334560749E+01  0.60147487262E+02  0.47000000000E+01 0.  1.
          5    1    4    4  503    0 -0.14007943749E+02 -0.29436906852E+02 -0.12092614987E+02  0.35086682806E+02  0.47000000000E+01 0. -1.
         -5    1    3    3    0  502  0.30100459465E+02 -0.65049744339E+01  0.19048547242E+01  0.31210107720E+02  0.47000000000E+01 0.  1.
<mgrwt>
<rscale>  0 0.97705437E+02</rscale>
<asrwt>0</asrwt>
<pdfrwt beam="1">  1        4 0.98696152E-02 0.98858872E+02</pdfrwt>
<pdfrwt beam="2">  1       -4 0.24608684E-01 0.98858872E+02</pdfrwt>
<totfact> 0.18242762E+03</totfact>
</mgrwt>
</event>
<event>
 8    1  0.3400573E-004  0.1051687E+03  0.7546771E-02  0.1270559E+00
          2   -1    0    0  501    0  0.00000000000E+00  0.00000000000E+00  0.97973290561E+02  0.97973290561E+02  0.00000000000E+00 0. -1.
         -2   -1    0    0    0  501 -0.00000000000E+00 -0.00000000000E+00 -0.11974923901E+03  0.11974923901E+03  0.00000000000E+00 0.  1.
         23    2    1    2    0    0  0.20221150836E+02 -0.48221650031E+02 -0.39853607734E+02  0.11101147134E+03  0.89448388736E+02 0.  0.
         23    2    1    2    0    0 -0.20221150836E+02  0.48221650031E+02  0.18077659288E+02  0.10671105822E+03  0.91248154553E+02 0.  0.
          5    1    4    4  502    0 -0.42854220304E+02  0.10099744271E+02  0.37554397553E+02  0.58059553975E+02  0.47000000000E+01 0. -1.
         -5    1    3    3    0  503 -0.25247978297E+02 -0.43929230790E+02 -0.40592797817E+02  0.65093033118E+02  0.47000000000E+01 0.  1.
          5    1    3    3  503    0  0.45469129133E+02 -0.42924192406E+01  0.73919008290E+00  0.45918438225E+02  0.47000000000E+01 0. -1.
         -5    1    4    4    0  502  0.22633069468E+02  0.38121905760E+02 -0.19476738265E+02  0.48651504250E+02  0.47000000000E+01 0.  1.
<mgrwt>
<rscale>  0 0.10477706E+03</rscale>
<asrwt>0</asrwt>
<pdfrwt beam="1">  1        2 0.15072814E-01 0.10516867E+03</pdfrwt>
<pdfrwt beam="2">  1       -2 0.18422960E-01 0.10516867E+03</pdfrwt>
<totfact> 0.86478002E+03</totfact>
</mgrwt>
</event>
<event>
 8    1  0.3400573E-004  0.9568228E+02  0.7546771E-02  0.1290962E+00
         -1   -1    0    0    0  501 -0.00000000000E+00  0.00000000000E+00  0.48862109523E+02  0.48862109523E+02  0.00000000000E+00 0.  1.
          1   -1    0    0  501    0  0.00000000000E+00 -0.00000000000E+00 -0.58310941965E+03  0.58310941965E+03  0.00000000000E+00 0. -1.
         23    2    1    2    0    0 -0.36041764905E+01  0.21832773196E+02 -0.63606028575E+01  0.95893464671E+02  0.93088340969E+02 0.  0.
         23    2    1    2    0    0  0.36041764905E+01 -0.21832773196E+02 -0.52788670727E+03  0.53607806451E+03  0.90695399309E+02 0.  0.
          5    1    4    4  502    0  0.17095975469E+02 -0.54341949965E+02 -0.29319246034E+03  0.29871261892E+03  0.47000000000E+01 0. -1.
         -5    1    4    4    0  502 -0.13491798979E+02  0.32509176769E+02 -0.23469424693E+03  0.23736544558E+03  0.47000000000E+01 0.  1.
          5    1    3    3  503    0  0.25016121111E+02 -0.28090163523E+02 -0.38527668498E+01  0.38102459429E+02  0.47000000000E+01 0. -1.
         -5    1    3    3    0  503 -0.28620297602E+02  0.49922936718E+02 -0.25078360078E+01  0.57791005242E+02  0.47000000000E+01 0.  1.
<mgrwt>
<rscale>  0 0.95095296E+02</rscale>
<asrwt>0</asrwt>
<pdfrwt beam="1">  1        1 0.89709141E-01 0.95682283E+02</pdfrwt>
<pdfrwt beam="2">  1       -1 0.75172476E-02 0.95682283E+02</pdfrwt>
<totfact> 0.33258817E+03</totfact>
</mgrwt>
</event>
<event>
 8    1  0.3400573E-004  0.9815757E+02  0.7546771E-02  0.1284907E+00
         -1   -1    0    0    0  501 -0.00000000000E+00  0.00000000000E+00  0.46583382453E+02  0.46583382453E+02  0.00000000000E+00 0.  1.
          1   -1    0    0  501    0  0.00000000000E+00 -0.00000000000E+00 -0.40088632737E+03  0.40088632737E+03  0.00000000000E+00 0. -1.
         23    2    1    2    0    0  0.14364179337E+02  0.96360702781E+01 -0.21012201460E+02  0.10038137726E+03  0.96621554490E+02 0.  0.
         23    2    1    2    0    0 -0.14364179337E+02 -0.96360702781E+01 -0.33329074345E+03  0.34708833256E+03  0.95333139193E+02 0.  0.
          5    1    4    4  502    0 -0.14092297465E+02 -0.33680079574E+02 -0.31333295926E+03  0.31548783489E+03  0.47000000000E+01 0. -1.
         -5    1    3    3    0  503  0.39101052677E+02  0.33030679321E+02  0.11937442316E+02  0.52768462417E+02  0.47000000000E+01 0.  1.
          5    1    3    3  503    0 -0.24736873340E+02 -0.23394609043E+02 -0.32949643776E+02  0.47612914843E+02  0.47000000000E+01 0. -1.
         -5    1    4    4    0  502 -0.27188187241E+00  0.24044009296E+02 -0.19957784195E+02  0.31600497666E+02  0.47000000000E+01 0.  1.
<mgrwt>
<rscale>  0 0.97839025E+02</rscale>
<asrwt>0</asrwt>
<pdfrwt beam="1">  1        1 0.61674817E-01 0.98157569E+02</pdfrwt>
<pdfrwt beam="2">  1       -1 0.71666745E-02 0.98157569E+02</pdfrwt>
<totfact> 0.57835590E+03</totfact>
</mgrwt>
</event>
<event>
 8    1  0.3400573E-004  0.9858056E+02  0.7546771E-02  0.1283886E+00
          3   -1    0    0  501    0  0.00000000000E+00  0.00000000000E+00  0.72248801159E+02  0.72248801159E+02  0.00000000000E+00 0. -1.
         -3   -1    0    0    0  501 -0.00000000000E+00 -0.00000000000E+00 -0.13674138948E+03  0.13674138948E+03  0.00000000000E+00 0.  1.
         23    2    1    2    0    0  0.30196657373E+02  0.55790820957E+01 -0.49580025343E+02  0.11034629647E+03  0.93675834444E+02 0.  0.
         23    2    1    2    0    0 -0.30196657373E+02 -0.55790820957E+01 -0.14912562980E+02  0.98643894167E+02  0.92548738772E+02 0.  0.
          5    1    3    3  502    0  0.39260682246E+02  0.39511304657E+02 -0.49868681383E+02  0.74910077753E+02  0.47000000000E+01 0. -1.
         -5    1    4    4    0  503  0.17493206811E+02 -0.34971166568E+02 -0.15762126008E+02  0.42420860339E+02  0.47000000000E+01 0.  1.
          5    1    4    4  503    0 -0.47689864184E+02  0.29392084472E+02  0.84956302829E+00  0.56223033828E+02  0.47000000000E+01 0. -1.
         -5    1    3    3    0  502 -0.90640248734E+01 -0.33932222561E+02  0.28865603999E+00  0.35436218720E+02  0.47000000000E+01 0.  1.
<mgrwt>
<rscale>  0 0.98311864E+02</rscale>
<asrwt>0</asrwt>
<pdfrwt beam="1">  1        3 0.11115200E-01 0.98580557E+02</pdfrwt>
<pdfrwt beam="2">  1       -3 0.21037137E-01 0.98580557E+02</pdfrwt>
<totfact> 0.27244338E+03</totfact>
</mgrwt>
</event>
<event>
 8    1  0.3400573E-004  0.1404760E+03  0.7546771E-02  0.1213570E+00
         -2   -1    0    0    0  501 -0.00000000000E+00  0.00000000000E+00  0.56216128021E+02  0.56216128021E+02  0.00000000000E+00 0.  1.
          2   -1    0    0  501    0  0.00000000000E+00 -0.00000000000E+00 -0.40892258378E+03  0.40892258378E+03  0.00000000000E+00 0. -1.
         23    2    1    2    0    0 -0.32801428026E+02 -0.97779696084E+02 -0.85477453131E+02  0.16443811130E+03  0.95376594651E+02 0.  0.
         23    2    1    2    0    0  0.32801428026E+02  0.97779696084E+02 -0.26722900263E+03  0.30070060051E+03  0.91502506246E+02 0.  0.
          5    1    3    3  502    0 -0.39336965456E+02 -0.19239089030E+02 -0.71915765335E+02  0.84329749802E+02  0.47000000000E+01 0. -1.
         -5    1    3    3    0  502  0.65355374304E+01 -0.78540607054E+02 -0.13561687796E+02  0.80108361497E+02  0.47000000000E+01 0.  1.
          5    1    4    4  503    0 -0.84363509596E+01  0.78755787399E+02 -0.22472586505E+03  0.23832215694E+03  0.47000000000E+01 0. -1.
         -5    1    4    4    0  503  0.41237778986E+02  0.19023908685E+02 -0.42503137587E+02  0.62378443569E+02  0.47000000000E+01 0.  1.
<mgrwt>
<rscale>  0 0.13982116E+03</rscale>
<asrwt>0</asrwt>
<pdfrwt beam="1">  1        2 0.62911169E-01 0.14047597E+03</pdfrwt>
<pdfrwt beam="2">  1       -2 0.86486348E-02 0.14047597E+03</pdfrwt>
<totfact> 0.62523282E+03</totfact>
</mgrwt>
</event>
<event>
 8    1  0.3400573E-004  0.9688510E+02  0.7546771E-02  0.1290481E+00
          2   -1    0    0  501    0  0.00000000000E+00  0.00000000000E+00  0.30708270694E+03  0.30708270694E+03  0.00000000000E+00 0. -1.
         -2   -1    0    0    0  501 -0.00000000000E+00 -0.00000000000E+00 -0.28948483457E+02  0.28948483457E+02  0.00000000000E+00 0.  1.
         23    2    1    2    0    0  0.23552962528E+02 -0.15769187903E+00  0.12674280761E+03  0.15953201123E+03  0.93978489111E+02 0.  0.
         23    2    1    2    0    0 -0.23552962528E+02  0.15769187903E+00  0.15139141588E+03  0.17649917917E+03  0.87623241986E+02 0.  0.
          5    1    3    3  502    0  0.23399942627E+02 -0.31908560030E+02  0.12038877931E+03  0.12681191466E+03  0.47000000000E+01 0. -1.
         -5    1    4    4    0  503 -0.39171767331E+01  0.39692263467E+02  0.40427375030E+02  0.56984934014E+02  0.47000000000E+01 0.  1.
          5    1    4    4  503    0 -0.19635785795E+02 -0.39534571588E+02  0.11096404085E+03  0.11951424516E+03  0.47000000000E+01 0. -1.
         -5    1    3    3    0  502  0.15301990116E+00  0.31750868151E+02  0.63540283009E+01  0.32720096563E+02  0.47000000000E+01 0.  1.
<mgrwt>
<rscale>  0 0.95309212E+02</rscale>
<asrwt>0</asrwt>
<pdfrwt beam="1">  1        2 0.47243491E-01 0.96885104E+02</pdfrwt>
<pdfrwt beam="2">  1       -2 0.44536130E-02 0.96885104E+02</pdfrwt>
<totfact> 0.22436566E+04</totfact>
</mgrwt>
</event>
<event>
 8    1  0.3400573E-004  0.9462251E+02  0.7546771E-02  0.1293262E+00
         -2   -1    0    0    0  501 -0.00000000000E+00  0.00000000000E+00  0.35470822914E+02  0.35470822914E+02  0.00000000000E+00 0.  1.
          2   -1    0    0  501    0  0.00000000000E+00 -0.00000000000E+00 -0.29884388068E+03  0.29884388068E+03  0.00000000000E+00 0. -1.
         23    2    1    2    0    0 -0.16995231939E+02 -0.18987842442E+01 -0.20275265418E+03  0.22374551894E+03  0.93064360427E+02 0.  0.
         23    2    1    2    0    0  0.16995231939E+02  0.18987842442E+01 -0.60620403593E+02  0.11056918465E+03  0.90875012918E+02 0.  0.
          5    1    3    3  502    0 -0.49154637869E+02 -0.29176571953E+01 -0.17206659782E+03  0.17903545804E+03  0.47000000000E+01 0. -1.
         -5    1    4    4    0  503  0.37863946780E+02 -0.21408763340E+02 -0.18078404518E+01  0.43787805387E+02  0.47000000000E+01 0.  1.
          5    1    4    4  503    0 -0.20868714841E+02  0.23307547584E+02 -0.58812563141E+02  0.66781379266E+02  0.47000000000E+01 0. -1.
         -5    1    3    3    0  502  0.32159405930E+02  0.10188729512E+01 -0.30686056351E+02  0.44710060906E+02  0.47000000000E+01 0.  1.
<mgrwt>
<rscale>  0 0.94079741E+02</rscale>
<asrwt>0</asrwt>
<pdfrwt beam="1">  1        2 0.45975981E-01 0.94622505E+02</pdfrwt>
<pdfrwt beam="2">  1       -2 0.54570498E-02 0.94622505E+02</pdfrwt>
<totfact> 0.17024401E+04</totfact>
</mgrwt>
</event>
<event>
 8    1  0.3400573E-004  0.9995478E+02  0.7546771E-02  0.1282304E+00
         -1   -1    0    0    0  501 -0.00000000000E+00  0.00000000000E+00  0.16777184176E+02  0.16777184176E+02  0.00000000000E+00 0.  1.
          1   -1    0    0  501    0  0.00000000000E+00 -0.00000000000E+00 -0.57627766984E+03  0.57627766984E+03  0.00000000000E+00 0. -1.
         23    2    1    2    0    0 -0.31322349965E+02  0.10072686987E+02 -0.29138788514E+03  0.30691620667E+03  0.90598618553E+02 0.  0.
         23    2    1    2    0    0  0.31322349965E+02 -0.10072686987E+02 -0.26811260053E+03  0.28613864734E+03  0.94384375358E+02 0.  0.
          5    1    3    3  502    0 -0.55009595484E+02  0.31827679087E+02 -0.18450929453E+03  0.19520457607E+03  0.47000000000E+01 0. -1.
         -5    1    3    3    0  502  0.23687245519E+02 -0.21754992100E+02 -0.10687859060E+03  0.11171163060E+03  0.47000000000E+01 0.  1.
          5    1    4    4  503    0 -0.23581148222E+02 -0.25894020680E+02 -0.15902285802E+03  0.16290159678E+03  0.47000000000E+01 0. -1.
         -5    1    4    4    0  503  0.54903498187E+02  0.15821333692E+02 -0.10908974251E+03  0.12323705057E+03  0.47000000000E+01 0.  1.
<mgrwt>
<rscale>  0 0.99050917E+02</rscale>
<asrwt>0</asrwt>
<pdfrwt beam="1">  1        1 0.88658099E-01 0.99954784E+02</pdfrwt>
<pdfrwt beam="2">  1       -1 0.25811054E-02 0.99954784E+02</pdfrwt>
<totfact> 0.16160833E+04</totfact>
</mgrwt>
</event>
<event>
 8    1  0.3400573E-004  0.1313169E+03  0.7546771E-02  0.1225615E+00
         -2   -1    0    0    0  501 -0.00000000000E+00  0.00000000000E+00  0.79788139505E+02  0.79788139505E+02  0.00000000000E+00 0.  1.
          2   -1    0    0  501    0  0.00000000000E+00 -0.00000000000E+00 -0.31624984497E+03  0.31624984497E+03  0.00000000000E+00 0. -1.
         23    2    1    2    0    0  0.62156847195E+02  0.70985324900E+02 -0.64771595465E+01  0.13120404648E+03  0.90940410226E+02 0.  0.
         23    2    1    2    0    0 -0.62156847195E+02 -0.70985324900E+02 -0.22998454591E+03  0.26483393799E+03  0.91333090112E+02 0.  0.
          5    1    3    3  502    0 -0.17087718290E+02  0.23675290290E+02 -0.22824312178E+02  0.37357043687E+02  0.47000000000E+01 0. -1.
         -5    1    3    3    0  502  0.79244565485E+02  0.47310034609E+02  0.16347152631E+02  0.93847002790E+02  0.47000000000E+01 0.  1.
          5    1    4    4  503    0 -0.85515707148E+02 -0.62478264775E+02 -0.18654998153E+03  0.21456806693E+03  0.47000000000E+01 0. -1.
         -5    1    4    4    0  503  0.23358859953E+02 -0.85070601242E+01 -0.43434564388E+02  0.50265871064E+02  0.47000000000E+01 0.  1.
<mgrwt>
<rscale>  0 0.13124863E+03</rscale>
<asrwt>0</asrwt>
<pdfrwt beam="1">  1        2 0.48653822E-01 0.13131688E+03</pdfrwt>
<pdfrwt beam="2">  1       -2 0.12275098E-01 0.13131688E+03</pdfrwt>
<totfact> 0.47150256E+03</totfact>
</mgrwt>
</event>
<event>
 8    1  0.3400573E-004  0.1104989E+03  0.7546771E-02  0.1259944E+00
          2   -1    0    0  501    0  0.00000000000E+00  0.00000000000E+00  0.49117728714E+02  0.49117728714E+02  0.00000000000E+00 0. -1.
         -2   -1    0    0    0  501 -0.00000000000E+00 -0.00000000000E+00 -0.32288476626E+03  0.32288476626E+03  0.00000000000E+00 0.  1.
         23    2    1    2    0    0  0.21417654812E+02  0.59538340186E+02 -0.22726886181E+03  0.25270761290E+03  0.90589580978E+02 0.  0.
         23    2    1    2    0    0 -0.21417654812E+02 -0.59538340186E+02 -0.46498175737E+02  0.11929488207E+03  0.89809012083E+02 0.  0.
          5    1    3    3  502    0 -0.22049939285E+02  0.33383470416E+02 -0.33621423090E+02  0.52470429864E+02  0.47000000000E+01 0. -1.
         -5    1    3    3    0  502  0.43467594098E+02  0.26154869770E+02 -0.19364743872E+03  0.20023718304E+03  0.47000000000E+01 0.  1.
          5    1    4    4  503    0 -0.36355583094E+02 -0.30856535035E+02  0.14528059644E+02  0.50070037881E+02  0.47000000000E+01 0. -1.
         -5    1    4    4    0  503  0.14937928281E+02 -0.28681805151E+02 -0.61026235381E+02  0.69224844188E+02  0.47000000000E+01 0.  1.
<mgrwt>
<rscale>  0 0.11033878E+03</rscale>
<asrwt>0</asrwt>
<pdfrwt beam="1">  1        2 0.75565740E-02 0.11049888E+03</pdfrwt>
<pdfrwt beam="2">  1       -2 0.49674577E-01 0.11049888E+03</pdfrwt>
<totfact> 0.33574988E+03</totfact>
</mgrwt>
</event>
<event>
 8    1  0.3400573E-004  0.9715219E+02  0.7546771E-02  0.1287259E+00
          4   -1    0    0  501    0  0.00000000000E+00  0.00000000000E+00  0.71327478872E+03  0.71327478872E+03  0.00000000000E+00 0. -1.
         -4   -1    0    0    0  501 -0.00000000000E+00 -0.00000000000E+00 -0.13322724137E+02  0.13322724137E+02  0.00000000000E+00 0.  1.
         23    2    1    2    0    0  0.32383079559E+02  0.15417678899E+02  0.40184234904E+03  0.41305652580E+03  0.88611801481E+02 0.  0.
         23    2    1    2    0    0 -0.32383079559E+02 -0.15417678899E+02  0.29810971554E+03  0.31354098705E+03  0.90289420187E+02 0.  0.
          5    1    4    4  502    0 -0.57095282495E+02 -0.26046826504E+02  0.25385041692E+03  0.26153476370E+03  0.47000000000E+01 0. -1.
         -5    1    3    3    0  503  0.53710102165E+02  0.29712355583E+02  0.19276398788E+03  0.20235524251E+03  0.47000000000E+01 0.  1.
          5    1    3    3  503    0 -0.21327022606E+02 -0.14294676684E+02  0.20907836116E+03  0.21070128329E+03  0.47000000000E+01 0. -1.
         -5    1    4    4    0  502  0.24712202937E+02  0.10629147605E+02  0.44259298621E+02  0.52006223350E+02  0.47000000000E+01 0.  1.
<mgrwt>
<rscale>  0 0.96760552E+02</rscale>
<asrwt>0</asrwt>
<pdfrwt beam="1">  1        4 0.10973455E+00 0.97152190E+02</pdfrwt>
<pdfrwt beam="2">  1       -4 0.20496504E-02 0.97152190E+02</pdfrwt>
<totfact> 0.10333168E+03</totfact>
</mgrwt>
</event>
<event>
 8    1  0.3400573E-004  0.9699907E+02  0.7546771E-02  0.1286911E+00
         -2   -1    0    0    0  501 -0.00000000000E+00  0.00000000000E+00  0.14350254452E+03  0.14350254452E+03  0.00000000000E+00 0.  1.
          2   -1    0    0  501    0  0.00000000000E+00 -0.00000000000E+00 -0.65398403820E+02  0.65398403820E+02  0.00000000000E+00 0. -1.
         23    2    1    2    0    0 -0.33854835077E+02  0.26852383171E+01  0.36274946571E+02  0.10356008711E+03  0.90859559381E+02 0.  0.
         23    2    1    2    0    0  0.33854835077E+02 -0.26852383171E+01  0.41829194127E+02  0.10534086123E+03  0.90518811303E+02 0.  0.
          5    1    3    3  502    0 -0.29352033643E+02  0.32166572016E+02 -0.13073963535E+02  0.45708300743E+02  0.47000000000E+01 0. -1.
         -5    1    4    4    0  503 -0.23545859316E+02 -0.22118898617E+02  0.27989946292E+02  0.43002095999E+02  0.47000000000E+01 0.  1.
          5    1    4    4  503    0  0.57400694393E+02  0.19433660299E+02  0.13839247836E+02  0.62338765228E+02  0.47000000000E+01 0. -1.
         -5    1    3    3    0  502 -0.45028014341E+01 -0.29481333699E+02  0.49348910106E+02  0.57851786369E+02  0.47000000000E+01 0.  1.
<mgrwt>
<rscale>  0 0.96919196E+02</rscale>
<asrwt>0</asrwt>
<pdfrwt beam="1">  1        2 0.10061293E-01 0.96999072E+02</pdfrwt>
<pdfrwt beam="2">  1       -2 0.22077314E-01 0.96999072E+02</pdfrwt>
<totfact> 0.10231695E+04</totfact>
</mgrwt>
</event>
<event>
 8    1  0.3400573E-004  0.9937117E+02  0.7546771E-02  0.1285090E+00
         -1   -1    0    0    0  501 -0.00000000000E+00  0.00000000000E+00  0.30216935098E+02  0.30216935098E+02  0.00000000000E+00 0.  1.
          1   -1    0    0  501    0  0.00000000000E+00 -0.00000000000E+00 -0.31267150642E+03  0.31267150642E+03  0.00000000000E+00 0. -1.
         23    2    1    2    0    0  0.19633553770E+02 -0.78220001508E+01 -0.11235602875E+03  0.14589061457E+03  0.90628550152E+02 0.  0.
         23    2    1    2    0    0 -0.19633553770E+02  0.78220001508E+01 -0.17009854256E+03  0.19699782694E+03  0.97097731786E+02 0.  0.
          5    1    3    3  502    0  0.26093324998E+02 -0.29688502265E+02 -0.11571485719E+03  0.12236946903E+03  0.47000000000E+01 0. -1.
         -5    1    4    4    0  503 -0.23934342997E+02  0.49652740027E+02 -0.77804713640E+02  0.95466804867E+02  0.47000000000E+01 0.  1.
          5    1    4    4  503    0  0.43007892270E+01 -0.41830739876E+02 -0.92293828923E+02  0.10153102208E+03  0.47000000000E+01 0. -1.
         -5    1    3    3    0  502 -0.64597712287E+01  0.21866502114E+02  0.33588284379E+01  0.23521145540E+02  0.47000000000E+01 0.  1.
<mgrwt>
<rscale>  0 0.97754388E+02</rscale>
<asrwt>0</asrwt>
<pdfrwt beam="1">  1        1 0.48103311E-01 0.99371171E+02</pdfrwt>
<pdfrwt beam="2">  1       -1 0.46487590E-02 0.99371171E+02</pdfrwt>
<totfact> 0.14900533E+04</totfact>
</mgrwt>
</event>
<event>
 8    1  0.3400573E-004  0.9134379E+02  0.7546771E-02  0.1301803E+00
          1   -1    0    0  501    0  0.00000000000E+00  0.00000000000E+00  0.26748642727E+03  0.26748642727E+03  0.00000000000E+00 0. -1.
         -1   -1    0    0    0  501 -0.00000000000E+00 -0.00000000000E+00 -0.32153977079E+02  0.32153977079E+02  0.00000000000E+00 0.  1.
         23    2    1    2    0    0  0.17598503477E+02 -0.15085864872E+02  0.80922502848E+02  0.12203335420E+03  0.88353819534E+02 0.  0.
         23    2    1    2    0    0 -0.17598503477E+02  0.15085864872E+02  0.15440994734E+03  0.17760705015E+03  0.84643616302E+02 0.  0.
          5    1    4    4  502    0  0.26263295167E+02  0.27642349086E+02  0.46254186802E+02  0.60128195821E+02  0.47000000000E+01 0. -1.
         -5    1    3    3    0  503  0.27924917817E+02 -0.48384938057E+02  0.46887941027E+02  0.73085376647E+02  0.47000000000E+01 0.  1.
          5    1    3    3  503    0 -0.10326414340E+02  0.33299073185E+02  0.34034561821E+02  0.48947977552E+02  0.47000000000E+01 0. -1.
         -5    1    4    4    0  502 -0.43861798644E+02 -0.12556484214E+02  0.10815576054E+03  0.11747885432E+03  0.47000000000E+01 0.  1.
<mgrwt>
<rscale>  0 0.90434373E+02</rscale>
<asrwt>0</asrwt>
<pdfrwt beam="1">  1        1 0.41151757E-01 0.91343791E+02</pdfrwt>
<pdfrwt beam="2">  1       -1 0.49467659E-02 0.91343791E+02</pdfrwt>
<totfact> 0.16331187E+04</totfact>
</mgrwt>
</event>
<event>
 8    1  0.3400573E-004  0.1092661E+03  0.7546771E-02  0.1266045E+00
         -1   -1    0    0    0  501 -0.00000000000E+00  0.00000000000E+00  0.11364567697E+03  0.11364567697E+03  0.00000000000E+00 0.  1.
          1   -1    0    0  501    0  0.00000000000E+00 -0.00000000000E+00 -0.10152954447E+03  0.10152954447E+03  0.00000000000E+00 0. -1.
         23    2    1    2    0    0  0.16693778508E+02 -0.24736260135E+02 -0.16605283101E+02  0.10219731361E+03  0.96322326981E+02 0.  0.
         23    2    1    2    0    0 -0.16693778508E+02  0.24736260135E+02  0.28721415601E+02  0.11297790784E+03  0.10511195527E+03 0.  0.
          5    1    3    3  502    0  0.19537496053E+02  0.26072989711E+02 -0.34844467511E+02  0.47934762548E+02  0.47000000000E+01 0. -1.
         -5    1    3    3    0  502 -0.28437175445E+01 -0.50809249845E+02  0.18239184410E+02  0.54262551057E+02  0.47000000000E+01 0.  1.
          5    1    4    4  503    0  0.28649661396E+02 -0.78520449372E+01 -0.22104351329E+02  0.37324925391E+02  0.47000000000E+01 0. -1.
         -5    1    4    4    0  503 -0.45343439904E+02  0.32588305072E+02  0.50825766930E+02  0.75652982451E+02  0.47000000000E+01 0.  1.
<mgrwt>
<rscale>  0 0.10709559E+03</rscale>
<asrwt>0</asrwt>
<pdfrwt beam="1">  1        1 0.15619930E-01 0.10926613E+03</pdfrwt>
<pdfrwt beam="2">  1       -1 0.17483950E-01 0.10926613E+03</pdfrwt>
<totfact> 0.82239796E+03</totfact>
</mgrwt>
</event>
<event>
 8    1  0.3400573E-004  0.1643821E+03  0.7546771E-02  0.1184086E+00
         -2   -1    0    0    0  501 -0.00000000000E+00  0.00000000000E+00  0.97266330618E+02  0.97266330618E+02  0.00000000000E+00 0.  1.
          2   -1    0    0  501    0  0.00000000000E+00 -0.00000000000E+00 -0.38663236756E+03  0.38663236756E+03  0.00000000000E+00 0. -1.
         23    2    1    2    0    0 -0.37506745805E+02 -0.13106216399E+03 -0.27366200665E+03  0.31876816294E+03  0.90211978175E+02 0.  0.
         23    2    1    2    0    0  0.37506745805E+02  0.13106216399E+03 -0.15704030290E+02  0.16513053524E+03  0.91855485907E+02 0.  0.
          5    1    4    4  502    0  0.48852487174E+02  0.40717078890E+02 -0.33804421994E+02  0.72175307154E+02  0.47000000000E+01 0. -1.
         -5    1    4    4    0  502 -0.11345741369E+02  0.90345085101E+02  0.18100391704E+02  0.92955228088E+02  0.47000000000E+01 0.  1.
          5    1    3    3  503    0  0.48654977510E+00 -0.11480596668E+03 -0.23674630502E+03  0.26315689171E+03  0.47000000000E+01 0. -1.
         -5    1    3    3    0  503 -0.37993295580E+02 -0.16256197309E+02 -0.36915701636E+02  0.55611271225E+02  0.47000000000E+01 0.  1.
<mgrwt>
<rscale>  0 0.16415346E+03</rscale>
<asrwt>0</asrwt>
<pdfrwt beam="1">  1        2 0.59481902E-01 0.16438211E+03</pdfrwt>
<pdfrwt beam="2">  1       -2 0.14964051E-01 0.16438211E+03</pdfrwt>
<totfact> 0.27908091E+03</totfact>
</mgrwt>
</event>
<event>
 8    1  0.3400573E-004  0.9775290E+02  0.7546771E-02  0.1289693E+00
         -2   -1    0    0    0  501 -0.00000000000E+00  0.00000000000E+00  0.35825145254E+02  0.35825145254E+02  0.00000000000E+00 0.  1.
          2   -1    0    0  501    0  0.00000000000E+00 -0.00000000000E+00 -0.25201217234E+03  0.25201217234E+03  0.00000000000E+00 0. -1.
         23    2    1    2    0    0 -0.25555986779E+02 -0.18492709749E+02 -0.13648246584E+03  0.16787820931E+03  0.92523191180E+02 0.  0.
         23    2    1    2    0    0  0.25555986779E+02  0.18492709749E+02 -0.79704561247E+02  0.11995910828E+03  0.83918304333E+02 0.  0.
          5    1    4    4  502    0  0.40296790684E+02  0.35662450847E+02 -0.22969409621E+02  0.58696895302E+02  0.47000000000E+01 0. -1.
         -5    1    3    3    0  503  0.27256003054E+02 -0.30230457144E+02 -0.40578928551E+02  0.57667232325E+02  0.47000000000E+01 0.  1.
          5    1    3    3  503    0 -0.52811989833E+02  0.11737747395E+02 -0.95903537288E+02  0.11021097699E+03  0.47000000000E+01 0. -1.
         -5    1    4    4    0  502 -0.14740803905E+02 -0.17169741097E+02 -0.56735151627E+02  0.61262212980E+02  0.47000000000E+01 0.  1.
<mgrwt>
<rscale>  0 0.95661347E+02</rscale>
<asrwt>0</asrwt>
<pdfrwt beam="1">  1        2 0.38771103E-01 0.97752901E+02</pdfrwt>
<pdfrwt beam="2">  1       -2 0.55115609E-02 0.97752901E+02</pdfrwt>
<totfact> 0.20121910E+04</totfact>
</mgrwt>
</event>
<event>
 8    1  0.3400573E-004  0.1137159E+03  0.7546771E-02  0.1260424E+00
          1   -1    0    0  501    0  0.00000000000E+00  0.00000000000E+00  0.34543806679E+03  0.34543806679E+03  0.00000000000E+00 0. -1.
         -1   -1    0    0    0  501 -0.00000000000E+00 -0.00000000000E+00 -0.33072367782E+02  0.33072367782E+02  0.00000000000E+00 0.  1.
         23    2    1    2    0    0 -0.18808295447E+02 -0.31974931221E+02  0.15805990012E+03  0.19471575899E+03  0.10749486764E+03 0.  0.
         23    2    1    2    0    0  0.18808295447E+02  0.31974931221E+02  0.15430579889E+03  0.18379467559E+03  0.92704126114E+02 0.  0.
          5    1    4    4  502    0  0.43225340526E+02  0.50196671667E+02  0.12344604655E+03  0.14017543408E+03  0.47000000000E+01 0. -1.
         -5    1    4    4    0  502 -0.24417045079E+02 -0.18221740446E+02  0.30859752336E+02  0.43619241505E+02  0.47000000000E+01 0.  1.
          5    1    3    3  503    0 -0.21375956730E+02 -0.60771079635E+01  0.16565174227E+03  0.16720183158E+03  0.47000000000E+01 0. -1.
         -5    1    3    3    0  503  0.25676612822E+01 -0.25897823258E+02 -0.75918421514E+01  0.27513927404E+02  0.47000000000E+01 0.  1.
<mgrwt>
<rscale>  0 0.11007882E+03</rscale>
<asrwt>0</asrwt>
<pdfrwt beam="1">  1        1 0.53144316E-01 0.11371585E+03</pdfrwt>
<pdfrwt beam="2">  1       -1 0.50880568E-02 0.11371585E+03</pdfrwt>
<totfact> 0.11681763E+04</totfact>
</mgrwt>
</event>
<event>
 8    1  0.3400573E-004  0.1036850E+03  0.7546771E-02  0.1277945E+00
         -1   -1    0    0    0  501 -0.00000000000E+00  0.00000000000E+00  0.14737195625E+03  0.14737195625E+03  0.00000000000E+00 0.  1.
          1   -1    0    0  501    0  0.00000000000E+00 -0.00000000000E+00 -0.73463577629E+02  0.73463577629E+02  0.00000000000E+00 0. -1.
         23    2    1    2    0    0  0.13670920478E+01 -0.13475446799E+02  0.70033127080E+02  0.11707812902E+03  0.92839607923E+02 0.  0.
         23    2    1    2    0    0 -0.13670920478E+01  0.13475446799E+02  0.38752515373E+01  0.10375740485E+03  0.10279652173E+03 0.  0.
          5    1    3    3  502    0 -0.13393759576E+02  0.37639528439E+02  0.33739444033E+02  0.52503018774E+02  0.47000000000E+01 0. -1.
         -5    1    3    3    0  502  0.14760851624E+02 -0.51114975239E+02  0.36293683047E+02  0.64575110247E+02  0.47000000000E+01 0.  1.
          5    1    4    4  503    0 -0.18836043723E+01  0.58258535434E+02  0.51745902456E+01  0.58706654653E+02  0.47000000000E+01 0. -1.
         -5    1    4    4    0  503  0.51651232450E+00 -0.44783088634E+02 -0.12993387084E+01  0.45050750201E+02  0.47000000000E+01 0.  1.
<mgrwt>
<rscale>  0 0.10112619E+03</rscale>
<asrwt>0</asrwt>
<pdfrwt beam="1">  1        1 0.11302089E-01 0.10368501E+03</pdfrwt>
<pdfrwt beam="2">  1       -1 0.22672609E-01 0.10368501E+03</pdfrwt>
<totfact> 0.82229826E+03</totfact>
</mgrwt>
</event>
<event>
 8    1  0.3400573E-004  0.1527687E+03  0.7546771E-02  0.1199160E+00
         -4   -1    0    0    0  501 -0.00000000000E+00  0.00000000000E+00  0.12593963429E+03  0.12593963429E+03  0.00000000000E+00 0.  1.
          4   -1    0    0  501    0  0.00000000000E+00 -0.00000000000E+00 -0.20422133145E+03  0.20422133145E+03  0.00000000000E+00 0. -1.
         23    2    1    2    0    0  0.69869547672E+02 -0.94034665222E+02  0.20012438199E+02  0.15407393851E+03  0.98051052474E+02 0.  0.
         23    2    1    2    0    0 -0.69869547672E+02  0.94034665222E+02 -0.98294135362E+02  0.17608702723E+03  0.87296232195E+02 0.  0.
          5    1    4    4  502    0 -0.48614862736E+02  0.10600984287E+03 -0.62172253671E+02  0.13224587249E+03  0.47000000000E+01 0.  1.
         -5    1    3    3    0  503  0.17474239779E+02  0.15494091041E+02  0.22177808427E+02  0.32547827879E+02  0.47000000000E+01 0.  1.
          5    1    3    3  503    0  0.52395307892E+02 -0.10952875626E+03 -0.21653702276E+01  0.12152611063E+03  0.47000000000E+01 0. -1.
         -5    1    4    4    0  502 -0.21254684936E+02 -0.11975177650E+02 -0.36121881692E+02  0.43841154734E+02  0.47000000000E+01 0. -1.
<mgrwt>
<rscale>  0 0.15107326E+03</rscale>
<asrwt>0</asrwt>
<pdfrwt beam="1">  1        4 0.31418666E-01 0.15276872E+03</pdfrwt>
<pdfrwt beam="2">  1       -4 0.19375328E-01 0.15276872E+03</pdfrwt>
<totfact> 0.39507378E+02</totfact>
</mgrwt>
</event>
<event>
 8    1  0.3400573E-004  0.1119644E+03  0.7546771E-02  0.1259547E+00
          1   -1    0    0  501    0  0.00000000000E+00  0.00000000000E+00  0.44628224843E+03  0.44628224843E+03  0.00000000000E+00 0. -1.
         -1   -1    0    0    0  501 -0.00000000000E+00 -0.00000000000E+00 -0.14973989123E+03  0.14973989123E+03  0.00000000000E+00 0.  1.
         23    2    1    2    0    0  0.47331700032E+02 -0.25530149408E+02 -0.12250202567E+03  0.16227771924E+03  0.91843527332E+02 0.  0.
         23    2    1    2    0    0 -0.47331700032E+02  0.25530149408E+02  0.41904438286E+03  0.43374442042E+03  0.98203610339E+02 0.  0.
          5    1    3    3  502    0 -0.17389605345E+02 -0.17755158826E+02 -0.22244395980E+01  0.25390592166E+02  0.47000000000E+01 0. -1.
         -5    1    3    3    0  502  0.64721305377E+02 -0.77749905816E+01 -0.12027758607E+03  0.13688712707E+03  0.47000000000E+01 0.  1.
          5    1    4    4  503    0 -0.52370555819E+02 -0.82968659618E+01  0.36976093844E+03  0.37357295766E+03  0.47000000000E+01 0. -1.
         -5    1    4    4    0  503  0.50388557869E+01  0.33827015370E+02  0.49283444417E+02  0.60171462755E+02  0.47000000000E+01 0.  1.
<mgrwt>
<rscale>  0 0.11055435E+03</rscale>
<asrwt>0</asrwt>
<pdfrwt beam="1">  1        1 0.68658807E-01 0.11196440E+03</pdfrwt>
<pdfrwt beam="2">  1       -1 0.23036907E-01 0.11196440E+03</pdfrwt>
<totfact> 0.83709596E+02</totfact>
</mgrwt>
</event>
<event>
 8    1  0.3400573E-004  0.2254474E+03  0.7546771E-02  0.1130182E+00
         -2   -1    0    0    0  501 -0.00000000000E+00  0.00000000000E+00  0.12573750560E+03  0.12573750560E+03  0.00000000000E+00 0.  1.
          2   -1    0    0  501    0  0.00000000000E+00 -0.00000000000E+00 -0.41353657662E+03  0.41353657662E+03  0.00000000000E+00 0. -1.
         23    2    1    2    0    0  0.47454780536E+02 -0.19891372907E+03 -0.97016618815E+02  0.24393621950E+03  0.90961679018E+02 0.  0.
         23    2    1    2    0    0 -0.47454780536E+02  0.19891372907E+03 -0.19078245220E+03  0.29533786272E+03  0.94909858719E+02 0.  0.
          5    1    4    4  502    0 -0.10832846547E+02  0.61529604008E+02 -0.12238620158E+03  0.13749078176E+03  0.47000000000E+01 0. -1.
         -5    1    3    3    0  503  0.33876976357E+02 -0.16517288991E+03 -0.11393302382E+03  0.20354988825E+03  0.47000000000E+01 0.  1.
          5    1    3    3  503    0  0.13577804179E+02 -0.33740839155E+02  0.16916405010E+02  0.40386331248E+02  0.47000000000E+01 0. -1.
         -5    1    4    4    0  502 -0.36621933989E+02  0.13738412506E+03 -0.68396250624E+02  0.15784708096E+03  0.47000000000E+01 0.  1.
<mgrwt>
<rscale>  0 0.22503787E+03</rscale>
<asrwt>0</asrwt>
<pdfrwt beam="1">  1        2 0.63621013E-01 0.22544735E+03</pdfrwt>
<pdfrwt beam="2">  1       -2 0.19344231E-01 0.22544735E+03</pdfrwt>
<totfact> 0.17050159E+03</totfact>
</mgrwt>
</event>
<event>
 8    1  0.3400573E-004  0.9770632E+02  0.7546771E-02  0.1293784E+00
         -1   -1    0    0    0  501 -0.00000000000E+00  0.00000000000E+00  0.14674791012E+03  0.14674791012E+03  0.00000000000E+00 0.  1.
          1   -1    0    0  501    0  0.00000000000E+00 -0.00000000000E+00 -0.56070967971E+02  0.56070967971E+02  0.00000000000E+00 0. -1.
         23    2    1    2    0    0 -0.18219333082E+02 -0.29660301825E+02  0.49495405347E+02  0.96788487773E+02  0.75541634961E+02 0.  0.
         23    2    1    2    0    0  0.18219333082E+02  0.29660301825E+02  0.41181536798E+02  0.10603039031E+03  0.91295383755E+02 0.  0.
          5    1    4    4  502    0  0.41089994378E+02 -0.16329919274E+02  0.94019546964E+01  0.45448219477E+02  0.47000000000E+01 0. -1.
         -5    1    4    4    0  502 -0.22870661297E+02  0.45990221099E+02  0.31779582101E+02  0.60582170837E+02  0.47000000000E+01 0.  1.
          5    1    3    3  503    0  0.24563362651E+02 -0.24657851685E+01  0.36378129348E+02  0.44214219162E+02  0.47000000000E+01 0. -1.
         -5    1    3    3    0  503 -0.42782695733E+02 -0.27194516657E+02  0.13117275998E+02  0.52574268611E+02  0.47000000000E+01 0.  1.
<mgrwt>
<rscale>  0 0.93851508E+02</rscale>
<asrwt>0</asrwt>
<pdfrwt beam="1">  1        1 0.86263028E-02 0.97706319E+02</pdfrwt>
<pdfrwt beam="2">  1       -1 0.22576601E-01 0.97706319E+02</pdfrwt>
<totfact> 0.11745766E+04</totfact>
</mgrwt>
</event>
<event>
 8    1  0.3400573E-004  0.1370589E+03  0.7546771E-02  0.1217751E+00
          1   -1    0    0  501    0  0.00000000000E+00  0.00000000000E+00  0.10277796957E+04  0.10277796957E+04  0.00000000000E+00 0. -1.
         -1   -1    0    0    0  501 -0.00000000000E+00 -0.00000000000E+00 -0.18131053027E+02  0.18131053027E+02  0.00000000000E+00 0.  1.
         23    2    1    2    0    0  0.31968602950E+02  0.96855992568E+02  0.51940337463E+03  0.53718246434E+03  0.91553588370E+02 0.  0.
         23    2    1    2    0    0 -0.31968602950E+02 -0.96855992568E+02  0.49024526806E+03  0.50872828441E+03  0.89782902764E+02 0.  0.
          5    1    3    3  502    0  0.33383519825E+02  0.13215147862E+02  0.59061480905E+02  0.69278048873E+02  0.47000000000E+01 0. -1.
         -5    1    4    4    0  503  0.31350507659E+02 -0.29210037580E+02  0.15565932682E+03  0.16151779051E+03  0.47000000000E+01 0.  1.
          5    1    4    4  503    0 -0.63319110609E+02 -0.67645954988E+02  0.33458594124E+03  0.34721049389E+03  0.47000000000E+01 0. -1.
         -5    1    3    3    0  502 -0.14149168749E+01  0.83640844707E+02  0.46034189373E+03  0.46790441546E+03  0.47000000000E+01 0.  1.
<mgrwt>
<rscale>  0 0.13676382E+03</rscale>
<asrwt>0</asrwt>
<pdfrwt beam="1">  1        1 0.15811991E+00 0.13705887E+03</pdfrwt>
<pdfrwt beam="2">  1       -1 0.27893936E-02 0.13705887E+03</pdfrwt>
<totfact> 0.62332720E+03</totfact>
</mgrwt>
</event>
<event>
 8    1  0.3400573E-004  0.1298039E+03  0.7546771E-02  0.1228663E+00
         -2   -1    0    0    0  501 -0.00000000000E+00  0.00000000000E+00  0.14254174781E+03  0.14254174781E+03  0.00000000000E+00 0.  1.
          2   -1    0    0  501    0  0.00000000000E+00 -0.00000000000E+00 -0.18129120801E+03  0.18129120801E+03  0.00000000000E+00 0. -1.
         23    2    1    2    0    0 -0.10378272719E+02  0.89743066860E+02  0.77914311652E+02  0.14930647197E+03  0.89778928582E+02 0.  0.
         23    2    1    2    0    0  0.10378272719E+02 -0.89743066860E+02 -0.11666377185E+03  0.17452648385E+03  0.93206927367E+02 0.  0.
          5    1    3    3  502    0  0.26928834887E+02  0.54699428713E+02  0.67504017705E+01  0.61521114863E+02  0.47000000000E+01 0. -1.
         -5    1    3    3    0  502 -0.37307107606E+02  0.35043638147E+02  0.71163909881E+02  0.87785357105E+02  0.47000000000E+01 0.  1.
          5    1    4    4  503    0  0.42903556214E+02 -0.27974246745E+02 -0.19970269742E+02  0.55174045441E+02  0.47000000000E+01 0. -1.
         -5    1    4    4    0  503 -0.32525283495E+02 -0.61768820116E+02 -0.96693502103E+02  0.11935243841E+03  0.47000000000E+01 0.  1.
<mgrwt>
<rscale>  0 0.12918979E+03</rscale>
<asrwt>0</asrwt>
<pdfrwt beam="1">  1        2 0.27890955E-01 0.12980392E+03</pdfrwt>
<pdfrwt beam="2">  1       -2 0.21929500E-01 0.12980392E+03</pdfrwt>
<totfact> 0.32757373E+03</totfact>
</mgrwt>
</event>
<event>
 8    1  0.3400573E-004  0.9153142E+02  0.7546771E-02  0.1300330E+00
          4   -1    0    0  501    0  0.00000000000E+00  0.00000000000E+00  0.15546683168E+03  0.15546683168E+03  0.00000000000E+00 0. -1.
         -4   -1    0    0    0  501 -0.00000000000E+00 -0.00000000000E+00 -0.60084958737E+02  0.60084958737E+02  0.00000000000E+00 0.  1.
         23    2    1    2    0    0 -0.12443392598E+02  0.17689450316E+02  0.10527687228E+02  0.92134868164E+02  0.88939569717E+02 0.  0.
         23    2    1    2    0    0  0.12443392598E+02 -0.17689450316E+02  0.84854185715E+02  0.12341692225E+03  0.86969817712E+02 0.  0.
          5    1    3    3  502    0  0.14688785021E+02  0.41194460253E+02  0.27785923541E+02  0.52027795532E+02  0.47000000000E+01 0. -1.
         -5    1    3    3    0  502 -0.27132177619E+02 -0.23505009937E+02 -0.17258236313E+02  0.40107072632E+02  0.47000000000E+01 0.  1.
          5    1    4    4  503    0  0.42850878785E+02 -0.31346750509E+02  0.65995048302E+02  0.84830731345E+02  0.47000000000E+01 0. -1.
         -5    1    4    4    0  503 -0.30407486187E+02  0.13657300193E+02  0.18859137414E+02  0.38586190907E+02  0.47000000000E+01 0.  1.
<mgrwt>
<rscale>  0 0.91049439E+02</rscale>
<asrwt>0</asrwt>
<pdfrwt beam="1">  1        4 0.23917974E-01 0.91531425E+02</pdfrwt>
<pdfrwt beam="2">  1       -4 0.92438399E-02 0.91531425E+02</pdfrwt>
<totfact> 0.21015886E+03</totfact>
</mgrwt>
</event>
<event>
 8    1  0.3400573E-004  0.1141473E+03  0.7546771E-02  0.1253396E+00
          1   -1    0    0  501    0  0.00000000000E+00  0.00000000000E+00  0.10064007966E+04  0.10064007966E+04  0.00000000000E+00 0. -1.
         -1   -1    0    0    0  501 -0.00000000000E+00 -0.00000000000E+00 -0.27059726643E+02  0.27059726643E+02  0.00000000000E+00 0.  1.
         23    2    1    2    0    0  0.27744576765E+02 -0.62647479244E+02  0.86466229997E+03  0.87216426787E+03  0.91297037000E+02 0.  0.
         23    2    1    2    0    0 -0.27744576765E+02  0.62647479244E+02  0.11467876996E+03  0.16129625535E+03  0.90392441684E+02 0.  0.
          5    1    3    3  502    0  0.55320309072E+02 -0.56464109715E+02  0.74137920260E+03  0.74559623412E+03  0.47000000000E+01 0. -1.
         -5    1    4    4    0  503 -0.42071012834E+02 -0.61055077845E+01  0.48780852123E+02  0.64876104076E+02  0.47000000000E+01 0.  1.
          5    1    4    4  503    0  0.14326436069E+02  0.68752987029E+02  0.65897917839E+02  0.96420151272E+02  0.47000000000E+01 0. -1.
         -5    1    3    3    0  502 -0.27575732307E+02 -0.61833695289E+01  0.12328309737E+03  0.12656803375E+03  0.47000000000E+01 0.  1.
<mgrwt>
<rscale>  0 0.11396637E+03</rscale>
<asrwt>0</asrwt>
<pdfrwt beam="1">  1        1 0.15483086E+00 0.11414735E+03</pdfrwt>
<pdfrwt beam="2">  1       -1 0.41630356E-02 0.11414735E+03</pdfrwt>
<totfact> 0.35766520E+03</totfact>
</mgrwt>
</event>
<event>
 7    1  0.3400573E-004  0.2502425E+03  0.7546771E-02  0.1119093E+00
          1   -1    0    0  501    0  0.00000000000E+00  0.00000000000E+00  0.37897563537E+03  0.37897563537E+03  0.00000000000E+00 0. -1.
         -1   -1    0    0    0  501 -0.00000000000E+00 -0.00000000000E+00 -0.20265702374E+03  0.20265702374E+03  0.00000000000E+00 0.  1.
         23    2    1    2    0    0 -0.32821243764E+02 -0.19313701067E+03  0.24089446647E+03  0.32319247594E+03  0.89688871065E+02 0.  0.
          5    1    3    3  502    0 -0.20049263568E+02 -0.17675532828E+03  0.15920821142E+03  0.23877555073E+03  0.47000000000E+01 0. -1.
         -5    1    3    3    0  502 -0.12771980195E+02 -0.16381682391E+02  0.81686255057E+02  0.84416925206E+02  0.47000000000E+01 0.  1.
          5    1    1    2  503    0 -0.34893157615E+02  0.27623827457E+02  0.32122711121E+02  0.55086902812E+02  0.47000000000E+01 0. -1.
         -5    1    1    2    0  503  0.67714401378E+02  0.16551318322E+03 -0.96698565960E+02  0.20335328035E+03  0.47000000000E+01 0.  1.
<mgrwt>
<rscale>  0 0.24105307E+03</rscale>
<asrwt>0</asrwt>
<pdfrwt beam="1">  1        1 0.58303944E-01 0.25024246E+03</pdfrwt>
<pdfrwt beam="2">  1       -1 0.31178004E-01 0.25024246E+03</pdfrwt>
<totfact> 0.62404722E+02</totfact>
</mgrwt>
</event>
<event>
 8    1  0.3400573E-004  0.1088889E+03  0.7546771E-02  0.1269338E+00
         -1   -1    0    0    0  501 -0.00000000000E+00  0.00000000000E+00  0.63395048764E+02  0.63395048764E+02  0.00000000000E+00 0.  1.
          1   -1    0    0  501    0  0.00000000000E+00 -0.00000000000E+00 -0.33965444795E+03  0.33965444795E+03  0.00000000000E+00 0. -1.
         23    2    1    2    0    0  0.71620433876E+01  0.33977552172E+02 -0.27818083052E+03  0.29414369176E+03  0.89051490824E+02 0.  0.
         23    2    1    2    0    0 -0.71620433876E+01 -0.33977552172E+02  0.19214313347E+01  0.10890580495E+03  0.10320374769E+03 0.  0.
          5    1    4    4  502    0 -0.64961356446E+01  0.30674067815E+02 -0.23300998435E+02  0.39346216371E+02  0.47000000000E+01 0. -1.
         -5    1    4    4    0  502 -0.66590774298E+00 -0.64651619987E+02  0.25222429769E+02  0.69559588581E+02  0.47000000000E+01 0.  1.
          5    1    3    3  503    0 -0.26596497369E+02  0.42950602528E+02 -0.95979149990E+02  0.10856433651E+03  0.47000000000E+01 0. -1.
         -5    1    3    3    0  503  0.33758540757E+02 -0.89730503567E+01 -0.18220168053E+03  0.18557935525E+03  0.47000000000E+01 0.  1.
<mgrwt>
<rscale>  0 0.10539784E+03</rscale>
<asrwt>0</asrwt>
<pdfrwt beam="1">  1        1 0.52254529E-01 0.10888885E+03</pdfrwt>
<pdfrwt beam="2">  1       -1 0.97530846E-02 0.10888885E+03</pdfrwt>
<totfact> 0.45024780E+03</totfact>
</mgrwt>
</event>
<event>
 8    1  0.4470232E-004  0.1092028E+03  0.7546771E-02  0.1263297E+00
          2   -1    0    0  501    0  0.00000000000E+00  0.00000000000E+00  0.12591404250E+03  0.12591404250E+03  0.00000000000E+00 0. -1.
         -2   -1    0    0    0  501 -0.00000000000E+00 -0.00000000000E+00 -0.25881536587E+03  0.25881536587E+03  0.00000000000E+00 0.  1.
         23    2    1    2    0    0  0.31173978825E+02  0.45146624086E+02  0.87485571493E+02  0.13992492322E+03  0.94420465448E+02 0.  0.
         23    2    1    2    0    0 -0.31173978825E+02 -0.45146624086E+02 -0.22038689487E+03  0.24480448515E+03  0.91371866010E+02 0.  0.
          5    1    4    4  502    0  0.20326964492E+02 -0.17208478879E+02 -0.14489740462E+02  0.30681587467E+02  0.47000000000E+01 0. -1.
         -5    1    4    4    0  502 -0.51500943318E+02 -0.27938145207E+02 -0.20589715441E+03  0.21412289769E+03  0.47000000000E+01 0.  1.
          5    1    3    3  503    0  0.54720559037E+02  0.44599702530E+02  0.28567757811E+02  0.76299933378E+02  0.47000000000E+01 0. -1.
         -5    1    3    3    0  503 -0.23546580212E+02  0.54692155593E+00  0.58917813681E+02  0.63624989838E+02  0.47000000000E+01 0.  1.
<mgrwt>
<rscale>  0 0.10854061E+03</rscale>
<asrwt>0</asrwt>
<pdfrwt beam="1">  1        2 0.19371391E-01 0.10920283E+03</pdfrwt>
<pdfrwt beam="2">  1       -2 0.39817748E-01 0.10920283E+03</pdfrwt>
<totfact> 0.16709387E+03</totfact>
</mgrwt>
</event>
<event>
 8    1  0.3400573E-004  0.9700266E+02  0.7546771E-02  0.1290748E+00
         -1   -1    0    0    0  501 -0.00000000000E+00  0.00000000000E+00  0.23473881937E+02  0.23473881937E+02  0.00000000000E+00 0.  1.
          1   -1    0    0  501    0  0.00000000000E+00 -0.00000000000E+00 -0.50035233666E+03  0.50035233666E+03  0.00000000000E+00 0. -1.
         23    2    1    2    0    0 -0.24901248464E+02 -0.14639619225E+01 -0.11267282373E+03  0.14867643223E+03  0.93740604519E+02 0.  0.
         23    2    1    2    0    0  0.24901248464E+02  0.14639619225E+01 -0.36420563100E+03  0.37514978637E+03  0.86425720705E+02 0.  0.
          5    1    3    3  502    0  0.20276008978E+02  0.37422375687E+01 -0.98598166007E+02  0.10084051379E+03  0.47000000000E+01 0. -1.
         -5    1    3    3    0  502 -0.45177257442E+02 -0.52061994912E+01 -0.14074657718E+02  0.47835918440E+02  0.47000000000E+01 0.  1.
          5    1    4    4  503    0  0.50630800828E+02 -0.33629509784E+01 -0.13315310348E+03  0.14257147821E+03  0.47000000000E+01 0. -1.
         -5    1    4    4    0  503 -0.25729552364E+02  0.48269129009E+01 -0.23105252752E+03  0.23257830816E+03  0.47000000000E+01 0.  1.
<mgrwt>
<rscale>  0 0.95190186E+02</rscale>
<asrwt>0</asrwt>
<pdfrwt beam="1">  1        1 0.76977281E-01 0.97002661E+02</pdfrwt>
<pdfrwt beam="2">  1       -1 0.36113665E-02 0.97002661E+02</pdfrwt>
<totfact> 0.11937691E+04</totfact>
</mgrwt>
</event>
<event>
 8    1  0.3400573E-004  0.1370867E+03  0.7546771E-02  0.1224179E+00
         -1   -1    0    0    0  501 -0.00000000000E+00  0.00000000000E+00  0.98381306536E+02  0.98381306536E+02  0.00000000000E+00 0.  1.
          1   -1    0    0  501    0  0.00000000000E+00 -0.00000000000E+00 -0.29211113250E+03  0.29211113250E+03  0.00000000000E+00 0. -1.
         23    2    1    2    0    0 -0.75225690865E+02  0.14787200669E+02  0.35082523041E+02  0.12375686562E+03  0.90594770796E+02 0.  0.
         23    2    1    2    0    0  0.75225690865E+02 -0.14787200669E+02 -0.22881234901E+03  0.26673557342E+03  0.11364510195E+03 0.  0.
          5    1    4    4  502    0  0.91201639741E+02 -0.35724502802E+02 -0.12148289998E+03  0.15612227317E+03  0.47000000000E+01 0. -1.
         -5    1    3    3    0  503 -0.33549522131E+02  0.52276773927E+02  0.21355438498E+02  0.65852686208E+02  0.47000000000E+01 0.  1.
          5    1    3    3  503    0 -0.41676168734E+02 -0.37489573258E+02  0.13727084543E+02  0.57904179413E+02  0.47000000000E+01 0. -1.
         -5    1    4    4    0  502 -0.15975948875E+02  0.20937302133E+02 -0.10732944903E+03  0.11061330025E+03  0.47000000000E+01 0.  1.
<mgrwt>
<rscale>  0 0.13223339E+03</rscale>
<asrwt>0</asrwt>
<pdfrwt beam="1">  1        1 0.44940174E-01 0.13708674E+03</pdfrwt>
<pdfrwt beam="2">  1       -1 0.15135586E-01 0.13708674E+03</pdfrwt>
<totfact> 0.27887451E+03</totfact>
</mgrwt>
</event>
<event>
 8    1  0.3400573E-004  0.1174984E+03  0.7546771E-02  0.1249378E+00
          4   -1    0    0  501    0  0.00000000000E+00  0.00000000000E+00  0.87984866449E+02  0.87984866449E+02  0.00000000000E+00 0. -1.
         -4   -1    0    0    0  501 -0.00000000000E+00 -0.00000000000E+00 -0.19003363356E+03  0.19003363356E+03  0.00000000000E+00 0.  1.
         23    2    1    2    0    0  0.13817604287E+02  0.64977570381E+02  0.11498682924E+02  0.11805972430E+03  0.96916809444E+02 0.  0.
         23    2    1    2    0    0 -0.13817604287E+02 -0.64977570381E+02 -0.11354745003E+03  0.15995877570E+03  0.90998767432E+02 0.  0.
          5    1    4    4  502    0 -0.25572916563E+02  0.16062861423E+02 -0.28169290469E+02  0.41564269562E+02  0.47000000000E+01 0. -1.
         -5    1    4    4    0  502  0.11755312276E+02 -0.81040431805E+02 -0.85378159562E+02  0.11839450614E+03  0.47000000000E+01 0.  1.
          5    1    3    3  503    0  0.30421068579E+02  0.82784538165E+02  0.22173984164E+02  0.91063147026E+02  0.47000000000E+01 0. -1.
         -5    1    3    3    0  503 -0.16603464292E+02 -0.17806967784E+02 -0.10675301240E+02  0.26996577278E+02  0.47000000000E+01 0.  1.
<mgrwt>
<rscale>  0 0.11627140E+03</rscale>
<asrwt>0</asrwt>
<pdfrwt beam="1">  1        4 0.13536133E-01 0.11749842E+03</pdfrwt>
<pdfrwt beam="2">  1       -4 0.29235943E-01 0.11749842E+03</pdfrwt>
<totfact> 0.80758076E+02</totfact>
</mgrwt>
</event>
<event>
 8    1  0.3400573E-004  0.9504806E+02  0.7546771E-02  0.1291210E+00
         -1   -1    0    0    0  501 -0.00000000000E+00  0.00000000000E+00  0.55902708457E+02  0.55902708457E+02  0.00000000000E+00 0.  1.
          1   -1    0    0  501    0  0.00000000000E+00 -0.00000000000E+00 -0.16266470337E+03  0.16266470337E+03  0.00000000000E+00 0. -1.
         23    2    1    2    0    0 -0.35351640249E+02  0.31406156797E+01 -0.63764855212E+02  0.11424633623E+03  0.87901459870E+02 0.  0.
         23    2    1    2    0    0  0.35351640249E+02 -0.31406156797E+01 -0.42997139700E+02  0.10432107559E+03  0.88173300128E+02 0.  0.
          5    1    4    4  502    0  0.55022900489E+02 -0.21970337955E+02 -0.47803943082E+02  0.76272683854E+02  0.47000000000E+01 0. -1.
         -5    1    3    3    0  503 -0.60834563899E+02 -0.15393648371E+02 -0.41573751015E+02  0.75420655980E+02  0.47000000000E+01 0.  1.
          5    1    3    3  503    0  0.25482923650E+02  0.18534264051E+02 -0.22191104197E+02  0.38825680253E+02  0.47000000000E+01 0. -1.
         -5    1    4    4    0  502 -0.19671260240E+02  0.18829722275E+02  0.48068033822E+01  0.28048391739E+02  0.47000000000E+01 0.  1.
<mgrwt>
<rscale>  0 0.94984961E+02</rscale>
<asrwt>0</asrwt>
<pdfrwt beam="1">  1        1 0.25025339E-01 0.95048055E+02</pdfrwt>
<pdfrwt beam="2">  1       -1 0.86004167E-02 0.95048055E+02</pdfrwt>
<totfact> 0.13315814E+04</totfact>
</mgrwt>
</event>
<event>
 8    1  0.3400573E-004  0.1031717E+03  0.7546771E-02  0.1274048E+00
         -2   -1    0    0    0  501 -0.00000000000E+00  0.00000000000E+00  0.33068054398E+02  0.33068054398E+02  0.00000000000E+00 0.  1.
          2   -1    0    0  501    0  0.00000000000E+00 -0.00000000000E+00 -0.37216410480E+03  0.37216410480E+03  0.00000000000E+00 0. -1.
         23    2    1    2    0    0  0.35367116571E+02 -0.26454929364E+02 -0.94194496705E+02  0.13970329095E+03  0.93240066880E+02 0.  0.
         23    2    1    2    0    0 -0.35367116571E+02  0.26454929364E+02 -0.24490155370E+03  0.26552886825E+03  0.92618101068E+02 0.  0.
          5    1    3    3  502    0 -0.17964078142E+02 -0.11082422421E+02 -0.79086494478E+02  0.81989583479E+02  0.47000000000E+01 0. -1.
         -5    1    3    3    0  502  0.53331194713E+02 -0.15372506943E+02 -0.15108002227E+02  0.57713707475E+02  0.47000000000E+01 0.  1.
          5    1    4    4  503    0 -0.64327982740E+02  0.23611034057E+01 -0.15986408015E+03  0.17240150317E+03  0.47000000000E+01 0. -1.
         -5    1    4    4    0  503  0.28960866169E+02  0.24093825958E+02 -0.85037473552E+02  0.93127365079E+02  0.47000000000E+01 0.  1.
<mgrwt>
<rscale>  0 0.10303101E+03</rscale>
<asrwt>0</asrwt>
<pdfrwt beam="1">  1        2 0.57256015E-01 0.10317173E+03</pdfrwt>
<pdfrwt beam="2">  1       -2 0.50873931E-02 0.10317173E+03</pdfrwt>
<totfact> 0.15139451E+04</totfact>
</mgrwt>
</event>
<event>
 8    1  0.3400573E-004  0.1419049E+03  0.7546771E-02  0.1210879E+00
          1   -1    0    0  501    0  0.00000000000E+00  0.00000000000E+00  0.62497887128E+03  0.62497887128E+03  0.00000000000E+00 0. -1.
         -1   -1    0    0    0  501 -0.00000000000E+00 -0.00000000000E+00 -0.57130873556E+02  0.57130873556E+02  0.00000000000E+00 0.  1.
         23    2    1    2    0    0  0.60051893195E+02 -0.89914440035E+02  0.58282907196E+02  0.15315455817E+03  0.91479970561E+02 0.  0.
         23    2    1    2    0    0 -0.60051893195E+02  0.89914440035E+02  0.50956509053E+03  0.52895518667E+03  0.91903055510E+02 0.  0.
          5    1    4    4  502    0 -0.26130206304E+02  0.75765633393E+02  0.46063285047E+03  0.46757665876E+03  0.47000000000E+01 0. -1.
         -5    1    3    3    0  503  0.11215032054E+02 -0.72971533641E+02 -0.14867025423E+01  0.73992715522E+02  0.47000000000E+01 0.  1.
          5    1    3    3  503    0  0.48836861141E+02 -0.16942906394E+02  0.59769609738E+02  0.79161842648E+02  0.47000000000E+01 0. -1.
         -5    1    4    4    0  502 -0.33921686890E+02  0.14148806642E+02  0.48932240065E+02  0.61378527912E+02  0.47000000000E+01 0.  1.
<mgrwt>
<rscale>  0 0.14183647E+03</rscale>
<asrwt>0</asrwt>
<pdfrwt beam="1">  1        1 0.96150591E-01 0.14190493E+03</pdfrwt>
<pdfrwt beam="2">  1       -1 0.87893656E-02 0.14190493E+03</pdfrwt>
<totfact> 0.24291174E+03</totfact>
</mgrwt>
</event>
<event>
 8    1  0.3400573E-004  0.1003572E+03  0.7546771E-02  0.1280689E+00
          1   -1    0    0  501    0  0.00000000000E+00  0.00000000000E+00  0.20801895385E+03  0.20801895385E+03  0.00000000000E+00 0. -1.
         -1   -1    0    0    0  501 -0.00000000000E+00 -0.00000000000E+00 -0.66448318831E+02  0.66448318831E+02  0.00000000000E+00 0.  1.
         23    2    1    2    0    0 -0.16222176051E+02 -0.43280090833E+02 -0.21759892409E+01  0.10038079812E+03  0.89079989023E+02 0.  0.
         23    2    1    2    0    0  0.16222176051E+02  0.43280090833E+02  0.14374662426E+03  0.17408647455E+03  0.86641118292E+02 0.  0.
          5    1    3    3  502    0 -0.45898463032E+02 -0.13188486798E+01  0.10283151937E+02  0.47288915026E+02  0.47000000000E+01 0. -1.
         -5    1    4    4    0  503 -0.18224847638E+02  0.21996897950E+02  0.48772669563E+01  0.29357900535E+02  0.47000000000E+01 0.  1.
          5    1    4    4  503    0  0.34447023690E+02  0.21283192883E+02  0.13886935730E+03  0.14472857402E+03  0.47000000000E+01 0. -1.
         -5    1    3    3    0  502  0.29676286980E+02 -0.41961242153E+02 -0.12459141178E+02  0.53091883098E+02  0.47000000000E+01 0.  1.
<mgrwt>
<rscale>  0 0.99813206E+02</rscale>
<asrwt>0</asrwt>
<pdfrwt beam="1">  1        1 0.32002916E-01 0.10035721E+03</pdfrwt>
<pdfrwt beam="2">  1       -1 0.10222818E-01 0.10035721E+03</pdfrwt>
<totfact> 0.76108938E+03</totfact>
</mgrwt>
</event>
<event>
 8    1  0.3400573E-004  0.9566374E+02  0.7546771E-02  0.1290280E+00
         -1   -1    0    0    0  501 -0.00000000000E+00  0.00000000000E+00  0.19652663639E+03  0.19652663639E+03  0.00000000000E+00 0.  1.
          1   -1    0    0  501    0  0.00000000000E+00 -0.00000000000E+00 -0.47582086897E+02  0.47582086897E+02  0.00000000000E+00 0. -1.
         23    2    1    2    0    0 -0.23738221589E+02 -0.11993294449E+02  0.52200906090E+02  0.10805401773E+03  0.90793137821E+02 0.  0.
         23    2    1    2    0    0  0.23738221589E+02  0.11993294449E+02  0.96743643405E+02  0.13605470556E+03  0.91892372312E+02 0.  0.
          5    1    4    4  502    0 -0.32666020490E+02  0.11722807713E+02  0.56980237389E+02  0.66882961719E+02  0.47000000000E+01 0. -1.
         -5    1    4    4    0  502  0.56404242080E+02  0.27048673589E+00  0.39763406016E+02  0.69171743838E+02  0.47000000000E+01 0.  1.
          5    1    3    3  503    0 -0.32418145427E+02  0.75807557275E+01 -0.15404126414E+02  0.36983524993E+02  0.47000000000E+01 0. -1.
         -5    1    3    3    0  503  0.86799238381E+01 -0.19574050176E+02  0.67605032504E+02  0.71070492738E+02  0.47000000000E+01 0.  1.
<mgrwt>
<rscale>  0 0.95398786E+02</rscale>
<asrwt>0</asrwt>
<pdfrwt beam="1">  1        1 0.73203212E-02 0.95663736E+02</pdfrwt>
<pdfrwt beam="2">  1       -1 0.30234867E-01 0.95663736E+02</pdfrwt>
<totfact> 0.90368589E+03</totfact>
</mgrwt>
</event>
<event>
 8    1  0.3400573E-004  0.1270583E+03  0.7546771E-02  0.1235531E+00
          2   -1    0    0  501    0  0.00000000000E+00  0.00000000000E+00  0.32372536777E+03  0.32372536777E+03  0.00000000000E+00 0. -1.
         -2   -1    0    0    0  501 -0.00000000000E+00 -0.00000000000E+00 -0.48544815076E+02  0.48544815076E+02  0.00000000000E+00 0.  1.
         23    2    1    2    0    0  0.64942788857E+02 -0.57908782075E+02  0.18214129654E+03  0.22207943520E+03  0.92589582401E+02 0.  0.
         23    2    1    2    0    0 -0.64942788857E+02  0.57908782075E+02  0.93039256157E+02  0.15019074764E+03  0.79561074814E+02 0.  0.
          5    1    4    4  502    0 -0.63730517074E+02  0.12927138912E+02  0.27983665845E+02  0.70949737709E+02  0.47000000000E+01 0.  1.
         -5    1    3    3    0  503  0.56556204513E+02 -0.24501323279E+02  0.35308917174E+02  0.71187981734E+02  0.47000000000E+01 0.  1.
          5    1    3    3  503    0  0.83865843446E+01 -0.33407458797E+02  0.14683237936E+03  0.15089145347E+03  0.47000000000E+01 0. -1.
         -5    1    4    4    0  502 -0.12122717838E+01  0.44981643164E+02  0.65055590312E+02  0.79241009935E+02  0.47000000000E+01 0. -1.
<mgrwt>
<rscale>  0 0.12470475E+03</rscale>
<asrwt>0</asrwt>
<pdfrwt beam="1">  1        2 0.49803901E-01 0.12705835E+03</pdfrwt>
<pdfrwt beam="2">  1       -2 0.74684333E-02 0.12705835E+03</pdfrwt>
<totfact> 0.99867942E+03</totfact>
</mgrwt>
</event>
<event>
 8    1  0.3400573E-004  0.1368516E+03  0.7546771E-02  0.1218142E+00
         -1   -1    0    0    0  501 -0.00000000000E+00  0.00000000000E+00  0.81106359213E+02  0.81106359213E+02  0.00000000000E+00 0.  1.
          1   -1    0    0  501    0  0.00000000000E+00 -0.00000000000E+00 -0.30040677897E+03  0.30040677897E+03  0.00000000000E+00 0. -1.
         23    2    1    2    0    0 -0.63345892580E+02 -0.76278014136E+02 -0.16732665546E+02  0.13787071893E+03  0.94325582398E+02 0.  0.
         23    2    1    2    0    0  0.63345892580E+02  0.76278014136E+02 -0.20256775421E+03  0.24364241925E+03  0.92178608505E+02 0.  0.
          5    1    4    4  502    0  0.43674123067E+02  0.12712840403E+02 -0.15528694755E+03  0.16188011433E+03  0.47000000000E+01 0. -1.
         -5    1    4    4    0  502  0.19671769513E+02  0.63565173733E+02 -0.47280806661E+02  0.81762304921E+02  0.47000000000E+01 0.  1.
          5    1    3    3  503    0 -0.78935201892E+02 -0.61350241106E+02 -0.38145145037E+02  0.10710630360E+03  0.47000000000E+01 0.  1.
         -5    1    3    3    0  503  0.15589309312E+02 -0.14927773031E+02  0.21412479491E+02  0.30764415327E+02  0.47000000000E+01 0. -1.
<mgrwt>
<rscale>  0 0.13648236E+03</rscale>
<asrwt>0</asrwt>
<pdfrwt beam="1">  1        1 0.46216427E-01 0.13685157E+03</pdfrwt>
<pdfrwt beam="2">  1       -1 0.12477901E-01 0.13685157E+03</pdfrwt>
<totfact> 0.36386257E+03</totfact>
</mgrwt>
</event>
<event>
 8    1  0.3400573E-004  0.9358866E+02  0.7546771E-02  0.1295717E+00
          1   -1    0    0  501    0  0.00000000000E+00  0.00000000000E+00  0.77046343178E+02  0.77046343178E+02  0.00000000000E+00 0. -1.
         -1   -1    0    0    0  501 -0.00000000000E+00 -0.00000000000E+00 -0.12046079350E+03  0.12046079350E+03  0.00000000000E+00 0.  1.
         23    2    1    2    0    0 -0.10721234100E+02 -0.13412807721E+02 -0.49242740113E+02  0.10373717631E+03  0.89675559789E+02 0.  0.
         23    2    1    2    0    0  0.10721234100E+02  0.13412807721E+02  0.58282897924E+01  0.93769960366E+02  0.91999936052E+02 0.  0.
          5    1    4    4  502    0 -0.15422822484E+02 -0.33663827737E+02  0.12369358276E+02  0.39321848575E+02  0.47000000000E+01 0. -1.
         -5    1    3    3    0  503  0.17520986973E+02  0.27510178620E+02 -0.41822785809E+02  0.53245002818E+02  0.47000000000E+01 0.  1.
          5    1    3    3  503    0 -0.28242221073E+02 -0.40922986341E+02 -0.74199543038E+01  0.50492173493E+02  0.47000000000E+01 0. -1.
         -5    1    4    4    0  502  0.26144056583E+02  0.47076635457E+02 -0.65410684836E+01  0.54448111790E+02  0.47000000000E+01 0.  1.
<mgrwt>
<rscale>  0 0.93012374E+02</rscale>
<asrwt>0</asrwt>
<pdfrwt beam="1">  1        1 0.11853284E-01 0.93588656E+02</pdfrwt>
<pdfrwt beam="2">  1       -1 0.18532430E-01 0.93588656E+02</pdfrwt>
<totfact> 0.10564142E+04</totfact>
</mgrwt>
</event>
<event>
 8    1  0.3400573E-004  0.9595242E+02  0.7546771E-02  0.1290356E+00
         -4   -1    0    0    0  501 -0.00000000000E+00  0.00000000000E+00  0.39918402975E+03  0.39918402975E+03  0.00000000000E+00 0.  1.
          4   -1    0    0  501    0  0.00000000000E+00 -0.00000000000E+00 -0.32483611828E+02  0.32483611828E+02  0.00000000000E+00 0. -1.
         23    2    1    2    0    0 -0.22439140986E+02 -0.20658470823E+02  0.65309466754E+02  0.11606977642E+03  0.90975706021E+02 0.  0.
         23    2    1    2    0    0  0.22439140986E+02  0.20658470823E+02  0.30139095117E+03  0.31559786516E+03  0.88516775702E+02 0.  0.
          5    1    4    4  502    0 -0.22398024330E+02 -0.18662196978E+02  0.59572974965E+02  0.66490438682E+02  0.47000000000E+01 0. -1.
         -5    1    3    3    0  503 -0.62572873634E+01 -0.40414187956E+02 -0.46693253817E+01  0.41428888868E+02  0.47000000000E+01 0.  1.
          5    1    3    3  503    0 -0.16181853623E+02  0.19755717133E+02  0.69978792135E+02  0.74640887554E+02  0.47000000000E+01 0. -1.
         -5    1    4    4    0  502  0.44837165316E+02  0.39320667801E+02  0.24181797621E+03  0.24910742648E+03  0.47000000000E+01 0.  1.
<mgrwt>
<rscale>  0 0.95365013E+02</rscale>
<asrwt>0</asrwt>
<pdfrwt beam="1">  1        4 0.49974790E-02 0.95952418E+02</pdfrwt>
<pdfrwt beam="2">  1       -4 0.61412924E-01 0.95952418E+02</pdfrwt>
<totfact> 0.92317587E+02</totfact>
</mgrwt>
</event>
<event>
 8    1  0.3400573E-004  0.9973746E+02  0.7546771E-02  0.1281927E+00
          3   -1    0    0  501    0  0.00000000000E+00  0.00000000000E+00  0.44666624001E+03  0.44666624001E+03  0.00000000000E+00 0. -1.
         -3   -1    0    0    0  501 -0.00000000000E+00 -0.00000000000E+00 -0.38581741416E+02  0.38581741416E+02  0.00000000000E+00 0.  1.
         23    2    1    2    0    0  0.33341023973E+02 -0.32362966748E+01  0.36512981034E+03  0.37850672338E+03  0.93943939424E+02 0.  0.
         23    2    1    2    0    0 -0.33341023973E+02  0.32362966748E+01  0.42954688260E+02  0.10674125805E+03  0.91795933624E+02 0.  0.
          5    1    3    3  502    0  0.42241566395E+02  0.36898027276E+02  0.17130144360E+03  0.18031108931E+03  0.47000000000E+01 0. -1.
         -5    1    4    4    0  503 -0.37628620479E+02 -0.31819158565E+02 -0.18024758694E+01  0.49534945747E+02  0.47000000000E+01 0.  1.
          5    1    4    4  503    0  0.42875965057E+01  0.35055455240E+02  0.44757164129E+02  0.57206312298E+02  0.47000000000E+01 0. -1.
         -5    1    3    3    0  502 -0.89005424219E+01 -0.40134323951E+02  0.19382836674E+03  0.19819563408E+03  0.47000000000E+01 0.  1.
<mgrwt>
<rscale>  0 0.99228436E+02</rscale>
<asrwt>0</asrwt>
<pdfrwt beam="1">  1        3 0.68717880E-01 0.99737462E+02</pdfrwt>
<pdfrwt beam="2">  1       -3 0.59356528E-02 0.99737462E+02</pdfrwt>
<totfact> 0.78817110E+02</totfact>
</mgrwt>
</event>
<event>
 8    1  0.3400573E-004  0.9908445E+02  0.7546771E-02  0.1282735E+00
          2   -1    0    0  501    0  0.00000000000E+00  0.00000000000E+00  0.12303594424E+03  0.12303594424E+03  0.00000000000E+00 0. -1.
         -2   -1    0    0    0  501 -0.00000000000E+00 -0.00000000000E+00 -0.15182347848E+03  0.15182347848E+03  0.00000000000E+00 0.  1.
         23    2    1    2    0    0 -0.41042254786E+02 -0.37346493565E+00 -0.10951069803E+03  0.14705504934E+03  0.89151491286E+02 0.  0.
         23    2    1    2    0    0  0.41042254786E+02  0.37346493565E+00  0.80723163789E+02  0.12780437338E+03  0.90183826318E+02 0.  0.
          5    1    3    3  502    0 -0.32532034971E+02 -0.38270954901E+02 -0.30669472704E+02  0.59039866568E+02  0.47000000000E+01 0. -1.
         -5    1    4    4    0  503  0.70699393261E+01 -0.42222011254E+02  0.25324676421E+02  0.49961099990E+02  0.47000000000E+01 0.  1.
          5    1    4    4  503    0  0.33972315460E+02  0.42595476190E+02  0.55398487368E+02  0.77843273391E+02  0.47000000000E+01 0. -1.
         -5    1    3    3    0  502 -0.85102198149E+01  0.37897489965E+02 -0.78841225326E+02  0.88015182769E+02  0.47000000000E+01 0.  1.
<mgrwt>
<rscale>  0 0.98848946E+02</rscale>
<asrwt>0</asrwt>
<pdfrwt beam="1">  1        2 0.18928607E-01 0.99084452E+02</pdfrwt>
<pdfrwt beam="2">  1       -2 0.23357458E-01 0.99084452E+02</pdfrwt>
<totfact> 0.44416043E+03</totfact>
</mgrwt>
</event>
<event>
 8    1  0.3400573E-004  0.1020177E+03  0.7546771E-02  0.1277951E+00
          1   -1    0    0  501    0  0.00000000000E+00  0.00000000000E+00  0.28802029637E+03  0.28802029637E+03  0.00000000000E+00 0. -1.
         -1   -1    0    0    0  501 -0.00000000000E+00 -0.00000000000E+00 -0.76324132053E+03  0.76324132053E+03  0.00000000000E+00 0.  1.
         23    2    1    2    0    0 -0.22190885284E+02 -0.25882754386E+02  0.27566883912E+03  0.29394034023E+03  0.96152287479E+02 0.  0.
         23    2    1    2    0    0  0.22190885284E+02  0.25882754386E+02 -0.75088986327E+03  0.75732127667E+03  0.92399009595E+02 0.  0.
          5    1    4    4  502    0  0.43529182947E+02  0.47959555489E+02 -0.58074731891E+03  0.58436670606E+03  0.47000000000E+01 0.  1.
         -5    1    3    3    0  503  0.89900420858E+01 -0.39053778911E+02  0.24411524816E+03  0.24742749016E+03  0.47000000000E+01 0.  1.
          5    1    3    3  503    0 -0.31180927370E+02  0.13171024525E+02  0.31553590956E+02  0.46512850062E+02  0.47000000000E+01 0. -1.
         -5    1    4    4    0  502 -0.21338297663E+02 -0.22076801104E+02 -0.17014254436E+03  0.17295457062E+03  0.47000000000E+01 0. -1.
<mgrwt>
<rscale>  0 0.10112366E+03</rscale>
<asrwt>0</asrwt>
<pdfrwt beam="1">  1        1 0.44310815E-01 0.10201772E+03</pdfrwt>
<pdfrwt beam="2">  1       -1 0.11742174E+00 0.10201772E+03</pdfrwt>
<totfact> 0.68263892E+01</totfact>
</mgrwt>
</event>
<event>
 8    1  0.3400573E-004  0.1364968E+03  0.7546771E-02  0.1218160E+00
         -1   -1    0    0    0  501 -0.00000000000E+00  0.00000000000E+00  0.20703941556E+03  0.20703941556E+03  0.00000000000E+00 0.  1.
          1   -1    0    0  501    0  0.00000000000E+00 -0.00000000000E+00 -0.11137696188E+03  0.11137696188E+03  0.00000000000E+00 0. -1.
         23    2    1    2    0    0  0.99050124109E+02  0.22884113394E+02  0.11770003326E+03  0.18015200895E+03  0.90922157728E+02 0.  0.
         23    2    1    2    0    0 -0.99050124109E+02 -0.22884113394E+02 -0.22037579583E+02  0.13826436849E+03  0.91086612343E+02 0.  0.
          5    1    4    4  502    0 -0.29126500930E+02 -0.21363932681E+02 -0.50787449160E+02  0.62499805345E+02  0.47000000000E+01 0. -1.
         -5    1    3    3    0  503  0.55364487516E+02 -0.24495771731E+02  0.21808968012E+02  0.64521239886E+02  0.47000000000E+01 0.  1.
          5    1    3    3  503    0  0.43685636593E+02  0.47379885125E+02  0.95891065251E+02  0.11563076906E+03  0.47000000000E+01 0. -1.
         -5    1    4    4    0  502 -0.69923623178E+02 -0.15201807126E+01  0.28749869577E+02  0.75764563144E+02  0.47000000000E+01 0.  1.
<mgrwt>
<rscale>  0 0.13646939E+03</rscale>
<asrwt>0</asrwt>
<pdfrwt beam="1">  1        1 0.17134917E-01 0.13649682E+03</pdfrwt>
<pdfrwt beam="2">  1       -1 0.31852218E-01 0.13649682E+03</pdfrwt>
<totfact> 0.27864035E+03</totfact>
</mgrwt>
</event>
<event>
 8    1  0.3400573E-004  0.1077166E+03  0.7546771E-02  0.1265371E+00
          1   -1    0    0  501    0  0.00000000000E+00  0.00000000000E+00  0.31716407101E+03  0.31716407101E+03  0.00000000000E+00 0. -1.
         -1   -1    0    0    0  501 -0.00000000000E+00 -0.00000000000E+00 -0.43487834250E+02  0.43487834250E+02  0.00000000000E+00 0.  1.
         23    2    1    2    0    0 -0.52712989412E+02 -0.18618317995E+02  0.21112842977E+03  0.23701916965E+03  0.92073730829E+02 0.  0.
         23    2    1    2    0    0  0.52712989412E+02  0.18618317995E+02  0.62547806990E+02  0.12363273561E+03  0.90815880419E+02 0.  0.
          5    1    3    3  502    0 -0.72191225084E+02 -0.35573675210E+02  0.14559142812E+03  0.16642119243E+03  0.47000000000E+01 0. -1.
         -5    1    3    3    0  502  0.19478235673E+02  0.16955357214E+02  0.65537001646E+02  0.70597977223E+02  0.47000000000E+01 0.  1.
          5    1    4    4  503    0 -0.19214100819E+02  0.88053398114E+01 -0.72345900098E+01  0.22828599872E+02  0.47000000000E+01 0. -1.
         -5    1    4    4    0  503  0.71927090231E+02  0.98129781839E+01  0.69782397000E+02  0.10080413573E+03  0.47000000000E+01 0.  1.
<mgrwt>
<rscale>  0 0.10744733E+03</rscale>
<asrwt>0</asrwt>
<pdfrwt beam="1">  1        1 0.48794471E-01 0.10771663E+03</pdfrwt>
<pdfrwt beam="2">  1       -1 0.66904362E-02 0.10771663E+03</pdfrwt>
<totfact> 0.86186823E+03</totfact>
</mgrwt>
</event>
<event>
 8    1  0.3400573E-004  0.1867564E+03  0.7546771E-02  0.1162237E+00
         -1   -1    0    0    0  501 -0.00000000000E+00  0.00000000000E+00  0.44204897028E+03  0.44204897028E+03  0.00000000000E+00 0.  1.
          1   -1    0    0  501    0  0.00000000000E+00 -0.00000000000E+00 -0.95350739794E+02  0.95350739794E+02  0.00000000000E+00 0. -1.
         23    2    1    2    0    0 -0.72621848574E+02 -0.14520119815E+03  0.58184273574E+02  0.19561020882E+03  0.92307222181E+02 0.  0.
         23    2    1    2    0    0  0.72621848574E+02  0.14520119815E+03  0.28851395691E+03  0.34178950126E+03  0.84984933967E+02 0.  0.
          5    1    4    4  502    0 -0.88740881666E+01  0.73591250280E+02  0.10642075585E+03  0.12977630305E+03  0.47000000000E+01 0. -1.
         -5    1    4    4    0  502  0.81495936740E+02  0.71609947874E+02  0.18209320106E+03  0.21201319821E+03  0.47000000000E+01 0.  1.
          5    1    3    3  503    0 -0.39941529651E+02 -0.93602551396E+02 -0.11852308389E+02  0.10256378812E+03  0.47000000000E+01 0. -1.
         -5    1    3    3    0  503 -0.32680318923E+02 -0.51598646757E+02  0.70036581963E+02  0.93046420701E+02  0.47000000000E+01 0.  1.
<mgrwt>
<rscale>  0 0.18587299E+03</rscale>
<asrwt>0</asrwt>
<pdfrwt beam="1">  1        1 0.14669345E-01 0.18675638E+03</pdfrwt>
<pdfrwt beam="2">  1       -1 0.68007532E-01 0.18675638E+03</pdfrwt>
<totfact> 0.86800477E+02</totfact>
</mgrwt>
</event>
<event>
 8    1  0.3400573E-004  0.1088717E+03  0.7546771E-02  0.1264787E+00
         -2   -1    0    0    0  501 -0.00000000000E+00  0.00000000000E+00  0.87533537989E+02  0.87533537989E+02  0.00000000000E+00 0.  1.
          2   -1    0    0  501    0  0.00000000000E+00 -0.00000000000E+00 -0.13268755397E+03  0.13268755397E+03  0.00000000000E+00 0. -1.
         23    2    1    2    0    0 -0.25580751856E+02  0.46262401833E+02 -0.37816937578E+02  0.11110247303E+03  0.90105793696E+02 0.  0.
         23    2    1    2    0    0  0.25580751856E+02 -0.46262401833E+02 -0.73370784035E+01  0.10911861893E+03  0.95175919160E+02 0.  0.
          5    1    4    4  502    0  0.38584846899E+02 -0.67204093444E+02 -0.21161483347E+02  0.80467875350E+02  0.47000000000E+01 0. -1.
         -5    1    3    3    0  503 -0.36270658429E+02  0.63848444235E+02 -0.72273049578E+01  0.73935839963E+02  0.47000000000E+01 0.  1.
          5    1    3    3  503    0  0.10689906574E+02 -0.17586042402E+02 -0.30589632621E+02  0.37166633070E+02  0.47000000000E+01 0. -1.
         -5    1    4    4    0  502 -0.13004095043E+02  0.20941691611E+02  0.13824404944E+02  0.28650743576E+02  0.47000000000E+01 0.  1.
<mgrwt>
<rscale>  0 0.10775374E+03</rscale>
<asrwt>0</asrwt>
<pdfrwt beam="1">  1        2 0.20413470E-01 0.10887167E+03</pdfrwt>
<pdfrwt beam="2">  1       -2 0.13466698E-01 0.10887167E+03</pdfrwt>
<totfact> 0.10241459E+04</totfact>
</mgrwt>
</event>
<event>
 8    1  0.3400573E-004  0.9602851E+02  0.7546771E-02  0.1289139E+00
          3   -1    0    0  501    0  0.00000000000E+00  0.00000000000E+00  0.75310276544E+02  0.75310276544E+02  0.00000000000E+00 0. -1.
         -3   -1    0    0    0  501 -0.00000000000E+00 -0.00000000000E+00 -0.13357588222E+03  0.13357588222E+03  0.00000000000E+00 0.  1.
         23    2    1    2    0    0 -0.20408358302E+02  0.24116371224E+02 -0.60019155911E+02  0.11284163593E+03  0.90182233688E+02 0.  0.
         23    2    1    2    0    0  0.20408358302E+02 -0.24116371224E+02  0.17535502384E+01  0.96044522832E+02  0.90682826257E+02 0.  0.
          5    1    4    4  502    0  0.34138701518E+02 -0.55468392376E+01  0.38766827744E+02  0.52164885701E+02  0.47000000000E+01 0. -1.
         -5    1    3    3    0  503 -0.22123512959E+02  0.52123223974E+02 -0.62277177669E+02  0.84301940437E+02  0.47000000000E+01 0.  1.
          5    1    3    3  503    0  0.17151546567E+01 -0.28006852750E+02  0.22580217572E+01  0.28539695491E+02  0.47000000000E+01 0. -1.
         -5    1    4    4    0  502 -0.13730343216E+02 -0.18569531986E+02 -0.37013277506E+02  0.43879637131E+02  0.47000000000E+01 0.  1.
<mgrwt>
<rscale>  0 0.95910149E+02</rscale>
<asrwt>0</asrwt>
<pdfrwt beam="1">  1        3 0.11586197E-01 0.96028514E+02</pdfrwt>
<pdfrwt beam="2">  1       -3 0.20550135E-01 0.96028514E+02</pdfrwt>
<totfact> 0.26361757E+03</totfact>
</mgrwt>
</event>
<event>
 8    1  0.3400573E-004  0.9593437E+02  0.7546771E-02  0.1289335E+00
         -3   -1    0    0    0  501 -0.00000000000E+00  0.00000000000E+00  0.73327476770E+03  0.73327476770E+03  0.00000000000E+00 0.  1.
          3   -1    0    0  501    0  0.00000000000E+00 -0.00000000000E+00 -0.25382550734E+02  0.25382550734E+02  0.00000000000E+00 0. -1.
         23    2    1    2    0    0  0.32159742001E+02  0.49213890809E+01  0.83219115232E+02  0.12666057178E+03  0.89771990215E+02 0.  0.
         23    2    1    2    0    0 -0.32159742001E+02 -0.49213890809E+01  0.62467310174E+03  0.63199674666E+03  0.90249291831E+02 0.  0.
          5    1    3    3  502    0  0.56667156874E+02 -0.19703014633E+02  0.56936164528E+02  0.82844385959E+02  0.47000000000E+01 0. -1.
         -5    1    4    4    0  503 -0.30028166921E+02  0.35982611948E+02  0.45301393633E+03  0.45545598655E+03  0.47000000000E+01 0.  1.
          5    1    4    4  503    0 -0.21315750797E+01 -0.40904001029E+02  0.17165916540E+03  0.17654076011E+03  0.47000000000E+01 0. -1.
         -5    1    3    3    0  502 -0.24507414873E+02  0.24624403714E+02  0.26282950704E+02  0.43816185819E+02  0.47000000000E+01 0.  1.
<mgrwt>
<rscale>  0 0.95821955E+02</rscale>
<asrwt>0</asrwt>
<pdfrwt beam="1">  1        3 0.39050084E-02 0.95934372E+02</pdfrwt>
<pdfrwt beam="2">  1       -3 0.11281149E+00 0.95934372E+02</pdfrwt>
<totfact> 0.50733155E+02</totfact>
</mgrwt>
</event>
<event>
 8    1  0.3400573E-004  0.1294999E+03  0.7546771E-02  0.1231164E+00
         -1   -1    0    0    0  501 -0.00000000000E+00  0.00000000000E+00  0.41159775087E+03  0.41159775087E+03  0.00000000000E+00 0.  1.
          1   -1    0    0  501    0  0.00000000000E+00 -0.00000000000E+00 -0.38381819898E+02  0.38381819898E+02  0.00000000000E+00 0. -1.
         23    2    1    2    0    0  0.69673589764E+02  0.43612079390E+02  0.17553000500E+03  0.21365365637E+03  0.89892600623E+02 0.  0.
         23    2    1    2    0    0 -0.69673589764E+02 -0.43612079390E+02  0.19768592598E+03  0.23632591440E+03  0.10006892579E+03 0.  0.
          5    1    4    4  502    0  0.23145854813E+02 -0.24973373380E+02  0.60397401642E+02  0.69493424856E+02  0.47000000000E+01 0. -1.
         -5    1    4    4    0  502 -0.92819444577E+02 -0.18638706010E+02  0.13728852433E+03  0.16683248954E+03  0.47000000000E+01 0.  1.
          5    1    3    3  503    0  0.56974369533E+02  0.12003395909E+02  0.16879014476E+03  0.17861232674E+03  0.47000000000E+01 0. -1.
         -5    1    3    3    0  503  0.12699220231E+02  0.31608683481E+02  0.67398602359E+01  0.35041329625E+02  0.47000000000E+01 0.  1.
<mgrwt>
<rscale>  0 0.12753242E+03</rscale>
<asrwt>0</asrwt>
<pdfrwt beam="1">  1        1 0.59048957E-02 0.12949986E+03</pdfrwt>
<pdfrwt beam="2">  1       -1 0.63322728E-01 0.12949986E+03</pdfrwt>
<totfact> 0.33157677E+03</totfact>
</mgrwt>
</event>
<event>
 8    1  0.3400573E-004  0.1020013E+03  0.7546771E-02  0.1276227E+00
         -1   -1    0    0    0  501 -0.00000000000E+00  0.00000000000E+00  0.15989281239E+03  0.15989281239E+03  0.00000000000E+00 0.  1.
          1   -1    0    0  501    0  0.00000000000E+00 -0.00000000000E+00 -0.87741790823E+02  0.87741790823E+02  0.00000000000E+00 0. -1.
         23    2    1    2    0    0  0.43074528790E+02  0.19014690353E+02 -0.26987390426E+02  0.10551102824E+03  0.90483613755E+02 0.  0.
         23    2    1    2    0    0 -0.43074528790E+02 -0.19014690353E+02  0.99138411991E+02  0.14212357497E+03  0.90297908897E+02 0.  0.
          5    1    4    4  502    0 -0.33497845742E+00 -0.32500042143E+02 -0.41929144876E+00  0.32842514446E+02  0.47000000000E+01 0. -1.
         -5    1    3    3    0  503 -0.18008916763E+02  0.14894165576E+02  0.17596982044E+02  0.29629394666E+02  0.47000000000E+01 0.  1.
          5    1    3    3  503    0  0.61083445553E+02  0.41205247763E+01 -0.44584372470E+02  0.75881633573E+02  0.47000000000E+01 0. -1.
         -5    1    4    4    0  502 -0.42739550333E+02  0.13485351790E+02  0.99557703440E+02  0.10928106053E+03  0.47000000000E+01 0.  1.
<mgrwt>
<rscale>  0 0.10196006E+03</rscale>
<asrwt>0</asrwt>
<pdfrwt beam="1">  1        1 0.13498737E-01 0.10200126E+03</pdfrwt>
<pdfrwt beam="2">  1       -1 0.24598894E-01 0.10200126E+03</pdfrwt>
<totfact> 0.57129365E+03</totfact>
</mgrwt>
</event>
<event>
 8    1  0.3400573E-004  0.1107237E+03  0.7546771E-02  0.1260225E+00
         -1   -1    0    0    0  501 -0.00000000000E+00  0.00000000000E+00  0.11779679456E+03  0.11779679456E+03  0.00000000000E+00 0.  1.
          1   -1    0    0  501    0  0.00000000000E+00 -0.00000000000E+00 -0.34543828350E+03  0.34543828350E+03  0.00000000000E+00 0. -1.
         23    2    1    2    0    0 -0.48530599057E+02  0.37252857625E+02  0.80255267412E+02  0.13675028825E+03  0.92286179584E+02 0.  0.
         23    2    1    2    0    0  0.48530599057E+02 -0.37252857625E+02 -0.30789675635E+03  0.32648478982E+03  0.89715723077E+02 0.  0.
          5    1    4    4  502    0  0.71819515399E+02 -0.29032070871E+02 -0.27057664623E+03  0.28148661676E+03  0.47000000000E+01 0. -1.
         -5    1    4    4    0  502 -0.23288916342E+02 -0.82207867531E+01 -0.37320110122E+02  0.44998173060E+02  0.47000000000E+01 0.  1.
          5    1    3    3  503    0  0.17707735768E+02 -0.10072967878E+02 -0.19043001458E+01  0.20993926430E+02  0.47000000000E+01 0. -1.
         -5    1    3    3    0  503 -0.66238334825E+02  0.47325825502E+02  0.82159567557E+02  0.11575636182E+03  0.47000000000E+01 0.  1.
<mgrwt>
<rscale>  0 0.11018650E+03</rscale>
<asrwt>0</asrwt>
<pdfrwt beam="1">  1        1 0.53144351E-01 0.11072368E+03</pdfrwt>
<pdfrwt beam="2">  1       -1 0.18122584E-01 0.11072368E+03</pdfrwt>
<totfact> 0.16930479E+03</totfact>
</mgrwt>
</event>
<event>
 8    1  0.3400573E-004  0.9299664E+02  0.7546771E-02  0.1297003E+00
         -1   -1    0    0    0  501 -0.00000000000E+00  0.00000000000E+00  0.17838159107E+02  0.17838159107E+02  0.00000000000E+00 0.  1.
          1   -1    0    0  501    0  0.00000000000E+00 -0.00000000000E+00 -0.52473332806E+03  0.52473332806E+03  0.00000000000E+00 0. -1.
         23    2    1    2    0    0  0.66909862256E+01  0.81084996950E+01 -0.33532646960E+03  0.34741976765E+03  0.90255950940E+02 0.  0.
         23    2    1    2    0    0 -0.66909862256E+01 -0.81084996950E+01 -0.17156869936E+03  0.19515171952E+03  0.92400530121E+02 0.  0.
          5    1    4    4  502    0  0.21534761767E+02 -0.18168997836E+02 -0.16025196587E+03  0.16277788858E+03  0.47000000000E+01 0. -1.
         -5    1    3    3    0  503 -0.17530207462E+02 -0.33986845928E+02 -0.10173201921E+03  0.10878376535E+03  0.47000000000E+01 0.  1.
          5    1    3    3  503    0  0.24221193688E+02  0.42095345623E+02 -0.23359445039E+03  0.23863600231E+03  0.47000000000E+01 0. -1.
         -5    1    4    4    0  502 -0.28225747992E+02  0.10060498141E+02 -0.11316733493E+02  0.32373830936E+02  0.47000000000E+01 0.  1.
<mgrwt>
<rscale>  0 0.92459375E+02</rscale>
<asrwt>0</asrwt>
<pdfrwt beam="1">  1        1 0.80728183E-01 0.92996640E+02</pdfrwt>
<pdfrwt beam="2">  1       -1 0.27443329E-02 0.92996640E+02</pdfrwt>
<totfact> 0.16625129E+04</totfact>
</mgrwt>
</event>
<event>
 8    1  0.3400573E-004  0.9284999E+02  0.7546771E-02  0.1297253E+00
          4   -1    0    0  501    0  0.00000000000E+00  0.00000000000E+00  0.30886759903E+02  0.30886759903E+02  0.00000000000E+00 0. -1.
         -4   -1    0    0    0  501 -0.00000000000E+00 -0.00000000000E+00 -0.28364507282E+03  0.28364507282E+03  0.00000000000E+00 0.  1.
         23    2    1    2    0    0  0.13958949121E+02 -0.39210632036E+01 -0.94914213485E+02  0.13140378899E+03  0.89710762128E+02 0.  0.
         23    2    1    2    0    0 -0.13958949121E+02  0.39210632036E+01 -0.15784409943E+03  0.18312804373E+03  0.91710924537E+02 0.  0.
          5    1    3    3  502    0  0.15714626503E+02 -0.34641291212E+02 -0.80958267306E+01  0.39173983119E+02  0.47000000000E+01 0. -1.
         -5    1    3    3    0  502 -0.17556773813E+01  0.30720228008E+02 -0.86818386754E+02  0.92229805869E+02  0.47000000000E+01 0.  1.
          5    1    4    4  503    0 -0.36483636540E+02  0.35334343943E+02 -0.11138855283E+03  0.12251151496E+03  0.47000000000E+01 0. -1.
         -5    1    4    4    0  503  0.22524687419E+02 -0.31413280740E+02 -0.46455546598E+02  0.60616528768E+02  0.47000000000E+01 0.  1.
<mgrwt>
<rscale>  0 0.92352230E+02</rscale>
<asrwt>0</asrwt>
<pdfrwt beam="1">  1        4 0.47518090E-02 0.92849990E+02</pdfrwt>
<pdfrwt beam="2">  1       -4 0.43637705E-01 0.92849990E+02</pdfrwt>
<totfact> 0.19876078E+03</totfact>
</mgrwt>
</event>
<event>
 8    1  0.3400573E-004  0.9485948E+02  0.7546771E-02  0.1292002E+00
          2   -1    0    0  501    0  0.00000000000E+00  0.00000000000E+00  0.26279736642E+02  0.26279736642E+02  0.00000000000E+00 0. -1.
         -2   -1    0    0    0  501 -0.00000000000E+00 -0.00000000000E+00 -0.34613335567E+03  0.34613335567E+03  0.00000000000E+00 0.  1.
         23    2    1    2    0    0 -0.21342088216E+02 -0.19558385573E+02 -0.13277312188E+03  0.16265744087E+03  0.89390860831E+02 0.  0.
         23    2    1    2    0    0  0.21342088216E+02  0.19558385573E+02 -0.18708049714E+03  0.20975565144E+03  0.90334410522E+02 0.  0.
          5    1    4    4  502    0 -0.23269602974E+02  0.27628124222E+02 -0.33267141118E+02  0.49331332323E+02  0.47000000000E+01 0. -1.
         -5    1    4    4    0  502  0.44611691190E+02 -0.80697386486E+01 -0.15381335603E+03  0.16042431912E+03  0.47000000000E+01 0.  1.
          5    1    3    3  503    0  0.19256304570E+02  0.16042360974E+02 -0.81708712345E+01  0.26777149738E+02  0.47000000000E+01 0. -1.
         -5    1    3    3    0  503 -0.40598392786E+02 -0.35600746547E+02 -0.12460225064E+03  0.13588029113E+03  0.47000000000E+01 0.  1.
<mgrwt>
<rscale>  0 0.94634154E+02</rscale>
<asrwt>0</asrwt>
<pdfrwt beam="1">  1        2 0.40430367E-02 0.94859480E+02</pdfrwt>
<pdfrwt beam="2">  1       -2 0.53251281E-01 0.94859480E+02</pdfrwt>
<totfact> 0.64478519E+03</totfact>
</mgrwt>
</event>
<event>
 8    1  0.3400573E-004  0.1146378E+03  0.7546771E-02  0.1252789E+00
          2   -1    0    0  501    0  0.00000000000E+00  0.00000000000E+00  0.12552512578E+03  0.12552512578E+03  0.00000000000E+00 0. -1.
         -2   -1    0    0    0  501 -0.00000000000E+00 -0.00000000000E+00 -0.13940960817E+03  0.13940960817E+03  0.00000000000E+00 0.  1.
         23    2    1    2    0    0 -0.30326464520E+02 -0.59491022099E+02  0.60250733044E+02  0.12950662862E+03  0.93182293721E+02 0.  0.
         23    2    1    2    0    0  0.30326464520E+02  0.59491022099E+02 -0.74135215433E+02  0.13542810533E+03  0.91574370796E+02 0.  0.
          5    1    4    4  502    0  0.16742192699E+02 -0.20397461624E+02 -0.20723210345E+01  0.26883860801E+02  0.47000000000E+01 0. -1.
         -5    1    4    4    0  502  0.13584271821E+02  0.79888483723E+02 -0.72062894398E+02  0.10854424453E+03  0.47000000000E+01 0.  1.
          5    1    3    3  503    0 -0.55991278624E+02 -0.67043065098E+02  0.46053149742E+02  0.98857364221E+02  0.47000000000E+01 0. -1.
         -5    1    3    3    0  503  0.25664814104E+02  0.75520429995E+01  0.14197583303E+02  0.30649264397E+02  0.47000000000E+01 0.  1.
<mgrwt>
<rscale>  0 0.11431058E+03</rscale>
<asrwt>0</asrwt>
<pdfrwt beam="1">  1        2 0.19311558E-01 0.11463776E+03</pdfrwt>
<pdfrwt beam="2">  1       -2 0.21447632E-01 0.11463776E+03</pdfrwt>
<totfact> 0.50752534E+03</totfact>
</mgrwt>
</event>
<event>
 8    1  0.3400573E-004  0.1056962E+03  0.7546771E-02  0.1269350E+00
         -2   -1    0    0    0  501 -0.00000000000E+00  0.00000000000E+00  0.15480246791E+02  0.15480246791E+02  0.00000000000E+00 0.  1.
          2   -1    0    0  501    0  0.00000000000E+00 -0.00000000000E+00 -0.77239570549E+03  0.77239570549E+03  0.00000000000E+00 0. -1.
         23    2    1    2    0    0 -0.22993324031E+02  0.44325545429E+02 -0.48933131383E+03  0.50061645174E+03  0.93157126040E+02 0.  0.
         23    2    1    2    0    0  0.22993324031E+02 -0.44325545429E+02 -0.26758414486E+03  0.28725950053E+03  0.91778533094E+02 0.  0.
          5    1    4    4  502    0  0.58400959871E+02 -0.29149644540E+02 -0.17711240324E+03  0.18881543176E+03  0.47000000000E+01 0. -1.
         -5    1    3    3    0  503 -0.42769915164E+01  0.65079670084E+02 -0.21236489542E+03  0.22220394893E+03  0.47000000000E+01 0.  1.
          5    1    3    3  503    0 -0.18716332515E+02 -0.20754124655E+02 -0.27696641842E+03  0.27841250281E+03  0.47000000000E+01 0. -1.
         -5    1    4    4    0  502 -0.35407635840E+02 -0.15175900889E+02 -0.90471741628E+02  0.98444068774E+02  0.47000000000E+01 0.  1.
<mgrwt>
<rscale>  0 0.10539168E+03</rscale>
<asrwt>0</asrwt>
<pdfrwt beam="1">  1        2 0.11883009E+00 0.10569625E+03</pdfrwt>
<pdfrwt beam="2">  1       -2 0.23815767E-02 0.10569625E+03</pdfrwt>
<totfact> 0.20555622E+04</totfact>
</mgrwt>
</event>
<event>
 8    1  0.3400573E-004  0.1638465E+03  0.7546771E-02  0.1184773E+00
         -2   -1    0    0    0  501 -0.00000000000E+00  0.00000000000E+00  0.76410870389E+02  0.76410870389E+02  0.00000000000E+00 0.  1.
          2   -1    0    0  501    0  0.00000000000E+00 -0.00000000000E+00 -0.37767552193E+03  0.37767552193E+03  0.00000000000E+00 0. -1.
         23    2    1    2    0    0  0.76052483610E+02  0.11085391534E+03 -0.21308638995E+03  0.26801894169E+03  0.91409915833E+02 0.  0.
         23    2    1    2    0    0 -0.76052483610E+02 -0.11085391534E+03 -0.88178261587E+02  0.18606745063E+03  0.93664932367E+02 0.  0.
          5    1    3    3  502    0  0.91704695061E+02  0.70913529450E+02 -0.17765008793E+03  0.21217946059E+03  0.47000000000E+01 0. -1.
         -5    1    3    3    0  502 -0.15652211451E+02  0.39940385894E+02 -0.35436302026E+02  0.55839481104E+02  0.47000000000E+01 0.  1.
          5    1    4    4  503    0 -0.23095481153E+02 -0.10366516989E+03 -0.38848340944E+02  0.11318636089E+03  0.47000000000E+01 0. -1.
         -5    1    4    4    0  503 -0.52957002458E+02 -0.71887454580E+01 -0.49329920643E+02  0.72881089736E+02  0.47000000000E+01 0.  1.
<mgrwt>
<rscale>  0 0.16352596E+03</rscale>
<asrwt>0</asrwt>
<pdfrwt beam="1">  1        2 0.58103927E-01 0.16384655E+03</pdfrwt>
<pdfrwt beam="2">  1       -2 0.11755518E-01 0.16384655E+03</pdfrwt>
<totfact> 0.42305331E+03</totfact>
</mgrwt>
</event>
<event>
 8    1  0.3400573E-004  0.1013157E+03  0.7546771E-02  0.1280817E+00
          1   -1    0    0  501    0  0.00000000000E+00  0.00000000000E+00  0.87329903055E+03  0.87329903055E+03  0.00000000000E+00 0. -1.
         -1   -1    0    0    0  501 -0.00000000000E+00 -0.00000000000E+00 -0.11057431285E+02  0.11057431285E+02  0.00000000000E+00 0.  1.
         23    2    1    2    0    0  0.35940130228E+01  0.22360303020E+02  0.44929555208E+03  0.46057720406E+03  0.98752051630E+02 0.  0.
         23    2    1    2    0    0 -0.35940130228E+01 -0.22360303020E+02  0.41294604719E+03  0.42377925778E+03  0.92474436213E+02 0.  0.
          5    1    4    4  502    0  0.15526441690E+02 -0.38755500574E+02  0.37862643903E+03  0.38095029800E+03  0.47000000000E+01 0. -1.
         -5    1    4    4    0  502 -0.19120454712E+02  0.16395197554E+02  0.34319608164E+02  0.42828959779E+02  0.47000000000E+01 0.  1.
          5    1    3    3  503    0  0.44301495682E+02  0.16406024480E+02  0.12611747668E+03  0.13475714483E+03  0.47000000000E+01 0. -1.
         -5    1    3    3    0  503 -0.40707482659E+02  0.59542785399E+01  0.32317807540E+03  0.32582005923E+03  0.47000000000E+01 0.  1.
<mgrwt>
<rscale>  0 0.99752783E+02</rscale>
<asrwt>0</asrwt>
<pdfrwt beam="1">  1        1 0.13435364E+00 0.10131568E+03</pdfrwt>
<pdfrwt beam="2">  1       -1 0.17011440E-02 0.10131568E+03</pdfrwt>
<totfact> 0.16249983E+04</totfact>
</mgrwt>
</event>
<event>
 8    1  0.3400573E-004  0.1512533E+03  0.7546771E-02  0.1199025E+00
         -1   -1    0    0    0  501 -0.00000000000E+00  0.00000000000E+00  0.40350832902E+02  0.40350832902E+02  0.00000000000E+00 0.  1.
          1   -1    0    0  501    0  0.00000000000E+00 -0.00000000000E+00 -0.58036478190E+03  0.58036478190E+03  0.00000000000E+00 0. -1.
         23    2    1    2    0    0 -0.95027902855E+02  0.74101246610E+02 -0.31870742739E+03  0.35265937978E+03  0.90955575963E+02 0.  0.
         23    2    1    2    0    0  0.95027902855E+02 -0.74101246610E+02 -0.22130652161E+03  0.26805623503E+03  0.91412644429E+02 0.  0.
          5    1    3    3  502    0 -0.51790445368E+02  0.90595791056E+02 -0.22142866006E+03  0.24483175669E+03  0.47000000000E+01 0. -1.
         -5    1    4    4    0  503  0.11400173897E+02 -0.49661619527E+02 -0.34031684048E+02  0.61453119840E+02  0.47000000000E+01 0.  1.
          5    1    4    4  503    0  0.83627728958E+02 -0.24439627082E+02 -0.18727483756E+03  0.20660311519E+03  0.47000000000E+01 0. -1.
         -5    1    3    3    0  502 -0.43237457487E+02 -0.16494544447E+02 -0.97278767334E+02  0.10782762309E+03  0.47000000000E+01 0.  1.
<mgrwt>
<rscale>  0 0.15118433E+03</rscale>
<asrwt>0</asrwt>
<pdfrwt beam="1">  1        1 0.89286897E-01 0.15125333E+03</pdfrwt>
<pdfrwt beam="2">  1       -1 0.62078199E-02 0.15125333E+03</pdfrwt>
<totfact> 0.45486903E+03</totfact>
</mgrwt>
</event>
<event>
 8    1  0.3400573E-004  0.9848676E+02  0.7546771E-02  0.1284896E+00
          3   -1    0    0  501    0  0.00000000000E+00  0.00000000000E+00  0.23151644728E+02  0.23151644728E+02  0.00000000000E+00 0. -1.
         -3   -1    0    0    0  501 -0.00000000000E+00 -0.00000000000E+00 -0.52358387784E+03  0.52358387784E+03  0.00000000000E+00 0.  1.
         23    2    1    2    0    0  0.34817212767E+02  0.11711953906E+02 -0.12445127276E+03  0.15870652549E+03  0.91379613559E+02 0.  0.
         23    2    1    2    0    0 -0.34817212767E+02 -0.11711953906E+02 -0.37598096036E+03  0.38802899708E+03  0.88630761322E+02 0.  0.
          5    1    4    4  502    0 -0.83144089792E+01 -0.43335333699E+02 -0.10662333454E+03  0.11548898654E+03  0.47000000000E+01 0. -1.
         -5    1    3    3    0  503  0.54305291686E+02  0.37073683532E+02 -0.78220848611E+02  0.10229425142E+03  0.47000000000E+01 0.  1.
          5    1    3    3  503    0 -0.19488078919E+02 -0.25361729626E+02 -0.46230424148E+02  0.56412274076E+02  0.47000000000E+01 0. -1.
         -5    1    4    4    0  502 -0.26502803788E+02  0.31623379793E+02 -0.26935762581E+03  0.27254001053E+03  0.47000000000E+01 0.  1.
<mgrwt>
<rscale>  0 0.97844248E+02</rscale>
<asrwt>0</asrwt>
<pdfrwt beam="1">  1        3 0.35617913E-02 0.98486760E+02</pdfrwt>
<pdfrwt beam="2">  1       -3 0.80551370E-01 0.98486760E+02</pdfrwt>
<totfact> 0.12457764E+03</totfact>
</mgrwt>
</event>
<event>
 8    1  0.3400573E-004  0.1173649E+03  0.7546771E-02  0.1258541E+00
         -2   -1    0    0    0  501 -0.00000000000E+00  0.00000000000E+00  0.29446394823E+02  0.29446394823E+02  0.00000000000E+00 0.  1.
          2   -1    0    0  501    0  0.00000000000E+00 -0.00000000000E+00 -0.39718716007E+03  0.39718716007E+03  0.00000000000E+00 0. -1.
         23    2    1    2    0    0 -0.79775182306E+00  0.20680135869E+02 -0.15922064898E+03  0.19780225957E+03  0.11552581704E+03 0.  0.
         23    2    1    2    0    0  0.79775182306E+00 -0.20680135869E+02 -0.20852011627E+03  0.22883129533E+03  0.91950086479E+02 0.  0.
          5    1    3    3  502    0  0.75074604283E+01 -0.47365925635E+02 -0.74411918049E+02  0.88651657746E+02  0.47000000000E+01 0. -1.
         -5    1    4    4    0  503 -0.36499288471E+02 -0.36439635839E+02 -0.13771841714E+03  0.14713428404E+03  0.47000000000E+01 0.  1.
          5    1    4    4  503    0  0.37297040294E+02  0.15759499971E+02 -0.70801699129E+02  0.81697011289E+02  0.47000000000E+01 0. -1.
         -5    1    3    3    0  502 -0.83052122514E+01  0.68046061504E+02 -0.84808730930E+02  0.10915060182E+03  0.47000000000E+01 0.  1.
<mgrwt>
<rscale>  0 0.11110264E+03</rscale>
<asrwt>0</asrwt>
<pdfrwt beam="1">  1        2 0.61105717E-01 0.11736490E+03</pdfrwt>
<pdfrwt beam="2">  1       -2 0.45302146E-02 0.11736490E+03</pdfrwt>
<totfact> 0.16996373E+04</totfact>
</mgrwt>
</event>
<event>
 8    1  0.3400573E-004  0.1275239E+03  0.7546771E-02  0.1242743E+00
          1   -1    0    0  501    0  0.00000000000E+00  0.00000000000E+00  0.47272407973E+02  0.47272407973E+02  0.00000000000E+00 0. -1.
         -1   -1    0    0    0  501 -0.00000000000E+00 -0.00000000000E+00 -0.27791532911E+03  0.27791532911E+03  0.00000000000E+00 0.  1.
         23    2    1    2    0    0 -0.24856579063E+02  0.36298277674E+02 -0.11702492245E+03  0.15439136226E+03  0.90589435263E+02 0.  0.
         23    2    1    2    0    0  0.24856579063E+02 -0.36298277674E+02 -0.11361799869E+03  0.17079637483E+03  0.11969518596E+03 0.  0.
          5    1    4    4  502    0  0.66650007504E+02 -0.49821991904E+02 -0.74424407409E+02  0.11173869874E+03  0.47000000000E+01 0. -1.
         -5    1    4    4    0  502 -0.41793428440E+02  0.13523714230E+02 -0.39193591285E+02  0.59057676090E+02  0.47000000000E+01 0.  1.
          5    1    3    3  503    0  0.70598870240E+01  0.26931948777E+02  0.42463743412E+01  0.28553345947E+02  0.47000000000E+01 0. -1.
         -5    1    3    3    0  503 -0.31916466087E+02  0.93663288971E+01 -0.12127129679E+03  0.12583801631E+03  0.47000000000E+01 0.  1.
<mgrwt>
<rscale>  0 0.12021494E+03</rscale>
<asrwt>0</asrwt>
<pdfrwt beam="1">  1        1 0.72726782E-02 0.12752393E+03</pdfrwt>
<pdfrwt beam="2">  1       -1 0.42756204E-01 0.12752393E+03</pdfrwt>
<totfact> 0.51503564E+03</totfact>
</mgrwt>
</event>
<event>
 8    1  0.3400573E-004  0.1060140E+03  0.7546771E-02  0.1268587E+00
         -2   -1    0    0    0  501 -0.00000000000E+00  0.00000000000E+00  0.18882683434E+02  0.18882683434E+02  0.00000000000E+00 0.  1.
          2   -1    0    0  501    0  0.00000000000E+00 -0.00000000000E+00 -0.74231664891E+03  0.74231664891E+03  0.00000000000E+00 0. -1.
         23    2    1    2    0    0  0.52224219467E+02 -0.38796062093E+00 -0.19058250359E+03  0.21808404325E+03  0.92257463835E+02 0.  0.
         23    2    1    2    0    0 -0.52224219467E+02  0.38796062093E+00 -0.53285146189E+03  0.54311528910E+03  0.91192199238E+02 0.  0.
          5    1    4    4  502    0 -0.52885279288E+02  0.28267639618E+02 -0.47422119890E+03  0.47802065614E+03  0.47000000000E+01 0. -1.
         -5    1    4    4    0  502  0.66105982046E+00 -0.27879678997E+02 -0.58630262987E+02  0.65094632950E+02  0.47000000000E+01 0.  1.
          5    1    3    3  503    0  0.38341588832E+02  0.27058762959E+02 -0.33252535442E+02  0.57706803761E+02  0.47000000000E+01 0.  1.
         -5    1    3    3    0  503  0.13882630635E+02 -0.27446723580E+02 -0.15732996815E+03  0.16037723949E+03  0.47000000000E+01 0. -1.
<mgrwt>
<rscale>  0 0.10578176E+03</rscale>
<asrwt>0</asrwt>
<pdfrwt beam="1">  1        2 0.11420258E+00 0.10601396E+03</pdfrwt>
<pdfrwt beam="2">  1       -2 0.29050277E-02 0.10601396E+03</pdfrwt>
<totfact> 0.16158312E+04</totfact>
</mgrwt>
</event>
<event>
 8    1  0.3400573E-004  0.1035478E+03  0.7546771E-02  0.1275400E+00
         -3   -1    0    0    0  501 -0.00000000000E+00  0.00000000000E+00  0.52575008454E+03  0.52575008454E+03  0.00000000000E+00 0.  1.
          3   -1    0    0  501    0  0.00000000000E+00 -0.00000000000E+00 -0.21685384125E+02  0.21685384125E+02  0.00000000000E+00 0. -1.
         23    2    1    2    0    0  0.80322120828E+01 -0.97143039269E+01  0.33393522035E+03  0.34827174802E+03  0.98089729057E+02 0.  0.
         23    2    1    2    0    0 -0.80322120828E+01  0.97143039269E+01  0.17012948006E+03  0.19916372064E+03  0.10277773836E+03 0.  0.
          5    1    3    3  502    0 -0.29228507136E+02 -0.31382899305E+02  0.82240640224E+02  0.92869827730E+02  0.47000000000E+01 0. -1.
         -5    1    3    3    0  502  0.37260719219E+02  0.21668595379E+02  0.25169458013E+03  0.25540192029E+03  0.47000000000E+01 0.  1.
          5    1    4    4  503    0 -0.28432506979E+02  0.43723655776E+02  0.49361901254E+02  0.71964246838E+02  0.47000000000E+01 0. -1.
         -5    1    4    4    0  503  0.20400294896E+02 -0.34009351849E+02  0.12076757881E+03  0.12719947380E+03  0.47000000000E+01 0.  1.
<mgrwt>
<rscale>  0 0.10236481E+03</rscale>
<asrwt>0</asrwt>
<pdfrwt beam="1">  1        3 0.33362133E-02 0.10354780E+03</pdfrwt>
<pdfrwt beam="2">  1       -3 0.80884619E-01 0.10354780E+03</pdfrwt>
<totfact> 0.13787305E+03</totfact>
</mgrwt>
</event>
<event>
 8    1  0.3400573E-004  0.1148949E+03  0.7546771E-02  0.1262569E+00
          1   -1    0    0  501    0  0.00000000000E+00  0.00000000000E+00  0.38068396938E+03  0.38068396938E+03  0.00000000000E+00 0. -1.
         -1   -1    0    0    0  501 -0.00000000000E+00 -0.00000000000E+00 -0.46014712587E+02  0.46014712587E+02  0.00000000000E+00 0.  1.
         23    2    1    2    0    0  0.69187110197E+02  0.70320580778E+01  0.46497946876E+02  0.12394714658E+03  0.91457804602E+02 0.  0.
         23    2    1    2    0    0 -0.69187110197E+02 -0.70320580778E+01  0.28817130991E+03  0.30275153539E+03  0.61477493959E+02 0.  0.
          5    1    4    4  502    0 -0.29653595650E+02 -0.15946876135E+01  0.23055832853E+03  0.23251045486E+03  0.47000000000E+01 0. -1.
         -5    1    3    3    0  503  0.75181212690E+02  0.35267744061E+02  0.22630553466E+02  0.86198958596E+02  0.47000000000E+01 0.  1.
          5    1    3    3  503    0 -0.59941024934E+01 -0.28235685984E+02  0.23867393410E+02  0.37748187981E+02  0.47000000000E+01 0. -1.
         -5    1    4    4    0  502 -0.39533514548E+02 -0.54373704643E+01  0.57612981385E+02  0.70241080531E+02  0.47000000000E+01 0.  1.
<mgrwt>
<rscale>  0 0.10892747E+03</rscale>
<asrwt>0</asrwt>
<pdfrwt beam="1">  1        1 0.58566763E-01 0.11489489E+03</pdfrwt>
<pdfrwt beam="2">  1       -1 0.70791868E-02 0.11489489E+03</pdfrwt>
<totfact> 0.63485059E+03</totfact>
</mgrwt>
</event>
<event>
 8    1  0.3400573E-004  0.1022993E+03  0.7546771E-02  0.1276042E+00
          1   -1    0    0  501    0  0.00000000000E+00  0.00000000000E+00  0.56056340667E+03  0.56056340667E+03  0.00000000000E+00 0. -1.
         -1   -1    0    0    0  501 -0.00000000000E+00 -0.00000000000E+00 -0.28588396217E+02  0.28588396217E+02  0.00000000000E+00 0.  1.
         23    2    1    2    0    0  0.29149196106E+02 -0.36239847702E+02  0.90062193926E+02  0.13555276523E+03  0.90001951043E+02 0.  0.
         23    2    1    2    0    0 -0.29149196106E+02  0.36239847702E+02  0.44191281652E+03  0.45359903765E+03  0.91116120187E+02 0.  0.
          5    1    3    3  502    0 -0.16515542995E+02 -0.31015190651E+02  0.81071488673E+02  0.88483792229E+02  0.47000000000E+01 0. -1.
         -5    1    4    4    0  503 -0.26626685352E+02 -0.26999691778E+02  0.19099330113E+03  0.19477806552E+03  0.47000000000E+01 0.  1.
          5    1    4    4  503    0 -0.25225107537E+01  0.63239539480E+02  0.25091951539E+03  0.25882097214E+03  0.47000000000E+01 0. -1.
         -5    1    3    3    0  502  0.45664739101E+02 -0.52246570507E+01  0.89907052533E+01  0.47068973001E+02  0.47000000000E+01 0.  1.
<mgrwt>
<rscale>  0 0.10205063E+03</rscale>
<asrwt>0</asrwt>
<pdfrwt beam="1">  1        1 0.86240516E-01 0.10229931E+03</pdfrwt>
<pdfrwt beam="2">  1       -1 0.43982152E-02 0.10229931E+03</pdfrwt>
<totfact> 0.77565742E+03</totfact>
</mgrwt>
</event>
<event>
 8    1  0.3400573E-004  0.1122052E+03  0.7546771E-02  0.1256627E+00
         -1   -1    0    0    0  501 -0.00000000000E+00  0.00000000000E+00  0.19610566617E+03  0.19610566617E+03  0.00000000000E+00 0.  1.
          1   -1    0    0  501    0  0.00000000000E+00 -0.00000000000E+00 -0.67754750830E+02  0.67754750830E+02  0.00000000000E+00 0. -1.
         23    2    1    2    0    0 -0.59364906286E+02 -0.24693223421E+02  0.94807280625E+02  0.14674859975E+03  0.91721228116E+02 0.  0.
         23    2    1    2    0    0  0.59364906286E+02  0.24693223421E+02  0.33543634719E+02  0.11711181726E+03  0.91956810134E+02 0.  0.
          5    1    3    3  502    0  0.24046760338E+02 -0.38521898222E+01  0.30322140187E+02  0.39174076054E+02  0.47000000000E+01 0. -1.
         -5    1    4    4    0  503  0.35895093303E+02  0.10535690089E+02  0.64988763171E+02  0.75133799500E+02  0.47000000000E+01 0.  1.
          5    1    4    4  503    0  0.23469812983E+02  0.14157533332E+02 -0.31445128452E+02  0.41978017757E+02  0.47000000000E+01 0. -1.
         -5    1    3    3    0  502 -0.83411666624E+02 -0.20841033599E+02  0.64485140439E+02  0.10757452369E+03  0.47000000000E+01 0.  1.
<mgrwt>
<rscale>  0 0.11215690E+03</rscale>
<asrwt>0</asrwt>
<pdfrwt beam="1">  1        1 0.10423808E-01 0.11220518E+03</pdfrwt>
<pdfrwt beam="2">  1       -1 0.30170102E-01 0.11220518E+03</pdfrwt>
<totfact> 0.57557984E+03</totfact>
</mgrwt>
</event>
<event>
 8    1  0.3400573E-004  0.9263553E+02  0.7546771E-02  0.1296913E+00
          1   -1    0    0  501    0  0.00000000000E+00  0.00000000000E+00  0.98825799601E+02  0.98825799601E+02  0.00000000000E+00 0. -1.
         -1   -1    0    0    0  501 -0.00000000000E+00 -0.00000000000E+00 -0.88702929957E+02  0.88702929957E+02  0.00000000000E+00 0.  1.
         23    2    1    2    0    0  0.24409461046E+01  0.12746670776E+02 -0.10326530280E+02  0.92662933679E+02  0.91166584978E+02 0.  0.
         23    2    1    2    0    0 -0.24409461046E+01 -0.12746670776E+02  0.20449399923E+02  0.94865795880E+02  0.91721891808E+02 0.  0.
          5    1    3    3  502    0  0.34064110531E+02  0.28649775650E+02 -0.28027219511E+02  0.52808979393E+02  0.47000000000E+01 0. -1.
         -5    1    4    4    0  503 -0.41491192187E+02 -0.36060825689E+01 -0.11402333328E+02  0.43435308977E+02  0.47000000000E+01 0.  1.
          5    1    4    4  503    0  0.39050246083E+02 -0.91405882075E+01  0.31851733251E+02  0.51430486902E+02  0.47000000000E+01 0. -1.
         -5    1    3    3    0  502 -0.31623164426E+02 -0.15903104873E+02  0.17700689231E+02  0.39853954286E+02  0.47000000000E+01 0.  1.
<mgrwt>
<rscale>  0 0.92497773E+02</rscale>
<asrwt>0</asrwt>
<pdfrwt beam="1">  1        1 0.15203969E-01 0.92635529E+02</pdfrwt>
<pdfrwt beam="2">  1       -1 0.13646604E-01 0.92635529E+02</pdfrwt>
<totfact> 0.12338817E+04</totfact>
</mgrwt>
</event>
<event>
 8    1  0.3400573E-004  0.9327746E+02  0.7546771E-02  0.1295401E+00
         -1   -1    0    0    0  501 -0.00000000000E+00  0.00000000000E+00  0.76414049234E+02  0.76414049234E+02  0.00000000000E+00 0.  1.
          1   -1    0    0  501    0  0.00000000000E+00 -0.00000000000E+00 -0.11990620028E+03  0.11990620028E+03  0.00000000000E+00 0. -1.
         23    2    1    2    0    0 -0.73188350322E+01 -0.13546936352E+02 -0.44842943113E+02  0.10303301245E+03  0.91475828924E+02 0.  0.
         23    2    1    2    0    0  0.73188350322E+01  0.13546936352E+02  0.13507920644E+01  0.93287237063E+02  0.91997821327E+02 0.  0.
          5    1    4    4  502    0  0.36556981527E+02 -0.18443339664E+02 -0.18754696923E+02  0.45281324329E+02  0.47000000000E+01 0. -1.
         -5    1    3    3    0  503 -0.37477766941E+02 -0.24538440394E+02  0.30960210509E+01  0.45148570501E+02  0.47000000000E+01 0.  1.
          5    1    3    3  503    0  0.30158931909E+02  0.10991504043E+02 -0.47938964164E+02  0.57884441952E+02  0.47000000000E+01 0. -1.
         -5    1    4    4    0  502 -0.29238146495E+02  0.31990276016E+02  0.20105488987E+02  0.48005912734E+02  0.47000000000E+01 0.  1.
<mgrwt>
<rscale>  0 0.93148492E+02</rscale>
<asrwt>0</asrwt>
<pdfrwt beam="1">  1        1 0.18447108E-01 0.93277457E+02</pdfrwt>
<pdfrwt beam="2">  1       -1 0.11756008E-01 0.93277457E+02</pdfrwt>
<totfact> 0.12137387E+04</totfact>
</mgrwt>
</event>
<event>
 8    1  0.3400573E-004  0.1230921E+03  0.7546771E-02  0.1238371E+00
         -1   -1    0    0    0  501 -0.00000000000E+00  0.00000000000E+00  0.12790946786E+03  0.12790946786E+03  0.00000000000E+00 0.  1.
          1   -1    0    0  501    0  0.00000000000E+00 -0.00000000000E+00 -0.18166467309E+03  0.18166467309E+03  0.00000000000E+00 0. -1.
         23    2    1    2    0    0 -0.44392385635E+02 -0.69819240801E+02  0.64978278846E+02  0.13854988556E+03  0.90158104341E+02 0.  0.
         23    2    1    2    0    0  0.44392385635E+02  0.69819240801E+02 -0.11873348407E+03  0.17102425539E+03  0.91138605456E+02 0.  0.
          5    1    4    4  502    0  0.27323659880E+02  0.90687278528E+02 -0.10027853507E+03  0.13801680865E+03  0.47000000000E+01 0. -1.
         -5    1    3    3    0  503  0.11136529261E+02 -0.55819242355E+02  0.56733763719E+02  0.80502298395E+02  0.47000000000E+01 0.  1.
          5    1    3    3  503    0 -0.55528914896E+02 -0.13999998446E+02  0.82445151275E+01  0.58047587165E+02  0.47000000000E+01 0. -1.
         -5    1    4    4    0  502  0.17068725755E+02 -0.20868037726E+02 -0.18454949006E+02  0.33007446739E+02  0.47000000000E+01 0.  1.
<mgrwt>
<rscale>  0 0.12291061E+03</rscale>
<asrwt>0</asrwt>
<pdfrwt beam="1">  1        1 0.27948411E-01 0.12309206E+03</pdfrwt>
<pdfrwt beam="2">  1       -1 0.19678380E-01 0.12309206E+03</pdfrwt>
<totfact> 0.32960757E+03</totfact>
</mgrwt>
</event>
<event>
 8    1  0.3400573E-004  0.1084395E+03  0.7546771E-02  0.1263912E+00
          1   -1    0    0  501    0  0.00000000000E+00  0.00000000000E+00  0.87231058253E+02  0.87231058253E+02  0.00000000000E+00 0. -1.
         -1   -1    0    0    0  501 -0.00000000000E+00 -0.00000000000E+00 -0.14231683502E+03  0.14231683502E+03  0.00000000000E+00 0.  1.
         23    2    1    2    0    0  0.17370068903E+02 -0.56073432404E+02  0.81668414112E+00  0.10754704321E+03  0.90109657726E+02 0.  0.
         23    2    1    2    0    0 -0.17370068903E+02  0.56073432404E+02 -0.55902460911E+02  0.12200085006E+03  0.91176604264E+02 0.  0.
          5    1    4    4  502    0 -0.32257941856E+02  0.72587078183E+02 -0.24537563969E+02  0.83268486101E+02  0.47000000000E+01 0. -1.
         -5    1    3    3    0  503 -0.23905375727E+02 -0.60645516947E+02  0.49884942879E+01  0.65546325524E+02  0.47000000000E+01 0.  1.
          5    1    3    3  503    0  0.41275444630E+02  0.45720845430E+01 -0.41718101468E+01  0.42000717689E+02  0.47000000000E+01 0. -1.
         -5    1    4    4    0  502  0.14887872953E+02 -0.16513645779E+02 -0.31364896941E+02  0.38732363963E+02  0.47000000000E+01 0.  1.
<mgrwt>
<rscale>  0 0.10821490E+03</rscale>
<asrwt>0</asrwt>
<pdfrwt beam="1">  1        1 0.13420163E-01 0.10843949E+03</pdfrwt>
<pdfrwt beam="2">  1       -1 0.21894898E-01 0.10843949E+03</pdfrwt>
<totfact> 0.69837518E+03</totfact>
</mgrwt>
</event>
<event>
 8    1  0.3400573E-004  0.1051220E+03  0.7546771E-02  0.1275455E+00
          1   -1    0    0  501    0  0.00000000000E+00  0.00000000000E+00  0.13848622988E+02  0.13848622988E+02  0.00000000000E+00 0. -1.
         -1   -1    0    0    0  501 -0.00000000000E+00 -0.00000000000E+00 -0.72359798025E+03  0.72359798025E+03  0.00000000000E+00 0.  1.
         23    2    1    2    0    0  0.10879663620E+02  0.43345480201E+02 -0.36596240028E+03  0.37794679171E+03  0.83175123717E+02 0.  0.
         23    2    1    2    0    0 -0.10879663620E+02 -0.43345480201E+02 -0.34378695698E+03  0.35949981153E+03  0.95149592579E+02 0.  0.
          5    1    4    4  502    0 -0.67327746036E+01 -0.73437605156E+02 -0.22634662814E+03  0.23810354507E+03  0.47000000000E+01 0. -1.
         -5    1    4    4    0  502 -0.41468890163E+01  0.30092124955E+02 -0.11744032884E+03  0.12139626646E+03  0.47000000000E+01 0.  1.
          5    1    3    3  503    0 -0.27694194627E+02 -0.76212995016E+01 -0.14423440415E+03  0.14714178864E+03  0.47000000000E+01 0. -1.
         -5    1    3    3    0  503  0.38573858247E+02  0.50966779702E+02 -0.22172799613E+03  0.23080500307E+03  0.47000000000E+01 0.  1.
<mgrwt>
<rscale>  0 0.10233809E+03</rscale>
<asrwt>0</asrwt>
<pdfrwt beam="1">  1        1 0.21305585E-02 0.10512204E+03</pdfrwt>
<pdfrwt beam="2">  1       -1 0.11132271E+00 0.10512204E+03</pdfrwt>
<totfact> 0.41025342E+03</totfact>
</mgrwt>
</event>
<event>
 8    1  0.3400573E-004  0.9412057E+02  0.7546771E-02  0.1294625E+00
         -1   -1    0    0    0  501 -0.00000000000E+00  0.00000000000E+00  0.28089366374E+03  0.28089366374E+03  0.00000000000E+00 0.  1.
          1   -1    0    0  501    0  0.00000000000E+00 -0.00000000000E+00 -0.30723409250E+02  0.30723409250E+02  0.00000000000E+00 0. -1.
         23    2    1    2    0    0  0.71300381269E+01  0.19959754450E+02  0.11908661217E+03  0.15024296440E+03  0.89118448770E+02 0.  0.
         23    2    1    2    0    0 -0.71300381269E+01 -0.19959754450E+02  0.13108364232E+03  0.16137410860E+03  0.91703066468E+02 0.  0.
          5    1    3    3  502    0  0.26388345368E+02 -0.25815009749E+02  0.74764831079E+02  0.83514247083E+02  0.47000000000E+01 0. -1.
         -5    1    4    4    0  503  0.21625355979E+01  0.35541628695E+02  0.66539600637E+02  0.75614101750E+02  0.47000000000E+01 0.  1.
          5    1    4    4  503    0 -0.92925737248E+01 -0.55501383144E+02  0.64544041685E+02  0.85760006847E+02  0.47000000000E+01 0. -1.
         -5    1    3    3    0  502 -0.19258307241E+02  0.45774764199E+02  0.44321781093E+02  0.66728717315E+02  0.47000000000E+01 0.  1.
<mgrwt>
<rscale>  0 0.93485067E+02</rscale>
<asrwt>0</asrwt>
<pdfrwt beam="1">  1        1 0.47266785E-02 0.94120570E+02</pdfrwt>
<pdfrwt beam="2">  1       -1 0.43214408E-01 0.94120570E+02</pdfrwt>
<totfact> 0.88205341E+03</totfact>
</mgrwt>
</event>
<event>
 8    1  0.3400573E-004  0.1124398E+03  0.7546771E-02  0.1256607E+00
          2   -1    0    0  501    0  0.00000000000E+00  0.00000000000E+00  0.38970833459E+03  0.38970833459E+03  0.00000000000E+00 0. -1.
         -2   -1    0    0    0  501 -0.00000000000E+00 -0.00000000000E+00 -0.32744794397E+02  0.32744794397E+02  0.00000000000E+00 0.  1.
         23    2    1    2    0    0  0.56102187182E+02  0.16709413354E+02  0.20658980135E+03  0.23469008741E+03  0.94728196457E+02 0.  0.
         23    2    1    2    0    0 -0.56102187182E+02 -0.16709413354E+02  0.15037373884E+03  0.18776304158E+03  0.96000200773E+02 0.  0.
          5    1    3    3  502    0 -0.22113583274E+02 -0.77914563015E+01  0.82537863548E+02  0.85931986336E+02  0.47000000000E+01 0. -1.
         -5    1    4    4    0  503 -0.20051560729E+02 -0.55446515755E+02  0.84308685820E+02  0.10298750265E+03  0.47000000000E+01 0.  1.
          5    1    4    4  503    0 -0.36050626453E+02  0.38737102402E+02  0.66065053025E+02  0.84775538933E+02  0.47000000000E+01 0. -1.
         -5    1    3    3    0  502  0.78215770456E+02  0.24500869655E+02  0.12405193780E+03  0.14875810107E+03  0.47000000000E+01 0.  1.
<mgrwt>
<rscale>  0 0.11216775E+03</rscale>
<asrwt>0</asrwt>
<pdfrwt beam="1">  1        2 0.59955125E-01 0.11243975E+03</pdfrwt>
<pdfrwt beam="2">  1       -2 0.50376609E-02 0.11243975E+03</pdfrwt>
<totfact> 0.14747003E+04</totfact>
</mgrwt>
</event>
<event>
 8    1  0.3400573E-004  0.1030246E+03  0.7546771E-02  0.1275090E+00
         -1   -1    0    0    0  501 -0.00000000000E+00  0.00000000000E+00  0.65414475741E+02  0.65414475741E+02  0.00000000000E+00 0.  1.
          1   -1    0    0  501    0  0.00000000000E+00 -0.00000000000E+00 -0.16634584036E+03  0.16634584036E+03  0.00000000000E+00 0. -1.
         23    2    1    2    0    0  0.18263516782E+02  0.41214924869E+02 -0.25808561415E+02  0.10425538546E+03  0.90392906129E+02 0.  0.
         23    2    1    2    0    0 -0.18263516782E+02 -0.41214924869E+02 -0.75122803206E+02  0.12750493064E+03  0.92638251812E+02 0.  0.
          5    1    4    4  502    0  0.98269504348E+01 -0.50632167316E+02 -0.59793145462E+01  0.52134705565E+02  0.47000000000E+01 0. -1.
         -5    1    3    3    0  503  0.48696536935E+02  0.48590125285E+02 -0.13378560283E+02  0.70238371705E+02  0.47000000000E+01 0.  1.
          5    1    3    3  503    0 -0.30433020153E+02 -0.73752004160E+01 -0.12430001133E+02  0.34017013757E+02  0.47000000000E+01 0. -1.
         -5    1    4    4    0  502 -0.28090467217E+02  0.94172424473E+01 -0.69143488660E+02  0.75370225075E+02  0.47000000000E+01 0.  1.
<mgrwt>
<rscale>  0 0.10251733E+03</rscale>
<asrwt>0</asrwt>
<pdfrwt beam="1">  1        1 0.25591667E-01 0.10302462E+03</pdfrwt>
<pdfrwt beam="2">  1       -1 0.10063766E-01 0.10302462E+03</pdfrwt>
<totfact> 0.10295904E+04</totfact>
</mgrwt>
</event>
<event>
 8    1  0.3400573E-004  0.1124742E+03  0.7546771E-02  0.1257477E+00
         -1   -1    0    0    0  501 -0.00000000000E+00  0.00000000000E+00  0.16829461738E+03  0.16829461738E+03  0.00000000000E+00 0.  1.
          1   -1    0    0  501    0  0.00000000000E+00 -0.00000000000E+00 -0.12256533246E+03  0.12256533246E+03  0.00000000000E+00 0. -1.
         23    2    1    2    0    0 -0.61738825134E+02 -0.10077181953E+02  0.11505571450E+03  0.15873655781E+03  0.89700865221E+02 0.  0.
         23    2    1    2    0    0  0.61738825134E+02  0.10077181953E+02 -0.69326429575E+02  0.13212339203E+03  0.93473016205E+02 0.  0.
          5    1    3    3  502    0  0.77700075790E+01 -0.34384292319E+02  0.36418362882E+02  0.50902256641E+02  0.47000000000E+01 0. -1.
         -5    1    3    3    0  502 -0.69508832713E+02  0.24307110366E+02  0.78637351619E+02  0.10783430117E+03  0.47000000000E+01 0.  1.
          5    1    4    4  503    0  0.30851287531E+02  0.18648370786E+02 -0.87659027990E+02  0.94898676827E+02  0.47000000000E+01 0. -1.
         -5    1    4    4    0  503  0.30887537602E+02 -0.85711888330E+01  0.18332598416E+02  0.37224715201E+02  0.47000000000E+01 0.  1.
<mgrwt>
<rscale>  0 0.11168725E+03</rscale>
<asrwt>0</asrwt>
<pdfrwt beam="1">  1        1 0.18856205E-01 0.11247416E+03</pdfrwt>
<pdfrwt beam="2">  1       -1 0.25891480E-01 0.11247416E+03</pdfrwt>
<totfact> 0.34475871E+03</totfact>
</mgrwt>
</event>
<event>
 8    1  0.3400573E-004  0.1878587E+03  0.7546771E-02  0.1160462E+00
          2   -1    0    0  501    0  0.00000000000E+00  0.00000000000E+00  0.64241135955E+03  0.64241135955E+03  0.00000000000E+00 0. -1.
         -2   -1    0    0    0  501 -0.00000000000E+00 -0.00000000000E+00 -0.14358665735E+03  0.14358665735E+03  0.00000000000E+00 0.  1.
         23    2    1    2    0    0  0.11683757922E+03 -0.11529682656E+03 -0.59448841169E+02  0.19704070324E+03  0.91359158737E+02 0.  0.
         23    2    1    2    0    0 -0.11683757922E+03  0.11529682656E+03  0.55827354337E+03  0.58895731366E+03  0.90867980918E+02 0.  0.
          5    1    3    3  502    0 -0.14208545652E+02 -0.15619425337E+02  0.81777848838E+00  0.21647355012E+02  0.47000000000E+01 0. -1.
         -5    1    3    3    0  502  0.13104612487E+03 -0.99677401219E+02 -0.60266619657E+02  0.17539334823E+03  0.47000000000E+01 0.  1.
          5    1    4    4  503    0 -0.10853615869E+03  0.69908652280E+02  0.48760494545E+03  0.50442837968E+03  0.47000000000E+01 0. -1.
         -5    1    4    4    0  503 -0.83014205336E+01  0.45388174276E+02  0.70668597924E+02  0.84528933978E+02  0.47000000000E+01 0.  1.
<mgrwt>
<rscale>  0 0.18779903E+03</rscale>
<asrwt>0</asrwt>
<pdfrwt beam="1">  1        2 0.98832515E-01 0.18785865E+03</pdfrwt>
<pdfrwt beam="2">  1       -2 0.22090255E-01 0.18785865E+03</pdfrwt>
<totfact> 0.82587475E+02</totfact>
</mgrwt>
</event>
<event>
 8    1  0.3400573E-004  0.1026374E+03  0.7546771E-02  0.1281662E+00
         -2   -1    0    0    0  501 -0.00000000000E+00  0.00000000000E+00  0.29008904492E+03  0.29008904492E+03  0.00000000000E+00 0.  1.
          2   -1    0    0  501    0  0.00000000000E+00 -0.00000000000E+00 -0.61228276909E+02  0.61228276909E+02  0.00000000000E+00 0. -1.
         23    2    1    2    0    0  0.35687504615E+01  0.30712590481E+02 -0.28732315595E+01  0.10267757030E+03  0.97869447684E+02 0.  0.
         23    2    1    2    0    0 -0.35687504615E+01 -0.30712590481E+02  0.23173399957E+03  0.24863975153E+03  0.84646797265E+02 0.  0.
          5    1    4    4  502    0  0.26031785371E+02  0.18341396189E+02  0.71694933662E+02  0.78589529688E+02  0.47000000000E+01 0. -1.
         -5    1    4    4    0  502 -0.29600535832E+02 -0.49053986670E+02  0.16003906591E+03  0.17005022184E+03  0.47000000000E+01 0.  1.
          5    1    3    3  503    0  0.23303091708E+02 -0.13786128939E+02  0.32321876116E+02  0.42425052857E+02  0.47000000000E+01 0.  1.
         -5    1    3    3    0  503 -0.19734341246E+02  0.44498719420E+02 -0.35195107676E+02  0.60252517447E+02  0.47000000000E+01 0. -1.
<mgrwt>
<rscale>  0 0.99352964E+02</rscale>
<asrwt>0</asrwt>
<pdfrwt beam="1">  1        2 0.94197351E-02 0.10263736E+03</pdfrwt>
<pdfrwt beam="2">  1       -2 0.44629083E-01 0.10263736E+03</pdfrwt>
<totfact> 0.31300021E+03</totfact>
</mgrwt>
</event>
<event>
 8    1  0.3400573E-004  0.9225969E+02  0.7546771E-02  0.1297699E+00
         -1   -1    0    0    0  501 -0.00000000000E+00  0.00000000000E+00  0.52170331309E+02  0.52170331309E+02  0.00000000000E+00 0.  1.
          1   -1    0    0  501    0  0.00000000000E+00 -0.00000000000E+00 -0.45498588548E+03  0.45498588548E+03  0.00000000000E+00 0. -1.
         23    2    1    2    0    0  0.25931129528E+01  0.14088773941E+02 -0.40488468445E+03  0.41526312009E+03  0.91140734131E+02 0.  0.
         23    2    1    2    0    0 -0.25931129528E+01 -0.14088773941E+02  0.20691302819E+01  0.91893096697E+02  0.90746030957E+02 0.  0.
          5    1    3    3  502    0 -0.27614984981E+02  0.25629159599E+02 -0.34465555969E+03  0.34674051688E+03  0.47000000000E+01 0. -1.
         -5    1    4    4    0  503  0.33007600347E+02  0.33103559746E+01  0.28536819446E+02  0.44010228373E+02  0.47000000000E+01 0.  1.
          5    1    4    4  503    0 -0.35600713300E+02 -0.17399129915E+02 -0.26467689164E+02  0.47882868324E+02  0.47000000000E+01 0. -1.
         -5    1    3    3    0  502  0.30208097933E+02 -0.11540385658E+02 -0.60229124758E+02  0.68522603212E+02  0.47000000000E+01 0.  1.
<mgrwt>
<rscale>  0 0.92162066E+02</rscale>
<asrwt>0</asrwt>
<pdfrwt beam="1">  1        1 0.69997825E-01 0.92259694E+02</pdfrwt>
<pdfrwt beam="2">  1       -1 0.80262052E-02 0.92259694E+02</pdfrwt>
<totfact> 0.41518472E+03</totfact>
</mgrwt>
</event>
<event>
 8    1  0.3400573E-004  0.9803838E+02  0.7546771E-02  0.1284867E+00
          1   -1    0    0  501    0  0.00000000000E+00  0.00000000000E+00  0.26740843680E+03  0.26740843680E+03  0.00000000000E+00 0. -1.
         -1   -1    0    0    0  501 -0.00000000000E+00 -0.00000000000E+00 -0.82999183819E+02  0.82999183819E+02  0.00000000000E+00 0.  1.
         23    2    1    2    0    0 -0.12890786027E+01 -0.36248106122E+02 -0.40232153719E+02  0.10530501773E+03  0.90304671228E+02 0.  0.
         23    2    1    2    0    0  0.12890786027E+01  0.36248106122E+02  0.22464140670E+03  0.24510260288E+03  0.91082036740E+02 0.  0.
          5    1    4    4  502    0 -0.21355258821E+02 -0.21855098621E+02  0.42724114208E+02  0.52736442333E+02  0.47000000000E+01 0. -1.
         -5    1    4    4    0  502  0.22644337424E+02  0.58103204743E+02  0.18191729249E+03  0.19236616055E+03  0.47000000000E+01 0.  1.
          5    1    3    3  503    0  0.19521243008E+02  0.24638772622E+02 -0.20566710921E+02  0.37857993119E+02  0.47000000000E+01 0. -1.
         -5    1    3    3    0  503 -0.20810321611E+02 -0.60886878744E+02 -0.19665442797E+02  0.67447024613E+02  0.47000000000E+01 0.  1.
<mgrwt>
<rscale>  0 0.97857436E+02</rscale>
<asrwt>0</asrwt>
<pdfrwt beam="1">  1        1 0.41139759E-01 0.98038382E+02</pdfrwt>
<pdfrwt beam="2">  1       -1 0.12769105E-01 0.98038382E+02</pdfrwt>
<totfact> 0.39786279E+03</totfact>
</mgrwt>
</event>
<event>
 8    1  0.3400573E-004  0.1105600E+03  0.7546771E-02  0.1270500E+00
          2   -1    0    0  501    0  0.00000000000E+00  0.00000000000E+00  0.62979477599E+03  0.62979477599E+03  0.00000000000E+00 0. -1.
         -2   -1    0    0    0  501 -0.00000000000E+00 -0.00000000000E+00 -0.27998769059E+02  0.27998769059E+02  0.00000000000E+00 0.  1.
         23    2    1    2    0    0  0.27165151138E+02  0.30555440415E+02  0.53495859462E+03  0.54626386289E+03  0.10272258550E+03 0.  0.
         23    2    1    2    0    0 -0.27165151138E+02 -0.30555440415E+02  0.66837412318E+02  0.11152968216E+03  0.79372853938E+02 0.  0.
          5    1    3    3  502    0  0.34026507127E+02  0.63029181430E+02  0.27756287773E+03  0.28669447499E+03  0.47000000000E+01 0. -1.
         -5    1    4    4    0  503  0.19669989604E+02  0.94761094592E+01  0.36261474291E+02  0.42587435462E+02  0.47000000000E+01 0. -1.
          5    1    4    4  503    0 -0.46835140741E+02 -0.40031549874E+02  0.30575938027E+02  0.68942246698E+02  0.47000000000E+01 0.  1.
         -5    1    3    3    0  502 -0.68613559893E+01 -0.32473741015E+02  0.25739571689E+03  0.25956938790E+03  0.47000000000E+01 0.  1.
<mgrwt>
<rscale>  0 0.10480738E+03</rscale>
<asrwt>0</asrwt>
<pdfrwt beam="1">  1        2 0.96891493E-01 0.11055998E+03</pdfrwt>
<pdfrwt beam="2">  1       -2 0.43075034E-02 0.11055998E+03</pdfrwt>
<totfact> 0.11007852E+04</totfact>
</mgrwt>
</event>
<event>
 8    1  0.3400573E-004  0.1061404E+03  0.7546771E-02  0.1267891E+00
         -1   -1    0    0    0  501 -0.00000000000E+00  0.00000000000E+00  0.20580124501E+02  0.20580124501E+02  0.00000000000E+00 0.  1.
          1   -1    0    0  501    0  0.00000000000E+00 -0.00000000000E+00 -0.54878268523E+03  0.54878268523E+03  0.00000000000E+00 0. -1.
         23    2    1    2    0    0  0.86707425144E+01 -0.53051868466E+02 -0.24973745937E+03  0.27135694073E+03  0.91521080338E+02 0.  0.
         23    2    1    2    0    0 -0.86707425144E+01  0.53051868466E+02 -0.27846510136E+03  0.29800586900E+03  0.91515041172E+02 0.  0.
          5    1    3    3  502    0  0.39831650939E+02 -0.40617611632E+01 -0.55654186940E+02  0.68720716267E+02  0.47000000000E+01 0. -1.
         -5    1    4    4    0  503 -0.39843553586E+02 -0.35823177887E+01 -0.12758894925E+03  0.13379600791E+03  0.47000000000E+01 0.  1.
          5    1    4    4  503    0  0.31172811072E+02  0.56634186255E+02 -0.15087615211E+03  0.16420986109E+03  0.47000000000E+01 0. -1.
         -5    1    3    3    0  502 -0.31160908425E+02 -0.48990107303E+02 -0.19408327243E+03  0.20263622447E+03  0.47000000000E+01 0.  1.
<mgrwt>
<rscale>  0 0.10613913E+03</rscale>
<asrwt>0</asrwt>
<pdfrwt beam="1">  1        1 0.84428103E-01 0.10614043E+03</pdfrwt>
<pdfrwt beam="2">  1       -1 0.31661731E-02 0.10614043E+03</pdfrwt>
<totfact> 0.12904737E+04</totfact>
</mgrwt>
</event>
<event>
 8    1  0.3400573E-004  0.2127040E+03  0.7546771E-02  0.1139463E+00
          2   -1    0    0  501    0  0.00000000000E+00  0.00000000000E+00  0.11340719214E+04  0.11340719214E+04  0.00000000000E+00 0.  1.
         -2   -1    0    0    0  501 -0.00000000000E+00 -0.00000000000E+00 -0.41369089920E+02  0.41369089920E+02  0.00000000000E+00 0. -1.
         23    2    1    2    0    0  0.64343881194E+01 -0.19183016248E+03  0.43476388677E+03  0.48400683193E+03  0.91666588928E+02 0.  0.
         23    2    1    2    0    0 -0.64343881194E+01  0.19183016248E+03  0.65793894469E+03  0.69143417938E+03  0.91418580610E+02 0.  0.
          5    1    3    3  502    0 -0.36658229107E+02 -0.13477743893E+03  0.26126010003E+03  0.29628991491E+03  0.47000000000E+01 0. -1.
         -5    1    3    3    0  502  0.43092617226E+02 -0.57052723545E+02  0.17350378673E+03  0.18771691702E+03  0.47000000000E+01 0.  1.
          5    1    4    4  503    0 -0.28296783031E+02  0.20245744216E+02  0.66455875989E+02  0.75160305628E+02  0.47000000000E+01 0. -1.
         -5    1    4    4    0  503  0.21862394911E+02  0.17158441826E+03  0.59148306870E+03  0.61627387375E+03  0.47000000000E+01 0.  1.
<mgrwt>
<rscale>  0 0.21267727E+03</rscale>
<asrwt>0</asrwt>
<pdfrwt beam="1">  1        2 0.17447258E+00 0.21270396E+03</pdfrwt>
<pdfrwt beam="2">  1       -2 0.63644762E-02 0.21270396E+03</pdfrwt>
<totfact> 0.29355041E+03</totfact>
</mgrwt>
</event>
<event>
 8    1  0.3400573E-004  0.1068488E+03  0.7546771E-02  0.1267632E+00
          2   -1    0    0  501    0  0.00000000000E+00  0.00000000000E+00  0.54015695635E+02  0.54015695635E+02  0.00000000000E+00 0. -1.
         -2   -1    0    0    0  501 -0.00000000000E+00 -0.00000000000E+00 -0.25062491877E+03  0.25062491877E+03  0.00000000000E+00 0.  1.
         23    2    1    2    0    0 -0.49832490297E+02 -0.18585941607E+02 -0.16107494222E+03  0.19203798203E+03  0.90026302926E+02 0.  0.
         23    2    1    2    0    0  0.49832490297E+02  0.18585941607E+02 -0.35534280911E+02  0.11260263237E+03  0.92671211178E+02 0.  0.
          5    1    4    4  502    0  0.51576613863E+01  0.41376201867E+02  0.11687274249E+02  0.43557708058E+02  0.47000000000E+01 0. -1.
         -5    1    4    4    0  502  0.44674828911E+02 -0.22790260260E+02 -0.47221555160E+02  0.69044924308E+02  0.47000000000E+01 0.  1.
          5    1    3    3  503    0  0.22815941075E+02  0.11251867634E+02 -0.41289549252E+02  0.48724619750E+02  0.47000000000E+01 0. -1.
         -5    1    3    3    0  503 -0.72648431372E+02 -0.29837809241E+02 -0.11978539297E+03  0.14331336228E+03  0.47000000000E+01 0.  1.
<mgrwt>
<rscale>  0 0.10627275E+03</rscale>
<asrwt>0</asrwt>
<pdfrwt beam="1">  1        2 0.83101070E-02 0.10684881E+03</pdfrwt>
<pdfrwt beam="2">  1       -2 0.38557680E-01 0.10684881E+03</pdfrwt>
<totfact> 0.48344550E+03</totfact>
</mgrwt>
</event>
<event>
 8    1  0.3400573E-004  0.9283334E+02  0.7546771E-02  0.1296350E+00
         -2   -1    0    0    0  501 -0.00000000000E+00  0.00000000000E+00  0.77010299295E+01  0.77010299295E+01  0.00000000000E+00 0.  1.
          2   -1    0    0  501    0  0.00000000000E+00 -0.00000000000E+00 -0.12011834060E+04  0.12011834060E+04  0.00000000000E+00 0. -1.
         23    2    1    2    0    0 -0.53669067840E+01 -0.20142643911E+02 -0.43553851095E+03  0.44532215750E+03  0.90462697536E+02 0.  0.
         23    2    1    2    0    0  0.53669067840E+01  0.20142643911E+02 -0.75794386512E+03  0.76356227843E+03  0.90077303348E+02 0.  0.
          5    1    4    4  502    0  0.45639354103E+02  0.23373446715E+02 -0.45328946594E+03  0.45620466743E+03  0.47000000000E+01 0. -1.
         -5    1    4    4    0  502 -0.40272447319E+02 -0.32308028047E+01 -0.30465439918E+03  0.30735761100E+03  0.47000000000E+01 0.  1.
          5    1    3    3  503    0 -0.30269584538E+02  0.18973164317E+02 -0.29646396561E+03  0.29864561209E+03  0.47000000000E+01 0. -1.
         -5    1    3    3    0  503  0.24902677754E+02 -0.39115808227E+02 -0.13907454534E+03  0.14667654541E+03  0.47000000000E+01 0.  1.
<mgrwt>
<rscale>  0 0.92739322E+02</rscale>
<asrwt>0</asrwt>
<pdfrwt beam="1">  1        2 0.18479749E+00 0.92833342E+02</pdfrwt>
<pdfrwt beam="2">  1       -2 0.11847735E-02 0.92833342E+02</pdfrwt>
<totfact> 0.30609354E+04</totfact>
</mgrwt>
</event>
<event>
 8    1  0.3400573E-004  0.1162012E+03  0.7546771E-02  0.1255592E+00
         -1   -1    0    0    0  501 -0.00000000000E+00  0.00000000000E+00  0.31921818837E+02  0.31921818837E+02  0.00000000000E+00 0.  1.
          1   -1    0    0  501    0  0.00000000000E+00 -0.00000000000E+00 -0.58644217796E+03  0.58644217796E+03  0.00000000000E+00 0. -1.
         23    2    1    2    0    0 -0.35293141235E+02 -0.44435117019E+02 -0.10306644917E+03  0.15532353985E+03  0.10140327236E+03 0.  0.
         23    2    1    2    0    0  0.35293141235E+02  0.44435117019E+02 -0.45145390995E+03  0.46304045695E+03  0.85882166447E+02 0.  0.
          5    1    3    3  502    0  0.34624669154E+02 -0.26140728033E+02 -0.35107804427E+02  0.56007618302E+02  0.47000000000E+01 0. -1.
         -5    1    4    4    0  503 -0.24470879414E+02  0.26991235379E+01 -0.63458025529E+02  0.68228441366E+02  0.47000000000E+01 0.  1.
          5    1    4    4  503    0  0.59764020649E+02  0.41735993481E+02 -0.38799588442E+03  0.39481201558E+03  0.47000000000E+01 0. -1.
         -5    1    3    3    0  502 -0.69917810390E+02 -0.18294388986E+02 -0.67958644744E+02  0.99315921551E+02  0.47000000000E+01 0.  1.
<mgrwt>
<rscale>  0 0.11273265E+03</rscale>
<asrwt>0</asrwt>
<pdfrwt beam="1">  1        1 0.90221870E-01 0.11620116E+03</pdfrwt>
<pdfrwt beam="2">  1       -1 0.49110492E-02 0.11620116E+03</pdfrwt>
<totfact> 0.62635014E+03</totfact>
</mgrwt>
</event>
<event>
 8    1  0.3400573E-004  0.1113697E+03  0.7546771E-02  0.1258754E+00
         -2   -1    0    0    0  501 -0.00000000000E+00  0.00000000000E+00  0.35146038101E+03  0.35146038101E+03  0.00000000000E+00 0.  1.
          2   -1    0    0  501    0  0.00000000000E+00 -0.00000000000E+00 -0.36050818452E+02  0.36050818452E+02  0.00000000000E+00 0. -1.
         23    2    1    2    0    0  0.36934114825E+01  0.61996931568E+02  0.19471169910E+03  0.22431194875E+03  0.92444273891E+02 0.  0.
         23    2    1    2    0    0 -0.36934114825E+01 -0.61996931568E+02  0.12069786346E+03  0.16319925071E+03  0.90602209557E+02 0.  0.
          5    1    4    4  502    0 -0.11816327878E+02 -0.17427662827E+02 -0.10735690545E+02  0.24097595058E+02  0.47000000000E+01 0. -1.
         -5    1    4    4    0  502  0.81229163951E+01 -0.44569268741E+02  0.13143355401E+03  0.13910165565E+03  0.47000000000E+01 0.  1.
          5    1    3    3  503    0 -0.96775449804E+01 -0.22482382609E+02  0.55784801903E+02  0.61099480586E+02  0.47000000000E+01 0. -1.
         -5    1    3    3    0  503  0.13370956463E+02  0.84479314177E+02  0.13892689720E+03  0.16321246817E+03  0.47000000000E+01 0.  1.
<mgrwt>
<rscale>  0 0.11098665E+03</rscale>
<asrwt>0</asrwt>
<pdfrwt beam="1">  1        2 0.55462800E-02 0.11136968E+03</pdfrwt>
<pdfrwt beam="2">  1       -2 0.54070825E-01 0.11136968E+03</pdfrwt>
<totfact> 0.42071618E+03</totfact>
</mgrwt>
</event>
<event>
 7    1  0.3400573E-004  0.2824106E+03  0.7546771E-02  0.1102354E+00
         -1   -1    0    0    0  501 -0.00000000000E+00  0.00000000000E+00  0.66317890639E+02  0.66317890639E+02  0.00000000000E+00 0.  1.
          1   -1    0    0  501    0  0.00000000000E+00 -0.00000000000E+00 -0.12829586911E+04  0.12829586911E+04  0.00000000000E+00 0. -1.
         23    2    1    2    0    0  0.17381324146E+03 -0.11722334571E+03 -0.23762545821E+03  0.33034244733E+03  0.93316228112E+02 0.  0.
          5    1    1    2  502    0 -0.16626933891E+03  0.16142280170E+03 -0.88211555450E+03  0.91205962276E+03  0.47000000000E+01 0. -1.
         -5    1    1    2    0  502 -0.75439025534E+01 -0.44199455996E+02 -0.96899787741E+02  0.10687451165E+03  0.47000000000E+01 0.  1.
          5    1    3    3  503    0  0.83782212020E+02 -0.50657642632E+01 -0.69762028429E+02  0.10924262734E+03  0.47000000000E+01 0. -1.
         -5    1    3    3    0  503  0.90031029442E+02 -0.11215758144E+03 -0.16786342979E+03  0.22109981998E+03  0.47000000000E+01 0.  1.
<mgrwt>
<rscale>  0 0.26813043E+03</rscale>
<asrwt>0</asrwt>
<pdfrwt beam="1">  1        1 0.19737822E+00 0.28241057E+03</pdfrwt>
<pdfrwt beam="2">  1       -1 0.10202754E-01 0.28241057E+03</pdfrwt>
<totfact> 0.59323802E+02</totfact>
</mgrwt>
</event>
<event>
 8    1  0.3400573E-004  0.1084291E+03  0.7546771E-02  0.1263987E+00
         -1   -1    0    0    0  501 -0.00000000000E+00  0.00000000000E+00  0.21437999053E+02  0.21437999053E+02  0.00000000000E+00 0.  1.
          1   -1    0    0  501    0  0.00000000000E+00 -0.00000000000E+00 -0.64460629237E+03  0.64460629237E+03  0.00000000000E+00 0. -1.
         23    2    1    2    0    0 -0.50764929300E+02  0.23874228650E+02 -0.18079739379E+03  0.21081881305E+03  0.92789102249E+02 0.  0.
         23    2    1    2    0    0  0.50764929300E+02 -0.23874228650E+02 -0.44237089953E+03  0.45522547838E+03  0.91603310894E+02 0.  0.
          5    1    4    4  502    0  0.42969260909E+02 -0.42397308301E+02 -0.42166626506E+03  0.42599110111E+03  0.47000000000E+01 0. -1.
         -5    1    4    4    0  502  0.77956683903E+01  0.18523079651E+02 -0.20704634472E+02  0.29234377264E+02  0.47000000000E+01 0.  1.
          5    1    3    3  503    0  0.16068581275E+02 -0.16214738693E+02 -0.79962797699E+02  0.83290191925E+02  0.47000000000E+01 0. -1.
         -5    1    3    3    0  503 -0.66833510575E+02  0.40088967343E+02 -0.10083459609E+03  0.12752862113E+03  0.47000000000E+01 0.  1.
<mgrwt>
<rscale>  0 0.10817498E+03</rscale>
<asrwt>0</asrwt>
<pdfrwt beam="1">  1        1 0.99170186E-01 0.10842912E+03</pdfrwt>
<pdfrwt beam="2">  1       -1 0.32981541E-02 0.10842912E+03</pdfrwt>
<totfact> 0.98093624E+03</totfact>
</mgrwt>
</event>
<event>
 8    1  0.3400573E-004  0.9279653E+02  0.7546771E-02  0.1296244E+00
         -1   -1    0    0    0  501 -0.00000000000E+00  0.00000000000E+00  0.15572066749E+02  0.15572066749E+02  0.00000000000E+00 0.  1.
          1   -1    0    0  501    0  0.00000000000E+00 -0.00000000000E+00 -0.56013981646E+03  0.56013981646E+03  0.00000000000E+00 0. -1.
         23    2    1    2    0    0 -0.15261610146E+00 -0.15138562398E+02 -0.23908742787E+03  0.25644800609E+03  0.91507280037E+02 0.  0.
         23    2    1    2    0    0  0.15261610146E+00  0.15138562398E+02 -0.30548032184E+03  0.31926387712E+03  0.91553245913E+02 0.  0.
          5    1    3    3  502    0 -0.17215641935E+02 -0.49255380197E+02 -0.16286933974E+03  0.17108764605E+03  0.47000000000E+01 0. -1.
         -5    1    4    4    0  503  0.40020893669E+02  0.25197411681E+02 -0.11681399762E+03  0.12611178186E+03  0.47000000000E+01 0.  1.
          5    1    4    4  503    0 -0.39868277567E+02 -0.10058849283E+02 -0.18866632423E+03  0.19315209526E+03  0.47000000000E+01 0. -1.
         -5    1    3    3    0  502  0.17063025834E+02  0.34116817799E+02 -0.76218088133E+02  0.85360360039E+02  0.47000000000E+01 0.  1.
<mgrwt>
<rscale>  0 0.92785192E+02</rscale>
<asrwt>0</asrwt>
<pdfrwt beam="1">  1        1 0.86175347E-01 0.92796531E+02</pdfrwt>
<pdfrwt beam="2">  1       -1 0.23957028E-02 0.92796531E+02</pdfrwt>
<totfact> 0.18547869E+04</totfact>
</mgrwt>
</event>
<event>
 8    1  0.3400573E-004  0.9803803E+02  0.7546771E-02  0.1284516E+00
          1   -1    0    0  501    0  0.00000000000E+00  0.00000000000E+00  0.24343593733E+03  0.24343593733E+03  0.00000000000E+00 0. -1.
         -1   -1    0    0    0  501 -0.00000000000E+00 -0.00000000000E+00 -0.39460572443E+02  0.39460572443E+02  0.00000000000E+00 0.  1.
         23    2    1    2    0    0  0.34859293500E+02 -0.73112304936E+01  0.10399615535E+03  0.14292185044E+03  0.91339096626E+02 0.  0.
         23    2    1    2    0    0 -0.34859293500E+02  0.73112304936E+01  0.99979209542E+02  0.13997465933E+03  0.91260278762E+02 0.  0.
          5    1    3    3  502    0  0.25046364478E+02  0.33363821286E+02  0.88683177017E+02  0.98118605933E+02  0.47000000000E+01 0. -1.
         -5    1    3    3    0  502  0.98129290220E+01 -0.40675051780E+02  0.15312978330E+02  0.44803244510E+02  0.47000000000E+01 0.  1.
          5    1    4    4  503    0 -0.29038183232E+02  0.30839791476E+02  0.10626892245E+03  0.11449664930E+03  0.47000000000E+01 0. -1.
         -5    1    4    4    0  503 -0.58211102677E+01 -0.23528560982E+02 -0.62897129036E+01  0.25478010029E+02  0.47000000000E+01 0.  1.
<mgrwt>
<rscale>  0 0.98019666E+02</rscale>
<asrwt>0</asrwt>
<pdfrwt beam="1">  1        1 0.37451682E-01 0.98038028E+02</pdfrwt>
<pdfrwt beam="2">  1       -1 0.60708574E-02 0.98038028E+02</pdfrwt>
<totfact> 0.13654046E+04</totfact>
</mgrwt>
</event>
<event>
 8    1  0.3400573E-004  0.1270459E+03  0.7546771E-02  0.1232827E+00
          1   -1    0    0  501    0  0.00000000000E+00  0.00000000000E+00  0.13305520447E+04  0.13305520447E+04  0.00000000000E+00 0. -1.
         -1   -1    0    0    0  501 -0.00000000000E+00 -0.00000000000E+00 -0.15601975064E+02  0.15601975064E+02  0.00000000000E+00 0.  1.
         23    2    1    2    0    0  0.51008426402E+02  0.72070023750E+02  0.32506509083E+03  0.34814954800E+03  0.88004810111E+02 0.  0.
         23    2    1    2    0    0 -0.51008426402E+02 -0.72070023750E+02  0.98988497879E+03  0.99800447176E+03  0.91349365229E+02 0.  0.
          5    1    3    3  502    0  0.32608710934E+02 -0.14338127399E+02  0.83949724363E+02  0.91315694964E+02  0.47000000000E+01 0. -1.
         -5    1    3    3    0  502  0.18399715467E+02  0.86408151149E+02  0.24111536647E+03  0.25683385303E+03  0.47000000000E+01 0.  1.
          5    1    4    4  503    0 -0.72562909972E+02 -0.47983187621E+02  0.84521832174E+03  0.84969633611E+03  0.47000000000E+01 0. -1.
         -5    1    4    4    0  503  0.21554483570E+02 -0.24086836129E+02  0.14466665705E+03  0.14830813565E+03  0.47000000000E+01 0.  1.
<mgrwt>
<rscale>  0 0.12644585E+03</rscale>
<asrwt>0</asrwt>
<pdfrwt beam="1">  1        1 0.20470022E+00 0.12704588E+03</pdfrwt>
<pdfrwt beam="2">  1       -1 0.24003049E-02 0.12704588E+03</pdfrwt>
<totfact> 0.47795287E+03</totfact>
</mgrwt>
</event>
<event>
 8    1  0.3400573E-004  0.1120886E+03  0.7546771E-02  0.1258751E+00
         -1   -1    0    0    0  501 -0.00000000000E+00  0.00000000000E+00  0.36812048410E+03  0.36812048410E+03  0.00000000000E+00 0.  1.
          1   -1    0    0  501    0  0.00000000000E+00 -0.00000000000E+00 -0.37595798252E+03  0.37595798252E+03  0.00000000000E+00 0. -1.
         23    2    1    2    0    0  0.51745277459E+02 -0.36535533336E+02  0.35149697408E+03  0.36893627193E+03  0.92473947805E+02 0.  0.
         23    2    1    2    0    0 -0.51745277459E+02  0.36535533336E+02 -0.35933447250E+03  0.37514219469E+03  0.87166416552E+02 0.  0.
          5    1    3    3  502    0  0.14059821108E+02  0.27568699785E+02  0.55632733603E+02  0.63834182265E+02  0.47000000000E+01 0. -1.
         -5    1    4    4    0  503 -0.38090725800E+02 -0.24164187639E+02 -0.14953310817E+03  0.15625956545E+03  0.47000000000E+01 0.  1.
          5    1    4    4  503    0 -0.13654551658E+02  0.60699720975E+02 -0.20980136433E+03  0.21888262924E+03  0.47000000000E+01 0. -1.
         -5    1    3    3    0  502  0.37685456351E+02 -0.64104233120E+02  0.29586424048E+03  0.30510208967E+03  0.47000000000E+01 0.  1.
<mgrwt>
<rscale>  0 0.11098823E+03</rscale>
<asrwt>0</asrwt>
<pdfrwt beam="1">  1        1 0.57839690E-01 0.11208858E+03</pdfrwt>
<pdfrwt beam="2">  1       -1 0.56633920E-01 0.11208858E+03</pdfrwt>
<totfact> 0.22009229E+02</totfact>
</mgrwt>
</event>
<event>
 8    1  0.3400573E-004  0.2772289E+03  0.7546771E-02  0.1097214E+00
          1   -1    0    0  501    0  0.00000000000E+00  0.00000000000E+00  0.34651156421E+04  0.34651156421E+04  0.00000000000E+00 0. -1.
         -1   -1    0    0    0  501 -0.00000000000E+00 -0.00000000000E+00 -0.22918878528E+02  0.22918878528E+02  0.00000000000E+00 0.  1.
         23    2    1    2    0    0  0.44920172102E+02  0.25694487230E+03  0.14077232326E+04  0.14347615044E+04  0.93900933768E+02 0.  0.
         23    2    1    2    0    0 -0.44920172102E+02 -0.25694487230E+03  0.20344735309E+04  0.20532730163E+04  0.93856497313E+02 0.  0.
          5    1    4    4  502    0 -0.59213828096E+02 -0.80074624383E+02  0.73677887994E+03  0.74349406914E+03  0.47000000000E+01 0. -1.
         -5    1    4    4    0  502  0.14293655994E+02 -0.17687024792E+03  0.12976946510E+04  0.13097789472E+04  0.47000000000E+01 0.  1.
          5    1    3    3  503    0 -0.82492831235E+01  0.16975963918E+03  0.10041195333E+04  0.10184127419E+04  0.47000000000E+01 0. -1.
         -5    1    3    3    0  503  0.53169455225E+02  0.87185233115E+02  0.40360369940E+03  0.41634876247E+03  0.47000000000E+01 0.  1.
<mgrwt>
<rscale>  0 0.27722516E+03</rscale>
<asrwt>0</asrwt>
<pdfrwt beam="1">  1        1 0.53309430E+00 0.27722892E+03</pdfrwt>
<pdfrwt beam="2">  1       -1 0.35259841E-02 0.27722892E+03</pdfrwt>
<totfact> 0.98672136E+01</totfact>
</mgrwt>
</event>
<event>
 8    1  0.3400573E-004  0.1037795E+03  0.7546771E-02  0.1273950E+00
         -1   -1    0    0    0  501 -0.00000000000E+00  0.00000000000E+00  0.34155460925E+03  0.34155460925E+03  0.00000000000E+00 0.  1.
          1   -1    0    0  501    0  0.00000000000E+00 -0.00000000000E+00 -0.44165908326E+02  0.44165908326E+02  0.00000000000E+00 0. -1.
         23    2    1    2    0    0 -0.34079517857E+02  0.12553436215E+02  0.25379508014E+03  0.27315685274E+03  0.94253494354E+02 0.  0.
         23    2    1    2    0    0  0.34079517857E+02 -0.12553436215E+02  0.43593620789E+02  0.11256366484E+03  0.97217141341E+02 0.  0.
          5    1    3    3  502    0  0.21373291226E+02 -0.16955125627E+02  0.30695467036E+02  0.41335161296E+02  0.47000000000E+01 0. -1.
         -5    1    4    4    0  503  0.53433937344E+00  0.40363025843E+02  0.12897675681E+02  0.42636831633E+02  0.47000000000E+01 0.  1.
          5    1    4    4  503    0  0.33545178484E+02 -0.52916462058E+02  0.30695945108E+02  0.69926833206E+02  0.47000000000E+01 0. -1.
         -5    1    3    3    0  502 -0.55452809083E+02  0.29508561841E+02  0.22309961310E+03  0.23182169144E+03  0.47000000000E+01 0.  1.
<mgrwt>
<rscale>  0 0.10307968E+03</rscale>
<asrwt>0</asrwt>
<pdfrwt beam="1">  1        1 0.67947554E-02 0.10377945E+03</pdfrwt>
<pdfrwt beam="2">  1       -1 0.52546861E-01 0.10377945E+03</pdfrwt>
<totfact> 0.38384366E+03</totfact>
</mgrwt>
</event>
<event>
 8    1  0.3400573E-004  0.9211327E+02  0.7546771E-02  0.1297845E+00
         -1   -1    0    0    0  501 -0.00000000000E+00  0.00000000000E+00  0.13466140899E+03  0.13466140899E+03  0.00000000000E+00 0.  1.
          1   -1    0    0  501    0  0.00000000000E+00 -0.00000000000E+00 -0.64988552501E+02  0.64988552501E+02  0.00000000000E+00 0. -1.
         23    2    1    2    0    0 -0.41175445391E+01 -0.39768078907E+01  0.52409575535E+02  0.10593296435E+03  0.91881772704E+02 0.  0.
         23    2    1    2    0    0  0.41175445391E+01  0.39768078907E+01  0.17263280959E+02  0.93716997141E+02  0.91935224531E+02 0.  0.
          5    1    4    4  502    0  0.36135450197E+02 -0.10115938598E+01 -0.22011216586E+02  0.42583773185E+02  0.47000000000E+01 0. -1.
         -5    1    3    3    0  503 -0.46545220292E+02 -0.10993050310E+02  0.34269195988E+02  0.59023490924E+02  0.47000000000E+01 0.  1.
          5    1    3    3  503    0  0.42427675753E+02  0.70162424196E+01  0.18140379546E+02  0.46909473431E+02  0.47000000000E+01 0. -1.
         -5    1    4    4    0  502 -0.32017905658E+02  0.49884017505E+01  0.39274497545E+02  0.51133223956E+02  0.47000000000E+01 0.  1.
<mgrwt>
<rscale>  0 0.92099931E+02</rscale>
<asrwt>0</asrwt>
<pdfrwt beam="1">  1        1 0.99982389E-02 0.92113271E+02</pdfrwt>
<pdfrwt beam="2">  1       -1 0.20717140E-01 0.92113271E+02</pdfrwt>
<totfact> 0.11036076E+04</totfact>
</mgrwt>
</event>
<event>
 8    1  0.3400573E-004  0.8891282E+02  0.7546771E-02  0.1305704E+00
          1   -1    0    0  501    0  0.00000000000E+00  0.00000000000E+00  0.12863731607E+02  0.12863731607E+02  0.00000000000E+00 0. -1.
         -1   -1    0    0    0  501 -0.00000000000E+00 -0.00000000000E+00 -0.61282463797E+03  0.61282463797E+03  0.00000000000E+00 0.  1.
         23    2    1    2    0    0 -0.17141939272E+02 -0.65314914232E+00 -0.30822044804E+03  0.32069986985E+03  0.86915414294E+02 0.  0.
         23    2    1    2    0    0  0.17141939272E+02  0.65314914232E+00 -0.29174045833E+03  0.30498849974E+03  0.87242290555E+02 0.  0.
          5    1    4    4  502    0  0.46647606649E+02  0.17159252614E+02 -0.21926792329E+03  0.22487985979E+03  0.47000000000E+01 0. -1.
         -5    1    3    3    0  503 -0.26154013809E+02 -0.32847177357E+02 -0.24877066404E+03  0.25233292054E+03  0.47000000000E+01 0.  1.
          5    1    3    3  503    0  0.90120745370E+01  0.32194028214E+02 -0.59449783998E+02  0.68366949307E+02  0.47000000000E+01 0. -1.
         -5    1    4    4    0  502 -0.29505667376E+02 -0.16506103472E+02 -0.72472535036E+02  0.80108639944E+02  0.47000000000E+01 0.  1.
<mgrwt>
<rscale>  0 0.88832535E+02</rscale>
<asrwt>0</asrwt>
<pdfrwt beam="1">  1        1 0.19790357E-02 0.88912822E+02</pdfrwt>
<pdfrwt beam="2">  1       -1 0.94280709E-01 0.88912822E+02</pdfrwt>
<totfact> 0.64543429E+03</totfact>
</mgrwt>
</event>
<event>
 8    1  0.3400573E-004  0.1120944E+03  0.7546771E-02  0.1257409E+00
         -1   -1    0    0    0  501 -0.00000000000E+00  0.00000000000E+00  0.28568554706E+02  0.28568554706E+02  0.00000000000E+00 0.  1.
          1   -1    0    0  501    0  0.00000000000E+00 -0.00000000000E+00 -0.43834074227E+03  0.43834074227E+03  0.00000000000E+00 0. -1.
         23    2    1    2    0    0  0.34560573312E+02 -0.49517413273E+02 -0.18049023896E+03  0.21169298337E+03  0.92686489872E+02 0.  0.
         23    2    1    2    0    0 -0.34560573312E+02  0.49517413273E+02 -0.22928194860E+03  0.25521631360E+03  0.94439119693E+02 0.  0.
          5    1    3    3  502    0  0.58481028018E+02 -0.21390856230E+02 -0.15349961314E+03  0.16571608432E+03  0.47000000000E+01 0. -1.
         -5    1    4    4    0  503 -0.28445982933E+02 -0.22376527885E+02 -0.50003683257E+02  0.61905906701E+02  0.47000000000E+01 0.  1.
          5    1    4    4  503    0 -0.61145903787E+01  0.71893941157E+02 -0.17927826534E+03  0.19331040690E+03  0.47000000000E+01 0. -1.
         -5    1    3    3    0  502 -0.23920454706E+02 -0.28126557042E+02 -0.26990625820E+02  0.45976899053E+02  0.47000000000E+01 0.  1.
<mgrwt>
<rscale>  0 0.11172443E+03</rscale>
<asrwt>0</asrwt>
<pdfrwt beam="1">  1        1 0.67437037E-01 0.11209440E+03</pdfrwt>
<pdfrwt beam="2">  1       -1 0.43951623E-02 0.11209440E+03</pdfrwt>
<totfact> 0.10741658E+04</totfact>
</mgrwt>
</event>
<event>
 8    1  0.3400573E-004  0.1017894E+03  0.7546771E-02  0.1276729E+00
         -2   -1    0    0    0  501 -0.00000000000E+00  0.00000000000E+00  0.20528811201E+02  0.20528811201E+02  0.00000000000E+00 0.  1.
          2   -1    0    0  501    0  0.00000000000E+00 -0.00000000000E+00 -0.71907408812E+03  0.71907408812E+03  0.00000000000E+00 0. -1.
         23    2    1    2    0    0  0.24284281948E+02  0.37159806757E+02 -0.14703072236E+03  0.17882704331E+03  0.91599675301E+02 0.  0.
         23    2    1    2    0    0 -0.24284281948E+02 -0.37159806757E+02 -0.55151455456E+03  0.56077585601E+03  0.91272554471E+02 0.  0.
          5    1    3    3  502    0  0.24696538607E+02 -0.27289400526E+02 -0.56694700167E+02  0.67756988032E+02  0.47000000000E+01 0. -1.
         -5    1    4    4    0  503 -0.17870694588E+01  0.29159330925E+02 -0.12025218144E+03  0.12383915915E+03  0.47000000000E+01 0.  1.
          5    1    4    4  503    0 -0.22497212489E+02 -0.66319137682E+02 -0.43126237312E+03  0.43693669686E+03  0.47000000000E+01 0. -1.
         -5    1    3    3    0  502 -0.41225665900E+00  0.64449207283E+02 -0.90336022189E+02  0.11107005528E+03  0.47000000000E+01 0.  1.
<mgrwt>
<rscale>  0 0.10171573E+03</rscale>
<asrwt>0</asrwt>
<pdfrwt beam="1">  1        2 0.11062678E+00 0.10178938E+03</pdfrwt>
<pdfrwt beam="2">  1       -2 0.31582787E-02 0.10178938E+03</pdfrwt>
<totfact> 0.14804524E+04</totfact>
</mgrwt>
</event>
<event>
 8    1  0.3400573E-004  0.1010754E+03  0.7546771E-02  0.1289378E+00
          2   -1    0    0  501    0  0.00000000000E+00  0.00000000000E+00  0.32007821245E+03  0.32007821245E+03  0.00000000000E+00 0. -1.
         -2   -1    0    0    0  501 -0.00000000000E+00 -0.00000000000E+00 -0.56592309728E+02  0.56592309728E+02  0.00000000000E+00 0.  1.
         23    2    1    2    0    0  0.27265296875E+02 -0.36151285979E+02  0.27619422344E+03  0.29410794556E+03  0.90365495015E+02 0.  0.
         23    2    1    2    0    0 -0.27265296875E+02  0.36151285979E+02 -0.12708320718E+02  0.82562576616E+02  0.67858424314E+02 0.  0.
          5    1    4    4  502    0 -0.25284877563E+02 -0.13309540934E+02 -0.15339750181E+02  0.32769907672E+02  0.47000000000E+01 0. -1.
         -5    1    4    4    0  502 -0.19804193124E+01  0.49460826913E+02  0.26314294631E+01  0.49792668944E+02  0.47000000000E+01 0.  1.
          5    1    3    3  503    0 -0.29097407253E+01 -0.36598884001E+02  0.25316514132E+03  0.25585664674E+03  0.47000000000E+01 0. -1.
         -5    1    3    3    0  503  0.30175037601E+02  0.44759802248E+00  0.23029082117E+02  0.38251298819E+02  0.47000000000E+01 0.  1.
<mgrwt>
<rscale>  0 0.95802802E+02</rscale>
<asrwt>0</asrwt>
<pdfrwt beam="1">  1        2 0.49242801E-01 0.10107539E+03</pdfrwt>
<pdfrwt beam="2">  1       -2 0.87065094E-02 0.10107539E+03</pdfrwt>
<totfact> 0.78454244E+03</totfact>
</mgrwt>
</event>
<event>
 8    1  0.3400573E-004  0.1521548E+03  0.7546771E-02  0.1199283E+00
         -1   -1    0    0    0  501 -0.00000000000E+00  0.00000000000E+00  0.25965303671E+02  0.25965303671E+02  0.00000000000E+00 0.  1.
          1   -1    0    0  501    0  0.00000000000E+00 -0.00000000000E+00 -0.10599860270E+04  0.10599860270E+04  0.00000000000E+00 0. -1.
         23    2    1    2    0    0  0.91245681095E+02  0.72215653376E+02 -0.27723609329E+03  0.31402254762E+03  0.90605927391E+02 0.  0.
         23    2    1    2    0    0 -0.91245681095E+02 -0.72215653376E+02 -0.75678463007E+03  0.77192878309E+03  0.98031601704E+02 0.  0.
          5    1    4    4  502    0 -0.49051176471E+02 -0.50893808002E+02 -0.66322865677E+03  0.66700115350E+03  0.47000000000E+01 0. -1.
         -5    1    3    3    0  503  0.10442015582E+03  0.39692016864E+02 -0.20221661921E+03  0.23106855309E+03  0.47000000000E+01 0.  1.
          5    1    3    3  503    0 -0.13174474724E+02  0.32523636512E+02 -0.75019474089E+02  0.82953994532E+02  0.47000000000E+01 0. -1.
         -5    1    4    4    0  502 -0.42194504624E+02 -0.21321845374E+02 -0.93555973303E+02  0.10492762959E+03  0.47000000000E+01 0.  1.
<mgrwt>
<rscale>  0 0.15097232E+03</rscale>
<asrwt>0</asrwt>
<pdfrwt beam="1">  1        1 0.16307475E+00 0.15215476E+03</pdfrwt>
<pdfrwt beam="2">  1       -1 0.39946628E-02 0.15215476E+03</pdfrwt>
<totfact> 0.35072177E+03</totfact>
</mgrwt>
</event>
<event>
 8    1  0.3400573E-004  0.9282547E+02  0.7546771E-02  0.1296990E+00
          1   -1    0    0  501    0  0.00000000000E+00  0.00000000000E+00  0.74872211966E+02  0.74872211966E+02  0.00000000000E+00 0. -1.
         -1   -1    0    0    0  501 -0.00000000000E+00 -0.00000000000E+00 -0.18346240039E+03  0.18346240039E+03  0.00000000000E+00 0.  1.
         23    2    1    2    0    0  0.24435698403E+01  0.16644024799E+02  0.25314022428E+02  0.96215215943E+02  0.91288408094E+02 0.  0.
         23    2    1    2    0    0 -0.24435698403E+01 -0.16644024799E+02 -0.13390421085E+03  0.16211939642E+03  0.89829652201E+02 0.  0.
          5    1    3    3  502    0 -0.24014535363E+02  0.13453054013E+02 -0.26030825316E+02  0.38175600029E+02  0.47000000000E+01 0. -1.
         -5    1    4    4    0  503 -0.78539151406E+00  0.36990769186E+02 -0.60483185986E+02  0.71058001885E+02  0.47000000000E+01 0.  1.
          5    1    4    4  503    0 -0.16581783262E+01 -0.53634793985E+02 -0.73421024868E+02  0.91061394531E+02  0.47000000000E+01 0. -1.
         -5    1    3    3    0  502  0.26458105203E+02  0.31909707864E+01  0.51344847744E+02  0.58039615913E+02  0.47000000000E+01 0.  1.
<mgrwt>
<rscale>  0 0.92464820E+02</rscale>
<asrwt>0</asrwt>
<pdfrwt beam="1">  1        1 0.11518802E-01 0.92825471E+02</pdfrwt>
<pdfrwt beam="2">  1       -1 0.28224984E-01 0.92825471E+02</pdfrwt>
<totfact> 0.55612332E+03</totfact>
</mgrwt>
</event>
<event>
 8    1  0.3400573E-004  0.9383643E+02  0.7546771E-02  0.1294615E+00
          3   -1    0    0  501    0  0.00000000000E+00  0.00000000000E+00  0.35205855750E+02  0.35205855750E+02  0.00000000000E+00 0. -1.
         -3   -1    0    0    0  501 -0.00000000000E+00 -0.00000000000E+00 -0.31553906082E+03  0.31553906082E+03  0.00000000000E+00 0.  1.
         23    2    1    2    0    0  0.13478623454E+02 -0.16449460185E+02 -0.22304222296E+03  0.24197749601E+03  0.91394842972E+02 0.  0.
         23    2    1    2    0    0 -0.13478623454E+02  0.16449460185E+02 -0.57290982114E+02  0.10876742056E+03  0.89976869883E+02 0.  0.
          5    1    3    3  502    0  0.47022366941E+02  0.12867132514E+02 -0.12090504522E+03  0.13044840379E+03  0.47000000000E+01 0. -1.
         -5    1    4    4    0  503 -0.45765732375E+02 -0.76367827581E+01 -0.48473514031E+02  0.67265104424E+02  0.47000000000E+01 0.  1.
          5    1    4    4  503    0  0.32287108921E+02  0.24086242943E+02 -0.88174680836E+01  0.41502316140E+02  0.47000000000E+01 0. -1.
         -5    1    3    3    0  502 -0.33543743487E+02 -0.29316592699E+02 -0.10213717774E+03  0.11152909222E+03  0.47000000000E+01 0.  1.
<mgrwt>
<rscale>  0 0.93489378E+02</rscale>
<asrwt>0</asrwt>
<pdfrwt beam="1">  1        3 0.54162852E-02 0.93836429E+02</pdfrwt>
<pdfrwt beam="2">  1       -3 0.48544473E-01 0.93836429E+02</pdfrwt>
<totfact> 0.18223339E+03</totfact>
</mgrwt>
</event>
<event>
 8    1  0.3400573E-004  0.8977885E+02  0.7546771E-02  0.1303411E+00
          1   -1    0    0  501    0  0.00000000000E+00  0.00000000000E+00  0.12729177788E+03  0.12729177788E+03  0.00000000000E+00 0. -1.
         -1   -1    0    0    0  501 -0.00000000000E+00 -0.00000000000E+00 -0.91655123801E+02  0.91655123801E+02  0.00000000000E+00 0.  1.
         23    2    1    2    0    0  0.32003324158E+01 -0.22267215734E+00 -0.43075457666E+02  0.99577791250E+02  0.89721512173E+02 0.  0.
         23    2    1    2    0    0 -0.32003324158E+01  0.22267215734E+00  0.78712111742E+02  0.11936911043E+03  0.89683311041E+02 0.  0.
          5    1    3    3  502    0  0.21712282501E+02 -0.12218744631E+02  0.20191071824E+02  0.32411268305E+02  0.47000000000E+01 0. -1.
         -5    1    3    3    0  502 -0.18511950085E+02  0.11996072474E+02 -0.63266529490E+02  0.67166522945E+02  0.47000000000E+01 0.  1.
          5    1    4    4  503    0  0.27066753634E+02  0.13993091315E+02  0.80027203092E+02  0.85760474530E+02  0.47000000000E+01 0. -1.
         -5    1    4    4    0  503 -0.30267086050E+02 -0.13770419158E+02 -0.13150913499E+01  0.33608635899E+02  0.47000000000E+01 0.  1.
<mgrwt>
<rscale>  0 0.89769302E+02</rscale>
<asrwt>0</asrwt>
<pdfrwt beam="1">  1        1 0.19583350E-01 0.89778847E+02</pdfrwt>
<pdfrwt beam="2">  1       -1 0.14100788E-01 0.89778847E+02</pdfrwt>
<totfact> 0.84866744E+03</totfact>
</mgrwt>
</event>
<event>
 8    1  0.3400573E-004  0.1055341E+03  0.7546771E-02  0.1274306E+00
          1   -1    0    0  501    0  0.00000000000E+00  0.00000000000E+00  0.67241967227E+03  0.67241967227E+03  0.00000000000E+00 0. -1.
         -1   -1    0    0    0  501 -0.00000000000E+00 -0.00000000000E+00 -0.45288028164E+02  0.45288028164E+02  0.00000000000E+00 0.  1.
         23    2    1    2    0    0  0.18153697933E+02  0.91048547512E+01  0.15030268090E+02  0.96575231833E+02  0.93211647964E+02 0.  0.
         23    2    1    2    0    0 -0.18153697933E+02 -0.91048547512E+01  0.61210137602E+03  0.62113246861E+03  0.10356154643E+03 0.  0.
          5    1    4    4  502    0 -0.52380365385E+02  0.23431785069E+02  0.30512837840E+03  0.31051275100E+03  0.47000000000E+01 0. -1.
         -5    1    3    3    0  503  0.31018522264E+02  0.45927123764E+02  0.39705768965E+01  0.55761141502E+02  0.47000000000E+01 0.  1.
          5    1    3    3  503    0 -0.12864824332E+02 -0.36822269013E+02  0.11059691193E+02  0.40814090332E+02  0.47000000000E+01 0. -1.
         -5    1    4    4    0  502  0.34226667452E+02 -0.32536639820E+02  0.30697299762E+03  0.31061971760E+03  0.47000000000E+01 0.  1.
<mgrwt>
<rscale>  0 0.10290346E+03</rscale>
<asrwt>0</asrwt>
<pdfrwt beam="1">  1        1 0.10344917E+00 0.10553411E+03</pdfrwt>
<pdfrwt beam="2">  1       -1 0.69673894E-02 0.10553411E+03</pdfrwt>
<totfact> 0.30800078E+03</totfact>
</mgrwt>
</event>
<event>
 8    1  0.3400573E-004  0.1238447E+03  0.7546771E-02  0.1239697E+00
          3   -1    0    0  501    0  0.00000000000E+00  0.00000000000E+00  0.98968016900E+02  0.98968016900E+02  0.00000000000E+00 0. -1.
         -3   -1    0    0    0  501 -0.00000000000E+00 -0.00000000000E+00 -0.19130067853E+03  0.19130067853E+03  0.00000000000E+00 0.  1.
         23    2    1    2    0    0  0.85113046732E+02 -0.61776005500E+01 -0.11741269093E+03  0.17065536212E+03  0.89750315627E+02 0.  0.
         23    2    1    2    0    0 -0.85113046732E+02  0.61776005500E+01  0.25080029300E+02  0.11961333331E+03  0.79974672018E+02 0.  0.
          5    1    3    3  502    0  0.71564448081E+02 -0.42038636796E+02 -0.64877334411E+02  0.10545082140E+03  0.47000000000E+01 0. -1.
         -5    1    4    4    0  503  0.66131755530E+01  0.19763619827E+02 -0.51388143940E+01  0.21973442446E+02  0.47000000000E+01 0.  1.
          5    1    4    4  503    0 -0.91726222285E+02 -0.13586019277E+02  0.30218843694E+02  0.97639890868E+02  0.47000000000E+01 0. -1.
         -5    1    3    3    0  502  0.13548598651E+02  0.35861036246E+02 -0.52535356521E+02  0.65204540722E+02  0.47000000000E+01 0.  1.
<mgrwt>
<rscale>  0 0.12208499E+03</rscale>
<asrwt>0</asrwt>
<pdfrwt beam="1">  1        3 0.15225849E-01 0.12384471E+03</pdfrwt>
<pdfrwt beam="2">  1       -3 0.29430874E-01 0.12384471E+03</pdfrwt>
<totfact> 0.91513285E+02</totfact>
</mgrwt>
</event>
<event>
 8    1  0.3400573E-004  0.1031717E+03  0.7546771E-02  0.1274474E+00
          3   -1    0    0  501    0  0.00000000000E+00  0.00000000000E+00  0.91281661560E+02  0.91281661560E+02  0.00000000000E+00 0. -1.
         -3   -1    0    0    0  501 -0.00000000000E+00 -0.00000000000E+00 -0.25143887378E+03  0.25143887378E+03  0.00000000000E+00 0.  1.
         23    2    1    2    0    0 -0.29553758252E+01  0.48006147132E+02 -0.20653988891E+03  0.23087468915E+03  0.91274706073E+02 0.  0.
         23    2    1    2    0    0  0.29553758252E+01 -0.48006147132E+02  0.46382676689E+02  0.11184584619E+03  0.89692899415E+02 0.  0.
          5    1    4    4  502    0 -0.39117649700E+01  0.24230593877E+02  0.26580238876E+02  0.36483183572E+02  0.47000000000E+01 0.  1.
         -5    1    3    3    0  503 -0.12237284202E+02  0.73675438303E+02 -0.16159000943E+03  0.17807650738E+03  0.47000000000E+01 0.  1.
          5    1    3    3  503    0  0.92819083772E+01 -0.25669291171E+02 -0.44949879478E+02  0.52798181763E+02  0.47000000000E+01 0. -1.
         -5    1    4    4    0  502  0.68671407951E+01 -0.72236741009E+02  0.19802437813E+02  0.75362662623E+02  0.47000000000E+01 0. -1.
<mgrwt>
<rscale>  0 0.10282071E+03</rscale>
<asrwt>0</asrwt>
<pdfrwt beam="1">  1        3 0.14043333E-01 0.10317168E+03</pdfrwt>
<pdfrwt beam="2">  1       -3 0.38682903E-01 0.10317168E+03</pdfrwt>
<totfact> 0.61092920E+02</totfact>
</mgrwt>
</event>
<event>
 8    1  0.3400573E-004  0.1020467E+03  0.7546771E-02  0.1277164E+00
          1   -1    0    0  501    0  0.00000000000E+00  0.00000000000E+00  0.24439262797E+03  0.24439262797E+03  0.00000000000E+00 0. -1.
         -1   -1    0    0    0  501 -0.00000000000E+00 -0.00000000000E+00 -0.41901252504E+02  0.41901252504E+02  0.00000000000E+00 0.  1.
         23    2    1    2    0    0 -0.17787834015E+02 -0.39979592115E+02  0.11184639664E+03  0.15140388668E+03  0.92188641584E+02 0.  0.
         23    2    1    2    0    0  0.17787834015E+02  0.39979592115E+02  0.90644978826E+02  0.13488999379E+03  0.89799907647E+02 0.  0.
          5    1    4    4  502    0 -0.32014457048E+02  0.57706068693E+01  0.56408422504E+02  0.65285721970E+02  0.47000000000E+01 0. -1.
         -5    1    4    4    0  502  0.49802291063E+02  0.34208985246E+02  0.34236556322E+02  0.69604271819E+02  0.47000000000E+01 0.  1.
          5    1    3    3  503    0 -0.27110177401E+02 -0.67096556508E+02  0.86200094993E+02  0.11264748551E+03  0.47000000000E+01 0. -1.
         -5    1    3    3    0  503  0.93223433856E+01  0.27116964393E+02  0.25646301644E+02  0.38756401176E+02  0.47000000000E+01 0.  1.
<mgrwt>
<rscale>  0 0.10150417E+03</rscale>
<asrwt>0</asrwt>
<pdfrwt beam="1">  1        1 0.37598865E-01 0.10204666E+03</pdfrwt>
<pdfrwt beam="2">  1       -1 0.64463467E-02 0.10204666E+03</pdfrwt>
<totfact> 0.12480157E+04</totfact>
</mgrwt>
</event>
<event>
 8    1  0.3400573E-004  0.1191583E+03  0.7546771E-02  0.1248559E+00
          3   -1    0    0  501    0  0.00000000000E+00  0.00000000000E+00  0.28740197937E+03  0.28740197937E+03  0.00000000000E+00 0. -1.
         -3   -1    0    0    0  501 -0.00000000000E+00 -0.00000000000E+00 -0.13656122703E+03  0.13656122703E+03  0.00000000000E+00 0.  1.
         23    2    1    2    0    0 -0.49632867692E+02 -0.39815962709E+02 -0.96506722438E+02  0.15333700172E+03  0.10074699091E+03 0.  0.
         23    2    1    2    0    0  0.49632867692E+02  0.39815962709E+02  0.24734747478E+03  0.27062620468E+03  0.89493222883E+02 0.  0.
          5    1    3    3  502    0  0.27253441213E+02 -0.20825548685E+02 -0.10167420672E+02  0.36082128251E+02  0.47000000000E+01 0. -1.
         -5    1    4    4    0  503  0.38701097368E+02  0.60878980940E+02  0.11319684403E+03  0.13431172978E+03  0.47000000000E+01 0.  1.
          5    1    4    4  503    0  0.10931770324E+02 -0.21063018231E+02  0.13415063074E+03  0.13631447490E+03  0.47000000000E+01 0. -1.
         -5    1    3    3    0  502 -0.76886308905E+02 -0.18990414025E+02 -0.86339301766E+02  0.11725487347E+03  0.47000000000E+01 0.  1.
<mgrwt>
<rscale>  0 0.11674854E+03</rscale>
<asrwt>0</asrwt>
<pdfrwt beam="1">  1        3 0.44215689E-01 0.11915825E+03</pdfrwt>
<pdfrwt beam="2">  1       -3 0.21009420E-01 0.11915825E+03</pdfrwt>
<totfact> 0.24081235E+02</totfact>
</mgrwt>
</event>
<event>
 8    1  0.3400573E-004  0.1134370E+03  0.7546771E-02  0.1255497E+00
          1   -1    0    0  501    0  0.00000000000E+00  0.00000000000E+00  0.66129620503E+03  0.66129620503E+03  0.00000000000E+00 0. -1.
         -1   -1    0    0    0  501 -0.00000000000E+00 -0.00000000000E+00 -0.36168491448E+02  0.36168491448E+02  0.00000000000E+00 0.  1.
         23    2    1    2    0    0  0.65488878155E+02 -0.18886847147E+02  0.70540070007E+02  0.13139456253E+03  0.87424958836E+02 0.  0.
         23    2    1    2    0    0 -0.65488878155E+02  0.18886847147E+02  0.55458764357E+03  0.56607013395E+03  0.90677648783E+02 0.  0.
          5    1    3    3  502    0  0.30288494395E+02 -0.86776013763E+01  0.85719306418E+02  0.91447160432E+02  0.47000000000E+01 0. -1.
         -5    1    3    3    0  502  0.35200383759E+02 -0.10209245771E+02 -0.15179236410E+02  0.39947402093E+02  0.47000000000E+01 0.  1.
          5    1    4    4  503    0 -0.49766698972E+02 -0.22152187698E+02  0.43776158528E+03  0.44116293962E+03  0.47000000000E+01 0. -1.
         -5    1    4    4    0  503 -0.15722179183E+02  0.41039034845E+02  0.11682605829E+03  0.12490719433E+03  0.47000000000E+01 0.  1.
<mgrwt>
<rscale>  0 0.11278565E+03</rscale>
<asrwt>0</asrwt>
<pdfrwt beam="1">  1        1 0.10173787E+00 0.11343695E+03</pdfrwt>
<pdfrwt beam="2">  1       -1 0.55643838E-02 0.11343695E+03</pdfrwt>
<totfact> 0.44146968E+03</totfact>
</mgrwt>
</event>
<event>
 8    1  0.3400573E-004  0.9818341E+02  0.7546771E-02  0.1284579E+00
         -2   -1    0    0    0  501 -0.00000000000E+00  0.00000000000E+00  0.51507645789E+02  0.51507645789E+02  0.00000000000E+00 0.  1.
          2   -1    0    0  501    0  0.00000000000E+00 -0.00000000000E+00 -0.20908114531E+03  0.20908114531E+03  0.00000000000E+00 0. -1.
         23    2    1    2    0    0  0.32367934465E+02 -0.12198060196E+02 -0.12208805233E+03  0.15618956378E+03  0.91067071208E+02 0.  0.
         23    2    1    2    0    0 -0.32367934465E+02  0.12198060196E+02 -0.35485447183E+02  0.10439922731E+03  0.91888551231E+02 0.  0.
          5    1    4    4  502    0 -0.29125479498E+02 -0.22563336042E+02 -0.53267967203E+02  0.64938155343E+02  0.47000000000E+01 0. -1.
         -5    1    4    4    0  502 -0.32424549671E+01  0.34761396238E+02  0.17782520020E+02  0.39461071968E+02  0.47000000000E+01 0.  1.
          5    1    3    3  503    0 -0.29584460237E+02  0.94135176797E+01 -0.44605976798E+02  0.54549406676E+02  0.47000000000E+01 0. -1.
         -5    1    3    3    0  503  0.61952394702E+02 -0.21611577875E+02 -0.77482075535E+02  0.10164015711E+03  0.47000000000E+01 0.  1.
<mgrwt>
<rscale>  0 0.97990747E+02</rscale>
<asrwt>0</asrwt>
<pdfrwt beam="1">  1        2 0.32166330E-01 0.98183408E+02</pdfrwt>
<pdfrwt beam="2">  1       -2 0.79242531E-02 0.98183408E+02</pdfrwt>
<totfact> 0.14167474E+04</totfact>
</mgrwt>
</event>
<event>
 8    1  0.3400573E-004  0.1121909E+03  0.7546771E-02  0.1258118E+00
          3   -1    0    0  501    0  0.00000000000E+00  0.00000000000E+00  0.55720065841E+03  0.55720065841E+03  0.00000000000E+00 0. -1.
         -3   -1    0    0    0  501 -0.00000000000E+00 -0.00000000000E+00 -0.31510971782E+02  0.31510971782E+02  0.00000000000E+00 0.  1.
         23    2    1    2    0    0  0.58530755143E+02  0.13906582773E+01  0.42248831511E+03  0.43627373978E+03  0.91709412738E+02 0.  0.
         23    2    1    2    0    0 -0.58530755143E+02 -0.13906582773E+01  0.10320137151E+03  0.15243789041E+03  0.95702686080E+02 0.  0.
          5    1    4    4  502    0  0.11634389034E+02  0.24614951737E+02  0.59630672754E+02  0.65720331635E+02  0.47000000000E+01 0. -1.
         -5    1    3    3    0  503  0.19686771262E+02  0.35776846968E+02  0.30497874292E+03  0.30773637317E+03  0.47000000000E+01 0.  1.
          5    1    3    3  503    0  0.38843983880E+02 -0.34386188690E+02  0.11750957220E+03  0.12853736661E+03  0.47000000000E+01 0. -1.
         -5    1    4    4    0  502 -0.70165144177E+02 -0.26005610014E+02  0.43570698756E+02  0.86717558773E+02  0.47000000000E+01 0.  1.
<mgrwt>
<rscale>  0 0.11133449E+03</rscale>
<asrwt>0</asrwt>
<pdfrwt beam="1">  1        3 0.85723171E-01 0.11219085E+03</pdfrwt>
<pdfrwt beam="2">  1       -3 0.48478422E-02 0.11219085E+03</pdfrwt>
<totfact> 0.68962381E+02</totfact>
</mgrwt>
</event>
<event>
 8    1  0.3400573E-004  0.1102564E+03  0.7546771E-02  0.1260791E+00
          1   -1    0    0  501    0  0.00000000000E+00  0.00000000000E+00  0.25174226226E+03  0.25174226226E+03  0.00000000000E+00 0. -1.
         -1   -1    0    0    0  501 -0.00000000000E+00 -0.00000000000E+00 -0.53766384988E+02  0.53766384988E+02  0.00000000000E+00 0.  1.
         23    2    1    2    0    0 -0.46126177552E+02 -0.41327002347E+02  0.14996376448E+03  0.18525207809E+03  0.89407250259E+02 0.  0.
         23    2    1    2    0    0  0.46126177552E+02  0.41327002347E+02  0.48012112795E+02  0.12025656917E+03  0.91219154097E+02 0.  0.
          5    1    3    3  502    0  0.26876251790E+02 -0.10492172760E+02  0.44671845743E+02  0.53386163016E+02  0.47000000000E+01 0.  1.
         -5    1    4    4    0  503  0.69136467527E+02  0.12097651952E+02  0.19049686065E+02  0.72877876369E+02  0.47000000000E+01 0.  1.
          5    1    4    4  503    0 -0.23010289975E+02  0.29229350395E+02  0.28962426729E+02  0.47378692798E+02  0.47000000000E+01 0. -1.
         -5    1    3    3    0  502 -0.73002429342E+02 -0.30834829587E+02  0.10529191874E+03  0.13186591507E+03  0.47000000000E+01 0. -1.
<mgrwt>
<rscale>  0 0.10988094E+03</rscale>
<asrwt>0</asrwt>
<pdfrwt beam="1">  1        1 0.38729578E-01 0.11025643E+03</pdfrwt>
<pdfrwt beam="2">  1       -1 0.82717517E-02 0.11025643E+03</pdfrwt>
<totfact> 0.83501322E+03</totfact>
</mgrwt>
</event>
<event>
 8    1  0.3400573E-004  0.1007047E+03  0.7546771E-02  0.1281556E+00
         -1   -1    0    0    0  501 -0.00000000000E+00  0.00000000000E+00  0.28225449313E+03  0.28225449313E+03  0.00000000000E+00 0.  1.
          1   -1    0    0  501    0  0.00000000000E+00 -0.00000000000E+00 -0.39696501272E+02  0.39696501272E+02  0.00000000000E+00 0. -1.
         23    2    1    2    0    0 -0.67245627785E+01  0.23939603293E+02  0.17882262277E+03  0.20277203182E+03  0.92307324321E+02 0.  0.
         23    2    1    2    0    0  0.67245627785E+01 -0.23939603293E+02  0.63735369091E+02  0.11917896258E+03  0.97586389929E+02 0.  0.
          5    1    4    4  502    0 -0.32131922898E+02  0.20177101831E+02  0.40763440462E+02  0.55886706699E+02  0.47000000000E+01 0. -1.
         -5    1    4    4    0  502  0.38856485677E+02 -0.44116705124E+02  0.22971928629E+02  0.63292255886E+02  0.47000000000E+01 0.  1.
          5    1    3    3  503    0 -0.20817343944E+02 -0.14402486304E+02  0.15087021997E+03  0.15305132046E+03  0.47000000000E+01 0. -1.
         -5    1    3    3    0  503  0.14092781165E+02  0.38342089597E+02  0.27952402797E+02  0.49720711356E+02  0.47000000000E+01 0.  1.
<mgrwt>
<rscale>  0 0.99402956E+02</rscale>
<asrwt>0</asrwt>
<pdfrwt beam="1">  1        1 0.61071542E-02 0.10070466E+03</pdfrwt>
<pdfrwt beam="2">  1       -1 0.43423767E-01 0.10070466E+03</pdfrwt>
<totfact> 0.62253698E+03</totfact>
</mgrwt>
</event>
<event>
 8    1  0.3400573E-004  0.9817519E+02  0.7546771E-02  0.1284843E+00
          1   -1    0    0  501    0  0.00000000000E+00  0.00000000000E+00  0.54059444713E+02  0.54059444713E+02  0.00000000000E+00 0. -1.
         -1   -1    0    0    0  501 -0.00000000000E+00 -0.00000000000E+00 -0.18403834311E+03  0.18403834311E+03  0.00000000000E+00 0.  1.
         23    2    1    2    0    0 -0.16847393281E+02  0.31449617196E+02 -0.40627227685E+02  0.10624942126E+03  0.91462860262E+02 0.  0.
         23    2    1    2    0    0  0.16847393281E+02 -0.31449617196E+02 -0.89351670708E+02  0.13184836656E+03  0.90151858677E+02 0.  0.
          5    1    3    3  502    0 -0.47630581688E+02  0.25489193786E+02 -0.49398714504E+02  0.73353216061E+02  0.47000000000E+01 0.  1.
         -5    1    4    4    0  503 -0.32825915652E+02 -0.11757381506E+02 -0.10940525458E+02  0.36845106263E+02  0.47000000000E+01 0.  1.
          5    1    4    4  503    0  0.49673308932E+02 -0.19692235690E+02 -0.78411145250E+02  0.95003260292E+02  0.47000000000E+01 0. -1.
         -5    1    3    3    0  502  0.30783188407E+02  0.59604234098E+01  0.87714868193E+01  0.32896205203E+02  0.47000000000E+01 0. -1.
<mgrwt>
<rscale>  0 0.97868708E+02</rscale>
<asrwt>0</asrwt>
<pdfrwt beam="1">  1        1 0.83168376E-02 0.98175190E+02</pdfrwt>
<pdfrwt beam="2">  1       -1 0.28313591E-01 0.98175190E+02</pdfrwt>
<totfact> 0.85249513E+03</totfact>
</mgrwt>
</event>
<event>
 8    1  0.3400573E-004  0.2390105E+03  0.7546771E-02  0.1120773E+00
         -1   -1    0    0    0  501 -0.00000000000E+00  0.00000000000E+00  0.77770108881E+03  0.77770108881E+03  0.00000000000E+00 0.  1.
          1   -1    0    0  501    0  0.00000000000E+00 -0.00000000000E+00 -0.10912103419E+03  0.10912103419E+03  0.00000000000E+00 0. -1.
         23    2    1    2    0    0  0.21613750539E+03  0.46880553154E+02  0.59073939971E+03  0.63725902226E+03  0.90624586024E+02 0.  0.
         23    2    1    2    0    0 -0.21613750539E+03 -0.46880553154E+02  0.77840654919E+02  0.24956310074E+03  0.85494831370E+02 0.  0.
          5    1    4    4  502    0 -0.86598718968E+02 -0.34792975735E+02  0.74207269451E+02  0.11932601614E+03  0.47000000000E+01 0. -1.
         -5    1    4    4    0  502 -0.12953878642E+03 -0.12087577419E+02  0.36333854683E+01  0.13023708460E+03  0.47000000000E+01 0. -1.
          5    1    3    3  503    0  0.52631265799E+02  0.23131248668E+02  0.68843990024E+02  0.89814752502E+02  0.47000000000E+01 0. -1.
         -5    1    3    3    0  503  0.16350623959E+03  0.23749304486E+02  0.52189540968E+03  0.54744426976E+03  0.47000000000E+01 0.  1.
<mgrwt>
<rscale>  0 0.23853471E+03</rscale>
<asrwt>0</asrwt>
<pdfrwt beam="1">  1        1 0.16787852E-01 0.23901051E+03</pdfrwt>
<pdfrwt beam="2">  1       -1 0.11964632E+00 0.23901051E+03</pdfrwt>
<totfact> 0.21523465E+02</totfact>
</mgrwt>
</event>
<event>
 8    1  0.3400573E-004  0.9725205E+02  0.7546771E-02  0.1288837E+00
          3   -1    0    0  501    0  0.00000000000E+00  0.00000000000E+00  0.53046007814E+03  0.53046007814E+03  0.00000000000E+00 0. -1.
         -3   -1    0    0    0  501 -0.00000000000E+00 -0.00000000000E+00 -0.17006957519E+02  0.17006957519E+02  0.00000000000E+00 0.  1.
         23    2    1    2    0    0 -0.14478904382E+02 -0.17729832699E+02  0.23800478955E+03  0.25535448188E+03  0.89641764414E+02 0.  0.
         23    2    1    2    0    0  0.14478904382E+02  0.17729832699E+02  0.27544833108E+03  0.29211255379E+03  0.94519708774E+02 0.  0.
          5    1    3    3  502    0 -0.49006356939E+01 -0.50169376985E+02  0.18873543307E+03  0.19540761580E+03  0.47000000000E+01 0. -1.
         -5    1    3    3    0  502 -0.95782686885E+01  0.32439544286E+02  0.49269356479E+02  0.59946866077E+02  0.47000000000E+01 0.  1.
          5    1    4    4  503    0  0.50397999466E+02  0.69347220066E+01  0.21362527952E+03  0.21964949071E+03  0.47000000000E+01 0. -1.
         -5    1    4    4    0  503 -0.35919095083E+02  0.10795110693E+02  0.61823051558E+02  0.72463063077E+02  0.47000000000E+01 0.  1.
<mgrwt>
<rscale>  0 0.96046369E+02</rscale>
<asrwt>0</asrwt>
<pdfrwt beam="1">  1        3 0.81609230E-01 0.97252049E+02</pdfrwt>
<pdfrwt beam="2">  1       -3 0.26164554E-02 0.97252049E+02</pdfrwt>
<totfact> 0.19428288E+03</totfact>
</mgrwt>
</event>
<event>
 8    1  0.3400573E-004  0.1043078E+03  0.7546771E-02  0.1271744E+00
          4   -1    0    0  501    0  0.00000000000E+00  0.00000000000E+00  0.17241279913E+03  0.17241279913E+03  0.00000000000E+00 0. -1.
         -4   -1    0    0    0  501 -0.00000000000E+00 -0.00000000000E+00 -0.11305089606E+03  0.11305089606E+03  0.00000000000E+00 0.  1.
         23    2    1    2    0    0 -0.51273434283E+02  0.38560385788E+01 -0.65442366591E+02  0.12313738091E+03  0.90753937297E+02 0.  0.
         23    2    1    2    0    0  0.51273434283E+02 -0.38560385788E+01  0.12480426967E+03  0.16232631428E+03  0.90165916427E+02 0.  0.
          5    1    4    4  502    0  0.55226396926E+02  0.33174668163E+02  0.92384944175E+02  0.11272790886E+03  0.47000000000E+01 0. -1.
         -5    1    3    3    0  503 -0.93191577787E+01  0.32014061620E+02 -0.64062500449E+02  0.72372928688E+02  0.47000000000E+01 0.  1.
          5    1    3    3  503    0 -0.41954276504E+02 -0.28158023041E+02 -0.13798661417E+01  0.50764452219E+02  0.47000000000E+01 0. -1.
         -5    1    4    4    0  502 -0.39529626433E+01 -0.37030706742E+02  0.32419325492E+02  0.49598405426E+02  0.47000000000E+01 0.  1.
<mgrwt>
<rscale>  0 0.10417973E+03</rscale>
<asrwt>0</asrwt>
<pdfrwt beam="1">  1        4 0.26525046E-01 0.10430777E+03</pdfrwt>
<pdfrwt beam="2">  1       -4 0.17392445E-01 0.10430777E+03</pdfrwt>
<totfact> 0.60940674E+02</totfact>
</mgrwt>
</event>
<event>
 8    1  0.3400573E-004  0.1101048E+03  0.7546771E-02  0.1263340E+00
         -2   -1    0    0    0  501 -0.00000000000E+00  0.00000000000E+00  0.38191961825E+02  0.38191961825E+02  0.00000000000E+00 0.  1.
          2   -1    0    0  501    0  0.00000000000E+00 -0.00000000000E+00 -0.72835318486E+03  0.72835318486E+03  0.00000000000E+00 0. -1.
         23    2    1    2    0    0 -0.10853836517E+02 -0.60397107904E+02 -0.63491250425E+03  0.64335632630E+03  0.83832321492E+02 0.  0.
         23    2    1    2    0    0  0.10853836517E+02  0.60397107904E+02 -0.55248718783E+02  0.12318882038E+03  0.91419079681E+02 0.  0.
          5    1    3    3  502    0  0.30886098473E+02 -0.41605251477E+02 -0.44100988790E+03  0.44406841731E+03  0.47000000000E+01 0. -1.
         -5    1    4    4    0  503 -0.25412006659E+02  0.56956430018E+02 -0.59359298614E+02  0.86228889212E+02  0.47000000000E+01 0.  1.
          5    1    4    4  503    0  0.36265843176E+02  0.34406778866E+01  0.41105798314E+01  0.36959931170E+02  0.47000000000E+01 0. -1.
         -5    1    3    3    0  502 -0.41739934990E+02 -0.18791856428E+02 -0.19390261635E+03  0.19928790899E+03  0.47000000000E+01 0.  1.
<mgrwt>
<rscale>  0 0.10851751E+03</rscale>
<asrwt>0</asrwt>
<pdfrwt beam="1">  1        2 0.11205433E+00 0.11010479E+03</pdfrwt>
<pdfrwt beam="2">  1       -2 0.58756866E-02 0.11010479E+03</pdfrwt>
<totfact> 0.58415302E+03</totfact>
</mgrwt>
</event>
<event>
 8    1  0.3400573E-004  0.1524627E+03  0.7546771E-02  0.1197599E+00
         -2   -1    0    0    0  501 -0.00000000000E+00  0.00000000000E+00  0.98200628322E+02  0.98200628322E+02  0.00000000000E+00 0.  1.
          2   -1    0    0  501    0  0.00000000000E+00 -0.00000000000E+00 -0.27803425150E+03  0.27803425150E+03  0.00000000000E+00 0. -1.
         23    2    1    2    0    0 -0.35454069659E+02 -0.11527552070E+03 -0.16748933392E+02  0.15298281726E+03  0.92616299201E+02 0.  0.
         23    2    1    2    0    0  0.35454069659E+02  0.11527552070E+03 -0.16308468978E+03  0.22325206256E+03  0.93270738534E+02 0.  0.
          5    1    4    4  502    0 -0.75997114968E+01  0.33241345984E+02  0.13585389819E+01  0.34448197715E+02  0.47000000000E+01 0. -1.
         -5    1    3    3    0  503 -0.53966703011E+02 -0.59470165283E+02  0.20764853899E+02  0.83080531715E+02  0.47000000000E+01 0.  1.
          5    1    3    3  503    0  0.18512633352E+02 -0.55805355421E+02 -0.37513787291E+02  0.69902285544E+02  0.47000000000E+01 0. -1.
         -5    1    4    4    0  502  0.43053781156E+02  0.82034174721E+02 -0.16444322876E+03  0.18880386485E+03  0.47000000000E+01 0.  1.
<mgrwt>
<rscale>  0 0.15236271E+03</rscale>
<asrwt>0</asrwt>
<pdfrwt beam="1">  1        2 0.42774499E-01 0.15246268E+03</pdfrwt>
<pdfrwt beam="2">  1       -2 0.15107789E-01 0.15246268E+03</pdfrwt>
<totfact> 0.38927822E+03</totfact>
</mgrwt>
</event>
<event>
 8    1  0.3400573E-004  0.1218454E+03  0.7546771E-02  0.1240322E+00
          1   -1    0    0  501    0  0.00000000000E+00  0.00000000000E+00  0.21053402293E+02  0.21053402293E+02  0.00000000000E+00 0. -1.
         -1   -1    0    0    0  501 -0.00000000000E+00 -0.00000000000E+00 -0.93046396400E+03  0.93046396400E+03  0.00000000000E+00 0.  1.
         23    2    1    2    0    0 -0.77856880196E+02 -0.20814803260E+02 -0.21966979025E+03  0.25119937643E+03  0.91385776469E+02 0.  0.
         23    2    1    2    0    0  0.77856880196E+02  0.20814803260E+02 -0.68974077146E+03  0.70031798986E+03  0.90598042411E+02 0.  0.
          5    1    3    3  502    0 -0.48909984001E+02  0.19309298795E+02 -0.44281283623E+02  0.68905425289E+02  0.47000000000E+01 0. -1.
         -5    1    4    4    0  503  0.71170597605E+02 -0.16633970730E+02 -0.56755600551E+03  0.57226204866E+03  0.47000000000E+01 0.  1.
          5    1    4    4  503    0  0.66862825909E+01  0.37448773990E+02 -0.12218476595E+03  0.12805594120E+03  0.47000000000E+01 0. -1.
         -5    1    3    3    0  502 -0.28946896195E+02 -0.40124102055E+02 -0.17538850663E+03  0.18229395114E+03  0.47000000000E+01 0.  1.
<mgrwt>
<rscale>  0 0.12169774E+03</rscale>
<asrwt>0</asrwt>
<pdfrwt beam="1">  1        1 0.32389853E-02 0.12184543E+03</pdfrwt>
<pdfrwt beam="2">  1       -1 0.14314829E+00 0.12184543E+03</pdfrwt>
<totfact> 0.12716850E+03</totfact>
</mgrwt>
</event>
<event>
 8    1  0.3400573E-004  0.9685188E+02  0.7546771E-02  0.1290534E+00
          2   -1    0    0  501    0  0.00000000000E+00  0.00000000000E+00  0.63631565818E+03  0.63631565818E+03  0.00000000000E+00 0. -1.
         -2   -1    0    0    0  501 -0.00000000000E+00 -0.00000000000E+00 -0.27436669573E+02  0.27436669573E+02  0.00000000000E+00 0.  1.
         23    2    1    2    0    0 -0.20198393265E+01 -0.25241499288E+02  0.54313064001E+03  0.55169844927E+03  0.93483013254E+02 0.  0.
         23    2    1    2    0    0  0.20198393265E+01  0.25241499288E+02  0.65748348594E+02  0.11205387849E+03  0.87132159985E+02 0.  0.
          5    1    4    4  502    0 -0.31378435688E+02  0.25673065147E+02  0.66828874523E+02  0.78306455483E+02  0.47000000000E+01 0. -1.
         -5    1    4    4    0  502  0.33398275014E+02 -0.43156585922E+00 -0.10805259291E+01  0.33747423003E+02  0.47000000000E+01 0.  1.
          5    1    3    3  503    0 -0.28168313029E+02  0.24288269552E+02  0.28933860192E+03  0.29175724577E+03  0.47000000000E+01 0. -1.
         -5    1    3    3    0  503  0.26148473702E+02 -0.49529768840E+02  0.25379203810E+03  0.25994120350E+03  0.47000000000E+01 0.  1.
<mgrwt>
<rscale>  0 0.95285606E+02</rscale>
<asrwt>0</asrwt>
<pdfrwt beam="1">  1        2 0.97894705E-01 0.96851881E+02</pdfrwt>
<pdfrwt beam="2">  1       -2 0.42210266E-02 0.96851881E+02</pdfrwt>
<totfact> 0.11099415E+04</totfact>
</mgrwt>
</event>
<event>
 8    1  0.3400573E-004  0.1004691E+03  0.7546771E-02  0.1280149E+00
         -1   -1    0    0    0  501 -0.00000000000E+00  0.00000000000E+00  0.16439572869E+02  0.16439572869E+02  0.00000000000E+00 0.  1.
          1   -1    0    0  501    0  0.00000000000E+00 -0.00000000000E+00 -0.61035500991E+03  0.61035500991E+03  0.00000000000E+00 0. -1.
         23    2    1    2    0    0 -0.22752108802E+02  0.30053417084E+02 -0.32571821762E+03  0.34039664490E+03  0.91414726571E+02 0.  0.
         23    2    1    2    0    0  0.22752108802E+02 -0.30053417084E+02 -0.26819721942E+03  0.28639793788E+03  0.93129823280E+02 0.  0.
          5    1    4    4  502    0 -0.18331945775E+02 -0.39742247783E+02 -0.20873163100E+03  0.21332250297E+03  0.47000000000E+01 0. -1.
         -5    1    4    4    0  502  0.41084054577E+02  0.96888306990E+01 -0.59465588419E+02  0.73075434907E+02  0.47000000000E+01 0.  1.
          5    1    3    3  503    0 -0.53781288594E+02  0.91805678561E+01 -0.12968269565E+03  0.14077074050E+03  0.47000000000E+01 0. -1.
         -5    1    3    3    0  503  0.31029179792E+02  0.20872849228E+02 -0.19603552197E+03  0.19962590440E+03  0.47000000000E+01 0.  1.
<mgrwt>
<rscale>  0 0.10006975E+03</rscale>
<asrwt>0</asrwt>
<pdfrwt beam="1">  1        1 0.93900766E-01 0.10046905E+03</pdfrwt>
<pdfrwt beam="2">  1       -1 0.25291652E-02 0.10046905E+03</pdfrwt>
<totfact> 0.15413408E+04</totfact>
</mgrwt>
</event>
<event>
 8    1  0.3400573E-004  0.9478400E+02  0.7546771E-02  0.1291995E+00
          1   -1    0    0  501    0  0.00000000000E+00  0.00000000000E+00  0.54082532958E+02  0.54082532958E+02  0.00000000000E+00 0. -1.
         -1   -1    0    0    0  501 -0.00000000000E+00 -0.00000000000E+00 -0.26636848066E+03  0.26636848066E+03  0.00000000000E+00 0.  1.
         23    2    1    2    0    0  0.12890752630E+02 -0.23018617764E+02 -0.20514377437E+03  0.22598224441E+03  0.91038334542E+02 0.  0.
         23    2    1    2    0    0 -0.12890752630E+02  0.23018617764E+02 -0.71421733244E+01  0.94468769206E+02  0.90428476977E+02 0.  0.
          5    1    3    3  502    0 -0.32903080682E+02  0.85146937248E+01 -0.11459894173E+03  0.11962491452E+03  0.47000000000E+01 0. -1.
         -5    1    3    3    0  502  0.45793833313E+02 -0.31533311488E+02 -0.90544832641E+02  0.10635732989E+03  0.47000000000E+01 0.  1.
          5    1    4    4  503    0  0.74081419424E+01  0.52526158938E+02  0.10482977308E+02  0.54275784223E+02  0.47000000000E+01 0. -1.
         -5    1    4    4    0  503 -0.20298894573E+02 -0.29507541174E+02 -0.17625150632E+02  0.40192984983E+02  0.47000000000E+01 0.  1.
<mgrwt>
<rscale>  0 0.94637258E+02</rscale>
<asrwt>0</asrwt>
<pdfrwt beam="1">  1        1 0.83203897E-02 0.94784000E+02</pdfrwt>
<pdfrwt beam="2">  1       -1 0.40979766E-01 0.94784000E+02</pdfrwt>
<totfact> 0.45391338E+03</totfact>
</mgrwt>
</event>
<event>
 8    1  0.3400573E-004  0.9585387E+02  0.7546771E-02  0.1289479E+00
          1   -1    0    0  501    0  0.00000000000E+00  0.00000000000E+00  0.73308274973E+02  0.73308274973E+02  0.00000000000E+00 0. -1.
         -1   -1    0    0    0  501 -0.00000000000E+00 -0.00000000000E+00 -0.12749784001E+03  0.12749784001E+03  0.00000000000E+00 0.  1.
         23    2    1    2    0    0 -0.20772690907E+02 -0.25087432835E+02 -0.12521282715E+02  0.96287165562E+02  0.89741583211E+02 0.  0.
         23    2    1    2    0    0  0.20772690907E+02  0.25087432835E+02 -0.41668282321E+02  0.10451894942E+03  0.90150324805E+02 0.  0.
          5    1    3    3  502    0  0.34480868345E+02 -0.18558478385E+02 -0.21624627202E+01  0.39498273973E+02  0.47000000000E+01 0. -1.
         -5    1    4    4    0  503 -0.23629946339E+02  0.41304865366E+02 -0.15407214249E+02  0.50238814853E+02  0.47000000000E+01 0.  1.
          5    1    4    4  503    0  0.44402637246E+02 -0.16217432531E+02 -0.26261068071E+02  0.54280134567E+02  0.47000000000E+01 0. -1.
         -5    1    3    3    0  502 -0.55253559252E+02 -0.65289544499E+01 -0.10358819995E+02  0.56788891589E+02  0.47000000000E+01 0.  1.
<mgrwt>
<rscale>  0 0.95757649E+02</rscale>
<asrwt>0</asrwt>
<pdfrwt beam="1">  1        1 0.11278196E-01 0.95853873E+02</pdfrwt>
<pdfrwt beam="2">  1       -1 0.19615052E-01 0.95853873E+02</pdfrwt>
<totfact> 0.10324384E+04</totfact>
</mgrwt>
</event>
<event>
 8    1  0.3400573E-004  0.9503334E+02  0.7546771E-02  0.1291385E+00
         -1   -1    0    0    0  501 -0.00000000000E+00  0.00000000000E+00  0.38399393687E+03  0.38399393687E+03  0.00000000000E+00 0.  1.
          1   -1    0    0  501    0  0.00000000000E+00 -0.00000000000E+00 -0.64099260578E+02  0.64099260578E+02  0.00000000000E+00 0. -1.
         23    2    1    2    0    0 -0.22136486763E+02 -0.91175786012E+01  0.33833018947E+03  0.35128822364E+03  0.91449137079E+02 0.  0.
         23    2    1    2    0    0  0.22136486763E+02  0.91175786012E+01 -0.18435513177E+02  0.96804973813E+02  0.91968366970E+02 0.  0.
          5    1    4    4  502    0  0.42532765181E+02  0.96815914332E+01 -0.45088331872E+02  0.62911183406E+02  0.47000000000E+01 0. -1.
         -5    1    4    4    0  502 -0.20396278418E+02 -0.56401283206E+00  0.26652818695E+02  0.33893790407E+02  0.47000000000E+01 0.  1.
          5    1    3    3  503    0  0.34401318762E+02  0.72788575019E+01  0.12636934394E+03  0.13125446121E+03  0.47000000000E+01 0. -1.
         -5    1    3    3    0  503 -0.56537805525E+02 -0.16396436103E+02  0.21196084553E+03  0.22003376243E+03  0.47000000000E+01 0.  1.
<mgrwt>
<rscale>  0 0.94907487E+02</rscale>
<asrwt>0</asrwt>
<pdfrwt beam="1">  1        1 0.98614249E-02 0.95033335E+02</pdfrwt>
<pdfrwt beam="2">  1       -1 0.59075989E-01 0.95033335E+02</pdfrwt>
<totfact> 0.18752511E+03</totfact>
</mgrwt>
</event>
<event>
 8    1  0.3400573E-004  0.9552598E+02  0.7546771E-02  0.1291578E+00
          1   -1    0    0  501    0  0.00000000000E+00  0.00000000000E+00  0.10440328260E+04  0.10440328260E+04  0.00000000000E+00 0. -1.
         -1   -1    0    0    0  501 -0.00000000000E+00 -0.00000000000E+00 -0.10593352583E+02  0.10593352583E+02  0.00000000000E+00 0.  1.
         23    2    1    2    0    0 -0.24814476816E+02 -0.27044212511E+01  0.75793982730E+03  0.76393585764E+03  0.92207052998E+02 0.  0.
         23    2    1    2    0    0  0.24814476816E+02  0.27044212511E+01  0.27549964607E+03  0.29069032090E+03  0.89318170184E+02 0.  0.
          5    1    4    4  502    0  0.44176920453E+02 -0.19779946624E+02  0.23656944020E+03  0.24151612084E+03  0.47000000000E+01 0. -1.
         -5    1    3    3    0  503 -0.34938166673E+02 -0.41031866066E+02  0.36741523759E+03  0.37137627325E+03  0.47000000000E+01 0.  1.
          5    1    3    3  503    0  0.10123689857E+02  0.38327444815E+02  0.39052458972E+03  0.39255958439E+03  0.47000000000E+01 0. -1.
         -5    1    4    4    0  502 -0.19362443637E+02  0.22484367875E+02  0.38930205877E+02  0.49174200064E+02  0.47000000000E+01 0.  1.
<mgrwt>
<rscale>  0 0.94821873E+02</rscale>
<asrwt>0</asrwt>
<pdfrwt beam="1">  1        1 0.16062035E+00 0.95525980E+02</pdfrwt>
<pdfrwt beam="2">  1       -1 0.16297474E-02 0.95525980E+02</pdfrwt>
<totfact> 0.12868669E+04</totfact>
</mgrwt>
</event>
<event>
 8    1  0.3400573E-004  0.9504530E+02  0.7546771E-02  0.1296636E+00
          2   -1    0    0  501    0  0.00000000000E+00  0.00000000000E+00  0.27733392526E+02  0.27733392526E+02  0.00000000000E+00 0. -1.
         -2   -1    0    0    0  501 -0.00000000000E+00 -0.00000000000E+00 -0.32861893610E+03  0.32861893610E+03  0.00000000000E+00 0.  1.
         23    2    1    2    0    0 -0.15437225045E+02 -0.24642804613E+02 -0.21477556901E+03  0.23486624910E+03  0.90487757104E+02 0.  0.
         23    2    1    2    0    0  0.15437225045E+02  0.24642804613E+02 -0.86109974566E+02  0.12148607953E+03  0.80612431198E+02 0.  0.
          5    1    3    3  502    0  0.35319791048E+02 -0.11660752796E+02 -0.54264755038E+02  0.65956155397E+02  0.47000000000E+01 0. -1.
         -5    1    3    3    0  502 -0.50757016094E+02 -0.12982051817E+02 -0.16051081397E+03  0.16891009370E+03  0.47000000000E+01 0.  1.
          5    1    4    4  503    0  0.27893121057E+02  0.39282002585E+01  0.32995386493E+01  0.28747763650E+02  0.47000000000E+01 0. -1.
         -5    1    4    4    0  503 -0.12455896011E+02  0.20714604354E+02 -0.89409513215E+02  0.92738315880E+02  0.47000000000E+01 0.  1.
<mgrwt>
<rscale>  0 0.92616665E+02</rscale>
<asrwt>0</asrwt>
<pdfrwt beam="1">  1        2 0.42666755E-02 0.95045305E+02</pdfrwt>
<pdfrwt beam="2">  1       -2 0.50556762E-01 0.95045305E+02</pdfrwt>
<totfact> 0.66612987E+03</totfact>
</mgrwt>
</event>
<event>
 8    1  0.3400573E-004  0.9809675E+02  0.7546771E-02  0.1284414E+00
         -1   -1    0    0    0  501 -0.00000000000E+00  0.00000000000E+00  0.12636028927E+03  0.12636028927E+03  0.00000000000E+00 0.  1.
          1   -1    0    0  501    0  0.00000000000E+00 -0.00000000000E+00 -0.13060674408E+03  0.13060674408E+03  0.00000000000E+00 0. -1.
         23    2    1    2    0    0  0.14604362077E+01 -0.37878634894E+02 -0.85153246531E+02  0.12981011665E+03  0.90347479961E+02 0.  0.
         23    2    1    2    0    0 -0.14604362077E+01  0.37878634894E+02  0.80906791724E+02  0.12715691670E+03  0.90476785215E+02 0.  0.
          5    1    4    4  502    0  0.40826445424E+02  0.34674515488E+02  0.56522925747E+02  0.78013151489E+02  0.47000000000E+01 0. -1.
         -5    1    4    4    0  502 -0.42286881632E+02  0.32041194065E+01  0.24383865977E+02  0.49143765213E+02  0.47000000000E+01 0.  1.
          5    1    3    3  503    0  0.19912503016E+02 -0.62215391533E+02 -0.68240335616E+02  0.94583804771E+02  0.47000000000E+01 0. -1.
         -5    1    3    3    0  503 -0.18452066808E+02  0.24336756639E+02 -0.16912910915E+02  0.35226311882E+02  0.47000000000E+01 0.  1.
<mgrwt>
<rscale>  0 0.98066925E+02</rscale>
<asrwt>0</asrwt>
<pdfrwt beam="1">  1        1 0.20093345E-01 0.98096751E+02</pdfrwt>
<pdfrwt beam="2">  1       -1 0.19440044E-01 0.98096751E+02</pdfrwt>
<totfact> 0.50073697E+03</totfact>
</mgrwt>
</event>
<event>
 8    1  0.3400573E-004  0.9994504E+02  0.7546771E-02  0.1281775E+00
          1   -1    0    0  501    0  0.00000000000E+00  0.00000000000E+00  0.24334163358E+03  0.24334163358E+03  0.00000000000E+00 0. -1.
         -1   -1    0    0    0  501 -0.00000000000E+00 -0.00000000000E+00 -0.59847740166E+02  0.59847740166E+02  0.00000000000E+00 0.  1.
         23    2    1    2    0    0 -0.21908715829E+02 -0.29189618179E+02  0.17823447159E+03  0.20310604860E+03  0.90291275742E+02 0.  0.
         23    2    1    2    0    0  0.21908715829E+02  0.29189618179E+02  0.52594218254E+01  0.10008332515E+03  0.93042919218E+02 0.  0.
          5    1    4    4  502    0 -0.20348474280E+02  0.41066599331E+02 -0.18855196303E+02  0.49780863931E+02  0.47000000000E+01 0. -1.
         -5    1    4    4    0  502  0.42257190109E+02 -0.11876981152E+02  0.24114618128E+02  0.50302461219E+02  0.47000000000E+01 0.  1.
          5    1    3    3  503    0 -0.29994892793E+00  0.27582740016E+02  0.10059638991E+03  0.10441561751E+03  0.47000000000E+01 0. -1.
         -5    1    3    3    0  503 -0.21608766901E+02 -0.56772358194E+02  0.77638081675E+02  0.98690431087E+02  0.47000000000E+01 0.  1.
<mgrwt>
<rscale>  0 0.99299705E+02</rscale>
<asrwt>0</asrwt>
<pdfrwt beam="1">  1        1 0.37437174E-01 0.99945037E+02</pdfrwt>
<pdfrwt beam="2">  1       -1 0.92073448E-02 0.99945037E+02</pdfrwt>
<totfact> 0.73520126E+03</totfact>
</mgrwt>
</event>
<event>
 8    1  0.3400573E-004  0.1373861E+03  0.7546771E-02  0.1217066E+00
         -1   -1    0    0    0  501 -0.00000000000E+00  0.00000000000E+00  0.20704767604E+03  0.20704767604E+03  0.00000000000E+00 0.  1.
          1   -1    0    0  501    0  0.00000000000E+00 -0.00000000000E+00 -0.16865677712E+03  0.16865677712E+03  0.00000000000E+00 0. -1.
         23    2    1    2    0    0  0.92416952540E+02 -0.43986295394E+02  0.14682714050E+03  0.20107993631E+03  0.91647391118E+02 0.  0.
         23    2    1    2    0    0 -0.92416952540E+02  0.43986295394E+02 -0.10843624158E+03  0.17462451685E+03  0.90882430083E+02 0.  0.
          5    1    3    3  502    0  0.35417917222E+02  0.21437848240E+02  0.84265093856E+02  0.94003756521E+02  0.47000000000E+01 0. -1.
         -5    1    3    3    0  502  0.56999035317E+02 -0.65424143634E+02  0.62562046647E+02  0.10707617979E+03  0.47000000000E+01 0.  1.
          5    1    4    4  503    0 -0.10059279651E+03  0.10069180355E+02 -0.86595535149E+02  0.13319600524E+03  0.47000000000E+01 0. -1.
         -5    1    4    4    0  503  0.81758439709E+01  0.33917115039E+02 -0.21840706432E+02  0.41428511616E+02  0.47000000000E+01 0.  1.
<mgrwt>
<rscale>  0 0.13725861E+03</rscale>
<asrwt>0</asrwt>
<pdfrwt beam="1">  1        1 0.25947196E-01 0.13738607E+03</pdfrwt>
<pdfrwt beam="2">  1       -1 0.31853489E-01 0.13738607E+03</pdfrwt>
<totfact> 0.16468701E+03</totfact>
</mgrwt>
</event>
<event>
 8    1  0.3400573E-004  0.9625229E+02  0.7546771E-02  0.1303978E+00
          2   -1    0    0  501    0  0.00000000000E+00  0.00000000000E+00  0.10189726745E+04  0.10189726745E+04  0.00000000000E+00 0.  1.
         -2   -1    0    0    0  501 -0.00000000000E+00 -0.00000000000E+00 -0.90179440508E+01  0.90179440508E+01  0.00000000000E+00 0. -1.
         23    2    1    2    0    0  0.78787314580E+00  0.20775107722E+02  0.20497235131E+03  0.21727418619E+03  0.69008559895E+02 0.  0.
         23    2    1    2    0    0 -0.78787314580E+00 -0.20775107722E+02  0.80498237917E+03  0.81071643239E+03  0.93980195403E+02 0.  0.
          5    1    4    4  502    0 -0.40284103439E+02  0.13823578194E+02  0.31344328811E+03  0.31635847573E+03  0.47000000000E+01 0. -1.
         -5    1    3    3    0  503  0.27064462406E+02 -0.36449429056E+01  0.14174205569E+03  0.14442531318E+03  0.47000000000E+01 0.  1.
          5    1    3    3  503    0 -0.26276589260E+02  0.24420050628E+02  0.63230295619E+02  0.72848873017E+02  0.47000000000E+01 0. -1.
         -5    1    4    4    0  502  0.39496230294E+02 -0.34598685916E+02  0.49153909106E+03  0.49435795666E+03  0.47000000000E+01 0.  1.
<mgrwt>
<rscale>  0 0.89536538E+02</rscale>
<asrwt>0</asrwt>
<pdfrwt beam="1">  1        2 0.15676494E+00 0.96252288E+02</pdfrwt>
<pdfrwt beam="2">  1       -2 0.13873768E-02 0.96252288E+02</pdfrwt>
<totfact> 0.31046011E+04</totfact>
</mgrwt>
</event>
<event>
 8    1  0.3400573E-004  0.1042884E+03  0.7546771E-02  0.1271978E+00
         -3   -1    0    0    0  501 -0.00000000000E+00  0.00000000000E+00  0.11388603981E+04  0.11388603981E+04  0.00000000000E+00 0.  1.
          3   -1    0    0  501    0  0.00000000000E+00 -0.00000000000E+00 -0.10177851766E+02  0.10177851766E+02  0.00000000000E+00 0. -1.
         23    2    1    2    0    0 -0.50333837604E+02 -0.79084880773E+01  0.71383117888E+03  0.72127929805E+03  0.89960182672E+02 0.  0.
         23    2    1    2    0    0  0.50333837604E+02  0.79084880773E+01  0.41485136742E+03  0.42775895178E+03  0.90994639322E+02 0.  0.
          5    1    3    3  502    0  0.12110786070E+01 -0.41414546301E+02  0.29679712819E+03  0.29971195615E+03  0.47000000000E+01 0. -1.
         -5    1    4    4    0  503  0.14057415860E+02  0.45246890973E+02  0.13711103930E+03  0.14514275449E+03  0.47000000000E+01 0.  1.
          5    1    4    4  503    0  0.36276421743E+02 -0.37338402895E+02  0.27774032812E+03  0.28261619729E+03  0.47000000000E+01 0. -1.
         -5    1    3    3    0  502 -0.51544916211E+02  0.33506058224E+02  0.41703405069E+03  0.42156734190E+03  0.47000000000E+01 0.  1.
<mgrwt>
<rscale>  0 0.10406229E+03</rscale>
<asrwt>0</asrwt>
<pdfrwt beam="1">  1        3 0.15658242E-02 0.10428837E+03</pdfrwt>
<pdfrwt beam="2">  1       -3 0.17520919E+00 0.10428837E+03</pdfrwt>
<totfact> 0.70925544E+02</totfact>
</mgrwt>
</event>
<event>
 8    1  0.3400573E-004  0.1140851E+03  0.7546771E-02  0.1254300E+00
          2   -1    0    0  501    0  0.00000000000E+00  0.00000000000E+00  0.14068315734E+03  0.14068315734E+03  0.00000000000E+00 0. -1.
         -2   -1    0    0    0  501 -0.00000000000E+00 -0.00000000000E+00 -0.90533355755E+02  0.90533355755E+02  0.00000000000E+00 0.  1.
         23    2    1    2    0    0  0.29390533941E+02 -0.56063656845E+02  0.27450384048E+02  0.11734112014E+03  0.94913001144E+02 0.  0.
         23    2    1    2    0    0 -0.29390533941E+02  0.56063656845E+02  0.22699417533E+02  0.11387539295E+03  0.91898881713E+02 0.  0.
          5    1    4    4  502    0  0.21083535969E+02 -0.13525033937E+02  0.58057011616E+01  0.26138825488E+02  0.47000000000E+01 0. -1.
         -5    1    4    4    0  502 -0.50474069910E+02  0.69588690781E+02  0.16893716372E+02  0.87736567466E+02  0.47000000000E+01 0.  1.
          5    1    3    3  503    0  0.16616326797E+02  0.25039091473E+02 -0.68609451914E+00  0.30423989609E+02  0.47000000000E+01 0. -1.
         -5    1    3    3    0  503  0.12774207144E+02 -0.81102748318E+02  0.28136478567E+02  0.86917130527E+02  0.47000000000E+01 0.  1.
<mgrwt>
<rscale>  0 0.11345617E+03</rscale>
<asrwt>0</asrwt>
<pdfrwt beam="1">  1        2 0.21643563E-01 0.11408512E+03</pdfrwt>
<pdfrwt beam="2">  1       -2 0.13928209E-01 0.11408512E+03</pdfrwt>
<totfact> 0.91222972E+03</totfact>
</mgrwt>
</event>
<event>
 8    1  0.3400573E-004  0.9090294E+02  0.7546771E-02  0.1311460E+00
          1   -1    0    0  501    0  0.00000000000E+00  0.00000000000E+00  0.47274926593E+03  0.47274926593E+03  0.00000000000E+00 0. -1.
         -1   -1    0    0    0  501 -0.00000000000E+00 -0.00000000000E+00 -0.89489192581E+02  0.89489192581E+02  0.00000000000E+00 0.  1.
         23    2    1    2    0    0 -0.12294041275E+02 -0.10104921913E+02 -0.68560824864E+02  0.10136378055E+03  0.72943652249E+02 0.  0.
         23    2    1    2    0    0  0.12294041275E+02  0.10104921913E+02  0.45182089821E+03  0.46087467796E+03  0.89499116352E+02 0.  0.
          5    1    4    4  502    0  0.79174273874E+01 -0.39523940689E+02  0.18455979690E+03  0.18896887621E+03  0.47000000000E+01 0. -1.
         -5    1    3    3    0  503  0.20021467706E+02 -0.85079774459E+01 -0.64725510863E+02  0.68445062684E+02  0.47000000000E+01 0.  1.
          5    1    3    3  503    0 -0.32315508982E+02 -0.15969444671E+01 -0.38353140003E+01  0.32918717865E+02  0.47000000000E+01 0. -1.
         -5    1    4    4    0  502  0.43766138880E+01  0.49628862602E+02  0.26726110131E+03  0.27190580175E+03  0.47000000000E+01 0.  1.
<mgrwt>
<rscale>  0 0.86537552E+02</rscale>
<asrwt>0</asrwt>
<pdfrwt beam="1">  1        1 0.72730655E-01 0.90902941E+02</pdfrwt>
<pdfrwt beam="2">  1       -1 0.13767568E-01 0.90902941E+02</pdfrwt>
<totfact> 0.17449125E+03</totfact>
</mgrwt>
</event>
<event>
 8    1  0.3400573E-004  0.9582191E+02  0.7546771E-02  0.1291906E+00
          1   -1    0    0  501    0  0.00000000000E+00  0.00000000000E+00  0.25293673997E+02  0.25293673997E+02  0.00000000000E+00 0. -1.
         -1   -1    0    0    0  501 -0.00000000000E+00 -0.00000000000E+00 -0.39656417953E+03  0.39656417953E+03  0.00000000000E+00 0.  1.
         23    2    1    2    0    0 -0.27131910678E+02  0.12978805710E+02 -0.10656232184E+03  0.14034007290E+03  0.86227708139E+02 0.  0.
         23    2    1    2    0    0  0.27131910678E+02 -0.12978805710E+02 -0.26470818369E+03  0.28151778063E+03  0.90979384043E+02 0.  0.
          5    1    4    4  502    0  0.20876376560E+02 -0.51507744677E+02 -0.13782701719E+03  0.14868506155E+03  0.47000000000E+01 0. -1.
         -5    1    3    3    0  503  0.13434664685E+02  0.38658406219E+02 -0.35109070668E+02  0.54126697939E+02  0.47000000000E+01 0.  1.
          5    1    3    3  503    0 -0.40566575363E+02 -0.25679600509E+02 -0.71453251170E+02  0.86213374959E+02  0.47000000000E+01 0. -1.
         -5    1    4    4    0  502  0.62555341178E+01  0.38528938967E+02 -0.12688116650E+03  0.13283271908E+03  0.47000000000E+01 0.  1.
<mgrwt>
<rscale>  0 0.94676702E+02</rscale>
<asrwt>0</asrwt>
<pdfrwt beam="1">  1        1 0.38913349E-02 0.95821909E+02</pdfrwt>
<pdfrwt beam="2">  1       -1 0.61009866E-01 0.95821909E+02</pdfrwt>
<totfact> 0.61421546E+03</totfact>
</mgrwt>
</event>
<event>
 8    1  0.3400573E-004  0.9515592E+02  0.7546771E-02  0.1291219E+00
         -1   -1    0    0    0  501 -0.00000000000E+00  0.00000000000E+00  0.22189409785E+02  0.22189409785E+02  0.00000000000E+00 0.  1.
          1   -1    0    0  501    0  0.00000000000E+00 -0.00000000000E+00 -0.41648778063E+03  0.41648778063E+03  0.00000000000E+00 0. -1.
         23    2    1    2    0    0 -0.95666708084E+01 -0.32478913778E+01 -0.16013750400E+03  0.18592046815E+03  0.93916613548E+02 0.  0.
         23    2    1    2    0    0  0.95666708084E+01  0.32478913778E+01 -0.23416086684E+03  0.25275672226E+03  0.94618069629E+02 0.  0.
          5    1    4    4  502    0 -0.32007237940E+02  0.30716630294E+02 -0.12328362284E+03  0.13110650753E+03  0.47000000000E+01 0. -1.
         -5    1    4    4    0  502  0.41573908749E+02 -0.27468738916E+02 -0.11087724400E+03  0.12165021473E+03  0.47000000000E+01 0.  1.
          5    1    3    3  503    0 -0.30805807830E+02  0.37144121121E+02 -0.78075207683E+02  0.91904905117E+02  0.47000000000E+01 0. -1.
         -5    1    3    3    0  503  0.21239137022E+02 -0.40392012499E+02 -0.82062296319E+02  0.94015563032E+02  0.47000000000E+01 0.  1.
<mgrwt>
<rscale>  0 0.94981073E+02</rscale>
<asrwt>0</asrwt>
<pdfrwt beam="1">  1        1 0.64075042E-01 0.95155920E+02</pdfrwt>
<pdfrwt beam="2">  1       -1 0.34137554E-02 0.95155920E+02</pdfrwt>
<totfact> 0.16315207E+04</totfact>
</mgrwt>
</event>
<event>
 8    1  0.3400573E-004  0.9429904E+02  0.7546771E-02  0.1292908E+00
         -3   -1    0    0    0  501 -0.00000000000E+00  0.00000000000E+00  0.18391104820E+03  0.18391104820E+03  0.00000000000E+00 0.  1.
          3   -1    0    0  501    0  0.00000000000E+00 -0.00000000000E+00 -0.10066144396E+03  0.10066144396E+03  0.00000000000E+00 0. -1.
         23    2    1    2    0    0 -0.26554991903E+02 -0.73499095106E+01  0.14429718440E+03  0.17223764940E+03  0.89916303749E+02 0.  0.
         23    2    1    2    0    0  0.26554991903E+02  0.73499095106E+01 -0.61047580162E+02  0.11233484276E+03  0.90183818330E+02 0.  0.
          5    1    4    4  502    0  0.12405404610E+02 -0.31655430045E+02 -0.61663774550E+02  0.70572455013E+02  0.47000000000E+01 0. -1.
         -5    1    4    4    0  502  0.14149587293E+02  0.39005339556E+02  0.61619438738E+00  0.41762387742E+02  0.47000000000E+01 0.  1.
          5    1    3    3  503    0  0.33179859325E+02 -0.53666276031E+01  0.56940135251E+02  0.66287048200E+02  0.47000000000E+01 0. -1.
         -5    1    3    3    0  503 -0.59734851228E+02 -0.19832819075E+01  0.87357049150E+02  0.10595060120E+03  0.47000000000E+01 0.  1.
<mgrwt>
<rscale>  0 0.94235028E+02</rscale>
<asrwt>0</asrwt>
<pdfrwt beam="1">  1        3 0.15486376E-01 0.94299045E+02</pdfrwt>
<pdfrwt beam="2">  1       -3 0.28294007E-01 0.94299045E+02</pdfrwt>
<totfact> 0.91215891E+02</totfact>
</mgrwt>
</event>
<event>
 8    1  0.3400573E-004  0.9736244E+02  0.7546771E-02  0.1286647E+00
         -1   -1    0    0    0  501 -0.00000000000E+00  0.00000000000E+00  0.91458290078E+02  0.91458290078E+02  0.00000000000E+00 0.  1.
          1   -1    0    0  501    0  0.00000000000E+00 -0.00000000000E+00 -0.10728601499E+03  0.10728601499E+03  0.00000000000E+00 0. -1.
         23    2    1    2    0    0  0.33767621049E+02 -0.54940155743E+01  0.13490820245E+02  0.98292655988E+02  0.91153757749E+02 0.  0.
         23    2    1    2    0    0 -0.33767621049E+02  0.54940155743E+01 -0.29318545154E+02  0.10045164908E+03  0.89780400278E+02 0.  0.
          5    1    3    3  502    0  0.17104444334E+02 -0.28951393652E+02 -0.30417996749E+02  0.45586069546E+02  0.47000000000E+01 0. -1.
         -5    1    3    3    0  502  0.16663176715E+02  0.23457378078E+02  0.43908816994E+02  0.52706586442E+02  0.47000000000E+01 0.  1.
          5    1    4    4  503    0 -0.12274650239E+02 -0.39794942474E+02 -0.27387358787E+02  0.50064577361E+02  0.47000000000E+01 0. -1.
         -5    1    4    4    0  503 -0.21492970810E+02  0.45288958049E+02 -0.19311863663E+01  0.50387071716E+02  0.47000000000E+01 0.  1.
<mgrwt>
<rscale>  0 0.97039693E+02</rscale>
<asrwt>0</asrwt>
<pdfrwt beam="1">  1        1 0.16505541E-01 0.97362436E+02</pdfrwt>
<pdfrwt beam="2">  1       -1 0.14070506E-01 0.97362436E+02</pdfrwt>
<totfact> 0.10648734E+04</totfact>
</mgrwt>
</event>
<event>
 8    1  0.3668527E-004  0.1268202E+03  0.7546771E-02  0.1235885E+00
          2   -1    0    0  501    0  0.00000000000E+00  0.00000000000E+00  0.56336416220E+03  0.56336416220E+03  0.00000000000E+00 0. -1.
         -2   -1    0    0    0  501 -0.00000000000E+00 -0.00000000000E+00 -0.26537776232E+02  0.26537776232E+02  0.00000000000E+00 0.  1.
         23    2    1    2    0    0 -0.44293797012E+02  0.83644121492E+02  0.25562409424E+03  0.28142487708E+03  0.69985744060E+02 0.  0.
         23    2    1    2    0    0  0.44293797012E+02 -0.83644121492E+02  0.28120229173E+03  0.30847706134E+03  0.84410242212E+02 0.  0.
          5    1    4    4  502    0  0.18691696730E+02 -0.56900411640E+02  0.25715799381E+03  0.26408210873E+03  0.47000000000E+01 0. -1.
         -5    1    3    3    0  503 -0.12225329368E+02  0.73443557676E+02  0.11749683873E+03  0.13917978285E+03  0.47000000000E+01 0.  1.
          5    1    3    3  503    0 -0.32068467644E+02  0.10200563816E+02  0.13812725551E+03  0.14224509423E+03  0.47000000000E+01 0. -1.
         -5    1    4    4    0  502  0.25602100282E+02 -0.26743709852E+02  0.24044297920E+02  0.44394952618E+02  0.47000000000E+01 0.  1.
<mgrwt>
<rscale>  0 0.12447933E+03</rscale>
<asrwt>0</asrwt>
<pdfrwt beam="1">  1        2 0.86671401E-01 0.12682022E+03</pdfrwt>
<pdfrwt beam="2">  1       -2 0.40827352E-02 0.12682022E+03</pdfrwt>
<totfact> 0.13657937E+04</totfact>
</mgrwt>
</event>
<event>
 8    1  0.3400573E-004  0.1854443E+03  0.7546771E-02  0.1162875E+00
          1   -1    0    0  501    0  0.00000000000E+00  0.00000000000E+00  0.43704002502E+03  0.43704002502E+03  0.00000000000E+00 0. -1.
         -1   -1    0    0    0  501 -0.00000000000E+00 -0.00000000000E+00 -0.10911568479E+03  0.10911568479E+03  0.00000000000E+00 0.  1.
         23    2    1    2    0    0 -0.13840341956E+03 -0.81246496286E+02  0.18406399975E+02  0.18533589386E+03  0.90852068160E+02 0.  0.
         23    2    1    2    0    0  0.13840341956E+03  0.81246496286E+02  0.30951794026E+03  0.36081981595E+03  0.92914393563E+02 0.  0.
          5    1    3    3  502    0 -0.11592961051E+03 -0.96894528884E+02  0.31829782979E+02  0.15447799004E+03  0.47000000000E+01 0. -1.
         -5    1    4    4    0  503  0.10618759649E+03  0.95406118771E+02  0.20053677700E+03  0.24620158829E+03  0.47000000000E+01 0.  1.
          5    1    4    4  503    0  0.32215823067E+02 -0.14159622485E+02  0.10898116326E+03  0.11461822765E+03  0.47000000000E+01 0. -1.
         -5    1    3    3    0  502 -0.22473809047E+02  0.15648032598E+02 -0.13423383003E+02  0.30857903825E+02  0.47000000000E+01 0.  1.
<mgrwt>
<rscale>  0 0.18518759E+03</rscale>
<asrwt>0</asrwt>
<pdfrwt beam="1">  1        1 0.67236926E-01 0.18544429E+03</pdfrwt>
<pdfrwt beam="2">  1       -1 0.16787029E-01 0.18544429E+03</pdfrwt>
<totfact> 0.14391899E+03</totfact>
</mgrwt>
</event>
<event>
 8    1  0.3400573E-004  0.1110247E+03  0.7546771E-02  0.1260818E+00
          4   -1    0    0  501    0  0.00000000000E+00  0.00000000000E+00  0.47797629904E+02  0.47797629904E+02  0.00000000000E+00 0. -1.
         -4   -1    0    0    0  501 -0.00000000000E+00 -0.00000000000E+00 -0.33660563848E+03  0.33660563848E+03  0.00000000000E+00 0.  1.
         23    2    1    2    0    0  0.11456189329E+02 -0.54657398141E+02 -0.24556002098E+03  0.26949249879E+03  0.95957321539E+02 0.  0.
         23    2    1    2    0    0 -0.11456189329E+02  0.54657398141E+02 -0.43247987600E+02  0.11491076959E+03  0.90638960120E+02 0.  0.
          5    1    4    4  502    0 -0.45197573656E+02  0.49063110593E+02 -0.44564467670E+02  0.80362250243E+02  0.47000000000E+01 0. -1.
         -5    1    4    4    0  502  0.33741384327E+02  0.55942875480E+01  0.13164800695E+01  0.34548519350E+02  0.47000000000E+01 0.  1.
          5    1    3    3  503    0  0.51039812256E+02 -0.12178582811E+02 -0.11123631968E+03  0.12308122981E+03  0.47000000000E+01 0. -1.
         -5    1    3    3    0  503 -0.39583622928E+02 -0.42478815331E+02 -0.13432370130E+03  0.14641126898E+03  0.47000000000E+01 0.  1.
<mgrwt>
<rscale>  0 0.10986594E+03</rscale>
<asrwt>0</asrwt>
<pdfrwt beam="1">  1        4 0.73534817E-02 0.11102470E+03</pdfrwt>
<pdfrwt beam="2">  1       -4 0.51785481E-01 0.11102470E+03</pdfrwt>
<totfact> 0.72716041E+02</totfact>
</mgrwt>
</event>
<event>
 8    1  0.3400573E-004  0.9468731E+02  0.7546771E-02  0.1293787E+00
         -1   -1    0    0    0  501 -0.00000000000E+00  0.00000000000E+00  0.17460891012E+02  0.17460891012E+02  0.00000000000E+00 0.  1.
          1   -1    0    0  501    0  0.00000000000E+00 -0.00000000000E+00 -0.83480312127E+03  0.83480312127E+03  0.00000000000E+00 0. -1.
         23    2    1    2    0    0 -0.44718883523E+01  0.91662240231E+01 -0.67592443177E+03  0.68207388243E+03  0.90812588185E+02 0.  0.
         23    2    1    2    0    0  0.44718883523E+01 -0.91662240231E+01 -0.14141779848E+03  0.17019012985E+03  0.94136438872E+02 0.  0.
          5    1    3    3  502    0  0.26007416795E+02 -0.30380105657E+02 -0.25261142575E+03  0.25580062347E+03  0.47000000000E+01 0. -1.
         -5    1    3    3    0  502 -0.30479305148E+02  0.39546329681E+02 -0.42331300602E+03  0.42627325896E+03  0.47000000000E+01 0.  1.
          5    1    4    4  503    0  0.11584017967E+02 -0.44835170437E+02 -0.11756056499E+03  0.12643954453E+03  0.47000000000E+01 0. -1.
         -5    1    4    4    0  503 -0.71121296151E+01  0.35668946414E+02 -0.23857233487E+02  0.43750585317E+02  0.47000000000E+01 0.  1.
<mgrwt>
<rscale>  0 0.93850324E+02</rscale>
<asrwt>0</asrwt>
<pdfrwt beam="1">  1        1 0.12843125E+00 0.94687309E+02</pdfrwt>
<pdfrwt beam="2">  1       -1 0.26862909E-02 0.94687309E+02</pdfrwt>
<totfact> 0.90055486E+03</totfact>
</mgrwt>
</event>
<event>
 8    1  0.3400573E-004  0.9690281E+02  0.7546771E-02  0.1287124E+00
          1   -1    0    0  501    0  0.00000000000E+00  0.00000000000E+00  0.18128938296E+02  0.18128938296E+02  0.00000000000E+00 0. -1.
         -1   -1    0    0    0  501 -0.00000000000E+00 -0.00000000000E+00 -0.64995368789E+03  0.64995368789E+03  0.00000000000E+00 0.  1.
         23    2    1    2    0    0 -0.32835918041E+02 -0.17807254134E+01 -0.16398669272E+03  0.19031427012E+03  0.90810338213E+02 0.  0.
         23    2    1    2    0    0  0.32835918041E+02  0.17807254134E+01 -0.46783805688E+03  0.47776835607E+03  0.91152543019E+02 0.  0.
          5    1    4    4  502    0  0.52184743143E+02 -0.25795496205E+02 -0.22052147316E+03  0.22812379351E+03  0.47000000000E+01 0. -1.
         -5    1    3    3    0  503 -0.10499757662E+02  0.29144994610E+02 -0.14325737726E+03  0.14664392848E+03  0.47000000000E+01 0.  1.
          5    1    3    3  503    0 -0.22336160378E+02 -0.30925720024E+02 -0.20729315462E+02  0.43670341640E+02  0.47000000000E+01 0. -1.
         -5    1    4    4    0  502 -0.19348825102E+02  0.27576221618E+02 -0.24731658372E+03  0.24964456256E+03  0.47000000000E+01 0.  1.
<mgrwt>
<rscale>  0 0.96822253E+02</rscale>
<asrwt>0</asrwt>
<pdfrwt beam="1">  1        1 0.27890679E-02 0.96902810E+02</pdfrwt>
<pdfrwt beam="2">  1       -1 0.99992858E-01 0.96902810E+02</pdfrwt>
<totfact> 0.35720267E+03</totfact>
</mgrwt>
</event>
<event>
 8    1  0.3400573E-004  0.9939990E+02  0.7546771E-02  0.1282244E+00
         -2   -1    0    0    0  501 -0.00000000000E+00  0.00000000000E+00  0.82801399629E+01  0.82801399629E+01  0.00000000000E+00 0.  1.
          2   -1    0    0  501    0  0.00000000000E+00 -0.00000000000E+00 -0.11843538929E+04  0.11843538929E+04  0.00000000000E+00 0. -1.
         23    2    1    2    0    0  0.11857884134E+02  0.37394405396E+02 -0.54051385420E+03  0.54934815133E+03  0.89940056817E+02 0.  0.
         23    2    1    2    0    0 -0.11857884134E+02 -0.37394405396E+02 -0.63555989878E+03  0.64328588157E+03  0.91331207821E+02 0.  0.
          5    1    3    3  502    0  0.41980362129E+02  0.48155375303E+02 -0.40476168277E+03  0.40979922013E+03  0.47000000000E+01 0. -1.
         -5    1    4    4    0  503 -0.38756530012E+02  0.12728278461E+02 -0.31758837257E+03  0.32023201290E+03  0.47000000000E+01 0.  1.
          5    1    4    4  503    0  0.26898645878E+02 -0.50122683857E+02 -0.31797152621E+03  0.32305386868E+03  0.47000000000E+01 0. -1.
         -5    1    3    3    0  502 -0.30122477995E+02 -0.10760969907E+02 -0.13575217142E+03  0.13954893120E+03  0.47000000000E+01 0.  1.
<mgrwt>
<rscale>  0 0.99079181E+02</rscale>
<asrwt>0</asrwt>
<pdfrwt beam="1">  1        2 0.18220836E+00 0.99399902E+02</pdfrwt>
<pdfrwt beam="2">  1       -2 0.12738672E-02 0.99399902E+02</pdfrwt>
<totfact> 0.28369791E+04</totfact>
</mgrwt>
</event>
<event>
 8    1  0.3400573E-004  0.1352459E+03  0.7546771E-02  0.1230987E+00
         -2   -1    0    0    0  501 -0.00000000000E+00  0.00000000000E+00  0.60117151653E+02  0.60117151653E+02  0.00000000000E+00 0.  1.
          2   -1    0    0  501    0  0.00000000000E+00 -0.00000000000E+00 -0.24808362135E+03  0.24808362135E+03  0.00000000000E+00 0. -1.
         23    2    1    2    0    0 -0.50258801305E+02  0.27009625043E+02 -0.86745204004E+02  0.16067416784E+03  0.12262133109E+03 0.  0.
         23    2    1    2    0    0  0.50258801305E+02 -0.27009625043E+02 -0.10122126569E+03  0.14752660517E+03  0.90900427113E+02 0.  0.
          5    1    4    4  502    0  0.24197621312E+02  0.26918043498E+02 -0.71989730021E+02  0.80713797900E+02  0.47000000000E+01 0. -1.
         -5    1    3    3    0  503 -0.85675517242E+02  0.42634664814E+02 -0.67400888736E+02  0.11714511813E+03  0.47000000000E+01 0.  1.
          5    1    3    3  503    0  0.35416715937E+02 -0.15625039771E+02 -0.19344315268E+02  0.43529049712E+02  0.47000000000E+01 0. -1.
         -5    1    4    4    0  502  0.26061179993E+02 -0.53927668541E+02 -0.29231535673E+02  0.66812807266E+02  0.47000000000E+01 0.  1.
<mgrwt>
<rscale>  0 0.12764886E+03</rscale>
<asrwt>0</asrwt>
<pdfrwt beam="1">  1        2 0.38166711E-01 0.13524592E+03</pdfrwt>
<pdfrwt beam="2">  1       -2 0.92487926E-02 0.13524592E+03</pdfrwt>
<totfact> 0.95559182E+03</totfact>
</mgrwt>
</event>
<event>
 8    1  0.3400573E-004  0.1235476E+03  0.7546771E-02  0.1239752E+00
          1   -1    0    0  501    0  0.00000000000E+00  0.00000000000E+00  0.34852642554E+03  0.34852642554E+03  0.00000000000E+00 0. -1.
         -1   -1    0    0    0  501 -0.00000000000E+00 -0.00000000000E+00 -0.24081604839E+03  0.24081604839E+03  0.00000000000E+00 0.  1.
         23    2    1    2    0    0  0.47793180582E+01 -0.73331170300E+02 -0.21382558707E+03  0.24695221515E+03  0.99316224566E+02 0.  0.
         23    2    1    2    0    0 -0.47793180582E+01  0.73331170300E+02  0.32153596423E+03  0.34239025878E+03  0.91898915104E+02 0.  0.
          5    1    3    3  502    0 -0.25335757747E+02 -0.19858069015E+01 -0.81005782728E+01  0.27084191293E+02  0.47000000000E+01 0. -1.
         -5    1    4    4    0  503  0.79602088039E+01  0.26832465948E+02  0.15096252218E+02  0.32145497104E+02  0.47000000000E+01 0.  1.
          5    1    4    4  503    0 -0.12739526862E+02  0.46498704352E+02  0.30643971201E+03  0.31024476167E+03  0.47000000000E+01 0. -1.
         -5    1    3    3    0  502  0.30115075805E+02 -0.71345363399E+02 -0.20572500880E+03  0.21986802386E+03  0.47000000000E+01 0.  1.
<mgrwt>
<rscale>  0 0.12205068E+03</rscale>
<asrwt>0</asrwt>
<pdfrwt beam="1">  1        1 0.53619450E-01 0.12354762E+03</pdfrwt>
<pdfrwt beam="2">  1       -1 0.37048623E-01 0.12354762E+03</pdfrwt>
<totfact> 0.51653289E+02</totfact>
</mgrwt>
</event>
<event>
 7    1  0.3400573E-004  0.2188296E+03  0.7546771E-02  0.1155634E+00
         -1   -1    0    0    0  501 -0.00000000000E+00  0.00000000000E+00  0.15478023475E+03  0.15478023475E+03  0.00000000000E+00 0.  1.
          1   -1    0    0  501    0  0.00000000000E+00 -0.00000000000E+00 -0.10226289693E+04  0.10226289693E+04  0.00000000000E+00 0. -1.
         23    2    1    2    0    0 -0.10374747407E+03  0.12390617410E+02  0.11178026791E+03  0.17363663989E+03  0.82084034039E+02 0.  0.
          5    1    3    3  502    0 -0.24679441632E+02  0.35441504679E+02  0.13861678336E+02  0.45600561614E+02  0.47000000000E+01 0. -1.
         -5    1    1    2    0  503  0.14476478164E+02  0.82509039377E+02 -0.28841780262E+03  0.30037348230E+03  0.47000000000E+01 0.  1.
          5    1    1    2  503    0  0.89270995910E+02 -0.94899656787E+02 -0.69121119989E+03  0.70339908190E+03  0.47000000000E+01 0. -1.
         -5    1    3    3    0  502 -0.79068032441E+02 -0.23050887269E+02  0.97918589571E+02  0.12803607828E+03  0.47000000000E+01 0.  1.
<mgrwt>
<rscale>  0 0.19316904E+03</rscale>
<asrwt>0</asrwt>
<pdfrwt beam="1">  1        1 0.15732754E+00 0.21882956E+03</pdfrwt>
<pdfrwt beam="2">  1       -1 0.23812343E-01 0.21882956E+03</pdfrwt>
<totfact> 0.23643847E+02</totfact>
</mgrwt>
</event>
<event>
 7    1  0.3400573E-004  0.1491627E+03  0.7546771E-02  0.1218750E+00
         -2   -1    0    0    0  501 -0.00000000000E+00  0.00000000000E+00  0.32220703593E+02  0.32220703593E+02  0.00000000000E+00 0.  1.
          2   -1    0    0  501    0  0.00000000000E+00 -0.00000000000E+00 -0.54163102239E+03  0.54163102239E+03  0.00000000000E+00 0. -1.
         23    2    1    2    0    0  0.19726855215E+02  0.40025490236E+02 -0.12880885371E+03  0.16506450813E+03  0.93077292419E+02 0.  0.
          5    1    1    2  502    0  0.43149346727E+02 -0.63326035534E+02 -0.25530460536E+03  0.26659817032E+03  0.47000000000E+01 0. -1.
         -5    1    3    3    0  503 -0.71698487799E+01  0.55509471754E+02 -0.35087368333E+02  0.66226290870E+02  0.47000000000E+01 0.  1.
          5    1    3    3  503    0  0.26896703995E+02 -0.15483981517E+02 -0.93721485375E+02  0.98838217256E+02  0.47000000000E+01 0. -1.
         -5    1    1    2    0  502 -0.62876201942E+02  0.23300545298E+02 -0.12529685973E+03  0.14218904754E+03  0.47000000000E+01 0.  1.
<mgrwt>
<rscale>  0 0.13604644E+03</rscale>
<asrwt>0</asrwt>
<pdfrwt beam="1">  1        2 0.83327854E-01 0.14916271E+03</pdfrwt>
<pdfrwt beam="2">  1       -2 0.49570311E-02 0.14916271E+03</pdfrwt>
<totfact> 0.10804661E+04</totfact>
</mgrwt>
</event>
<event>
 8    1  0.3400573E-004  0.9046818E+02  0.7546771E-02  0.1302540E+00
          2   -1    0    0  501    0  0.00000000000E+00  0.00000000000E+00  0.25386125095E+03  0.25386125095E+03  0.00000000000E+00 0. -1.
         -2   -1    0    0    0  501 -0.00000000000E+00 -0.00000000000E+00 -0.31782659945E+02  0.31782659945E+02  0.00000000000E+00 0.  1.
         23    2    1    2    0    0  0.14476564465E+01  0.94168651103E+01  0.10644887844E+03  0.13882864864E+03  0.88607318574E+02 0.  0.
         23    2    1    2    0    0 -0.14476564465E+01 -0.94168651103E+01  0.11562971257E+03  0.14681526226E+03  0.89965091813E+02 0.  0.
          5    1    4    4  502    0  0.36410222098E+02  0.20306708800E+02  0.49473171510E+02  0.64867182726E+02  0.47000000000E+01 0. -1.
         -5    1    4    4    0  502 -0.37857878545E+02 -0.29723573910E+02  0.66156541058E+02  0.81948079530E+02  0.47000000000E+01 0.  1.
          5    1    3    3  503    0  0.41470217454E+02 -0.54310821195E+00  0.78125192941E+02  0.88576010716E+02  0.47000000000E+01 0. -1.
         -5    1    3    3    0  503 -0.40022561008E+02  0.99599733222E+01  0.28323685494E+02  0.50252637923E+02  0.47000000000E+01 0.  1.
<mgrwt>
<rscale>  0 0.90128743E+02</rscale>
<asrwt>0</asrwt>
<pdfrwt beam="1">  1        2 0.39055576E-01 0.90468176E+02</pdfrwt>
<pdfrwt beam="2">  1       -2 0.48896401E-02 0.90468176E+02</pdfrwt>
<totfact> 0.23670751E+04</totfact>
</mgrwt>
</event>
<event>
 8    1  0.3400573E-004  0.9727186E+02  0.7546771E-02  0.1286608E+00
         -2   -1    0    0    0  501 -0.00000000000E+00  0.00000000000E+00  0.39605904394E+03  0.39605904394E+03  0.00000000000E+00 0.  1.
          2   -1    0    0  501    0  0.00000000000E+00 -0.00000000000E+00 -0.28744032347E+02  0.28744032347E+02  0.00000000000E+00 0. -1.
         23    2    1    2    0    0 -0.26795231959E+00  0.36049365437E+02  0.93841475039E+02  0.13454527817E+03  0.89423603673E+02 0.  0.
         23    2    1    2    0    0  0.26795231959E+00 -0.36049365437E+02  0.27347353656E+03  0.29025779812E+03  0.90344815152E+02 0.  0.
          5    1    4    4  502    0 -0.13012367452E+02  0.28212845621E+02  0.93270186618E+02  0.98421055047E+02  0.47000000000E+01 0. -1.
         -5    1    4    4    0  502  0.13280319771E+02 -0.64262211058E+02  0.18020334994E+03  0.19183674307E+03  0.47000000000E+01 0.  1.
          5    1    3    3  503    0  0.43259334828E+02  0.16177281733E+02  0.32795838044E+02  0.56839523987E+02  0.47000000000E+01 0. -1.
         -5    1    3    3    0  503 -0.43527287148E+02  0.19872083704E+02  0.61045636994E+02  0.77705754184E+02  0.47000000000E+01 0.  1.
<mgrwt>
<rscale>  0 0.97057398E+02</rscale>
<asrwt>0</asrwt>
<pdfrwt beam="1">  1        2 0.44221591E-02 0.97271857E+02</pdfrwt>
<pdfrwt beam="2">  1       -2 0.60932157E-01 0.97271857E+02</pdfrwt>
<totfact> 0.43799930E+03</totfact>
</mgrwt>
</event>
<event>
 8    1  0.3400573E-004  0.1094145E+03  0.7546771E-02  0.1268874E+00
          1   -1    0    0  501    0  0.00000000000E+00  0.00000000000E+00  0.29813225860E+02  0.29813225860E+02  0.00000000000E+00 0. -1.
         -1   -1    0    0    0  501 -0.00000000000E+00 -0.00000000000E+00 -0.35268560607E+03  0.35268560607E+03  0.00000000000E+00 0.  1.
         23    2    1    2    0    0 -0.13336309597E+02 -0.32104704881E+02 -0.15804571419E+03  0.19222380029E+03  0.10374474634E+03 0.  0.
         23    2    1    2    0    0  0.13336309597E+02  0.32104704881E+02 -0.16482666601E+03  0.19027503164E+03  0.88477051296E+02 0.  0.
          5    1    3    3  502    0 -0.36055694961E+02  0.20576488447E+02 -0.28814691853E+02  0.50752157418E+02  0.47000000000E+01 0. -1.
         -5    1    4    4    0  503  0.35697448614E+02 -0.13989903762E+02 -0.41751735735E+02  0.56879896991E+02  0.47000000000E+01 0.  1.
          5    1    4    4  503    0 -0.22361139017E+02  0.46094608643E+02 -0.12307493028E+03  0.13339513465E+03  0.47000000000E+01 0. -1.
         -5    1    3    3    0  502  0.22719385365E+02 -0.52681193328E+02 -0.12923102234E+03  0.14147164287E+03  0.47000000000E+01 0.  1.
<mgrwt>
<rscale>  0 0.10563501E+03</rscale>
<asrwt>0</asrwt>
<pdfrwt beam="1">  1        1 0.45866502E-02 0.10941454E+03</pdfrwt>
<pdfrwt beam="2">  1       -1 0.54259323E-01 0.10941454E+03</pdfrwt>
<totfact> 0.61799333E+03</totfact>
</mgrwt>
</event>
<event>
 8    1  0.3400573E-004  0.1083018E+03  0.7546771E-02  0.1265913E+00
          2   -1    0    0  501    0  0.00000000000E+00  0.00000000000E+00  0.25010785454E+03  0.25010785454E+03  0.00000000000E+00 0. -1.
         -2   -1    0    0    0  501 -0.00000000000E+00 -0.00000000000E+00 -0.47610103128E+02  0.47610103128E+02  0.00000000000E+00 0.  1.
         23    2    1    2    0    0  0.96565734908E+01 -0.55272019915E+02  0.68273839703E+02  0.12802578862E+03  0.92633901824E+02 0.  0.
         23    2    1    2    0    0 -0.96565734908E+01  0.55272019915E+02  0.13422391171E+03  0.16969216904E+03  0.87356328701E+02 0.  0.
          5    1    4    4  502    0  0.94763019018E+01 -0.18269664446E+02  0.85946387428E+01  0.22793392723E+02  0.47000000000E+01 0. -1.
         -5    1    3    3    0  503 -0.12930131673E+02  0.19211678028E+02 -0.11025770052E+01  0.23655497327E+02  0.47000000000E+01 0.  1.
          5    1    3    3  503    0  0.22586705164E+02 -0.74483697943E+02  0.69376416709E+02  0.10437029129E+03  0.47000000000E+01 0. -1.
         -5    1    4    4    0  502 -0.19132875393E+02  0.73541684361E+02  0.12562927296E+03  0.14689877632E+03  0.47000000000E+01 0.  1.
<mgrwt>
<rscale>  0 0.10716452E+03</rscale>
<asrwt>0</asrwt>
<pdfrwt beam="1">  1        2 0.38478131E-01 0.10830183E+03</pdfrwt>
<pdfrwt beam="2">  1       -2 0.73246314E-02 0.10830183E+03</pdfrwt>
<totfact> 0.13332235E+04</totfact>
</mgrwt>
</event>
<event>
 8    1  0.3400573E-004  0.1128137E+03  0.7546771E-02  0.1257942E+00
         -2   -1    0    0    0  501 -0.00000000000E+00  0.00000000000E+00  0.24732176728E+02  0.24732176728E+02  0.00000000000E+00 0.  1.
          2   -1    0    0  501    0  0.00000000000E+00 -0.00000000000E+00 -0.49284297214E+03  0.49284297214E+03  0.00000000000E+00 0. -1.
         23    2    1    2    0    0 -0.60160935191E+02  0.12832718562E+01 -0.24753252499E+03  0.26982183455E+03  0.88940916128E+02 0.  0.
         23    2    1    2    0    0  0.60160935191E+02 -0.12832718562E+01 -0.22057827042E+03  0.24775331431E+03  0.95425082994E+02 0.  0.
          5    1    4    4  502    0  0.27672234184E+02 -0.33287745078E+02 -0.18406062833E+03  0.18914077144E+03  0.47000000000E+01 0. -1.
         -5    1    4    4    0  502  0.32488701007E+02  0.32004473221E+02 -0.36517642081E+02  0.58612542876E+02  0.47000000000E+01 0.  1.
          5    1    3    3  503    0  0.29265588305E+01  0.29790150030E+02 -0.12865617504E+03  0.13217609149E+03  0.47000000000E+01 0.  1.
         -5    1    3    3    0  503 -0.63087494021E+02 -0.28506878173E+02 -0.11887634995E+03  0.13764574306E+03  0.47000000000E+01 0. -1.
<mgrwt>
<rscale>  0 0.11143124E+03</rscale>
<asrwt>0</asrwt>
<pdfrwt beam="1">  1        2 0.75821987E-01 0.11281370E+03</pdfrwt>
<pdfrwt beam="2">  1       -2 0.38049507E-02 0.11281370E+03</pdfrwt>
<totfact> 0.17399165E+04</totfact>
</mgrwt>
</event>
<event>
 8    1  0.3400573E-004  0.1051356E+03  0.7546771E-02  0.1271093E+00
         -3   -1    0    0    0  501 -0.00000000000E+00  0.00000000000E+00  0.31869302093E+02  0.31869302093E+02  0.00000000000E+00 0.  1.
          3   -1    0    0  501    0  0.00000000000E+00 -0.00000000000E+00 -0.34547769825E+03  0.34547769825E+03  0.00000000000E+00 0. -1.
         23    2    1    2    0    0 -0.36479790764E+02  0.38588943132E+02 -0.12848111861E+03  0.16444889372E+03  0.87841670879E+02 0.  0.
         23    2    1    2    0    0  0.36479790764E+02 -0.38588943132E+02 -0.18512727755E+03  0.21289810662E+03  0.90739259651E+02 0.  0.
          5    1    4    4  502    0  0.66584815588E+02 -0.21113728230E+02 -0.12308337695E+03  0.14160132368E+03  0.47000000000E+01 0. -1.
         -5    1    4    4    0  502 -0.30105024824E+02 -0.17475214901E+02 -0.62043900598E+02  0.71296782935E+02  0.47000000000E+01 0.  1.
          5    1    3    3  503    0  0.16908309106E+01 -0.25739775863E+02 -0.21950712172E+02  0.34195302828E+02  0.47000000000E+01 0. -1.
         -5    1    3    3    0  503 -0.38170621674E+02  0.64328718994E+02 -0.10653040643E+03  0.13025359090E+03  0.47000000000E+01 0.  1.
<mgrwt>
<rscale>  0 0.10450740E+03</rscale>
<asrwt>0</asrwt>
<pdfrwt beam="1">  1        3 0.53150418E-01 0.10513560E+03</pdfrwt>
<pdfrwt beam="2">  1       -3 0.49029693E-02 0.10513560E+03</pdfrwt>
<totfact> 0.18206537E+03</totfact>
</mgrwt>
</event>
<event>
 8    1  0.3400573E-004  0.9518351E+02  0.7546771E-02  0.1290862E+00
         -3   -1    0    0    0  501 -0.00000000000E+00  0.00000000000E+00  0.13459862099E+03  0.13459862099E+03  0.00000000000E+00 0.  1.
          3   -1    0    0  501    0  0.00000000000E+00 -0.00000000000E+00 -0.16276093724E+03  0.16276093724E+03  0.00000000000E+00 0. -1.
         23    2    1    2    0    0 -0.11562197518E+02  0.19223827658E+02 -0.12800832548E+03  0.15941346200E+03  0.92321614555E+02 0.  0.
         23    2    1    2    0    0  0.11562197518E+02 -0.19223827658E+02  0.99846009224E+02  0.13794609623E+03  0.92502215890E+02 0.  0.
          5    1    4    4  502    0  0.42729301807E+02 -0.10794139947E+02  0.14591652118E+02  0.46661686657E+02  0.47000000000E+01 0. -1.
         -5    1    3    3    0  503  0.12323568287E+02  0.47274364021E+02 -0.10451688825E+03  0.11546690330E+03  0.47000000000E+01 0.  1.
          5    1    3    3  503    0 -0.23885765804E+02 -0.28050536364E+02 -0.23491437229E+02  0.43946558699E+02  0.47000000000E+01 0. -1.
         -5    1    4    4    0  502 -0.31167104289E+02 -0.84296877110E+01  0.85254357107E+02  0.91284409569E+02  0.47000000000E+01 0.  1.
<mgrwt>
<rscale>  0 0.95139600E+02</rscale>
<asrwt>0</asrwt>
<pdfrwt beam="1">  1        3 0.25040144E-01 0.95183506E+02</pdfrwt>
<pdfrwt beam="2">  1       -3 0.20707480E-01 0.95183506E+02</pdfrwt>
<totfact> 0.68995733E+02</totfact>
</mgrwt>
</event>
<event>
 8    1  0.3400573E-004  0.1276708E+03  0.7546771E-02  0.1231590E+00
         -1   -1    0    0    0  501 -0.00000000000E+00  0.00000000000E+00  0.32965282379E+02  0.32965282379E+02  0.00000000000E+00 0.  1.
          1   -1    0    0  501    0  0.00000000000E+00 -0.00000000000E+00 -0.50659460240E+03  0.50659460240E+03  0.00000000000E+00 0. -1.
         23    2    1    2    0    0  0.50370159968E+01 -0.89058029325E+02 -0.18367089208E+03  0.22273860844E+03  0.88998803205E+02 0.  0.
         23    2    1    2    0    0 -0.50370159968E+01  0.89058029325E+02 -0.28995842794E+03  0.31682127634E+03  0.91340719800E+02 0.  0.
          5    1    4    4  502    0 -0.18940749605E+02  0.15058241383E+02 -0.18998447668E+03  0.19157686188E+03  0.47000000000E+01 0. -1.
         -5    1    3    3    0  503 -0.30844094626E+02 -0.72965815651E+02 -0.15402994287E+03  0.17327054489E+03  0.47000000000E+01 0.  1.
          5    1    3    3  503    0  0.35881110623E+02 -0.16092213674E+02 -0.29640949214E+02  0.49468063544E+02  0.47000000000E+01 0. -1.
         -5    1    4    4    0  502  0.13903733608E+02  0.73999787941E+02 -0.99973951261E+02  0.12524441446E+03  0.47000000000E+01 0.  1.
<mgrwt>
<rscale>  0 0.12725252E+03</rscale>
<asrwt>0</asrwt>
<pdfrwt beam="1">  1        1 0.77937629E-01 0.12767079E+03</pdfrwt>
<pdfrwt beam="2">  1       -1 0.50715820E-02 0.12767079E+03</pdfrwt>
<totfact> 0.72921322E+03</totfact>
</mgrwt>
</event>
<event>
 8    1  0.3400573E-004  0.9830959E+02  0.7546771E-02  0.1284186E+00
         -2   -1    0    0    0  501 -0.00000000000E+00  0.00000000000E+00  0.28045392454E+02  0.28045392454E+02  0.00000000000E+00 0.  1.
          2   -1    0    0  501    0  0.00000000000E+00 -0.00000000000E+00 -0.76006378292E+03  0.76006378292E+03  0.00000000000E+00 0. -1.
         23    2    1    2    0    0  0.21595336067E+02 -0.24563750130E+02 -0.65847362457E+03  0.66577195068E+03  0.92709436904E+02 0.  0.
         23    2    1    2    0    0 -0.21595336067E+02  0.24563750130E+02 -0.73544765897E+02  0.12233722470E+03  0.92129406794E+02 0.  0.
          5    1    3    3  502    0  0.35404429127E+02 -0.50929333770E+02 -0.53813783664E+03  0.54172104617E+03  0.47000000000E+01 0. -1.
         -5    1    4    4    0  503 -0.42327961750E+02 -0.20695845780E+02 -0.30193145282E+02  0.56157727879E+02  0.47000000000E+01 0.  1.
          5    1    4    4  503    0  0.20732625683E+02  0.45259595910E+02 -0.43351620615E+02  0.66179496822E+02  0.47000000000E+01 0. -1.
         -5    1    3    3    0  502 -0.13809093060E+02  0.26365583640E+02 -0.12033578794E+03  0.12405090451E+03  0.47000000000E+01 0.  1.
<mgrwt>
<rscale>  0 0.98172607E+02</rscale>
<asrwt>0</asrwt>
<pdfrwt beam="1">  1        2 0.11693289E+00 0.98309593E+02</pdfrwt>
<pdfrwt beam="2">  1       -2 0.43146756E-02 0.98309593E+02</pdfrwt>
<totfact> 0.87390755E+03</totfact>
</mgrwt>
</event>
<event>
 8    1  0.3400573E-004  0.1110005E+03  0.7546771E-02  0.1262290E+00
         -2   -1    0    0    0  501 -0.00000000000E+00  0.00000000000E+00  0.33948659024E+02  0.33948659024E+02  0.00000000000E+00 0.  1.
          2   -1    0    0  501    0  0.00000000000E+00 -0.00000000000E+00 -0.40623129443E+03  0.40623129443E+03  0.00000000000E+00 0. -1.
         23    2    1    2    0    0 -0.33398959190E+02  0.40676031155E+02 -0.10196589485E+03  0.15072544177E+03  0.97729653122E+02 0.  0.
         23    2    1    2    0    0  0.33398959190E+02 -0.40676031155E+02 -0.27031674056E+03  0.28945451169E+03  0.89122074272E+02 0.  0.
          5    1    3    3  502    0  0.33075817788E+02  0.26502696593E+02 -0.43972912765E+02  0.61254466825E+02  0.47000000000E+01 0. -1.
         -5    1    3    3    0  502 -0.66474776978E+02  0.14173334562E+02 -0.57992982085E+02  0.89470974947E+02  0.47000000000E+01 0.  1.
          5    1    4    4  503    0  0.19089111189E+02  0.27377911508E+02 -0.94059509709E+02  0.99916092654E+02  0.47000000000E+01 0. -1.
         -5    1    4    4    0  503  0.14309848001E+02 -0.68053942663E+02 -0.17625723085E+03  0.18953841903E+03  0.47000000000E+01 0.  1.
<mgrwt>
<rscale>  0 0.10907658E+03</rscale>
<asrwt>0</asrwt>
<pdfrwt beam="1">  1        2 0.62497126E-01 0.11100052E+03</pdfrwt>
<pdfrwt beam="2">  1       -2 0.52228703E-02 0.11100052E+03</pdfrwt>
<totfact> 0.13355087E+04</totfact>
</mgrwt>
</event>
<event>
 8    1  0.3400573E-004  0.9187850E+02  0.7546771E-02  0.1298853E+00
          1   -1    0    0  501    0  0.00000000000E+00  0.00000000000E+00  0.93202821094E+03  0.93202821094E+03  0.00000000000E+00 0. -1.
         -1   -1    0    0    0  501 -0.00000000000E+00 -0.00000000000E+00 -0.11172517892E+02  0.11172517892E+02  0.00000000000E+00 0.  1.
         23    2    1    2    0    0 -0.24310551024E+02  0.74340675734E+01  0.66785249499E+03  0.67403112274E+03  0.87434152995E+02 0.  0.
         23    2    1    2    0    0  0.24310551024E+02 -0.74340675734E+01  0.25300319805E+03  0.26916960608E+03  0.88291507875E+02 0.  0.
          5    1    4    4  502    0 -0.29588954289E+02 -0.12173859920E+02  0.54516340521E+02  0.63386358667E+02  0.47000000000E+01 0. -1.
         -5    1    4    4    0  502  0.53899505314E+02  0.47397923467E+01  0.19848685753E+03  0.20578324742E+03  0.47000000000E+01 0.  1.
          5    1    3    3  503    0 -0.23671230581E+02 -0.38190969581E+02  0.32722615964E+03  0.33033002720E+03  0.47000000000E+01 0. -1.
         -5    1    3    3    0  503 -0.63932044370E+00  0.45625037155E+02  0.34062633535E+03  0.34370109554E+03  0.47000000000E+01 0.  1.
<mgrwt>
<rscale>  0 0.91671910E+02</rscale>
<asrwt>0</asrwt>
<pdfrwt beam="1">  1        1 0.14338889E+00 0.91878499E+02</pdfrwt>
<pdfrwt beam="2">  1       -1 0.17188496E-02 0.91878499E+02</pdfrwt>
<totfact> 0.14340631E+04</totfact>
</mgrwt>
</event>
<event>
 8    1  0.3400573E-004  0.9766702E+02  0.7546771E-02  0.1286506E+00
         -1   -1    0    0    0  501 -0.00000000000E+00  0.00000000000E+00  0.53961263043E+03  0.53961263043E+03  0.00000000000E+00 0.  1.
          1   -1    0    0  501    0  0.00000000000E+00 -0.00000000000E+00 -0.17414667622E+02  0.17414667622E+02  0.00000000000E+00 0. -1.
         23    2    1    2    0    0 -0.79851575714E+01  0.24942520329E+02  0.28899200653E+03  0.30504954824E+03  0.94090142850E+02 0.  0.
         23    2    1    2    0    0  0.79851575714E+01 -0.24942520329E+02  0.23320595628E+03  0.25197774981E+03  0.91770781271E+02 0.  0.
          5    1    3    3  502    0 -0.30715587912E+02 -0.12913383547E+02  0.22289949727E+03  0.22542510663E+03  0.47000000000E+01 0.  1.
         -5    1    4    4    0  503  0.42469030543E+02 -0.38989451660E+02  0.13702606760E+03  0.14873476090E+03  0.47000000000E+01 0.  1.
          5    1    4    4  503    0 -0.34483872971E+02  0.14046931331E+02  0.96179888674E+02  0.10324298892E+03  0.47000000000E+01 0. -1.
         -5    1    3    3    0  502  0.22730430340E+02  0.37855903876E+02  0.66092509261E+02  0.79624441613E+02  0.47000000000E+01 0. -1.
<mgrwt>
<rscale>  0 0.97104075E+02</rscale>
<asrwt>0</asrwt>
<pdfrwt beam="1">  1        1 0.26791800E-02 0.97667021E+02</pdfrwt>
<pdfrwt beam="2">  1       -1 0.83017315E-01 0.97667021E+02</pdfrwt>
<totfact> 0.55966878E+03</totfact>
</mgrwt>
</event>
<event>
 8    1  0.3400573E-004  0.1010063E+03  0.7546771E-02  0.1279728E+00
          2   -1    0    0  501    0  0.00000000000E+00  0.00000000000E+00  0.87798692283E+03  0.87798692283E+03  0.00000000000E+00 0. -1.
         -2   -1    0    0    0  501 -0.00000000000E+00 -0.00000000000E+00 -0.82376150916E+02  0.82376150916E+02  0.00000000000E+00 0.  1.
         23    2    1    2    0    0 -0.38289560175E+02 -0.17568625345E+02 -0.49056935822E+02  0.10967758430E+03  0.88588049598E+02 0.  0.
         23    2    1    2    0    0  0.38289560175E+02  0.17568625345E+02  0.84466770773E+03  0.85068548944E+03  0.91801516554E+02 0.  0.
          5    1    3    3  502    0 -0.31861013840E+02  0.18728485789E+02  0.11183296820E+02  0.38897769996E+02  0.47000000000E+01 0. -1.
         -5    1    4    4    0  503 -0.29648281261E+02  0.10668079657E+02  0.31697432266E+03  0.31857124750E+03  0.47000000000E+01 0.  1.
          5    1    4    4  503    0  0.67937841436E+02  0.69005456882E+01  0.52769338507E+03  0.53211424194E+03  0.47000000000E+01 0. -1.
         -5    1    3    3    0  502 -0.64285463345E+01 -0.36297111134E+02 -0.60240232642E+02  0.70779814308E+02  0.47000000000E+01 0.  1.
<mgrwt>
<rscale>  0 0.10027040E+03</rscale>
<asrwt>0</asrwt>
<pdfrwt beam="1">  1        2 0.13507490E+00 0.10100626E+03</pdfrwt>
<pdfrwt beam="2">  1       -2 0.12673255E-01 0.10100626E+03</pdfrwt>
<totfact> 0.14108798E+03</totfact>
</mgrwt>
</event>
<event>
 8    1  0.3400573E-004  0.9398450E+02  0.7546771E-02  0.1293661E+00
          3   -1    0    0  501    0  0.00000000000E+00  0.00000000000E+00  0.45325171687E+03  0.45325171687E+03  0.00000000000E+00 0. -1.
         -3   -1    0    0    0  501 -0.00000000000E+00 -0.00000000000E+00 -0.19593900113E+02  0.19593900113E+02  0.00000000000E+00 0.  1.
         23    2    1    2    0    0 -0.15957024990E+02 -0.53556691568E+01  0.23929598551E+03  0.25709075191E+03  0.92464999850E+02 0.  0.
         23    2    1    2    0    0  0.15957024990E+02  0.53556691568E+01  0.19436183125E+03  0.21575486507E+03  0.92142989526E+02 0.  0.
          5    1    4    4  502    0  0.37092549509E+02  0.41226263349E+01  0.18993089853E+03  0.19361996150E+03  0.47000000000E+01 0. -1.
         -5    1    4    4    0  502 -0.21135524519E+02  0.12330428219E+01  0.44309327181E+01  0.22134903570E+02  0.47000000000E+01 0.  1.
          5    1    3    3  503    0  0.86011800882E+01 -0.44997984241E+02  0.13789296148E+03  0.14538004578E+03  0.47000000000E+01 0. -1.
         -5    1    3    3    0  503 -0.24558205078E+02  0.39642315084E+02  0.10140302403E+03  0.11171070613E+03  0.47000000000E+01 0.  1.
<mgrwt>
<rscale>  0 0.93905202E+02</rscale>
<asrwt>0</asrwt>
<pdfrwt beam="1">  1        3 0.69731025E-01 0.93984499E+02</pdfrwt>
<pdfrwt beam="2">  1       -3 0.30144465E-02 0.93984499E+02</pdfrwt>
<totfact> 0.21717536E+03</totfact>
</mgrwt>
</event>
<event>
 8    1  0.3400573E-004  0.9974617E+02  0.7546771E-02  0.1281258E+00
          1   -1    0    0  501    0  0.00000000000E+00  0.00000000000E+00  0.60523113645E+02  0.60523113645E+02  0.00000000000E+00 0. -1.
         -1   -1    0    0    0  501 -0.00000000000E+00 -0.00000000000E+00 -0.25270288096E+03  0.25270288096E+03  0.00000000000E+00 0.  1.
         23    2    1    2    0    0 -0.31425240462E+02  0.67744976101E+01 -0.18911465104E+03  0.21343274282E+03  0.93572137483E+02 0.  0.
         23    2    1    2    0    0  0.31425240462E+02 -0.67744976101E+01 -0.30651162697E+01  0.99793251781E+02  0.94423824363E+02 0.  0.
          5    1    4    4  502    0  0.44187157673E+02  0.87638081726E+01  0.34494135960E+02  0.56931929992E+02  0.47000000000E+01 0. -1.
         -5    1    4    4    0  502 -0.12761917211E+02 -0.15538305783E+02 -0.37559252230E+02  0.42861321790E+02  0.47000000000E+01 0.  1.
          5    1    3    3  503    0  0.30014654913E+02  0.13172334350E+02 -0.39782322575E+02  0.51760149645E+02  0.47000000000E+01 0. -1.
         -5    1    3    3    0  503 -0.61439895376E+02 -0.63978367399E+01 -0.14933232847E+03  0.16167259318E+03  0.47000000000E+01 0.  1.
<mgrwt>
<rscale>  0 0.99544090E+02</rscale>
<asrwt>0</asrwt>
<pdfrwt beam="1">  1        1 0.93112484E-02 0.99746169E+02</pdfrwt>
<pdfrwt beam="2">  1       -1 0.38877366E-01 0.99746169E+02</pdfrwt>
<totfact> 0.43025043E+03</totfact>
</mgrwt>
</event>
<event>
 8    1  0.3400573E-004  0.1681761E+03  0.7546771E-02  0.1179898E+00
         -1   -1    0    0    0  501 -0.00000000000E+00  0.00000000000E+00  0.44020468558E+02  0.44020468558E+02  0.00000000000E+00 0.  1.
          1   -1    0    0  501    0  0.00000000000E+00 -0.00000000000E+00 -0.67252911046E+03  0.67252911046E+03  0.00000000000E+00 0. -1.
         23    2    1    2    0    0 -0.13985510564E+03 -0.12257184886E+02 -0.23569802610E+03  0.28925182664E+03  0.91669899918E+02 0.  0.
         23    2    1    2    0    0  0.13985510564E+03  0.12257184886E+02 -0.39281061580E+03  0.42729775237E+03  0.92593197076E+02 0.  0.
          5    1    4    4  502    0  0.36607594677E+02  0.45356930154E+02 -0.11429780665E+03  0.12838787212E+03  0.47000000000E+01 0. -1.
         -5    1    4    4    0  502  0.10324751097E+03 -0.33099745269E+02 -0.27851280915E+03  0.29890988026E+03  0.47000000000E+01 0.  1.
          5    1    3    3  503    0 -0.11185022964E+03  0.30468000880E+02 -0.15465981031E+03  0.19334042483E+03  0.47000000000E+01 0. -1.
         -5    1    3    3    0  503 -0.28004876002E+02 -0.42725185765E+02 -0.81038215791E+02  0.95911401810E+02  0.47000000000E+01 0.  1.
<mgrwt>
<rscale>  0 0.16804928E+03</rscale>
<asrwt>0</asrwt>
<pdfrwt beam="1">  1        1 0.10346602E+00 0.16817607E+03</pdfrwt>
<pdfrwt beam="2">  1       -1 0.67723797E-02 0.16817607E+03</pdfrwt>
<totfact> 0.32675414E+03</totfact>
</mgrwt>
</event>
<event>
 8    1  0.3400573E-004  0.9674521E+02  0.7546771E-02  0.1288724E+00
          2   -1    0    0  501    0  0.00000000000E+00  0.00000000000E+00  0.27302705070E+03  0.27302705070E+03  0.00000000000E+00 0. -1.
         -2   -1    0    0    0  501 -0.00000000000E+00 -0.00000000000E+00 -0.38565984841E+02  0.38565984841E+02  0.00000000000E+00 0.  1.
         23    2    1    2    0    0 -0.14169151487E+02 -0.22962302985E+02  0.61454460450E+02  0.11461363959E+03  0.92906423131E+02 0.  0.
         23    2    1    2    0    0  0.14169151487E+02  0.22962302985E+02  0.17300660540E+03  0.19697939594E+03  0.90230619531E+02 0.  0.
          5    1    4    4  502    0  0.44218735372E+02  0.39124762829E+02  0.99307142911E+02  0.11562889889E+03  0.47000000000E+01 0. -1.
         -5    1    3    3    0  503 -0.34842198844E+02  0.22383547699E+02  0.10070411509E+02  0.42877793971E+02  0.47000000000E+01 0.  1.
          5    1    3    3  503    0  0.20673047357E+02 -0.45345850684E+02  0.51384048941E+02  0.71735845620E+02  0.47000000000E+01 0. -1.
         -5    1    4    4    0  502 -0.30049583885E+02 -0.16162459844E+02  0.73699462494E+02  0.81350497059E+02  0.47000000000E+01 0. -1.
<mgrwt>
<rscale>  0 0.96097057E+02</rscale>
<asrwt>0</asrwt>
<pdfrwt beam="1">  1        2 0.42004160E-01 0.96745210E+02</pdfrwt>
<pdfrwt beam="2">  1       -2 0.59332286E-02 0.96745210E+02</pdfrwt>
<totfact> 0.16545665E+04</totfact>
</mgrwt>
</event>
<event>
 8    1  0.3400573E-004  0.1112918E+03  0.7546771E-02  0.1258522E+00
          1   -1    0    0  501    0  0.00000000000E+00  0.00000000000E+00  0.68090075964E+02  0.68090075964E+02  0.00000000000E+00 0. -1.
         -1   -1    0    0    0  501 -0.00000000000E+00 -0.00000000000E+00 -0.22401909412E+03  0.22401909412E+03  0.00000000000E+00 0.  1.
         23    2    1    2    0    0  0.39358143347E+02 -0.47497524417E+02 -0.13567027948E+02  0.11140830563E+03  0.91775094887E+02 0.  0.
         23    2    1    2    0    0 -0.39358143347E+02  0.47497524417E+02 -0.14236199021E+03  0.18070086446E+03  0.92632542266E+02 0.  0.
          5    1    4    4  502    0  0.15698574145E+02  0.28167062521E+02 -0.10802498622E+03  0.11283313471E+03  0.47000000000E+01 0. -1.
         -5    1    4    4    0  502 -0.55056717492E+02  0.19330461896E+02 -0.34337003990E+02  0.67867729747E+02  0.47000000000E+01 0.  1.
          5    1    3    3  503    0  0.20416245737E+02 -0.18347883601E+02  0.39175351121E+02  0.48065227120E+02  0.47000000000E+01 0. -1.
         -5    1    3    3    0  503  0.18941897610E+02 -0.29149640815E+02 -0.52742379069E+02  0.63343078506E+02  0.47000000000E+01 0.  1.
<mgrwt>
<rscale>  0 0.11111321E+03</rscale>
<asrwt>0</asrwt>
<pdfrwt beam="1">  1        1 0.10475397E-01 0.11129181E+03</pdfrwt>
<pdfrwt beam="2">  1       -1 0.34464475E-01 0.11129181E+03</pdfrwt>
<totfact> 0.45655986E+03</totfact>
</mgrwt>
</event>
<event>
 8    1  0.3400573E-004  0.9891678E+02  0.7546771E-02  0.1283385E+00
         -2   -1    0    0    0  501 -0.00000000000E+00  0.00000000000E+00  0.43129558935E+02  0.43129558935E+02  0.00000000000E+00 0.  1.
          2   -1    0    0  501    0  0.00000000000E+00 -0.00000000000E+00 -0.31840390322E+03  0.31840390322E+03  0.00000000000E+00 0. -1.
         23    2    1    2    0    0  0.30902709800E+02 -0.24239651228E+02 -0.38215701582E+02  0.10466515177E+03  0.89172955450E+02 0.  0.
         23    2    1    2    0    0 -0.30902709800E+02  0.24239651228E+02 -0.23705864271E+03  0.25686831038E+03  0.90785409803E+02 0.  0.
          5    1    4    4  502    0 -0.22414800117E+02  0.57652502548E+02 -0.17572303629E+03  0.18635157579E+03  0.47000000000E+01 0. -1.
         -5    1    4    4    0  502 -0.84879096835E+01 -0.33412851320E+02 -0.61335606412E+02  0.70516734596E+02  0.47000000000E+01 0.  1.
          5    1    3    3  503    0 -0.26172908178E+02 -0.18494700686E+02 -0.33993155427E+02  0.46954229754E+02  0.47000000000E+01 0. -1.
         -5    1    3    3    0  503  0.57075617978E+02 -0.57449505414E+01 -0.42225461553E+01  0.57710922019E+02  0.47000000000E+01 0.  1.
<mgrwt>
<rscale>  0 0.98545239E+02</rscale>
<asrwt>0</asrwt>
<pdfrwt beam="1">  1        2 0.48985214E-01 0.98916777E+02</pdfrwt>
<pdfrwt beam="2">  1       -2 0.66353170E-02 0.98916777E+02</pdfrwt>
<totfact> 0.11923396E+04</totfact>
</mgrwt>
</event>
<event>
 8    1  0.3400573E-004  0.9511779E+02  0.7546771E-02  0.1294228E+00
         -1   -1    0    0    0  501 -0.00000000000E+00  0.00000000000E+00  0.18621928482E+02  0.18621928482E+02  0.00000000000E+00 0.  1.
          1   -1    0    0  501    0  0.00000000000E+00 -0.00000000000E+00 -0.47164226173E+03  0.47164226173E+03  0.00000000000E+00 0. -1.
         23    2    1    2    0    0 -0.17280494820E+02 -0.19881319250E+02 -0.17674673302E+03  0.19807504486E+03  0.85442573732E+02 0.  0.
         23    2    1    2    0    0  0.17280494820E+02  0.19881319250E+02 -0.27627360024E+03  0.29218914536E+03  0.91397549874E+02 0.  0.
          5    1    4    4  502    0  0.28718528091E+02  0.39624713552E+02 -0.75674654708E+02  0.90241981057E+02  0.47000000000E+01 0. -1.
         -5    1    4    4    0  502 -0.11438033271E+02 -0.19743394302E+02 -0.20059894553E+03  0.20194716430E+03  0.47000000000E+01 0.  1.
          5    1    3    3  503    0 -0.70496840961E+01  0.31528874109E+02 -0.98554020678E+02  0.10382077316E+03  0.47000000000E+01 0. -1.
         -5    1    3    3    0  503 -0.10230810724E+02 -0.51410193359E+02 -0.78192712338E+02  0.94254271691E+02  0.47000000000E+01 0.  1.
<mgrwt>
<rscale>  0 0.93657807E+02</rscale>
<asrwt>0</asrwt>
<pdfrwt beam="1">  1        1 0.72560346E-01 0.95117793E+02</pdfrwt>
<pdfrwt beam="2">  1       -1 0.28649122E-02 0.95117793E+02</pdfrwt>
<totfact> 0.17962321E+04</totfact>
</mgrwt>
</event>
<event>
 8    1  0.3400573E-004  0.1651083E+03  0.7546771E-02  0.1183892E+00
          1   -1    0    0  501    0  0.00000000000E+00  0.00000000000E+00  0.38892998630E+03  0.38892998630E+03  0.00000000000E+00 0. -1.
         -1   -1    0    0    0  501 -0.00000000000E+00 -0.00000000000E+00 -0.95199354261E+02  0.95199354261E+02  0.00000000000E+00 0.  1.
         23    2    1    2    0    0 -0.10141260261E+03 -0.90018326416E+02  0.20369699869E+02  0.16636004889E+03  0.94196210826E+02 0.  0.
         23    2    1    2    0    0  0.10141260261E+03  0.90018326416E+02  0.27336093217E+03  0.31776929167E+03  0.88675297756E+02 0.  0.
          5    1    4    4  502    0  0.70204926902E+02  0.86844446079E+02  0.26063983427E+03  0.28359460994E+03  0.47000000000E+01 0. -1.
         -5    1    3    3    0  503 -0.33170386013E+01 -0.25761124665E+02 -0.28842801882E+02  0.39097768600E+02  0.47000000000E+01 0. -1.
          5    1    3    3  503    0 -0.98095564014E+02 -0.64257201751E+02  0.49212501751E+02  0.12726228029E+03  0.47000000000E+01 0.  1.
         -5    1    4    4    0  502  0.31207675713E+02  0.31738803376E+01  0.12721097896E+02  0.34174681732E+02  0.47000000000E+01 0.  1.
<mgrwt>
<rscale>  0 0.16433123E+03</rscale>
<asrwt>0</asrwt>
<pdfrwt beam="1">  1        1 0.59835382E-01 0.16510827E+03</pdfrwt>
<pdfrwt beam="2">  1       -1 0.14646055E-01 0.16510827E+03</pdfrwt>
<totfact> 0.20671423E+03</totfact>
</mgrwt>
</event>
<event>
 8    1  0.3400573E-004  0.1027445E+03  0.7546771E-02  0.1275810E+00
          1   -1    0    0  501    0  0.00000000000E+00  0.00000000000E+00  0.14959161579E+03  0.14959161579E+03  0.00000000000E+00 0. -1.
         -1   -1    0    0    0  501 -0.00000000000E+00 -0.00000000000E+00 -0.15442322590E+03  0.15442322590E+03  0.00000000000E+00 0.  1.
         23    2    1    2    0    0  0.22245237270E+02 -0.36920226578E+02  0.11065232710E+03  0.14944130866E+03  0.90723831099E+02 0.  0.
         23    2    1    2    0    0 -0.22245237270E+02  0.36920226578E+02 -0.11548393720E+03  0.15457353303E+03  0.93265661680E+02 0.  0.
          5    1    4    4  502    0 -0.43009003505E+01 -0.24706237405E+02 -0.39709118158E+01  0.25821581113E+02  0.47000000000E+01 0. -1.
         -5    1    4    4    0  502 -0.17944336920E+02  0.61626463982E+02 -0.11151302539E+03  0.12875195191E+03  0.47000000000E+01 0.  1.
          5    1    3    3  503    0  0.11435880943E+02  0.23076786421E+02  0.39706052684E+01  0.26479674293E+02  0.47000000000E+01 0.  1.
         -5    1    3    3    0  503  0.10809356327E+02 -0.59997012999E+02  0.10668172183E+03  0.12296163436E+03  0.47000000000E+01 0. -1.
<mgrwt>
<rscale>  0 0.10216421E+03</rscale>
<asrwt>0</asrwt>
<pdfrwt beam="1">  1        1 0.23014095E-01 0.10274452E+03</pdfrwt>
<pdfrwt beam="2">  1       -1 0.23757419E-01 0.10274452E+03</pdfrwt>
<totfact> 0.30707719E+03</totfact>
</mgrwt>
</event>
<event>
 8    1  0.3400573E-004  0.1003738E+03  0.7546771E-02  0.1280937E+00
          1   -1    0    0  501    0  0.00000000000E+00  0.00000000000E+00  0.12130585386E+03  0.12130585386E+03  0.00000000000E+00 0. -1.
         -1   -1    0    0    0  501 -0.00000000000E+00 -0.00000000000E+00 -0.14764511155E+03  0.14764511155E+03  0.00000000000E+00 0.  1.
         23    2    1    2    0    0 -0.77956425641E+01 -0.26149703767E+02  0.77375094779E+02  0.12461954864E+03  0.93800573357E+02 0.  0.
         23    2    1    2    0    0  0.77956425641E+01  0.26149703767E+02 -0.10371435247E+03  0.14433141677E+03  0.96593539676E+02 0.  0.
          5    1    4    4  502    0 -0.38470538258E+02  0.30184063438E+01 -0.76226539290E+02  0.85566748114E+02  0.47000000000E+01 0. -1.
         -5    1    4    4    0  502  0.46266180822E+02  0.23131297423E+02 -0.27487813181E+02  0.58764668652E+02  0.47000000000E+01 0.  1.
          5    1    3    3  503    0  0.17833925322E+02 -0.25824485964E+02  0.90168340145E+02  0.95589604729E+02  0.47000000000E+01 0. -1.
         -5    1    3    3    0  503 -0.25629567886E+02 -0.32521780238E+00 -0.12793245367E+02  0.29029943914E+02  0.47000000000E+01 0.  1.
<mgrwt>
<rscale>  0 0.99695710E+02</rscale>
<asrwt>0</asrwt>
<pdfrwt beam="1">  1        1 0.18662439E-01 0.10037376E+03</pdfrwt>
<pdfrwt beam="2">  1       -1 0.22714633E-01 0.10037376E+03</pdfrwt>
<totfact> 0.42912966E+03</totfact>
</mgrwt>
</event>
<event>
 8    1  0.4008033E-004  0.9972148E+02  0.7546771E-02  0.1282237E+00
         -1   -1    0    0    0  501 -0.00000000000E+00  0.00000000000E+00  0.29332722640E+02  0.29332722640E+02  0.00000000000E+00 0.  1.
          1   -1    0    0  501    0  0.00000000000E+00 -0.00000000000E+00 -0.64701268078E+03  0.64701268078E+03  0.00000000000E+00 0. -1.
         23    2    1    2    0    0 -0.39426840165E+02  0.89541962328E+01 -0.54333912393E+03  0.55196320031E+03  0.88381658462E+02 0.  0.
         23    2    1    2    0    0  0.39426840165E+02 -0.89541962328E+01 -0.74340834212E+02  0.12438220311E+03  0.91157662667E+02 0.  0.
          5    1    3    3  502    0 -0.54164388590E+02  0.35484292660E+02 -0.31971924908E+03  0.32624439344E+03  0.47000000000E+01 0. -1.
         -5    1    3    3    0  502  0.14737548425E+02 -0.26530096427E+02 -0.22361987485E+03  0.22571880688E+03  0.47000000000E+01 0.  1.
          5    1    4    4  503    0 -0.13210233745E+02  0.27338617240E+02 -0.72139481106E+01  0.31560122236E+02  0.47000000000E+01 0. -1.
         -5    1    4    4    0  503  0.52637073910E+02 -0.36292813473E+02 -0.67126886101E+02  0.92822080871E+02  0.47000000000E+01 0.  1.
<mgrwt>
<rscale>  0 0.99082590E+02</rscale>
<asrwt>0</asrwt>
<pdfrwt beam="1">  1        1 0.99540408E-01 0.99721476E+02</pdfrwt>
<pdfrwt beam="2">  1       -1 0.45127268E-02 0.99721476E+02</pdfrwt>
<totfact> 0.61472619E+03</totfact>
</mgrwt>
</event>
<event>
 8    1  0.3400573E-004  0.9753159E+02  0.7546771E-02  0.1288283E+00
         -2   -1    0    0    0  501 -0.00000000000E+00  0.00000000000E+00  0.73331233120E+02  0.73331233120E+02  0.00000000000E+00 0.  1.
          2   -1    0    0  501    0  0.00000000000E+00 -0.00000000000E+00 -0.13450253779E+03  0.13450253779E+03  0.00000000000E+00 0. -1.
         23    2    1    2    0    0  0.33791192817E+02 -0.14207071397E+01 -0.59785726930E+02  0.11029234357E+03  0.86291394620E+02 0.  0.
         23    2    1    2    0    0 -0.33791192817E+02  0.14207071397E+01 -0.13855777390E+01  0.97541427336E+02  0.91479763338E+02 0.  0.
          5    1    4    4  502    0 -0.59383181458E+02 -0.25672330890E+00 -0.22817230571E+02  0.63789843689E+02  0.47000000000E+01 0. -1.
         -5    1    3    3    0  503  0.42270636291E+01 -0.32955177429E+02 -0.57717034435E+02  0.66762698046E+02  0.47000000000E+01 0.  1.
          5    1    3    3  503    0  0.29564129188E+02  0.31534470289E+02 -0.20686924943E+01  0.43529645527E+02  0.47000000000E+01 0. -1.
         -5    1    4    4    0  502  0.25591988641E+02  0.16774304486E+01  0.21431652832E+02  0.33751583647E+02  0.47000000000E+01 0.  1.
<mgrwt>
<rscale>  0 0.96296065E+02</rscale>
<asrwt>0</asrwt>
<pdfrwt beam="1">  1        2 0.20692698E-01 0.97531586E+02</pdfrwt>
<pdfrwt beam="2">  1       -2 0.11281728E-01 0.97531586E+02</pdfrwt>
<totfact> 0.13230638E+04</totfact>
</mgrwt>
</event>
<event>
 8    1  0.3400573E-004  0.1028803E+03  0.7546771E-02  0.1275938E+00
         -1   -1    0    0    0  501 -0.00000000000E+00  0.00000000000E+00  0.35515372051E+02  0.35515372051E+02  0.00000000000E+00 0.  1.
          1   -1    0    0  501    0  0.00000000000E+00 -0.00000000000E+00 -0.43837099090E+03  0.43837099090E+03  0.00000000000E+00 0. -1.
         23    2    1    2    0    0  0.40210962137E+02 -0.58740714721E+01 -0.33763191870E+03  0.35207303619E+03  0.91151983479E+02 0.  0.
         23    2    1    2    0    0 -0.40210962137E+02  0.58740714721E+01 -0.65223700139E+02  0.12181332676E+03  0.94514175254E+02 0.  0.
          5    1    4    4  502    0 -0.20992962685E+01 -0.22791400413E+02 -0.69865738758E+02  0.73669304529E+02  0.47000000000E+01 0. -1.
         -5    1    3    3    0  503  0.62155639105E+02  0.92126722423E+01 -0.29449749584E+03  0.30116284940E+03  0.47000000000E+01 0.  1.
          5    1    3    3  503    0 -0.21944676968E+02 -0.15086743714E+02 -0.43134422863E+02  0.50910186789E+02  0.47000000000E+01 0. -1.
         -5    1    4    4    0  502 -0.38111665869E+02  0.28665471885E+02  0.46420386185E+01  0.48144022228E+02  0.47000000000E+01 0.  1.
<mgrwt>
<rscale>  0 0.10210151E+03</rscale>
<asrwt>0</asrwt>
<pdfrwt beam="1">  1        1 0.67441688E-01 0.10288030E+03</pdfrwt>
<pdfrwt beam="2">  1       -1 0.54639036E-02 0.10288030E+03</pdfrwt>
<totfact> 0.77504041E+03</totfact>
</mgrwt>
</event>
<event>
 8    1  0.3400573E-004  0.9564947E+02  0.7546771E-02  0.1290136E+00
          1   -1    0    0  501    0  0.00000000000E+00  0.00000000000E+00  0.61580242869E+03  0.61580242869E+03  0.00000000000E+00 0. -1.
         -1   -1    0    0    0  501 -0.00000000000E+00 -0.00000000000E+00 -0.11177235020E+03  0.11177235020E+03  0.00000000000E+00 0.  1.
         23    2    1    2    0    0 -0.14215744325E+02 -0.46706354971E+01 -0.86804683841E+02  0.12916606967E+03  0.94471785177E+02 0.  0.
         23    2    1    2    0    0  0.14215744325E+02  0.46706354971E+01  0.59083476233E+03  0.59840870922E+03  0.93719606660E+02 0.  0.
          5    1    3    3  502    0 -0.15925623082E+02  0.36612618395E+02 -0.93821799992E+01  0.41282255242E+02  0.47000000000E+01 0. -1.
         -5    1    3    3    0  502  0.17098787564E+01 -0.41283253892E+02 -0.77422503842E+02  0.87883814429E+02  0.47000000000E+01 0.  1.
          5    1    4    4  503    0  0.43814741976E+02  0.30989721984E+02  0.38433102626E+03  0.38808829180E+03  0.47000000000E+01 0. -1.
         -5    1    4    4    0  503 -0.29598997650E+02 -0.26319086487E+02  0.20650373607E+03  0.21032041742E+03  0.47000000000E+01 0.  1.
<mgrwt>
<rscale>  0 0.95463212E+02</rscale>
<asrwt>0</asrwt>
<pdfrwt beam="1">  1        1 0.94738833E-01 0.95649466E+02</pdfrwt>
<pdfrwt beam="2">  1       -1 0.17195747E-01 0.95649466E+02</pdfrwt>
<totfact> 0.87476861E+02</totfact>
</mgrwt>
</event>
<event>
 8    1  0.3400573E-004  0.1431822E+03  0.7546771E-02  0.1209779E+00
          1   -1    0    0  501    0  0.00000000000E+00  0.00000000000E+00  0.22597968059E+03  0.22597968059E+03  0.00000000000E+00 0. -1.
         -1   -1    0    0    0  501 -0.00000000000E+00 -0.00000000000E+00 -0.96160696530E+02  0.96160696530E+02  0.00000000000E+00 0.  1.
         23    2    1    2    0    0  0.94716756021E+02  0.50910702841E+02  0.22753575711E+02  0.14497880634E+03  0.94540814183E+02 0.  0.
         23    2    1    2    0    0 -0.94716756021E+02 -0.50910702841E+02  0.10706540835E+03  0.17716157078E+03  0.91433347089E+02 0.  0.
          5    1    4    4  502    0 -0.66152828446E+02 -0.22405255464E+02  0.11607317216E+03  0.13554801172E+03  0.47000000000E+01 0. -1.
         -5    1    3    3    0  503  0.91125037966E+02  0.74143315952E+02  0.26999339833E+02  0.12063191201E+03  0.47000000000E+01 0.  1.
          5    1    3    3  503    0  0.35917180546E+01 -0.23232613111E+02 -0.42457641219E+01  0.24346894330E+02  0.47000000000E+01 0. -1.
         -5    1    4    4    0  502 -0.28563927575E+02 -0.28505447377E+02 -0.90077638158E+01  0.41613559060E+02  0.47000000000E+01 0.  1.
<mgrwt>
<rscale>  0 0.14267130E+03</rscale>
<asrwt>0</asrwt>
<pdfrwt beam="1">  1        1 0.34766104E-01 0.14318215E+03</pdfrwt>
<pdfrwt beam="2">  1       -1 0.14793953E-01 0.14318215E+03</pdfrwt>
<totfact> 0.39794194E+03</totfact>
</mgrwt>
</event>
<event>
 8    1  0.3400573E-004  0.1016855E+03  0.7546771E-02  0.1277675E+00
          1   -1    0    0  501    0  0.00000000000E+00  0.00000000000E+00  0.31768819371E+03  0.31768819371E+03  0.00000000000E+00 0. -1.
         -1   -1    0    0    0  501 -0.00000000000E+00 -0.00000000000E+00 -0.48559987273E+02  0.48559987273E+02  0.00000000000E+00 0.  1.
         23    2    1    2    0    0 -0.33706920982E+01 -0.40426097865E+02  0.24073702409E+03  0.26067357248E+03  0.91382523856E+02 0.  0.
         23    2    1    2    0    0  0.33706920982E+01  0.40426097865E+02  0.28391182342E+02  0.10557460850E+03  0.93243271992E+02 0.  0.
          5    1    4    4  502    0  0.21232705735E+02  0.11631253506E+00  0.51261736614E+02  0.55683902181E+02  0.47000000000E+01 0. -1.
         -5    1    3    3    0  503 -0.11980363456E+02  0.20532652482E+02  0.14320655787E+03  0.14524230494E+03  0.47000000000E+01 0.  1.
          5    1    3    3  503    0  0.86096713579E+01 -0.60958750347E+02  0.97530466222E+02  0.11543126754E+03  0.47000000000E+01 0. -1.
         -5    1    4    4    0  502 -0.17862013637E+02  0.40309785330E+02 -0.22870554272E+02  0.49890706321E+02  0.47000000000E+01 0.  1.
<mgrwt>
<rscale>  0 0.10125691E+03</rscale>
<asrwt>0</asrwt>
<pdfrwt beam="1">  1        1 0.48875106E-01 0.10168549E+03</pdfrwt>
<pdfrwt beam="2">  1       -1 0.74707675E-02 0.10168549E+03</pdfrwt>
<totfact> 0.72655532E+03</totfact>
</mgrwt>
</event>
<event>
 8    1  0.3400573E-004  0.9316704E+02  0.7546771E-02  0.1298754E+00
          1   -1    0    0  501    0  0.00000000000E+00  0.00000000000E+00  0.21693425741E+03  0.21693425741E+03  0.00000000000E+00 0. -1.
         -1   -1    0    0    0  501 -0.00000000000E+00 -0.00000000000E+00 -0.57049267561E+02  0.57049267561E+02  0.00000000000E+00 0.  1.
         23    2    1    2    0    0 -0.70630120127E+01 -0.95588323651E+01  0.15822459995E+03  0.18080169135E+03  0.86677391225E+02 0.  0.
         23    2    1    2    0    0  0.70630120127E+01  0.95588323651E+01  0.16603898979E+01  0.93181833623E+02  0.92405842931E+02 0.  0.
          5    1    3    3  502    0 -0.20235695675E+02 -0.44818210847E+02  0.84084988675E+02  0.97521949958E+02  0.47000000000E+01 0. -1.
         -5    1    3    3    0  502  0.13172683663E+02  0.35259378482E+02  0.74139611275E+02  0.83279741389E+02  0.47000000000E+01 0.  1.
          5    1    4    4  503    0  0.10969203743E+02 -0.34291526727E+02 -0.22529284303E+02  0.42730444501E+02  0.47000000000E+01 0. -1.
         -5    1    4    4    0  503 -0.39061917306E+01  0.43850359093E+02  0.24189674201E+02  0.50451389122E+02  0.47000000000E+01 0.  1.
<mgrwt>
<rscale>  0 0.91713738E+02</rscale>
<asrwt>0</asrwt>
<pdfrwt beam="1">  1        1 0.33374501E-01 0.93167039E+02</pdfrwt>
<pdfrwt beam="2">  1       -1 0.87768105E-02 0.93167039E+02</pdfrwt>
<totfact> 0.90430337E+03</totfact>
</mgrwt>
</event>
<event>
 8    1  0.3400573E-004  0.3483283E+03  0.7546771E-02  0.1063458E+00
          1   -1    0    0  501    0  0.00000000000E+00  0.00000000000E+00  0.89626410594E+03  0.89626410594E+03  0.00000000000E+00 0. -1.
         -1   -1    0    0    0  501 -0.00000000000E+00 -0.00000000000E+00 -0.22753651393E+03  0.22753651393E+03  0.00000000000E+00 0.  1.
         23    2    1    2    0    0  0.31505898761E+03  0.11634295714E+03  0.69351658774E+03  0.77607852502E+03  0.92383819922E+02 0.  0.
         23    2    1    2    0    0 -0.31505898761E+03 -0.11634295714E+03 -0.24788995731E+02  0.34772209485E+03  0.86592791804E+02 0.  0.
          5    1    3    3  502    0  0.30031496221E+03  0.13028697597E+03  0.65637502652E+03  0.73349440221E+03  0.47000000000E+01 0. -1.
         -5    1    4    4    0  503 -0.17719142961E+03 -0.10044864360E+03  0.11939125990E+02  0.20408666164E+03  0.47000000000E+01 0.  1.
          5    1    4    4  503    0 -0.13786755800E+03 -0.15894313543E+02 -0.36728121721E+02  0.14363543322E+03  0.47000000000E+01 0. -1.
         -5    1    3    3    0  502  0.14744025397E+02 -0.13944018826E+02  0.37141561220E+02  0.42584122813E+02  0.47000000000E+01 0.  1.
<mgrwt>
<rscale>  0 0.34795498E+03</rscale>
<asrwt>0</asrwt>
<pdfrwt beam="1">  1        1 0.13788678E+00 0.34832832E+03</pdfrwt>
<pdfrwt beam="2">  1       -1 0.35005618E-01 0.34832832E+03</pdfrwt>
<totfact> 0.15016859E+02</totfact>
</mgrwt>
</event>
<event>
 8    1  0.3400573E-004  0.1548412E+03  0.7546771E-02  0.1194811E+00
         -1   -1    0    0    0  501 -0.00000000000E+00  0.00000000000E+00  0.90783387218E+03  0.90783387218E+03  0.00000000000E+00 0.  1.
          1   -1    0    0  501    0  0.00000000000E+00 -0.00000000000E+00 -0.26901334017E+02  0.26901334017E+02  0.00000000000E+00 0. -1.
         23    2    1    2    0    0  0.54589775554E+02  0.11295396238E+03  0.51020163577E+03  0.53318055459E+03  0.90758765070E+02 0.  0.
         23    2    1    2    0    0 -0.54589775554E+02 -0.11295396238E+03  0.37073090240E+03  0.40155465161E+03  0.89811441519E+02 0.  0.
          5    1    4    4  502    0 -0.65058710205E+02 -0.69902762639E+02  0.32028228704E+03  0.33424820925E+03  0.47000000000E+01 0. -1.
         -5    1    4    4    0  502  0.10468934651E+02 -0.43051199737E+02  0.50448615361E+02  0.67306442361E+02  0.47000000000E+01 0.  1.
          5    1    3    3  503    0  0.20397926946E+02  0.29175271001E+02  0.37678345766E+02  0.52048243019E+02  0.47000000000E+01 0. -1.
         -5    1    3    3    0  503  0.34191848607E+02  0.83778691375E+02  0.47252329000E+03  0.48113231157E+03  0.47000000000E+01 0.  1.
<mgrwt>
<rscale>  0 0.15470267E+03</rscale>
<asrwt>0</asrwt>
<pdfrwt beam="1">  1        1 0.41386675E-02 0.15484119E+03</pdfrwt>
<pdfrwt beam="2">  1       -1 0.13966673E+00 0.15484119E+03</pdfrwt>
<totfact> 0.97286736E+02</totfact>
</mgrwt>
</event>
<event>
 8    1  0.3400573E-004  0.9290625E+02  0.7546771E-02  0.1296317E+00
         -2   -1    0    0    0  501 -0.00000000000E+00  0.00000000000E+00  0.33062019807E+02  0.33062019807E+02  0.00000000000E+00 0.  1.
          2   -1    0    0  501    0  0.00000000000E+00 -0.00000000000E+00 -0.60096072685E+03  0.60096072685E+03  0.00000000000E+00 0. -1.
         23    2    1    2    0    0 -0.17513448697E+02 -0.11035438384E+02 -0.52335718350E+03  0.53153956924E+03  0.90570803066E+02 0.  0.
         23    2    1    2    0    0  0.17513448697E+02  0.11035438384E+02 -0.44541523541E+02  0.10248317741E+03  0.89946387070E+02 0.  0.
          5    1    3    3  502    0 -0.45767797690E+02 -0.53203380045E+01 -0.45299131523E+03  0.45535285107E+03  0.47000000000E+01 0. -1.
         -5    1    4    4    0  503  0.39796126738E+02 -0.42968533720E+01  0.99095356064E+01  0.41502813738E+02  0.47000000000E+01 0.  1.
          5    1    4    4  503    0 -0.22282678041E+02  0.15332291756E+02 -0.54451059147E+02  0.60980363671E+02  0.47000000000E+01 0. -1.
         -5    1    3    3    0  502  0.28254348993E+02 -0.57151003796E+01 -0.70365868266E+02  0.76186718175E+02  0.47000000000E+01 0.  1.
<mgrwt>
<rscale>  0 0.92753726E+02</rscale>
<asrwt>0</asrwt>
<pdfrwt beam="1">  1        2 0.92455493E-01 0.92906255E+02</pdfrwt>
<pdfrwt beam="2">  1       -2 0.50864648E-02 0.92906255E+02</pdfrwt>
<totfact> 0.89528596E+03</totfact>
</mgrwt>
</event>
<event>
 8    1  0.3400573E-004  0.1005043E+03  0.7546771E-02  0.1279416E+00
          2   -1    0    0  501    0  0.00000000000E+00  0.00000000000E+00  0.65925035519E+03  0.65925035519E+03  0.00000000000E+00 0. -1.
         -2   -1    0    0    0  501 -0.00000000000E+00 -0.00000000000E+00 -0.18805386918E+02  0.18805386918E+02  0.00000000000E+00 0.  1.
         23    2    1    2    0    0 -0.34280834029E+02  0.23134953516E+02  0.46764277433E+03  0.47832089515E+03  0.91600833462E+02 0.  0.
         23    2    1    2    0    0  0.34280834029E+02 -0.23134953516E+02  0.17280219394E+03  0.19973484697E+03  0.91230527815E+02 0.  0.
          5    1    4    4  502    0  0.18828191829E+02  0.94057342452E+01  0.15964816200E+03  0.16109808899E+03  0.47000000000E+01 0. -1.
         -5    1    3    3    0  503 -0.58794624047E+02 -0.81504898495E+01  0.24681215914E+03  0.25389283212E+03  0.47000000000E+01 0.  1.
          5    1    3    3  503    0  0.24513790018E+02  0.31285443365E+02  0.22083061520E+03  0.22442806303E+03  0.47000000000E+01 0. -1.
         -5    1    4    4    0  502  0.15452642201E+02 -0.32540687761E+02  0.13154031940E+02  0.38636757980E+02  0.47000000000E+01 0.  1.
<mgrwt>
<rscale>  0 0.10041985E+03</rscale>
<asrwt>0</asrwt>
<pdfrwt beam="1">  1        2 0.10142311E+00 0.10050430E+03</pdfrwt>
<pdfrwt beam="2">  1       -2 0.28931369E-02 0.10050430E+03</pdfrwt>
<totfact> 0.18598753E+04</totfact>
</mgrwt>
</event>
<event>
 8    1  0.3400573E-004  0.9795960E+02  0.7546771E-02  0.1288051E+00
          1   -1    0    0  501    0  0.00000000000E+00  0.00000000000E+00  0.13279533158E+03  0.13279533158E+03  0.00000000000E+00 0. -1.
         -1   -1    0    0    0  501 -0.00000000000E+00 -0.00000000000E+00 -0.92230107774E+02  0.92230107774E+02  0.00000000000E+00 0.  1.
         23    2    1    2    0    0 -0.42443974955E+01  0.18858608338E+02  0.78595674170E+02  0.12559205248E+03  0.96033440164E+02 0.  0.
         23    2    1    2    0    0  0.42443974955E+01 -0.18858608338E+02 -0.38030450367E+02  0.99433386869E+02  0.89816597856E+02 0.  0.
          5    1    4    4  502    0 -0.25129917168E+02  0.11802729977E+02  0.14541925884E+02  0.31691872463E+02  0.47000000000E+01 0. -1.
         -5    1    3    3    0  503  0.23137260095E+02  0.22573084317E+02 -0.87855987348E+01  0.33825340877E+02  0.47000000000E+01 0.  1.
          5    1    3    3  503    0 -0.27381657591E+02 -0.37144759791E+01  0.87381272905E+02  0.91766711605E+02  0.47000000000E+01 0. -1.
         -5    1    4    4    0  502  0.29374314664E+02 -0.30661338315E+02 -0.52572376251E+02  0.67741514406E+02  0.47000000000E+01 0.  1.
<mgrwt>
<rscale>  0 0.96401204E+02</rscale>
<asrwt>0</asrwt>
<pdfrwt beam="1">  1        1 0.20430051E-01 0.97959602E+02</pdfrwt>
<pdfrwt beam="2">  1       -1 0.14189247E-01 0.97959602E+02</pdfrwt>
<totfact> 0.80292142E+03</totfact>
</mgrwt>
</event>
<event>
 8    1  0.3400573E-004  0.9365755E+02  0.7546771E-02  0.1294562E+00
          2   -1    0    0  501    0  0.00000000000E+00  0.00000000000E+00  0.83402459726E+03  0.83402459726E+03  0.00000000000E+00 0. -1.
         -2   -1    0    0    0  501 -0.00000000000E+00 -0.00000000000E+00 -0.10491089971E+02  0.10491089971E+02  0.00000000000E+00 0.  1.
         23    2    1    2    0    0 -0.28157055426E+01  0.99220186334E+00  0.43864084722E+03  0.44852818122E+03  0.93609955852E+02 0.  0.
         23    2    1    2    0    0  0.28157055426E+01 -0.99220186334E+00  0.38489266007E+03  0.39598750601E+03  0.93031352144E+02 0.  0.
          5    1    3    3  502    0 -0.45824841055E+01  0.44934386842E+02  0.28695087592E+03  0.29052193286E+03  0.47000000000E+01 0. -1.
         -5    1    3    3    0  502  0.17667785630E+01 -0.43942184978E+02  0.15168997130E+03  0.15800624836E+03  0.47000000000E+01 0.  1.
          5    1    4    4  503    0  0.45024736604E+02  0.72343575067E+01  0.25479043516E+03  0.25888186241E+03  0.47000000000E+01 0. -1.
         -5    1    4    4    0  503 -0.42209031062E+02 -0.82265593700E+01  0.13010222490E+03  0.13710564360E+03  0.47000000000E+01 0.  1.
<mgrwt>
<rscale>  0 0.93512636E+02</rscale>
<asrwt>0</asrwt>
<pdfrwt beam="1">  1        2 0.12831142E+00 0.93657549E+02</pdfrwt>
<pdfrwt beam="2">  1       -2 0.16140145E-02 0.93657549E+02</pdfrwt>
<totfact> 0.32374615E+04</totfact>
</mgrwt>
</event>
<event>
 8    1  0.3400573E-004  0.9625314E+02  0.7546771E-02  0.1290330E+00
          1   -1    0    0  501    0  0.00000000000E+00  0.00000000000E+00  0.15880589201E+03  0.15880589201E+03  0.00000000000E+00 0. -1.
         -1   -1    0    0    0  501 -0.00000000000E+00 -0.00000000000E+00 -0.19976955263E+03  0.19976955263E+03  0.00000000000E+00 0.  1.
         23    2    1    2    0    0  0.13056620477E+02 -0.16100505456E+02 -0.17253782437E+03  0.19757015807E+03  0.93994494015E+02 0.  0.
         23    2    1    2    0    0 -0.13056620477E+02  0.16100505456E+02  0.13157416375E+03  0.16100528656E+03  0.90450207961E+02 0.  0.
          5    1    3    3  502    0 -0.17383899766E+02  0.33213078193E+02 -0.60096854231E+02  0.70986128381E+02  0.47000000000E+01 0. -1.
         -5    1    4    4    0  503 -0.33252377411E+02  0.16072924960E+02  0.13495462916E+03  0.13999607656E+03  0.47000000000E+01 0. -1.
          5    1    4    4  503    0  0.20195756933E+02  0.27580496202E-01 -0.33804654044E+01  0.21009210008E+02  0.47000000000E+01 0.  1.
         -5    1    3    3    0  502  0.30440520243E+02 -0.49313583649E+02 -0.11244097014E+03  0.12658402969E+03  0.47000000000E+01 0.  1.
<mgrwt>
<rscale>  0 0.95376746E+02</rscale>
<asrwt>0</asrwt>
<pdfrwt beam="1">  1        1 0.24431676E-01 0.96253138E+02</pdfrwt>
<pdfrwt beam="2">  1       -1 0.30733777E-01 0.96253138E+02</pdfrwt>
<totfact> 0.18602634E+03</totfact>
</mgrwt>
</event>
<event>
 8    1  0.3400573E-004  0.9531348E+02  0.7546771E-02  0.1293780E+00
          1   -1    0    0  501    0  0.00000000000E+00  0.00000000000E+00  0.10491230700E+04  0.10491230700E+04  0.00000000000E+00 0. -1.
         -1   -1    0    0    0  501 -0.00000000000E+00 -0.00000000000E+00 -0.11260176035E+02  0.11260176035E+02  0.00000000000E+00 0.  1.
         23    2    1    2    0    0 -0.24410077749E+02  0.13830524425E+02  0.80913749090E+03  0.81473194340E+03  0.91090752056E+02 0.  0.
         23    2    1    2    0    0  0.24410077749E+02 -0.13830524425E+02  0.22872540305E+03  0.24565130262E+03  0.85100629718E+02 0.  0.
          5    1    4    4  502    0 -0.14743133621E+02 -0.34797422042E+02  0.59599213438E+02  0.70727482722E+02  0.47000000000E+01 0. -1.
         -5    1    4    4    0  502  0.39153211370E+02  0.20966897617E+02  0.16912618961E+03  0.17492381990E+03  0.47000000000E+01 0.  1.
          5    1    3    3  503    0 -0.12102575058E+02 -0.38874658904E+02  0.35005219936E+03  0.35244339078E+03  0.47000000000E+01 0. -1.
         -5    1    3    3    0  503 -0.12307502691E+02  0.52705183329E+02  0.45908529154E+03  0.46228855262E+03  0.47000000000E+01 0.  1.
<mgrwt>
<rscale>  0 0.93853430E+02</rscale>
<asrwt>0</asrwt>
<pdfrwt beam="1">  1        1 0.16140347E+00 0.95313485E+02</pdfrwt>
<pdfrwt beam="2">  1       -1 0.17323356E-02 0.95313485E+02</pdfrwt>
<totfact> 0.11697877E+04</totfact>
</mgrwt>
</event>
<event>
 8    1  0.3400573E-004  0.1281926E+03  0.7546771E-02  0.1230675E+00
          2   -1    0    0  501    0  0.00000000000E+00  0.00000000000E+00  0.19893904572E+03  0.19893904572E+03  0.00000000000E+00 0.  1.
         -2   -1    0    0    0  501 -0.00000000000E+00 -0.00000000000E+00 -0.96233351694E+02  0.96233351694E+02  0.00000000000E+00 0. -1.
         23    2    1    2    0    0  0.61360033772E+02 -0.67901218884E+02 -0.61561726853E+01  0.12699316855E+03  0.87827883529E+02 0.  0.
         23    2    1    2    0    0 -0.61360033772E+02  0.67901218884E+02  0.10886186671E+03  0.16817922887E+03  0.89764791138E+02 0.  0.
          5    1    4    4  502    0 -0.72129975109E+02  0.24264490843E+02  0.93055626335E+02  0.12030352621E+03  0.47000000000E+01 0. -1.
         -5    1    4    4    0  502  0.10769941337E+02  0.43636728041E+02  0.15806240378E+02  0.47875702662E+02  0.47000000000E+01 0.  1.
          5    1    3    3  503    0  0.19166887097E+02 -0.69953509016E+02 -0.29568232498E+02  0.78468040358E+02  0.47000000000E+01 0. -1.
         -5    1    3    3    0  503  0.42193146675E+02  0.20522901318E+01  0.23412059812E+02  0.48525128190E+02  0.47000000000E+01 0.  1.
<mgrwt>
<rscale>  0 0.12785409E+03</rscale>
<asrwt>0</asrwt>
<pdfrwt beam="1">  1        2 0.30606007E-01 0.12819262E+03</pdfrwt>
<pdfrwt beam="2">  1       -2 0.14805131E-01 0.12819262E+03</pdfrwt>
<totfact> 0.57005297E+03</totfact>
</mgrwt>
</event>
<event>
 8    1  0.3400573E-004  0.1036221E+03  0.7546771E-02  0.1272945E+00
         -4   -1    0    0    0  501 -0.00000000000E+00  0.00000000000E+00  0.10059256944E+03  0.10059256944E+03  0.00000000000E+00 0.  1.
          4   -1    0    0  501    0  0.00000000000E+00 -0.00000000000E+00 -0.20080036235E+03  0.20080036235E+03  0.00000000000E+00 0. -1.
         23    2    1    2    0    0  0.43603585095E+02  0.21661034117E+02  0.53109417181E+02  0.11643946897E+03  0.91471671618E+02 0.  0.
         23    2    1    2    0    0 -0.43603585095E+02 -0.21661034117E+02 -0.15331721009E+03  0.18495346282E+03  0.91275097748E+02 0.  0.
          5    1    4    4  502    0 -0.67128009715E+02 -0.55086262506E+01 -0.72273936988E+02  0.98904633962E+02  0.47000000000E+01 0. -1.
         -5    1    3    3    0  503  0.40054912886E+02 -0.86802035216E+00  0.74564127562E+02  0.84776462681E+02  0.47000000000E+01 0.  1.
          5    1    3    3  503    0  0.35486722090E+01  0.22529054469E+02 -0.21454710381E+02  0.31663006289E+02  0.47000000000E+01 0. -1.
         -5    1    4    4    0  502  0.23524424619E+02 -0.16152407866E+02 -0.81043273102E+02  0.86048828863E+02  0.47000000000E+01 0.  1.
<mgrwt>
<rscale>  0 0.10357870E+03</rscale>
<asrwt>0</asrwt>
<pdfrwt beam="1">  1        4 0.30892363E-01 0.10362210E+03</pdfrwt>
<pdfrwt beam="2">  1       -4 0.15475780E-01 0.10362210E+03</pdfrwt>
<totfact> 0.56162629E+02</totfact>
</mgrwt>
</event>
<event>
 8    1  0.3400573E-004  0.1097024E+03  0.7546771E-02  0.1262491E+00
         -1   -1    0    0    0  501 -0.00000000000E+00  0.00000000000E+00  0.10614237439E+03  0.10614237439E+03  0.00000000000E+00 0.  1.
          1   -1    0    0  501    0  0.00000000000E+00 -0.00000000000E+00 -0.41663780636E+03  0.41663780636E+03  0.00000000000E+00 0. -1.
         23    2    1    2    0    0  0.35545136761E+02  0.39649557859E+02  0.68293741842E+02  0.12922327927E+03  0.95911816506E+02 0.  0.
         23    2    1    2    0    0 -0.35545136761E+02 -0.39649557859E+02 -0.37878917381E+03  0.39355690148E+03  0.92575657287E+02 0.  0.
          5    1    3    3  502    0  0.15389266338E+02 -0.26286753032E+02 -0.16919629153E+01  0.30867064031E+02  0.47000000000E+01 0. -1.
         -5    1    3    3    0  502  0.20155870423E+02  0.65936310891E+02  0.69985704757E+02  0.98356215242E+02  0.47000000000E+01 0.  1.
          5    1    4    4  503    0 -0.66511270024E+02 -0.22672659608E+02 -0.22873522393E+03  0.23933175970E+03  0.47000000000E+01 0. -1.
         -5    1    4    4    0  503  0.30966133263E+02 -0.16976898251E+02 -0.15005394987E+03  0.15422514177E+03  0.47000000000E+01 0.  1.
<mgrwt>
<rscale>  0 0.10896897E+03</rscale>
<asrwt>0</asrwt>
<pdfrwt beam="1">  1        1 0.64098124E-01 0.10970242E+03</pdfrwt>
<pdfrwt beam="2">  1       -1 0.16329596E-01 0.10970242E+03</pdfrwt>
<totfact> 0.15791113E+03</totfact>
</mgrwt>
</event>
<event>
 8    1  0.3400573E-004  0.9806512E+02  0.7546771E-02  0.1286416E+00
          1   -1    0    0  501    0  0.00000000000E+00  0.00000000000E+00  0.11970785001E+03  0.11970785001E+03  0.00000000000E+00 0. -1.
         -1   -1    0    0    0  501 -0.00000000000E+00 -0.00000000000E+00 -0.12711573611E+03  0.12711573611E+03  0.00000000000E+00 0.  1.
         23    2    1    2    0    0 -0.10956725338E+02 -0.12233438281E+02 -0.80839513647E+02  0.12431247839E+03  0.92999239110E+02 0.  0.
         23    2    1    2    0    0  0.10956725338E+02  0.12233438281E+02  0.73431627546E+02  0.12251110774E+03  0.96680198346E+02 0.  0.
          5    1    4    4  502    0  0.35532469791E+02 -0.16484045260E+02  0.74616730384E+02  0.84403949024E+02  0.47000000000E+01 0. -1.
         -5    1    4    4    0  502 -0.24575744453E+02  0.28717483541E+02 -0.11851028374E+01  0.38107158712E+02  0.47000000000E+01 0.  1.
          5    1    3    3  503    0  0.28406073919E+02  0.13334450995E+02 -0.12026382514E+01  0.31752936204E+02  0.47000000000E+01 0. -1.
         -5    1    3    3    0  503 -0.39362799257E+02 -0.25567889276E+02 -0.79636875396E+02  0.92559542188E+02  0.47000000000E+01 0.  1.
<mgrwt>
<rscale>  0 0.97145524E+02</rscale>
<asrwt>0</asrwt>
<pdfrwt beam="1">  1        1 0.18416592E-01 0.98065119E+02</pdfrwt>
<pdfrwt beam="2">  1       -1 0.19556267E-01 0.98065119E+02</pdfrwt>
<totfact> 0.55364230E+03</totfact>
</mgrwt>
</event>
<event>
 8    1  0.3400573E-004  0.9394004E+02  0.7546771E-02  0.1294785E+00
          1   -1    0    0  501    0  0.00000000000E+00  0.00000000000E+00  0.27617025521E+02  0.27617025521E+02  0.00000000000E+00 0. -1.
         -1   -1    0    0    0  501 -0.00000000000E+00 -0.00000000000E+00 -0.31417456357E+03  0.31417456357E+03  0.00000000000E+00 0.  1.
         23    2    1    2    0    0  0.19545410744E+00 -0.87594873750E+01 -0.15733977918E+03  0.18324993113E+03  0.93530552911E+02 0.  0.
         23    2    1    2    0    0 -0.19545410744E+00  0.87594873750E+01 -0.12921775887E+03  0.15854165796E+03  0.91441026232E+02 0.  0.
          5    1    4    4  502    0 -0.18256175106E+02  0.38103397612E+02 -0.26495355500E+02  0.50092421604E+02  0.47000000000E+01 0. -1.
         -5    1    4    4    0  502  0.18060720998E+02 -0.29343910237E+02 -0.10272240337E+03  0.10844923635E+03  0.47000000000E+01 0.  1.
          5    1    3    3  503    0  0.30523749216E+02  0.11826153783E+02 -0.15220911736E+02  0.36404990504E+02  0.47000000000E+01 0. -1.
         -5    1    3    3    0  503 -0.30328295108E+02 -0.20585641159E+02 -0.14211886744E+03  0.14684494063E+03  0.47000000000E+01 0.  1.
<mgrwt>
<rscale>  0 0.93415612E+02</rscale>
<asrwt>0</asrwt>
<pdfrwt beam="1">  1        1 0.42487731E-02 0.93940040E+02</pdfrwt>
<pdfrwt beam="2">  1       -1 0.48334549E-01 0.93940040E+02</pdfrwt>
<totfact> 0.83519925E+03</totfact>
</mgrwt>
</event>
<event>
 8    1  0.3400573E-004  0.9588529E+02  0.7546771E-02  0.1291403E+00
         -1   -1    0    0    0  501 -0.00000000000E+00  0.00000000000E+00  0.28747236851E+03  0.28747236851E+03  0.00000000000E+00 0.  1.
          1   -1    0    0  501    0  0.00000000000E+00 -0.00000000000E+00 -0.41784350580E+02  0.41784350580E+02  0.00000000000E+00 0. -1.
         23    2    1    2    0    0  0.64562189617E+01 -0.24914881887E+02  0.39930813781E+02  0.10386750406E+03  0.92366413854E+02 0.  0.
         23    2    1    2    0    0 -0.64562189617E+01  0.24914881887E+02  0.20575720415E+03  0.22538921503E+03  0.88328008519E+02 0.  0.
          5    1    4    4  502    0  0.30503645916E+02  0.13919073470E+02  0.16742708690E+03  0.17081607784E+03  0.47000000000E+01 0. -1.
         -5    1    4    4    0  502 -0.36959864877E+02  0.10995808416E+02  0.38330117255E+02  0.54573137195E+02  0.47000000000E+01 0.  1.
          5    1    3    3  503    0 -0.10194885141E+02 -0.47801554623E+02 -0.62518766984E+01  0.49498487549E+02  0.47000000000E+01 0. -1.
         -5    1    3    3    0  503  0.16651104103E+02  0.22886672736E+02  0.46182690480E+02  0.54369016514E+02  0.47000000000E+01 0.  1.
<mgrwt>
<rscale>  0 0.94899228E+02</rscale>
<asrwt>0</asrwt>
<pdfrwt beam="1">  1        1 0.64283618E-02 0.95885288E+02</pdfrwt>
<pdfrwt beam="2">  1       -1 0.44226517E-01 0.95885288E+02</pdfrwt>
<totfact> 0.56040490E+03</totfact>
</mgrwt>
</event>
<event>
 8    1  0.3400573E-004  0.9699838E+02  0.7546771E-02  0.1286775E+00
         -1   -1    0    0    0  501 -0.00000000000E+00  0.00000000000E+00  0.12994014690E+03  0.12994014690E+03  0.00000000000E+00 0.  1.
          1   -1    0    0  501    0  0.00000000000E+00 -0.00000000000E+00 -0.84798012900E+02  0.84798012900E+02  0.00000000000E+00 0. -1.
         23    2    1    2    0    0 -0.19021068951E+02 -0.27878942788E+02 -0.18562369192E+02  0.98690976921E+02  0.90864244126E+02 0.  0.
         23    2    1    2    0    0  0.19021068951E+02  0.27878942788E+02  0.63704503195E+02  0.11604718288E+03  0.90937607251E+02 0.  0.
          5    1    4    4  502    0  0.53317435785E+02  0.31520926929E+02  0.38633676987E+02  0.73150316409E+02  0.47000000000E+01 0. -1.
         -5    1    4    4    0  502 -0.34296366834E+02 -0.36419841408E+01  0.25070826208E+02  0.42896866473E+02  0.47000000000E+01 0.  1.
          5    1    3    3  503    0 -0.28412395452E+02  0.23105115200E+02  0.11384710924E+02  0.38636928016E+02  0.47000000000E+01 0. -1.
         -5    1    3    3    0  503  0.93913265017E+01 -0.50984057988E+02 -0.29947080116E+02  0.60054048905E+02  0.47000000000E+01 0.  1.
<mgrwt>
<rscale>  0 0.96981177E+02</rscale>
<asrwt>0</asrwt>
<pdfrwt beam="1">  1        1 0.13045848E-01 0.96998376E+02</pdfrwt>
<pdfrwt beam="2">  1       -1 0.19990792E-01 0.96998376E+02</pdfrwt>
<totfact> 0.83016258E+03</totfact>
</mgrwt>
</event>
<event>
 8    1  0.3400573E-004  0.1291759E+03  0.7546771E-02  0.1230542E+00
          1   -1    0    0  501    0  0.00000000000E+00  0.00000000000E+00  0.30821952305E+03  0.30821952305E+03  0.00000000000E+00 0. -1.
         -1   -1    0    0    0  501 -0.00000000000E+00 -0.00000000000E+00 -0.13222436045E+03  0.13222436045E+03  0.00000000000E+00 0.  1.
         23    2    1    2    0    0 -0.65047087029E+02  0.65064046012E+02 -0.84067301464E+02  0.15006670626E+03  0.83595762672E+02 0.  0.
         23    2    1    2    0    0  0.65047087029E+02 -0.65064046012E+02  0.26006246407E+03  0.29037717725E+03  0.90675058498E+02 0.  0.
          5    1    4    4  502    0  0.16699165443E+02 -0.55660321704E+02  0.21728648112E+03  0.22497208364E+03  0.47000000000E+01 0. -1.
         -5    1    4    4    0  502  0.48347921587E+02 -0.94037243080E+01  0.42775982945E+02  0.65405093605E+02  0.47000000000E+01 0.  1.
          5    1    3    3  503    0 -0.17226436814E+02 -0.18878379183E+02 -0.28293983055E+02  0.38415918615E+02  0.47000000000E+01 0. -1.
         -5    1    3    3    0  503 -0.47820650215E+02  0.83942425195E+02 -0.55773318409E+02  0.11165078764E+03  0.47000000000E+01 0.  1.
<mgrwt>
<rscale>  0 0.12794159E+03</rscale>
<asrwt>0</asrwt>
<pdfrwt beam="1">  1        1 0.47418388E-01 0.12917593E+03</pdfrwt>
<pdfrwt beam="2">  1       -1 0.20342209E-01 0.12917593E+03</pdfrwt>
<totfact> 0.16291347E+03</totfact>
</mgrwt>
</event>
<event>
 8    1  0.3400573E-004  0.1024108E+03  0.7546771E-02  0.1275494E+00
          2   -1    0    0  501    0  0.00000000000E+00  0.00000000000E+00  0.59555407920E+03  0.59555407920E+03  0.00000000000E+00 0. -1.
         -2   -1    0    0    0  501 -0.00000000000E+00 -0.00000000000E+00 -0.28881850666E+02  0.28881850666E+02  0.00000000000E+00 0.  1.
         23    2    1    2    0    0  0.20824858009E+02  0.40070167270E+02  0.87434555103E+02  0.13437804848E+03  0.91506095262E+02 0.  0.
         23    2    1    2    0    0 -0.20824858009E+02 -0.40070167270E+02  0.47923767344E+03  0.49005788139E+03  0.91916736565E+02 0.  0.
          5    1    3    3  502    0 -0.86721360793E+00 -0.28418581663E+02  0.34862934957E+02  0.45231427979E+02  0.47000000000E+01 0. -1.
         -5    1    4    4    0  503 -0.47675445515E+02 -0.62639035846E+01  0.35863513303E+03  0.36187488617E+03  0.47000000000E+01 0.  1.
          5    1    4    4  503    0  0.26850587506E+02 -0.33806263686E+02  0.12060254040E+03  0.12818299523E+03  0.47000000000E+01 0. -1.
         -5    1    3    3    0  502  0.21692071617E+02  0.68488748933E+02  0.52571620146E+02  0.89146620498E+02  0.47000000000E+01 0.  1.
<mgrwt>
<rscale>  0 0.10231861E+03</rscale>
<asrwt>0</asrwt>
<pdfrwt beam="1">  1        2 0.91623695E-01 0.10241084E+03</pdfrwt>
<pdfrwt beam="2">  1       -2 0.44433621E-02 0.10241084E+03</pdfrwt>
<totfact> 0.11134833E+04</totfact>
</mgrwt>
</event>
<event>
 8    1  0.3400573E-004  0.9685358E+02  0.7546771E-02  0.1287167E+00
         -3   -1    0    0    0  501 -0.00000000000E+00  0.00000000000E+00  0.33444758987E+03  0.33444758987E+03  0.00000000000E+00 0.  1.
          3   -1    0    0  501    0  0.00000000000E+00 -0.00000000000E+00 -0.46975481798E+02  0.46975481798E+02  0.00000000000E+00 0. -1.
         23    2    1    2    0    0  0.41886530794E+00  0.33135796853E+02  0.22400570400E+02  0.99211206204E+02  0.90790535856E+02 0.  0.
         23    2    1    2    0    0 -0.41886530794E+00 -0.33135796853E+02  0.26507153767E+03  0.28221186546E+03  0.91008024060E+02 0.  0.
          5    1    4    4  502    0  0.31622472001E+02  0.17520195514E+02  0.89941055873E+02  0.97048552374E+02  0.47000000000E+01 0. -1.
         -5    1    4    4    0  502 -0.32041337309E+02 -0.50655992367E+02  0.17513048179E+03  0.18516331309E+03  0.47000000000E+01 0.  1.
          5    1    3    3  503    0  0.20217981562E+02  0.57669868995E+02  0.19163346745E+01  0.61321634901E+02  0.47000000000E+01 0. -1.
         -5    1    3    3    0  503 -0.19799116254E+02 -0.24534072142E+02  0.20484235725E+02  0.37889571303E+02  0.47000000000E+01 0.  1.
<mgrwt>
<rscale>  0 0.96802461E+02</rscale>
<asrwt>0</asrwt>
<pdfrwt beam="1">  1        3 0.72269974E-02 0.96853585E+02</pdfrwt>
<pdfrwt beam="2">  1       -3 0.51453474E-01 0.96853585E+02</pdfrwt>
<totfact> 0.10331567E+03</totfact>
</mgrwt>
</event>
<event>
 8    1  0.3400573E-004  0.9910046E+02  0.7546771E-02  0.1285238E+00
         -1   -1    0    0    0  501 -0.00000000000E+00  0.00000000000E+00  0.94244395864E+02  0.94244395864E+02  0.00000000000E+00 0.  1.
          1   -1    0    0  501    0  0.00000000000E+00 -0.00000000000E+00 -0.11105200070E+03  0.11105200070E+03  0.00000000000E+00 0. -1.
         23    2    1    2    0    0 -0.13137314239E+02  0.16389291085E+02  0.25925540360E+02  0.10243551290E+03  0.96848865627E+02 0.  0.
         23    2    1    2    0    0  0.13137314239E+02 -0.16389291085E+02 -0.42733145194E+02  0.10286088366E+03  0.91175883880E+02 0.  0.
          5    1    3    3  502    0  0.40195759610E+02  0.52672062047E+00  0.22925007203E+02  0.46514755513E+02  0.47000000000E+01 0. -1.
         -5    1    3    3    0  502 -0.53333073849E+02  0.15862570464E+02  0.30005331572E+01  0.55920757390E+02  0.47000000000E+01 0.  1.
          5    1    4    4  503    0  0.53351097141E+01 -0.48860612971E+02 -0.47841964748E+02  0.68751483522E+02  0.47000000000E+01 0. -1.
         -5    1    4    4    0  503  0.78022045249E+01  0.32471321886E+02  0.51088195536E+01  0.34109400137E+02  0.47000000000E+01 0.  1.
<mgrwt>
<rscale>  0 0.97686387E+02</rscale>
<asrwt>0</asrwt>
<pdfrwt beam="1">  1        1 0.17084923E-01 0.99100457E+02</pdfrwt>
<pdfrwt beam="2">  1       -1 0.14499138E-01 0.99100457E+02</pdfrwt>
<totfact> 0.97443237E+03</totfact>
</mgrwt>
</event>
<event>
 8    1  0.3400573E-004  0.1184349E+03  0.7546771E-02  0.1246740E+00
          1   -1    0    0  501    0  0.00000000000E+00  0.00000000000E+00  0.58227628745E+03  0.58227628745E+03  0.00000000000E+00 0. -1.
         -1   -1    0    0    0  501 -0.00000000000E+00 -0.00000000000E+00 -0.28618698104E+02  0.28618698104E+02  0.00000000000E+00 0.  1.
         23    2    1    2    0    0 -0.23126226313E+02  0.70941928293E+02  0.40242308675E+03  0.41880462304E+03  0.88799729742E+02 0.  0.
         23    2    1    2    0    0  0.23126226313E+02 -0.70941928293E+02  0.15123450259E+03  0.19209036251E+03  0.91974197792E+02 0.  0.
          5    1    4    4  502    0  0.41935798385E+02 -0.18962922719E+02  0.11958101276E+03  0.12821822115E+03  0.47000000000E+01 0. -1.
         -5    1    3    3    0  503  0.21382986027E+02  0.48841307945E+02  0.30147835237E+03  0.30619273734E+03  0.47000000000E+01 0.  1.
          5    1    3    3  503    0 -0.44509212340E+02  0.22100620348E+02  0.10094473438E+03  0.11261188570E+03  0.47000000000E+01 0. -1.
         -5    1    4    4    0  502 -0.18809572072E+02 -0.51979005574E+02  0.31653489839E+02  0.63872141352E+02  0.47000000000E+01 0.  1.
<mgrwt>
<rscale>  0 0.11781813E+03</rscale>
<asrwt>0</asrwt>
<pdfrwt beam="1">  1        1 0.89580959E-01 0.11843493E+03</pdfrwt>
<pdfrwt beam="2">  1       -1 0.44028771E-02 0.11843493E+03</pdfrwt>
<totfact> 0.74338557E+03</totfact>
</mgrwt>
</event>
<event>
 8    1  0.3400573E-004  0.1308406E+03  0.7546771E-02  0.1233041E+00
         -1   -1    0    0    0  501 -0.00000000000E+00  0.00000000000E+00  0.82867065274E+02  0.82867065274E+02  0.00000000000E+00 0.  1.
          1   -1    0    0  501    0  0.00000000000E+00 -0.00000000000E+00 -0.25162880577E+03  0.25162880577E+03  0.00000000000E+00 0. -1.
         23    2    1    2    0    0 -0.32062690942E+02  0.61031721172E+02  0.24849813364E+00  0.13084085361E+03  0.11120422691E+03 0.  0.
         23    2    1    2    0    0  0.32062690942E+02 -0.61031721172E+02 -0.16901023863E+03  0.20365501744E+03  0.90321748353E+02 0.  0.
          5    1    4    4  502    0 -0.18439573707E+02 -0.47796439538E+02 -0.12513477501E+03  0.13529715232E+03  0.47000000000E+01 0. -1.
         -5    1    3    3    0  503 -0.16050311507E+02  0.83226215907E+02 -0.29760383691E+02  0.89955466488E+02  0.47000000000E+01 0.  1.
          5    1    3    3  503    0 -0.16012379436E+02 -0.22194494734E+02  0.30008881824E+02  0.40885387121E+02  0.47000000000E+01 0. -1.
         -5    1    4    4    0  502  0.50502264649E+02 -0.13235281634E+02 -0.43875463626E+02  0.68357865115E+02  0.47000000000E+01 0.  1.
<mgrwt>
<rscale>  0 0.12630674E+03</rscale>
<asrwt>0</asrwt>
<pdfrwt beam="1">  1        1 0.38712124E-01 0.13084062E+03</pdfrwt>
<pdfrwt beam="2">  1       -1 0.12748779E-01 0.13084062E+03</pdfrwt>
<totfact> 0.43707933E+03</totfact>
</mgrwt>
</event>
<event>
 8    1  0.3400573E-004  0.1676404E+03  0.7546771E-02  0.1180335E+00
         -1   -1    0    0    0  501 -0.00000000000E+00  0.00000000000E+00  0.36932565176E+03  0.36932565176E+03  0.00000000000E+00 0.  1.
          1   -1    0    0  501    0  0.00000000000E+00 -0.00000000000E+00 -0.20181541633E+03  0.20181541633E+03  0.00000000000E+00 0. -1.
         23    2    1    2    0    0 -0.12410637300E+03  0.67032393516E+02  0.30915691153E+03  0.35168352395E+03  0.90595648176E+02 0.  0.
         23    2    1    2    0    0  0.12410637300E+03 -0.67032393516E+02 -0.14164667610E+03  0.21945754414E+03  0.90565441704E+02 0.  0.
          5    1    4    4  502    0  0.11029195904E+03 -0.36848795892E+02 -0.59446274155E+02  0.13068320281E+03  0.47000000000E+01 0. -1.
         -5    1    4    4    0  502  0.13814413967E+02 -0.30183597624E+02 -0.82200401942E+02  0.88774341328E+02  0.47000000000E+01 0.  1.
          5    1    3    3  503    0  0.22148471055E+01  0.23203462299E+02  0.13936331457E+02  0.27561160078E+02  0.47000000000E+01 0. -1.
         -5    1    3    3    0  503 -0.12632122011E+03  0.43828931217E+02  0.29522058007E+03  0.32412236387E+03  0.47000000000E+01 0.  1.
<mgrwt>
<rscale>  0 0.16763632E+03</rscale>
<asrwt>0</asrwt>
<pdfrwt beam="1">  1        1 0.31048526E-01 0.16764040E+03</pdfrwt>
<pdfrwt beam="2">  1       -1 0.56819331E-01 0.16764040E+03</pdfrwt>
<totfact> 0.47092543E+02</totfact>
</mgrwt>
</event>
<event>
 8    1  0.3400573E-004  0.2388259E+03  0.7546771E-02  0.1120733E+00
          2   -1    0    0  501    0  0.00000000000E+00  0.00000000000E+00  0.74351360074E+03  0.74351360074E+03  0.00000000000E+00 0. -1.
         -2   -1    0    0    0  501 -0.00000000000E+00 -0.00000000000E+00 -0.89366674174E+02  0.89366674174E+02  0.00000000000E+00 0.  1.
         23    2    1    2    0    0  0.16432360505E+03  0.14779167561E+03  0.16800246787E+03  0.29123993423E+03  0.88041146747E+02 0.  0.
         23    2    1    2    0    0 -0.16432360505E+03 -0.14779167561E+03  0.48614445869E+03  0.54164034069E+03  0.90516282443E+02 0.  0.
          5    1    3    3  502    0  0.12393521399E+03  0.53631446348E+02  0.89414260559E+02  0.16202860641E+03  0.47000000000E+01 0. -1.
         -5    1    3    3    0  502  0.40388391060E+02  0.94160229260E+02  0.78588207316E+02  0.12921132782E+03  0.47000000000E+01 0.  1.
          5    1    4    4  503    0 -0.18913399365E+02 -0.71397394724E+02  0.16743794653E+03  0.18306518125E+03  0.47000000000E+01 0. -1.
         -5    1    4    4    0  503 -0.14541020568E+03 -0.76394280885E+02  0.31870651216E+03  0.35857515943E+03  0.47000000000E+01 0.  1.
<mgrwt>
<rscale>  0 0.23859382E+03</rscale>
<asrwt>0</asrwt>
<pdfrwt beam="1">  1        2 0.11438670E+00 0.23882593E+03</pdfrwt>
<pdfrwt beam="2">  1       -2 0.13748720E-01 0.23882593E+03</pdfrwt>
<totfact> 0.15381739E+03</totfact>
</mgrwt>
</event>
<event>
 8    1  0.3400573E-004  0.1940593E+03  0.7546771E-02  0.1155990E+00
          2   -1    0    0  501    0  0.00000000000E+00  0.00000000000E+00  0.20633292877E+02  0.20633292877E+02  0.00000000000E+00 0. -1.
         -2   -1    0    0    0  501 -0.00000000000E+00 -0.00000000000E+00 -0.17788610687E+04  0.17788610687E+04  0.00000000000E+00 0.  1.
         23    2    1    2    0    0  0.16533851670E+03 -0.14846993224E+02 -0.86408522953E+03  0.88560842903E+03  0.10050744927E+03 0.  0.
         23    2    1    2    0    0 -0.16533851670E+03  0.14846993224E+02 -0.89414254627E+03  0.91388593253E+03  0.90218325777E+02 0.  0.
          5    1    3    3  502    0  0.15878393341E+03  0.10085801207E+02 -0.61944839880E+03  0.63957209888E+03  0.47000000000E+01 0. -1.
         -5    1    3    3    0  502  0.65545832913E+01 -0.24932794431E+02 -0.24463683073E+03  0.24603633015E+03  0.47000000000E+01 0.  1.
          5    1    4    4  503    0 -0.13969045877E+02  0.21211608223E+02 -0.50366068128E+02  0.56602980352E+02  0.47000000000E+01 0. -1.
         -5    1    4    4    0  503 -0.15136947083E+03 -0.63646149986E+01 -0.84377647814E+03  0.85728295218E+03  0.47000000000E+01 0.  1.
<mgrwt>
<rscale>  0 0.19276544E+03</rscale>
<asrwt>0</asrwt>
<pdfrwt beam="1">  1        2 0.31743519E-02 0.19405928E+03</pdfrwt>
<pdfrwt beam="2">  1       -2 0.27367100E+00 0.19405928E+03</pdfrwt>
<totfact> 0.15136363E+02</totfact>
</mgrwt>
</event>
<event>
 8    1  0.4877221E-004  0.9991584E+02  0.7546771E-02  0.1297695E+00
         -1   -1    0    0    0  501 -0.00000000000E+00  0.00000000000E+00  0.70683319988E+02  0.70683319988E+02  0.00000000000E+00 0.  1.
          1   -1    0    0  501    0  0.00000000000E+00 -0.00000000000E+00 -0.38295188741E+03  0.38295188741E+03  0.00000000000E+00 0. -1.
         23    2    1    2    0    0  0.53500467868E+01  0.58891588330E+01 -0.34186079462E+03  0.34942928404E+03  0.71893785906E+02 0.  0.
         23    2    1    2    0    0 -0.53500467868E+01 -0.58891588330E+01  0.29592227199E+02  0.10420592336E+03  0.99598540956E+02 0.  0.
          5    1    3    3  502    0  0.10592444075E+02 -0.31797348664E+02 -0.17158967340E+03  0.17489533233E+03  0.47000000000E+01 0. -1.
         -5    1    4    4    0  503  0.17634039402E+02  0.18191702615E+02 -0.27666100172E+02  0.37807413141E+02  0.47000000000E+01 0. -1.
          5    1    4    4  503    0 -0.22984086189E+02 -0.24080861448E+02  0.57258327371E+02  0.66398510220E+02  0.47000000000E+01 0.  1.
         -5    1    3    3    0  502 -0.52423972877E+01  0.37686507497E+02 -0.17027112122E+03  0.17453395171E+03  0.47000000000E+01 0.  1.
<mgrwt>
<rscale>  0 0.92163602E+02</rscale>
<asrwt>0</asrwt>
<pdfrwt beam="1">  1        1 0.58915675E-01 0.99915837E+02</pdfrwt>
<pdfrwt beam="2">  1       -1 0.10874357E-01 0.99915837E+02</pdfrwt>
<totfact> 0.32739929E+03</totfact>
</mgrwt>
</event>
<event>
 8    1  0.3400573E-004  0.9367919E+02  0.7546771E-02  0.1295052E+00
          3   -1    0    0  501    0  0.00000000000E+00  0.00000000000E+00  0.13295072660E+03  0.13295072660E+03  0.00000000000E+00 0. -1.
         -3   -1    0    0    0  501 -0.00000000000E+00 -0.00000000000E+00 -0.10265468807E+03  0.10265468807E+03  0.00000000000E+00 0.  1.
         23    2    1    2    0    0 -0.24398459792E+02  0.71279789188E+01  0.86619893230E+02  0.12758838766E+03  0.90164837037E+02 0.  0.
         23    2    1    2    0    0  0.24398459792E+02 -0.71279789188E+01 -0.56323854698E+02  0.10801702701E+03  0.88595759451E+02 0.  0.
          5    1    3    3  502    0 -0.20000914821E+02 -0.27541738319E+02  0.85680537083E+02  0.92313749670E+02  0.47000000000E+01 0. -1.
         -5    1    3    3    0  502 -0.43975449714E+01  0.34669717237E+02  0.93935614655E+00  0.35274637986E+02  0.47000000000E+01 0.  1.
          5    1    4    4  503    0  0.45407360329E+02 -0.97392372461E+01 -0.68693226083E+02  0.83051372197E+02  0.47000000000E+01 0. -1.
         -5    1    4    4    0  503 -0.21008900537E+02  0.26112583273E+01  0.12369371385E+02  0.24965654814E+02  0.47000000000E+01 0.  1.
<mgrwt>
<rscale>  0 0.93299582E+02</rscale>
<asrwt>0</asrwt>
<pdfrwt beam="1">  1        3 0.20453958E-01 0.93679191E+02</pdfrwt>
<pdfrwt beam="2">  1       -3 0.15793029E-01 0.93679191E+02</pdfrwt>
<totfact> 0.15718199E+03</totfact>
</mgrwt>
</event>
<event>
 8    1  0.3400573E-004  0.9340952E+02  0.7546771E-02  0.1296073E+00
         -1   -1    0    0    0  501 -0.00000000000E+00  0.00000000000E+00  0.28822867390E+02  0.28822867390E+02  0.00000000000E+00 0.  1.
          1   -1    0    0  501    0  0.00000000000E+00 -0.00000000000E+00 -0.35094181586E+03  0.35094181586E+03  0.00000000000E+00 0. -1.
         23    2    1    2    0    0  0.67953495594E+01 -0.98265954032E+01 -0.23479436048E+03  0.25189395868E+03  0.90440234149E+02 0.  0.
         23    2    1    2    0    0 -0.67953495594E+01  0.98265954032E+01 -0.87324587985E+02  0.12787072457E+03  0.92642321763E+02 0.  0.
          5    1    3    3  502    0 -0.31328561862E+02  0.20443183133E+02 -0.14297216544E+03  0.14785984112E+03  0.47000000000E+01 0. -1.
         -5    1    3    3    0  502  0.38123911421E+02 -0.30269778536E+02 -0.91822195043E+02  0.10403411756E+03  0.47000000000E+01 0.  1.
          5    1    4    4  503    0 -0.46598057044E+02  0.70251807536E+01 -0.24559291358E+02  0.53347735443E+02  0.47000000000E+01 0. -1.
         -5    1    4    4    0  503  0.39802707485E+02  0.28014146495E+01 -0.62765296628E+02  0.74522989124E+02  0.47000000000E+01 0.  1.
<mgrwt>
<rscale>  0 0.92858777E+02</rscale>
<asrwt>0</asrwt>
<pdfrwt beam="1">  1        1 0.53991049E-01 0.93409521E+02</pdfrwt>
<pdfrwt beam="2">  1       -1 0.44342873E-02 0.93409521E+02</pdfrwt>
<totfact> 0.13773111E+04</totfact>
</mgrwt>
</event>
<event>
 8    1  0.3400573E-004  0.1468435E+03  0.7546771E-02  0.1204693E+00
         -1   -1    0    0    0  501 -0.00000000000E+00  0.00000000000E+00  0.38918166120E+02  0.38918166120E+02  0.00000000000E+00 0.  1.
          1   -1    0    0  501    0  0.00000000000E+00 -0.00000000000E+00 -0.57969665837E+03  0.57969665837E+03  0.00000000000E+00 0. -1.
         23    2    1    2    0    0 -0.24754459690E+02  0.11122901185E+03 -0.20195194512E+03  0.24969499071E+03  0.92619241486E+02 0.  0.
         23    2    1    2    0    0  0.24754459690E+02 -0.11122901185E+03 -0.33882654712E+03  0.36891983378E+03  0.91179703701E+02 0.  0.
          5    1    4    4  502    0  0.51388265526E+02 -0.80897352904E+02 -0.28962118527E+03  0.30510269828E+03  0.47000000000E+01 0. -1.
         -5    1    4    4    0  502 -0.26633805836E+02 -0.30331658950E+02 -0.49205361849E+02  0.63817135494E+02  0.47000000000E+01 0.  1.
          5    1    3    3  503    0 -0.12363072009E+00  0.68656055747E+02 -0.18512097851E+03  0.19749819230E+03  0.47000000000E+01 0. -1.
         -5    1    3    3    0  503 -0.24630828969E+02  0.42572956107E+02 -0.16830966612E+02  0.52196798412E+02  0.47000000000E+01 0.  1.
<mgrwt>
<rscale>  0 0.14661701E+03</rscale>
<asrwt>0</asrwt>
<pdfrwt beam="1">  1        1 0.89184100E-01 0.14684345E+03</pdfrwt>
<pdfrwt beam="2">  1       -1 0.59874103E-02 0.14684345E+03</pdfrwt>
<totfact> 0.48020136E+03</totfact>
</mgrwt>
</event>
<event>
 8    1  0.3400573E-004  0.1067340E+03  0.7546771E-02  0.1273596E+00
         -2   -1    0    0    0  501 -0.00000000000E+00  0.00000000000E+00  0.16303520904E+02  0.16303520904E+02  0.00000000000E+00 0.  1.
          2   -1    0    0  501    0  0.00000000000E+00 -0.00000000000E+00 -0.74704836927E+03  0.74704836927E+03  0.00000000000E+00 0. -1.
         23    2    1    2    0    0 -0.15673279570E+02  0.17184224868E+02 -0.54562885045E+03  0.55597031759E+03  0.10416910445E+03 0.  0.
         23    2    1    2    0    0  0.15673279570E+02 -0.17184224868E+02 -0.18511599792E+03  0.20738157258E+03  0.90544103542E+02 0.  0.
          5    1    4    4  502    0  0.42334921000E+02  0.79078319825E+01 -0.15109151070E+03  0.15717987768E+03  0.47000000000E+01 0. -1.
         -5    1    4    4    0  502 -0.26661641430E+02 -0.25092056850E+02 -0.34024487219E+02  0.50201694904E+02  0.47000000000E+01 0.  1.
          5    1    3    3  503    0 -0.13151484496E+02  0.57740216510E+02 -0.22371145501E+03  0.23146446650E+03  0.47000000000E+01 0.  1.
         -5    1    3    3    0  503 -0.25217950744E+01 -0.40555991642E+02 -0.32191739544E+03  0.32450585110E+03  0.47000000000E+01 0.  1.
<mgrwt>
<rscale>  0 0.10325498E+03</rscale>
<asrwt>0</asrwt>
<pdfrwt beam="1">  1        2 0.11493052E+00 0.10673402E+03</pdfrwt>
<pdfrwt beam="2">  1       -2 0.25082338E-02 0.10673402E+03</pdfrwt>
<totfact> 0.19867796E+04</totfact>
</mgrwt>
</event>
<event>
 8    1  0.3400573E-004  0.1152248E+03  0.7546771E-02  0.1256195E+00
          1   -1    0    0  501    0  0.00000000000E+00  0.00000000000E+00  0.60567241304E+03  0.60567241304E+03  0.00000000000E+00 0. -1.
         -1   -1    0    0    0  501 -0.00000000000E+00 -0.00000000000E+00 -0.55959404337E+02  0.55959404337E+02  0.00000000000E+00 0.  1.
         23    2    1    2    0    0 -0.42213881650E+02  0.88795825544E+01  0.45453644601E+01  0.10442044435E+03  0.94984788625E+02 0.  0.
         23    2    1    2    0    0  0.42213881650E+02 -0.88795825544E+01  0.54516764424E+03  0.55721137303E+03  0.10684519226E+03 0.  0.
          5    1    3    3  502    0  0.30496038552E+02  0.57147039297E+01  0.20396625083E+01  0.31447041698E+02  0.47000000000E+01 0. -1.
         -5    1    3    3    0  502 -0.72709920203E+02  0.31648786247E+01  0.25057019518E+01  0.72973402654E+02  0.47000000000E+01 0.  1.
          5    1    4    4  503    0  0.50750992404E+02 -0.36527800869E+02  0.49614630185E+03  0.50009317762E+03  0.47000000000E+01 0. -1.
         -5    1    4    4    0  503 -0.85371107537E+01  0.27648218315E+02  0.49021342399E+02  0.57118195407E+02  0.47000000000E+01 0.  1.
<mgrwt>
<rscale>  0 0.11239653E+03</rscale>
<asrwt>0</asrwt>
<pdfrwt beam="1">  1        1 0.93180367E-01 0.11522480E+03</pdfrwt>
<pdfrwt beam="2">  1       -1 0.86091395E-02 0.11522480E+03</pdfrwt>
<totfact> 0.25988350E+03</totfact>
</mgrwt>
</event>
<event>
 8    1  0.3400573E-004  0.9185480E+02  0.7546771E-02  0.1298607E+00
          1   -1    0    0  501    0  0.00000000000E+00  0.00000000000E+00  0.33746635470E+03  0.33746635470E+03  0.00000000000E+00 0. -1.
         -1   -1    0    0    0  501 -0.00000000000E+00 -0.00000000000E+00 -0.29472791286E+02  0.29472791286E+02  0.00000000000E+00 0.  1.
         23    2    1    2    0    0 -0.17531288663E+02 -0.36786785676E+01  0.81636519285E+02  0.12265485458E+03  0.89770893457E+02 0.  0.
         23    2    1    2    0    0  0.17531288663E+02  0.36786785676E+01  0.22635704413E+03  0.24428429141E+03  0.90091202926E+02 0.  0.
          5    1    3    3  502    0 -0.18402085230E+02  0.41721301311E+02  0.42904716765E+02  0.62787008565E+02  0.47000000000E+01 0.  1.
         -5    1    3    3    0  502  0.87079656703E+00 -0.45399979878E+02  0.38731802520E+02  0.59867846012E+02  0.47000000000E+01 0. -1.
          5    1    4    4  503    0 -0.55748298880E+01  0.31709630154E+02  0.18967395049E+03  0.19244447737E+03  0.47000000000E+01 0. -1.
         -5    1    4    4    0  503  0.23106118551E+02 -0.28030951587E+02  0.36683093631E+02  0.51839814040E+02  0.47000000000E+01 0.  1.
<mgrwt>
<rscale>  0 0.91776161E+02</rscale>
<asrwt>0</asrwt>
<pdfrwt beam="1">  1        1 0.51917898E-01 0.91854796E+02</pdfrwt>
<pdfrwt beam="2">  1       -1 0.45342758E-02 0.91854796E+02</pdfrwt>
<totfact> 0.13968188E+04</totfact>
</mgrwt>
</event>
<event>
 8    1  0.6348098E-004  0.9669409E+02  0.7546771E-02  0.1287572E+00
          1   -1    0    0  501    0  0.00000000000E+00  0.00000000000E+00  0.53645503626E+03  0.53645503626E+03  0.00000000000E+00 0. -1.
         -1   -1    0    0    0  501 -0.00000000000E+00 -0.00000000000E+00 -0.97490280065E+02  0.97490280065E+02  0.00000000000E+00 0.  1.
         23    2    1    2    0    0  0.20183081330E+02  0.26855395267E+02  0.50676416882E+03  0.51584998461E+03  0.90347743695E+02 0.  0.
         23    2    1    2    0    0 -0.20183081330E+02 -0.26855395267E+02 -0.67799412630E+02  0.11809533172E+03  0.90670711882E+02 0.  0.
          5    1    4    4  502    0 -0.50064564853E+01  0.23739737621E+02  0.76530522964E+01  0.25870812865E+02  0.47000000000E+01 0. -1.
         -5    1    4    4    0  502 -0.15176624845E+02 -0.50595132889E+02 -0.75452464926E+02  0.92224518850E+02  0.47000000000E+01 0.  1.
          5    1    3    3  503    0 -0.20388521541E+02  0.33713152218E+02  0.38895026023E+03  0.39096887776E+03  0.47000000000E+01 0. -1.
         -5    1    3    3    0  503  0.40571602871E+02 -0.68577569505E+01  0.11781390859E+03  0.12488110684E+03  0.47000000000E+01 0.  1.
<mgrwt>
<rscale>  0 0.96618305E+02</rscale>
<asrwt>0</asrwt>
<pdfrwt beam="1">  1        1 0.82531542E-01 0.96694090E+02</pdfrwt>
<pdfrwt beam="2">  1       -1 0.14998505E-01 0.96694090E+02</pdfrwt>
<totfact> 0.13008529E+03</totfact>
</mgrwt>
</event>
<event>
 8    1  0.3400573E-004  0.1006143E+03  0.7546771E-02  0.1280407E+00
         -1   -1    0    0    0  501 -0.00000000000E+00  0.00000000000E+00  0.13397542369E+02  0.13397542369E+02  0.00000000000E+00 0.  1.
          1   -1    0    0  501    0  0.00000000000E+00 -0.00000000000E+00 -0.73618824276E+03  0.73618824276E+03  0.00000000000E+00 0. -1.
         23    2    1    2    0    0 -0.41907365001E+02 -0.10259707718E+02 -0.37369550978E+03  0.38700331415E+03  0.90894126830E+02 0.  0.
         23    2    1    2    0    0  0.41907365001E+02  0.10259707718E+02 -0.34909519061E+03  0.36258247098E+03  0.87960828257E+02 0.  0.
          5    1    4    4  502    0 -0.75587832370E+00  0.41501996838E+02 -0.11001566251E+03  0.11767974801E+03  0.47000000000E+01 0. -1.
         -5    1    4    4    0  502  0.42663243325E+02 -0.31242289120E+02 -0.23907952810E+03  0.24490272297E+03  0.47000000000E+01 0.  1.
          5    1    3    3  503    0 -0.20784210704E+02  0.23318953376E+02 -0.31141049718E+03  0.31300853783E+03  0.47000000000E+01 0. -1.
         -5    1    3    3    0  503 -0.21123154297E+02 -0.33578661094E+02 -0.62285012594E+02  0.73994776317E+02  0.47000000000E+01 0.  1.
<mgrwt>
<rscale>  0 0.99947204E+02</rscale>
<asrwt>0</asrwt>
<pdfrwt beam="1">  1        1 0.11325972E+00 0.10061427E+03</pdfrwt>
<pdfrwt beam="2">  1       -1 0.20611605E-02 0.10061427E+03</pdfrwt>
<totfact> 0.15925441E+04</totfact>
</mgrwt>
</event>
<event>
 8    1  0.3400573E-004  0.9534431E+02  0.7546771E-02  0.1291623E+00
         -2   -1    0    0    0  501 -0.00000000000E+00  0.00000000000E+00  0.22925100899E+02  0.22925100899E+02  0.00000000000E+00 0.  1.
          2   -1    0    0  501    0  0.00000000000E+00 -0.00000000000E+00 -0.55892490599E+03  0.55892490599E+03  0.00000000000E+00 0. -1.
         23    2    1    2    0    0 -0.19184800553E+02  0.16914227809E+02 -0.43116570388E+03  0.44158170477E+03  0.91849823699E+02 0.  0.
         23    2    1    2    0    0  0.19184800553E+02 -0.16914227809E+02 -0.10483410122E+03  0.14026830212E+03  0.89615066407E+02 0.  0.
          5    1    3    3  502    0 -0.38629349616E+02  0.44770277747E+02 -0.23072587220E+03  0.23822913870E+03  0.47000000000E+01 0. -1.
         -5    1    3    3    0  502  0.19444549063E+02 -0.27856049938E+02 -0.20043983167E+03  0.20335256607E+03  0.47000000000E+01 0.  1.
          5    1    4    4  503    0  0.35874554888E+02  0.12248451396E+02 -0.98642435542E+02  0.10578009425E+03  0.47000000000E+01 0. -1.
         -5    1    4    4    0  503 -0.16689754335E+02 -0.29162679205E+02 -0.61916656731E+01  0.34488207868E+02  0.47000000000E+01 0.  1.
<mgrwt>
<rscale>  0 0.94801971E+02</rscale>
<asrwt>0</asrwt>
<pdfrwt beam="1">  1        2 0.85988455E-01 0.95344312E+02</pdfrwt>
<pdfrwt beam="2">  1       -2 0.35269383E-02 0.95344312E+02</pdfrwt>
<totfact> 0.16693472E+04</totfact>
</mgrwt>
</event>
<event>
 8    1  0.3400573E-004  0.9887242E+02  0.7546771E-02  0.1283843E+00
         -1   -1    0    0    0  501 -0.00000000000E+00  0.00000000000E+00  0.30328886334E+02  0.30328886334E+02  0.00000000000E+00 0.  1.
          1   -1    0    0  501    0  0.00000000000E+00 -0.00000000000E+00 -0.62526380948E+03  0.62526380948E+03  0.00000000000E+00 0. -1.
         23    2    1    2    0    0  0.25077718542E+02  0.28769298602E+02 -0.68350327679E+02  0.12019784616E+03  0.91209596084E+02 0.  0.
         23    2    1    2    0    0 -0.25077718542E+02 -0.28769298602E+02 -0.52658459546E+03  0.53539484965E+03  0.88880505994E+02 0.  0.
          5    1    3    3  502    0  0.28695450931E+02 -0.11310010687E+02 -0.73027323849E+02  0.79413004441E+02  0.47000000000E+01 0. -1.
         -5    1    3    3    0  502 -0.36177323886E+01  0.40079309288E+02  0.46769961702E+01  0.40784841716E+02  0.47000000000E+01 0.  1.
          5    1    4    4  503    0 -0.54765953216E+02 -0.33031763570E+02 -0.29940524258E+03  0.30619600964E+03  0.47000000000E+01 0. -1.
         -5    1    4    4    0  503  0.29688234674E+02  0.42624649689E+01 -0.22717935289E+03  0.22919884001E+03  0.47000000000E+01 0.  1.
<mgrwt>
<rscale>  0 0.98331901E+02</rscale>
<asrwt>0</asrwt>
<pdfrwt beam="1">  1        1 0.96194436E-01 0.98872417E+02</pdfrwt>
<pdfrwt beam="2">  1       -1 0.46659823E-02 0.98872417E+02</pdfrwt>
<totfact> 0.61312589E+03</totfact>
</mgrwt>
</event>
<event>
 8    1  0.3400573E-004  0.1252346E+03  0.7546771E-02  0.1235943E+00
          2   -1    0    0  501    0  0.00000000000E+00  0.00000000000E+00  0.35168378125E+03  0.35168378125E+03  0.00000000000E+00 0. -1.
         -2   -1    0    0    0  501 -0.00000000000E+00 -0.00000000000E+00 -0.45945320231E+02  0.45945320231E+02  0.00000000000E+00 0.  1.
         23    2    1    2    0    0 -0.61272800230E+02 -0.56578694478E+02  0.19703183647E+03  0.23179530632E+03  0.89174069840E+02 0.  0.
         23    2    1    2    0    0  0.61272800230E+02  0.56578694478E+02  0.10870662455E+03  0.16583379516E+03  0.93424903961E+02 0.  0.
          5    1    3    3  502    0 -0.36597690174E+02  0.11196486166E+02  0.27100313074E+02  0.47130342639E+02  0.47000000000E+01 0. -1.
         -5    1    4    4    0  503  0.37038447344E+01  0.41792635623E+02  0.42355727394E+00  0.42220993107E+02  0.47000000000E+01 0.  1.
          5    1    4    4  503    0  0.57568955496E+02  0.14786058855E+02  0.10828306728E+03  0.12361280206E+03  0.47000000000E+01 0. -1.
         -5    1    3    3    0  502 -0.24675110057E+02 -0.67775180644E+02  0.16993152339E+03  0.18466496368E+03  0.47000000000E+01 0.  1.
<mgrwt>
<rscale>  0 0.12444259E+03</rscale>
<asrwt>0</asrwt>
<pdfrwt beam="1">  1        2 0.54105195E-01 0.12523465E+03</pdfrwt>
<pdfrwt beam="2">  1       -2 0.70685110E-02 0.12523465E+03</pdfrwt>
<totfact> 0.99419150E+03</totfact>
</mgrwt>
</event>
<event>
 8    1  0.3400573E-004  0.9565344E+02  0.7546771E-02  0.1291043E+00
          1   -1    0    0  501    0  0.00000000000E+00  0.00000000000E+00  0.10113431203E+03  0.10113431203E+03  0.00000000000E+00 0. -1.
         -1   -1    0    0    0  501 -0.00000000000E+00 -0.00000000000E+00 -0.14034849607E+03  0.14034849607E+03  0.00000000000E+00 0.  1.
         23    2    1    2    0    0  0.19013030237E+02  0.46684489114E+01 -0.93316970144E+02  0.13363247251E+03  0.93628473541E+02 0.  0.
         23    2    1    2    0    0 -0.19013030237E+02 -0.46684489114E+01  0.54102786105E+02  0.10785033559E+03  0.91221125233E+02 0.  0.
          5    1    4    4  502    0  0.34221796784E+02 -0.15680972293E+02  0.15346191115E+02  0.40922119311E+02  0.47000000000E+01 0.  1.
         -5    1    3    3    0  503 -0.20584291496E+02  0.37957250949E+02 -0.47561590965E+02  0.64410099294E+02  0.47000000000E+01 0.  1.
          5    1    3    3  503    0  0.39597321733E+02 -0.33288802038E+02 -0.45755379179E+02  0.69222373213E+02  0.47000000000E+01 0. -1.
         -5    1    4    4    0  502 -0.53234827021E+02  0.11012523382E+02  0.38756594990E+02  0.66928216279E+02  0.47000000000E+01 0. -1.
<mgrwt>
<rscale>  0 0.95059155E+02</rscale>
<asrwt>0</asrwt>
<pdfrwt beam="1">  1        1 0.15559125E-01 0.95653441E+02</pdfrwt>
<pdfrwt beam="2">  1       -1 0.21592076E-01 0.95653441E+02</pdfrwt>
<totfact> 0.58466919E+03</totfact>
</mgrwt>
</event>
<event>
 8    1  0.3400573E-004  0.9894707E+02  0.7546771E-02  0.1282541E+00
         -2   -1    0    0    0  501 -0.00000000000E+00  0.00000000000E+00  0.19300207666E+03  0.19300207666E+03  0.00000000000E+00 0.  1.
          2   -1    0    0  501    0  0.00000000000E+00 -0.00000000000E+00 -0.51319885022E+02  0.51319885022E+02  0.00000000000E+00 0. -1.
         23    2    1    2    0    0  0.36890777577E+02 -0.87777786420E+01  0.84137598446E+02  0.12988324935E+03  0.91392254168E+02 0.  0.
         23    2    1    2    0    0 -0.36890777577E+02  0.87777786420E+01  0.57544593194E+02  0.11443871233E+03  0.91361150422E+02 0.  0.
          5    1    4    4  502    0 -0.55016862282E+02  0.35742788266E+02  0.42614218064E+02  0.78373870835E+02  0.47000000000E+01 0. -1.
         -5    1    3    3    0  503  0.16046325775E+02 -0.40675683092E+02  0.79969133242E+02  0.91264166228E+02  0.47000000000E+01 0.  1.
          5    1    3    3  503    0  0.20844451802E+02  0.31897904450E+02  0.41684652047E+01  0.38619083124E+02  0.47000000000E+01 0. -1.
         -5    1    4    4    0  502  0.18126084706E+02 -0.26965009624E+02  0.14930375130E+02  0.36064841498E+02  0.47000000000E+01 0.  1.
<mgrwt>
<rscale>  0 0.98939889E+02</rscale>
<asrwt>0</asrwt>
<pdfrwt beam="1">  1        2 0.78953670E-02 0.98947072E+02</pdfrwt>
<pdfrwt beam="2">  1       -2 0.29692627E-01 0.98947072E+02</pdfrwt>
<totfact> 0.82449844E+03</totfact>
</mgrwt>
</event>
<event>
 8    1  0.3400573E-004  0.9431584E+02  0.7546771E-02  0.1292936E+00
         -1   -1    0    0    0  501 -0.00000000000E+00  0.00000000000E+00  0.74335583074E+02  0.74335583074E+02  0.00000000000E+00 0.  1.
          1   -1    0    0  501    0  0.00000000000E+00 -0.00000000000E+00 -0.14627982524E+03  0.14627982524E+03  0.00000000000E+00 0. -1.
         23    2    1    2    0    0  0.79250474235E+01  0.19208264095E+02  0.11434040931E+02  0.95006389526E+02  0.91998440055E+02 0.  0.
         23    2    1    2    0    0 -0.79250474235E+01 -0.19208264095E+02 -0.83378283101E+02  0.12560901879E+03  0.91618359091E+02 0.  0.
          5    1    3    3  502    0  0.29438815476E+02 -0.24614471827E+02 -0.12233903545E+02  0.40549654449E+02  0.47000000000E+01 0. -1.
         -5    1    4    4    0  503  0.36667558862E+02  0.57207678047E+01 -0.15423004167E+02  0.40462280147E+02  0.47000000000E+01 0.  1.
          5    1    4    4  503    0 -0.44592606285E+02 -0.24929031899E+02 -0.67955278934E+02  0.85146738644E+02  0.47000000000E+01 0. -1.
         -5    1    3    3    0  502 -0.21513768052E+02  0.43822735922E+02  0.23667944477E+02  0.54456735077E+02  0.47000000000E+01 0.  1.
<mgrwt>
<rscale>  0 0.94223022E+02</rscale>
<asrwt>0</asrwt>
<pdfrwt beam="1">  1        1 0.22504588E-01 0.94315835E+02</pdfrwt>
<pdfrwt beam="2">  1       -1 0.11436244E-01 0.94315835E+02</pdfrwt>
<totfact> 0.98726705E+03</totfact>
</mgrwt>
</event>
<event>
 8    1  0.3673630E-004  0.1122185E+03  0.7546771E-02  0.1263391E+00
         -1   -1    0    0    0  501 -0.00000000000E+00  0.00000000000E+00  0.96396391841E+02  0.96396391841E+02  0.00000000000E+00 0.  1.
          1   -1    0    0  501    0  0.00000000000E+00 -0.00000000000E+00 -0.25821958660E+03  0.25821958660E+03  0.00000000000E+00 0. -1.
         23    2    1    2    0    0  0.10129522288E+02 -0.39324656737E+02 -0.21541365094E+03  0.24289097893E+03  0.10461333941E+03 0.  0.
         23    2    1    2    0    0 -0.10129522288E+02  0.39324656737E+02  0.53590456189E+02  0.11172499951E+03  0.89227252966E+02 0.  0.
          5    1    4    4  502    0  0.31775796206E+02 -0.90425039916E+01  0.23744586787E+02  0.40955628485E+02  0.47000000000E+01 0. -1.
         -5    1    4    4    0  502 -0.41905318494E+02  0.48367160728E+02  0.29845869402E+02  0.70769371025E+02  0.47000000000E+01 0.  1.
          5    1    3    3  503    0  0.18658567798E+01 -0.61136376075E+02 -0.20960666765E+03  0.21839913696E+03  0.47000000000E+01 0. -1.
         -5    1    3    3    0  503  0.82636655084E+01  0.21811719338E+02 -0.58069832968E+01  0.24491841971E+02  0.47000000000E+01 0.  1.
<mgrwt>
<rscale>  0 0.10849051E+03</rscale>
<asrwt>0</asrwt>
<pdfrwt beam="1">  1        1 0.39726090E-01 0.11221848E+03</pdfrwt>
<pdfrwt beam="2">  1       -1 0.14830214E-01 0.11221848E+03</pdfrwt>
<totfact> 0.33199490E+03</totfact>
</mgrwt>
</event>
<event>
 8    1  0.3400573E-004  0.9251092E+02  0.7546771E-02  0.1298044E+00
          2   -1    0    0  501    0  0.00000000000E+00  0.00000000000E+00  0.19600333374E+03  0.19600333374E+03  0.00000000000E+00 0. -1.
         -2   -1    0    0    0  501 -0.00000000000E+00 -0.00000000000E+00 -0.44270923656E+02  0.44270923656E+02  0.00000000000E+00 0.  1.
         23    2    1    2    0    0  0.11444106457E+02 -0.78285617975E+01  0.97415352987E+02  0.13299605244E+03  0.89475946574E+02 0.  0.
         23    2    1    2    0    0 -0.11444106457E+02  0.78285617975E+01  0.54317057099E+02  0.10727820496E+03  0.91465931440E+02 0.  0.
          5    1    4    4  502    0  0.35250040382E+02  0.10187750677E+02  0.21301868859E+01  0.37053789374E+02  0.47000000000E+01 0. -1.
         -5    1    3    3    0  503  0.29643801496E+02 -0.39699598914E+02  0.36480012119E+02  0.61706518337E+02  0.47000000000E+01 0.  1.
          5    1    3    3  503    0 -0.18199695038E+02  0.31871037116E+02  0.60935340868E+02  0.71289534106E+02  0.47000000000E+01 0. -1.
         -5    1    4    4    0  502 -0.46694146839E+02 -0.23591888795E+01  0.52186870213E+02  0.70224415582E+02  0.47000000000E+01 0.  1.
<mgrwt>
<rscale>  0 0.92015197E+02</rscale>
<asrwt>0</asrwt>
<pdfrwt beam="1">  1        2 0.30154358E-01 0.92510921E+02</pdfrwt>
<pdfrwt beam="2">  1       -2 0.68109115E-02 0.92510921E+02</pdfrwt>
<totfact> 0.18997455E+04</totfact>
</mgrwt>
</event>
<event>
 8    1  0.3400573E-004  0.1079786E+03  0.7546771E-02  0.1267084E+00
         -1   -1    0    0    0  501 -0.00000000000E+00  0.00000000000E+00  0.54798456294E+03  0.54798456294E+03  0.00000000000E+00 0.  1.
          1   -1    0    0  501    0  0.00000000000E+00 -0.00000000000E+00 -0.20356346292E+02  0.20356346292E+02  0.00000000000E+00 0. -1.
         23    2    1    2    0    0 -0.31802158940E+02 -0.46990932876E+02  0.23130841955E+03  0.25296048736E+03  0.85240237706E+02 0.  0.
         23    2    1    2    0    0  0.31802158940E+02  0.46990932876E+02  0.29631979710E+03  0.31538042188E+03  0.91868728429E+02 0.  0.
          5    1    3    3  502    0  0.17090198290E+02 -0.32549823631E+02  0.38378372759E+02  0.53353119793E+02  0.47000000000E+01 0. -1.
         -5    1    4    4    0  503 -0.15769722395E+02  0.48402301804E+02  0.21541021184E+03  0.22139357789E+03  0.47000000000E+01 0.  1.
          5    1    4    4  503    0  0.47571881335E+02 -0.14113689284E+01  0.80909585258E+02  0.93986843987E+02  0.47000000000E+01 0. -1.
         -5    1    3    3    0  502 -0.48892357230E+02 -0.14441109244E+02  0.19293004679E+03  0.19960736757E+03  0.47000000000E+01 0.  1.
<mgrwt>
<rscale>  0 0.10655569E+03</rscale>
<asrwt>0</asrwt>
<pdfrwt beam="1">  1        1 0.31317460E-02 0.10797865E+03</pdfrwt>
<pdfrwt beam="2">  1       -1 0.84305306E-01 0.10797865E+03</pdfrwt>
<totfact> 0.44101011E+03</totfact>
</mgrwt>
</event>
<event>
 8    1  0.3400573E-004  0.1060230E+03  0.7546771E-02  0.1274272E+00
          2   -1    0    0  501    0  0.00000000000E+00  0.00000000000E+00  0.57876858200E+03  0.57876858200E+03  0.00000000000E+00 0. -1.
         -2   -1    0    0    0  501 -0.00000000000E+00 -0.00000000000E+00 -0.17375480756E+02  0.17375480756E+02  0.00000000000E+00 0.  1.
         23    2    1    2    0    0 -0.18371469153E+02 -0.26420705321E+02  0.28272083228E+03  0.29798454095E+03  0.88476850595E+02 0.  0.
         23    2    1    2    0    0  0.18371469153E+02  0.26420705321E+02  0.27867226896E+03  0.29815952180E+03  0.10102129680E+03 0.  0.
          5    1    3    3  502    0 -0.51313683173E+02 -0.77389903647E-01  0.16408506534E+03  0.17198575156E+03  0.47000000000E+01 0. -1.
         -5    1    3    3    0  502  0.32942214019E+02 -0.26343315417E+02  0.11863576694E+03  0.12599878939E+03  0.47000000000E+01 0.  1.
          5    1    4    4  503    0 -0.19750073807E+02 -0.95794111781E+01  0.21211488887E+03  0.21329942947E+03  0.47000000000E+01 0. -1.
         -5    1    4    4    0  503  0.38121542961E+02  0.36000116499E+02  0.66557380090E+02  0.84860092329E+02  0.47000000000E+01 0.  1.
<mgrwt>
<rscale>  0 0.10292051E+03</rscale>
<asrwt>0</asrwt>
<pdfrwt beam="1">  1        2 0.89041305E-01 0.10602295E+03</pdfrwt>
<pdfrwt beam="2">  1       -2 0.26731513E-02 0.10602295E+03</pdfrwt>
<totfact> 0.24307284E+04</totfact>
</mgrwt>
</event>
<event>
 8    1  0.3400573E-004  0.9259897E+02  0.7546771E-02  0.1296972E+00
          3   -1    0    0  501    0  0.00000000000E+00  0.00000000000E+00  0.77073212375E+03  0.77073212375E+03  0.00000000000E+00 0. -1.
         -3   -1    0    0    0  501 -0.00000000000E+00 -0.00000000000E+00 -0.11146972275E+02  0.11146972275E+02  0.00000000000E+00 0.  1.
         23    2    1    2    0    0 -0.10840521861E+02  0.16658223660E+02  0.41234480090E+03  0.42250404059E+03  0.89924502509E+02 0.  0.
         23    2    1    2    0    0  0.10840521861E+02 -0.16658223660E+02  0.34724035057E+03  0.35937505543E+03  0.90440898246E+02 0.  0.
          5    1    3    3  502    0 -0.16220406890E+02  0.50511929103E+02  0.30804063754E+03  0.31261106979E+03  0.47000000000E+01 0. -1.
         -5    1    4    4    0  503  0.48485713845E+02 -0.11249662051E+02  0.24808029672E+03  0.25306786236E+03  0.47000000000E+01 0.  1.
          5    1    4    4  503    0 -0.37645191984E+02 -0.54085616092E+01  0.99160053854E+02  0.10630719307E+03  0.47000000000E+01 0. -1.
         -5    1    3    3    0  502  0.53798850285E+01 -0.33853705443E+02  0.10430416336E+03  0.10989297080E+03  0.47000000000E+01 0.  1.
<mgrwt>
<rscale>  0 0.92472639E+02</rscale>
<asrwt>0</asrwt>
<pdfrwt beam="1">  1        3 0.11857413E+00 0.92598971E+02</pdfrwt>
<pdfrwt beam="2">  1       -3 0.17149194E-02 0.92598971E+02</pdfrwt>
<totfact> 0.15802941E+03</totfact>
</mgrwt>
</event>
<event>
 8    1  0.3400573E-004  0.1031334E+03  0.7546771E-02  0.1274519E+00
         -1   -1    0    0    0  501 -0.00000000000E+00  0.00000000000E+00  0.13007752239E+03  0.13007752239E+03  0.00000000000E+00 0.  1.
          1   -1    0    0  501    0  0.00000000000E+00 -0.00000000000E+00 -0.80742826914E+02  0.80742826914E+02  0.00000000000E+00 0. -1.
         23    2    1    2    0    0 -0.39415858731E+02 -0.28086185992E+02  0.22906987168E+02  0.10564670685E+03  0.91071690686E+02 0.  0.
         23    2    1    2    0    0  0.39415858731E+02  0.28086185992E+02  0.26427708309E+02  0.10517364245E+03  0.89557956304E+02 0.  0.
          5    1    4    4  502    0  0.67446929857E+02  0.27750466584E+02  0.22563910297E+02  0.76487886562E+02  0.47000000000E+01 0. -1.
         -5    1    3    3    0  503 -0.11997552299E+02 -0.19924067001E+02  0.56496189617E+02  0.61276579117E+02  0.47000000000E+01 0.  1.
          5    1    3    3  503    0 -0.27418306432E+02 -0.81621189911E+01 -0.33589202449E+02  0.44370127735E+02  0.47000000000E+01 0. -1.
         -5    1    4    4    0  502 -0.28031071126E+02  0.33571940741E+00  0.38637980119E+01  0.28685755892E+02  0.47000000000E+01 0.  1.
<mgrwt>
<rscale>  0 0.10279821E+03</rscale>
<asrwt>0</asrwt>
<pdfrwt beam="1">  1        1 0.12421973E-01 0.10313339E+03</pdfrwt>
<pdfrwt beam="2">  1       -1 0.20011926E-01 0.10313339E+03</pdfrwt>
<totfact> 0.88784180E+03</totfact>
</mgrwt>
</event>
<event>
 8    1  0.3400573E-004  0.1288933E+03  0.7546771E-02  0.1230163E+00
         -1   -1    0    0    0  501 -0.00000000000E+00  0.00000000000E+00  0.71362970568E+02  0.71362970568E+02  0.00000000000E+00 0.  1.
          1   -1    0    0  501    0  0.00000000000E+00 -0.00000000000E+00 -0.24904693140E+03  0.24904693140E+03  0.00000000000E+00 0. -1.
         23    2    1    2    0    0  0.95080700136E+00 -0.90564381476E+02 -0.41169339342E+02  0.13266081421E+03  0.87756286950E+02 0.  0.
         23    2    1    2    0    0 -0.95080700136E+00  0.90564381476E+02 -0.13651462149E+03  0.18774908776E+03  0.91709687858E+02 0.  0.
          5    1    3    3  502    0  0.24217596232E+02 -0.42927264626E+01 -0.34913745659E+02  0.42964858939E+02  0.47000000000E+01 0. -1.
         -5    1    4    4    0  503  0.38668106865E+02  0.12154905939E+02 -0.39656075770E+02  0.56900426820E+02  0.47000000000E+01 0.  1.
          5    1    4    4  503    0 -0.39618913866E+02  0.78409475536E+02 -0.96858545722E+02  0.13084866094E+03  0.47000000000E+01 0. -1.
         -5    1    3    3    0  502 -0.23266789231E+02 -0.86271655013E+02 -0.62555936826E+01  0.89695955272E+02  0.47000000000E+01 0.  1.
<mgrwt>
<rscale>  0 0.12819200E+03</rscale>
<asrwt>0</asrwt>
<pdfrwt beam="1">  1        1 0.38314913E-01 0.12889328E+03</pdfrwt>
<pdfrwt beam="2">  1       -1 0.10978918E-01 0.12889328E+03</pdfrwt>
<totfact> 0.55672394E+03</totfact>
</mgrwt>
</event>
<event>
 8    1  0.3400573E-004  0.1219789E+03  0.7546771E-02  0.1239926E+00
          1   -1    0    0  501    0  0.00000000000E+00  0.00000000000E+00  0.59987288446E+03  0.59987288446E+03  0.00000000000E+00 0. -1.
         -1   -1    0    0    0  501 -0.00000000000E+00 -0.00000000000E+00 -0.42520583876E+02  0.42520583876E+02  0.00000000000E+00 0.  1.
         23    2    1    2    0    0  0.56540672868E+02  0.58147183457E+02  0.48608503420E+03  0.50112115558E+03  0.90916497222E+02 0.  0.
         23    2    1    2    0    0 -0.56540672868E+02 -0.58147183457E+02  0.71267266384E+02  0.14127231275E+03  0.91109277575E+02 0.  0.
          5    1    4    4  502    0 -0.68631895474E+01 -0.36274030257E+02  0.77952869110E+02  0.86380833779E+02  0.47000000000E+01 0. -1.
         -5    1    3    3    0  503  0.41872956763E+02 -0.38365010933E+01  0.84627132220E+02  0.94614506058E+02  0.47000000000E+01 0.  1.
          5    1    3    3  503    0  0.14667716105E+02  0.61983684550E+02  0.40145790198E+03  0.40650664952E+03  0.47000000000E+01 0. -1.
         -5    1    4    4    0  502 -0.49677483321E+02 -0.21873153200E+02 -0.66856027267E+01  0.54891478973E+02  0.47000000000E+01 0.  1.
<mgrwt>
<rscale>  0 0.12194287E+03</rscale>
<asrwt>0</asrwt>
<pdfrwt beam="1">  1        1 0.92288130E-01 0.12197886E+03</pdfrwt>
<pdfrwt beam="2">  1       -1 0.65416287E-02 0.12197886E+03</pdfrwt>
<totfact> 0.39830144E+03</totfact>
</mgrwt>
</event>
<event>
 8    1  0.3400573E-004  0.1091390E+03  0.7546771E-02  0.1266025E+00
         -3   -1    0    0    0  501 -0.00000000000E+00  0.00000000000E+00  0.71929251684E+03  0.71929251684E+03  0.00000000000E+00 0.  1.
          3   -1    0    0  501    0  0.00000000000E+00 -0.00000000000E+00 -0.18185175473E+02  0.18185175473E+02  0.00000000000E+00 0. -1.
         23    2    1    2    0    0 -0.38113752679E+02 -0.36463000397E+02  0.19471469016E+03  0.21945757083E+03  0.86403740000E+02 0.  0.
         23    2    1    2    0    0  0.38113752679E+02  0.36463000397E+02  0.50639265120E+03  0.51802012148E+03  0.95546431289E+02 0.  0.
          5    1    4    4  502    0 -0.31357917679E+02  0.85988973211E+01  0.19315525532E+03  0.19592933087E+03  0.47000000000E+01 0. -1.
         -5    1    4    4    0  502  0.69471670359E+02  0.27864103075E+02  0.31323739587E+03  0.32209079061E+03  0.47000000000E+01 0. -1.
          5    1    3    3  503    0 -0.24194702335E+02  0.22483836978E+02  0.11178629520E+03  0.11665835736E+03  0.47000000000E+01 0.  1.
         -5    1    3    3    0  503 -0.13919050344E+02 -0.58946837374E+02  0.82928394965E+02  0.10279921347E+03  0.47000000000E+01 0.  1.
<mgrwt>
<rscale>  0 0.10710605E+03</rscale>
<asrwt>0</asrwt>
<pdfrwt beam="1">  1        3 0.27977199E-02 0.10913904E+03</pdfrwt>
<pdfrwt beam="2">  1       -3 0.11066037E+00 0.10913904E+03</pdfrwt>
<totfact> 0.90640976E+02</totfact>
</mgrwt>
</event>
<event>
 8    1  0.3400573E-004  0.1113661E+03  0.7546771E-02  0.1258315E+00
         -3   -1    0    0    0  501 -0.00000000000E+00  0.00000000000E+00  0.48185664032E+02  0.48185664032E+02  0.00000000000E+00 0.  1.
          3   -1    0    0  501    0  0.00000000000E+00 -0.00000000000E+00 -0.25901495099E+03  0.25901495099E+03  0.00000000000E+00 0. -1.
         23    2    1    2    0    0 -0.54205077595E+02 -0.36089220291E+02 -0.89389805508E+02  0.14280386171E+03  0.90342588701E+02 0.  0.
         23    2    1    2    0    0  0.54205077595E+02  0.36089220291E+02 -0.12143948145E+03  0.16439675331E+03  0.89655577549E+02 0.  0.
          5    1    4    4  502    0  0.70134904630E+02  0.20906796449E+02 -0.12147397890E+03  0.14189438514E+03  0.47000000000E+01 0. -1.
         -5    1    3    3    0  503 -0.28427461793E+02  0.29154428580E+02 -0.30541470024E+02  0.51117244458E+02  0.47000000000E+01 0.  1.
          5    1    3    3  503    0 -0.25777615802E+02 -0.65243648870E+02 -0.58848335484E+02  0.91686617255E+02  0.47000000000E+01 0. -1.
         -5    1    4    4    0  502 -0.15929827035E+02  0.15182423841E+02  0.34497449321E-01  0.22502368167E+02  0.47000000000E+01 0.  1.
<mgrwt>
<rscale>  0 0.11122668E+03</rscale>
<asrwt>0</asrwt>
<pdfrwt beam="1">  1        3 0.39848455E-01 0.11136609E+03</pdfrwt>
<pdfrwt beam="2">  1       -3 0.74131789E-02 0.11136609E+03</pdfrwt>
<totfact> 0.16765419E+03</totfact>
</mgrwt>
</event>
<event>
 8    1  0.3400573E-004  0.1031471E+03  0.7546771E-02  0.1277321E+00
         -3   -1    0    0    0  501 -0.00000000000E+00  0.00000000000E+00  0.54265049363E+03  0.54265049363E+03  0.00000000000E+00 0.  1.
          3   -1    0    0  501    0  0.00000000000E+00 -0.00000000000E+00 -0.27735804869E+02  0.27735804869E+02  0.00000000000E+00 0. -1.
         23    2    1    2    0    0  0.30733222313E+02  0.37433420917E+01  0.42900245647E+03  0.44122832875E+03  0.98390989792E+02 0.  0.
         23    2    1    2    0    0 -0.30733222313E+02 -0.37433420917E+01  0.85912232288E+02  0.12915796974E+03  0.91336334106E+02 0.  0.
          5    1    4    4  502    0 -0.41551919803E+02  0.35659897795E+02  0.54555673729E+02  0.77437729087E+02  0.47000000000E+01 0. -1.
         -5    1    3    3    0  503  0.64465731956E+02 -0.72051732382E+01  0.22921781516E+03  0.23826590588E+03  0.47000000000E+01 0.  1.
          5    1    3    3  503    0 -0.33732509643E+02  0.10948515330E+02  0.19978464131E+03  0.20296242287E+03  0.47000000000E+01 0. -1.
         -5    1    4    4    0  502  0.10818697490E+02 -0.39403239887E+02  0.31356558559E+02  0.51720240657E+02  0.47000000000E+01 0.  1.
<mgrwt>
<rscale>  0 0.10142810E+03</rscale>
<asrwt>0</asrwt>
<pdfrwt beam="1">  1        3 0.42670473E-02 0.10314713E+03</pdfrwt>
<pdfrwt beam="2">  1       -3 0.83484683E-01 0.10314713E+03</pdfrwt>
<totfact> 0.87824216E+02</totfact>
</mgrwt>
</event>
<event>
 8    1  0.3400573E-004  0.1180194E+03  0.7546771E-02  0.1257512E+00
         -1   -1    0    0    0  501 -0.00000000000E+00  0.00000000000E+00  0.59911523055E+02  0.59911523055E+02  0.00000000000E+00 0.  1.
          1   -1    0    0  501    0  0.00000000000E+00 -0.00000000000E+00 -0.29065120387E+03  0.29065120387E+03  0.00000000000E+00 0. -1.
         23    2    1    2    0    0 -0.93005055753E+01  0.23554292894E+02 -0.36801778053E+01  0.94663142264E+02  0.91138700216E+02 0.  0.
         23    2    1    2    0    0  0.93005055753E+01 -0.23554292894E+02 -0.22705950301E+03  0.25589958466E+03  0.11527044463E+03 0.  0.
          5    1    3    3  502    0  0.21107766253E+02 -0.18792169444E+02 -0.25115600147E+02  0.38099433058E+02  0.47000000000E+01 0. -1.
         -5    1    3    3    0  502 -0.30408271828E+02  0.42346462338E+02  0.21435422342E+02  0.56563709206E+02  0.47000000000E+01 0.  1.
          5    1    4    4  503    0 -0.16468366721E+02 -0.47362307821E+02 -0.21118256159E+03  0.21710495071E+03  0.47000000000E+01 0. -1.
         -5    1    4    4    0  503  0.25768872296E+02  0.23808014927E+02 -0.15876941419E+02  0.38794633946E+02  0.47000000000E+01 0.  1.
<mgrwt>
<rscale>  0 0.11166786E+03</rscale>
<asrwt>0</asrwt>
<pdfrwt beam="1">  1        1 0.44715569E-01 0.11801940E+03</pdfrwt>
<pdfrwt beam="2">  1       -1 0.92171576E-02 0.11801940E+03</pdfrwt>
<totfact> 0.59730506E+03</totfact>
</mgrwt>
</event>
<event>
 8    1  0.3400573E-004  0.1417612E+03  0.7546771E-02  0.1211443E+00
          2   -1    0    0  501    0  0.00000000000E+00  0.00000000000E+00  0.63046956521E+02  0.63046956521E+02  0.00000000000E+00 0. -1.
         -2   -1    0    0    0  501 -0.00000000000E+00 -0.00000000000E+00 -0.48426338596E+03  0.48426338596E+03  0.00000000000E+00 0.  1.
         23    2    1    2    0    0  0.50324235730E+02  0.96571038597E+02 -0.37141946232E+03  0.39705734316E+03  0.88564228508E+02 0.  0.
         23    2    1    2    0    0 -0.50324235730E+02 -0.96571038597E+02 -0.49796967120E+02  0.15025299932E+03  0.90761950580E+02 0.  0.
          5    1    3    3  502    0  0.33193885812E+01  0.54780713745E+02 -0.28381396314E+03  0.28910966883E+03  0.47000000000E+01 0. -1.
         -5    1    4    4    0  503  0.15543166895E+02 -0.39337385452E+02 -0.46170447695E+02  0.62791879822E+02  0.47000000000E+01 0.  1.
          5    1    4    4  503    0 -0.65867402625E+02 -0.57233653145E+02 -0.36265194257E+01  0.87461119499E+02  0.47000000000E+01 0. -1.
         -5    1    3    3    0  502  0.47004847149E+02  0.41790324852E+02 -0.87605499183E+02  0.10794767433E+03  0.47000000000E+01 0.  1.
<mgrwt>
<rscale>  0 0.14141063E+03</rscale>
<asrwt>0</asrwt>
<pdfrwt beam="1">  1        2 0.96995319E-02 0.14176116E+03</pdfrwt>
<pdfrwt beam="2">  1       -2 0.74502058E-01 0.14176116E+03</pdfrwt>
<totfact> 0.10834057E+03</totfact>
</mgrwt>
</event>
<event>
 7    1  0.3400573E-004  0.1661091E+03  0.7546771E-02  0.1193583E+00
         -3   -1    0    0    0  501 -0.00000000000E+00  0.00000000000E+00  0.27553833156E+03  0.27553833156E+03  0.00000000000E+00 0.  1.
          3   -1    0    0  501    0  0.00000000000E+00 -0.00000000000E+00 -0.80956284249E+02  0.80956284249E+02  0.00000000000E+00 0. -1.
         23    2    1    2    0    0 -0.88891335221E+02 -0.18751525131E+02  0.11477983565E+03  0.17221050425E+03  0.90712501516E+02 0.  0.
          5    1    3    3  502    0  0.79438455397E+00 -0.32395827822E+02  0.53187527775E+02  0.62458977081E+02  0.47000000000E+01 0. -1.
         -5    1    3    3    0  502 -0.89685719775E+02  0.13644302691E+02  0.61592307874E+02  0.10975152717E+03  0.47000000000E+01 0.  1.
          5    1    1    2  503    0  0.10197860975E+03  0.17758062357E+01  0.60617594235E+00  0.10210410267E+03  0.47000000000E+01 0. -1.
         -5    1    1    2    0  503 -0.13087274525E+02  0.16975718895E+02  0.79196035722E+02  0.82180008886E+02  0.47000000000E+01 0.  1.
<mgrwt>
<rscale>  0 0.15574765E+03</rscale>
<asrwt>0</asrwt>
<pdfrwt beam="1">  1        3 0.12454813E-01 0.16610912E+03</pdfrwt>
<pdfrwt beam="2">  1       -3 0.42390512E-01 0.16610912E+03</pdfrwt>
<totfact> 0.67386486E+02</totfact>
</mgrwt>
</event>
<event>
 8    1  0.3400573E-004  0.1016460E+03  0.7546771E-02  0.1287216E+00
         -2   -1    0    0    0  501 -0.00000000000E+00  0.00000000000E+00  0.53312301912E+03  0.53312301912E+03  0.00000000000E+00 0.  1.
          2   -1    0    0  501    0  0.00000000000E+00 -0.00000000000E+00 -0.21527771762E+02  0.21527771762E+02  0.00000000000E+00 0. -1.
         23    2    1    2    0    0  0.39029043318E+02  0.26473716042E+02  0.41348032448E+03  0.42579090340E+03  0.90043271958E+02 0.  0.
         23    2    1    2    0    0 -0.39029043318E+02 -0.26473716042E+02  0.98114922883E+02  0.12885988749E+03  0.68950769735E+02 0.  0.
          5    1    4    4  502    0 -0.85515797669E+01 -0.44605005808E+02  0.40450798443E+02  0.61000763555E+02  0.47000000000E+01 0. -1.
         -5    1    4    4    0  502 -0.30477463551E+02  0.18131289767E+02  0.57664124440E+02  0.67859123930E+02  0.47000000000E+01 0.  1.
          5    1    3    3  503    0  0.58680086029E+02 -0.10207797739E+02  0.23878395132E+03  0.24614511378E+03  0.47000000000E+01 0. -1.
         -5    1    3    3    0  503 -0.19651042711E+02  0.36681513781E+02  0.17469637316E+03  0.17964578962E+03  0.47000000000E+01 0.  1.
<mgrwt>
<rscale>  0 0.96780255E+02</rscale>
<asrwt>0</asrwt>
<pdfrwt beam="1">  1        2 0.33119653E-02 0.10164603E+03</pdfrwt>
<pdfrwt beam="2">  1       -2 0.82018916E-01 0.10164603E+03</pdfrwt>
<totfact> 0.34276601E+03</totfact>
</mgrwt>
</event>
<event>
 8    1  0.3400573E-004  0.9441937E+02  0.7546771E-02  0.1294794E+00
          1   -1    0    0  501    0  0.00000000000E+00  0.00000000000E+00  0.13155100713E+03  0.13155100713E+03  0.00000000000E+00 0. -1.
         -1   -1    0    0    0  501 -0.00000000000E+00 -0.00000000000E+00 -0.23823946626E+03  0.23823946626E+03  0.00000000000E+00 0.  1.
         23    2    1    2    0    0  0.57801001921E+01  0.82622217369E+01 -0.21071195731E+03  0.22930593500E+03  0.89888870314E+02 0.  0.
         23    2    1    2    0    0 -0.57801001921E+01 -0.82622217369E+01  0.10402349818E+03  0.14048453838E+03  0.93879409264E+02 0.  0.
          5    1    4    4  502    0  0.16124790655E+02 -0.16616338107E+02  0.11262319217E+03  0.11507469305E+03  0.47000000000E+01 0. -1.
         -5    1    3    3    0  503  0.28407246372E+02  0.11981108611E+02 -0.20190051484E+03  0.20429494977E+03  0.47000000000E+01 0.  1.
          5    1    3    3  503    0 -0.22627146180E+02 -0.37188868744E+01 -0.88114424767E+01  0.25010985233E+02  0.47000000000E+01 0. -1.
         -5    1    4    4    0  502 -0.21904890847E+02  0.83541163697E+01 -0.85996939839E+01  0.25409845335E+02  0.47000000000E+01 0.  1.
<mgrwt>
<rscale>  0 0.93411673E+02</rscale>
<asrwt>0</asrwt>
<pdfrwt beam="1">  1        1 0.20238617E-01 0.94419370E+02</pdfrwt>
<pdfrwt beam="2">  1       -1 0.36652225E-01 0.94419370E+02</pdfrwt>
<totfact> 0.17463650E+03</totfact>
</mgrwt>
</event>
<event>
 8    1  0.3400573E-004  0.1240564E+03  0.7546771E-02  0.1237447E+00
          2   -1    0    0  501    0  0.00000000000E+00  0.00000000000E+00  0.96774754976E+02  0.96774754976E+02  0.00000000000E+00 0. -1.
         -2   -1    0    0    0  501 -0.00000000000E+00 -0.00000000000E+00 -0.15636878349E+03  0.15636878349E+03  0.00000000000E+00 0.  1.
         23    2    1    2    0    0  0.41307601356E+02  0.69398650474E+02 -0.34661934847E+02  0.12880774148E+03  0.94167371843E+02 0.  0.
         23    2    1    2    0    0 -0.41307601356E+02 -0.69398650474E+02 -0.24932093665E+02  0.12433579699E+03  0.91188214701E+02 0.  0.
          5    1    3    3  502    0  0.70861431112E+02  0.58944036991E+02 -0.23966734330E+02  0.95353218459E+02  0.47000000000E+01 0. -1.
         -5    1    3    3    0  502 -0.29553829756E+02  0.10454613483E+02 -0.10695200517E+02  0.33454523019E+02  0.47000000000E+01 0.  1.
          5    1    4    4  503    0  0.22747669620E+02  0.39395378487E+01  0.57693981514E+00  0.23566910938E+02  0.47000000000E+01 0. -1.
         -5    1    4    4    0  503 -0.64055270977E+02 -0.73338188322E+02 -0.25509033480E+02  0.10076888605E+03  0.47000000000E+01 0.  1.
<mgrwt>
<rscale>  0 0.12349104E+03</rscale>
<asrwt>0</asrwt>
<pdfrwt beam="1">  1        2 0.14888424E-01 0.12405638E+03</pdfrwt>
<pdfrwt beam="2">  1       -2 0.24056735E-01 0.12405638E+03</pdfrwt>
<totfact> 0.56503758E+03</totfact>
</mgrwt>
</event>
<event>
 8    1  0.3400573E-004  0.1232752E+03  0.7546771E-02  0.1238983E+00
          1   -1    0    0  501    0  0.00000000000E+00  0.00000000000E+00  0.64312071278E+02  0.64312071278E+02  0.00000000000E+00 0. -1.
         -1   -1    0    0    0  501 -0.00000000000E+00 -0.00000000000E+00 -0.25614303527E+03  0.25614303527E+03  0.00000000000E+00 0.  1.
         23    2    1    2    0    0 -0.41123190992E+02 -0.70731330579E+02 -0.14540204827E+03  0.18872655026E+03  0.88215175391E+02 0.  0.
         23    2    1    2    0    0  0.41123190992E+02  0.70731330579E+02 -0.46428915731E+02  0.13172855629E+03  0.92210250865E+02 0.  0.
          5    1    4    4  502    0  0.18572886566E+02  0.84159725013E+02 -0.10444672445E+02  0.86942467253E+02  0.47000000000E+01 0. -1.
         -5    1    3    3    0  503  0.13389453446E+02 -0.44190902274E+02 -0.10744403106E+03  0.11704026281E+03  0.47000000000E+01 0.  1.
          5    1    3    3  503    0 -0.54512644438E+02 -0.26540428305E+02 -0.37958017205E+02  0.71686287451E+02  0.47000000000E+01 0. -1.
         -5    1    4    4    0  502  0.22550304426E+02 -0.13428394433E+02 -0.35984243286E+02  0.44786089042E+02  0.47000000000E+01 0.  1.
<mgrwt>
<rscale>  0 0.12252864E+03</rscale>
<asrwt>0</asrwt>
<pdfrwt beam="1">  1        1 0.98941647E-02 0.12327517E+03</pdfrwt>
<pdfrwt beam="2">  1       -1 0.39406621E-01 0.12327517E+03</pdfrwt>
<totfact> 0.39335841E+03</totfact>
</mgrwt>
</event>
<event>
 8    1  0.3400573E-004  0.1119056E+03  0.7546771E-02  0.1263080E+00
         -2   -1    0    0    0  501 -0.00000000000E+00  0.00000000000E+00  0.73112923836E+02  0.73112923836E+02  0.00000000000E+00 0.  1.
          2   -1    0    0  501    0  0.00000000000E+00 -0.00000000000E+00 -0.48021259497E+03  0.48021259497E+03  0.00000000000E+00 0. -1.
         23    2    1    2    0    0  0.23149691252E+02  0.30849511292E+02  0.20969549008E+02  0.11385330534E+03  0.10504881056E+03 0.  0.
         23    2    1    2    0    0 -0.23149691252E+02 -0.30849511292E+02 -0.42806922014E+03  0.43947221346E+03  0.91678615940E+02 0.  0.
          5    1    4    4  502    0 -0.29846526545E+02 -0.56641415003E+02 -0.20627717967E+03  0.21603571439E+03  0.47000000000E+01 0. -1.
         -5    1    4    4    0  502  0.66968352928E+01  0.25791903712E+02 -0.22179204047E+03  0.22343649907E+03  0.47000000000E+01 0.  1.
          5    1    3    3  503    0  0.76688517749E+01 -0.20624787384E+02 -0.31420664644E+02  0.38646362169E+02  0.47000000000E+01 0. -1.
         -5    1    3    3    0  503  0.15480839477E+02  0.51474298676E+02  0.52390213653E+02  0.75206943175E+02  0.47000000000E+01 0.  1.
<mgrwt>
<rscale>  0 0.10865566E+03</rscale>
<asrwt>0</asrwt>
<pdfrwt beam="1">  1        2 0.73878864E-01 0.11190555E+03</pdfrwt>
<pdfrwt beam="2">  1       -2 0.11248142E-01 0.11190555E+03</pdfrwt>
<totfact> 0.34423963E+03</totfact>
</mgrwt>
</event>
<event>
 8    1  0.3400573E-004  0.1179392E+03  0.7546771E-02  0.1247630E+00
          1   -1    0    0  501    0  0.00000000000E+00  0.00000000000E+00  0.30402479418E+03  0.30402479418E+03  0.00000000000E+00 0. -1.
         -1   -1    0    0    0  501 -0.00000000000E+00 -0.00000000000E+00 -0.47381938350E+02  0.47381938350E+02  0.00000000000E+00 0.  1.
         23    2    1    2    0    0 -0.96645051919E+01 -0.71679049015E+02  0.88347993408E+02  0.14736015637E+03  0.93157710461E+02 0.  0.
         23    2    1    2    0    0  0.96645051919E+01  0.71679049015E+02  0.16829486242E+03  0.20404657616E+03  0.89891911741E+02 0.  0.
          5    1    4    4  502    0 -0.12845226185E+02  0.57735746053E+02  0.16688328087E+03  0.17711729346E+03  0.47000000000E+01 0. -1.
         -5    1    4    4    0  502  0.22509731377E+02  0.13943302962E+02  0.14115815481E+01  0.26929282697E+02  0.47000000000E+01 0.  1.
          5    1    3    3  503    0 -0.48197767735E+02 -0.43871161314E+02  0.71158652126E+02  0.96609251017E+02  0.47000000000E+01 0. -1.
         -5    1    3    3    0  503  0.38533262543E+02 -0.27807887701E+02  0.17189341282E+02  0.50750905355E+02  0.47000000000E+01 0.  1.
<mgrwt>
<rscale>  0 0.11729333E+03</rscale>
<asrwt>0</asrwt>
<pdfrwt beam="1">  1        1 0.46773044E-01 0.11793917E+03</pdfrwt>
<pdfrwt beam="2">  1       -1 0.72895291E-02 0.11793917E+03</pdfrwt>
<totfact> 0.80436550E+03</totfact>
</mgrwt>
</event>
<event>
 8    1  0.3400573E-004  0.1183097E+03  0.7546771E-02  0.1249009E+00
          2   -1    0    0  501    0  0.00000000000E+00  0.00000000000E+00  0.13274435567E+04  0.13274435567E+04  0.00000000000E+00 0. -1.
         -2   -1    0    0    0  501 -0.00000000000E+00 -0.00000000000E+00 -0.12030798126E+02  0.12030798126E+02  0.00000000000E+00 0.  1.
         23    2    1    2    0    0 -0.63049292121E+02 -0.68069017562E+01  0.92136080928E+03  0.92804499240E+03  0.91324804421E+02 0.  0.
         23    2    1    2    0    0  0.63049292121E+02  0.68069017562E+01  0.39405194925E+03  0.41142936238E+03  0.99878097546E+02 0.  0.
          5    1    4    4  502    0 -0.58489921919E+01  0.31356932300E+02  0.22325127654E+03  0.22556748523E+03  0.47000000000E+01 0. -1.
         -5    1    4    4    0  502  0.68898284313E+02 -0.24550030544E+02  0.17080067271E+03  0.18586187715E+03  0.47000000000E+01 0.  1.
          5    1    3    3  503    0 -0.59573422156E+02  0.33989143038E+02  0.63999773995E+03  0.64367961877E+03  0.47000000000E+01 0. -1.
         -5    1    3    3    0  503 -0.34758699643E+01 -0.40796044794E+02  0.28136306932E+03  0.28436537364E+03  0.47000000000E+01 0.  1.
<mgrwt>
<rscale>  0 0.11648642E+03</rscale>
<asrwt>0</asrwt>
<pdfrwt beam="1">  1        2 0.20422197E+00 0.11830968E+03</pdfrwt>
<pdfrwt beam="2">  1       -2 0.18508931E-02 0.11830968E+03</pdfrwt>
<totfact> 0.14074135E+04</totfact>
</mgrwt>
</event>
<event>
 8    1  0.3400573E-004  0.1926501E+03  0.7546771E-02  0.1156298E+00
         -2   -1    0    0    0  501 -0.00000000000E+00  0.00000000000E+00  0.25014982881E+03  0.25014982881E+03  0.00000000000E+00 0.  1.
          2   -1    0    0  501    0  0.00000000000E+00 -0.00000000000E+00 -0.16003703744E+03  0.16003703744E+03  0.00000000000E+00 0. -1.
         23    2    1    2    0    0 -0.96828321768E+02  0.13929706459E+03 -0.12086268134E+02  0.19210727904E+03  0.89329349509E+02 0.  0.
         23    2    1    2    0    0  0.96828321768E+02 -0.13929706459E+03  0.10219905950E+03  0.21807958721E+03  0.91294372743E+02 0.  0.
          5    1    4    4  502    0  0.24593267200E+02 -0.82171037735E+02  0.80232654345E+01  0.86274973325E+02  0.47000000000E+01 0. -1.
         -5    1    4    4    0  502  0.72235054567E+02 -0.57126026852E+02  0.94175794070E+02  0.13180461388E+03  0.47000000000E+01 0.  1.
          5    1    3    3  503    0 -0.90637362867E+02  0.53064653515E+02 -0.76545218110E+01  0.10541190969E+03  0.47000000000E+01 0. -1.
         -5    1    3    3    0  503 -0.61909589010E+01  0.86232411072E+02 -0.44317463228E+01  0.86695369351E+02  0.47000000000E+01 0.  1.
<mgrwt>
<rscale>  0 0.19241883E+03</rscale>
<asrwt>0</asrwt>
<pdfrwt beam="1">  1        2 0.24621083E-01 0.19265009E+03</pdfrwt>
<pdfrwt beam="2">  1       -2 0.38484589E-01 0.19265009E+03</pdfrwt>
<totfact> 0.13904129E+03</totfact>
</mgrwt>
</event>
<event>
 8    1  0.3400573E-004  0.3150457E+03  0.7546771E-02  0.1078317E+00
         -2   -1    0    0    0  501 -0.00000000000E+00  0.00000000000E+00  0.93756785230E+02  0.93756785230E+02  0.00000000000E+00 0.  1.
          2   -1    0    0  501    0  0.00000000000E+00 -0.00000000000E+00 -0.14803828406E+04  0.14803828406E+04  0.00000000000E+00 0. -1.
         23    2    1    2    0    0 -0.19247749189E+03  0.23149829946E+03 -0.11209608466E+04  0.11643912668E+04  0.92815704355E+02 0.  0.
         23    2    1    2    0    0  0.19247749189E+03 -0.23149829946E+03 -0.26566520878E+03  0.40974835908E+03  0.81710874836E+02 0.  0.
          5    1    4    4  502    0  0.89100674967E+02 -0.48650415399E+02 -0.94020161749E+02  0.13844736911E+03  0.47000000000E+01 0. -1.
         -5    1    4    4    0  502  0.10337681693E+03 -0.18284788406E+03 -0.17164504704E+03  0.27130098997E+03  0.47000000000E+01 0.  1.
          5    1    3    3  503    0 -0.14339438646E+03  0.21514794144E+03 -0.84885501669E+03  0.88737112650E+03  0.47000000000E+01 0. -1.
         -5    1    3    3    0  503 -0.49083105437E+02  0.16350358019E+02 -0.27210582989E+03  0.27702014026E+03  0.47000000000E+01 0.  1.
<mgrwt>
<rscale>  0 0.31427009E+03</rscale>
<asrwt>0</asrwt>
<pdfrwt beam="1">  1        2 0.22775119E+00 0.31504571E+03</pdfrwt>
<pdfrwt beam="2">  1       -2 0.14424122E-01 0.31504571E+03</pdfrwt>
<totfact> 0.51015722E+02</totfact>
</mgrwt>
</event>
<event>
 8    1  0.3400573E-004  0.1040994E+03  0.7546771E-02  0.1278498E+00
         -1   -1    0    0    0  501 -0.00000000000E+00  0.00000000000E+00  0.14545649217E+02  0.14545649217E+02  0.00000000000E+00 0.  1.
          1   -1    0    0  501    0  0.00000000000E+00 -0.00000000000E+00 -0.67126710863E+03  0.67126710863E+03  0.00000000000E+00 0. -1.
         23    2    1    2    0    0  0.57721743085E+01 -0.21621896854E+02 -0.35399203324E+03  0.36568499657E+03  0.88962535402E+02 0.  0.
         23    2    1    2    0    0 -0.57721743085E+01  0.21621896854E+02 -0.30272942618E+03  0.32012776127E+03  0.10166540043E+03 0.  0.
          5    1    3    3  502    0  0.21540706999E+02 -0.52312182800E+02 -0.20936818303E+03  0.21692785113E+03  0.47000000000E+01 0. -1.
         -5    1    4    4    0  503  0.13018988963E+02  0.53470195423E+02 -0.24686725632E+03  0.25297052815E+03  0.47000000000E+01 0.  1.
          5    1    4    4  503    0 -0.18791163272E+02 -0.31848298569E+02 -0.55862169859E+02  0.67157233119E+02  0.47000000000E+01 0. -1.
         -5    1    3    3    0  502 -0.15768532690E+02  0.30690285946E+02 -0.14462385020E+03  0.14875714545E+03  0.47000000000E+01 0.  1.
<mgrwt>
<rscale>  0 0.10085997E+03</rscale>
<asrwt>0</asrwt>
<pdfrwt beam="1">  1        1 0.10327184E+00 0.10409937E+03</pdfrwt>
<pdfrwt beam="2">  1       -1 0.22377928E-02 0.10409937E+03</pdfrwt>
<totfact> 0.16178019E+04</totfact>
</mgrwt>
</event>
<event>
 8    1  0.3400573E-004  0.1517414E+03  0.7546771E-02  0.1198779E+00
         -1   -1    0    0    0  501 -0.00000000000E+00  0.00000000000E+00  0.59999634725E+03  0.59999634725E+03  0.00000000000E+00 0.  1.
          1   -1    0    0  501    0  0.00000000000E+00 -0.00000000000E+00 -0.39568398195E+02  0.39568398195E+02  0.00000000000E+00 0. -1.
         23    2    1    2    0    0 -0.11011580481E+03 -0.50565953442E+02  0.34473849289E+03  0.37665643509E+03  0.91340218375E+02 0.  0.
         23    2    1    2    0    0  0.11011580481E+03  0.50565953442E+02  0.21568945617E+03  0.26290831036E+03  0.88974333608E+02 0.  0.
          5    1    4    4  502    0  0.29683751906E+02  0.33464036440E+02  0.15279118051E+03  0.15927398314E+03  0.47000000000E+01 0.  1.
         -5    1    4    4    0  502  0.80432052904E+02  0.17101917002E+02  0.62898275652E+02  0.10363432723E+03  0.47000000000E+01 0. -1.
          5    1    3    3  503    0 -0.17291009516E+02  0.25643071616E+02  0.80569113854E+02  0.86429267261E+02  0.47000000000E+01 0. -1.
         -5    1    3    3    0  503 -0.92824795293E+02 -0.76209025059E+02  0.26416937904E+03  0.29022716782E+03  0.47000000000E+01 0.  1.
<mgrwt>
<rscale>  0 0.15138706E+03</rscale>
<asrwt>0</asrwt>
<pdfrwt beam="1">  1        1 0.60874463E-02 0.15174136E+03</pdfrwt>
<pdfrwt beam="2">  1       -1 0.92307124E-01 0.15174136E+03</pdfrwt>
<totfact> 0.14938988E+03</totfact>
</mgrwt>
</event>
<event>
 8    1  0.3400573E-004  0.9164088E+02  0.7546771E-02  0.1301849E+00
          1   -1    0    0  501    0  0.00000000000E+00  0.00000000000E+00  0.52071560957E+02  0.52071560957E+02  0.00000000000E+00 0. -1.
         -1   -1    0    0    0  501 -0.00000000000E+00 -0.00000000000E+00 -0.20494567044E+03  0.20494567044E+03  0.00000000000E+00 0.  1.
         23    2    1    2    0    0 -0.46017047925E+01 -0.66982562074E+01 -0.13251167427E+02  0.92593973828E+02  0.91279834727E+02 0.  0.
         23    2    1    2    0    0  0.46017047925E+01  0.66982562074E+01 -0.13962294206E+03  0.16442325757E+03  0.86454608659E+02 0.  0.
          5    1    3    3  502    0  0.41440381448E+02 -0.14956768999E+02 -0.25572116283E+01  0.44380620599E+02  0.47000000000E+01 0. -1.
         -5    1    3    3    0  502 -0.46042086241E+02  0.82585127913E+01 -0.10693955799E+02  0.48213353229E+02  0.47000000000E+01 0.  1.
          5    1    4    4  503    0  0.77490493008E+01 -0.30522572140E+02 -0.16882447143E+02  0.36038620904E+02  0.47000000000E+01 0. -1.
         -5    1    4    4    0  503 -0.31473445083E+01  0.37220828348E+02 -0.12274049491E+03  0.12838463667E+03  0.47000000000E+01 0.  1.
<mgrwt>
<rscale>  0 0.90415217E+02</rscale>
<asrwt>0</asrwt>
<pdfrwt beam="1">  1        1 0.80110094E-02 0.91640878E+02</pdfrwt>
<pdfrwt beam="2">  1       -1 0.31530103E-01 0.91640878E+02</pdfrwt>
<totfact> 0.74455897E+03</totfact>
</mgrwt>
</event>
<event>
 8    1  0.3400573E-004  0.9927691E+02  0.7546771E-02  0.1282405E+00
          3   -1    0    0  501    0  0.00000000000E+00  0.00000000000E+00  0.10067805517E+03  0.10067805517E+03  0.00000000000E+00 0. -1.
         -3   -1    0    0    0  501 -0.00000000000E+00 -0.00000000000E+00 -0.10412743769E+03  0.10412743769E+03  0.00000000000E+00 0.  1.
         23    2    1    2    0    0 -0.12547686388E+01  0.64060620445E+01 -0.28851342513E+02  0.10338425895E+03  0.99062066195E+02 0.  0.
         23    2    1    2    0    0  0.12547686388E+01 -0.64060620445E+01  0.25401959993E+02  0.10142123392E+03  0.97971399105E+02 0.  0.
          5    1    4    4  502    0 -0.30098273872E+02 -0.40840633054E+02  0.84889286583E+01  0.51652834463E+02  0.47000000000E+01 0. -1.
         -5    1    3    3    0  503 -0.16141174308E+02  0.33544917216E+02 -0.52229740847E+02  0.64310456444E+02  0.47000000000E+01 0.  1.
          5    1    3    3  503    0  0.14886405669E+02 -0.27138855171E+02  0.23378398334E+02  0.39073802508E+02  0.47000000000E+01 0. -1.
         -5    1    4    4    0  502  0.31353042511E+02  0.34434571009E+02  0.16913031335E+02  0.49768399454E+02  0.47000000000E+01 0.  1.
<mgrwt>
<rscale>  0 0.99003715E+02</rscale>
<asrwt>0</asrwt>
<pdfrwt beam="1">  1        3 0.15488932E-01 0.99276911E+02</pdfrwt>
<pdfrwt beam="2">  1       -3 0.16019606E-01 0.99276911E+02</pdfrwt>
<totfact> 0.25069417E+03</totfact>
</mgrwt>
</event>
<event>
 8    1  0.3400573E-004  0.1156805E+03  0.7546771E-02  0.1251622E+00
         -1   -1    0    0    0  501 -0.00000000000E+00  0.00000000000E+00  0.30947978646E+02  0.30947978646E+02  0.00000000000E+00 0.  1.
          1   -1    0    0  501    0  0.00000000000E+00 -0.00000000000E+00 -0.42447720019E+03  0.42447720019E+03  0.00000000000E+00 0. -1.
         23    2    1    2    0    0 -0.66465681311E+02 -0.63629094156E+01 -0.17710827607E+03  0.21002751612E+03  0.91027702755E+02 0.  0.
         23    2    1    2    0    0  0.66465681311E+02  0.63629094156E+01 -0.21642094548E+03  0.24539766272E+03  0.94465939977E+02 0.  0.
          5    1    3    3  502    0 -0.41852854048E+02 -0.76968369617E+01 -0.17976615177E+03  0.18479410708E+03  0.47000000000E+01 0. -1.
         -5    1    4    4    0  503 -0.23212260705E+02  0.19563510861E+01 -0.66082210063E+02  0.70225243633E+02  0.47000000000E+01 0.  1.
          5    1    4    4  503    0  0.89677942015E+02  0.44065583296E+01 -0.15033873542E+03  0.17517241908E+03  0.47000000000E+01 0. -1.
         -5    1    3    3    0  502 -0.24612827262E+02  0.13339275461E+01  0.26578756999E+01  0.25233409040E+02  0.47000000000E+01 0.  1.
<mgrwt>
<rscale>  0 0.11497658E+03</rscale>
<asrwt>0</asrwt>
<pdfrwt beam="1">  1        1 0.65304182E-01 0.11568054E+03</pdfrwt>
<pdfrwt beam="2">  1       -1 0.47612277E-02 0.11568054E+03</pdfrwt>
<totfact> 0.99716275E+03</totfact>
</mgrwt>
</event>
<event>
 8    1  0.3400573E-004  0.9240680E+02  0.7546771E-02  0.1297425E+00
          1   -1    0    0  501    0  0.00000000000E+00  0.00000000000E+00  0.13375841638E+03  0.13375841638E+03  0.00000000000E+00 0. -1.
         -1   -1    0    0    0  501 -0.00000000000E+00 -0.00000000000E+00 -0.30327086892E+03  0.30327086892E+03  0.00000000000E+00 0.  1.
         23    2    1    2    0    0  0.15143217398E+02  0.56022499959E+01 -0.27900793614E+03  0.29375236152E+03  0.90467227406E+02 0.  0.
         23    2    1    2    0    0 -0.15143217398E+02 -0.56022499959E+01  0.10949548360E+03  0.14327692377E+03  0.90985239017E+02 0.  0.
          5    1    3    3  502    0 -0.13734419679E+02 -0.26453095187E+02 -0.36341531450E+02  0.47235552681E+02  0.47000000000E+01 0. -1.
         -5    1    4    4    0  503  0.97907091050E+01  0.31144963225E+02  0.10400840567E+02  0.34585173175E+02  0.47000000000E+01 0.  1.
          5    1    4    4  503    0 -0.24933926503E+02 -0.36747213221E+02  0.99094643031E+02  0.10869175060E+03  0.47000000000E+01 0. -1.
         -5    1    3    3    0  502  0.28877637077E+02  0.32055345183E+02 -0.24266640469E+03  0.24651680884E+03  0.47000000000E+01 0.  1.
<mgrwt>
<rscale>  0 0.92279032E+02</rscale>
<asrwt>0</asrwt>
<pdfrwt beam="1">  1        1 0.20578218E-01 0.92406796E+02</pdfrwt>
<pdfrwt beam="2">  1       -1 0.46657056E-01 0.92406796E+02</pdfrwt>
<totfact> 0.11212604E+03</totfact>
</mgrwt>
</event>
<event>
 8    1  0.3400573E-004  0.1647130E+03  0.7546771E-02  0.1183731E+00
         -1   -1    0    0    0  501 -0.00000000000E+00  0.00000000000E+00  0.77316291609E+02  0.77316291609E+02  0.00000000000E+00 0.  1.
          1   -1    0    0  501    0  0.00000000000E+00 -0.00000000000E+00 -0.42552000105E+03  0.42552000105E+03  0.00000000000E+00 0. -1.
         23    2    1    2    0    0 -0.13724372298E+03 -0.52286739299E+01 -0.67015254482E+02  0.17695698517E+03  0.89216319896E+02 0.  0.
         23    2    1    2    0    0  0.13724372298E+03  0.52286739299E+01 -0.28118845496E+03  0.32587930750E+03  0.90924129477E+02 0.  0.
          5    1    3    3  502    0 -0.12641960251E+03 -0.22819328116E+02 -0.80661512661E+02  0.15175970235E+03  0.47000000000E+01 0. -1.
         -5    1    4    4    0  503 -0.10936280939E+01 -0.22953360780E+02 -0.39668455917E+02  0.46083936337E+02  0.47000000000E+01 0.  1.
          5    1    4    4  503    0  0.13833735108E+03  0.28182034710E+02 -0.24151999904E+03  0.27979537116E+03  0.47000000000E+01 0. -1.
         -5    1    3    3    0  502 -0.10824120477E+02  0.17590654186E+02  0.13646258178E+02  0.25197282811E+02  0.47000000000E+01 0.  1.
<mgrwt>
<rscale>  0 0.16447837E+03</rscale>
<asrwt>0</asrwt>
<pdfrwt beam="1">  1        1 0.65464615E-01 0.16471301E+03</pdfrwt>
<pdfrwt beam="2">  1       -1 0.11894814E-01 0.16471301E+03</pdfrwt>
<totfact> 0.25508886E+03</totfact>
</mgrwt>
</event>
<event>
 8    1  0.3400573E-004  0.9677887E+02  0.7546771E-02  0.1289813E+00
          2   -1    0    0  501    0  0.00000000000E+00  0.00000000000E+00  0.40878328565E+03  0.40878328565E+03  0.00000000000E+00 0. -1.
         -2   -1    0    0    0  501 -0.00000000000E+00 -0.00000000000E+00 -0.24311432587E+02  0.24311432587E+02  0.00000000000E+00 0.  1.
         23    2    1    2    0    0 -0.68374355514E+01 -0.63727147767E+00  0.12735985091E+03  0.15995837536E+03  0.96534934520E+02 0.  0.
         23    2    1    2    0    0  0.68374355514E+01  0.63727147767E+00  0.25711200215E+03  0.27313634288E+03  0.91922377641E+02 0.  0.
          5    1    4    4  502    0 -0.42398847546E+02  0.18928130798E+01  0.11999542385E+03  0.12736654490E+03  0.47000000000E+01 0. -1.
         -5    1    3    3    0  503  0.42715433347E+02 -0.29292783131E+01  0.37054576275E+02  0.56818311664E+02  0.47000000000E+01 0.  1.
          5    1    3    3  503    0 -0.49552868898E+02  0.22920068354E+01  0.90305274638E+02  0.10314006369E+03  0.47000000000E+01 0. -1.
         -5    1    4    4    0  502  0.49236283098E+02 -0.12555416021E+01  0.13711657829E+03  0.14576979797E+03  0.47000000000E+01 0.  1.
<mgrwt>
<rscale>  0 0.95607697E+02</rscale>
<asrwt>0</asrwt>
<pdfrwt beam="1">  1        2 0.62889731E-01 0.96778873E+02</pdfrwt>
<pdfrwt beam="2">  1       -2 0.37402207E-02 0.96778873E+02</pdfrwt>
<totfact> 0.21486217E+04</totfact>
</mgrwt>
</event>
<event>
 8    1  0.3400573E-004  0.1131529E+03  0.7546771E-02  0.1255689E+00
          1   -1    0    0  501    0  0.00000000000E+00  0.00000000000E+00  0.99117278054E+03  0.99117278054E+03  0.00000000000E+00 0. -1.
         -1   -1    0    0    0  501 -0.00000000000E+00 -0.00000000000E+00 -0.15177918976E+02  0.15177918976E+02  0.00000000000E+00 0.  1.
         23    2    1    2    0    0  0.46377797102E+02  0.45778021568E+02  0.68773907581E+03  0.69668154928E+03  0.90186569831E+02 0.  0.
         23    2    1    2    0    0 -0.46377797102E+02 -0.45778021568E+02  0.28825578575E+03  0.30966915024E+03  0.92504363515E+02 0.  0.
          5    1    4    4  502    0  0.90914307879E+01  0.20599716858E+02  0.33915597605E+02  0.40979997674E+02  0.47000000000E+01 0. -1.
         -5    1    3    3    0  503 -0.25284004621E+02  0.72530625712E+01  0.24971947034E+03  0.25114496148E+03  0.47000000000E+01 0.  1.
          5    1    3    3  503    0  0.71661801723E+02  0.38524958997E+02  0.43801960547E+03  0.44553658780E+03  0.47000000000E+01 0. -1.
         -5    1    4    4    0  502 -0.55469227890E+02 -0.66377738427E+02  0.25434018814E+03  0.26868915256E+03  0.47000000000E+01 0.  1.
<mgrwt>
<rscale>  0 0.11267824E+03</rscale>
<asrwt>0</asrwt>
<pdfrwt beam="1">  1        1 0.15248807E+00 0.11315293E+03</pdfrwt>
<pdfrwt beam="2">  1       -1 0.23350652E-02 0.11315293E+03</pdfrwt>
<totfact> 0.84872199E+03</totfact>
</mgrwt>
</event>
<event>
 8    1  0.3400573E-004  0.1045071E+03  0.7546771E-02  0.1271539E+00
         -4   -1    0    0    0  501 -0.00000000000E+00  0.00000000000E+00  0.18298447783E+03  0.18298447783E+03  0.00000000000E+00 0. -1.
          4   -1    0    0  501    0  0.00000000000E+00 -0.00000000000E+00 -0.66301304926E+02  0.66301304926E+02  0.00000000000E+00 0.  1.
         23    2    1    2    0    0 -0.46017389230E+01 -0.53031459157E+02  0.98975236550E+02  0.14328901680E+03  0.88893943680E+02 0.  0.
         23    2    1    2    0    0  0.46017389230E+01  0.53031459157E+02  0.17707936356E+02  0.10599676596E+03  0.89934596918E+02 0.  0.
          5    1    3    3  502    0  0.32268145023E+02 -0.30990733821E+02  0.87802404252E+02  0.98656023427E+02  0.47000000000E+01 0. -1.
         -5    1    4    4    0  503 -0.25435923225E+02  0.44827040889E+02  0.41654655449E+02  0.66435307674E+02  0.47000000000E+01 0.  1.
          5    1    4    4  503    0  0.30037662148E+02  0.82044182684E+01 -0.23946719093E+02  0.39561458287E+02  0.47000000000E+01 0. -1.
         -5    1    3    3    0  502 -0.36869883946E+02 -0.22040725337E+02  0.11172832298E+02  0.44632993370E+02  0.47000000000E+01 0.  1.
<mgrwt>
<rscale>  0 0.10428288E+03</rscale>
<asrwt>0</asrwt>
<pdfrwt beam="1">  1        4 0.10200201E-01 0.10450715E+03</pdfrwt>
<pdfrwt beam="2">  1       -4 0.28151458E-01 0.10450715E+03</pdfrwt>
<totfact> 0.13652854E+03</totfact>
</mgrwt>
</event>
<event>
 8    1  0.3400573E-004  0.1352349E+03  0.7546771E-02  0.1219889E+00
         -2   -1    0    0    0  501 -0.00000000000E+00  0.00000000000E+00  0.34994077813E+02  0.34994077813E+02  0.00000000000E+00 0.  1.
          2   -1    0    0  501    0  0.00000000000E+00 -0.00000000000E+00 -0.61240555997E+03  0.61240555997E+03  0.00000000000E+00 0. -1.
         23    2    1    2    0    0 -0.20223447297E+02  0.95549754735E+02 -0.16475588890E+03  0.21314957863E+03  0.93538743272E+02 0.  0.
         23    2    1    2    0    0  0.20223447297E+02 -0.95549754735E+02 -0.41265559326E+03  0.43425005916E+03  0.93540000942E+02 0.  0.
          5    1    3    3  502    0  0.77280784516E+01  0.47358538483E+02 -0.14666525718E+03  0.15438698788E+03  0.47000000000E+01 0. -1.
         -5    1    3    3    0  502 -0.27951525749E+02  0.48191216252E+02 -0.18090631721E+02  0.58762590750E+02  0.47000000000E+01 0.  1.
          5    1    4    4  503    0  0.94081871586E+01 -0.11244204687E+03 -0.37050813575E+03  0.38733718715E+03  0.47000000000E+01 0. -1.
         -5    1    4    4    0  503  0.10815260139E+02  0.16892292135E+02 -0.42147457512E+02  0.46912872009E+02  0.47000000000E+01 0.  1.
<mgrwt>
<rscale>  0 0.13523467E+03</rscale>
<asrwt>0</asrwt>
<pdfrwt beam="1">  1        2 0.94216241E-01 0.13523489E+03</pdfrwt>
<pdfrwt beam="2">  1       -2 0.53837042E-02 0.13523489E+03</pdfrwt>
<totfact> 0.82539740E+03</totfact>
</mgrwt>
</event>
<event>
 8    1  0.3400573E-004  0.1579070E+03  0.7546771E-02  0.1191668E+00
          1   -1    0    0  501    0  0.00000000000E+00  0.00000000000E+00  0.13183791489E+03  0.13183791489E+03  0.00000000000E+00 0. -1.
         -1   -1    0    0    0  501 -0.00000000000E+00 -0.00000000000E+00 -0.19093702341E+03  0.19093702341E+03  0.00000000000E+00 0.  1.
         23    2    1    2    0    0 -0.11525710172E+03 -0.54492263792E+02 -0.53396351656E+02  0.16476501505E+03  0.89681288476E+02 0.  0.
         23    2    1    2    0    0  0.11525710172E+03  0.54492263792E+02 -0.57027568663E+01  0.15800992325E+03  0.93171927638E+02 0.  0.
          5    1    4    4  502    0  0.10652899435E+03  0.16499261085E+02  0.21786131380E+02  0.11007896155E+03  0.47000000000E+01 0. -1.
         -5    1    4    4    0  502  0.87281073652E+01  0.37993002707E+02 -0.27488888246E+02  0.47930961705E+02  0.47000000000E+01 0.  1.
          5    1    3    3  503    0 -0.61365091279E+01 -0.26457356493E+02  0.16473313837E+02  0.32110878619E+02  0.47000000000E+01 0. -1.
         -5    1    3    3    0  503 -0.10912059259E+03 -0.28034907299E+02 -0.69869665494E+02  0.13265413643E+03  0.47000000000E+01 0.  1.
<mgrwt>
<rscale>  0 0.15739597E+03</rscale>
<asrwt>0</asrwt>
<pdfrwt beam="1">  1        1 0.20282756E-01 0.15790698E+03</pdfrwt>
<pdfrwt beam="2">  1       -1 0.29374926E-01 0.15790698E+03</pdfrwt>
<totfact> 0.25913724E+03</totfact>
</mgrwt>
</event>
<event>
 8    1  0.3400573E-004  0.1161561E+03  0.7546771E-02  0.1250160E+00
          2   -1    0    0  501    0  0.00000000000E+00  0.00000000000E+00  0.53707461842E+03  0.53707461842E+03  0.00000000000E+00 0. -1.
         -2   -1    0    0    0  501 -0.00000000000E+00 -0.00000000000E+00 -0.28095261280E+02  0.28095261280E+02  0.00000000000E+00 0.  1.
         23    2    1    2    0    0 -0.28571516969E+02 -0.65155339661E+02  0.15686270089E+03  0.19438910689E+03  0.90109200862E+02 0.  0.
         23    2    1    2    0    0  0.28571516969E+02  0.65155339661E+02  0.35211665625E+03  0.37078077281E+03  0.91818799852E+02 0.  0.
          5    1    4    4  502    0 -0.28350047127E+02  0.57473058008E+00  0.11294346604E+03  0.11654343400E+03  0.47000000000E+01 0. -1.
         -5    1    3    3    0  503 -0.46869291288E+02 -0.78269700672E+02  0.13193145545E+03  0.16047079312E+03  0.47000000000E+01 0.  1.
          5    1    3    3  503    0  0.18297774318E+02  0.13114361010E+02  0.24931245442E+02  0.33918313770E+02  0.47000000000E+01 0. -1.
         -5    1    4    4    0  502  0.56921564096E+02  0.64580609081E+02  0.23917319021E+03  0.25423733881E+03  0.47000000000E+01 0.  1.
<mgrwt>
<rscale>  0 0.11581798E+03</rscale>
<asrwt>0</asrwt>
<pdfrwt beam="1">  1        2 0.82626857E-01 0.11615611E+03</pdfrwt>
<pdfrwt beam="2">  1       -2 0.43223483E-02 0.11615611E+03</pdfrwt>
<totfact> 0.13143065E+04</totfact>
</mgrwt>
</event>
<event>
 8    1  0.3400573E-004  0.9266607E+02  0.7546771E-02  0.1296938E+00
          1   -1    0    0  501    0  0.00000000000E+00  0.00000000000E+00  0.69245906330E+02  0.69245906330E+02  0.00000000000E+00 0. -1.
         -1   -1    0    0    0  501 -0.00000000000E+00 -0.00000000000E+00 -0.12312857769E+03  0.12312857769E+03  0.00000000000E+00 0.  1.
         23    2    1    2    0    0  0.11730970384E+02  0.29522409085E+01 -0.24460635804E+02  0.95149709697E+02  0.91152691452E+02 0.  0.
         23    2    1    2    0    0 -0.11730970384E+02 -0.29522409085E+01 -0.29422035555E+02  0.97224774321E+02  0.91873114528E+02 0.  0.
          5    1    4    4  502    0  0.11552151766E+02  0.37823689104E+02 -0.30274766959E+02  0.50027344346E+02  0.47000000000E+01 0. -1.
         -5    1    3    3    0  503  0.44525758014E+02 -0.85573852335E+01 -0.36152934646E+02  0.58179864663E+02  0.47000000000E+01 0.  1.
          5    1    3    3  503    0 -0.32794787629E+02  0.11509626142E+02  0.11692298842E+02  0.36969845034E+02  0.47000000000E+01 0. -1.
         -5    1    4    4    0  502 -0.23283122150E+02 -0.40775930013E+02  0.85273140401E+00  0.47197429976E+02  0.47000000000E+01 0.  1.
<mgrwt>
<rscale>  0 0.92486999E+02</rscale>
<asrwt>0</asrwt>
<pdfrwt beam="1">  1        1 0.10653216E-01 0.92666070E+02</pdfrwt>
<pdfrwt beam="2">  1       -1 0.18942858E-01 0.92666070E+02</pdfrwt>
<totfact> 0.11715492E+04</totfact>
</mgrwt>
</event>
<event>
 8    1  0.3400573E-004  0.9173853E+02  0.7546771E-02  0.1299060E+00
         -1   -1    0    0    0  501 -0.00000000000E+00  0.00000000000E+00  0.66952546681E+02  0.66952546681E+02  0.00000000000E+00 0.  1.
          1   -1    0    0  501    0  0.00000000000E+00 -0.00000000000E+00 -0.16661206102E+03  0.16661206102E+03  0.00000000000E+00 0. -1.
         23    2    1    2    0    0 -0.14562876949E+02 -0.87258679434E+01 -0.10841770955E+03  0.14202238500E+03  0.90153979065E+02 0.  0.
         23    2    1    2    0    0  0.14562876949E+02  0.87258679434E+01  0.87581952048E+01  0.91542222705E+02  0.89526836189E+02 0.  0.
          5    1    3    3  502    0 -0.49777177648E+02 -0.26044115561E+00 -0.85071678863E+02  0.98676824983E+02  0.47000000000E+01 0. -1.
         -5    1    4    4    0  503  0.37150978596E+02 -0.12943301254E+02  0.33087748616E+02  0.51619893127E+02  0.47000000000E+01 0.  1.
          5    1    4    4  503    0 -0.22588101647E+02  0.21669169197E+02 -0.24329553412E+02  0.39922329578E+02  0.47000000000E+01 0. -1.
         -5    1    3    3    0  502  0.35214300700E+02 -0.84654267878E+01 -0.23346030683E+02  0.43345560016E+02  0.47000000000E+01 0.  1.
<mgrwt>
<rscale>  0 0.91584082E+02</rscale>
<asrwt>0</asrwt>
<pdfrwt beam="1">  1        1 0.25632624E-01 0.91738531E+02</pdfrwt>
<pdfrwt beam="2">  1       -1 0.10300392E-01 0.91738531E+02</pdfrwt>
<totfact> 0.98188989E+03</totfact>
</mgrwt>
</event>
<event>
 8    1  0.3400573E-004  0.1435350E+03  0.7546771E-02  0.1211047E+00
         -3   -1    0    0    0  501 -0.00000000000E+00  0.00000000000E+00  0.12244871571E+03  0.12244871571E+03  0.00000000000E+00 0.  1.
          3   -1    0    0  501    0  0.00000000000E+00 -0.00000000000E+00 -0.20586030952E+03  0.20586030952E+03  0.00000000000E+00 0. -1.
         23    2    1    2    0    0 -0.39353617058E+02  0.10427828543E+03 -0.11836916856E+03  0.18057847842E+03  0.78578997281E+02 0.  0.
         23    2    1    2    0    0  0.39353617058E+02 -0.10427828543E+03  0.34957574747E+02  0.14773054681E+03  0.90441220922E+02 0.  0.
          5    1    4    4  502    0  0.61863195739E+02 -0.83000313993E+02  0.47488224657E+02  0.11398828269E+03  0.47000000000E+01 0.  1.
         -5    1    4    4    0  502 -0.22509578681E+02 -0.21277971434E+02 -0.12530649910E+02  0.33742264120E+02  0.47000000000E+01 0. -1.
          5    1    3    3  503    0 -0.56258596731E+02  0.73243025516E+02 -0.11046105111E+03  0.14406007186E+03  0.47000000000E+01 0. -1.
         -5    1    3    3    0  503  0.16904979673E+02  0.31035259911E+02 -0.79081174522E+01  0.36518406553E+02  0.47000000000E+01 0.  1.
<mgrwt>
<rscale>  0 0.14170970E+03</rscale>
<asrwt>0</asrwt>
<pdfrwt beam="1">  1        3 0.31670816E-01 0.14353495E+03</pdfrwt>
<pdfrwt beam="2">  1       -3 0.18838264E-01 0.14353495E+03</pdfrwt>
<totfact> 0.56533466E+02</totfact>
</mgrwt>
</event>
<event>
 8    1  0.3400573E-004  0.1094064E+03  0.7546771E-02  0.1265106E+00
         -2   -1    0    0    0  501 -0.00000000000E+00  0.00000000000E+00  0.69732889931E+03  0.69732889931E+03  0.00000000000E+00 0.  1.
          2   -1    0    0  501    0  0.00000000000E+00 -0.00000000000E+00 -0.34504740005E+02  0.34504740005E+02  0.00000000000E+00 0. -1.
         23    2    1    2    0    0  0.41931340574E+02  0.58998733926E+01  0.60398547680E+03  0.61381447817E+03  0.10087968873E+03 0.  0.
         23    2    1    2    0    0 -0.41931340574E+02 -0.58998733926E+01  0.58838682505E+02  0.11801916114E+03  0.93131552172E+02 0.  0.
          5    1    4    4  502    0 -0.41038589831E+02 -0.45649328140E+02  0.42331927483E+02  0.74713513499E+02  0.47000000000E+01 0. -1.
         -5    1    3    3    0  503 -0.21183673569E+02  0.30649036467E+02  0.29904330164E+03  0.30139193374E+03  0.47000000000E+01 0.  1.
          5    1    3    3  503    0  0.63115014143E+02 -0.24749163075E+02  0.30494217516E+03  0.31242254444E+03  0.47000000000E+01 0. -1.
         -5    1    4    4    0  502 -0.89275074305E+00  0.39749454747E+02  0.16506755021E+02  0.43305647645E+02  0.47000000000E+01 0. -1.
<mgrwt>
<rscale>  0 0.10758640E+03</rscale>
<asrwt>0</asrwt>
<pdfrwt beam="1">  1        2 0.53084220E-02 0.10940639E+03</pdfrwt>
<pdfrwt beam="2">  1       -2 0.10728136E+00 0.10940639E+03</pdfrwt>
<totfact> 0.10129132E+03</totfact>
</mgrwt>
</event>
<event>
 8    1  0.3400573E-004  0.1219880E+03  0.7546771E-02  0.1240086E+00
          2   -1    0    0  501    0  0.00000000000E+00  0.00000000000E+00  0.12525411440E+04  0.12525411440E+04  0.00000000000E+00 0. -1.
         -2   -1    0    0    0  501 -0.00000000000E+00 -0.00000000000E+00 -0.12032803156E+02  0.12032803156E+02  0.00000000000E+00 0.  1.
         23    2    1    2    0    0  0.66798483214E+02 -0.46145816174E+02  0.53564042192E+03  0.54922798518E+03  0.90273165442E+02 0.  0.
         23    2    1    2    0    0 -0.66798483214E+02  0.46145816174E+02  0.70486791894E+03  0.71534596200E+03  0.91047177218E+02 0.  0.
          5    1    4    4  502    0 -0.90927189935E+01  0.52128051798E+02  0.19294183618E+03  0.20012159671E+03  0.47000000000E+01 0. -1.
         -5    1    4    4    0  502 -0.57705764221E+02 -0.59822356239E+01  0.51192608276E+03  0.51522436528E+03  0.47000000000E+01 0.  1.
          5    1    3    3  503    0  0.69263051907E+02 -0.14418156349E-01  0.39682571812E+03  0.40285246819E+03  0.47000000000E+01 0. -1.
         -5    1    3    3    0  503 -0.24645686929E+01 -0.46131398018E+02  0.13881470380E+03  0.14637551698E+03  0.47000000000E+01 0.  1.
<mgrwt>
<rscale>  0 0.12184355E+03</rscale>
<asrwt>0</asrwt>
<pdfrwt beam="1">  1        2 0.19269853E+00 0.12198796E+03</pdfrwt>
<pdfrwt beam="2">  1       -2 0.18512015E-02 0.12198796E+03</pdfrwt>
<totfact> 0.15465976E+04</totfact>
</mgrwt>
</event>
<event>
 8    1  0.3400573E-004  0.9327417E+02  0.7546771E-02  0.1295972E+00
         -2   -1    0    0    0  501 -0.00000000000E+00  0.00000000000E+00  0.13132384707E+03  0.13132384707E+03  0.00000000000E+00 0.  1.
          2   -1    0    0  501    0  0.00000000000E+00 -0.00000000000E+00 -0.95843943204E+02  0.95843943204E+02  0.00000000000E+00 0. -1.
         23    2    1    2    0    0 -0.12657219753E+02  0.17326284774E+02  0.82057108226E+02  0.12423139294E+03  0.90772598432E+02 0.  0.
         23    2    1    2    0    0  0.12657219753E+02 -0.17326284774E+02 -0.46577204359E+02  0.10293639733E+03  0.89252790287E+02 0.  0.
          5    1    3    3  502    0  0.81875020324E+01 -0.18504794019E+02 -0.10079370138E+02  0.23089960883E+02  0.47000000000E+01 0.  1.
         -5    1    4    4    0  503 -0.25972430525E+02 -0.38987570835E+02 -0.20739600232E+02  0.51447243315E+02  0.47000000000E+01 0.  1.
          5    1    4    4  503    0  0.38629650278E+02  0.21661286061E+02 -0.25837604127E+02  0.51489154017E+02  0.47000000000E+01 0. -1.
         -5    1    3    3    0  502 -0.20844721785E+02  0.35831078792E+02  0.92136478364E+02  0.10114143206E+03  0.47000000000E+01 0.  1.
<mgrwt>
<rscale>  0 0.92902353E+02</rscale>
<asrwt>0</asrwt>
<pdfrwt beam="1">  1        2 0.14745222E-01 0.93274166E+02</pdfrwt>
<pdfrwt beam="2">  1       -2 0.20203669E-01 0.93274166E+02</pdfrwt>
<totfact> 0.75248074E+03</totfact>
</mgrwt>
</event>
<event>
 8    1  0.3400573E-004  0.2624895E+03  0.7546771E-02  0.1106057E+00
          1   -1    0    0  501    0  0.00000000000E+00  0.00000000000E+00  0.68124384774E+03  0.68124384774E+03  0.00000000000E+00 0. -1.
         -1   -1    0    0    0  501 -0.00000000000E+00 -0.00000000000E+00 -0.12216852826E+03  0.12216852826E+03  0.00000000000E+00 0.  1.
         23    2    1    2    0    0 -0.23518802058E+03  0.67403631968E+02  0.10765654477E+03  0.28122499923E+03  0.87412321426E+02 0.  0.
         23    2    1    2    0    0  0.23518802058E+03 -0.67403631968E+02  0.45141877471E+03  0.52218737677E+03  0.95100429407E+02 0.  0.
          5    1    3    3  502    0 -0.60746072551E+02 -0.20574932226E+02  0.29415539933E+02  0.70716173228E+02  0.47000000000E+01 0. -1.
         -5    1    4    4    0  503  0.22179961995E+03 -0.34424539508E+02  0.36376541071E+03  0.42746635465E+03  0.47000000000E+01 0.  1.
          5    1    4    4  503    0  0.13388400626E+02 -0.32979092460E+02  0.87653363996E+02  0.94721022116E+02  0.47000000000E+01 0. -1.
         -5    1    3    3    0  502 -0.17444194803E+03  0.87978564194E+02  0.78241004834E+02  0.21050882601E+03  0.47000000000E+01 0.  1.
<mgrwt>
<rscale>  0 0.26181528E+03</rscale>
<asrwt>0</asrwt>
<pdfrwt beam="1">  1        1 0.10480674E+00 0.26248952E+03</pdfrwt>
<pdfrwt beam="2">  1       -1 0.18795159E-01 0.26248952E+03</pdfrwt>
<totfact> 0.65766889E+02</totfact>
</mgrwt>
</event>
<event>
 8    1  0.3400573E-004  0.9317781E+02  0.7546771E-02  0.1295417E+00
         -1   -1    0    0    0  501 -0.00000000000E+00  0.00000000000E+00  0.12979800024E+02  0.12979800024E+02  0.00000000000E+00 0.  1.
          1   -1    0    0  501    0  0.00000000000E+00 -0.00000000000E+00 -0.77963553296E+03  0.77963553296E+03  0.00000000000E+00 0. -1.
         23    2    1    2    0    0 -0.56877228516E+01  0.15519196981E+02 -0.23301967009E+03  0.25090549165E+03  0.91554374154E+02 0.  0.
         23    2    1    2    0    0  0.56877228516E+01 -0.15519196981E+02 -0.53363606284E+03  0.54170984133E+03  0.91700103373E+02 0.  0.
          5    1    3    3  502    0  0.26497137732E+02 -0.24723760126E+02 -0.59417661307E+02  0.69756082874E+02  0.47000000000E+01 0. -1.
         -5    1    4    4    0  503  0.94132101826E+00  0.38467117796E+02 -0.21723328054E+03  0.22066488939E+03  0.47000000000E+01 0.  1.
          5    1    4    4  503    0  0.47464018333E+01 -0.53986314777E+02 -0.31640278231E+03  0.32104495194E+03  0.47000000000E+01 0. -1.
         -5    1    3    3    0  502 -0.32184860584E+02  0.40242957107E+02 -0.17360200878E+03  0.18114940878E+03  0.47000000000E+01 0.  1.
<mgrwt>
<rscale>  0 0.93141938E+02</rscale>
<asrwt>0</asrwt>
<pdfrwt beam="1">  1        1 0.11994394E+00 0.93177812E+02</pdfrwt>
<pdfrwt beam="2">  1       -1 0.19968921E-02 0.93177812E+02</pdfrwt>
<totfact> 0.15232243E+04</totfact>
</mgrwt>
</event>
<event>
 8    1  0.3400573E-004  0.1204038E+03  0.7546771E-02  0.1244021E+00
          1   -1    0    0  501    0  0.00000000000E+00  0.00000000000E+00  0.90743643216E+02  0.90743643216E+02  0.00000000000E+00 0. -1.
         -1   -1    0    0    0  501 -0.00000000000E+00 -0.00000000000E+00 -0.18641945111E+03  0.18641945111E+03  0.00000000000E+00 0.  1.
         23    2    1    2    0    0  0.65499482068E+02 -0.25369464221E+02 -0.10558594958E+03  0.16014201874E+03  0.97792032144E+02 0.  0.
         23    2    1    2    0    0 -0.65499482068E+02  0.25369464221E+02  0.99101416941E+01  0.11702107558E+03  0.93069486706E+02 0.  0.
          5    1    3    3  502    0  0.41592614615E+01  0.30477534433E+02 -0.83020631467E+01  0.32205493530E+02  0.47000000000E+01 0. -1.
         -5    1    3    3    0  502  0.61340220607E+02 -0.55846998654E+02 -0.97283886438E+02  0.12793652521E+03  0.47000000000E+01 0.  1.
          5    1    4    4  503    0 -0.87602213246E+02  0.88259902818E+01  0.11773610465E+02  0.88953660821E+02  0.47000000000E+01 0. -1.
         -5    1    4    4    0  503  0.22102731178E+02  0.16543473939E+02 -0.18634687704E+01  0.28067414761E+02  0.47000000000E+01 0.  1.
<mgrwt>
<rscale>  0 0.11944154E+03</rscale>
<asrwt>0</asrwt>
<pdfrwt beam="1">  1        1 0.13960561E-01 0.12040379E+03</pdfrwt>
<pdfrwt beam="2">  1       -1 0.28679915E-01 0.12040379E+03</pdfrwt>
<totfact> 0.42978223E+03</totfact>
</mgrwt>
</event>
<event>
 8    1  0.3400573E-004  0.9346987E+02  0.7546771E-02  0.1303408E+00
         -2   -1    0    0    0  501 -0.00000000000E+00  0.00000000000E+00  0.90453397481E+02  0.90453397481E+02  0.00000000000E+00 0.  1.
          2   -1    0    0  501    0  0.00000000000E+00 -0.00000000000E+00 -0.85604028269E+02  0.85604028269E+02  0.00000000000E+00 0. -1.
         23    2    1    2    0    0 -0.53179054854E+01  0.16744387508E+02  0.18348419988E+02  0.81617810893E+02  0.77563831179E+02 0.  0.
         23    2    1    2    0    0  0.53179054854E+01 -0.16744387508E+02 -0.13499050775E+02  0.94439614856E+02  0.91803931564E+02 0.  0.
          5    1    4    4  502    0  0.51155887926E+01 -0.40840338665E+02  0.25288198689E+02  0.48535404644E+02  0.47000000000E+01 0. -1.
         -5    1    3    3    0  503 -0.23995584042E+02  0.27583204149E+02  0.37346952096E+02  0.52473860497E+02  0.47000000000E+01 0.  1.
          5    1    3    3  503    0  0.18677678556E+02 -0.10838816641E+02 -0.18998532108E+02  0.29143950396E+02  0.47000000000E+01 0. -1.
         -5    1    4    4    0  502  0.20231669285E+00  0.24095951157E+02 -0.38787249464E+02  0.45904210212E+02  0.47000000000E+01 0.  1.
<mgrwt>
<rscale>  0 0.89770697E+02</rscale>
<asrwt>0</asrwt>
<pdfrwt beam="1">  1        2 0.13169850E-01 0.93469869E+02</pdfrwt>
<pdfrwt beam="2">  1       -2 0.13915907E-01 0.93469869E+02</pdfrwt>
<totfact> 0.15831913E+04</totfact>
</mgrwt>
</event>
<event>
 8    1  0.3400573E-004  0.1009712E+03  0.7546771E-02  0.1279463E+00
          2   -1    0    0  501    0  0.00000000000E+00  0.00000000000E+00  0.47508043166E+03  0.47508043166E+03  0.00000000000E+00 0. -1.
         -2   -1    0    0    0  501 -0.00000000000E+00 -0.00000000000E+00 -0.21005506898E+02  0.21005506898E+02  0.00000000000E+00 0.  1.
         23    2    1    2    0    0 -0.28408255841E+02 -0.29700574967E+02  0.23845716882E+03  0.25895367438E+03  0.92228146254E+02 0.  0.
         23    2    1    2    0    0  0.28408255841E+02  0.29700574967E+02  0.21561775595E+03  0.23713226418E+03  0.89730378813E+02 0.  0.
          5    1    3    3  502    0 -0.51483693678E+02 -0.20021722925E+02  0.22157286623E+03  0.22840329497E+03  0.47000000000E+01 0. -1.
         -5    1    3    3    0  502  0.23075437837E+02 -0.96788520423E+01  0.16884302584E+02  0.30550379408E+02  0.47000000000E+01 0.  1.
          5    1    4    4  503    0 -0.39156455983E+01 -0.25826375169E+02  0.11215293177E+03  0.11525061406E+03  0.47000000000E+01 0. -1.
         -5    1    4    4    0  503  0.32323901440E+02  0.55526950136E+02  0.10346482417E+03  0.12188165013E+03  0.47000000000E+01 0.  1.
<mgrwt>
<rscale>  0 0.10039727E+03</rscale>
<asrwt>0</asrwt>
<pdfrwt beam="1">  1        2 0.73089289E-01 0.10097120E+03</pdfrwt>
<pdfrwt beam="2">  1       -2 0.32316168E-02 0.10097120E+03</pdfrwt>
<totfact> 0.22772778E+04</totfact>
</mgrwt>
</event>
<event>
 8    1  0.3400573E-004  0.9509465E+02  0.7546771E-02  0.1292682E+00
         -2   -1    0    0    0  501 -0.00000000000E+00  0.00000000000E+00  0.68674323207E+02  0.68674323207E+02  0.00000000000E+00 0.  1.
          2   -1    0    0  501    0  0.00000000000E+00 -0.00000000000E+00 -0.17175394822E+03  0.17175394822E+03  0.00000000000E+00 0. -1.
         23    2    1    2    0    0 -0.17049002470E+02 -0.24443977145E+02 -0.11190484711E+03  0.14492498399E+03  0.87134262337E+02 0.  0.
         23    2    1    2    0    0  0.17049002470E+02  0.24443977145E+02  0.88252221055E+01  0.95503287432E+02  0.90304024613E+02 0.  0.
          5    1    3    3  502    0 -0.46208841488E+02 -0.35713399526E+02 -0.58054374994E+02  0.82480933514E+02  0.47000000000E+01 0. -1.
         -5    1    3    3    0  502  0.29159839018E+02  0.11269422381E+02 -0.53850472120E+02  0.62444050476E+02  0.47000000000E+01 0.  1.
          5    1    4    4  503    0 -0.32175060388E+02  0.27779968401E+02  0.15512472146E+02  0.45493823178E+02  0.47000000000E+01 0. -1.
         -5    1    4    4    0  503  0.49224062858E+02 -0.33359912559E+01 -0.66872500403E+01  0.50009464254E+02  0.47000000000E+01 0.  1.
<mgrwt>
<rscale>  0 0.94334407E+02</rscale>
<asrwt>0</asrwt>
<pdfrwt beam="1">  1        2 0.26423684E-01 0.95094655E+02</pdfrwt>
<pdfrwt beam="2">  1       -2 0.10565281E-01 0.95094655E+02</pdfrwt>
<totfact> 0.11182583E+04</totfact>
</mgrwt>
</event>
<event>
 8    1  0.3400573E-004  0.1072023E+03  0.7546771E-02  0.1269682E+00
         -2   -1    0    0    0  501 -0.00000000000E+00  0.00000000000E+00  0.50974500718E+03  0.50974500718E+03  0.00000000000E+00 0.  1.
          2   -1    0    0  501    0  0.00000000000E+00 -0.00000000000E+00 -0.21784584370E+02  0.21784584370E+02  0.00000000000E+00 0. -1.
         23    2    1    2    0    0 -0.41518943676E+02 -0.16114282755E+02  0.28707732613E+03  0.30383166585E+03  0.88976385644E+02 0.  0.
         23    2    1    2    0    0  0.41518943676E+02  0.16114282755E+02  0.20088309668E+03  0.22769792570E+03  0.97513250607E+02 0.  0.
          5    1    4    4  502    0  0.38320594007E+02 -0.34963503687E+02  0.71327879551E+02  0.88321406897E+02  0.47000000000E+01 0. -1.
         -5    1    4    4    0  502  0.31983496689E+01  0.51077786442E+02  0.12955521713E+03  0.13937651880E+03  0.47000000000E+01 0.  1.
          5    1    3    3  503    0  0.27791272407E+02 -0.77417851711E+01  0.74215795687E+02  0.79764430601E+02  0.47000000000E+01 0. -1.
         -5    1    3    3    0  503 -0.69310216083E+02 -0.83724975843E+01  0.21286153044E+03  0.22406723525E+03  0.47000000000E+01 0.  1.
<mgrwt>
<rscale>  0 0.10522259E+03</rscale>
<asrwt>0</asrwt>
<pdfrwt beam="1">  1        2 0.33514749E-02 0.10720227E+03</pdfrwt>
<pdfrwt beam="2">  1       -2 0.78422300E-01 0.10720227E+03</pdfrwt>
<totfact> 0.37377341E+03</totfact>
</mgrwt>
</event>
<event>
 8    1  0.3400573E-004  0.9937585E+02  0.7546771E-02  0.1283388E+00
         -1   -1    0    0    0  501 -0.00000000000E+00  0.00000000000E+00  0.79566616155E+02  0.79566616155E+02  0.00000000000E+00 0.  1.
          1   -1    0    0  501    0  0.00000000000E+00 -0.00000000000E+00 -0.13495631246E+03  0.13495631246E+03  0.00000000000E+00 0. -1.
         23    2    1    2    0    0 -0.29921878537E+02  0.19366350651E+02 -0.62926972071E+02  0.11486165456E+03  0.89235763687E+02 0.  0.
         23    2    1    2    0    0  0.29921878537E+02 -0.19366350651E+02  0.75372757703E+01  0.99661274054E+02  0.92764134595E+02 0.  0.
          5    1    3    3  502    0 -0.15989939004E+02 -0.29382305507E+02  0.17250305334E+00  0.33780434923E+02  0.47000000000E+01 0.  1.
         -5    1    3    3    0  502 -0.13931939533E+02  0.48748656158E+02 -0.63099475124E+02  0.81081219634E+02  0.47000000000E+01 0. -1.
          5    1    4    4  503    0 -0.29798912399E+02  0.82246372421E+01  0.12150529762E+02  0.33546165376E+02  0.47000000000E+01 0. -1.
         -5    1    4    4    0  503  0.59720790937E+02 -0.27590987893E+02 -0.46132539915E+01  0.66115108677E+02  0.47000000000E+01 0.  1.
<mgrwt>
<rscale>  0 0.98544143E+02</rscale>
<asrwt>0</asrwt>
<pdfrwt beam="1">  1        1 0.20762510E-01 0.99375847E+02</pdfrwt>
<pdfrwt beam="2">  1       -1 0.12241018E-01 0.99375847E+02</pdfrwt>
<totfact> 0.98889069E+03</totfact>
</mgrwt>
</event>
<event>
 8    1  0.3400573E-004  0.1107980E+03  0.7546771E-02  0.1259481E+00
         -2   -1    0    0    0  501 -0.00000000000E+00  0.00000000000E+00  0.32503791732E+02  0.32503791732E+02  0.00000000000E+00 0.  1.
          2   -1    0    0  501    0  0.00000000000E+00 -0.00000000000E+00 -0.39299800486E+03  0.39299800486E+03  0.00000000000E+00 0. -1.
         23    2    1    2    0    0 -0.37902057056E+02  0.49253310400E+02 -0.13519514160E+03  0.17479677864E+03  0.91726402942E+02 0.  0.
         23    2    1    2    0    0  0.37902057056E+02 -0.49253310400E+02 -0.22529907153E+03  0.25070501795E+03  0.90724196773E+02 0.  0.
          5    1    4    4  502    0  0.22466452448E+02 -0.62239467099E+02 -0.21934122164E+03  0.22915312405E+03  0.47000000000E+01 0. -1.
         -5    1    3    3    0  503 -0.67760396519E+02  0.33134871695E+02 -0.81887300384E+02  0.11143164283E+03  0.47000000000E+01 0.  1.
          5    1    3    3  503    0  0.29858339463E+02  0.16118438705E+02 -0.53307841220E+02  0.63365135818E+02  0.47000000000E+01 0. -1.
         -5    1    4    4    0  502  0.15435604608E+02  0.12986156699E+02 -0.59578498849E+01  0.21551893900E+02  0.47000000000E+01 0.  1.
<mgrwt>
<rscale>  0 0.11059031E+03</rscale>
<asrwt>0</asrwt>
<pdfrwt beam="1">  1        2 0.60461234E-01 0.11079796E+03</pdfrwt>
<pdfrwt beam="2">  1       -2 0.50005831E-02 0.11079796E+03</pdfrwt>
<totfact> 0.14759828E+04</totfact>
</mgrwt>
</event>
<event>
 8    1  0.3400573E-004  0.1225402E+03  0.7546771E-02  0.1239540E+00
          2   -1    0    0  501    0  0.00000000000E+00  0.00000000000E+00  0.82105204670E+03  0.82105204670E+03  0.00000000000E+00 0. -1.
         -2   -1    0    0    0  501 -0.00000000000E+00 -0.00000000000E+00 -0.19709520974E+02  0.19709520974E+02  0.00000000000E+00 0.  1.
         23    2    1    2    0    0  0.26324321410E+02  0.76576542975E+02  0.51952138012E+03  0.53345186868E+03  0.90063838248E+02 0.  0.
         23    2    1    2    0    0 -0.26324321410E+02 -0.76576542975E+02  0.28182114561E+03  0.30730969900E+03  0.91973670992E+02 0.  0.
          5    1    4    4  502    0  0.21200554735E+02  0.95104482926E+01  0.45564745490E+02  0.51362906648E+02  0.47000000000E+01 0. -1.
         -5    1    3    3    0  503  0.40982416230E+02  0.25743239692E+02  0.39628896061E+03  0.39926094616E+03  0.47000000000E+01 0.  1.
          5    1    3    3  503    0 -0.14658094820E+02  0.50833303284E+02  0.12323241951E+03  0.13419092252E+03  0.47000000000E+01 0. -1.
         -5    1    4    4    0  502 -0.47524876146E+02 -0.86086991268E+02  0.23625640012E+03  0.25594679235E+03  0.47000000000E+01 0.  1.
<mgrwt>
<rscale>  0 0.12218188E+03</rscale>
<asrwt>0</asrwt>
<pdfrwt beam="1">  1        2 0.12631567E+00 0.12254017E+03</pdfrwt>
<pdfrwt beam="2">  1       -2 0.30322346E-02 0.12254017E+03</pdfrwt>
<totfact> 0.13563862E+04</totfact>
</mgrwt>
</event>
<event>
 8    1  0.3400573E-004  0.2460550E+03  0.7546771E-02  0.1115919E+00
         -1   -1    0    0    0  501 -0.00000000000E+00  0.00000000000E+00  0.18504595020E+03  0.18504595020E+03  0.00000000000E+00 0.  1.
          1   -1    0    0  501    0  0.00000000000E+00 -0.00000000000E+00 -0.33532395651E+03  0.33532395651E+03  0.00000000000E+00 0. -1.
         23    2    1    2    0    0 -0.10188601862E+03  0.20403183559E+03 -0.11751982537E+03  0.27214388328E+03  0.90783440813E+02 0.  0.
         23    2    1    2    0    0  0.10188601862E+03 -0.20403183559E+03 -0.32758180942E+02  0.24822602343E+03  0.92375914411E+02 0.  0.
          5    1    4    4  502    0  0.74637547974E+02 -0.13053309202E+03 -0.64295256342E+02  0.16360202220E+03  0.47000000000E+01 0. -1.
         -5    1    4    4    0  502  0.27248470647E+02 -0.73498743571E+02  0.31537075400E+02  0.84624001229E+02  0.47000000000E+01 0.  1.
          5    1    3    3  503    0 -0.74000508694E+02  0.20188473215E+03 -0.11442344781E+03  0.24361513863E+03  0.47000000000E+01 0. -1.
         -5    1    3    3    0  503 -0.27885509928E+02  0.21471034442E+01 -0.30963775550E+01  0.28528744647E+02  0.47000000000E+01 0.  1.
<mgrwt>
<rscale>  0 0.24590650E+03</rscale>
<asrwt>0</asrwt>
<pdfrwt beam="1">  1        1 0.51588300E-01 0.24605499E+03</pdfrwt>
<pdfrwt beam="2">  1       -1 0.28468608E-01 0.24605499E+03</pdfrwt>
<totfact> 0.85135701E+02</totfact>
</mgrwt>
</event>
<event>
 8    1  0.3400573E-004  0.1046773E+03  0.7546771E-02  0.1276184E+00
         -1   -1    0    0    0  501 -0.00000000000E+00  0.00000000000E+00  0.14538211886E+02  0.14538211886E+02  0.00000000000E+00 0.  1.
          1   -1    0    0  501    0  0.00000000000E+00 -0.00000000000E+00 -0.71243386747E+03  0.71243386747E+03  0.00000000000E+00 0. -1.
         23    2    1    2    0    0 -0.15994468952E+00  0.17707854892E+02 -0.40800036098E+03  0.41875685651E+03  0.92625140241E+02 0.  0.
         23    2    1    2    0    0  0.15994468952E+00 -0.17707854892E+02 -0.28989529460E+03  0.30821522285E+03  0.10316854198E+03 0.  0.
          5    1    4    4  502    0 -0.38213694914E+02 -0.23733077230E+02 -0.24284821560E+03  0.24702407019E+03  0.47000000000E+01 0. -1.
         -5    1    4    4    0  502  0.38373639604E+02  0.60252223381E+01 -0.47047079002E+02  0.61191152655E+02  0.47000000000E+01 0.  1.
          5    1    3    3  503    0 -0.34298796576E+02 -0.18456909217E+02 -0.11447623236E+03  0.12101224202E+03  0.47000000000E+01 0. -1.
         -5    1    3    3    0  503  0.34138851887E+02  0.36164764109E+02 -0.29352412862E+03  0.29774461449E+03  0.47000000000E+01 0.  1.
<mgrwt>
<rscale>  0 0.10198130E+03</rscale>
<asrwt>0</asrwt>
<pdfrwt beam="1">  1        1 0.10960522E+00 0.10467732E+03</pdfrwt>
<pdfrwt beam="2">  1       -1 0.22366478E-02 0.10467732E+03</pdfrwt>
<totfact> 0.14894783E+04</totfact>
</mgrwt>
</event>
<event>
 8    1  0.3400573E-004  0.1208316E+03  0.7546771E-02  0.1242581E+00
          2   -1    0    0  501    0  0.00000000000E+00  0.00000000000E+00  0.20240722681E+03  0.20240722681E+03  0.00000000000E+00 0. -1.
         -2   -1    0    0    0  501 -0.00000000000E+00 -0.00000000000E+00 -0.13818753932E+03  0.13818753932E+03  0.00000000000E+00 0.  1.
         23    2    1    2    0    0  0.56766161358E+02 -0.49714014484E+02  0.15107608274E+03  0.19345352637E+03  0.94373745158E+02 0.  0.
         23    2    1    2    0    0 -0.56766161358E+02  0.49714014484E+02 -0.86856395255E+02  0.14714123976E+03  0.91720394304E+02 0.  0.
          5    1    4    4  502    0  0.10311005706E+02  0.17568157576E+02 -0.66748708058E+02  0.69945957901E+02  0.47000000000E+01 0. -1.
         -5    1    4    4    0  502 -0.67077167063E+02  0.32145856908E+02 -0.20107687197E+02  0.77195281864E+02  0.47000000000E+01 0.  1.
          5    1    3    3  503    0  0.71744431729E+02 -0.65677526177E+02  0.13204192424E+03  0.16406693965E+03  0.47000000000E+01 0. -1.
         -5    1    3    3    0  503 -0.14978270372E+02  0.15963511694E+02  0.19034158502E+02  0.29386586716E+02  0.47000000000E+01 0.  1.
<mgrwt>
<rscale>  0 0.12031311E+03</rscale>
<asrwt>0</asrwt>
<pdfrwt beam="1">  1        2 0.31139573E-01 0.12083164E+03</pdfrwt>
<pdfrwt beam="2">  1       -2 0.21259621E-01 0.12083164E+03</pdfrwt>
<totfact> 0.30540212E+03</totfact>
</mgrwt>
</event>
<event>
 8    1  0.3400573E-004  0.9226506E+02  0.7546771E-02  0.1300094E+00
         -2   -1    0    0    0  501 -0.00000000000E+00  0.00000000000E+00  0.10107118639E+02  0.10107118639E+02  0.00000000000E+00 0.  1.
          2   -1    0    0  501    0  0.00000000000E+00 -0.00000000000E+00 -0.82741765275E+03  0.82741765275E+03  0.00000000000E+00 0. -1.
         23    2    1    2    0    0  0.11126202907E+02  0.59386920268E+00 -0.47135785225E+03  0.47947994387E+03  0.87170216350E+02 0.  0.
         23    2    1    2    0    0 -0.11126202907E+02 -0.59386920268E+00 -0.34595268186E+03  0.35804482752E+03  0.91589821262E+02 0.  0.
          5    1    4    4  502    0 -0.45585769591E+02  0.21934225632E+02 -0.19437397816E+03  0.20090422104E+03  0.47000000000E+01 0. -1.
         -5    1    4    4    0  502  0.34459566684E+02 -0.22528094835E+02 -0.15157870370E+03  0.15714060649E+03  0.47000000000E+01 0.  1.
          5    1    3    3  503    0 -0.66956790667E+01 -0.41233316459E+02 -0.21260609920E+03  0.21672208453E+03  0.47000000000E+01 0. -1.
         -5    1    3    3    0  503  0.17821881974E+02  0.41827185661E+02 -0.25875175305E+03  0.26275785934E+03  0.47000000000E+01 0.  1.
<mgrwt>
<rscale>  0 0.91148542E+02</rscale>
<asrwt>0</asrwt>
<pdfrwt beam="1">  1        2 0.12729505E+00 0.92265055E+02</pdfrwt>
<pdfrwt beam="2">  1       -2 0.15549410E-02 0.92265055E+02</pdfrwt>
<totfact> 0.34432485E+04</totfact>
</mgrwt>
</event>
<event>
 8    1  0.3400573E-004  0.1058915E+03  0.7546771E-02  0.1269019E+00
         -3   -1    0    0    0  501 -0.00000000000E+00  0.00000000000E+00  0.61189696068E+02  0.61189696068E+02  0.00000000000E+00 0.  1.
          3   -1    0    0  501    0  0.00000000000E+00 -0.00000000000E+00 -0.25360851344E+03  0.25360851344E+03  0.00000000000E+00 0. -1.
         23    2    1    2    0    0  0.31176706094E+02 -0.44536248572E+02 -0.11547280486E+02  0.10520928935E+03  0.89331911650E+02 0.  0.
         23    2    1    2    0    0 -0.31176706094E+02  0.44536248572E+02 -0.18087153689E+03  0.20958892016E+03  0.90870997341E+02 0.  0.
          5    1    4    4  502    0 -0.37417053583E+02  0.67847167637E+02 -0.11044346795E+03  0.13499305045E+03  0.47000000000E+01 0. -1.
         -5    1    3    3    0  503  0.57846962370E+02 -0.50297860758E+02 -0.65958135965E+01  0.77082686832E+02  0.47000000000E+01 0.  1.
          5    1    3    3  503    0 -0.26670256276E+02  0.57616121854E+01 -0.49514668894E+01  0.28126602517E+02  0.47000000000E+01 0. -1.
         -5    1    4    4    0  502  0.62403474895E+01 -0.23310919065E+02 -0.70428068933E+02  0.74595869712E+02  0.47000000000E+01 0.  1.
<mgrwt>
<rscale>  0 0.10556047E+03</rscale>
<asrwt>0</asrwt>
<pdfrwt beam="1">  1        3 0.39016694E-01 0.10589147E+03</pdfrwt>
<pdfrwt beam="2">  1       -3 0.94137994E-02 0.10589147E+03</pdfrwt>
<totfact> 0.11736446E+03</totfact>
</mgrwt>
</event>
<event>
 8    1  0.3400573E-004  0.1468377E+03  0.7546771E-02  0.1204568E+00
         -2   -1    0    0    0  501 -0.00000000000E+00  0.00000000000E+00  0.33514223638E+02  0.33514223638E+02  0.00000000000E+00 0.  1.
          2   -1    0    0  501    0  0.00000000000E+00 -0.00000000000E+00 -0.69520063365E+03  0.69520063365E+03  0.00000000000E+00 0. -1.
         23    2    1    2    0    0 -0.20193259297E+02 -0.11233383660E+03 -0.43288771860E+03  0.45711386900E+03  0.92383189744E+02 0.  0.
         23    2    1    2    0    0  0.20193259297E+02  0.11233383660E+03 -0.22879869141E+03  0.27160098829E+03  0.91605660756E+02 0.  0.
          5    1    3    3  502    0 -0.62472856519E+01 -0.76615567416E+02 -0.39694820055E+03  0.40435001875E+03  0.47000000000E+01 0. -1.
         -5    1    4    4    0  503 -0.32406179056E+02  0.22001407109E+02 -0.42931519082E+02  0.58304611194E+02  0.47000000000E+01 0. -1.
          5    1    4    4  503    0  0.52599438353E+02  0.90332429493E+02 -0.18586717233E+03  0.21329637710E+03  0.47000000000E+01 0.  1.
         -5    1    3    3    0  502 -0.13945973645E+02 -0.35718269187E+02 -0.35939518054E+02  0.52763850244E+02  0.47000000000E+01 0.  1.
<mgrwt>
<rscale>  0 0.14671557E+03</rscale>
<asrwt>0</asrwt>
<pdfrwt beam="1">  1        2 0.10695394E+00 0.14683771E+03</pdfrwt>
<pdfrwt beam="2">  1       -2 0.51560346E-02 0.14683771E+03</pdfrwt>
<totfact> 0.76353208E+03</totfact>
</mgrwt>
</event>
<event>
 8    1  0.3400573E-004  0.9484929E+02  0.7546771E-02  0.1292828E+00
          1   -1    0    0  501    0  0.00000000000E+00  0.00000000000E+00  0.17018960917E+02  0.17018960917E+02  0.00000000000E+00 0. -1.
         -1   -1    0    0    0  501 -0.00000000000E+00 -0.00000000000E+00 -0.91538110287E+03  0.91538110287E+03  0.00000000000E+00 0.  1.
         23    2    1    2    0    0  0.22490512503E+02 -0.11070197684E+02 -0.14431512732E+03  0.17269407723E+03  0.91476859966E+02 0.  0.
         23    2    1    2    0    0 -0.22490512503E+02  0.11070197684E+02 -0.75404701464E+03  0.75970598655E+03  0.89094967846E+02 0.  0.
          5    1    3    3  502    0  0.34303931699E+02 -0.45223849265E+02 -0.72843139568E+02  0.92467125263E+02  0.47000000000E+01 0. -1.
         -5    1    4    4    0  503 -0.29611324911E+02  0.46572814677E+02 -0.40931972439E+03  0.41305034125E+03  0.47000000000E+01 0.  1.
          5    1    4    4  503    0  0.71208124082E+01 -0.35502616993E+02 -0.34472729025E+03  0.34665564531E+03  0.47000000000E+01 0. -1.
         -5    1    3    3    0  502 -0.11813419197E+02  0.34153651581E+02 -0.71471987748E+02  0.80226951968E+02  0.47000000000E+01 0.  1.
<mgrwt>
<rscale>  0 0.94270246E+02</rscale>
<asrwt>0</asrwt>
<pdfrwt beam="1">  1        1 0.26183017E-02 0.94849293E+02</pdfrwt>
<pdfrwt beam="2">  1       -1 0.14082786E+00 0.94849293E+02</pdfrwt>
<totfact> 0.17544360E+03</totfact>
</mgrwt>
</event>
<event>
 8    1  0.3400573E-004  0.9876704E+02  0.7546771E-02  0.1283467E+00
         -1   -1    0    0    0  501 -0.00000000000E+00  0.00000000000E+00  0.94847418372E+02  0.94847418372E+02  0.00000000000E+00 0.  1.
          1   -1    0    0  501    0  0.00000000000E+00 -0.00000000000E+00 -0.10436492951E+03  0.10436492951E+03  0.00000000000E+00 0. -1.
         23    2    1    2    0    0 -0.21726102486E+02 -0.27085055954E+02  0.10965263941E+02  0.98343762158E+02  0.91354445742E+02 0.  0.
         23    2    1    2    0    0  0.21726102486E+02  0.27085055954E+02 -0.20482775077E+02  0.10086858572E+03  0.92462444946E+02 0.  0.
          5    1    3    3  502    0 -0.50844342061E+02 -0.98324361088E+01  0.29174504939E+02  0.59624371342E+02  0.47000000000E+01 0. -1.
         -5    1    3    3    0  502  0.29118239575E+02 -0.17252619845E+02 -0.18209240999E+02  0.38719390817E+02  0.47000000000E+01 0.  1.
          5    1    4    4  503    0 -0.35831463217E+02  0.37162407527E+01 -0.10141133821E+02  0.37717857797E+02  0.47000000000E+01 0. -1.
         -5    1    4    4    0  503  0.57557565703E+02  0.23368815202E+02 -0.10341641256E+02  0.63150727925E+02  0.47000000000E+01 0.  1.
<mgrwt>
<rscale>  0 0.98506886E+02</rscale>
<asrwt>0</asrwt>
<pdfrwt beam="1">  1        1 0.16056143E-01 0.98767037E+02</pdfrwt>
<pdfrwt beam="2">  1       -1 0.14591911E-01 0.98767037E+02</pdfrwt>
<totfact> 0.10439761E+04</totfact>
</mgrwt>
</event>
<event>
 8    1  0.3400573E-004  0.9297629E+02  0.7546771E-02  0.1296744E+00
          2   -1    0    0  501    0  0.00000000000E+00  0.00000000000E+00  0.24386685242E+03  0.24386685242E+03  0.00000000000E+00 0. -1.
         -2   -1    0    0    0  501 -0.00000000000E+00 -0.00000000000E+00 -0.42274909026E+02  0.42274909026E+02  0.00000000000E+00 0.  1.
         23    2    1    2    0    0  0.12400278656E+02  0.15652014128E+02  0.41507536645E+02  0.10182075825E+03  0.90806600839E+02 0.  0.
         23    2    1    2    0    0 -0.12400278656E+02 -0.15652014128E+02  0.16008440675E+03  0.18432100319E+03  0.89154150083E+02 0.  0.
          5    1    3    3  502    0 -0.18171164616E+02 -0.27680377348E+02 -0.13557361465E+01  0.33471219490E+02  0.47000000000E+01 0. -1.
         -5    1    4    4    0  503  0.20866382707E+02  0.15709821149E+02  0.11738722112E+02  0.29018821558E+02  0.47000000000E+01 0.  1.
          5    1    4    4  503    0 -0.33266661363E+02 -0.31361835277E+02  0.14834568464E+03  0.15530218164E+03  0.47000000000E+01 0. -1.
         -5    1    3    3    0  502  0.30571443273E+02  0.43332391476E+02  0.42863272791E+02  0.68349538763E+02  0.47000000000E+01 0.  1.
<mgrwt>
<rscale>  0 0.92570343E+02</rscale>
<asrwt>0</asrwt>
<pdfrwt beam="1">  1        2 0.37517976E-01 0.92976294E+02</pdfrwt>
<pdfrwt beam="2">  1       -2 0.65038323E-02 0.92976294E+02</pdfrwt>
<totfact> 0.16162657E+04</totfact>
</mgrwt>
</event>
<event>
 8    1  0.3400573E-004  0.9825033E+02  0.7546771E-02  0.1284479E+00
          1   -1    0    0  501    0  0.00000000000E+00  0.00000000000E+00  0.60726812907E+03  0.60726812907E+03  0.00000000000E+00 0. -1.
         -1   -1    0    0    0  501 -0.00000000000E+00 -0.00000000000E+00 -0.31479127408E+02  0.31479127408E+02  0.00000000000E+00 0.  1.
         23    2    1    2    0    0 -0.24374077971E+02  0.23066743586E+02  0.62827964254E+02  0.11662109907E+03  0.92341525433E+02 0.  0.
         23    2    1    2    0    0  0.24374077971E+02 -0.23066743586E+02  0.51296103741E+03  0.52212615741E+03  0.91435923005E+02 0.  0.
          5    1    3    3  502    0  0.12394369075E+02 -0.17958235059E+02 -0.10595499743E+02  0.24707755989E+02  0.47000000000E+01 0. -1.
         -5    1    4    4    0  503  0.55737159011E+02 -0.24202678371E+02  0.25309616360E+03  0.26033086364E+03  0.47000000000E+01 0.  1.
          5    1    4    4  503    0 -0.31363081040E+02  0.11359347843E+01  0.25986487381E+03  0.26179529377E+03  0.47000000000E+01 0. -1.
         -5    1    3    3    0  502 -0.36768447046E+02  0.41024978646E+02  0.73423463997E+02  0.91913343081E+02  0.47000000000E+01 0.  1.
<mgrwt>
<rscale>  0 0.98036976E+02</rscale>
<asrwt>0</asrwt>
<pdfrwt beam="1">  1        1 0.93425857E-01 0.98250332E+02</pdfrwt>
<pdfrwt beam="2">  1       -1 0.48429431E-02 0.98250332E+02</pdfrwt>
<totfact> 0.60379724E+03</totfact>
</mgrwt>
</event>
<event>
 8    1  0.3400573E-004  0.1130595E+03  0.7546771E-02  0.1255052E+00
         -2   -1    0    0    0  501 -0.00000000000E+00  0.00000000000E+00  0.12427955015E+03  0.12427955015E+03  0.00000000000E+00 0.  1.
          2   -1    0    0  501    0  0.00000000000E+00 -0.00000000000E+00 -0.22936976672E+03  0.22936976672E+03  0.00000000000E+00 0. -1.
         23    2    1    2    0    0  0.56444151647E+02 -0.35941252691E+02  0.78838336894E+02  0.13775078862E+03  0.91005936631E+02 0.  0.
         23    2    1    2    0    0 -0.56444151647E+02  0.35941252691E+02 -0.18392855346E+03  0.21589852824E+03  0.91130378133E+02 0.  0.
          5    1    3    3  502    0 -0.23310093979E+02 -0.19259669101E+02  0.14695797625E+02  0.33946307650E+02  0.47000000000E+01 0. -1.
         -5    1    4    4    0  503  0.19139517370E+02  0.31447352643E+02 -0.56558206458E+02  0.67647452510E+02  0.47000000000E+01 0.  1.
          5    1    4    4  503    0 -0.75583669018E+02  0.44939000476E+01 -0.12737034701E+03  0.14825107573E+03  0.47000000000E+01 0. -1.
         -5    1    3    3    0  502  0.79754245626E+02 -0.16681583589E+02  0.64142539268E+02  0.10380448097E+03  0.47000000000E+01 0.  1.
<mgrwt>
<rscale>  0 0.11303447E+03</rscale>
<asrwt>0</asrwt>
<pdfrwt beam="1">  1        2 0.35287656E-01 0.11305955E+03</pdfrwt>
<pdfrwt beam="2">  1       -2 0.19119931E-01 0.11305955E+03</pdfrwt>
<totfact> 0.31844908E+03</totfact>
</mgrwt>
</event>
<event>
 8    1  0.3400573E-004  0.1001935E+03  0.7546771E-02  0.1279949E+00
          2   -1    0    0  501    0  0.00000000000E+00  0.00000000000E+00  0.50336546256E+02  0.50336546256E+02  0.00000000000E+00 0. -1.
         -2   -1    0    0    0  501 -0.00000000000E+00 -0.00000000000E+00 -0.39965133878E+03  0.39965133878E+03  0.00000000000E+00 0.  1.
         23    2    1    2    0    0  0.40437496456E+02 -0.18529144200E+01 -0.33394898197E+03  0.34862298133E+03  0.91528335188E+02 0.  0.
         23    2    1    2    0    0 -0.40437496456E+02  0.18529144200E+01 -0.15365810559E+02  0.10136490371E+03  0.91652120317E+02 0.  0.
          5    1    3    3  502    0  0.30936812113E+02 -0.44838530624E+02 -0.15816839297E+03  0.16735265372E+03  0.47000000000E+01 0. -1.
         -5    1    4    4    0  503  0.16862935008E+02  0.22099621723E+02 -0.27310510214E+02  0.39251825760E+02  0.47000000000E+01 0.  1.
          5    1    4    4  503    0 -0.57300431464E+02 -0.20246707303E+02  0.11944699655E+02  0.62113077950E+02  0.47000000000E+01 0. -1.
         -5    1    3    3    0  502  0.95006843423E+01  0.42985616204E+02 -0.17578058900E+03  0.18127032761E+03  0.47000000000E+01 0.  1.
<mgrwt>
<rscale>  0 0.10016517E+03</rscale>
<asrwt>0</asrwt>
<pdfrwt beam="1">  1        2 0.77440842E-02 0.10019349E+03</pdfrwt>
<pdfrwt beam="2">  1       -2 0.61484820E-01 0.10019349E+03</pdfrwt>
<totfact> 0.21070070E+03</totfact>
</mgrwt>
</event>
<event>
 8    1  0.3400573E-004  0.1174698E+03  0.7546771E-02  0.1252672E+00
         -1   -1    0    0    0  501 -0.00000000000E+00  0.00000000000E+00  0.60955016699E+03  0.60955016699E+03  0.00000000000E+00 0.  1.
          1   -1    0    0  501    0  0.00000000000E+00 -0.00000000000E+00 -0.70404852137E+02  0.70404852137E+02  0.00000000000E+00 0. -1.
         23    2    1    2    0    0 -0.45897138460E+02 -0.23954733395E+02  0.56012606101E+03  0.57231141869E+03  0.10544562187E+03 0.  0.
         23    2    1    2    0    0  0.45897138460E+02  0.23954733395E+02 -0.20980746158E+02  0.10764360044E+03  0.92014001296E+02 0.  0.
          5    1    3    3  502    0 -0.78730829802E+01 -0.61349731807E+02  0.35111923182E+03  0.35655655930E+03  0.47000000000E+01 0. -1.
         -5    1    4    4    0  503 -0.52886626009E+01 -0.29943312650E+02 -0.10046490260E+02  0.32366555132E+02  0.47000000000E+01 0.  1.
          5    1    4    4  503    0  0.51185801061E+02  0.53898046044E+02 -0.10934255898E+02  0.75277045304E+02  0.47000000000E+01 0. -1.
         -5    1    3    3    0  502 -0.38024055480E+02  0.37394998412E+02  0.20900682919E+03  0.21575485939E+03  0.47000000000E+01 0.  1.
<mgrwt>
<rscale>  0 0.11437714E+03</rscale>
<asrwt>0</asrwt>
<pdfrwt beam="1">  1        1 0.10831516E-01 0.11746981E+03</pdfrwt>
<pdfrwt beam="2">  1       -1 0.93776945E-01 0.11746981E+03</pdfrwt>
<totfact> 0.66308567E+02</totfact>
</mgrwt>
</event>
<event>
 8    1  0.3400573E-004  0.1627488E+03  0.7546771E-02  0.1187986E+00
          1   -1    0    0  501    0  0.00000000000E+00  0.00000000000E+00  0.50258193039E+03  0.50258193039E+03  0.00000000000E+00 0. -1.
         -1   -1    0    0    0  501 -0.00000000000E+00 -0.00000000000E+00 -0.50366652195E+02  0.50366652195E+02  0.00000000000E+00 0.  1.
         23    2    1    2    0    0  0.38203473103E+01 -0.12341383783E+03  0.25401191879E+03  0.30167737447E+03  0.10602647292E+03 0.  0.
         23    2    1    2    0    0 -0.38203473103E+01  0.12341383783E+03  0.19820335940E+03  0.25127120811E+03  0.92774338722E+02 0.  0.
          5    1    4    4  502    0 -0.19400542123E+02 -0.56786266777E+01  0.49530037273E+02  0.53702350301E+02  0.47000000000E+01 0. -1.
         -5    1    4    4    0  502  0.15580194812E+02  0.12909246451E+03  0.14867332213E+03  0.19756885781E+03  0.47000000000E+01 0.  1.
          5    1    3    3  503    0 -0.19872391526E+02  0.56336790974E+01  0.85354142568E+02  0.87943561099E+02  0.47000000000E+01 0. -1.
         -5    1    3    3    0  503  0.23692738837E+02 -0.12904751693E+03  0.16865777622E+03  0.21373381337E+03  0.47000000000E+01 0.  1.
<mgrwt>
<rscale>  0 0.16063142E+03</rscale>
<asrwt>0</asrwt>
<pdfrwt beam="1">  1        1 0.77320294E-01 0.16274884E+03</pdfrwt>
<pdfrwt beam="2">  1       -1 0.77487161E-02 0.16274884E+03</pdfrwt>
<totfact> 0.39604660E+03</totfact>
</mgrwt>
</event>
<event>
 8    1  0.3400573E-004  0.9523541E+02  0.7546771E-02  0.1291985E+00
         -1   -1    0    0    0  501 -0.00000000000E+00  0.00000000000E+00  0.33461421998E+02  0.33461421998E+02  0.00000000000E+00 0.  1.
          1   -1    0    0  501    0  0.00000000000E+00 -0.00000000000E+00 -0.27653667184E+03  0.27653667184E+03  0.00000000000E+00 0. -1.
         23    2    1    2    0    0  0.21444757289E+02  0.10763747365E+01 -0.15255813160E+03  0.17860885295E+03  0.90366490677E+02 0.  0.
         23    2    1    2    0    0 -0.21444757289E+02 -0.10763747365E+01 -0.90517118244E+02  0.13138924089E+03  0.92783337558E+02 0.  0.
          5    1    3    3  502    0  0.34032379896E+02 -0.32983282702E+02 -0.12183372760E+03  0.13081149414E+03  0.47000000000E+01 0. -1.
         -5    1    3    3    0  502 -0.12587622606E+02  0.34059657439E+02 -0.30724403999E+02  0.47797358806E+02  0.47000000000E+01 0.  1.
          5    1    4    4  503    0 -0.23025978722E+02 -0.42179961106E+02 -0.70377996210E+02  0.85349265759E+02  0.47000000000E+01 0. -1.
         -5    1    4    4    0  503  0.15812214322E+01  0.41103586370E+02 -0.20139122034E+02  0.46039975130E+02  0.47000000000E+01 0.  1.
<mgrwt>
<rscale>  0 0.94641628E+02</rscale>
<asrwt>0</asrwt>
<pdfrwt beam="1">  1        1 0.42544102E-01 0.95235413E+02</pdfrwt>
<pdfrwt beam="2">  1       -1 0.51479112E-02 0.95235413E+02</pdfrwt>
<totfact> 0.14852688E+04</totfact>
</mgrwt>
</event>
<event>
 8    1  0.3400573E-004  0.1403510E+03  0.7546771E-02  0.1215015E+00
          2   -1    0    0  501    0  0.00000000000E+00  0.00000000000E+00  0.83589837547E+03  0.83589837547E+03  0.00000000000E+00 0. -1.
         -2   -1    0    0    0  501 -0.00000000000E+00 -0.00000000000E+00 -0.11232203255E+03  0.11232203255E+03  0.00000000000E+00 0.  1.
         23    2    1    2    0    0 -0.91873845766E+02 -0.35420985205E+02 -0.60448207530E+02  0.15281487874E+03  0.10001475712E+03 0.  0.
         23    2    1    2    0    0  0.91873845766E+02  0.35420985205E+02  0.78402455045E+03  0.79540552927E+03  0.90994563362E+02 0.  0.
          5    1    3    3  502    0 -0.25412020412E+02  0.32809832928E+02 -0.33984296663E+02  0.53844947190E+02  0.47000000000E+01 0. -1.
         -5    1    4    4    0  503 -0.16454942576E+02  0.15738680640E+02  0.10986904629E+03  0.11230213059E+03  0.47000000000E+01 0.  1.
          5    1    4    4  503    0  0.10832878834E+03  0.19682304564E+02  0.67415550416E+03  0.68310339868E+03  0.47000000000E+01 0. -1.
         -5    1    3    3    0  502 -0.66461825354E+02 -0.68230818133E+02 -0.26463910867E+02  0.98969931549E+02  0.47000000000E+01 0.  1.
<mgrwt>
<rscale>  0 0.13875435E+03</rscale>
<asrwt>0</asrwt>
<pdfrwt beam="1">  1        2 0.12859975E+00 0.14035099E+03</pdfrwt>
<pdfrwt beam="2">  1       -2 0.17280313E-01 0.14035099E+03</pdfrwt>
<totfact> 0.90887322E+02</totfact>
</mgrwt>
</event>
<event>
 8    1  0.3400573E-004  0.1083081E+03  0.7546771E-02  0.1265295E+00
          1   -1    0    0  501    0  0.00000000000E+00  0.00000000000E+00  0.71840155023E+02  0.71840155023E+02  0.00000000000E+00 0. -1.
         -1   -1    0    0    0  501 -0.00000000000E+00 -0.00000000000E+00 -0.50808839425E+03  0.50808839425E+03  0.00000000000E+00 0.  1.
         23    2    1    2    0    0  0.33972251238E+02 -0.44147893322E+02 -0.45762558116E+03  0.46953089774E+03  0.89078286114E+02 0.  0.
         23    2    1    2    0    0 -0.33972251238E+02  0.44147893322E+02  0.21377341933E+02  0.11039765154E+03  0.92884338712E+02 0.  0.
          5    1    4    4  502    0 -0.14366860270E+02  0.49491367786E+02  0.51990540949E+02  0.73354676113E+02  0.47000000000E+01 0. -1.
         -5    1    3    3    0  503  0.19886060739E+01 -0.63726388651E+02 -0.34079039763E+03  0.34673504622E+03  0.47000000000E+01 0.  1.
          5    1    3    3  503    0  0.31983645164E+02  0.19578495329E+02 -0.11683518353E+03  0.12279585151E+03  0.47000000000E+01 0. -1.
         -5    1    4    4    0  502 -0.19605390968E+02 -0.53434744643E+01 -0.30613199016E+02  0.37042975425E+02  0.47000000000E+01 0.  1.
<mgrwt>
<rscale>  0 0.10748739E+03</rscale>
<asrwt>0</asrwt>
<pdfrwt beam="1">  1        1 0.11052332E-01 0.10830813E+03</pdfrwt>
<pdfrwt beam="2">  1       -1 0.78167443E-01 0.10830813E+03</pdfrwt>
<totfact> 0.94137408E+02</totfact>
</mgrwt>
</event>
<event>
 7    1  0.3400573E-004  0.2377255E+03  0.7546771E-02  0.1141070E+00
          1   -1    0    0  501    0  0.00000000000E+00  0.00000000000E+00  0.92678954291E+03  0.92678954291E+03  0.00000000000E+00 0. -1.
         -1   -1    0    0    0  501 -0.00000000000E+00 -0.00000000000E+00 -0.40781644762E+02  0.40781644762E+02  0.00000000000E+00 0.  1.
         23    2    1    2    0    0 -0.11233967858E+03  0.19166021511E+02  0.26817240970E+03  0.30557865418E+03  0.92056139420E+02 0.  0.
          5    1    3    3  502    0 -0.97374883114E+02 -0.12436758710E+02  0.24333388868E+03  0.26243096656E+03  0.47000000000E+01 0. -1.
         -5    1    1    2    0  503  0.51138952252E+02  0.86079342699E+02  0.40033232551E+03  0.41268984301E+03  0.47000000000E+01 0.  1.
          5    1    1    2  503    0  0.61200726328E+02 -0.10524536421E+03  0.21750316294E+03  0.24930269048E+03  0.47000000000E+01 0. -1.
         -5    1    3    3    0  502 -0.14964795466E+02  0.31602780221E+02  0.24838521021E+02  0.43147687627E+02  0.47000000000E+01 0.  1.
<mgrwt>
<rscale>  0 0.21062761E+03</rscale>
<asrwt>0</asrwt>
<pdfrwt beam="1">  1        1 0.14258299E+00 0.23772552E+03</pdfrwt>
<pdfrwt beam="2">  1       -1 0.62740999E-02 0.23772552E+03</pdfrwt>
<totfact> 0.22661865E+03</totfact>
</mgrwt>
</event>
<event>
 8    1  0.3613887E-004  0.1102067E+03  0.7546771E-02  0.1260606E+00
          1   -1    0    0  501    0  0.00000000000E+00  0.00000000000E+00  0.59771695431E+02  0.59771695431E+02  0.00000000000E+00 0. -1.
         -1   -1    0    0    0  501 -0.00000000000E+00 -0.00000000000E+00 -0.55409608773E+03  0.55409608773E+03  0.00000000000E+00 0.  1.
         23    2    1    2    0    0  0.42871683397E+02  0.43799145692E+02 -0.27007030939E+01  0.11023982306E+03  0.91592458157E+02 0.  0.
         23    2    1    2    0    0 -0.42871683397E+02 -0.43799145692E+02 -0.49162368920E+03  0.50362796010E+03  0.90503723698E+02 0.  0.
          5    1    4    4  502    0 -0.10925719616E+02  0.24952006442E+02 -0.21485373238E+03  0.21662453760E+03  0.47000000000E+01 0. -1.
         -5    1    4    4    0  502 -0.31945963781E+02 -0.68751152134E+02 -0.27676995683E+03  0.28700342250E+03  0.47000000000E+01 0.  1.
          5    1    3    3  503    0  0.43608988493E+02  0.70305231445E+02  0.20684945377E+01  0.82891122056E+02  0.47000000000E+01 0. -1.
         -5    1    3    3    0  503 -0.73730509653E+00 -0.26506085753E+02 -0.47691976316E+01  0.27348701008E+02  0.47000000000E+01 0.  1.
<mgrwt>
<rscale>  0 0.10998025E+03</rscale>
<asrwt>0</asrwt>
<pdfrwt beam="1">  1        1 0.91956451E-02 0.11020674E+03</pdfrwt>
<pdfrwt beam="2">  1       -1 0.85245555E-01 0.11020674E+03</pdfrwt>
<totfact> 0.10047379E+03</totfact>
</mgrwt>
</event>
<event>
 8    1  0.3400573E-004  0.9386951E+02  0.7546771E-02  0.1295028E+00
          1   -1    0    0  501    0  0.00000000000E+00  0.00000000000E+00  0.14219133763E+03  0.14219133763E+03  0.00000000000E+00 0. -1.
         -1   -1    0    0    0  501 -0.00000000000E+00 -0.00000000000E+00 -0.65432126849E+02  0.65432126849E+02  0.00000000000E+00 0.  1.
         23    2    1    2    0    0 -0.57099969252E+01 -0.15195534513E+02  0.66414424243E+02  0.11318565750E+03  0.90203153944E+02 0.  0.
         23    2    1    2    0    0  0.57099969252E+01  0.15195534513E+02  0.10344786538E+02  0.94437806983E+02  0.92455267266E+02 0.  0.
          5    1    4    4  502    0  0.43349260679E+02 -0.14197580865E+02  0.39457016966E+01  0.46025952089E+02  0.47000000000E+01 0. -1.
         -5    1    4    4    0  502 -0.37639263753E+02  0.29393115378E+02  0.63990848419E+01  0.48411854895E+02  0.47000000000E+01 0.  1.
          5    1    3    3  503    0  0.64682699541E+01 -0.44099615096E+02  0.67988191302E+02  0.81431558528E+02  0.47000000000E+01 0. -1.
         -5    1    3    3    0  503 -0.12178266879E+02  0.28904080583E+02 -0.15737670593E+01  0.31754098968E+02  0.47000000000E+01 0.  1.
<mgrwt>
<rscale>  0 0.93310191E+02</rscale>
<asrwt>0</asrwt>
<pdfrwt beam="1">  1        1 0.21875590E-01 0.93869509E+02</pdfrwt>
<pdfrwt beam="2">  1       -1 0.10066481E-01 0.93869509E+02</pdfrwt>
<totfact> 0.12407889E+04</totfact>
</mgrwt>
</event>
<event>
 8    1  0.3400573E-004  0.1043256E+03  0.7546771E-02  0.1274310E+00
         -1   -1    0    0    0  501 -0.00000000000E+00  0.00000000000E+00  0.17832633657E+03  0.17832633657E+03  0.00000000000E+00 0.  1.
          1   -1    0    0  501    0  0.00000000000E+00 -0.00000000000E+00 -0.68875814878E+02  0.68875814878E+02  0.00000000000E+00 0. -1.
         23    2    1    2    0    0  0.41095397999E+02  0.47649756170E+00  0.39401062950E+01  0.98823336978E+02  0.89785682084E+02 0.  0.
         23    2    1    2    0    0 -0.41095397999E+02 -0.47649756170E+00  0.10551041540E+03  0.14837881447E+03  0.95889342681E+02 0.  0.
          5    1    3    3  502    0  0.57359466677E+02  0.29766000623E+02  0.26593055011E+00  0.64794165861E+02  0.47000000000E+01 0. -1.
         -5    1    4    4    0  503  0.18500263022E+02 -0.16801283707E+02  0.75220813515E+02  0.79402793729E+02  0.47000000000E+01 0.  1.
          5    1    4    4  503    0 -0.59595661021E+02  0.16324786145E+02  0.30289601884E+02  0.68976020743E+02  0.47000000000E+01 0. -1.
         -5    1    3    3    0  502 -0.16264068678E+02 -0.29289503061E+02  0.36741757449E+01  0.34029171117E+02  0.47000000000E+01 0.  1.
<mgrwt>
<rscale>  0 0.10290147E+03</rscale>
<asrwt>0</asrwt>
<pdfrwt beam="1">  1        1 0.10596279E-01 0.10432557E+03</pdfrwt>
<pdfrwt beam="2">  1       -1 0.27434821E-01 0.10432557E+03</pdfrwt>
<totfact> 0.65591935E+03</totfact>
</mgrwt>
</event>
<event>
 8    1  0.3400573E-004  0.1588084E+03  0.7546771E-02  0.1190342E+00
         -1   -1    0    0    0  501 -0.00000000000E+00  0.00000000000E+00  0.39626645224E+03  0.39626645224E+03  0.00000000000E+00 0.  1.
          1   -1    0    0  501    0  0.00000000000E+00 -0.00000000000E+00 -0.11176877418E+03  0.11176877418E+03  0.00000000000E+00 0. -1.
         23    2    1    2    0    0 -0.27002102123E+01 -0.12897930102E+03 -0.24880608732E+02  0.16074566357E+03  0.92613025223E+02 0.  0.
         23    2    1    2    0    0  0.27002102123E+01  0.12897930102E+03  0.30937828679E+03  0.34728956284E+03  0.90841427187E+02 0.  0.
          5    1    3    3  502    0  0.33195624326E+02 -0.97197575248E+02  0.68756168653E+01  0.10304699033E+03  0.47000000000E+01 0. -1.
         -5    1    3    3    0  502 -0.35895834539E+02 -0.31781725768E+02 -0.31756225598E+02  0.57698673245E+02  0.47000000000E+01 0.  1.
          5    1    4    4  503    0  0.24499942597E+02 -0.16506501221E+01  0.56756374466E+02  0.62018931590E+02  0.47000000000E+01 0. -1.
         -5    1    4    4    0  503 -0.21799732384E+02  0.13062995114E+03  0.25262191233E+03  0.28527063125E+03  0.47000000000E+01 0.  1.
<mgrwt>
<rscale>  0 0.15855118E+03</rscale>
<asrwt>0</asrwt>
<pdfrwt beam="1">  1        1 0.17195196E-01 0.15880845E+03</pdfrwt>
<pdfrwt beam="2">  1       -1 0.60964069E-01 0.15880845E+03</pdfrwt>
<totfact> 0.87115594E+02</totfact>
</mgrwt>
</event>
<event>
 8    1  0.3400573E-004  0.1101253E+03  0.7546771E-02  0.1264303E+00
         -2   -1    0    0    0  501 -0.00000000000E+00  0.00000000000E+00  0.12971586357E+03  0.12971586357E+03  0.00000000000E+00 0.  1.
          2   -1    0    0  501    0  0.00000000000E+00 -0.00000000000E+00 -0.11523859421E+03  0.11523859421E+03  0.00000000000E+00 0. -1.
         23    2    1    2    0    0  0.46936934038E+02  0.26009631856E+02  0.68429560002E+02  0.12965413281E+03  0.96166588514E+02 0.  0.
         23    2    1    2    0    0 -0.46936934038E+02 -0.26009631856E+02 -0.53952290644E+02  0.11530032497E+03  0.86624122200E+02 0.  0.
          5    1    4    4  502    0 -0.61354155906E+01 -0.52067939144E+02 -0.21684545774E+02  0.56929984513E+02  0.47000000000E+01 0. -1.
         -5    1    4    4    0  502 -0.40801518448E+02  0.26058307289E+02 -0.32267744870E+02  0.58370340460E+02  0.47000000000E+01 0.  1.
          5    1    3    3  503    0  0.38699439661E+02 -0.33455513532E+01 -0.14066468944E+02  0.41578779353E+02  0.47000000000E+01 0. -1.
         -5    1    3    3    0  503  0.82374943771E+01  0.29355183209E+02  0.82496028945E+02  0.88075353457E+02  0.47000000000E+01 0.  1.
<mgrwt>
<rscale>  0 0.10800838E+03</rscale>
<asrwt>0</asrwt>
<pdfrwt beam="1">  1        2 0.17729014E-01 0.11012534E+03</pdfrwt>
<pdfrwt beam="2">  1       -2 0.19956287E-01 0.11012534E+03</pdfrwt>
<totfact> 0.62999800E+03</totfact>
</mgrwt>
</event>
<event>
 8    1  0.3400573E-004  0.1265723E+03  0.7546771E-02  0.1233291E+00
          1   -1    0    0  501    0  0.00000000000E+00  0.00000000000E+00  0.40695745004E+03  0.40695745004E+03  0.00000000000E+00 0. -1.
         -1   -1    0    0    0  501 -0.00000000000E+00 -0.00000000000E+00 -0.39786455314E+02  0.39786455314E+02  0.00000000000E+00 0.  1.
         23    2    1    2    0    0  0.50468802092E+02 -0.70690737886E+02  0.21683980476E+03  0.25022417438E+03  0.89712630709E+02 0.  0.
         23    2    1    2    0    0 -0.50468802092E+02  0.70690737886E+02  0.15033118996E+03  0.19651973097E+03  0.92066593166E+02 0.  0.
          5    1    4    4  502    0 -0.13036987149E+02  0.55481145910E+02  0.20962200538E+02  0.60906686306E+02  0.47000000000E+01 0. -1.
         -5    1    4    4    0  502 -0.37431814943E+02  0.15209591976E+02  0.12936898943E+03  0.13561304466E+03  0.47000000000E+01 0.  1.
          5    1    3    3  503    0  0.35767173911E+01 -0.44419455159E+02  0.17848929481E+03  0.18402825670E+03  0.47000000000E+01 0. -1.
         -5    1    3    3    0  503  0.46892084701E+02 -0.26271282728E+02  0.38350509954E+02  0.66195917680E+02  0.47000000000E+01 0.  1.
<mgrwt>
<rscale>  0 0.12614466E+03</rscale>
<asrwt>0</asrwt>
<pdfrwt beam="1">  1        1 0.62608836E-01 0.12657226E+03</pdfrwt>
<pdfrwt beam="2">  1       -1 0.61209934E-02 0.12657226E+03</pdfrwt>
<totfact> 0.72990392E+03</totfact>
</mgrwt>
</event>
<event>
 8    1  0.3400573E-004  0.1310953E+03  0.7546771E-02  0.1228822E+00
         -3   -1    0    0    0  501 -0.00000000000E+00  0.00000000000E+00  0.69312299665E+02  0.69312299665E+02  0.00000000000E+00 0.  1.
          3   -1    0    0  501    0  0.00000000000E+00 -0.00000000000E+00 -0.23913246668E+03  0.23913246668E+03  0.00000000000E+00 0. -1.
         23    2    1    2    0    0 -0.84534834755E+02  0.41624258637E+02 -0.58277724482E+02  0.13631781562E+03  0.79420000573E+02 0.  0.
         23    2    1    2    0    0  0.84534834755E+02 -0.41624258637E+02 -0.11154244253E+03  0.17212695072E+03  0.91144135767E+02 0.  0.
          5    1    4    4  502    0  0.55238893064E+02 -0.68763173115E+02 -0.60106975459E+02  0.10683935503E+03  0.47000000000E+01 0.  1.
         -5    1    3    3    0  503 -0.91673085580E+02  0.12630959750E+02 -0.39450505223E+02  0.10070714039E+03  0.47000000000E+01 0.  1.
          5    1    3    3  503    0  0.71382508251E+01  0.28993298887E+02 -0.18827219259E+02  0.35610675228E+02  0.47000000000E+01 0. -1.
         -5    1    4    4    0  502  0.29295941691E+02  0.27138914479E+02 -0.51435467070E+02  0.65287595693E+02  0.47000000000E+01 0. -1.
<mgrwt>
<rscale>  0 0.12908376E+03</rscale>
<asrwt>0</asrwt>
<pdfrwt beam="1">  1        3 0.36789611E-01 0.13109527E+03</pdfrwt>
<pdfrwt beam="2">  1       -3 0.10663431E-01 0.13109527E+03</pdfrwt>
<totfact> 0.11085674E+03</totfact>
</mgrwt>
</event>
<event>
 8    1  0.3400573E-004  0.1009367E+03  0.7546771E-02  0.1278971E+00
         -1   -1    0    0    0  501 -0.00000000000E+00  0.00000000000E+00  0.57523080879E+02  0.57523080879E+02  0.00000000000E+00 0.  1.
          1   -1    0    0  501    0  0.00000000000E+00 -0.00000000000E+00 -0.20209069864E+03  0.20209069864E+03  0.00000000000E+00 0. -1.
         23    2    1    2    0    0 -0.14235200353E+01 -0.42583396670E+02 -0.25134197539E+02  0.10401894716E+03  0.91503231640E+02 0.  0.
         23    2    1    2    0    0  0.14235200353E+01  0.42583396670E+02 -0.11943342022E+03  0.15559483236E+03  0.90166722855E+02 0.  0.
          5    1    3    3  502    0 -0.19852253586E+02  0.13004314012E+02 -0.36877954946E+02  0.44105529318E+02  0.47000000000E+01 0. -1.
         -5    1    3    3    0  502  0.18428733551E+02 -0.55587710682E+02  0.11743757407E+02  0.59913417840E+02  0.47000000000E+01 0.  1.
          5    1    4    4  503    0  0.20495459190E+02  0.59365663159E+02 -0.11236273794E+03  0.12880924147E+03  0.47000000000E+01 0. -1.
         -5    1    4    4    0  503 -0.19071939155E+02 -0.16782266489E+02 -0.70706822804E+01  0.26785590894E+02  0.47000000000E+01 0.  1.
<mgrwt>
<rscale>  0 0.10063281E+03</rscale>
<asrwt>0</asrwt>
<pdfrwt beam="1">  1        1 0.31090877E-01 0.10093668E+03</pdfrwt>
<pdfrwt beam="2">  1       -1 0.88497046E-02 0.10093668E+03</pdfrwt>
<totfact> 0.98101492E+03</totfact>
</mgrwt>
</event>
<event>
 8    1  0.3400573E-004  0.9351945E+02  0.7546771E-02  0.1295582E+00
         -3   -1    0    0    0  501 -0.00000000000E+00  0.00000000000E+00  0.10919285266E+03  0.10919285266E+03  0.00000000000E+00 0.  1.
          3   -1    0    0  501    0  0.00000000000E+00 -0.00000000000E+00 -0.78720952307E+02  0.78720952307E+02  0.00000000000E+00 0. -1.
         23    2    1    2    0    0  0.88071706490E+01  0.11158943369E+02  0.11057268432E+02  0.92400372888E+02  0.90628237612E+02 0.  0.
         23    2    1    2    0    0 -0.88071706490E+01 -0.11158943369E+02  0.19414631921E+02  0.95513432080E+02  0.92432675516E+02 0.  0.
          5    1    4    4  502    0  0.10738783519E+02  0.37871250119E+02  0.14818861307E+02  0.42323063540E+02  0.47000000000E+01 0. -1.
         -5    1    4    4    0  502 -0.19545954168E+02 -0.49030193488E+02  0.45957706139E+01  0.53190368539E+02  0.47000000000E+01 0.  1.
          5    1    3    3  503    0  0.35697780804E+01  0.33230160366E+02 -0.30066632994E+02  0.45200434656E+02  0.47000000000E+01 0. -1.
         -5    1    3    3    0  503  0.52373925686E+01 -0.22071216997E+02  0.41123901426E+02  0.47199938232E+02  0.47000000000E+01 0.  1.
<mgrwt>
<rscale>  0 0.93070464E+02</rscale>
<asrwt>0</asrwt>
<pdfrwt beam="1">  1        3 0.12110916E-01 0.93519451E+02</pdfrwt>
<pdfrwt beam="2">  1       -3 0.16798901E-01 0.93519451E+02</pdfrwt>
<totfact> 0.34539515E+03</totfact>
</mgrwt>
</event>
<event>
 8    1  0.3400573E-004  0.9919704E+02  0.7546771E-02  0.1282344E+00
          4   -1    0    0  501    0  0.00000000000E+00  0.00000000000E+00  0.17281692108E+03  0.17281692108E+03  0.00000000000E+00 0. -1.
         -4   -1    0    0    0  501 -0.00000000000E+00 -0.00000000000E+00 -0.96525800705E+02  0.96525800705E+02  0.00000000000E+00 0.  1.
         23    2    1    2    0    0  0.35202790153E+02  0.93732327529E+01 -0.48581267013E+02  0.10986493116E+03  0.91559104779E+02 0.  0.
         23    2    1    2    0    0 -0.35202790153E+02 -0.93732327529E+01  0.12487238738E+03  0.15947779062E+03  0.92265695916E+02 0.  0.
          5    1    4    4  502    0 -0.62530017980E+02  0.48997463333E+01  0.10531128388E+03  0.12266444952E+03  0.47000000000E+01 0. -1.
         -5    1    3    3    0  503  0.61211237192E+02 -0.14117514695E+02 -0.27849419897E+02  0.68875249316E+02  0.47000000000E+01 0.  1.
          5    1    3    3  503    0 -0.26008447039E+02  0.23490747448E+02 -0.20731847117E+02  0.40989681847E+02  0.47000000000E+01 0. -1.
         -5    1    4    4    0  502  0.27327227828E+02 -0.14272979086E+02  0.19561103500E+02  0.36813341099E+02  0.47000000000E+01 0.  1.
<mgrwt>
<rscale>  0 0.99032411E+02</rscale>
<asrwt>0</asrwt>
<pdfrwt beam="1">  1        4 0.26587219E-01 0.99197039E+02</pdfrwt>
<pdfrwt beam="2">  1       -4 0.14850123E-01 0.99197039E+02</pdfrwt>
<totfact> 0.79056829E+02</totfact>
</mgrwt>
</event>
<event>
 8    1  0.3400573E-004  0.9961452E+02  0.7546771E-02  0.1282343E+00
         -1   -1    0    0    0  501 -0.00000000000E+00  0.00000000000E+00  0.15447166981E+03  0.15447166981E+03  0.00000000000E+00 0.  1.
          1   -1    0    0  501    0  0.00000000000E+00 -0.00000000000E+00 -0.21724385006E+03  0.21724385006E+03  0.00000000000E+00 0. -1.
         23    2    1    2    0    0 -0.22811000263E+02  0.25688745667E+02 -0.18821797540E+03  0.21295318265E+03  0.93502932306E+02 0.  0.
         23    2    1    2    0    0  0.22811000263E+02 -0.25688745667E+02  0.12544579515E+03  0.15876233723E+03  0.91041632308E+02 0.  0.
          5    1    4    4  502    0  0.39017359141E+02 -0.40814160990E+01  0.10907564902E+02  0.40988745331E+02  0.47000000000E+01 0. -1.
         -5    1    3    3    0  503 -0.31020607493E+02 -0.15062894569E+02 -0.21147302190E+02  0.40724283566E+02  0.47000000000E+01 0.  1.
          5    1    3    3  503    0  0.82096072292E+01  0.40751640236E+02 -0.16707067321E+03  0.17222889909E+03  0.47000000000E+01 0. -1.
         -5    1    4    4    0  502 -0.16206358878E+02 -0.21607329568E+02  0.11453823025E+03  0.11777359190E+03  0.47000000000E+01 0.  1.
<mgrwt>
<rscale>  0 0.99032792E+02</rscale>
<asrwt>0</asrwt>
<pdfrwt beam="1">  1        1 0.33422131E-01 0.99614516E+02</pdfrwt>
<pdfrwt beam="2">  1       -1 0.23764872E-01 0.99614516E+02</pdfrwt>
<totfact> 0.19312802E+03</totfact>
</mgrwt>
</event>
<event>
 8    1  0.3400573E-004  0.1854469E+03  0.7546771E-02  0.1162947E+00
          1   -1    0    0  501    0  0.00000000000E+00  0.00000000000E+00  0.13973064047E+04  0.13973064047E+04  0.00000000000E+00 0. -1.
         -1   -1    0    0    0  501 -0.00000000000E+00 -0.00000000000E+00 -0.27877500924E+02  0.27877500924E+02  0.00000000000E+00 0.  1.
         23    2    1    2    0    0  0.14008535761E+03  0.77567636839E+02  0.43645346526E+03  0.47421743198E+03  0.93540898832E+02 0.  0.
         23    2    1    2    0    0 -0.14008535761E+03 -0.77567636839E+02  0.93297543855E+03  0.95096647368E+03  0.90848331983E+02 0.  0.
          5    1    4    4  502    0 -0.13198536462E+03 -0.30595023975E+02  0.72268433875E+03  0.73528969491E+03  0.47000000000E+01 0. -1.
         -5    1    3    3    0  503  0.11135954390E+03  0.14401472571E+02  0.22299761134E+03  0.24971658955E+03  0.47000000000E+01 0.  1.
          5    1    3    3  503    0  0.28725813707E+02  0.63166164268E+02  0.21345585392E+03  0.22450084243E+03  0.47000000000E+01 0. -1.
         -5    1    4    4    0  502 -0.80999929912E+01 -0.46972612864E+02  0.21029109980E+03  0.21567677877E+03  0.47000000000E+01 0.  1.
<mgrwt>
<rscale>  0 0.18511010E+03</rscale>
<asrwt>0</asrwt>
<pdfrwt beam="1">  1        1 0.21497016E+00 0.18544688E+03</pdfrwt>
<pdfrwt beam="2">  1       -1 0.42888474E-02 0.18544688E+03</pdfrwt>
<totfact> 0.18575616E+03</totfact>
</mgrwt>
</event>
<event>
 8    1  0.3400573E-004  0.1019080E+03  0.7546771E-02  0.1282066E+00
         -1   -1    0    0    0  501 -0.00000000000E+00  0.00000000000E+00  0.10636672521E+03  0.10636672521E+03  0.00000000000E+00 0.  1.
          1   -1    0    0  501    0  0.00000000000E+00 -0.00000000000E+00 -0.90663597597E+02  0.90663597597E+02  0.00000000000E+00 0. -1.
         23    2    1    2    0    0  0.83188934610E+00 -0.77514039878E+01  0.25762991437E+02  0.10511405354E+03  0.10160933136E+03 0.  0.
         23    2    1    2    0    0 -0.83188934610E+00  0.77514039878E+01 -0.10059863821E+02  0.91916269270E+02  0.91030892519E+02 0.  0.
          5    1    4    4  502    0  0.32821034471E+02  0.34957584035E+01  0.25930905624E+02  0.42236743447E+02  0.47000000000E+01 0. -1.
         -5    1    3    3    0  503  0.24927812075E+01  0.32929986402E+02  0.48024746324E+02  0.58472764789E+02  0.47000000000E+01 0.  1.
          5    1    3    3  503    0 -0.16608918614E+01 -0.40681390390E+02 -0.22261754886E+02  0.46641288752E+02  0.47000000000E+01 0. -1.
         -5    1    4    4    0  502 -0.33652923817E+02  0.42556455843E+01 -0.35990769445E+02  0.49679525823E+02  0.47000000000E+01 0.  1.
<mgrwt>
<rscale>  0 0.99163075E+02</rscale>
<asrwt>0</asrwt>
<pdfrwt beam="1">  1        1 0.13948246E-01 0.10190796E+03</pdfrwt>
<pdfrwt beam="2">  1       -1 0.16364112E-01 0.10190796E+03</pdfrwt>
<totfact> 0.10490246E+04</totfact>
</mgrwt>
</event>
<event>
 8    1  0.3400573E-004  0.1768466E+03  0.7546771E-02  0.1170908E+00
          1   -1    0    0  501    0  0.00000000000E+00  0.00000000000E+00  0.66942532452E+02  0.66942532452E+02  0.00000000000E+00 0. -1.
         -1   -1    0    0    0  501 -0.00000000000E+00 -0.00000000000E+00 -0.54223008294E+03  0.54223008294E+03  0.00000000000E+00 0.  1.
         23    2    1    2    0    0 -0.15000039320E+03 -0.20934147331E+02 -0.35105837532E+03  0.39305314725E+03  0.91161599358E+02 0.  0.
         23    2    1    2    0    0  0.15000039320E+03  0.20934147331E+02 -0.12422917517E+03  0.21611946814E+03  0.91303779000E+02 0.  0.
          5    1    3    3  502    0 -0.13103258276E+03 -0.33439899079E+02 -0.34260846636E+03  0.36836180016E+03  0.47000000000E+01 0. -1.
         -5    1    3    3    0  502 -0.18967810443E+02  0.12505751748E+02 -0.84499089571E+01  0.24691347091E+02  0.47000000000E+01 0.  1.
          5    1    4    4  503    0  0.22075848421E+02  0.13456811255E+02  0.12127169957E+02  0.28941097143E+02  0.47000000000E+01 0. -1.
         -5    1    4    4    0  503  0.12792454478E+03  0.74773360764E+01 -0.13635634512E+03  0.18717837100E+03  0.47000000000E+01 0.  1.
<mgrwt>
<rscale>  0 0.17682830E+03</rscale>
<asrwt>0</asrwt>
<pdfrwt beam="1">  1        1 0.10298851E-01 0.17684665E+03</pdfrwt>
<pdfrwt beam="2">  1       -1 0.83420010E-01 0.17684665E+03</pdfrwt>
<totfact> 0.91453422E+02</totfact>
</mgrwt>
</event>
<event>
 8    1  0.3400573E-004  0.1340070E+03  0.7546771E-02  0.1229050E+00
         -1   -1    0    0    0  501 -0.00000000000E+00  0.00000000000E+00  0.42069549105E+03  0.42069549105E+03  0.00000000000E+00 0.  1.
          1   -1    0    0  501    0  0.00000000000E+00 -0.00000000000E+00 -0.37012016774E+02  0.37012016774E+02  0.00000000000E+00 0. -1.
         23    2    1    2    0    0 -0.54827321216E+02  0.43012986698E+02  0.15970659761E+03  0.19670266839E+03  0.91266588931E+02 0.  0.
         23    2    1    2    0    0  0.54827321216E+02 -0.43012986698E+02  0.22397687667E+03  0.26100483944E+03  0.11446280073E+03 0.  0.
          5    1    3    3  502    0 -0.34430321860E+02  0.70474450381E+02  0.12570423598E+03  0.14824216729E+03  0.47000000000E+01 0. -1.
         -5    1    3    3    0  502 -0.20396999357E+02 -0.27461463683E+02  0.34002361630E+02  0.48460501099E+02  0.47000000000E+01 0.  1.
          5    1    4    4  503    0  0.83145519115E+02 -0.29564773419E+01  0.12197541397E+03  0.14772274612E+03  0.47000000000E+01 0. -1.
         -5    1    4    4    0  503 -0.28318197899E+02 -0.40056509357E+02  0.10200146270E+03  0.11328209332E+03  0.47000000000E+01 0.  1.
<mgrwt>
<rscale>  0 0.12893142E+03</rscale>
<asrwt>0</asrwt>
<pdfrwt beam="1">  1        1 0.56941567E-02 0.13400703E+03</pdfrwt>
<pdfrwt beam="2">  1       -1 0.64722380E-01 0.13400703E+03</pdfrwt>
<totfact> 0.33465962E+03</totfact>
</mgrwt>
</event>
<event>
 8    1  0.3400573E-004  0.1449330E+03  0.7546771E-02  0.1207015E+00
          1   -1    0    0  501    0  0.00000000000E+00  0.00000000000E+00  0.76602123977E+03  0.76602123977E+03  0.00000000000E+00 0. -1.
         -1   -1    0    0    0  501 -0.00000000000E+00 -0.00000000000E+00 -0.30465970615E+03  0.30465970615E+03  0.00000000000E+00 0.  1.
         23    2    1    2    0    0 -0.62360784034E+02  0.91807294698E+02 -0.28005460943E+03  0.31533498161E+03  0.93210083235E+02 0.  0.
         23    2    1    2    0    0  0.62360784034E+02 -0.91807294698E+02  0.74141614306E+03  0.75534596431E+03  0.92369810349E+02 0.  0.
          5    1    4    4  502    0  0.53672881640E+02 -0.11056780715E+03  0.64563148435E+03  0.65724281798E+03  0.47000000000E+01 0. -1.
         -5    1    4    4    0  502  0.86879023939E+01  0.18760512456E+02  0.95784658712E+02  0.98103146332E+02  0.47000000000E+01 0.  1.
          5    1    3    3  503    0 -0.43689479139E+01  0.52038980452E+02 -0.42340066516E+02  0.67393726896E+02  0.47000000000E+01 0. -1.
         -5    1    3    3    0  503 -0.57991836120E+02  0.39768314246E+02 -0.23771454292E+03  0.24794125471E+03  0.47000000000E+01 0.  1.
<mgrwt>
<rscale>  0 0.14479804E+03</rscale>
<asrwt>0</asrwt>
<pdfrwt beam="1">  1        1 0.11784942E+00 0.14493297E+03</pdfrwt>
<pdfrwt beam="2">  1       -1 0.46870724E-01 0.14493297E+03</pdfrwt>
<totfact> 0.11931212E+02</totfact>
</mgrwt>
</event>
<event>
 8    1  0.3400573E-004  0.9864456E+02  0.7546771E-02  0.1285831E+00
         -2   -1    0    0    0  501 -0.00000000000E+00  0.00000000000E+00  0.20397457284E+02  0.20397457284E+02  0.00000000000E+00 0.  1.
          2   -1    0    0  501    0  0.00000000000E+00 -0.00000000000E+00 -0.84317993555E+03  0.84317993555E+03  0.00000000000E+00 0. -1.
         23    2    1    2    0    0 -0.34395747751E+02  0.75755982386E+01 -0.12364169712E+03  0.15817085226E+03  0.92142780976E+02 0.  0.
         23    2    1    2    0    0  0.34395747751E+02 -0.75755982386E+01 -0.69914078114E+03  0.70540654057E+03  0.86948826735E+02 0.  0.
          5    1    4    4  502    0  0.52207229170E+02 -0.30880349216E+02 -0.54857935986E+03  0.55194256478E+03  0.47000000000E+01 0. -1.
         -5    1    4    4    0  502 -0.17811481418E+02  0.23304750977E+02 -0.15056142128E+03  0.15346397579E+03  0.47000000000E+01 0.  1.
          5    1    3    3  503    0  0.10078877245E+02 -0.29192045625E+02 -0.79344211616E+02  0.85272230012E+02  0.47000000000E+01 0. -1.
         -5    1    3    3    0  503 -0.44474624996E+02  0.36767643863E+02 -0.44297485507E+02  0.72898622250E+02  0.47000000000E+01 0.  1.
<mgrwt>
<rscale>  0 0.97413381E+02</rscale>
<asrwt>0</asrwt>
<pdfrwt beam="1">  1        2 0.12971996E+00 0.98644560E+02</pdfrwt>
<pdfrwt beam="2">  1       -2 0.31380712E-02 0.98644560E+02</pdfrwt>
<totfact> 0.12284677E+04</totfact>
</mgrwt>
</event>
<event>
 8    1  0.3400573E-004  0.1185547E+03  0.7546771E-02  0.1247169E+00
          2   -1    0    0  501    0  0.00000000000E+00  0.00000000000E+00  0.75263459197E+02  0.75263459197E+02  0.00000000000E+00 0. -1.
         -2   -1    0    0    0  501 -0.00000000000E+00 -0.00000000000E+00 -0.20589679156E+03  0.20589679156E+03  0.00000000000E+00 0.  1.
         23    2    1    2    0    0  0.70822495946E+02  0.33899579123E+02 -0.17047105685E+02  0.11977402327E+03  0.88826828387E+02 0.  0.
         23    2    1    2    0    0 -0.70822495946E+02 -0.33899579123E+02 -0.11358622668E+03  0.16138622749E+03  0.83538470988E+02 0.  0.
          5    1    3    3  502    0  0.37578698630E+02 -0.27977125112E+02  0.10135384693E+01  0.47095598313E+02  0.47000000000E+01 0. -1.
         -5    1    3    3    0  502  0.33243797316E+02  0.61876704234E+02 -0.18060644155E+02  0.72678424957E+02  0.47000000000E+01 0.  1.
          5    1    4    4  503    0 -0.52677862202E+02 -0.47688567713E+02 -0.34848611272E+02  0.79282232336E+02  0.47000000000E+01 0. -1.
         -5    1    4    4    0  503 -0.18144633744E+02  0.13788988590E+02 -0.78737615404E+02  0.82103995150E+02  0.47000000000E+01 0.  1.
<mgrwt>
<rscale>  0 0.11756517E+03</rscale>
<asrwt>0</asrwt>
<pdfrwt beam="1">  1        2 0.11578994E-01 0.11855468E+03</pdfrwt>
<pdfrwt beam="2">  1       -2 0.31676430E-01 0.11855468E+03</pdfrwt>
<totfact> 0.46622614E+03</totfact>
</mgrwt>
</event>
<event>
 8    1  0.3400573E-004  0.1049733E+03  0.7546771E-02  0.1272438E+00
         -1   -1    0    0    0  501 -0.00000000000E+00  0.00000000000E+00  0.15655161958E+02  0.15655161958E+02  0.00000000000E+00 0.  1.
          1   -1    0    0  501    0  0.00000000000E+00 -0.00000000000E+00 -0.76143821037E+03  0.76143821037E+03  0.00000000000E+00 0. -1.
         23    2    1    2    0    0 -0.20102281228E+02 -0.41964286376E+02 -0.49724619163E+03  0.50729722201E+03  0.89059493202E+02 0.  0.
         23    2    1    2    0    0  0.20102281228E+02  0.41964286376E+02 -0.24853685678E+03  0.26979615032E+03  0.94097239622E+02 0.  0.
          5    1    3    3  502    0  0.99383841635E+01 -0.60418179354E+02 -0.24616743649E+03  0.25371169596E+03  0.47000000000E+01 0. -1.
         -5    1    4    4    0  503  0.11784198487E+02  0.71789666750E+02 -0.18795138569E+03  0.20159473448E+03  0.47000000000E+01 0.  1.
          5    1    4    4  503    0  0.83180827416E+01 -0.29825380374E+02 -0.60585471096E+02  0.68201415843E+02  0.47000000000E+01 0. -1.
         -5    1    3    3    0  502 -0.30040665392E+02  0.18453892978E+02 -0.25107875513E+03  0.25358552605E+03  0.47000000000E+01 0.  1.
<mgrwt>
<rscale>  0 0.10383208E+03</rscale>
<asrwt>0</asrwt>
<pdfrwt beam="1">  1        1 0.11714437E+00 0.10497330E+03</pdfrwt>
<pdfrwt beam="2">  1       -1 0.24084858E-02 0.10497330E+03</pdfrwt>
<totfact> 0.12170038E+04</totfact>
</mgrwt>
</event>
<event>
 8    1  0.3400573E-004  0.9392466E+02  0.7546771E-02  0.1294243E+00
         -1   -1    0    0    0  501 -0.00000000000E+00  0.00000000000E+00  0.16753397580E+03  0.16753397580E+03  0.00000000000E+00 0.  1.
          1   -1    0    0  501    0  0.00000000000E+00 -0.00000000000E+00 -0.53112043622E+02  0.53112043622E+02  0.00000000000E+00 0. -1.
         23    2    1    2    0    0  0.15147505752E+02 -0.10470114842E+02  0.41925553981E+02  0.10285715492E+03  0.92101965266E+02 0.  0.
         23    2    1    2    0    0 -0.15147505752E+02  0.10470114842E+02  0.72496378192E+02  0.11778886450E+03  0.90991326586E+02 0.  0.
          5    1    3    3  502    0 -0.22530126988E+02 -0.11672634035E+02 -0.18310816448E+02  0.31642266139E+02  0.47000000000E+01 0. -1.
         -5    1    4    4    0  503  0.10155059825E+02  0.41174458709E+02  0.63864208142E+02  0.76806174046E+02  0.47000000000E+01 0.  1.
          5    1    4    4  503    0 -0.25302565577E+02 -0.30704343867E+02  0.86321700500E+01  0.40982690454E+02  0.47000000000E+01 0. -1.
         -5    1    3    3    0  502  0.37677632740E+02  0.12025191922E+01  0.60236370430E+02  0.71214888779E+02  0.47000000000E+01 0.  1.
<mgrwt>
<rscale>  0 0.93651264E+02</rscale>
<asrwt>0</asrwt>
<pdfrwt beam="1">  1        1 0.81710837E-02 0.93924663E+02</pdfrwt>
<pdfrwt beam="2">  1       -1 0.25774458E-01 0.93924663E+02</pdfrwt>
<totfact> 0.10142018E+04</totfact>
</mgrwt>
</event>
<event>
 8    1  0.3400573E-004  0.9589486E+02  0.7546771E-02  0.1296706E+00
         -1   -1    0    0    0  501 -0.00000000000E+00  0.00000000000E+00  0.11113187853E+02  0.11113187853E+02  0.00000000000E+00 0.  1.
          1   -1    0    0  501    0  0.00000000000E+00 -0.00000000000E+00 -0.72668541052E+03  0.72668541052E+03  0.00000000000E+00 0. -1.
         23    2    1    2    0    0  0.32496851773E+02 -0.15109269308E+02 -0.35515326293E+03  0.36787180349E+03  0.88946547096E+02 0.  0.
         23    2    1    2    0    0 -0.32496851773E+02  0.15109269308E+02 -0.36041895974E+03  0.36992679488E+03  0.75230789168E+02 0.  0.
          5    1    4    4  502    0  0.63118791365E+01  0.36323619606E+02 -0.12783389345E+03  0.13312715528E+03  0.47000000000E+01 0. -1.
         -5    1    3    3    0  503  0.37915300107E+02 -0.43263721623E+02 -0.15088729350E+03  0.16154994562E+03  0.47000000000E+01 0.  1.
          5    1    3    3  503    0 -0.54184483342E+01  0.28154452314E+02 -0.20426596943E+03  0.20632185787E+03  0.47000000000E+01 0. -1.
         -5    1    4    4    0  502 -0.38808730909E+02 -0.21214350298E+02 -0.23258506629E+03  0.23679963960E+03  0.47000000000E+01 0.  1.
<mgrwt>
<rscale>  0 0.92586519E+02</rscale>
<asrwt>0</asrwt>
<pdfrwt beam="1">  1        1 0.11179774E+00 0.95894857E+02</pdfrwt>
<pdfrwt beam="2">  1       -1 0.17097215E-02 0.95894857E+02</pdfrwt>
<totfact> 0.21098822E+04</totfact>
</mgrwt>
</event>
<event>
 8    1  0.3400573E-004  0.9484882E+02  0.7546771E-02  0.1292011E+00
         -1   -1    0    0    0  501 -0.00000000000E+00  0.00000000000E+00  0.95910821633E+02  0.95910821633E+02  0.00000000000E+00 0.  1.
          1   -1    0    0  501    0  0.00000000000E+00 -0.00000000000E+00 -0.10340158803E+03  0.10340158803E+03  0.00000000000E+00 0. -1.
         23    2    1    2    0    0  0.19407971433E+02 -0.16888920972E+02  0.27968874778E+02  0.98051934004E+02  0.90388156297E+02 0.  0.
         23    2    1    2    0    0 -0.19407971433E+02  0.16888920972E+02 -0.35459641179E+02  0.10126047566E+03  0.91292895519E+02 0.  0.
          5    1    4    4  502    0 -0.52286150551E+02  0.25125956848E+02 -0.11080291985E+02  0.59245405876E+02  0.47000000000E+01 0. -1.
         -5    1    4    4    0  502  0.32878179117E+02 -0.82370358755E+01 -0.24379349195E+02  0.42015069787E+02  0.47000000000E+01 0.  1.
          5    1    3    3  503    0 -0.13894435268E+02  0.28313177498E+02 -0.57353799467E+01  0.32398702668E+02  0.47000000000E+01 0. -1.
         -5    1    3    3    0  503  0.33302406701E+02 -0.45202098470E+02  0.33704254725E+02  0.65653231335E+02  0.47000000000E+01 0.  1.
<mgrwt>
<rscale>  0 0.94630437E+02</rscale>
<asrwt>0</asrwt>
<pdfrwt beam="1">  1        1 0.15907937E-01 0.94848815E+02</pdfrwt>
<pdfrwt beam="2">  1       -1 0.14755511E-01 0.94848815E+02</pdfrwt>
<totfact> 0.10344465E+04</totfact>
</mgrwt>
</event>
<event>
 8    1  0.3400573E-004  0.1218186E+03  0.7546771E-02  0.1254833E+00
         -1   -1    0    0    0  501 -0.00000000000E+00  0.00000000000E+00  0.10733207910E+03  0.10733207910E+03  0.00000000000E+00 0.  1.
          1   -1    0    0  501    0  0.00000000000E+00 -0.00000000000E+00 -0.11991795861E+03  0.11991795861E+03  0.00000000000E+00 0. -1.
         23    2    1    2    0    0 -0.26516201161E+01  0.68159693860E-01  0.32339042588E+02  0.12603798170E+03  0.12178966877E+03 0.  0.
         23    2    1    2    0    0  0.26516201161E+01 -0.68159693860E-01 -0.44924922099E+02  0.10121205601E+03  0.90656472036E+02 0.  0.
          5    1    4    4  502    0 -0.41282003755E+02  0.13325277671E+02 -0.28919310094E+02  0.52346760696E+02  0.47000000000E+01 0. -1.
         -5    1    3    3    0  503  0.57631803490E+02 -0.14449877961E+02  0.17280129619E+02  0.62055754175E+02  0.47000000000E+01 0.  1.
          5    1    3    3  503    0 -0.60283423606E+02  0.14518037655E+02  0.15058912969E+02  0.63982227523E+02  0.47000000000E+01 0. -1.
         -5    1    4    4    0  502  0.43933623871E+02 -0.13393437365E+02 -0.16005612005E+02  0.48865295318E+02  0.47000000000E+01 0.  1.
<mgrwt>
<rscale>  0 0.11315695E+03</rscale>
<asrwt>0</asrwt>
<pdfrwt beam="1">  1        1 0.18448917E-01 0.12181855E+03</pdfrwt>
<pdfrwt beam="2">  1       -1 0.16512627E-01 0.12181855E+03</pdfrwt>
<totfact> 0.73364642E+03</totfact>
</mgrwt>
</event>
<event>
 8    1  0.3400573E-004  0.9730977E+02  0.7546771E-02  0.1287285E+00
         -2   -1    0    0    0  501 -0.00000000000E+00  0.00000000000E+00  0.49176285253E+02  0.49176285253E+02  0.00000000000E+00 0.  1.
          2   -1    0    0  501    0  0.00000000000E+00 -0.00000000000E+00 -0.23329798094E+03  0.23329798094E+03  0.00000000000E+00 0. -1.
         23    2    1    2    0    0  0.48302113141E+01 -0.28996582485E+02 -0.29093425490E+02  0.99436138927E+02  0.90426686220E+02 0.  0.
         23    2    1    2    0    0 -0.48302113141E+01  0.28996582485E+02 -0.15502827020E+03  0.18303812727E+03  0.92763455821E+02 0.  0.
          5    1    4    4  502    0 -0.28829995728E+02  0.54587890166E+02 -0.98761184579E+02  0.11656272125E+03  0.47000000000E+01 0. -1.
         -5    1    4    4    0  502  0.23999784414E+02 -0.25591307681E+02 -0.56267085621E+02  0.66475406017E+02  0.47000000000E+01 0.  1.
          5    1    3    3  503    0 -0.25576838394E+02  0.22923514074E+02 -0.12408605987E+02  0.36820180095E+02  0.47000000000E+01 0. -1.
         -5    1    3    3    0  503  0.30407049708E+02 -0.51920096558E+02 -0.16684819503E+02  0.62615958832E+02  0.47000000000E+01 0.  1.
<mgrwt>
<rscale>  0 0.96748693E+02</rscale>
<asrwt>0</asrwt>
<pdfrwt beam="1">  1        2 0.35891997E-01 0.97309771E+02</pdfrwt>
<pdfrwt beam="2">  1       -2 0.75655823E-02 0.97309771E+02</pdfrwt>
<totfact> 0.13524449E+04</totfact>
</mgrwt>
</event>
<event>
 8    1  0.3400573E-004  0.9588114E+02  0.7546771E-02  0.1289924E+00
         -4   -1    0    0    0  501 -0.00000000000E+00  0.00000000000E+00  0.59000239121E+03  0.59000239121E+03  0.00000000000E+00 0.  1.
          4   -1    0    0  501    0  0.00000000000E+00 -0.00000000000E+00 -0.19002528351E+02  0.19002528351E+02  0.00000000000E+00 0. -1.
         23    2    1    2    0    0 -0.14951091935E+02 -0.23738498748E+02  0.42013060571E+03  0.43093261555E+03  0.91685014143E+02 0.  0.
         23    2    1    2    0    0  0.14951091935E+02  0.23738498748E+02  0.15086925714E+03  0.17807230401E+03  0.90339145611E+02 0.  0.
          5    1    4    4  502    0  0.42873061152E+02  0.41333616635E+02  0.80883171481E+02  0.10055219871E+03  0.47000000000E+01 0. -1.
         -5    1    3    3    0  503 -0.50058371950E+02 -0.29740379634E+02  0.22116110560E+03  0.22874583147E+03  0.47000000000E+01 0.  1.
          5    1    3    3  503    0  0.35107280016E+02  0.60018808867E+01  0.19896950011E+03  0.20218678409E+03  0.47000000000E+01 0. -1.
         -5    1    4    4    0  502 -0.27921969218E+02 -0.17595117888E+02  0.69986085663E+02  0.77520105295E+02  0.47000000000E+01 0.  1.
<mgrwt>
<rscale>  0 0.95557974E+02</rscale>
<asrwt>0</asrwt>
<pdfrwt beam="1">  1        4 0.29234663E-02 0.95881141E+02</pdfrwt>
<pdfrwt beam="2">  1       -4 0.90769585E-01 0.95881141E+02</pdfrwt>
<totfact> 0.92036721E+02</totfact>
</mgrwt>
</event>
<event>
 8    1  0.3400573E-004  0.1019902E+03  0.7546771E-02  0.1276213E+00
         -3   -1    0    0    0  501 -0.00000000000E+00  0.00000000000E+00  0.44963469495E+02  0.44963469495E+02  0.00000000000E+00 0.  1.
          3   -1    0    0  501    0  0.00000000000E+00 -0.00000000000E+00 -0.37579464662E+03  0.37579464662E+03  0.00000000000E+00 0. -1.
         23    2    1    2    0    0 -0.31062384006E+02  0.26647445788E+02 -0.34841560372E+02  0.10768967397E+03  0.93317594712E+02 0.  0.
         23    2    1    2    0    0  0.31062384006E+02 -0.26647445788E+02 -0.29598961675E+03  0.31306844215E+03  0.93418617926E+02 0.  0.
          5    1    4    4  502    0  0.61388614413E+02 -0.24708953999E+02 -0.24207974604E+03  0.25100555339E+03  0.47000000000E+01 0. -1.
         -5    1    4    4    0  502 -0.30326230407E+02 -0.19384917896E+01 -0.53909870713E+02  0.62062888761E+02  0.47000000000E+01 0.  1.
          5    1    3    3  503    0  0.14042366358E+02 -0.21643866094E+02  0.95896744459E+01  0.27923052276E+02  0.47000000000E+01 0. -1.
         -5    1    3    3    0  503 -0.45104750364E+02  0.48291311882E+02 -0.44431234818E+02  0.79766621692E+02  0.47000000000E+01 0.  1.
<mgrwt>
<rscale>  0 0.10196704E+03</rscale>
<asrwt>0</asrwt>
<pdfrwt beam="1">  1        3 0.57814562E-01 0.10199018E+03</pdfrwt>
<pdfrwt beam="2">  1       -3 0.69174568E-02 0.10199018E+03</pdfrwt>
<totfact> 0.88536634E+02</totfact>
</mgrwt>
</event>
<event>
 8    1  0.3400573E-004  0.1075426E+03  0.7546771E-02  0.1265259E+00
         -1   -1    0    0    0  501 -0.00000000000E+00  0.00000000000E+00  0.26776719633E+02  0.26776719633E+02  0.00000000000E+00 0.  1.
          1   -1    0    0  501    0  0.00000000000E+00 -0.00000000000E+00 -0.43397292733E+03  0.43397292733E+03  0.00000000000E+00 0. -1.
         23    2    1    2    0    0 -0.22468345102E+02 -0.51384997181E+02 -0.18577746502E+03  0.21465943232E+03  0.91761434757E+02 0.  0.
         23    2    1    2    0    0  0.22468345102E+02  0.51384997181E+02 -0.22141874268E+03  0.24609021464E+03  0.91590882004E+02 0.  0.
          5    1    4    4  502    0  0.20175303105E+02 -0.23108244132E+02 -0.86272115875E+02  0.91684250445E+02  0.47000000000E+01 0. -1.
         -5    1    4    4    0  502  0.22930419964E+01  0.74493241313E+02 -0.13514662680E+03  0.15440596420E+03  0.47000000000E+01 0.  1.
          5    1    3    3  503    0 -0.44568171744E+02 -0.65152560593E+02 -0.11949177596E+03  0.14328835475E+03  0.47000000000E+01 0.  1.
         -5    1    3    3    0  503  0.22099826643E+02  0.13767563411E+02 -0.66285689058E+02  0.71371077573E+02  0.47000000000E+01 0. -1.
<mgrwt>
<rscale>  0 0.10750618E+03</rscale>
<asrwt>0</asrwt>
<pdfrwt beam="1">  1        1 0.66765058E-01 0.10754257E+03</pdfrwt>
<pdfrwt beam="2">  1       -1 0.41194958E-02 0.10754257E+03</pdfrwt>
<totfact> 0.11919766E+04</totfact>
</mgrwt>
</event>
<event>
 8    1  0.3400573E-004  0.1147423E+03  0.7546771E-02  0.1263882E+00
         -1   -1    0    0    0  501 -0.00000000000E+00  0.00000000000E+00  0.22595644850E+03  0.22595644850E+03  0.00000000000E+00 0.  1.
          1   -1    0    0  501    0  0.00000000000E+00 -0.00000000000E+00 -0.60270119793E+02  0.60270119793E+02  0.00000000000E+00 0. -1.
         23    2    1    2    0    0 -0.13115651761E+02 -0.96022659471E+01  0.15772734878E+03  0.19504794833E+03  0.11358504197E+03 0.  0.
         23    2    1    2    0    0  0.13115651761E+02  0.96022659471E+01  0.79589799235E+01  0.91178619964E+02  0.89364263242E+02 0.  0.
          5    1    4    4  502    0  0.46390310491E+02  0.25981685004E+02  0.29371216214E+01  0.53458633975E+02  0.47000000000E+01 0. -1.
         -5    1    3    3    0  503 -0.59690428907E+02  0.15187989293E+02  0.85190393996E+02  0.10522887223E+03  0.47000000000E+01 0.  1.
          5    1    3    3  503    0  0.46574777146E+02 -0.24790255240E+02  0.72536954787E+02  0.89819076096E+02  0.47000000000E+01 0. -1.
         -5    1    4    4    0  502 -0.33274658730E+02 -0.16379419057E+02  0.50218583021E+01  0.37719985989E+02  0.47000000000E+01 0.  1.
<mgrwt>
<rscale>  0 0.10823073E+03</rscale>
<asrwt>0</asrwt>
<pdfrwt beam="1">  1        1 0.92723262E-02 0.11474226E+03</pdfrwt>
<pdfrwt beam="2">  1       -1 0.34762530E-01 0.11474226E+03</pdfrwt>
<totfact> 0.52960186E+03</totfact>
</mgrwt>
</event>
<event>
 8    1  0.3400573E-004  0.9748999E+02  0.7546771E-02  0.1285866E+00
         -1   -1    0    0    0  501 -0.00000000000E+00  0.00000000000E+00  0.56085495454E+02  0.56085495454E+02  0.00000000000E+00 0.  1.
          1   -1    0    0  501    0  0.00000000000E+00 -0.00000000000E+00 -0.19060465249E+03  0.19060465249E+03  0.00000000000E+00 0. -1.
         23    2    1    2    0    0  0.30679859897E+02 -0.68537551435E+01 -0.25673291848E+02  0.10081377323E+03  0.92282561709E+02 0.  0.
         23    2    1    2    0    0 -0.30679859897E+02  0.68537551435E+01 -0.10884586518E+03  0.14587637471E+03  0.91892690506E+02 0.  0.
          5    1    4    4  502    0 -0.60902450734E+02  0.18984932367E+01 -0.92443910756E+02  0.11081822692E+03  0.47000000000E+01 0. -1.
         -5    1    3    3    0  503  0.55540360519E+02 -0.27617045781E+02 -0.56889762329E+01  0.62465088768E+02  0.47000000000E+01 0.  1.
          5    1    3    3  503    0 -0.24860500622E+02  0.20763290637E+02 -0.19984315615E+02  0.38348684461E+02  0.47000000000E+01 0. -1.
         -5    1    4    4    0  502  0.30222590837E+02  0.49552619068E+01 -0.16401954429E+02  0.35058147791E+02  0.47000000000E+01 0.  1.
<mgrwt>
<rscale>  0 0.97397622E+02</rscale>
<asrwt>0</asrwt>
<pdfrwt beam="1">  1        1 0.29323792E-01 0.97489994E+02</pdfrwt>
<pdfrwt beam="2">  1       -1 0.86285380E-02 0.97489994E+02</pdfrwt>
<totfact> 0.10918169E+04</totfact>
</mgrwt>
</event>
<event>
 8    1  0.3400573E-004  0.3134210E+03  0.7546771E-02  0.1078796E+00
          2   -1    0    0  501    0  0.00000000000E+00  0.00000000000E+00  0.24808034634E+04  0.24808034634E+04  0.00000000000E+00 0. -1.
         -2   -1    0    0    0  501 -0.00000000000E+00 -0.00000000000E+00 -0.46069220614E+02  0.46069220614E+02  0.00000000000E+00 0.  1.
         23    2    1    2    0    0  0.25718374146E+03 -0.15488805372E+03  0.16928755729E+04  0.17215236951E+04  0.87648966187E+02 0.  0.
         23    2    1    2    0    0 -0.25718374146E+03  0.15488805372E+03  0.74185866985E+03  0.80534898891E+03  0.89994010138E+02 0.  0.
          5    1    4    4  502    0 -0.57962130203E+02  0.19671032565E+02  0.25367929084E+03  0.26100159130E+03  0.47000000000E+01 0.  1.
         -5    1    3    3    0  503  0.11857491309E+03 -0.43470502456E+02  0.90710143661E+03  0.91586287232E+03  0.47000000000E+01 0.  1.
          5    1    3    3  503    0  0.13860882838E+03 -0.11141755126E+03  0.78577413629E+03  0.80566082274E+03  0.47000000000E+01 0. -1.
         -5    1    4    4    0  502 -0.19922161126E+03  0.13521702115E+03  0.48817937901E+03  0.54434739762E+03  0.47000000000E+01 0.  1.
<mgrwt>
<rscale>  0 0.31325452E+03</rscale>
<asrwt>0</asrwt>
<pdfrwt beam="1">  1        2 0.38166197E+00 0.31342098E+03</pdfrwt>
<pdfrwt beam="2">  1       -2 0.70875743E-02 0.31342098E+03</pdfrwt>
<totfact> 0.46603624E+02</totfact>
</mgrwt>
</event>
<event>
 8    1  0.3400573E-004  0.9222118E+02  0.7546771E-02  0.1298173E+00
          1   -1    0    0  501    0  0.00000000000E+00  0.00000000000E+00  0.87314753234E+03  0.87314753234E+03  0.00000000000E+00 0. -1.
         -1   -1    0    0    0  501 -0.00000000000E+00 -0.00000000000E+00 -0.13166372127E+02  0.13166372127E+02  0.00000000000E+00 0.  1.
         23    2    1    2    0    0 -0.13777898433E+02 -0.17078119690E+02  0.20213523155E+03  0.22217875240E+03  0.89572615939E+02 0.  0.
         23    2    1    2    0    0  0.13777898433E+02  0.17078119690E+02  0.65784592866E+03  0.66413515207E+03  0.88502777906E+02 0.  0.
          5    1    4    4  502    0  0.44286618780E+01 -0.35016244191E+02  0.19249229625E+03  0.19575782110E+03  0.47000000000E+01 0. -1.
         -5    1    4    4    0  502  0.93492365549E+01  0.52094363881E+02  0.46535363241E+03  0.46837733097E+03  0.47000000000E+01 0.  1.
          5    1    3    3  503    0 -0.55113394292E+01 -0.53477527503E+02  0.13165808298E+03  0.14228900739E+03  0.47000000000E+01 0. -1.
         -5    1    3    3    0  503 -0.82665590037E+01  0.36399407813E+02  0.70477148566E+02  0.79889745004E+02  0.47000000000E+01 0.  1.
<mgrwt>
<rscale>  0 0.91960387E+02</rscale>
<asrwt>0</asrwt>
<pdfrwt beam="1">  1        1 0.13433034E+00 0.92221181E+02</pdfrwt>
<pdfrwt beam="2">  1       -1 0.20255964E-02 0.92221181E+02</pdfrwt>
<totfact> 0.12575554E+04</totfact>
</mgrwt>
</event>
<event>
 8    1  0.3400573E-004  0.1121092E+03  0.7546771E-02  0.1262086E+00
         -1   -1    0    0    0  501 -0.00000000000E+00  0.00000000000E+00  0.43951811122E+03  0.43951811122E+03  0.00000000000E+00 0.  1.
          1   -1    0    0  501    0  0.00000000000E+00 -0.00000000000E+00 -0.26080452074E+02  0.26080452074E+02  0.00000000000E+00 0. -1.
         23    2    1    2    0    0  0.31487085569E+02  0.26640607361E+02  0.22005858868E+03  0.24207241823E+03  0.92044091051E+02 0.  0.
         23    2    1    2    0    0 -0.31487085569E+02 -0.26640607361E+02  0.19337907046E+03  0.22352614506E+03  0.10424641056E+03 0.  0.
          5    1    4    4  502    0 -0.61704844709E+02 -0.13966520205E+02  0.64526710463E+02  0.90489435353E+02  0.47000000000E+01 0. -1.
         -5    1    4    4    0  502  0.30217759140E+02 -0.12674087156E+02  0.12885236000E+03  0.13303670971E+03  0.47000000000E+01 0.  1.
          5    1    3    3  503    0 -0.51760382867E+01 -0.28375232798E+02  0.35548101395E+02  0.46018504121E+02  0.47000000000E+01 0. -1.
         -5    1    3    3    0  503  0.36663123856E+02  0.55015840159E+02  0.18451048729E+03  0.19605391411E+03  0.47000000000E+01 0.  1.
<mgrwt>
<rscale>  0 0.10918514E+03</rscale>
<asrwt>0</asrwt>
<pdfrwt beam="1">  1        1 0.40123776E-02 0.11210920E+03</pdfrwt>
<pdfrwt beam="2">  1       -1 0.67618165E-01 0.11210920E+03</pdfrwt>
<totfact> 0.48978335E+03</totfact>
</mgrwt>
</event>
<event>
 8    1  0.3400573E-004  0.9923480E+02  0.7546771E-02  0.1289291E+00
          4   -1    0    0  501    0  0.00000000000E+00  0.00000000000E+00  0.60454873493E+02  0.60454873493E+02  0.00000000000E+00 0. -1.
         -4   -1    0    0    0  501 -0.00000000000E+00 -0.00000000000E+00 -0.55015362340E+03  0.55015362340E+03  0.00000000000E+00 0.  1.
         23    2    1    2    0    0  0.78135136352E+01 -0.22478871533E+02 -0.50311558890E+03  0.51047080615E+03  0.82998779966E+02 0.  0.
         23    2    1    2    0    0 -0.78135136352E+01  0.22478871533E+02  0.13416838990E+02  0.10013769075E+03  0.96338958261E+02 0.  0.
          5    1    4    4  502    0 -0.14481224954E+02  0.51611431683E+02 -0.17789015387E+02  0.56674375382E+02  0.47000000000E+01 0. -1.
         -5    1    4    4    0  502  0.66677113184E+01 -0.29132560150E+02  0.31205854377E+02  0.43463315365E+02  0.47000000000E+01 0.  1.
          5    1    3    3  503    0 -0.23666140305E+02 -0.39844568442E+02 -0.20894859817E+03  0.21407774875E+03  0.47000000000E+01 0. -1.
         -5    1    3    3    0  503  0.31479653940E+02  0.17365696909E+02 -0.29416699073E+03  0.29639305740E+03  0.47000000000E+01 0.  1.
<mgrwt>
<rscale>  0 0.95841816E+02</rscale>
<asrwt>0</asrwt>
<pdfrwt beam="1">  1        4 0.93007493E-02 0.99234800E+02</pdfrwt>
<pdfrwt beam="2">  1       -4 0.84639023E-01 0.99234800E+02</pdfrwt>
<totfact> 0.16956408E+02</totfact>
</mgrwt>
</event>
<event>
 8    1  0.3400573E-004  0.9990641E+02  0.7546771E-02  0.1280691E+00
          1   -1    0    0  501    0  0.00000000000E+00  0.00000000000E+00  0.14191225420E+03  0.14191225420E+03  0.00000000000E+00 0. -1.
         -1   -1    0    0    0  501 -0.00000000000E+00 -0.00000000000E+00 -0.13035249885E+03  0.13035249885E+03  0.00000000000E+00 0.  1.
         23    2    1    2    0    0 -0.10427973284E+02  0.38104314032E+02 -0.86789500400E+02  0.13233936852E+03  0.91763880178E+02 0.  0.
         23    2    1    2    0    0  0.10427973284E+02 -0.38104314032E+02  0.98349255752E+02  0.13992538454E+03  0.91355655306E+02 0.  0.
          5    1    4    4  502    0 -0.25808116994E+02 -0.17561983414E+02 -0.15308630091E+01  0.31605627754E+02  0.47000000000E+01 0. -1.
         -5    1    4    4    0  502  0.36236090278E+02 -0.20542330618E+02  0.99880118761E+02  0.10831975678E+03  0.47000000000E+01 0.  1.
          5    1    3    3  503    0 -0.23190190977E+02  0.17106613023E+02  0.11150634069E+02  0.31254564576E+02  0.47000000000E+01 0. -1.
         -5    1    3    3    0  503  0.12762217693E+02  0.20997701009E+02 -0.97940134469E+02  0.10108480394E+03  0.47000000000E+01 0.  1.
<mgrwt>
<rscale>  0 0.99812574E+02</rscale>
<asrwt>0</asrwt>
<pdfrwt beam="1">  1        1 0.21832654E-01 0.99906412E+02</pdfrwt>
<pdfrwt beam="2">  1       -1 0.20054231E-01 0.99906412E+02</pdfrwt>
<totfact> 0.42993945E+03</totfact>
</mgrwt>
</event>
<event>
 8    1  0.3400573E-004  0.2249138E+03  0.7546771E-02  0.1130394E+00
          1   -1    0    0  501    0  0.00000000000E+00  0.00000000000E+00  0.23641718482E+03  0.23641718482E+03  0.00000000000E+00 0. -1.
         -1   -1    0    0    0  501 -0.00000000000E+00 -0.00000000000E+00 -0.21341390853E+03  0.21341390853E+03  0.00000000000E+00 0.  1.
         23    2    1    2    0    0  0.56948316975E+02 -0.19752332036E+03  0.69626715905E+01  0.22434600197E+03  0.89577212032E+02 0.  0.
         23    2    1    2    0    0 -0.56948316975E+02  0.19752332036E+03  0.16040604700E+02  0.22548509138E+03  0.91255972661E+02 0.  0.
          5    1    4    4  502    0 -0.64473710256E+02  0.17786722664E+03 -0.12558058488E+02  0.18966656126E+03  0.47000000000E+01 0. -1.
         -5    1    4    4    0  502  0.75253932806E+01  0.19656093718E+02  0.28598663188E+02  0.35818530126E+02  0.47000000000E+01 0.  1.
          5    1    3    3  503    0  0.37051813895E+02 -0.18924715322E+02  0.14804946783E+02  0.44410113850E+02  0.47000000000E+01 0. -1.
         -5    1    3    3    0  503  0.19896503080E+02 -0.17859860503E+03 -0.78422751923E+01  0.17993588812E+03  0.47000000000E+01 0.  1.
<mgrwt>
<rscale>  0 0.22474466E+03</rscale>
<asrwt>0</asrwt>
<pdfrwt beam="1">  1        1 0.36371875E-01 0.22491382E+03</pdfrwt>
<pdfrwt beam="2">  1       -1 0.32832909E-01 0.22491382E+03</pdfrwt>
<totfact> 0.10354214E+03</totfact>
</mgrwt>
</event>
<event>
 8    1  0.3400573E-004  0.1320129E+03  0.7546771E-02  0.1225918E+00
         -1   -1    0    0    0  501 -0.00000000000E+00  0.00000000000E+00  0.40165821961E+03  0.40165821961E+03  0.00000000000E+00 0.  1.
          1   -1    0    0  501    0  0.00000000000E+00 -0.00000000000E+00 -0.12620570611E+03  0.12620570611E+03  0.00000000000E+00 0. -1.
         23    2    1    2    0    0  0.80035118077E+02 -0.38250627463E+02  0.35245376314E+03  0.37503523220E+03  0.92515077751E+02 0.  0.
         23    2    1    2    0    0 -0.80035118077E+02  0.38250627463E+02 -0.77001249636E+02  0.15282869352E+03  0.97768535284E+02 0.  0.
          5    1    4    4  502    0 -0.41516693274E+02  0.46580645077E+02 -0.91264194508E+02  0.11065548118E+03  0.47000000000E+01 0. -1.
         -5    1    4    4    0  502 -0.38518424803E+02 -0.83300176149E+01  0.14262944872E+02  0.42173212341E+02  0.47000000000E+01 0.  1.
          5    1    3    3  503    0  0.27288200834E+02  0.25273106809E+02  0.17887654734E+03  0.18276292025E+03  0.47000000000E+01 0.  1.
         -5    1    3    3    0  503  0.52746917243E+02 -0.63523734271E+02  0.17357721581E+03  0.19227231195E+03  0.47000000000E+01 0. -1.
<mgrwt>
<rscale>  0 0.13104176E+03</rscale>
<asrwt>0</asrwt>
<pdfrwt beam="1">  1        1 0.19416263E-01 0.13201294E+03</pdfrwt>
<pdfrwt beam="2">  1       -1 0.61793572E-01 0.13201294E+03</pdfrwt>
<totfact> 0.72453538E+02</totfact>
</mgrwt>
</event>
<event>
 8    1  0.3400573E-004  0.1510771E+03  0.7546771E-02  0.1203647E+00
         -2   -1    0    0    0  501 -0.00000000000E+00  0.00000000000E+00  0.10642683913E+02  0.10642683913E+02  0.00000000000E+00 0.  1.
          2   -1    0    0  501    0  0.00000000000E+00 -0.00000000000E+00 -0.19532458847E+04  0.19532458847E+04  0.00000000000E+00 0. -1.
         23    2    1    2    0    0  0.33193244808E+02 -0.96600453269E+02 -0.98072353470E+03  0.99229176866E+03  0.11131425590E+03 0.  0.
         23    2    1    2    0    0 -0.33193244808E+02  0.96600453269E+02 -0.96187966605E+03  0.97159679991E+03  0.91402464787E+02 0.  0.
          5    1    4    4  502    0 -0.61419082308E+02  0.86043932516E+02 -0.70141149193E+03  0.70934902058E+03  0.47000000000E+01 0. -1.
         -5    1    3    3    0  503  0.71673355430E+02 -0.83090055413E+02 -0.73558558875E+03  0.74374005914E+03  0.47000000000E+01 0.  1.
          5    1    3    3  503    0 -0.38480110621E+02 -0.13510397855E+02 -0.24513794595E+03  0.24855170952E+03  0.47000000000E+01 0. -1.
         -5    1    4    4    0  502  0.28225837500E+02  0.10556520752E+02 -0.26046817412E+03  0.26224777933E+03  0.47000000000E+01 0.  1.
<mgrwt>
<rscale>  0 0.14744624E+03</rscale>
<asrwt>0</asrwt>
<pdfrwt beam="1">  1        2 0.30049935E+00 0.15107714E+03</pdfrwt>
<pdfrwt beam="2">  1       -2 0.16373361E-02 0.15107714E+03</pdfrwt>
<totfact> 0.80622220E+03</totfact>
</mgrwt>
</event>
<event>
 8    1  0.3400573E-004  0.9511317E+02  0.7546771E-02  0.1292465E+00
          2   -1    0    0  501    0  0.00000000000E+00  0.00000000000E+00  0.21239533849E+03  0.21239533849E+03  0.00000000000E+00 0. -1.
         -2   -1    0    0    0  501 -0.00000000000E+00 -0.00000000000E+00 -0.48541358139E+02  0.48541358139E+02  0.00000000000E+00 0.  1.
         23    2    1    2    0    0  0.17314724379E+01  0.14061233578E+02  0.32863994565E+02  0.10063080071E+03  0.94052111224E+02 0.  0.
         23    2    1    2    0    0 -0.17314724379E+01 -0.14061233578E+02  0.13098998578E+03  0.16030589592E+03  0.91317509844E+02 0.  0.
          5    1    3    3  502    0  0.17024894091E+02 -0.10774254963E+02  0.58164803785E+02  0.61734641718E+02  0.47000000000E+01 0. -1.
         -5    1    3    3    0  502 -0.15293421653E+02  0.24835488541E+02 -0.25300809220E+02  0.38896158989E+02  0.47000000000E+01 0.  1.
          5    1    4    4  503    0  0.41677113464E+02 -0.67831831336E+01  0.91924565465E+02  0.10126800628E+03  0.47000000000E+01 0. -1.
         -5    1    4    4    0  503 -0.43408585902E+02 -0.72780504440E+01  0.39065420319E+02  0.59037889638E+02  0.47000000000E+01 0.  1.
<mgrwt>
<rscale>  0 0.94430051E+02</rscale>
<asrwt>0</asrwt>
<pdfrwt beam="1">  1        2 0.32676205E-01 0.95113174E+02</pdfrwt>
<pdfrwt beam="2">  1       -2 0.74679014E-02 0.95113174E+02</pdfrwt>
<totfact> 0.15205958E+04</totfact>
</mgrwt>
</event>
<event>
 8    1  0.3400573E-004  0.9221997E+02  0.7546771E-02  0.1303083E+00
          1   -1    0    0  501    0  0.00000000000E+00  0.00000000000E+00  0.76470904930E+02  0.76470904930E+02  0.00000000000E+00 0. -1.
         -1   -1    0    0    0  501 -0.00000000000E+00 -0.00000000000E+00 -0.12999013944E+03  0.12999013944E+03  0.00000000000E+00 0.  1.
         23    2    1    2    0    0  0.54254068173E+01  0.12061867251E+02  0.21125055913E+02  0.94608619838E+02  0.91266638372E+02 0.  0.
         23    2    1    2    0    0 -0.54254068173E+01 -0.12061867251E+02 -0.74644290422E+02  0.11185242453E+03  0.82245188917E+02 0.  0.
          5    1    3    3  502    0 -0.28633677104E+02  0.33619953559E+02  0.29309203786E+02  0.53210038229E+02  0.47000000000E+01 0. -1.
         -5    1    3    3    0  502  0.34059083921E+02 -0.21558086309E+02 -0.81841478725E+01  0.41398581609E+02  0.47000000000E+01 0.  1.
          5    1    4    4  503    0 -0.38351349199E+02  0.99797705912E+01 -0.21294734410E+02  0.45232483018E+02  0.47000000000E+01 0. -1.
         -5    1    4    4    0  503  0.32925942381E+02 -0.22041637842E+02 -0.53349556012E+02  0.66619941512E+02  0.47000000000E+01 0.  1.
<mgrwt>
<rscale>  0 0.89904694E+02</rscale>
<asrwt>0</asrwt>
<pdfrwt beam="1">  1        1 0.11764755E-01 0.92219971E+02</pdfrwt>
<pdfrwt beam="2">  1       -1 0.19998483E-01 0.92219971E+02</pdfrwt>
<totfact> 0.94427626E+03</totfact>
</mgrwt>
</event>
<event>
 8    1  0.3400573E-004  0.9256528E+02  0.7546771E-02  0.1297776E+00
          2   -1    0    0  501    0  0.00000000000E+00  0.00000000000E+00  0.84317151069E+03  0.84317151069E+03  0.00000000000E+00 0. -1.
         -2   -1    0    0    0  501 -0.00000000000E+00 -0.00000000000E+00 -0.21484910834E+02  0.21484910834E+02  0.00000000000E+00 0.  1.
         23    2    1    2    0    0  0.39264388675E+01 -0.13109495768E+02  0.96186730772E+02  0.13349239131E+03  0.91548105167E+02 0.  0.
         23    2    1    2    0    0 -0.39264388675E+01  0.13109495768E+02  0.72549986908E+03  0.73116403021E+03  0.89797011290E+02 0.  0.
          5    1    4    4  502    0  0.25725563288E+02  0.41798534553E+02  0.39100701689E+03  0.39410341201E+03  0.47000000000E+01 0. -1.
         -5    1    4    4    0  502 -0.29652002156E+02 -0.28689038785E+02  0.33449285219E+03  0.33706061820E+03  0.47000000000E+01 0.  1.
          5    1    3    3  503    0  0.35382200170E+02  0.22165110526E+02  0.62314115760E+02  0.75155380622E+02  0.47000000000E+01 0. -1.
         -5    1    3    3    0  503 -0.31455761302E+02 -0.35274606294E+02  0.33872615011E+02  0.58337010688E+02  0.47000000000E+01 0.  1.
<mgrwt>
<rscale>  0 0.92129341E+02</rscale>
<asrwt>0</asrwt>
<pdfrwt beam="1">  1        2 0.12971867E+00 0.92565282E+02</pdfrwt>
<pdfrwt beam="2">  1       -2 0.33053715E-02 0.92565282E+02</pdfrwt>
<totfact> 0.11335408E+04</totfact>
</mgrwt>
</event>
<event>
 8    1  0.3400573E-004  0.1125843E+03  0.7546771E-02  0.1256331E+00
          1   -1    0    0  501    0  0.00000000000E+00  0.00000000000E+00  0.11346569198E+03  0.11346569198E+03  0.00000000000E+00 0. -1.
         -1   -1    0    0    0  501 -0.00000000000E+00 -0.00000000000E+00 -0.11508092076E+03  0.11508092076E+03  0.00000000000E+00 0.  1.
         23    2    1    2    0    0  0.54082235757E+02 -0.39679859436E+02  0.21558669660E+02  0.11462981278E+03  0.90420342127E+02 0.  0.
         23    2    1    2    0    0 -0.54082235757E+02  0.39679859436E+02 -0.23173898441E+02  0.11391679996E+03  0.89110202982E+02 0.  0.
          5    1    4    4  502    0  0.20559463321E+02  0.28783488628E+02 -0.11169862337E+02  0.37390327283E+02  0.47000000000E+01 0. -1.
         -5    1    4    4    0  502 -0.74641699078E+02  0.10896370808E+02 -0.12004036104E+02  0.76526472680E+02  0.47000000000E+01 0.  1.
          5    1    3    3  503    0  0.75321910992E+02 -0.43118339393E+02  0.49734562969E+01  0.87059788279E+02  0.47000000000E+01 0. -1.
         -5    1    3    3    0  503 -0.21239675236E+02  0.34384799572E+01  0.16585213363E+02  0.27570024498E+02  0.47000000000E+01 0.  1.
<mgrwt>
<rscale>  0 0.11232098E+03</rscale>
<asrwt>0</asrwt>
<pdfrwt beam="1">  1        1 0.17456260E-01 0.11258427E+03</pdfrwt>
<pdfrwt beam="2">  1       -1 0.17704757E-01 0.11258427E+03</pdfrwt>
<totfact> 0.70107167E+03</totfact>
</mgrwt>
</event>
<event>
 8    1  0.3400573E-004  0.9567203E+02  0.7546771E-02  0.1289756E+00
         -1   -1    0    0    0  501 -0.00000000000E+00  0.00000000000E+00  0.11675728605E+03  0.11675728605E+03  0.00000000000E+00 0.  1.
          1   -1    0    0  501    0  0.00000000000E+00 -0.00000000000E+00 -0.17324810295E+03  0.17324810295E+03  0.00000000000E+00 0. -1.
         23    2    1    2    0    0  0.10800450584E+02 -0.28904765748E+02 -0.13561937920E+03  0.16596913589E+03  0.90559388454E+02 0.  0.
         23    2    1    2    0    0 -0.10800450584E+02  0.28904765748E+02  0.79128562307E+02  0.12403625311E+03  0.90396501576E+02 0.  0.
          5    1    3    3  502    0 -0.12698012004E+02 -0.56541568322E+02 -0.71559773974E+02  0.92201299928E+02  0.47000000000E+01 0. -1.
         -5    1    3    3    0  502  0.23498462588E+02  0.27636802574E+02 -0.64059605228E+02  0.73767835962E+02  0.47000000000E+01 0.  1.
          5    1    4    4  503    0  0.10887380040E+02 -0.27774294724E+02  0.45170395684E+02  0.54336002225E+02  0.47000000000E+01 0. -1.
         -5    1    4    4    0  503 -0.21687830625E+02  0.56679060471E+02  0.33958166623E+02  0.69700250886E+02  0.47000000000E+01 0.  1.
<mgrwt>
<rscale>  0 0.95633469E+02</rscale>
<asrwt>0</asrwt>
<pdfrwt beam="1">  1        1 0.26653554E-01 0.95672034E+02</pdfrwt>
<pdfrwt beam="2">  1       -1 0.17962659E-01 0.95672034E+02</pdfrwt>
<totfact> 0.39819590E+03</totfact>
</mgrwt>
</event>
<event>
 8    1  0.3400573E-004  0.9765276E+02  0.7546771E-02  0.1285573E+00
          2   -1    0    0  501    0  0.00000000000E+00  0.00000000000E+00  0.18882963305E+03  0.18882963305E+03  0.00000000000E+00 0. -1.
         -2   -1    0    0    0  501 -0.00000000000E+00 -0.00000000000E+00 -0.53050128828E+02  0.53050128828E+02  0.00000000000E+00 0.  1.
         23    2    1    2    0    0  0.25813367523E+02  0.19387292471E+02  0.40271547662E+02  0.10563076858E+03  0.92162165050E+02 0.  0.
         23    2    1    2    0    0 -0.25813367523E+02 -0.19387292471E+02  0.95507956558E+02  0.13624899330E+03  0.91650539318E+02 0.  0.
          5    1    4    4  502    0 -0.12928984557E+02 -0.46481522087E+02  0.94096411285E+02  0.10584854819E+03  0.47000000000E+01 0. -1.
         -5    1    4    4    0  502 -0.12884382965E+02  0.27094229616E+02  0.14115452737E+01  0.30400445111E+02  0.47000000000E+01 0.  1.
          5    1    3    3  503    0 -0.24465382238E+02 -0.36226718881E+01  0.43265631009E+02  0.50056802797E+02  0.47000000000E+01 0. -1.
         -5    1    3    3    0  503  0.50278749761E+02  0.23009964359E+02 -0.29940833469E+01  0.55573965779E+02  0.47000000000E+01 0.  1.
<mgrwt>
<rscale>  0 0.97531859E+02</rscale>
<asrwt>0</asrwt>
<pdfrwt beam="1">  1        2 0.29050712E-01 0.97652761E+02</pdfrwt>
<pdfrwt beam="2">  1       -2 0.81615584E-02 0.97652761E+02</pdfrwt>
<totfact> 0.15093345E+04</totfact>
</mgrwt>
</event>
<event>
 8    1  0.3400573E-004  0.1285076E+03  0.7546771E-02  0.1231439E+00
          1   -1    0    0  501    0  0.00000000000E+00  0.00000000000E+00  0.37311012647E+02  0.37311012647E+02  0.00000000000E+00 0. -1.
         -1   -1    0    0    0  501 -0.00000000000E+00 -0.00000000000E+00 -0.44741641062E+03  0.44741641062E+03  0.00000000000E+00 0.  1.
         23    2    1    2    0    0  0.88647939800E+02 -0.58589371361E+01 -0.25323708619E+03  0.28194211905E+03  0.86426571698E+02 0.  0.
         23    2    1    2    0    0 -0.88647939800E+02  0.58589371361E+01 -0.15686831179E+03  0.20278530422E+03  0.92851645063E+02 0.  0.
          5    1    3    3  502    0  0.40996153536E+02 -0.41017664502E+02 -0.80867373545E+02  0.99623067158E+02  0.47000000000E+01 0. -1.
         -5    1    3    3    0  502  0.47651786264E+02  0.35158727366E+02 -0.17236971265E+03  0.18231905189E+03  0.47000000000E+01 0.  1.
          5    1    4    4  503    0 -0.46174108906E+02 -0.37703493820E+02 -0.43189458525E+02  0.73763277497E+02  0.47000000000E+01 0. -1.
         -5    1    4    4    0  503 -0.42473830895E+02  0.43562430956E+02 -0.11367885326E+03  0.12902202672E+03  0.47000000000E+01 0.  1.
<mgrwt>
<rscale>  0 0.12735144E+03</rscale>
<asrwt>0</asrwt>
<pdfrwt beam="1">  1        1 0.57401559E-02 0.12850764E+03</pdfrwt>
<pdfrwt beam="2">  1       -1 0.68833293E-01 0.12850764E+03</pdfrwt>
<totfact> 0.29289417E+03</totfact>
</mgrwt>
</event>
<event>
 8    1  0.3400573E-004  0.9462048E+02  0.7546771E-02  0.1293242E+00
         -1   -1    0    0    0  501 -0.00000000000E+00  0.00000000000E+00  0.26830428633E+02  0.26830428633E+02  0.00000000000E+00 0.  1.
          1   -1    0    0  501    0  0.00000000000E+00 -0.00000000000E+00 -0.47161377787E+03  0.47161377787E+03  0.00000000000E+00 0. -1.
         23    2    1    2    0    0  0.20667236540E+02 -0.91407601186E+01 -0.82320590711E+02  0.12383469357E+03  0.89708770560E+02 0.  0.
         23    2    1    2    0    0 -0.20667236540E+02  0.91407601186E+01 -0.36246275853E+03  0.37460951294E+03  0.91882249092E+02 0.  0.
          5    1    4    4  502    0 -0.46790126339E+02  0.32174814844E+02 -0.18035097918E+03  0.18913778133E+03  0.47000000000E+01 0. -1.
         -5    1    3    3    0  503 -0.13477849067E+02 -0.22692323282E+02  0.65146972757E+01  0.27588498183E+02  0.47000000000E+01 0.  1.
          5    1    3    3  503    0  0.34145085607E+02  0.13551563163E+02 -0.88835287986E+02  0.96246195389E+02  0.47000000000E+01 0. -1.
         -5    1    4    4    0  502  0.26122889799E+02 -0.23034054725E+02 -0.18211177935E+03  0.18547173161E+03  0.47000000000E+01 0.  1.
<mgrwt>
<rscale>  0 0.94088737E+02</rscale>
<asrwt>0</asrwt>
<pdfrwt beam="1">  1        1 0.72555960E-01 0.94620483E+02</pdfrwt>
<pdfrwt beam="2">  1       -1 0.41277586E-02 0.94620483E+02</pdfrwt>
<totfact> 0.10582586E+04</totfact>
</mgrwt>
</event>
<event>
 8    1  0.3400573E-004  0.1123124E+03  0.7546771E-02  0.1258795E+00
         -1   -1    0    0    0  501 -0.00000000000E+00  0.00000000000E+00  0.56323382099E+03  0.56323382099E+03  0.00000000000E+00 0.  1.
          1   -1    0    0  501    0  0.00000000000E+00 -0.00000000000E+00 -0.53996267151E+02  0.53996267151E+02  0.00000000000E+00 0. -1.
         23    2    1    2    0    0 -0.53497636733E+02 -0.32421112829E+02  0.17118390536E+02  0.11360944971E+03  0.93278840455E+02 0.  0.
         23    2    1    2    0    0  0.53497636733E+02  0.32421112829E+02  0.49211916330E+03  0.50362063843E+03  0.86829435481E+02 0.  0.
          5    1    3    3  502    0 -0.73774624843E+02 -0.43418818693E+02  0.24099392149E+02  0.89054813398E+02  0.47000000000E+01 0. -1.
         -5    1    4    4    0  503  0.73756763300E+02  0.74437280998E+01  0.32659353043E+03  0.33493416269E+03  0.47000000000E+01 0.  1.
          5    1    4    4  503    0 -0.20259126567E+02  0.24977384729E+02  0.16552563287E+03  0.16868647573E+03  0.47000000000E+01 0. -1.
         -5    1    3    3    0  502  0.20276988110E+02  0.10997705863E+02 -0.69810016130E+01  0.24554636316E+02  0.47000000000E+01 0.  1.
<mgrwt>
<rscale>  0 0.11096426E+03</rscale>
<asrwt>0</asrwt>
<pdfrwt beam="1">  1        1 0.83071184E-02 0.11231237E+03</pdfrwt>
<pdfrwt beam="2">  1       -1 0.86651353E-01 0.11231237E+03</pdfrwt>
<totfact> 0.11119819E+03</totfact>
</mgrwt>
</event>
<event>
 8    1  0.3400573E-004  0.1392829E+03  0.7546771E-02  0.1214365E+00
         -2   -1    0    0    0  501 -0.00000000000E+00  0.00000000000E+00  0.25219753884E+02  0.25219753884E+02  0.00000000000E+00 0.  1.
          2   -1    0    0  501    0  0.00000000000E+00 -0.00000000000E+00 -0.88049019743E+03  0.88049019743E+03  0.00000000000E+00 0. -1.
         23    2    1    2    0    0 -0.39936783881E+02  0.97165702848E+02 -0.26558985963E+03  0.29980327188E+03  0.91147725041E+02 0.  0.
         23    2    1    2    0    0  0.39936783881E+02 -0.97165702848E+02 -0.58968058392E+03  0.60590667943E+03  0.91452679609E+02 0.  0.
          5    1    4    4  502    0  0.25136250846E+02 -0.11357758003E+03 -0.47919248006E+03  0.49313205203E+03  0.47000000000E+01 0. -1.
         -5    1    4    4    0  502  0.14800533035E+02  0.16411877181E+02 -0.11048810386E+03  0.11277462740E+03  0.47000000000E+01 0.  1.
          5    1    3    3  503    0  0.12497497422E+02  0.41516764208E+02 -0.17880011945E+03  0.18404184814E+03  0.47000000000E+01 0. -1.
         -5    1    3    3    0  503 -0.52434281303E+02  0.55648938639E+02 -0.86789740179E+02  0.11576142375E+03  0.47000000000E+01 0.  1.
<mgrwt>
<rscale>  0 0.13923282E+03</rscale>
<asrwt>0</asrwt>
<pdfrwt beam="1">  1        2 0.13546003E+00 0.13928285E+03</pdfrwt>
<pdfrwt beam="2">  1       -2 0.38799623E-02 0.13928285E+03</pdfrwt>
<totfact> 0.86944335E+03</totfact>
</mgrwt>
</event>
<event>
 8    1  0.3400573E-004  0.1119584E+03  0.7546771E-02  0.1258774E+00
         -1   -1    0    0    0  501 -0.00000000000E+00  0.00000000000E+00  0.22963157932E+03  0.22963157932E+03  0.00000000000E+00 0.  1.
          1   -1    0    0  501    0  0.00000000000E+00 -0.00000000000E+00 -0.59542296350E+02  0.59542296350E+02  0.00000000000E+00 0. -1.
         23    2    1    2    0    0 -0.57626701038E+02  0.24751269145E+02  0.34748245946E+02  0.11352682807E+03  0.88019532480E+02 0.  0.
         23    2    1    2    0    0  0.57626701038E+02 -0.24751269145E+02  0.13534103702E+03  0.17564704760E+03  0.92742800429E+02 0.  0.
          5    1    4    4  502    0  0.90416335732E+01  0.33993303627E+02  0.46309612647E+02  0.58343517657E+02  0.47000000000E+01 0. -1.
         -5    1    3    3    0  503  0.10497774133E+02 -0.21989133822E+02  0.12762545408E+02  0.27905157826E+02  0.47000000000E+01 0.  1.
          5    1    3    3  503    0 -0.68124475171E+02  0.46740402967E+02  0.21985700538E+02  0.85621670242E+02  0.47000000000E+01 0. -1.
         -5    1    4    4    0  502  0.48585067465E+02 -0.58744572771E+02  0.89031424375E+02  0.11730352994E+03  0.47000000000E+01 0.  1.
<mgrwt>
<rscale>  0 0.11097550E+03</rscale>
<asrwt>0</asrwt>
<pdfrwt beam="1">  1        1 0.91603534E-02 0.11195843E+03</pdfrwt>
<pdfrwt beam="2">  1       -1 0.35327935E-01 0.11195843E+03</pdfrwt>
<totfact> 0.52265113E+03</totfact>
</mgrwt>
</event>
<event>
 8    1  0.3400573E-004  0.1433247E+03  0.7546771E-02  0.1209684E+00
         -2   -1    0    0    0  501 -0.00000000000E+00  0.00000000000E+00  0.87116735853E+02  0.87116735853E+02  0.00000000000E+00 0.  1.
          2   -1    0    0  501    0  0.00000000000E+00 -0.00000000000E+00 -0.24075835805E+03  0.24075835805E+03  0.00000000000E+00 0. -1.
         23    2    1    2    0    0 -0.26744184756E+02  0.10490768800E+03 -0.46182838497E+02  0.15058166166E+03  0.93920752965E+02 0.  0.
         23    2    1    2    0    0  0.26744184756E+02 -0.10490768800E+03 -0.10745878370E+03  0.17729343224E+03  0.90358710151E+02 0.  0.
          5    1    3    3  502    0  0.24272861515E+02  0.27152341750E+02 -0.44172562500E+02  0.57443248049E+02  0.47000000000E+01 0. -1.
         -5    1    3    3    0  502 -0.51017046271E+02  0.77755346253E+02 -0.20102759965E+01  0.93138413614E+02  0.47000000000E+01 0.  1.
          5    1    4    4  503    0  0.40698847889E+02 -0.76654645562E+01 -0.41866215492E+02  0.59076438332E+02  0.47000000000E+01 0. -1.
         -5    1    4    4    0  503 -0.13954663134E+02 -0.97242223446E+02 -0.65592568203E+02  0.11821699390E+03  0.47000000000E+01 0.  1.
<mgrwt>
<rscale>  0 0.14274409E+03</rscale>
<asrwt>0</asrwt>
<pdfrwt beam="1">  1        2 0.37039746E-01 0.14332474E+03</pdfrwt>
<pdfrwt beam="2">  1       -2 0.13402575E-01 0.14332474E+03</pdfrwt>
<totfact> 0.54968816E+03</totfact>
</mgrwt>
</event>
<event>
 8    1  0.3400573E-004  0.1612627E+03  0.7546771E-02  0.1188741E+00
         -1   -1    0    0    0  501 -0.00000000000E+00  0.00000000000E+00  0.16732922235E+03  0.16732922235E+03  0.00000000000E+00 0.  1.
          1   -1    0    0  501    0  0.00000000000E+00 -0.00000000000E+00 -0.17371774739E+03  0.17371774739E+03  0.00000000000E+00 0. -1.
         23    2    1    2    0    0 -0.78608976171E+02  0.10694446392E+03  0.59098778784E+02  0.17175072655E+03  0.91592340944E+02 0.  0.
         23    2    1    2    0    0  0.78608976171E+02 -0.10694446392E+03 -0.65487303824E+02  0.16929624320E+03  0.82195751116E+02 0.  0.
          5    1    3    3  502    0 -0.29436521907E+02 -0.12257401622E+02  0.11712567144E+02  0.34293249272E+02  0.47000000000E+01 0. -1.
         -5    1    4    4    0  503  0.39582164506E+02 -0.76592972728E+02  0.94898857685E+00  0.86349416892E+02  0.47000000000E+01 0.  1.
          5    1    4    4  503    0  0.39026811666E+02 -0.30351491188E+02 -0.66436292401E+02  0.82946826305E+02  0.47000000000E+01 0. -1.
         -5    1    3    3    0  502 -0.49172454264E+02  0.11920186554E+03  0.47386211640E+02  0.13745747728E+03  0.47000000000E+01 0.  1.
<mgrwt>
<rscale>  0 0.15996065E+03</rscale>
<asrwt>0</asrwt>
<pdfrwt beam="1">  1        1 0.26725807E-01 0.16126266E+03</pdfrwt>
<pdfrwt beam="2">  1       -1 0.25742957E-01 0.16126266E+03</pdfrwt>
<totfact> 0.22795043E+03</totfact>
</mgrwt>
</event>
<event>
 8    1  0.3400573E-004  0.9157484E+02  0.7546771E-02  0.1299726E+00
         -2   -1    0    0    0  501 -0.00000000000E+00  0.00000000000E+00  0.32413872796E+02  0.32413872796E+02  0.00000000000E+00 0.  1.
          2   -1    0    0  501    0  0.00000000000E+00 -0.00000000000E+00 -0.29210176365E+03  0.29210176365E+03  0.00000000000E+00 0. -1.
         23    2    1    2    0    0 -0.57410797453E+01  0.32485210430E+01 -0.71867617567E+02  0.11556012245E+03  0.90253390858E+02 0.  0.
         23    2    1    2    0    0  0.57410797453E+01 -0.32485210430E+01 -0.18782027329E+03  0.20895551399E+03  0.91336952457E+02 0.  0.
          5    1    3    3  502    0  0.12169847816E+02 -0.21346050690E+02 -0.79915331081E+02  0.83739531988E+02  0.47000000000E+01 0. -1.
         -5    1    3    3    0  502 -0.17910927561E+02  0.24594571733E+02  0.80477135136E+01  0.31820590466E+02  0.47000000000E+01 0.  1.
          5    1    4    4  503    0  0.29711925453E+02  0.34922495431E+02 -0.10096955043E+03  0.11099242909E+03  0.47000000000E+01 0. -1.
         -5    1    4    4    0  503 -0.23970845708E+02 -0.38171016474E+02 -0.86850722859E+02  0.97963084903E+02  0.47000000000E+01 0.  1.
<mgrwt>
<rscale>  0 0.91303460E+02</rscale>
<asrwt>0</asrwt>
<pdfrwt beam="1">  1        2 0.44938735E-01 0.91574842E+02</pdfrwt>
<pdfrwt beam="2">  1       -2 0.49867495E-02 0.91574842E+02</pdfrwt>
<totfact> 0.19875513E+04</totfact>
</mgrwt>
</event>
<event>
 8    1  0.3400573E-004  0.1007605E+03  0.7546771E-02  0.1281214E+00
          1   -1    0    0  501    0  0.00000000000E+00  0.00000000000E+00  0.46664816294E+03  0.46664816294E+03  0.00000000000E+00 0. -1.
         -1   -1    0    0    0  501 -0.00000000000E+00 -0.00000000000E+00 -0.47507347579E+02  0.47507347579E+02  0.00000000000E+00 0.  1.
         23    2    1    2    0    0  0.92954468139E+00 -0.44758738152E+02  0.18861343075E+02  0.10251067567E+03  0.90268929703E+02 0.  0.
         23    2    1    2    0    0 -0.92954468139E+00  0.44758738152E+02  0.40027947229E+03  0.41164483485E+03  0.84991796243E+02 0.  0.
          5    1    3    3  502    0 -0.33622609702E+02  0.11674083209E+01  0.28132052665E+02  0.44106066618E+02  0.47000000000E+01 0. -1.
         -5    1    3    3    0  502  0.34552154383E+02 -0.45926146473E+02 -0.92707095900E+01  0.58404609053E+02  0.47000000000E+01 0.  1.
          5    1    4    4  503    0 -0.30543927149E+02  0.51993891336E+02  0.31953568634E+03  0.32520984159E+03  0.47000000000E+01 0. -1.
         -5    1    4    4    0  503  0.29614382468E+02 -0.72351531837E+01  0.80743785942E+02  0.86434993253E+02  0.47000000000E+01 0.  1.
<mgrwt>
<rscale>  0 0.99564668E+02</rscale>
<asrwt>0</asrwt>
<pdfrwt beam="1">  1        1 0.71792022E-01 0.10076055E+03</pdfrwt>
<pdfrwt beam="2">  1       -1 0.73088230E-02 0.10076055E+03</pdfrwt>
<totfact> 0.46465745E+03</totfact>
</mgrwt>
</event>
<event>
 8    1  0.4984604E-004  0.1001737E+03  0.7546771E-02  0.1281645E+00
          2   -1    0    0  501    0  0.00000000000E+00  0.00000000000E+00  0.45578495644E+03  0.45578495644E+03  0.00000000000E+00 0. -1.
         -2   -1    0    0    0  501 -0.00000000000E+00 -0.00000000000E+00 -0.60691381200E+02  0.60691381200E+02  0.00000000000E+00 0.  1.
         23    2    1    2    0    0  0.36766844986E+02 -0.60146573054E+01  0.40440873014E+03  0.41587048484E+03  0.89520177365E+02 0.  0.
         23    2    1    2    0    0 -0.36766844986E+02  0.60146573054E+01 -0.93151548957E+01  0.10060585280E+03  0.92988109534E+02 0.  0.
          5    1    3    3  502    0  0.53252985143E+02  0.20048299644E+02  0.16855445875E+03  0.17796210358E+03  0.47000000000E+01 0. -1.
         -5    1    3    3    0  502 -0.16486140157E+02 -0.26062956949E+02  0.23585427139E+03  0.23790838126E+03  0.47000000000E+01 0.  1.
          5    1    4    4  503    0  0.20540471694E+02 -0.20483930724E+02  0.14742111308E+02  0.32877381908E+02  0.47000000000E+01 0. -1.
         -5    1    4    4    0  503 -0.57307316680E+02  0.26498588030E+02 -0.24057266203E+02  0.67728470895E+02  0.47000000000E+01 0.  1.
<mgrwt>
<rscale>  0 0.99361197E+02</rscale>
<asrwt>0</asrwt>
<pdfrwt beam="1">  1        2 0.70120760E-01 0.10017368E+03</pdfrwt>
<pdfrwt beam="2">  1       -2 0.93371359E-02 0.10017368E+03</pdfrwt>
<totfact> 0.48445108E+03</totfact>
</mgrwt>
</event>
<event>
 8    1  0.3400573E-004  0.1049727E+03  0.7546771E-02  0.1270756E+00
         -1   -1    0    0    0  501 -0.00000000000E+00  0.00000000000E+00  0.50723470577E+03  0.50723470577E+03  0.00000000000E+00 0.  1.
          1   -1    0    0  501    0  0.00000000000E+00 -0.00000000000E+00 -0.49614993702E+02  0.49614993702E+02  0.00000000000E+00 0. -1.
         23    2    1    2    0    0  0.38005427606E+02  0.38116758978E+02  0.43902447636E+03  0.45139978142E+03  0.90121983879E+02 0.  0.
         23    2    1    2    0    0 -0.38005427606E+02 -0.38116758978E+02  0.18595235712E+02  0.10544991806E+03  0.88750225830E+02 0.  0.
          5    1    4    4  502    0 -0.53656346663E+02 -0.85557693887E+01 -0.16264093327E+02  0.56910591798E+02  0.47000000000E+01 0. -1.
         -5    1    4    4    0  502  0.15650919056E+02 -0.29560989589E+02  0.34859329040E+02  0.48539326261E+02  0.47000000000E+01 0.  1.
          5    1    3    3  503    0  0.64220339278E+02  0.27732533330E+02  0.23054836577E+03  0.24097299504E+03  0.47000000000E+01 0. -1.
         -5    1    3    3    0  503 -0.26214911672E+02  0.10384225648E+02  0.20847611059E+03  0.21042678638E+03  0.47000000000E+01 0.  1.
<mgrwt>
<rscale>  0 0.10467765E+03</rscale>
<asrwt>0</asrwt>
<pdfrwt beam="1">  1        1 0.76330763E-02 0.10497272E+03</pdfrwt>
<pdfrwt beam="2">  1       -1 0.78036105E-01 0.10497272E+03</pdfrwt>
<totfact> 0.15391194E+03</totfact>
</mgrwt>
</event>
<event>
 8    1  0.3400573E-004  0.1106025E+03  0.7546771E-02  0.1263135E+00
         -2   -1    0    0    0  501 -0.00000000000E+00  0.00000000000E+00  0.23849810913E+03  0.23849810913E+03  0.00000000000E+00 0.  1.
          2   -1    0    0  501    0  0.00000000000E+00 -0.00000000000E+00 -0.47869076384E+02  0.47869076384E+02  0.00000000000E+00 0. -1.
         23    2    1    2    0    0 -0.63056557545E+01  0.46175064548E+02  0.97887131065E+02  0.14202741451E+03  0.91749649387E+02 0.  0.
         23    2    1    2    0    0  0.63056557545E+01 -0.46175064548E+02  0.92741901679E+02  0.14433977100E+03  0.10030459255E+03 0.  0.
          5    1    4    4  502    0  0.11646545487E+02 -0.19380501688E+02 -0.18565863147E+02  0.29631522773E+02  0.47000000000E+01 0. -1.
         -5    1    3    3    0  503 -0.37028302999E+02  0.50149753556E+02  0.34704994446E+02  0.71502584878E+02  0.47000000000E+01 0.  1.
          5    1    3    3  503    0  0.30722647244E+02 -0.39746890084E+01  0.63182136619E+02  0.70524829628E+02  0.47000000000E+01 0. -1.
         -5    1    4    4    0  502 -0.53408897327E+01 -0.26794562860E+02  0.11130776483E+03  0.11470824823E+03  0.47000000000E+01 0.  1.
<mgrwt>
<rscale>  0 0.10862633E+03</rscale>
<asrwt>0</asrwt>
<pdfrwt beam="1">  1        2 0.73644734E-02 0.11060248E+03</pdfrwt>
<pdfrwt beam="2">  1       -2 0.36692016E-01 0.11060248E+03</pdfrwt>
<totfact> 0.61836189E+03</totfact>
</mgrwt>
</event>
<event>
 8    1  0.3400573E-004  0.9568292E+02  0.7546771E-02  0.1290734E+00
          2   -1    0    0  501    0  0.00000000000E+00  0.00000000000E+00  0.82897270749E+03  0.82897270749E+03  0.00000000000E+00 0. -1.
         -2   -1    0    0    0  501 -0.00000000000E+00 -0.00000000000E+00 -0.23991965667E+02  0.23991965667E+02  0.00000000000E+00 0.  1.
         23    2    1    2    0    0 -0.12409682610E+02  0.14195492329E+02  0.84669056548E+02  0.12632573617E+03  0.91835887627E+02 0.  0.
         23    2    1    2    0    0  0.12409682610E+02 -0.14195492329E+02  0.72031168527E+03  0.72663893699E+03  0.93806761923E+02 0.  0.
          5    1    4    4  502    0  0.50888330162E+02 -0.22366540453E+02  0.44828016906E+03  0.45173784904E+03  0.47000000000E+01 0. -1.
         -5    1    3    3    0  503  0.61612172342E+01  0.51010731299E+02  0.54268623416E+02  0.74881431564E+02  0.47000000000E+01 0.  1.
          5    1    3    3  503    0 -0.18570899844E+02 -0.36815238971E+02  0.30400433132E+02  0.51444304603E+02  0.47000000000E+01 0. -1.
         -5    1    4    4    0  502 -0.38478647552E+02  0.81710481237E+01  0.27203151621E+03  0.27490108795E+03  0.47000000000E+01 0.  1.
<mgrwt>
<rscale>  0 0.95196363E+02</rscale>
<asrwt>0</asrwt>
<pdfrwt beam="1">  1        2 0.12753424E+00 0.95682918E+02</pdfrwt>
<pdfrwt beam="2">  1       -2 0.36910723E-02 0.95682918E+02</pdfrwt>
<totfact> 0.98735008E+03</totfact>
</mgrwt>
</event>
<event>
 8    1  0.3400573E-004  0.9510795E+02  0.7546771E-02  0.1292260E+00
          2   -1    0    0  501    0  0.00000000000E+00  0.00000000000E+00  0.35359761167E+03  0.35359761167E+03  0.00000000000E+00 0. -1.
         -2   -1    0    0    0  501 -0.00000000000E+00 -0.00000000000E+00 -0.72529538133E+02  0.72529538133E+02  0.00000000000E+00 0.  1.
         23    2    1    2    0    0  0.19805965530E+02  0.64245215566E+01 -0.32612850307E+02  0.98344836468E+02  0.90413262893E+02 0.  0.
         23    2    1    2    0    0 -0.19805965530E+02 -0.64245215566E+01  0.31368092385E+03  0.32778231334E+03  0.92800712302E+02 0.  0.
          5    1    3    3  502    0  0.20849436703E+02  0.33504665793E+02  0.15717306497E+02  0.42736230113E+02  0.47000000000E+01 0. -1.
         -5    1    4    4    0  503  0.72901215657E+01 -0.46020910924E+02  0.14840965452E+03  0.15562321700E+03  0.47000000000E+01 0. -1.
          5    1    4    4  503    0 -0.27096087096E+02  0.39596389368E+02  0.16527126933E+03  0.17215909634E+03  0.47000000000E+01 0. -1.
         -5    1    3    3    0  502 -0.10434711731E+01 -0.27080144237E+02 -0.48330156804E+02  0.55608606355E+02  0.47000000000E+01 0.  1.
<mgrwt>
<rscale>  0 0.94520519E+02</rscale>
<asrwt>0</asrwt>
<pdfrwt beam="1">  1        2 0.54399631E-01 0.95107954E+02</pdfrwt>
<pdfrwt beam="2">  1       -2 0.11158391E-01 0.95107954E+02</pdfrwt>
<totfact> 0.47826946E+03</totfact>
</mgrwt>
</event>
<event>
 8    1  0.3400573E-004  0.9333932E+02  0.7546771E-02  0.1296758E+00
          2   -1    0    0  501    0  0.00000000000E+00  0.00000000000E+00  0.87373745661E+03  0.87373745661E+03  0.00000000000E+00 0. -1.
         -2   -1    0    0    0  501 -0.00000000000E+00 -0.00000000000E+00 -0.96549702507E+01  0.96549702507E+01  0.00000000000E+00 0.  1.
         23    2    1    2    0    0  0.40942455815E+01  0.32110144094E+01  0.41208091493E+03  0.42185407664E+03  0.90128286710E+02 0.  0.
         23    2    1    2    0    0 -0.40942455815E+01 -0.32110144094E+01  0.45200157143E+03  0.46153835022E+03  0.93194177352E+02 0.  0.
          5    1    3    3  502    0  0.46761163161E+02 -0.15808240209E+01  0.20688484879E+03  0.21216158003E+03  0.47000000000E+01 0. -1.
         -5    1    4    4    0  503  0.14642341925E+01 -0.47531423762E+02  0.25985910668E+03  0.26421624771E+03  0.47000000000E+01 0.  1.
          5    1    4    4  503    0 -0.55584797740E+01  0.44320409353E+02  0.19214246475E+03  0.19732210252E+03  0.47000000000E+01 0. -1.
         -5    1    3    3    0  502 -0.42666917579E+02  0.47918384302E+01  0.20519606615E+03  0.20969249661E+03  0.47000000000E+01 0.  1.
<mgrwt>
<rscale>  0 0.92564482E+02</rscale>
<asrwt>0</asrwt>
<pdfrwt beam="1">  1        2 0.13442109E+00 0.93339317E+02</pdfrwt>
<pdfrwt beam="2">  1       -2 0.14853807E-02 0.93339317E+02</pdfrwt>
<totfact> 0.34373508E+04</totfact>
</mgrwt>
</event>
<event>
 8    1  0.3400573E-004  0.1035483E+03  0.7546771E-02  0.1273402E+00
         -2   -1    0    0    0  501 -0.00000000000E+00  0.00000000000E+00  0.52146651957E+02  0.52146651957E+02  0.00000000000E+00 0.  1.
          2   -1    0    0  501    0  0.00000000000E+00 -0.00000000000E+00 -0.23974056156E+03  0.23974056156E+03  0.00000000000E+00 0. -1.
         23    2    1    2    0    0  0.14650153175E+02 -0.47640438063E+02 -0.37193802873E+02  0.10928811061E+03  0.89868091228E+02 0.  0.
         23    2    1    2    0    0 -0.14650153175E+02  0.47640438063E+02 -0.15040010673E+03  0.18259910291E+03  0.90763439513E+02 0.  0.
          5    1    3    3  502    0 -0.22820685251E+01  0.26247039905E+02 -0.81451531077E+01  0.27974067629E+02  0.47000000000E+01 0. -1.
         -5    1    3    3    0  502  0.16932221700E+02 -0.73887477968E+02 -0.29048649765E+02  0.81314042978E+02  0.47000000000E+01 0.  1.
          5    1    4    4  503    0 -0.29864369907E+02  0.27203192624E+02 -0.12880423662E+02  0.42660164001E+02  0.47000000000E+01 0. -1.
         -5    1    4    4    0  503  0.15214216732E+02  0.20437245439E+02 -0.13751968307E+03  0.13993893891E+03  0.47000000000E+01 0.  1.
<mgrwt>
<rscale>  0 0.10335172E+03</rscale>
<asrwt>0</asrwt>
<pdfrwt beam="1">  1        2 0.36883164E-01 0.10354825E+03</pdfrwt>
<pdfrwt beam="2">  1       -2 0.80225618E-02 0.10354825E+03</pdfrwt>
<totfact> 0.12081341E+04</totfact>
</mgrwt>
</event>
<event>
 8    1  0.3400573E-004  0.2868938E+03  0.7546771E-02  0.1094003E+00
          1   -1    0    0  501    0  0.00000000000E+00  0.00000000000E+00  0.44946562983E+03  0.44946562983E+03  0.00000000000E+00 0. -1.
         -1   -1    0    0    0  501 -0.00000000000E+00 -0.00000000000E+00 -0.24644237193E+03  0.24644237193E+03  0.00000000000E+00 0.  1.
         23    2    1    2    0    0  0.10552173190E+03 -0.23460222590E+03 -0.85490066390E+02  0.29936028653E+03  0.12702357811E+03 0.  0.
         23    2    1    2    0    0 -0.10552173190E+03  0.23460222590E+03  0.28851332429E+03  0.39654771524E+03  0.88527463923E+02 0.  0.
          5    1    4    4  502    0 -0.87623289872E+02  0.15967875395E+03  0.25252583988E+03  0.31139450091E+03  0.47000000000E+01 0. -1.
         -5    1    4    4    0  502 -0.17898442031E+02  0.74923471953E+02  0.35987484408E+02  0.85153214330E+02  0.47000000000E+01 0.  1.
          5    1    3    3  503    0 -0.10615419910E+02 -0.73501468026E+02  0.16253788521E+02  0.76167109589E+02  0.47000000000E+01 0. -1.
         -5    1    3    3    0  503  0.11613715181E+03 -0.16110075788E+03 -0.10174385491E+03  0.22319317694E+03  0.47000000000E+01 0.  1.
<mgrwt>
<rscale>  0 0.28310806E+03</rscale>
<asrwt>0</asrwt>
<pdfrwt beam="1">  1        1 0.69148558E-01 0.28689376E+03</pdfrwt>
<pdfrwt beam="2">  1       -1 0.37914211E-01 0.28689376E+03</pdfrwt>
<totfact> 0.35547895E+02</totfact>
</mgrwt>
</event>
<event>
 8    1  0.3400573E-004  0.1016810E+03  0.7546771E-02  0.1277764E+00
          1   -1    0    0  501    0  0.00000000000E+00  0.00000000000E+00  0.15899105039E+04  0.15899105039E+04  0.00000000000E+00 0. -1.
         -1   -1    0    0    0  501 -0.00000000000E+00 -0.00000000000E+00 -0.65283841269E+01  0.65283841269E+01  0.00000000000E+00 0.  1.
         23    2    1    2    0    0  0.68483794619E+01  0.42623615152E+02  0.90297739073E+03  0.90847840784E+03  0.90006535758E+02 0.  0.
         23    2    1    2    0    0 -0.68483794619E+01 -0.42623615152E+02  0.68040472907E+03  0.68796048021E+03  0.92061686493E+02 0.  0.
          5    1    4    4  502    0 -0.41493879245E+02 -0.48293524576E+02  0.50462734077E+03  0.50865002662E+03  0.47000000000E+01 0. -1.
         -5    1    3    3    0  503  0.47986612676E+02  0.25623873013E+02  0.53924861273E+03  0.54200595403E+03  0.47000000000E+01 0.  1.
          5    1    3    3  503    0 -0.41138233214E+02  0.16999742139E+02  0.36372877799E+03  0.36647245381E+03  0.47000000000E+01 0. -1.
         -5    1    4    4    0  502  0.34645499783E+02  0.56699094239E+01  0.17577738830E+03  0.17931045359E+03  0.47000000000E+01 0.  1.
<mgrwt>
<rscale>  0 0.10121356E+03</rscale>
<asrwt>0</asrwt>
<pdfrwt beam="1">  1        1 0.24460131E+00 0.10168101E+03</pdfrwt>
<pdfrwt beam="2">  1       -1 0.10043681E-02 0.10168101E+03</pdfrwt>
<totfact> 0.11166921E+04</totfact>
</mgrwt>
</event>
<event>
 8    1  0.3400573E-004  0.1189975E+03  0.7546771E-02  0.1246035E+00
          1   -1    0    0  501    0  0.00000000000E+00  0.00000000000E+00  0.35583370031E+03  0.35583370031E+03  0.00000000000E+00 0. -1.
         -1   -1    0    0    0  501 -0.00000000000E+00 -0.00000000000E+00 -0.40238315203E+02  0.40238315203E+02  0.00000000000E+00 0.  1.
         23    2    1    2    0    0  0.50460754546E+02  0.56587998269E+02  0.19727862415E+03  0.23038937504E+03  0.91716515881E+02 0.  0.
         23    2    1    2    0    0 -0.50460754546E+02 -0.56587998269E+02  0.11831676095E+03  0.16568264047E+03  0.87768970227E+02 0.  0.
          5    1    4    4  502    0  0.12415210305E+02 -0.21123101788E+02  0.80042443225E+02  0.83840357785E+02  0.47000000000E+01 0. -1.
         -5    1    3    3    0  503 -0.21409120173E+02  0.38963274578E+02  0.79743826266E+02  0.91420211223E+02  0.47000000000E+01 0.  1.
          5    1    3    3  503    0  0.71869874718E+02  0.17624723691E+02  0.11753479789E+03  0.13896916381E+03  0.47000000000E+01 0. -1.
         -5    1    4    4    0  502 -0.62875964851E+02 -0.35464896481E+02  0.38274317729E+02  0.81842282690E+02  0.47000000000E+01 0.  1.
<mgrwt>
<rscale>  0 0.11823643E+03</rscale>
<asrwt>0</asrwt>
<pdfrwt beam="1">  1        1 0.54743644E-01 0.11899752E+03</pdfrwt>
<pdfrwt beam="2">  1       -1 0.61905103E-02 0.11899752E+03</pdfrwt>
<totfact> 0.84532719E+03</totfact>
</mgrwt>
</event>
<event>
 8    1  0.3400573E-004  0.9716044E+02  0.7546771E-02  0.1287331E+00
          2   -1    0    0  501    0  0.00000000000E+00  0.00000000000E+00  0.21784053708E+03  0.21784053708E+03  0.00000000000E+00 0. -1.
         -2   -1    0    0    0  501 -0.00000000000E+00 -0.00000000000E+00 -0.52904390599E+02  0.52904390599E+02  0.00000000000E+00 0.  1.
         23    2    1    2    0    0 -0.30667080673E+02 -0.32446356883E+01  0.23236454159E+02  0.99900370041E+02  0.92136603121E+02 0.  0.
         23    2    1    2    0    0  0.30667080673E+02  0.32446356883E+01  0.14169969233E+03  0.17084455764E+03  0.90321993848E+02 0.  0.
          5    1    4    4  502    0  0.13089383501E+02 -0.24554018257E+02  0.13373426709E+03  0.13667909850E+03  0.47000000000E+01 0. -1.
         -5    1    4    4    0  502  0.17577697172E+02  0.27798653945E+02  0.79654252353E+01  0.34165459140E+02  0.47000000000E+01 0.  1.
          5    1    3    3  503    0 -0.22830617797E+02 -0.43867882317E+02 -0.44848690869E+01  0.49878174172E+02  0.47000000000E+01 0. -1.
         -5    1    3    3    0  503 -0.78364628762E+01  0.40623246629E+02  0.27721323246E+02  0.50022195870E+02  0.47000000000E+01 0.  1.
<mgrwt>
<rscale>  0 0.96727798E+02</rscale>
<asrwt>0</asrwt>
<pdfrwt beam="1">  1        2 0.33513928E-01 0.97160440E+02</pdfrwt>
<pdfrwt beam="2">  1       -2 0.81391372E-02 0.97160440E+02</pdfrwt>
<totfact> 0.13004614E+04</totfact>
</mgrwt>
</event>
<event>
 8    1  0.3400573E-004  0.1127281E+03  0.7546771E-02  0.1256531E+00
         -1   -1    0    0    0  501 -0.00000000000E+00  0.00000000000E+00  0.19222911181E+03  0.19222911181E+03  0.00000000000E+00 0.  1.
          1   -1    0    0  501    0  0.00000000000E+00 -0.00000000000E+00 -0.11827223842E+03  0.11827223842E+03  0.00000000000E+00 0. -1.
         23    2    1    2    0    0  0.15096941065E+02  0.63171971870E+02 -0.67492136514E+02  0.12962724314E+03  0.89607019883E+02 0.  0.
         23    2    1    2    0    0 -0.15096941065E+02 -0.63171971870E+02  0.14144900991E+03  0.18087410710E+03  0.92135794101E+02 0.  0.
          5    1    4    4  502    0 -0.29467242819E+02  0.48419561408E+01  0.95482927294E+01  0.31702095083E+02  0.47000000000E+01 0. -1.
         -5    1    4    4    0  502  0.14370301754E+02 -0.68013928011E+02  0.13190071718E+03  0.14917201201E+03  0.47000000000E+01 0.  1.
          5    1    3    3  503    0  0.83068597545E+01  0.84734071485E+02 -0.41409285274E+02  0.94792856779E+02  0.47000000000E+01 0. -1.
         -5    1    3    3    0  503  0.67900813104E+01 -0.21562099615E+02 -0.26082851240E+02  0.34834386357E+02  0.47000000000E+01 0.  1.
<mgrwt>
<rscale>  0 0.11221021E+03</rscale>
<asrwt>0</asrwt>
<pdfrwt beam="1">  1        1 0.18195729E-01 0.11272808E+03</pdfrwt>
<pdfrwt beam="2">  1       -1 0.29573709E-01 0.11272808E+03</pdfrwt>
<totfact> 0.28952202E+03</totfact>
</mgrwt>
</event>
<event>
 8    1  0.3400573E-004  0.1104222E+03  0.7546771E-02  0.1261000E+00
         -2   -1    0    0    0  501 -0.00000000000E+00  0.00000000000E+00  0.28606738515E+02  0.28606738515E+02  0.00000000000E+00 0.  1.
          2   -1    0    0  501    0  0.00000000000E+00 -0.00000000000E+00 -0.41657030898E+03  0.41657030898E+03  0.00000000000E+00 0. -1.
         23    2    1    2    0    0 -0.61490875325E+02  0.14130835331E+02 -0.20220541883E+03  0.23039117504E+03  0.90621486844E+02 0.  0.
         23    2    1    2    0    0  0.61490875325E+02 -0.14130835331E+02 -0.18575815163E+03  0.21478587245E+03  0.87441819804E+02 0.  0.
          5    1    3    3  502    0 -0.63083759891E+02  0.41418310156E+02 -0.10556947791E+03  0.12985392503E+03  0.47000000000E+01 0. -1.
         -5    1    4    4    0  503  0.73351820368E+02 -0.35634969806E+02 -0.15443033299E+03  0.17470305771E+03  0.47000000000E+01 0.  1.
          5    1    4    4  503    0 -0.11860945044E+02  0.21504134475E+02 -0.31327818640E+02  0.40082814741E+02  0.47000000000E+01 0. -1.
         -5    1    3    3    0  502  0.15928845667E+01 -0.27287474826E+02 -0.96635940917E+02  0.10053725001E+03  0.47000000000E+01 0.  1.
<mgrwt>
<rscale>  0 0.10976786E+03</rscale>
<asrwt>0</asrwt>
<pdfrwt beam="1">  1        2 0.64087732E-01 0.11042220E+03</pdfrwt>
<pdfrwt beam="2">  1       -2 0.44010372E-02 0.11042220E+03</pdfrwt>
<totfact> 0.16775526E+04</totfact>
</mgrwt>
</event>
<event>
 8    1  0.3400573E-004  0.1974264E+03  0.7546771E-02  0.1152088E+00
         -3   -1    0    0    0  501 -0.00000000000E+00  0.00000000000E+00  0.42613431486E+03  0.42613431486E+03  0.00000000000E+00 0.  1.
          3   -1    0    0  501    0  0.00000000000E+00 -0.00000000000E+00 -0.13164542391E+03  0.13164542391E+03  0.00000000000E+00 0. -1.
         23    2    1    2    0    0 -0.98914702490E+02 -0.14417507605E+03 -0.76775571645E+01  0.19683412825E+03  0.90078622518E+02 0.  0.
         23    2    1    2    0    0  0.98914702490E+02  0.14417507605E+03  0.30216644812E+03  0.36094561052E+03  0.91687515302E+02 0.  0.
          5    1    4    4  502    0 -0.63261582632E+01  0.29664576149E+02  0.14614520120E+02  0.33995316660E+02  0.47000000000E+01 0. -1.
         -5    1    3    3    0  503 -0.36585298732E+02  0.85534173584E+00 -0.12147392137E+02  0.38844109316E+02  0.47000000000E+01 0.  1.
          5    1    3    3  503    0 -0.62329403758E+02 -0.14503041779E+03  0.44698349726E+01  0.15799001893E+03  0.47000000000E+01 0. -1.
         -5    1    4    4    0  502  0.10524086075E+03  0.11451049991E+03  0.28755192800E+03  0.32695029386E+03  0.47000000000E+01 0.  1.
<mgrwt>
<rscale>  0 0.19724060E+03</rscale>
<asrwt>0</asrwt>
<pdfrwt beam="1">  1        3 0.20253142E-01 0.19742637E+03</pdfrwt>
<pdfrwt beam="2">  1       -3 0.65559125E-01 0.19742637E+03</pdfrwt>
<totfact> 0.12240749E+02</totfact>
</mgrwt>
</event>
<event>
 8    1  0.3400573E-004  0.1009968E+03  0.7546771E-02  0.1280540E+00
         -3   -1    0    0    0  501 -0.00000000000E+00  0.00000000000E+00  0.24368784946E+03  0.24368784946E+03  0.00000000000E+00 0.  1.
          3   -1    0    0  501    0  0.00000000000E+00 -0.00000000000E+00 -0.87180477023E+02  0.87180477023E+02  0.00000000000E+00 0. -1.
         23    2    1    2    0    0  0.33124743250E+02 -0.13774912048E+02  0.20065642897E+03  0.22464050741E+03  0.94410583448E+02 0.  0.
         23    2    1    2    0    0 -0.33124743250E+02  0.13774912048E+02 -0.44149056528E+02  0.10622781907E+03  0.89711836094E+02 0.  0.
          5    1    4    4  502    0 -0.12898030887E+02  0.43734640998E+02 -0.51601806747E+02  0.69021116215E+02  0.47000000000E+01 0. -1.
         -5    1    3    3    0  503 -0.88353619260E+01 -0.43634330322E+02  0.60604662115E+02  0.75346091292E+02  0.47000000000E+01 0.  1.
          5    1    3    3  503    0  0.41960105176E+02  0.29859418273E+02  0.14005176685E+03  0.14929441612E+03  0.47000000000E+01 0. -1.
         -5    1    4    4    0  502 -0.20226712363E+02 -0.29959728950E+02  0.74527502188E+01  0.37206702858E+02  0.47000000000E+01 0.  1.
<mgrwt>
<rscale>  0 0.99884074E+02</rscale>
<asrwt>0</asrwt>
<pdfrwt beam="1">  1        3 0.13412381E-01 0.10099681E+03</pdfrwt>
<pdfrwt beam="2">  1       -3 0.37490438E-01 0.10099681E+03</pdfrwt>
<totfact> 0.69810125E+02</totfact>
</mgrwt>
</event>
<event>
 8    1  0.3400573E-004  0.9445334E+02  0.7546771E-02  0.1293700E+00
          3   -1    0    0  501    0  0.00000000000E+00  0.00000000000E+00  0.12134208532E+03  0.12134208532E+03  0.00000000000E+00 0. -1.
         -3   -1    0    0    0  501 -0.00000000000E+00 -0.00000000000E+00 -0.10367078077E+03  0.10367078077E+03  0.00000000000E+00 0.  1.
         23    2    1    2    0    0 -0.18922543771E+02  0.20780643055E+01  0.71295899332E+02  0.11834077198E+03  0.92515144909E+02 0.  0.
         23    2    1    2    0    0  0.18922543771E+02 -0.20780643055E+01 -0.53624594783E+02  0.10667209411E+03  0.90227254651E+02 0.  0.
          5    1    4    4  502    0  0.54008495438E+02  0.85338208690E+01 -0.27272631913E+02  0.61283196144E+02  0.47000000000E+01 0. -1.
         -5    1    4    4    0  502 -0.35085951667E+02 -0.10611885175E+02 -0.26351962870E+02  0.45388897965E+02  0.47000000000E+01 0.  1.
          5    1    3    3  503    0  0.34576336733E+02 -0.78296669505E+01  0.45698467387E+02  0.58028154097E+02  0.47000000000E+01 0. -1.
         -5    1    3    3    0  503 -0.53498880504E+02  0.99077312560E+01  0.25597431946E+02  0.60312617884E+02  0.47000000000E+01 0.  1.
<mgrwt>
<rscale>  0 0.93888341E+02</rscale>
<asrwt>0</asrwt>
<pdfrwt beam="1">  1        3 0.18668013E-01 0.94453338E+02</pdfrwt>
<pdfrwt beam="2">  1       -3 0.15949351E-01 0.94453338E+02</pdfrwt>
<totfact> 0.18150864E+03</totfact>
</mgrwt>
</event>
<event>
 8    1  0.3400573E-004  0.9457406E+02  0.7546771E-02  0.1292746E+00
          2   -1    0    0  501    0  0.00000000000E+00  0.00000000000E+00  0.33967854116E+03  0.33967854116E+03  0.00000000000E+00 0. -1.
         -2   -1    0    0    0  501 -0.00000000000E+00 -0.00000000000E+00 -0.28093567329E+02  0.28093567329E+02  0.00000000000E+00 0.  1.
         23    2    1    2    0    0 -0.40359278936E-01  0.20361920795E+02  0.20474253233E+03  0.22508518104E+03  0.91264586414E+02 0.  0.
         23    2    1    2    0    0  0.40359278936E-01 -0.20361920795E+02  0.10684244151E+03  0.14268692745E+03  0.92356063749E+02 0.  0.
          5    1    3    3  502    0 -0.43190878335E+02  0.21921286418E+02  0.12746163857E+03  0.13643516437E+03  0.47000000000E+01 0. -1.
         -5    1    3    3    0  502  0.43150519056E+02 -0.15593656232E+01  0.77280893759E+02  0.88650016674E+02  0.47000000000E+01 0.  1.
          5    1    4    4  503    0 -0.17370271931E+02 -0.53303759396E+02  0.72747907924E+02  0.91963934344E+02  0.47000000000E+01 0. -1.
         -5    1    4    4    0  503  0.17410631210E+02  0.32941838601E+02  0.34094533586E+02  0.50722993110E+02  0.47000000000E+01 0.  1.
<mgrwt>
<rscale>  0 0.94306526E+02</rscale>
<asrwt>0</asrwt>
<pdfrwt beam="1">  1        2 0.52258234E-01 0.94574055E+02</pdfrwt>
<pdfrwt beam="2">  1       -2 0.43220875E-02 0.94574055E+02</pdfrwt>
<totfact> 0.21049172E+04</totfact>
</mgrwt>
</event>
<event>
 8    1  0.3400573E-004  0.1043283E+03  0.7546771E-02  0.1271782E+00
         -1   -1    0    0    0  501 -0.00000000000E+00  0.00000000000E+00  0.10901322076E+03  0.10901322076E+03  0.00000000000E+00 0.  1.
          1   -1    0    0  501    0  0.00000000000E+00 -0.00000000000E+00 -0.13223438521E+03  0.13223438521E+03  0.00000000000E+00 0. -1.
         23    2    1    2    0    0  0.49075409146E+02 -0.10083229419E+02  0.48701929247E+02  0.11453007021E+03  0.90747957397E+02 0.  0.
         23    2    1    2    0    0 -0.49075409146E+02  0.10083229419E+02 -0.71923093697E+02  0.12671753576E+03  0.91511393629E+02 0.  0.
          5    1    4    4  502    0  0.19154961926E+00 -0.33835272618E+02 -0.88138831380E+01  0.35279411848E+02  0.47000000000E+01 0. -1.
         -5    1    3    3    0  503  0.73937477724E+02 -0.18780574852E+02  0.40766977662E+02  0.86622728378E+02  0.47000000000E+01 0.  1.
          5    1    3    3  503    0 -0.24862068578E+02  0.86973454325E+01  0.79349515851E+01  0.27907341833E+02  0.47000000000E+01 0. -1.
         -5    1    4    4    0  502 -0.49266958765E+02  0.43918502037E+02 -0.63109210559E+02  0.91438123912E+02  0.47000000000E+01 0.  1.
<mgrwt>
<rscale>  0 0.10416069E+03</rscale>
<asrwt>0</asrwt>
<pdfrwt beam="1">  1        1 0.20343752E-01 0.10432834E+03</pdfrwt>
<pdfrwt beam="2">  1       -1 0.16771265E-01 0.10432834E+03</pdfrwt>
<totfact> 0.62521598E+03</totfact>
</mgrwt>
</event>
<event>
 8    1  0.3400573E-004  0.1004235E+03  0.7546771E-02  0.1279493E+00
          3   -1    0    0  501    0  0.00000000000E+00  0.00000000000E+00  0.86605570051E+02  0.86605570051E+02  0.00000000000E+00 0. -1.
         -3   -1    0    0    0  501 -0.00000000000E+00 -0.00000000000E+00 -0.24155387418E+03  0.24155387418E+03  0.00000000000E+00 0.  1.
         23    2    1    2    0    0  0.26321431191E+02 -0.33358104473E+02 -0.19567763946E+03  0.21994232062E+03  0.90990686002E+02 0.  0.
         23    2    1    2    0    0 -0.26321431191E+02  0.33358104473E+02  0.40729335332E+02  0.10821712362E+03  0.90810165802E+02 0.  0.
          5    1    3    3  502    0  0.47518797585E+02 -0.22977229407E+02 -0.18699390213E+03  0.19435739921E+03  0.47000000000E+01 0. -1.
         -5    1    4    4    0  503 -0.38518808873E+02  0.56457937046E+02  0.44081421176E+02  0.81464464556E+02  0.47000000000E+01 0.  1.
          5    1    4    4  503    0  0.12197377682E+02 -0.23099832573E+02 -0.33520858434E+01  0.26752659059E+02  0.47000000000E+01 0. -1.
         -5    1    3    3    0  502 -0.21197366394E+02 -0.10380875066E+02 -0.86837373317E+01  0.25584921404E+02  0.47000000000E+01 0.  1.
<mgrwt>
<rscale>  0 0.10038262E+03</rscale>
<asrwt>0</asrwt>
<pdfrwt beam="1">  1        3 0.13323934E-01 0.10042353E+03</pdfrwt>
<pdfrwt beam="2">  1       -3 0.37162133E-01 0.10042353E+03</pdfrwt>
<totfact> 0.71706971E+02</totfact>
</mgrwt>
</event>
<event>
 8    1  0.3400573E-004  0.1033522E+03  0.7546771E-02  0.1276339E+00
          2   -1    0    0  501    0  0.00000000000E+00  0.00000000000E+00  0.49434256662E+02  0.49434256662E+02  0.00000000000E+00 0. -1.
         -2   -1    0    0    0  501 -0.00000000000E+00 -0.00000000000E+00 -0.36869433107E+03  0.36869433107E+03  0.00000000000E+00 0.  1.
         23    2    1    2    0    0 -0.31204199809E+02  0.20620045623E+02 -0.22593978898E+02  0.10579304392E+03  0.96347246419E+02 0.  0.
         23    2    1    2    0    0  0.31204199809E+02 -0.20620045623E+02 -0.29666609551E+03  0.31233554381E+03  0.90243178884E+02 0.  0.
          5    1    3    3  502    0 -0.63095616856E+02  0.28504114550E+02 -0.21267404244E+02  0.72580533863E+02  0.47000000000E+01 0. -1.
         -5    1    3    3    0  502  0.31891417046E+02 -0.78840689269E+01 -0.13265746550E+01  0.33212510058E+02  0.47000000000E+01 0.  1.
          5    1    4    4  503    0 -0.14058669815E+02  0.25492874087E+02 -0.13475541614E+03  0.13794435474E+03  0.47000000000E+01 0. -1.
         -5    1    4    4    0  503  0.45262869624E+02 -0.46112919710E+02 -0.16191067937E+03  0.17439118907E+03  0.47000000000E+01 0.  1.
<mgrwt>
<rscale>  0 0.10190579E+03</rscale>
<asrwt>0</asrwt>
<pdfrwt beam="1">  1        2 0.76052707E-02 0.10335221E+03</pdfrwt>
<pdfrwt beam="2">  1       -2 0.56722201E-01 0.10335221E+03</pdfrwt>
<totfact> 0.25447642E+03</totfact>
</mgrwt>
</event>
<event>
 8    1  0.3400573E-004  0.1050508E+03  0.7546771E-02  0.1270688E+00
          2   -1    0    0  501    0  0.00000000000E+00  0.00000000000E+00  0.61452935305E+03  0.61452935305E+03  0.00000000000E+00 0. -1.
         -2   -1    0    0    0  501 -0.00000000000E+00 -0.00000000000E+00 -0.25672742400E+02  0.25672742400E+02  0.00000000000E+00 0.  1.
         23    2    1    2    0    0 -0.47876390083E+02 -0.19686983096E+02  0.11505109592E+03  0.15489049888E+03  0.89858699856E+02 0.  0.
         23    2    1    2    0    0  0.47876390083E+02  0.19686983096E+02  0.47380551473E+03  0.48531159657E+03  0.91410907148E+02 0.  0.
          5    1    3    3  502    0 -0.20726962908E+02  0.11971872518E+02 -0.73641603091E+01  0.25480454863E+02  0.47000000000E+01 0. -1.
         -5    1    4    4    0  503  0.69321775366E+02  0.25616090009E+02  0.26123414353E+03  0.27152727368E+03  0.47000000000E+01 0.  1.
          5    1    4    4  503    0 -0.21445385283E+02 -0.59291069127E+01  0.21257137120E+03  0.21378432289E+03  0.47000000000E+01 0. -1.
         -5    1    3    3    0  502 -0.27149427175E+02 -0.31658855614E+02  0.12241525622E+03  0.12941004401E+03  0.47000000000E+01 0.  1.
<mgrwt>
<rscale>  0 0.10471225E+03</rscale>
<asrwt>0</asrwt>
<pdfrwt beam="1">  1        2 0.94542966E-01 0.10505084E+03</pdfrwt>
<pdfrwt beam="2">  1       -2 0.39496531E-02 0.10505084E+03</pdfrwt>
<totfact> 0.12818143E+04</totfact>
</mgrwt>
</event>
<event>
 8    1  0.3400573E-004  0.1059839E+03  0.7546771E-02  0.1270631E+00
         -1   -1    0    0    0  501 -0.00000000000E+00  0.00000000000E+00  0.12400851315E+03  0.12400851315E+03  0.00000000000E+00 0.  1.
          1   -1    0    0  501    0  0.00000000000E+00 -0.00000000000E+00 -0.14637983990E+03  0.14637983990E+03  0.00000000000E+00 0. -1.
         23    2    1    2    0    0  0.16330162052E+02  0.18637891907E+02  0.75147390971E+02  0.12992200008E+03  0.10304635136E+03 0.  0.
         23    2    1    2    0    0 -0.16330162052E+02 -0.18637891907E+02 -0.97518717720E+02  0.14046635297E+03  0.98014543839E+02 0.  0.
          5    1    3    3  502    0 -0.36449204179E+02 -0.14533588956E+02  0.12576898433E+02  0.41473341648E+02  0.47000000000E+01 0. -1.
         -5    1    3    3    0  502  0.52779366231E+02  0.33171480863E+02  0.62570492537E+02  0.88448658434E+02  0.47000000000E+01 0.  1.
          5    1    4    4  503    0 -0.25311369222E+01 -0.58301843964E+02 -0.61881568287E+02  0.85187617395E+02  0.47000000000E+01 0. -1.
         -5    1    4    4    0  503 -0.13799025130E+02  0.39663952057E+02 -0.35637149433E+02  0.55278735577E+02  0.47000000000E+01 0.  1.
<mgrwt>
<rscale>  0 0.10474087E+03</rscale>
<asrwt>0</asrwt>
<pdfrwt beam="1">  1        1 0.22519975E-01 0.10598394E+03</pdfrwt>
<pdfrwt beam="2">  1       -1 0.19078233E-01 0.10598394E+03</pdfrwt>
<totfact> 0.44948016E+03</totfact>
</mgrwt>
</event>
<event>
 8    1  0.3400573E-004  0.1169722E+03  0.7546771E-02  0.1248259E+00
          1   -1    0    0  501    0  0.00000000000E+00  0.00000000000E+00  0.20192240944E+03  0.20192240944E+03  0.00000000000E+00 0. -1.
         -1   -1    0    0    0  501 -0.00000000000E+00 -0.00000000000E+00 -0.68708273903E+02  0.68708273903E+02  0.00000000000E+00 0.  1.
         23    2    1    2    0    0 -0.14689059945E+02 -0.72915159251E+02  0.49872143360E+02  0.12716026015E+03  0.90277971554E+02 0.  0.
         23    2    1    2    0    0  0.14689059945E+02  0.72915159251E+02  0.83341992178E+02  0.14347042319E+03  0.90030471176E+02 0.  0.
          5    1    4    4  502    0 -0.20144993730E+02  0.50126015498E+02  0.85808725602E+02  0.10150697312E+03  0.47000000000E+01 0. -1.
         -5    1    4    4    0  502  0.34834053675E+02  0.22789143754E+02 -0.24667334236E+01  0.41963450075E+02  0.47000000000E+01 0.  1.
          5    1    3    3  503    0 -0.26628469151E+02  0.15487868368E+01  0.43614888196E+02  0.51340262780E+02  0.47000000000E+01 0. -1.
         -5    1    3    3    0  503  0.11939409207E+02 -0.74463946088E+02  0.62572551639E+01  0.75819997371E+02  0.47000000000E+01 0.  1.
<mgrwt>
<rscale>  0 0.11692447E+03</rscale>
<asrwt>0</asrwt>
<pdfrwt beam="1">  1        1 0.31064986E-01 0.11697222E+03</pdfrwt>
<pdfrwt beam="2">  1       -1 0.10570504E-01 0.11697222E+03</pdfrwt>
<totfact> 0.75928893E+03</totfact>
</mgrwt>
</event>
<event>
 8    1  0.3400573E-004  0.9811660E+02  0.7546771E-02  0.1287962E+00
          1   -1    0    0  501    0  0.00000000000E+00  0.00000000000E+00  0.10294742153E+04  0.10294742153E+04  0.00000000000E+00 0. -1.
         -1   -1    0    0    0  501 -0.00000000000E+00 -0.00000000000E+00 -0.89797642126E+01  0.89797642126E+01  0.00000000000E+00 0.  1.
         23    2    1    2    0    0 -0.42837354315E+02 -0.16426699526E+02  0.44240042598E+03  0.45315009111E+03  0.86729422812E+02 0.  0.
         23    2    1    2    0    0  0.42837354315E+02  0.16426699526E+02  0.57809402510E+03  0.58530388840E+03  0.79265784140E+02 0.  0.
          5    1    4    4  502    0 -0.14547421150E+02 -0.17999625728E+02  0.18892701749E+03  0.19039727394E+03  0.47000000000E+01 0. -1.
         -5    1    4    4    0  502  0.57384775465E+02  0.34426325254E+02  0.38916700761E+03  0.39490661445E+03  0.47000000000E+01 0.  1.
          5    1    3    3  503    0  0.21410896350E+02 -0.17719564036E+02  0.21354631409E+03  0.21539853224E+03  0.47000000000E+01 0. -1.
         -5    1    3    3    0  503 -0.64248250665E+02  0.12928645105E+01  0.22885411189E+03  0.23775155887E+03  0.47000000000E+01 0.  1.
<mgrwt>
<rscale>  0 0.96441465E+02</rscale>
<asrwt>0</asrwt>
<pdfrwt beam="1">  1        1 0.15838056E+00 0.98116605E+02</pdfrwt>
<pdfrwt beam="2">  1       -1 0.13815030E-02 0.98116605E+02</pdfrwt>
<totfact> 0.16703875E+04</totfact>
</mgrwt>
</event>
<event>
 8    1  0.3400573E-004  0.1899991E+03  0.7546771E-02  0.1158796E+00
         -1   -1    0    0    0  501 -0.00000000000E+00  0.00000000000E+00  0.56664014369E+03  0.56664014369E+03  0.00000000000E+00 0.  1.
          1   -1    0    0  501    0  0.00000000000E+00 -0.00000000000E+00 -0.63221959245E+02  0.63221959245E+02  0.00000000000E+00 0. -1.
         23    2    1    2    0    0 -0.13635461227E+02 -0.16697028623E+03  0.25586814767E+03  0.31869759242E+03  0.89636176498E+02 0.  0.
         23    2    1    2    0    0  0.13635461227E+02  0.16697028623E+03  0.24755003678E+03  0.31116451051E+03  0.86471553745E+02 0.  0.
          5    1    3    3  502    0  0.84719165575E+01 -0.15241084748E+03  0.16907608116E+03  0.22783689565E+03  0.47000000000E+01 0. -1.
         -5    1    4    4    0  503 -0.30312231241E+01  0.15152403741E+03  0.24458412552E+03  0.28777110120E+03  0.47000000000E+01 0.  1.
          5    1    4    4  503    0  0.16666684351E+02  0.15446248822E+02  0.29659112574E+01  0.23393409318E+02  0.47000000000E+01 0. -1.
         -5    1    3    3    0  502 -0.22107377784E+02 -0.14559438757E+02  0.86792066510E+02  0.90860696775E+02  0.47000000000E+01 0.  1.
<mgrwt>
<rscale>  0 0.18962991E+03</rscale>
<asrwt>0</asrwt>
<pdfrwt beam="1">  1        1 0.97264557E-02 0.18999907E+03</pdfrwt>
<pdfrwt beam="2">  1       -1 0.87175403E-01 0.18999907E+03</pdfrwt>
<totfact> 0.90116495E+02</totfact>
</mgrwt>
</event>
<event>
 8    1  0.3400573E-004  0.1073897E+03  0.7546771E-02  0.1273890E+00
         -3   -1    0    0    0  501 -0.00000000000E+00  0.00000000000E+00  0.26421777796E+03  0.26421777796E+03  0.00000000000E+00 0.  1.
          3   -1    0    0  501    0  0.00000000000E+00 -0.00000000000E+00 -0.39579095233E+02  0.39579095233E+02  0.00000000000E+00 0. -1.
         23    2    1    2    0    0 -0.31312486561E+02  0.52417727876E+00  0.84905380853E+02  0.13689952104E+03  0.10272199661E+03 0.  0.
         23    2    1    2    0    0  0.31312486561E+02 -0.52417727876E+00  0.13973330187E+03  0.16689735215E+03  0.85723881893E+02 0.  0.
          5    1    4    4  502    0  0.56254901488E+02  0.11085268379E+02  0.63344425495E+02  0.85569289806E+02  0.47000000000E+01 0. -1.
         -5    1    4    4    0  502 -0.24942414927E+02 -0.11609445658E+02  0.76388876380E+02  0.81328062349E+02  0.47000000000E+01 0.  1.
          5    1    3    3  503    0 -0.46526263962E+02  0.40804227105E+02  0.36734057993E+02  0.72119062698E+02  0.47000000000E+01 0. -1.
         -5    1    3    3    0  503  0.15213777401E+02 -0.40280049826E+02  0.48171322860E+02  0.64780458341E+02  0.47000000000E+01 0.  1.
<mgrwt>
<rscale>  0 0.10310942E+03</rscale>
<asrwt>0</asrwt>
<pdfrwt beam="1">  1        3 0.60890917E-02 0.10738973E+03</pdfrwt>
<pdfrwt beam="2">  1       -3 0.40648888E-01 0.10738973E+03</pdfrwt>
<totfact> 0.21954221E+03</totfact>
</mgrwt>
</event>
<event>
 8    1  0.3400573E-004  0.1190908E+03  0.7546771E-02  0.1244807E+00
          3   -1    0    0  501    0  0.00000000000E+00  0.00000000000E+00  0.19811133702E+03  0.19811133702E+03  0.00000000000E+00 0. -1.
         -3   -1    0    0    0  501 -0.00000000000E+00 -0.00000000000E+00 -0.83634585423E+02  0.83634585423E+02  0.00000000000E+00 0.  1.
         23    2    1    2    0    0 -0.49799282244E+01 -0.75678793623E+02  0.30357793059E+01  0.11864561625E+03  0.91189291090E+02 0.  0.
         23    2    1    2    0    0  0.49799282244E+01  0.75678793623E+02  0.11144097230E+03  0.16310030620E+03  0.91817972569E+02 0.  0.
          5    1    4    4  502    0  0.30469622615E+02  0.10636744162E+02  0.79915384928E+02  0.86313944278E+02  0.47000000000E+01 0. -1.
         -5    1    3    3    0  503 -0.25944419275E+02 -0.89337222720E+02  0.25886817468E+01  0.93182849967E+02  0.47000000000E+01 0.  1.
          5    1    3    3  503    0  0.20964491051E+02  0.13658429097E+02  0.44709755906E+00  0.25462766281E+02  0.47000000000E+01 0. -1.
         -5    1    4    4    0  502 -0.25489694390E+02  0.65042049461E+02  0.31525587368E+02  0.76786361921E+02  0.47000000000E+01 0.  1.
<mgrwt>
<rscale>  0 0.11896961E+03</rscale>
<asrwt>0</asrwt>
<pdfrwt beam="1">  1        3 0.30478667E-01 0.11909080E+03</pdfrwt>
<pdfrwt beam="2">  1       -3 0.12866859E-01 0.11909080E+03</pdfrwt>
<totfact> 0.11340945E+03</totfact>
</mgrwt>
</event>
<event>
 8    1  0.3400573E-004  0.1587218E+03  0.7546771E-02  0.1190575E+00
         -1   -1    0    0    0  501 -0.00000000000E+00  0.00000000000E+00  0.22254321432E+02  0.22254321432E+02  0.00000000000E+00 0.  1.
          1   -1    0    0  501    0  0.00000000000E+00 -0.00000000000E+00 -0.12439561728E+04  0.12439561728E+04  0.00000000000E+00 0. -1.
         23    2    1    2    0    0 -0.12986898230E+03 -0.13928520856E+01 -0.81216375933E+03  0.82752798666E+03  0.91239816592E+02 0.  0.
         23    2    1    2    0    0  0.12986898230E+03  0.13928520856E+01 -0.40953809203E+03  0.43868250757E+03  0.88617159853E+02 0.  0.
          5    1    3    3  502    0 -0.10782171105E+03 -0.19951807058E+02 -0.75881487139E+03  0.76671095924E+03  0.47000000000E+01 0. -1.
         -5    1    3    3    0  502 -0.22047271253E+02  0.18558954972E+02 -0.53348887943E+02  0.60817027419E+02  0.47000000000E+01 0.  1.
          5    1    4    4  503    0  0.67052963185E+02  0.44741091224E+02 -0.20713828929E+03  0.22232009807E+03  0.47000000000E+01 0. -1.
         -5    1    4    4    0  503  0.62816019119E+02 -0.43348239139E+02 -0.20239980274E+03  0.21636240950E+03  0.47000000000E+01 0.  1.
<mgrwt>
<rscale>  0 0.15834719E+03</rscale>
<asrwt>0</asrwt>
<pdfrwt beam="1">  1        1 0.19137791E+00 0.15872176E+03</pdfrwt>
<pdfrwt beam="2">  1       -1 0.34237411E-02 0.15872176E+03</pdfrwt>
<totfact> 0.32773566E+03</totfact>
</mgrwt>
</event>
<event>
 8    1  0.3400573E-004  0.9871248E+02  0.7546771E-02  0.1283652E+00
          1   -1    0    0  501    0  0.00000000000E+00  0.00000000000E+00  0.36919871214E+03  0.36919871214E+03  0.00000000000E+00 0. -1.
         -1   -1    0    0    0  501 -0.00000000000E+00 -0.00000000000E+00 -0.93199280716E+02  0.93199280716E+02  0.00000000000E+00 0.  1.
         23    2    1    2    0    0 -0.20670513249E+02 -0.29800224724E+02 -0.57968095115E+02  0.11447468860E+03  0.91808663899E+02 0.  0.
         23    2    1    2    0    0  0.20670513249E+02  0.29800224724E+02  0.33396752654E+03  0.34792330425E+03  0.90559336079E+02 0.  0.
          5    1    3    3  502    0 -0.46397690667E+02  0.59427964907E+01 -0.51474151143E+02  0.69711840926E+02  0.47000000000E+01 0. -1.
         -5    1    4    4    0  503 -0.27362107671E+02 -0.13960514798E+02  0.82643135975E+02  0.88292461929E+02  0.47000000000E+01 0.  1.
          5    1    4    4  503    0  0.48032620919E+02  0.43760739522E+02  0.25132439056E+03  0.25963084233E+03  0.47000000000E+01 0. -1.
         -5    1    3    3    0  502  0.25727177418E+02 -0.35743021215E+02 -0.64939439724E+01  0.44762847673E+02  0.47000000000E+01 0.  1.
<mgrwt>
<rscale>  0 0.98420976E+02</rscale>
<asrwt>0</asrwt>
<pdfrwt beam="1">  1        1 0.56799801E-01 0.98712483E+02</pdfrwt>
<pdfrwt beam="2">  1       -1 0.14338351E-01 0.98712483E+02</pdfrwt>
<totfact> 0.22400443E+03</totfact>
</mgrwt>
</event>
<event>
 8    1  0.3400573E-004  0.1161634E+03  0.7546771E-02  0.1249591E+00
         -2   -1    0    0    0  501 -0.00000000000E+00  0.00000000000E+00  0.55791967529E+03  0.55791967529E+03  0.00000000000E+00 0.  1.
          2   -1    0    0  501    0  0.00000000000E+00 -0.00000000000E+00 -0.44550820608E+02  0.44550820608E+02  0.00000000000E+00 0. -1.
         23    2    1    2    0    0  0.49251084111E+02  0.49685819124E+02  0.46045235476E+03  0.47487925026E+03  0.92733928053E+02 0.  0.
         23    2    1    2    0    0 -0.49251084111E+02 -0.49685819124E+02  0.52916499919E+02  0.12759124564E+03  0.92655383500E+02 0.  0.
          5    1    3    3  502    0  0.19964605289E+01  0.56620822077E+02  0.14412795023E+03  0.15493501665E+03  0.47000000000E+01 0. -1.
         -5    1    3    3    0  502  0.47254623582E+02 -0.69350029532E+01  0.31632440453E+03  0.31994423361E+03  0.47000000000E+01 0.  1.
          5    1    4    4  503    0 -0.52558014318E+02 -0.74015819334E+02  0.38358087804E+02  0.98661640371E+02  0.47000000000E+01 0. -1.
         -5    1    4    4    0  503  0.33069302067E+01  0.24330000209E+02  0.14558412115E+02  0.28929605267E+02  0.47000000000E+01 0.  1.
<mgrwt>
<rscale>  0 0.11614771E+03</rscale>
<asrwt>0</asrwt>
<pdfrwt beam="1">  1        2 0.68539728E-02 0.11616338E+03</pdfrwt>
<pdfrwt beam="2">  1       -2 0.85833791E-01 0.11616338E+03</pdfrwt>
<totfact> 0.12162967E+03</totfact>
</mgrwt>
</event>
<event>
 8    1  0.3400573E-004  0.1269723E+03  0.7546771E-02  0.1232469E+00
         -2   -1    0    0    0  501 -0.00000000000E+00  0.00000000000E+00  0.15603306663E+03  0.15603306663E+03  0.00000000000E+00 0.  1.
          2   -1    0    0  501    0  0.00000000000E+00 -0.00000000000E+00 -0.10567171242E+03  0.10567171242E+03  0.00000000000E+00 0. -1.
         23    2    1    2    0    0 -0.74743812863E+02  0.35930653746E+02  0.48187084303E+02  0.13471387611E+03  0.94594840676E+02 0.  0.
         23    2    1    2    0    0  0.74743812863E+02 -0.35930653746E+02  0.21742699126E+01  0.12699090294E+03  0.96147348071E+02 0.  0.
          5    1    4    4  502    0  0.19174698197E+02 -0.25396569279E+02  0.45406812046E+02  0.55646413741E+02  0.47000000000E+01 0.  1.
         -5    1    3    3    0  503 -0.62821002060E+02  0.67136982387E+02  0.35427660709E+02  0.98646144614E+02  0.47000000000E+01 0.  1.
          5    1    3    3  503    0 -0.11922810803E+02 -0.31206328641E+02  0.12759423594E+02  0.36067731494E+02  0.47000000000E+01 0. -1.
         -5    1    4    4    0  502  0.55569114666E+02 -0.10534084467E+02 -0.43232542134E+02  0.71344489203E+02  0.47000000000E+01 0. -1.
<mgrwt>
<rscale>  0 0.12667839E+03</rscale>
<asrwt>0</asrwt>
<pdfrwt beam="1">  1        2 0.16257186E-01 0.12697229E+03</pdfrwt>
<pdfrwt beam="2">  1       -2 0.24005087E-01 0.12697229E+03</pdfrwt>
<totfact> 0.51285187E+03</totfact>
</mgrwt>
</event>
<event>
 8    1  0.3400573E-004  0.1006647E+03  0.7546771E-02  0.1279704E+00
          3   -1    0    0  501    0  0.00000000000E+00  0.00000000000E+00  0.53758713240E+03  0.53758713240E+03  0.00000000000E+00 0. -1.
         -3   -1    0    0    0  501 -0.00000000000E+00 -0.00000000000E+00 -0.20018072097E+02  0.20018072097E+02  0.00000000000E+00 0.  1.
         23    2    1    2    0    0  0.41734362926E+02  0.95764591184E+01  0.33204887102E+03  0.34653385995E+03  0.89419224619E+02 0.  0.
         23    2    1    2    0    0 -0.41734362926E+02 -0.95764591184E+01  0.18552018929E+03  0.21107134454E+03  0.91103821200E+02 0.  0.
          5    1    3    3  502    0  0.55545604927E+02 -0.20655717466E+02  0.26456955289E+03  0.27116620587E+03  0.47000000000E+01 0. -1.
         -5    1    4    4    0  503 -0.54283844544E+02  0.94105022414E+01  0.17838929724E+03  0.18676221433E+03  0.47000000000E+01 0.  1.
          5    1    4    4  503    0  0.12549481618E+02 -0.18986961360E+02  0.71308920469E+01  0.24309130218E+02  0.47000000000E+01 0. -1.
         -5    1    3    3    0  502 -0.13811242000E+02  0.30232176585E+02  0.67479318131E+02  0.75367654084E+02  0.47000000000E+01 0.  1.
<mgrwt>
<rscale>  0 0.10028197E+03</rscale>
<asrwt>0</asrwt>
<pdfrwt beam="1">  1        3 0.82705702E-01 0.10066465E+03</pdfrwt>
<pdfrwt beam="2">  1       -3 0.30797038E-02 0.10066465E+03</pdfrwt>
<totfact> 0.14803564E+03</totfact>
</mgrwt>
</event>
<event>
 8    1  0.3400573E-004  0.9245215E+02  0.7546771E-02  0.1300131E+00
         -1   -1    0    0    0  501 -0.00000000000E+00  0.00000000000E+00  0.89460231018E+02  0.89460231018E+02  0.00000000000E+00 0.  1.
          1   -1    0    0  501    0  0.00000000000E+00 -0.00000000000E+00 -0.13536408379E+03  0.13536408379E+03  0.00000000000E+00 0. -1.
         23    2    1    2    0    0  0.13808823419E+02 -0.67666833625E+01  0.41463412490E+02  0.10132430792E+03  0.91164297793E+02 0.  0.
         23    2    1    2    0    0 -0.13808823419E+02  0.67666833625E+01 -0.87367265258E+02  0.12350000688E+03  0.85922878524E+02 0.  0.
          5    1    4    4  502    0 -0.37113525683E+02 -0.14056683271E+02 -0.82303460075E+02  0.91492915975E+02  0.47000000000E+01 0. -1.
         -5    1    3    3    0  503  0.49078953434E+02  0.13306903664E+02  0.28396948206E+02  0.58431960627E+02  0.47000000000E+01 0.  1.
          5    1    3    3  503    0 -0.35270130015E+02 -0.20073587026E+02  0.13066464284E+02  0.42892347292E+02  0.47000000000E+01 0. -1.
         -5    1    4    4    0  502  0.23304702263E+02  0.20823366634E+02 -0.50638051824E+01  0.32007090909E+02  0.47000000000E+01 0.  1.
<mgrwt>
<rscale>  0 0.91133183E+02</rscale>
<asrwt>0</asrwt>
<pdfrwt beam="1">  1        1 0.20825244E-01 0.92452154E+02</pdfrwt>
<pdfrwt beam="2">  1       -1 0.13763112E-01 0.92452154E+02</pdfrwt>
<totfact> 0.81766636E+03</totfact>
</mgrwt>
</event>
<event>
 8    1  0.3400573E-004  0.1322899E+03  0.7546771E-02  0.1224259E+00
         -2   -1    0    0    0  501 -0.00000000000E+00  0.00000000000E+00  0.24811985414E+02  0.24811985414E+02  0.00000000000E+00 0.  1.
          2   -1    0    0  501    0  0.00000000000E+00 -0.00000000000E+00 -0.89253289495E+03  0.89253289495E+03  0.00000000000E+00 0. -1.
         23    2    1    2    0    0 -0.50444178367E+02  0.80729682067E+02 -0.64467620126E+03  0.65801967407E+03  0.91217269720E+02 0.  0.
         23    2    1    2    0    0  0.50444178367E+02 -0.80729682067E+02 -0.22304470828E+03  0.25932520629E+03  0.91862527896E+02 0.  0.
          5    1    3    3  502    0 -0.72144279335E+01 -0.19960103712E+02 -0.12772647442E+03  0.12956309651E+03  0.47000000000E+01 0. -1.
         -5    1    4    4    0  503  0.57017669373E+02 -0.11561582451E+02 -0.69718236107E+02  0.90925283917E+02  0.47000000000E+01 0.  1.
          5    1    4    4  503    0 -0.65734910058E+01 -0.69168099616E+02 -0.15332647217E+03  0.16839992238E+03  0.47000000000E+01 0. -1.
         -5    1    3    3    0  502 -0.43229750434E+02  0.10068978578E+03 -0.51694972685E+03  0.52845657756E+03  0.47000000000E+01 0.  1.
<mgrwt>
<rscale>  0 0.13217796E+03</rscale>
<asrwt>0</asrwt>
<pdfrwt beam="1">  1        2 0.13731274E+00 0.13228991E+03</pdfrwt>
<pdfrwt beam="2">  1       -2 0.38172290E-02 0.13228991E+03</pdfrwt>
<totfact> 0.87273096E+03</totfact>
</mgrwt>
</event>
<event>
 8    1  0.3400573E-004  0.1281077E+03  0.7546771E-02  0.1230788E+00
          1   -1    0    0  501    0  0.00000000000E+00  0.00000000000E+00  0.64118556112E+03  0.64118556112E+03  0.00000000000E+00 0. -1.
         -1   -1    0    0    0  501 -0.00000000000E+00 -0.00000000000E+00 -0.38741543520E+02  0.38741543520E+02  0.00000000000E+00 0.  1.
         23    2    1    2    0    0 -0.83331555973E+02 -0.26508952297E+02  0.50019670371E+03  0.51601832554E+03  0.91822094952E+02 0.  0.
         23    2    1    2    0    0  0.83331555973E+02  0.26508952297E+02  0.10224731389E+03  0.16390877910E+03  0.93619986623E+02 0.  0.
          5    1    4    4  502    0  0.44494449549E+02  0.31899607342E+02  0.11064245109E+03  0.12353616059E+03  0.47000000000E+01 0. -1.
         -5    1    3    3    0  503 -0.54724499154E+02  0.30277191784E+02  0.26646293819E+03  0.27374452795E+03  0.47000000000E+01 0.  1.
          5    1    3    3  503    0 -0.28607056818E+02 -0.56786144080E+02  0.23373376552E+03  0.24227379760E+03  0.47000000000E+01 0. -1.
         -5    1    4    4    0  502  0.38837106424E+02 -0.53906550453E+01 -0.83951371965E+01  0.40372618515E+02  0.47000000000E+01 0.  1.
<mgrwt>
<rscale>  0 0.12777942E+03</rscale>
<asrwt>0</asrwt>
<pdfrwt beam="1">  1        1 0.98643925E-01 0.12810767E+03</pdfrwt>
<pdfrwt beam="2">  1       -1 0.59602379E-02 0.12810767E+03</pdfrwt>
<totfact> 0.41854674E+03</totfact>
</mgrwt>
</event>
<event>
 8    1  0.3400573E-004  0.9989878E+02  0.7546771E-02  0.1280730E+00
          2   -1    0    0  501    0  0.00000000000E+00  0.00000000000E+00  0.51497143361E+02  0.51497143361E+02  0.00000000000E+00 0. -1.
         -2   -1    0    0    0  501 -0.00000000000E+00 -0.00000000000E+00 -0.22480666194E+03  0.22480666194E+03  0.00000000000E+00 0.  1.
         23    2    1    2    0    0  0.36952299102E+02 -0.20010209714E+02 -0.13847953774E+03  0.17050733209E+03  0.90168104235E+02 0.  0.
         23    2    1    2    0    0 -0.36952299102E+02  0.20010209714E+02 -0.34829980837E+02  0.10579647321E+03  0.90630487569E+02 0.  0.
          5    1    3    3  502    0  0.31246267989E+02  0.17622220423E+02 -0.11654485582E+02  0.38010379505E+02  0.47000000000E+01 0. -1.
         -5    1    4    4    0  503  0.19630448199E+02 -0.21174380493E+02 -0.15160188849E+02  0.32948903042E+02  0.47000000000E+01 0.  1.
          5    1    4    4  503    0 -0.56582747301E+02  0.41184590206E+02 -0.19669791988E+02  0.72847570169E+02  0.47000000000E+01 0. -1.
         -5    1    3    3    0  502  0.57060311127E+01 -0.37632430137E+02 -0.12682505216E+03  0.13249695258E+03  0.47000000000E+01 0.  1.
<mgrwt>
<rscale>  0 0.99793791E+02</rscale>
<asrwt>0</asrwt>
<pdfrwt beam="1">  1        2 0.79226373E-02 0.99898780E+02</pdfrwt>
<pdfrwt beam="2">  1       -2 0.34585641E-01 0.99898780E+02</pdfrwt>
<totfact> 0.62380328E+03</totfact>
</mgrwt>
</event>
<event>
 7    1  0.3400573E-004  0.1468042E+03  0.7546771E-02  0.1215545E+00
         -1   -1    0    0    0  501 -0.00000000000E+00  0.00000000000E+00  0.39696451106E+02  0.39696451106E+02  0.00000000000E+00 0.  1.
          1   -1    0    0  501    0  0.00000000000E+00 -0.00000000000E+00 -0.47073280510E+03  0.47073280510E+03  0.00000000000E+00 0. -1.
         23    2    1    2    0    0 -0.41578372607E+02  0.58157180597E+02 -0.26245419811E+03  0.28688640523E+03  0.91162408269E+02 0.  0.
          5    1    1    2  502    0 -0.26159051787E+02  0.26970560165E+02 -0.41023201186E+02  0.55827413890E+02  0.47000000000E+01 0. -1.
         -5    1    1    2    0  502  0.67737424394E+02 -0.85127740762E+02 -0.12755895470E+03  0.16771543708E+03  0.47000000000E+01 0.  1.
          5    1    3    3  503    0 -0.63513108612E+02  0.60422932832E+02 -0.23774899643E+03  0.25343938344E+03  0.47000000000E+01 0. -1.
         -5    1    3    3    0  503  0.21934736005E+02 -0.22657522346E+01 -0.24705201679E+02  0.33447021792E+02  0.47000000000E+01 0.  1.
<mgrwt>
<rscale>  0 0.13836598E+03</rscale>
<asrwt>0</asrwt>
<pdfrwt beam="1">  1        1 0.72420430E-01 0.14680417E+03</pdfrwt>
<pdfrwt beam="2">  1       -1 0.61071465E-02 0.14680417E+03</pdfrwt>
<totfact> 0.61376548E+03</totfact>
</mgrwt>
</event>
<event>
 8    1  0.3400573E-004  0.1240767E+03  0.7546771E-02  0.1238278E+00
         -2   -1    0    0    0  501 -0.00000000000E+00  0.00000000000E+00  0.93508044624E+02  0.93508044624E+02  0.00000000000E+00 0.  1.
          2   -1    0    0  501    0  0.00000000000E+00 -0.00000000000E+00 -0.21128431529E+03  0.21128431529E+03  0.00000000000E+00 0. -1.
         23    2    1    2    0    0 -0.52928493796E+02  0.64183188802E+02  0.17787879843E+02  0.12101893467E+03  0.86071288473E+02 0.  0.
         23    2    1    2    0    0  0.52928493796E+02 -0.64183188802E+02 -0.13556415051E+03  0.18377342525E+03  0.92055014759E+02 0.  0.
          5    1    3    3  502    0 -0.17763322680E+02  0.14452867093E+02 -0.33776328492E+02  0.41077382660E+02  0.47000000000E+01 0. -1.
         -5    1    3    3    0  502 -0.35165171117E+02  0.49730321709E+02  0.51564208334E+02  0.79941552012E+02  0.47000000000E+01 0.  1.
          5    1    4    4  503    0  0.22510129649E+02 -0.66951898611E+02 -0.13549097251E+03  0.15286973637E+03  0.47000000000E+01 0. -1.
         -5    1    4    4    0  503  0.30418364147E+02  0.27687098091E+01 -0.73178000739E-01  0.30903688880E+02  0.47000000000E+01 0.  1.
<mgrwt>
<rscale>  0 0.12296893E+03</rscale>
<asrwt>0</asrwt>
<pdfrwt beam="1">  1        2 0.32505279E-01 0.12407672E+03</pdfrwt>
<pdfrwt beam="2">  1       -2 0.14385853E-01 0.12407672E+03</pdfrwt>
<totfact> 0.55862702E+03</totfact>
</mgrwt>
</event>
<event>
 8    1  0.3400573E-004  0.1320683E+03  0.7546771E-02  0.1225370E+00
         -2   -1    0    0    0  501 -0.00000000000E+00  0.00000000000E+00  0.92661075150E+02  0.92661075150E+02  0.00000000000E+00 0.  1.
          2   -1    0    0  501    0  0.00000000000E+00 -0.00000000000E+00 -0.20979068141E+03  0.20979068141E+03  0.00000000000E+00 0. -1.
         23    2    1    2    0    0 -0.78817842157E+02  0.48403300369E+02 -0.11151797829E+03  0.17285335491E+03  0.94270308652E+02 0.  0.
         23    2    1    2    0    0  0.78817842157E+02 -0.48403300369E+02 -0.56116279687E+01  0.12959840165E+03  0.90604214100E+02 0.  0.
          5    1    3    3  502    0 -0.78194887090E+02  0.72399057637E+02 -0.98276991677E+02  0.14503972217E+03  0.47000000000E+01 0. -1.
         -5    1    4    4    0  503  0.91091333322E+02 -0.21499190052E+02 -0.20846768283E+02  0.96002728748E+02  0.47000000000E+01 0.  1.
          5    1    4    4  503    0 -0.12273491164E+02 -0.26904110317E+02  0.15235140315E+02  0.33595672902E+02  0.47000000000E+01 0. -1.
         -5    1    3    3    0  502 -0.62295506689E+00 -0.23995757268E+02 -0.13240986618E+02  0.27813632745E+02  0.47000000000E+01 0.  1.
<mgrwt>
<rscale>  0 0.13141558E+03</rscale>
<asrwt>0</asrwt>
<pdfrwt beam="1">  1        2 0.32275489E-01 0.13206825E+03</pdfrwt>
<pdfrwt beam="2">  1       -2 0.14255550E-01 0.13206825E+03</pdfrwt>
<totfact> 0.57364452E+03</totfact>
</mgrwt>
</event>
<event>
 8    1  0.3400573E-004  0.9222178E+02  0.7546771E-02  0.1297709E+00
         -2   -1    0    0    0  501 -0.00000000000E+00  0.00000000000E+00  0.99337099596E+02  0.99337099596E+02  0.00000000000E+00 0.  1.
          2   -1    0    0  501    0  0.00000000000E+00 -0.00000000000E+00 -0.86102070737E+02  0.86102070737E+02  0.00000000000E+00 0. -1.
         23    2    1    2    0    0 -0.41635436641E+01  0.16542639210E+01 -0.18689119513E+01  0.92240718704E+02  0.92112896329E+02 0.  0.
         23    2    1    2    0    0  0.41635436641E+01 -0.16542639210E+01  0.15103940811E+02  0.93198451629E+02  0.91857229836E+02 0.  0.
          5    1    3    3  502    0 -0.45893074193E+02  0.66760607876E+01  0.11265314987E+02  0.47955618736E+02  0.47000000000E+01 0. -1.
         -5    1    4    4    0  503  0.12964983961E+02 -0.22225453701E+02  0.47098668793E+02  0.53874262904E+02  0.47000000000E+01 0.  1.
          5    1    4    4  503    0 -0.88014402973E+01  0.20571189780E+02 -0.31994727982E+02  0.39324188726E+02  0.47000000000E+01 0. -1.
         -5    1    3    3    0  502  0.41729530529E+02 -0.50217968667E+01 -0.13134226938E+02  0.44285099969E+02  0.47000000000E+01 0.  1.
<mgrwt>
<rscale>  0 0.92157876E+02</rscale>
<asrwt>0</asrwt>
<pdfrwt beam="1">  1        2 0.13246472E-01 0.92221784E+02</pdfrwt>
<pdfrwt beam="2">  1       -2 0.15282631E-01 0.92221784E+02</pdfrwt>
<totfact> 0.13499490E+04</totfact>
</mgrwt>
</event>
<event>
 8    1  0.3400573E-004  0.9952572E+02  0.7546771E-02  0.1284522E+00
         -1   -1    0    0    0  501 -0.00000000000E+00  0.00000000000E+00  0.14447938759E+02  0.14447938759E+02  0.00000000000E+00 0.  1.
          1   -1    0    0  501    0  0.00000000000E+00 -0.00000000000E+00 -0.73148114828E+03  0.73148114828E+03  0.00000000000E+00 0. -1.
         23    2    1    2    0    0 -0.19581890926E+02 -0.69218636021E+01 -0.47662580607E+03  0.48573475906E+03  0.91294767098E+02 0.  0.
         23    2    1    2    0    0  0.19581890926E+02  0.69218636021E+01 -0.24040740345E+03  0.26019432798E+03  0.97334505856E+02 0.  0.
          5    1    4    4  502    0 -0.25725095985E+02 -0.30682534897E+02 -0.90720010384E+02  0.99274411583E+02  0.47000000000E+01 0. -1.
         -5    1    4    4    0  502  0.45306986911E+02  0.37604398499E+02 -0.14968739307E+03  0.16091991640E+03  0.47000000000E+01 0.  1.
          5    1    3    3  503    0 -0.44469825190E+02 -0.33126995470E+02 -0.32922024700E+03  0.33389073694E+03  0.47000000000E+01 0. -1.
         -5    1    3    3    0  503  0.24887934264E+02  0.26205131867E+02 -0.14740555906E+03  0.15184402211E+03  0.47000000000E+01 0.  1.
<mgrwt>
<rscale>  0 0.98017197E+02</rscale>
<asrwt>0</asrwt>
<pdfrwt beam="1">  1        1 0.11253553E+00 0.99525719E+02</pdfrwt>
<pdfrwt beam="2">  1       -1 0.22227604E-02 0.99525719E+02</pdfrwt>
<totfact> 0.14412142E+04</totfact>
</mgrwt>
</event>
<event>
 8    1  0.3400573E-004  0.9985047E+02  0.7546771E-02  0.1281874E+00
         -2   -1    0    0    0  501 -0.00000000000E+00  0.00000000000E+00  0.51182768226E+02  0.51182768226E+02  0.00000000000E+00 0.  1.
          2   -1    0    0  501    0  0.00000000000E+00 -0.00000000000E+00 -0.19192667317E+03  0.19192667317E+03  0.00000000000E+00 0. -1.
         23    2    1    2    0    0 -0.34034459531E+02  0.14340642606E+02 -0.58013204852E+02  0.11343876223E+03  0.90215422034E+02 0.  0.
         23    2    1    2    0    0  0.34034459531E+02 -0.14340642606E+02 -0.82730700097E+02  0.12967067917E+03  0.92769164233E+02 0.  0.
          5    1    4    4  502    0  0.42543110789E+02  0.27017180160E+02 -0.67861896293E+02  0.84659147574E+02  0.47000000000E+01 0. -1.
         -5    1    4    4    0  502 -0.85086512581E+01 -0.41357822767E+02 -0.14868803804E+02  0.45011531598E+02  0.47000000000E+01 0.  1.
          5    1    3    3  503    0 -0.28333198477E+01  0.20796438780E+02 -0.74298279594E+02  0.77348845615E+02  0.47000000000E+01 0. -1.
         -5    1    3    3    0  503 -0.31201139684E+02 -0.64557961739E+01  0.16285074742E+02  0.36089916613E+02  0.47000000000E+01 0.  1.
<mgrwt>
<rscale>  0 0.99253116E+02</rscale>
<asrwt>0</asrwt>
<pdfrwt beam="1">  1        2 0.29527180E-01 0.99850470E+02</pdfrwt>
<pdfrwt beam="2">  1       -2 0.78742720E-02 0.99850470E+02</pdfrwt>
<totfact> 0.15703099E+04</totfact>
</mgrwt>
</event>
<event>
 8    1  0.3400573E-004  0.1364968E+03  0.7546771E-02  0.1231172E+00
         -1   -1    0    0    0  501 -0.00000000000E+00  0.00000000000E+00  0.23825022625E+02  0.23825022625E+02  0.00000000000E+00 0.  1.
          1   -1    0    0  501    0  0.00000000000E+00 -0.00000000000E+00 -0.78405463948E+03  0.78405463948E+03  0.00000000000E+00 0. -1.
         23    2    1    2    0    0 -0.49864948560E+02 -0.26169032534E+02 -0.22923707437E+03  0.26679771031E+03  0.12433845183E+03 0.  0.
         23    2    1    2    0    0  0.49864948560E+02  0.26169032534E+02 -0.53099254249E+03  0.54108195180E+03  0.87437217591E+02 0.  0.
          5    1    3    3  502    0  0.33830044891E+02 -0.32450869150E+02 -0.12031120040E+03  0.12920683337E+03  0.47000000000E+01 0. -1.
         -5    1    4    4    0  503 -0.22347430590E+02  0.16617375660E+02 -0.98334064186E+02  0.10230944730E+03  0.47000000000E+01 0.  1.
          5    1    4    4  503    0  0.72212379150E+02  0.95516568742E+01 -0.43265847831E+03  0.43877250450E+03  0.47000000000E+01 0. -1.
         -5    1    3    3    0  502 -0.83694993450E+02  0.62818366158E+01 -0.10892587396E+03  0.13759087695E+03  0.47000000000E+01 0.  1.
<mgrwt>
<rscale>  0 0.12752732E+03</rscale>
<asrwt>0</asrwt>
<pdfrwt beam="1">  1        1 0.12062377E+00 0.13649682E+03</pdfrwt>
<pdfrwt beam="2">  1       -1 0.36653888E-02 0.13649682E+03</pdfrwt>
<totfact> 0.64427648E+03</totfact>
</mgrwt>
</event>
<event>
 8    1  0.3400573E-004  0.1194013E+03  0.7546771E-02  0.1244468E+00
         -2   -1    0    0    0  501 -0.00000000000E+00  0.00000000000E+00  0.49170557496E+02  0.49170557496E+02  0.00000000000E+00 0.  1.
          2   -1    0    0  501    0  0.00000000000E+00 -0.00000000000E+00 -0.36618901901E+03  0.36618901901E+03  0.00000000000E+00 0. -1.
         23    2    1    2    0    0 -0.59412117877E+02  0.45584369547E+02 -0.61902710270E+02  0.13368473704E+03  0.91825535010E+02 0.  0.
         23    2    1    2    0    0  0.59412117877E+02 -0.45584369547E+02 -0.25511575124E+03  0.28167483947E+03  0.92999646020E+02 0.  0.
          5    1    4    4  502    0  0.19081908262E+02 -0.62703826521E+02 -0.20330016750E+03  0.21365611901E+03  0.47000000000E+01 0. -1.
         -5    1    4    4    0  502  0.40330209616E+02  0.17119456974E+02 -0.51815583740E+02  0.68018720460E+02  0.47000000000E+01 0.  1.
          5    1    3    3  503    0 -0.11136650957E+02 -0.27775964395E+02 -0.12119101054E+02  0.32626550583E+02  0.47000000000E+01 0. -1.
         -5    1    3    3    0  503 -0.48275466921E+02  0.73360333942E+02 -0.49783609216E+02  0.10105818645E+03  0.47000000000E+01 0.  1.
<mgrwt>
<rscale>  0 0.11917258E+03</rscale>
<asrwt>0</asrwt>
<pdfrwt beam="1">  1        2 0.56336773E-01 0.11940129E+03</pdfrwt>
<pdfrwt beam="2">  1       -2 0.75647010E-02 0.11940129E+03</pdfrwt>
<totfact> 0.85552969E+03</totfact>
</mgrwt>
</event>
<event>
 8    1  0.3400573E-004  0.9467519E+02  0.7546771E-02  0.1294161E+00
         -2   -1    0    0    0  501 -0.00000000000E+00  0.00000000000E+00  0.18447494133E+03  0.18447494133E+03  0.00000000000E+00 0.  1.
          2   -1    0    0  501    0  0.00000000000E+00 -0.00000000000E+00 -0.24650157135E+03  0.24650157135E+03  0.00000000000E+00 0. -1.
         23    2    1    2    0    0 -0.80741178927E+01 -0.97824757319E+01  0.16290335635E+03  0.18841681284E+03  0.93821658696E+02 0.  0.
         23    2    1    2    0    0  0.80741178927E+01  0.97824757319E+01 -0.22492998636E+03  0.24255969984E+03  0.89893386916E+02 0.  0.
          5    1    4    4  502    0  0.34385184003E+02  0.27218867731E+02 -0.19081263243E+03  0.19584370895E+03  0.47000000000E+01 0. -1.
         -5    1    4    4    0  502 -0.26311066110E+02 -0.17436391999E+02 -0.34117353927E+02  0.46715990890E+02  0.47000000000E+01 0.  1.
          5    1    3    3  503    0  0.82873004502E+01 -0.28460765466E+02  0.74516595330E+01  0.30924290605E+02  0.47000000000E+01 0. -1.
         -5    1    3    3    0  503 -0.16361418343E+02  0.18678289734E+02  0.15545169681E+03  0.15749252223E+03  0.47000000000E+01 0.  1.
<mgrwt>
<rscale>  0 0.93686994E+02</rscale>
<asrwt>0</asrwt>
<pdfrwt beam="1">  1        2 0.37923319E-01 0.94675191E+02</pdfrwt>
<pdfrwt beam="2">  1       -2 0.28380760E-01 0.94675191E+02</pdfrwt>
<totfact> 0.14843510E+03</totfact>
</mgrwt>
</event>
<event>
 8    1  0.3400573E-004  0.1309930E+03  0.7546771E-02  0.1227873E+00
          1   -1    0    0  501    0  0.00000000000E+00  0.00000000000E+00  0.57155351407E+03  0.57155351407E+03  0.00000000000E+00 0. -1.
         -1   -1    0    0    0  501 -0.00000000000E+00 -0.00000000000E+00 -0.31669197907E+02  0.31669197907E+02  0.00000000000E+00 0.  1.
         23    2    1    2    0    0 -0.87737486132E+01 -0.94690717418E+02  0.35458860565E+03  0.37630055030E+03  0.82617881052E+02 0.  0.
         23    2    1    2    0    0  0.87737486132E+01  0.94690717418E+02  0.18529571051E+03  0.22692216167E+03  0.90088048570E+02 0.  0.
          5    1    4    4  502    0  0.35967849946E+02  0.83148363435E+02  0.17142635719E+03  0.19394953599E+03  0.47000000000E+01 0.  1.
         -5    1    3    3    0  503 -0.44523862822E+02 -0.52617087176E+02  0.16778354573E+03  0.18145065567E+03  0.47000000000E+01 0.  1.
          5    1    3    3  503    0  0.35750114209E+02 -0.42073630242E+02  0.18680505992E+03  0.19484989464E+03  0.47000000000E+01 0. -1.
         -5    1    4    4    0  502 -0.27194101333E+02  0.11542353983E+02  0.13869353315E+02  0.32972625678E+02  0.47000000000E+01 0. -1.
<mgrwt>
<rscale>  0 0.12971938E+03</rscale>
<asrwt>0</asrwt>
<pdfrwt beam="1">  1        1 0.87931302E-01 0.13099300E+03</pdfrwt>
<pdfrwt beam="2">  1       -1 0.48721847E-02 0.13099300E+03</pdfrwt>
<totfact> 0.66066412E+03</totfact>
</mgrwt>
</event>
<event>
 8    1  0.3400573E-004  0.1794682E+03  0.7546771E-02  0.1169956E+00
         -2   -1    0    0    0  501 -0.00000000000E+00  0.00000000000E+00  0.37701309257E+03  0.37701309257E+03  0.00000000000E+00 0.  1.
          2   -1    0    0  501    0  0.00000000000E+00 -0.00000000000E+00 -0.12307601625E+03  0.12307601625E+03  0.00000000000E+00 0. -1.
         23    2    1    2    0    0 -0.80590315920E+02 -0.12188638000E+03 -0.15318433000E+02  0.18012073138E+03  0.10420045506E+03 0.  0.
         23    2    1    2    0    0  0.80590315920E+02  0.12188638000E+03  0.26925550932E+03  0.31996837744E+03  0.92358781996E+02 0.  0.
          5    1    3    3  502    0 -0.20488254763E+02 -0.10190902293E+03 -0.40695032696E+02  0.11172910643E+03  0.47000000000E+01 0. -1.
         -5    1    3    3    0  502 -0.60102061157E+02 -0.19977357068E+02  0.25376599697E+02  0.68391624947E+02  0.47000000000E+01 0.  1.
          5    1    4    4  503    0 -0.14927814432E+00  0.48741719012E+02  0.31031503184E+02  0.57972593922E+02  0.47000000000E+01 0. -1.
         -5    1    4    4    0  503  0.80739594065E+02  0.73144660989E+02  0.23822400614E+03  0.26199578352E+03  0.47000000000E+01 0.  1.
<mgrwt>
<rscale>  0 0.17779330E+03</rscale>
<asrwt>0</asrwt>
<pdfrwt beam="1">  1        2 0.18934772E-01 0.17946817E+03</pdfrwt>
<pdfrwt beam="2">  1       -2 0.58002014E-01 0.17946817E+03</pdfrwt>
<totfact> 0.83307757E+02</totfact>
</mgrwt>
</event>
<event>
 8    1  0.3400573E-004  0.1243073E+03  0.7546771E-02  0.1241075E+00
          1   -1    0    0  501    0  0.00000000000E+00  0.00000000000E+00  0.42240246426E+02  0.42240246426E+02  0.00000000000E+00 0. -1.
         -1   -1    0    0    0  501 -0.00000000000E+00 -0.00000000000E+00 -0.33271046380E+03  0.33271046380E+03  0.00000000000E+00 0.  1.
         23    2    1    2    0    0 -0.57861281337E+02  0.32599358127E+02 -0.12816858254E+03  0.17051457245E+03  0.90760056418E+02 0.  0.
         23    2    1    2    0    0  0.57861281337E+02 -0.32599358127E+02 -0.16230163484E+03  0.20443613777E+03  0.10507934016E+03 0.  0.
          5    1    4    4  502    0  0.16200786215E+01  0.34970481433E+02 -0.35597009109E+02  0.50147744554E+02  0.47000000000E+01 0. -1.
         -5    1    4    4    0  502  0.56241202715E+02 -0.67569839560E+02 -0.12670462573E+03  0.15428839322E+03  0.47000000000E+01 0.  1.
          5    1    3    3  503    0  0.20019635643E+02  0.18431385677E+02 -0.12593967125E+02  0.30351273403E+02  0.47000000000E+01 0. -1.
         -5    1    3    3    0  503 -0.77880916979E+02  0.14167972450E+02 -0.11557461541E+03  0.14016329905E+03  0.47000000000E+01 0.  1.
<mgrwt>
<rscale>  0 0.12123428E+03</rscale>
<asrwt>0</asrwt>
<pdfrwt beam="1">  1        1 0.64984995E-02 0.12430734E+03</pdfrwt>
<pdfrwt beam="2">  1       -1 0.51186225E-01 0.12430734E+03</pdfrwt>
<totfact> 0.43283372E+03</totfact>
</mgrwt>
</event>
<event>
 8    1  0.3400573E-004  0.1048803E+03  0.7546771E-02  0.1271086E+00
          1   -1    0    0  501    0  0.00000000000E+00  0.00000000000E+00  0.11543610863E+03  0.11543610863E+03  0.00000000000E+00 0. -1.
         -1   -1    0    0    0  501 -0.00000000000E+00 -0.00000000000E+00 -0.14688503175E+03  0.14688503175E+03  0.00000000000E+00 0.  1.
         23    2    1    2    0    0 -0.50389728627E+02 -0.59829409111E+01  0.63076649267E+02  0.12112995399E+03  0.90104837482E+02 0.  0.
         23    2    1    2    0    0  0.50389728627E+02  0.59829409111E+01 -0.94525572381E+02  0.14119118639E+03  0.91787509763E+02 0.  0.
          5    1    3    3  502    0 -0.31238403402E+02 -0.36572122102E+02  0.22824312052E-01  0.48326478075E+02  0.47000000000E+01 0. -1.
         -5    1    3    3    0  502 -0.19151325224E+02  0.30589181191E+02  0.63053824954E+02  0.72803475914E+02  0.47000000000E+01 0.  1.
          5    1    4    4  503    0  0.11720318134E+02 -0.29588084816E+02  0.87011383210E+00  0.32181791720E+02  0.47000000000E+01 0. -1.
         -5    1    4    4    0  503  0.38669410493E+02  0.35571025727E+02 -0.95395686213E+02  0.10900939467E+03  0.47000000000E+01 0.  1.
<mgrwt>
<rscale>  0 0.10451095E+03</rscale>
<asrwt>0</asrwt>
<pdfrwt beam="1">  1        1 0.17759401E-01 0.10488025E+03</pdfrwt>
<pdfrwt beam="2">  1       -1 0.22597697E-01 0.10488025E+03</pdfrwt>
<totfact> 0.46218066E+03</totfact>
</mgrwt>
</event>
<event>
 8    1  0.3400573E-004  0.2180049E+03  0.7546771E-02  0.1135423E+00
         -1   -1    0    0    0  501 -0.00000000000E+00  0.00000000000E+00  0.21640210524E+02  0.21640210524E+02  0.00000000000E+00 0.  1.
          1   -1    0    0  501    0  0.00000000000E+00 -0.00000000000E+00 -0.22928022760E+04  0.22928022760E+04  0.00000000000E+00 0. -1.
         23    2    1    2    0    0 -0.19550486519E+03  0.35983428030E+02 -0.13754128659E+04  0.13925462090E+04  0.88923748842E+02 0.  0.
         23    2    1    2    0    0  0.19550486519E+03 -0.35983428030E+02 -0.89574919961E+03  0.92189627756E+03  0.89493902399E+02 0.  0.
          5    1    4    4  502    0  0.18502831085E+02  0.21826021765E+02 -0.78351223839E+02  0.83544803915E+02  0.47000000000E+01 0. -1.
         -5    1    3    3    0  503 -0.94724302779E+01  0.25291948724E+02 -0.10445030525E+03  0.10798780428E+03  0.47000000000E+01 0.  1.
          5    1    3    3  503    0 -0.18603243492E+03  0.10691479306E+02 -0.12709625606E+04  0.12845584047E+04  0.47000000000E+01 0. -1.
         -5    1    4    4    0  502  0.17700203411E+03 -0.57809449795E+02 -0.81739797578E+03  0.83835147365E+03  0.47000000000E+01 0.  1.
<mgrwt>
<rscale>  0 0.21794648E+03</rscale>
<asrwt>0</asrwt>
<pdfrwt beam="1">  1        1 0.35273911E+00 0.21800486E+03</pdfrwt>
<pdfrwt beam="2">  1       -1 0.33292604E-02 0.21800486E+03</pdfrwt>
<totfact> 0.70745524E+02</totfact>
</mgrwt>
</event>
<event>
 8    1  0.3400573E-004  0.1307807E+03  0.7546771E-02  0.1226727E+00
          1   -1    0    0  501    0  0.00000000000E+00  0.00000000000E+00  0.30317850594E+03  0.30317850594E+03  0.00000000000E+00 0. -1.
         -1   -1    0    0    0  501 -0.00000000000E+00 -0.00000000000E+00 -0.57763585926E+02  0.57763585926E+02  0.00000000000E+00 0.  1.
         23    2    1    2    0    0  0.43498949058E+02 -0.81775247627E+02  0.89935361438E+02  0.15777350735E+03  0.90690466376E+02 0.  0.
         23    2    1    2    0    0 -0.43498949058E+02  0.81775247627E+02  0.15547955857E+03  0.20316858451E+03  0.92326761582E+02 0.  0.
          5    1    3    3  502    0  0.37019434117E+02 -0.13851177990E+01  0.62826905692E+00  0.37347580587E+02  0.47000000000E+01 0. -1.
         -5    1    4    4    0  503 -0.30361879206E+02  0.49750405250E+02  0.17792939730E+02  0.61119761417E+02  0.47000000000E+01 0.  1.
          5    1    4    4  503    0 -0.13137069852E+02  0.32024842378E+02  0.13768661884E+03  0.14204882309E+03  0.47000000000E+01 0. -1.
         -5    1    3    3    0  502  0.64795149411E+01 -0.80390129828E+02  0.89307092381E+02  0.12042592677E+03  0.47000000000E+01 0.  1.
<mgrwt>
<rscale>  0 0.13049221E+03</rscale>
<asrwt>0</asrwt>
<pdfrwt beam="1">  1        1 0.46642846E-01 0.13078066E+03</pdfrwt>
<pdfrwt beam="2">  1       -1 0.88867056E-02 0.13078066E+03</pdfrwt>
<totfact> 0.60324543E+03</totfact>
</mgrwt>
</event>
<event>
 8    1  0.3400573E-004  0.1087706E+03  0.7546771E-02  0.1263068E+00
          3   -1    0    0  501    0  0.00000000000E+00  0.00000000000E+00  0.51522684823E+03  0.51522684823E+03  0.00000000000E+00 0. -1.
         -3   -1    0    0    0  501 -0.00000000000E+00 -0.00000000000E+00 -0.29108803704E+02  0.29108803704E+02  0.00000000000E+00 0.  1.
         23    2    1    2    0    0 -0.58443354833E+02 -0.55204832406E+01  0.36942693500E+03  0.38510686006E+03  0.91569273815E+02 0.  0.
         23    2    1    2    0    0  0.58443354833E+02  0.55204832406E+01  0.11669110953E+03  0.15922879187E+03  0.91054333549E+02 0.  0.
          5    1    3    3  502    0 -0.62262492067E+02 -0.26527815829E+02  0.34779915300E+03  0.35435389621E+03  0.47000000000E+01 0. -1.
         -5    1    4    4    0  503  0.66476598966E+02  0.36155094857E+02  0.88826314323E+02  0.11678413082E+03  0.47000000000E+01 0.  1.
          5    1    4    4  503    0 -0.80332441333E+01 -0.30634611616E+02  0.27864795207E+02  0.42444661055E+02  0.47000000000E+01 0. -1.
         -5    1    3    3    0  502  0.38191372340E+01  0.21007332588E+02  0.21627781996E+02  0.30752963853E+02  0.47000000000E+01 0.  1.
<mgrwt>
<rscale>  0 0.10866210E+03</rscale>
<asrwt>0</asrwt>
<pdfrwt beam="1">  1        3 0.79265662E-01 0.10877055E+03</pdfrwt>
<pdfrwt beam="2">  1       -3 0.44782779E-02 0.10877055E+03</pdfrwt>
<totfact> 0.92091991E+02</totfact>
</mgrwt>
</event>
<event>
 8    1  0.3400573E-004  0.1016272E+03  0.7546771E-02  0.1278046E+00
         -1   -1    0    0    0  501 -0.00000000000E+00  0.00000000000E+00  0.13077520134E+03  0.13077520134E+03  0.00000000000E+00 0.  1.
          1   -1    0    0  501    0  0.00000000000E+00 -0.00000000000E+00 -0.67252695472E+03  0.67252695472E+03  0.00000000000E+00 0. -1.
         23    2    1    2    0    0  0.32342991025E+02 -0.31223730885E+02  0.10732631529E+03  0.14631628967E+03  0.88704724953E+02 0.  0.
         23    2    1    2    0    0 -0.32342991025E+02  0.31223730885E+02 -0.64907806867E+03  0.65698586639E+03  0.91143288101E+02 0.  0.
          5    1    3    3  502    0  0.34450540943E+02  0.10779239442E+02  0.65114203240E+01  0.36979999579E+02  0.47000000000E+01 0. -1.
         -5    1    3    3    0  502 -0.21075499175E+01 -0.42002970327E+02  0.10081489497E+03  0.10933629009E+03  0.47000000000E+01 0.  1.
          5    1    4    4  503    0 -0.15609695704E+02  0.62290799212E+02 -0.47136302196E+03  0.47574046994E+03  0.47000000000E+01 0. -1.
         -5    1    4    4    0  503 -0.16733295322E+02 -0.31067068327E+02 -0.17771504671E+03  0.18124539645E+03  0.47000000000E+01 0.  1.
<mgrwt>
<rscale>  0 0.10107748E+03</rscale>
<asrwt>0</asrwt>
<pdfrwt beam="1">  1        1 0.10346568E+00 0.10162721E+03</pdfrwt>
<pdfrwt beam="2">  1       -1 0.20119262E-01 0.10162721E+03</pdfrwt>
<totfact> 0.60475638E+02</totfact>
</mgrwt>
</event>
<event>
 8    1  0.3400573E-004  0.1099270E+03  0.7546771E-02  0.1263954E+00
         -1   -1    0    0    0  501 -0.00000000000E+00  0.00000000000E+00  0.18762024580E+03  0.18762024580E+03  0.00000000000E+00 0.  1.
          1   -1    0    0  501    0  0.00000000000E+00 -0.00000000000E+00 -0.82061084218E+02  0.82061084218E+02  0.00000000000E+00 0. -1.
         23    2    1    2    0    0 -0.47363899206E+02  0.40776573682E+01  0.12063696114E+03  0.15872508740E+03  0.91544583355E+02 0.  0.
         23    2    1    2    0    0  0.47363899206E+02 -0.40776573682E+01 -0.15077799552E+02  0.11095624262E+03  0.99116000215E+02 0.  0.
          5    1    3    3  502    0  0.48000692500E+01 -0.32301112313E+02  0.17189967104E+02  0.37201982346E+02  0.47000000000E+01 0. -1.
         -5    1    4    4    0  503  0.28109692046E+02 -0.16349525140E+02  0.39635892765E+02  0.51483548387E+02  0.47000000000E+01 0.  1.
          5    1    4    4  503    0  0.19254207160E+02  0.12271867771E+02 -0.54713692317E+02  0.59472694230E+02  0.47000000000E+01 0. -1.
         -5    1    3    3    0  502 -0.52163968456E+02  0.36378769681E+02  0.10344699403E+03  0.12152310506E+03  0.47000000000E+01 0.  1.
<mgrwt>
<rscale>  0 0.10819270E+03</rscale>
<asrwt>0</asrwt>
<pdfrwt beam="1">  1        1 0.12624782E-01 0.10992701E+03</pdfrwt>
<pdfrwt beam="2">  1       -1 0.28864653E-01 0.10992701E+03</pdfrwt>
<totfact> 0.48163092E+03</totfact>
</mgrwt>
</event>
<event>
 8    1  0.3400573E-004  0.9335188E+02  0.7546771E-02  0.1296809E+00
         -1   -1    0    0    0  501 -0.00000000000E+00  0.00000000000E+00  0.14925595684E+03  0.14925595684E+03  0.00000000000E+00 0.  1.
          1   -1    0    0  501    0  0.00000000000E+00 -0.00000000000E+00 -0.70218635098E+02  0.70218635098E+02  0.00000000000E+00 0. -1.
         23    2    1    2    0    0 -0.11465203267E+02  0.70906869956E+01 -0.97014697197E+01  0.90675732895E+02  0.89141692228E+02 0.  0.
         23    2    1    2    0    0  0.11465203267E+02 -0.70906869956E+01  0.88738791464E+02  0.12879885904E+03  0.92373395806E+02 0.  0.
          5    1    4    4  502    0  0.30143178240E+02 -0.40922505618E+02  0.66943044905E+02  0.84182681839E+02  0.47000000000E+01 0. -1.
         -5    1    4    4    0  502 -0.18677974973E+02  0.33831818622E+02  0.21795746559E+02  0.44616177206E+02  0.47000000000E+01 0.  1.
          5    1    3    3  503    0 -0.26799041674E+02 -0.35397287443E+02 -0.27252285830E+01  0.44728888470E+02  0.47000000000E+01 0. -1.
         -5    1    3    3    0  503  0.15333838407E+02  0.42487974439E+02 -0.69762411367E+01  0.45946844425E+02  0.47000000000E+01 0.  1.
<mgrwt>
<rscale>  0 0.92542250E+02</rscale>
<asrwt>0</asrwt>
<pdfrwt beam="1">  1        1 0.10802867E-01 0.93351877E+02</pdfrwt>
<pdfrwt beam="2">  1       -1 0.22962455E-01 0.93351877E+02</pdfrwt>
<totfact> 0.84675415E+03</totfact>
</mgrwt>
</event>
<event>
 8    1  0.3400573E-004  0.1138493E+03  0.7546771E-02  0.1254594E+00
          3   -1    0    0  501    0  0.00000000000E+00  0.00000000000E+00  0.11475518517E+03  0.11475518517E+03  0.00000000000E+00 0. -1.
         -3   -1    0    0    0  501 -0.00000000000E+00 -0.00000000000E+00 -0.13978334120E+03  0.13978334120E+03  0.00000000000E+00 0.  1.
         23    2    1    2    0    0  0.53078070203E+02 -0.36106692963E+02 -0.70600343395E+02  0.13396298495E+03  0.94024986230E+02 0.  0.
         23    2    1    2    0    0 -0.53078070203E+02  0.36106692963E+02  0.45572187370E+02  0.12057554142E+03  0.91327225485E+02 0.  0.
          5    1    3    3  502    0 -0.16363765453E+02 -0.36306131351E+02 -0.91816360580E+01  0.41137579342E+02  0.47000000000E+01 0. -1.
         -5    1    4    4    0  503  0.71283499517E+01 -0.24153701985E+02  0.49785868371E+01  0.26097720581E+02  0.47000000000E+01 0.  1.
          5    1    4    4  503    0 -0.60206420155E+02  0.60260394948E+02  0.40593600533E+02  0.94477820844E+02  0.47000000000E+01 0. -1.
         -5    1    3    3    0  502  0.69441835656E+02  0.19943838798E+00 -0.61418707337E+02  0.92825405606E+02  0.47000000000E+01 0.  1.
<mgrwt>
<rscale>  0 0.11329084E+03</rscale>
<asrwt>0</asrwt>
<pdfrwt beam="1">  1        3 0.17654644E-01 0.11384934E+03</pdfrwt>
<pdfrwt beam="2">  1       -3 0.21505129E-01 0.11384934E+03</pdfrwt>
<totfact> 0.12318579E+03</totfact>
</mgrwt>
</event>
<event>
 8    1  0.3400573E-004  0.9418269E+02  0.7546771E-02  0.1293635E+00
         -1   -1    0    0    0  501 -0.00000000000E+00  0.00000000000E+00  0.19830652079E+03  0.19830652079E+03  0.00000000000E+00 0.  1.
          1   -1    0    0  501    0  0.00000000000E+00 -0.00000000000E+00 -0.44329253961E+02  0.44329253961E+02  0.00000000000E+00 0. -1.
         23    2    1    2    0    0  0.18320737472E+01  0.17945604922E+02  0.83208246795E+02  0.12567414586E+03  0.92439046792E+02 0.  0.
         23    2    1    2    0    0 -0.18320737472E+01 -0.17945604922E+02  0.70769020031E+02  0.11696162889E+03  0.91358454489E+02 0.  0.
          5    1    3    3  502    0  0.43843518554E+02 -0.76653755619E+01  0.39408438514E+02  0.59633271986E+02  0.47000000000E+01 0. -1.
         -5    1    3    3    0  502 -0.42011444806E+02  0.25610980484E+02  0.43799808281E+02  0.66040873870E+02  0.47000000000E+01 0.  1.
          5    1    4    4  503    0 -0.16050644368E+02 -0.34384240298E+02 -0.44783042062E+01  0.38497329441E+02  0.47000000000E+01 0. -1.
         -5    1    4    4    0  503  0.14218570621E+02  0.16438635376E+02  0.75247324237E+02  0.78464299451E+02  0.47000000000E+01 0.  1.
<mgrwt>
<rscale>  0 0.93916472E+02</rscale>
<asrwt>0</asrwt>
<pdfrwt beam="1">  1        1 0.68198853E-02 0.94182687E+02</pdfrwt>
<pdfrwt beam="2">  1       -1 0.30508695E-01 0.94182687E+02</pdfrwt>
<totfact> 0.97699518E+03</totfact>
</mgrwt>
</event>
<event>
 8    1  0.3400573E-004  0.1074904E+03  0.7546771E-02  0.1266289E+00
          2   -1    0    0  501    0  0.00000000000E+00  0.00000000000E+00  0.37282685853E+03  0.37282685853E+03  0.00000000000E+00 0. -1.
         -2   -1    0    0    0  501 -0.00000000000E+00 -0.00000000000E+00 -0.95782849150E+02  0.95782849150E+02  0.00000000000E+00 0.  1.
         23    2    1    2    0    0 -0.38642375877E+02  0.46126494417E+02 -0.55492592555E+02  0.11913184052E+03  0.86556807331E+02 0.  0.
         23    2    1    2    0    0  0.38642375877E+02 -0.46126494417E+02  0.33253660194E+03  0.34947786717E+03  0.89069081678E+02 0.  0.
          5    1    4    4  502    0  0.24224609367E+02  0.10384602942E+02  0.22893974676E+03  0.23049982500E+03  0.47000000000E+01 0. -1.
         -5    1    4    4    0  502  0.14417766510E+02 -0.56511097359E+02  0.10359685518E+03  0.11897804217E+03  0.47000000000E+01 0.  1.
          5    1    3    3  503    0  0.22175908037E+02  0.15934539135E+02 -0.41094017005E+02  0.49562976791E+02  0.47000000000E+01 0. -1.
         -5    1    3    3    0  503 -0.60818283914E+02  0.30191955282E+02 -0.14398575550E+02  0.69568863725E+02  0.47000000000E+01 0.  1.
<mgrwt>
<rscale>  0 0.10696853E+03</rscale>
<asrwt>0</asrwt>
<pdfrwt beam="1">  1        2 0.57357977E-01 0.10749041E+03</pdfrwt>
<pdfrwt beam="2">  1       -2 0.14735823E-01 0.10749041E+03</pdfrwt>
<totfact> 0.29218958E+03</totfact>
</mgrwt>
</event>
<event>
 8    1  0.3400573E-004  0.2187319E+03  0.7546771E-02  0.1134963E+00
          2   -1    0    0  501    0  0.00000000000E+00  0.00000000000E+00  0.19299469430E+04  0.19299469430E+04  0.00000000000E+00 0. -1.
         -2   -1    0    0    0  501 -0.00000000000E+00 -0.00000000000E+00 -0.11201355984E+03  0.11201355984E+03  0.00000000000E+00 0.  1.
         23    2    1    2    0    0 -0.11421582611E+03 -0.16137808390E+03  0.72945258922E+01  0.21815768394E+03  0.91931627080E+02 0.  0.
         23    2    1    2    0    0  0.11421582611E+03  0.16137808390E+03  0.18106388573E+04  0.18238028189E+04  0.93570881444E+02 0.  0.
          5    1    3    3  502    0 -0.37865518424E+02 -0.12807157111E+03 -0.55169274409E+01  0.13374846279E+03  0.47000000000E+01 0.  1.
         -5    1    4    4    0  503  0.20931017295E+02 -0.96039763469E+01  0.23164770367E+03  0.23283705131E+03  0.47000000000E+01 0.  1.
          5    1    4    4  503    0  0.93284808818E+02  0.17098206025E+03  0.15789911536E+04  0.15909657676E+04  0.47000000000E+01 0. -1.
         -5    1    3    3    0  502 -0.76350307689E+02 -0.33306512794E+02  0.12811453333E+02  0.84409221150E+02  0.47000000000E+01 0. -1.
<mgrwt>
<rscale>  0 0.21855765E+03</rscale>
<asrwt>0</asrwt>
<pdfrwt beam="1">  1        2 0.29691489E+00 0.21873192E+03</pdfrwt>
<pdfrwt beam="2">  1       -2 0.17232857E-01 0.21873192E+03</pdfrwt>
<totfact> 0.22352518E+02</totfact>
</mgrwt>
</event>
<event>
 8    1  0.3400573E-004  0.1037549E+03  0.7546771E-02  0.1273180E+00
         -1   -1    0    0    0  501 -0.00000000000E+00  0.00000000000E+00  0.11480338546E+03  0.11480338546E+03  0.00000000000E+00 0.  1.
          1   -1    0    0  501    0  0.00000000000E+00 -0.00000000000E+00 -0.93928586765E+02  0.93928586765E+02  0.00000000000E+00 0. -1.
         23    2    1    2    0    0 -0.44837228962E+02  0.13755074920E+02  0.22345532696E+02  0.10613386266E+03  0.92549958316E+02 0.  0.
         23    2    1    2    0    0  0.44837228962E+02 -0.13755074920E+02 -0.14707340053E+01  0.10259810956E+03  0.91239409468E+02 0.  0.
          5    1    3    3  502    0  0.87521401859E+01  0.34861595605E+02  0.31005902753E+02  0.47701014785E+02  0.47000000000E+01 0. -1.
         -5    1    3    3    0  502 -0.53589369148E+02 -0.21106520684E+02 -0.86603700575E+01  0.58432847874E+02  0.47000000000E+01 0.  1.
          5    1    4    4  503    0  0.23179390128E+02 -0.49691880393E+02  0.15375013767E+02  0.57140599857E+02  0.47000000000E+01 0. -1.
         -5    1    4    4    0  503  0.21657838834E+02  0.35936805472E+02 -0.16845747773E+02  0.45457509705E+02  0.47000000000E+01 0.  1.
<mgrwt>
<rscale>  0 0.10346181E+03</rscale>
<asrwt>0</asrwt>
<pdfrwt beam="1">  1        1 0.14450552E-01 0.10375487E+03</pdfrwt>
<pdfrwt beam="2">  1       -1 0.17662059E-01 0.10375487E+03</pdfrwt>
<totfact> 0.89047871E+03</totfact>
</mgrwt>
</event>
<event>
 8    1  0.3400573E-004  0.9173910E+02  0.7546771E-02  0.1307356E+00
          1   -1    0    0  501    0  0.00000000000E+00  0.00000000000E+00  0.42340866159E+03  0.42340866159E+03  0.00000000000E+00 0. -1.
         -1   -1    0    0    0  501 -0.00000000000E+00 -0.00000000000E+00 -0.17990154249E+02  0.17990154249E+02  0.00000000000E+00 0.  1.
         23    2    1    2    0    0  0.20554063141E+02 -0.18853169033E+02  0.23740619103E+03  0.24997206379E+03  0.73119228934E+02 0.  0.
         23    2    1    2    0    0 -0.20554063141E+02  0.18853169033E+02  0.16801231631E+03  0.19142675205E+03  0.87396518664E+02 0.  0.
          5    1    3    3  502    0 -0.15902672415E+02  0.15386627777E+02  0.37014729948E+02  0.43379990058E+02  0.47000000000E+01 0. -1.
         -5    1    4    4    0  503 -0.31122832605E+01 -0.31309993725E+02  0.31056635158E+02  0.44459044091E+02  0.47000000000E+01 0.  1.
          5    1    4    4  503    0 -0.17441779881E+02  0.50163162758E+02  0.13695568115E+03  0.14696770796E+03  0.47000000000E+01 0. -1.
         -5    1    3    3    0  502  0.36456735556E+02 -0.34239796810E+02  0.20039146108E+03  0.20659207373E+03  0.47000000000E+01 0.  1.
<mgrwt>
<rscale>  0 0.88165407E+02</rscale>
<asrwt>0</asrwt>
<pdfrwt beam="1">  1        1 0.65139787E-01 0.91739103E+02</pdfrwt>
<pdfrwt beam="2">  1       -1 0.27677164E-02 0.91739103E+02</pdfrwt>
<totfact> 0.21551878E+04</totfact>
</mgrwt>
</event>
<event>
 8    1  0.3400573E-004  0.1175781E+03  0.7546771E-02  0.1248363E+00
         -1   -1    0    0    0  501 -0.00000000000E+00  0.00000000000E+00  0.40121414664E+02  0.40121414664E+02  0.00000000000E+00 0.  1.
          1   -1    0    0  501    0  0.00000000000E+00 -0.00000000000E+00 -0.33673550136E+03  0.33673550136E+03  0.00000000000E+00 0. -1.
         23    2    1    2    0    0  0.71010820224E+02 -0.68475907268E+01 -0.15677126147E+03  0.19596388646E+03  0.93462239895E+02 0.  0.
         23    2    1    2    0    0 -0.71010820224E+02  0.68475907268E+01 -0.13984282523E+03  0.18089302956E+03  0.89871276219E+02 0.  0.
          5    1    4    4  502    0 -0.40675708120E+02 -0.23775748097E+02 -0.12720102640E+03  0.13572763369E+03  0.47000000000E+01 0. -1.
         -5    1    3    3    0  503  0.62876520398E+02 -0.45528877373E+02 -0.10402552449E+03  0.12988354490E+03  0.47000000000E+01 0.  1.
          5    1    3    3  503    0  0.81342998264E+01  0.38681286647E+02 -0.52745736979E+02  0.66080341553E+02  0.47000000000E+01 0. -1.
         -5    1    4    4    0  502 -0.30335112104E+02  0.30623338824E+02 -0.12641798826E+02  0.45165395877E+02  0.47000000000E+01 0.  1.
<mgrwt>
<rscale>  0 0.11686320E+03</rscale>
<asrwt>0</asrwt>
<pdfrwt beam="1">  1        1 0.51805462E-01 0.11757813E+03</pdfrwt>
<pdfrwt beam="2">  1       -1 0.61725252E-02 0.11757813E+03</pdfrwt>
<totfact> 0.90832844E+03</totfact>
</mgrwt>
</event>
<event>
 8    1  0.3400573E-004  0.9297206E+02  0.7546771E-02  0.1295885E+00
         -1   -1    0    0    0  501 -0.00000000000E+00  0.00000000000E+00  0.14683488234E+03  0.14683488234E+03  0.00000000000E+00 0.  1.
          1   -1    0    0  501    0  0.00000000000E+00 -0.00000000000E+00 -0.27464887792E+03  0.27464887792E+03  0.00000000000E+00 0. -1.
         23    2    1    2    0    0  0.58977275393E+01  0.13824378558E+02  0.12293438542E+03  0.15405422712E+03  0.91618475987E+02 0.  0.
         23    2    1    2    0    0 -0.58977275393E+01 -0.13824378558E+02 -0.25074838100E+03  0.26742953314E+03  0.91749157976E+02 0.  0.
          5    1    4    4  502    0  0.20248738714E+02 -0.45656617030E+02 -0.15950583502E+03  0.16720867054E+03  0.47000000000E+01 0. -1.
         -5    1    4    4    0  502 -0.26146466253E+02  0.31832238473E+02 -0.91242545979E+02  0.10022086260E+03  0.47000000000E+01 0.  1.
          5    1    3    3  503    0  0.24294015757E+02 -0.25489432293E+02  0.16811701799E+02  0.39301827917E+02  0.47000000000E+01 0. -1.
         -5    1    3    3    0  503 -0.18396288218E+02  0.39313810851E+02  0.10612268362E+03  0.11475239920E+03  0.47000000000E+01 0.  1.
<mgrwt>
<rscale>  0 0.92939807E+02</rscale>
<asrwt>0</asrwt>
<pdfrwt beam="1">  1        1 0.42253673E-01 0.92972064E+02</pdfrwt>
<pdfrwt beam="2">  1       -1 0.22589982E-01 0.92972064E+02</pdfrwt>
<totfact> 0.15692542E+03</totfact>
</mgrwt>
</event>
<event>
 8    1  0.3400573E-004  0.1032478E+03  0.7546771E-02  0.1276227E+00
          1   -1    0    0  501    0  0.00000000000E+00  0.00000000000E+00  0.67630842649E+03  0.67630842649E+03  0.00000000000E+00 0. -1.
         -1   -1    0    0    0  501 -0.00000000000E+00 -0.00000000000E+00 -0.17306280945E+02  0.17306280945E+02  0.00000000000E+00 0.  1.
         23    2    1    2    0    0  0.37940271704E+02 -0.29159524047E+01  0.19576229465E+03  0.21900826586E+03  0.90519486917E+02 0.  0.
         23    2    1    2    0    0 -0.37940271704E+02  0.29159524047E+01  0.46323985089E+03  0.47460644157E+03  0.95979935058E+02 0.  0.
          5    1    4    4  502    0 -0.29708350356E+02  0.41302052072E+02  0.14141910501E+03  0.15036588326E+03  0.47000000000E+01 0. -1.
         -5    1    3    3    0  503 -0.12342887126E+02 -0.25434765050E+02  0.20517637683E+02  0.35246809669E+02  0.47000000000E+01 0.  1.
          5    1    3    3  503    0  0.50283158830E+02  0.22518812645E+02  0.17524465697E+03  0.18376145619E+03  0.47000000000E+01 0. -1.
         -5    1    4    4    0  502 -0.82319213479E+01 -0.38386099667E+02  0.32182074588E+03  0.32424055832E+03  0.47000000000E+01 0.  1.
<mgrwt>
<rscale>  0 0.10196008E+03</rscale>
<asrwt>0</asrwt>
<pdfrwt beam="1">  1        1 0.10404743E+00 0.10324783E+03</pdfrwt>
<pdfrwt beam="2">  1       -1 0.26625053E-02 0.10324783E+03</pdfrwt>
<totfact> 0.12460677E+04</totfact>
</mgrwt>
</event>
<event>
 8    1  0.3400573E-004  0.1002464E+03  0.7546771E-02  0.1284313E+00
         -2   -1    0    0    0  501 -0.00000000000E+00  0.00000000000E+00  0.12638226100E+03  0.12638226100E+03  0.00000000000E+00 0.  1.
          2   -1    0    0  501    0  0.00000000000E+00 -0.00000000000E+00 -0.79320113698E+02  0.79320113698E+02  0.00000000000E+00 0. -1.
         23    2    1    2    0    0  0.37902090286E+01 -0.19571498679E+02 -0.61833920916E+01  0.92192749636E+02  0.89798994998E+02 0.  0.
         23    2    1    2    0    0 -0.37902090286E+01  0.19571498679E+02  0.53245539393E+02  0.11350962506E+03  0.98244278568E+02 0.  0.
          5    1    4    4  502    0 -0.35018359947E+02  0.45640342037E+02  0.21115670384E+02  0.61459644405E+02  0.47000000000E+01 0. -1.
         -5    1    4    4    0  502  0.31228150919E+02 -0.26068843358E+02  0.32129869008E+02  0.52049980656E+02  0.47000000000E+01 0.  1.
          5    1    3    3  503    0 -0.92620689992E+01 -0.53285441249E+02 -0.11084197826E+02  0.55408244988E+02  0.47000000000E+01 0. -1.
         -5    1    3    3    0  503  0.13052278028E+02  0.33713942570E+02  0.49008057341E+01  0.36784504648E+02  0.47000000000E+01 0.  1.
<mgrwt>
<rscale>  0 0.98114035E+02</rscale>
<asrwt>0</asrwt>
<pdfrwt beam="1">  1        2 0.12203094E-01 0.10024643E+03</pdfrwt>
<pdfrwt beam="2">  1       -2 0.19443425E-01 0.10024643E+03</pdfrwt>
<totfact> 0.10085957E+04</totfact>
</mgrwt>
</event>
<event>
 8    1  0.3400573E-004  0.9884705E+02  0.7546771E-02  0.1283046E+00
         -1   -1    0    0    0  501 -0.00000000000E+00  0.00000000000E+00  0.66171815446E+02  0.66171815446E+02  0.00000000000E+00 0.  1.
          1   -1    0    0  501    0  0.00000000000E+00 -0.00000000000E+00 -0.59753784981E+03  0.59753784981E+03  0.00000000000E+00 0. -1.
         23    2    1    2    0    0 -0.15180629353E+02 -0.34871250563E+02  0.22727861504E+02  0.10086795970E+03  0.90616411222E+02 0.  0.
         23    2    1    2    0    0  0.15180629353E+02  0.34871250563E+02 -0.55409389587E+03  0.56284170555E+03  0.91237516661E+02 0.  0.
          5    1    4    4  502    0 -0.30093050504E+02  0.38814187842E+02 -0.36432632463E+03  0.36765186479E+03  0.47000000000E+01 0. -1.
         -5    1    4    4    0  502  0.45273679857E+02 -0.39429372793E+01 -0.18976757124E+03  0.19518984076E+03  0.47000000000E+01 0.  1.
          5    1    3    3  503    0 -0.50159886194E+02 -0.36421960572E+02  0.20543315285E+02  0.65472827935E+02  0.47000000000E+01 0.  1.
         -5    1    3    3    0  503  0.34979256841E+02  0.15507100092E+01  0.21845462194E+01  0.35395131768E+02  0.47000000000E+01 0. -1.
<mgrwt>
<rscale>  0 0.98703491E+02</rscale>
<asrwt>0</asrwt>
<pdfrwt beam="1">  1        1 0.91928902E-01 0.98847054E+02</pdfrwt>
<pdfrwt beam="2">  1       -1 0.10180279E-01 0.98847054E+02</pdfrwt>
<totfact> 0.20438066E+03</totfact>
</mgrwt>
</event>
<event>
 8    1  0.3400573E-004  0.9359002E+02  0.7546771E-02  0.1296465E+00
         -2   -1    0    0    0  501 -0.00000000000E+00  0.00000000000E+00  0.29082914226E+02  0.29082914226E+02  0.00000000000E+00 0.  1.
          2   -1    0    0  501    0  0.00000000000E+00 -0.00000000000E+00 -0.29042341400E+03  0.29042341400E+03  0.00000000000E+00 0. -1.
         23    2    1    2    0    0 -0.55347665275E+01  0.39146963600E+01 -0.13513603524E+03  0.16238644156E+03  0.89786691068E+02 0.  0.
         23    2    1    2    0    0  0.55347665275E+01 -0.39146963600E+01 -0.12620446453E+03  0.15711988667E+03  0.93344166559E+02 0.  0.
          5    1    4    4  502    0 -0.35373017002E+02  0.10096785782E+02 -0.19517658773E+02  0.41907331327E+02  0.47000000000E+01 0. -1.
         -5    1    3    3    0  503 -0.33201133329E+01 -0.39321280931E+02 -0.34098173941E+02  0.52363744639E+02  0.47000000000E+01 0.  1.
          5    1    3    3  503    0 -0.22146531947E+01  0.43235977291E+02 -0.10103786130E+03  0.11002269692E+03  0.47000000000E+01 0. -1.
         -5    1    4    4    0  502  0.40907783530E+02 -0.14011482142E+02 -0.10668680576E+03  0.11521255534E+03  0.47000000000E+01 0.  1.
<mgrwt>
<rscale>  0 0.92690186E+02</rscale>
<asrwt>0</asrwt>
<pdfrwt beam="1">  1        2 0.44680525E-01 0.93590020E+02</pdfrwt>
<pdfrwt beam="2">  1       -2 0.44742946E-02 0.93590020E+02</pdfrwt>
<totfact> 0.23536037E+04</totfact>
</mgrwt>
</event>
<event>
 8    1  0.3400573E-004  0.1107671E+03  0.7546771E-02  0.1259419E+00
          2   -1    0    0  501    0  0.00000000000E+00  0.00000000000E+00  0.96324161003E+03  0.96324161003E+03  0.00000000000E+00 0. -1.
         -2   -1    0    0    0  501 -0.00000000000E+00 -0.00000000000E+00 -0.14204086541E+02  0.14204086541E+02  0.00000000000E+00 0.  1.
         23    2    1    2    0    0 -0.55076554421E+02 -0.30466217234E+02  0.31290079098E+03  0.33173732290E+03  0.90449594636E+02 0.  0.
         23    2    1    2    0    0  0.55076554421E+02  0.30466217234E+02  0.63613673251E+03  0.64570837367E+03  0.91146827375E+02 0.  0.
          5    1    3    3  502    0 -0.18834417418E+02  0.30456320545E+02  0.14489099021E+03  0.14932451836E+03  0.47000000000E+01 0. -1.
         -5    1    3    3    0  502 -0.36242137003E+02 -0.60922537780E+02  0.16800980077E+03  0.18241280454E+03  0.47000000000E+01 0.  1.
          5    1    4    4  503    0  0.66414907970E+02 -0.11016087038E+02  0.38149436850E+03  0.38741752331E+03  0.47000000000E+01 0. -1.
         -5    1    4    4    0  503 -0.11338353549E+02  0.41482304272E+02  0.25464236401E+03  0.25829085036E+03  0.47000000000E+01 0.  1.
<mgrwt>
<rscale>  0 0.11062362E+03</rscale>
<asrwt>0</asrwt>
<pdfrwt beam="1">  1        2 0.14819097E+00 0.11076715E+03</pdfrwt>
<pdfrwt beam="2">  1       -2 0.21852448E-02 0.11076715E+03</pdfrwt>
<totfact> 0.17652208E+04</totfact>
</mgrwt>
</event>
<event>
 8    1  0.3400573E-004  0.1237956E+03  0.7546771E-02  0.1237721E+00
          2   -1    0    0  501    0  0.00000000000E+00  0.00000000000E+00  0.35782709447E+03  0.35782709447E+03  0.00000000000E+00 0. -1.
         -2   -1    0    0    0  501 -0.00000000000E+00 -0.00000000000E+00 -0.57154299006E+02  0.57154299006E+02  0.00000000000E+00 0.  1.
         23    2    1    2    0    0 -0.80295961394E+02  0.12110936874E+02  0.25741540966E+03  0.28563622564E+03  0.93441126170E+02 0.  0.
         23    2    1    2    0    0  0.80295961394E+02 -0.12110936874E+02  0.43257385807E+02  0.12934516784E+03  0.90911246872E+02 0.  0.
          5    1    4    4  502    0  0.36818557699E+02  0.38616673297E+02  0.97010735202E+01  0.54433945981E+02  0.47000000000E+01 0. -1.
         -5    1    4    4    0  502  0.43477403695E+02 -0.50727610171E+02  0.33556312287E+02  0.74911221857E+02  0.47000000000E+01 0.  1.
          5    1    3    3  503    0  0.10669157770E+02  0.20946540074E+02  0.20088895554E+02  0.31276863544E+02  0.47000000000E+01 0. -1.
         -5    1    3    3    0  503 -0.90965119165E+02 -0.88356032000E+01  0.23732651410E+03  0.25435936209E+03  0.47000000000E+01 0.  1.
<mgrwt>
<rscale>  0 0.12331832E+03</rscale>
<asrwt>0</asrwt>
<pdfrwt beam="1">  1        2 0.55050321E-01 0.12379564E+03</pdfrwt>
<pdfrwt beam="2">  1       -2 0.87929693E-02 0.12379564E+03</pdfrwt>
<totfact> 0.69692245E+03</totfact>
</mgrwt>
</event>
<event>
 8    1  0.3400573E-004  0.1976057E+03  0.7546771E-02  0.1151816E+00
         -2   -1    0    0    0  501 -0.00000000000E+00  0.00000000000E+00  0.63774765442E+02  0.63774765442E+02  0.00000000000E+00 0.  1.
          2   -1    0    0  501    0  0.00000000000E+00 -0.00000000000E+00 -0.83499591839E+03  0.83499591839E+03  0.00000000000E+00 0. -1.
         23    2    1    2    0    0 -0.15331312197E+03  0.83264169922E+02 -0.61814510201E+03  0.64896177587E+03  0.92791077335E+02 0.  0.
         23    2    1    2    0    0  0.15331312197E+03 -0.83264169922E+02 -0.15307605093E+03  0.24980890796E+03  0.92381696068E+02 0.  0.
          5    1    3    3  502    0 -0.86425369028E+01  0.43838884016E+02 -0.19181669369E+03  0.19700831245E+03  0.47000000000E+01 0. -1.
         -5    1    3    3    0  502 -0.14467058506E+03  0.39425285906E+02 -0.42632840832E+03  0.45195346341E+03  0.47000000000E+01 0.  1.
          5    1    4    4  503    0  0.82724491318E+02  0.46531323662E+01 -0.49469757085E+02  0.96614388011E+02  0.47000000000E+01 0. -1.
         -5    1    4    4    0  503  0.70588630650E+02 -0.87917302288E+02 -0.10360629385E+03  0.15319451995E+03  0.47000000000E+01 0.  1.
<mgrwt>
<rscale>  0 0.19755772E+03</rscale>
<asrwt>0</asrwt>
<pdfrwt beam="1">  1        2 0.12846090E+00 0.19760572E+03</pdfrwt>
<pdfrwt beam="2">  1       -2 0.98115034E-02 0.19760572E+03</pdfrwt>
<totfact> 0.22821810E+03</totfact>
</mgrwt>
</event>
<event>
 8    1  0.3400573E-004  0.1207386E+03  0.7546771E-02  0.1242571E+00
         -1   -1    0    0    0  501 -0.00000000000E+00  0.00000000000E+00  0.98417711042E+01  0.98417711042E+01  0.00000000000E+00 0.  1.
          1   -1    0    0  501    0  0.00000000000E+00 -0.00000000000E+00 -0.15147463827E+04  0.15147463827E+04  0.00000000000E+00 0. -1.
         23    2    1    2    0    0 -0.57810178982E+02 -0.51382212689E+02 -0.90130873164E+03  0.90935979760E+03  0.92712799499E+02 0.  0.
         23    2    1    2    0    0  0.57810178982E+02  0.51382212689E+02 -0.60359587996E+03  0.61522835621E+03  0.90530632385E+02 0.  0.
          5    1    3    3  502    0 -0.64104908201E+01  0.25523167501E+02 -0.14998129440E+03  0.15234502007E+03  0.47000000000E+01 0. -1.
         -5    1    4    4    0  503  0.20293783623E+01 -0.23224723754E+02 -0.17442460438E+03  0.17603845825E+03  0.47000000000E+01 0.  1.
          5    1    4    4  503    0  0.55780800620E+02  0.74606936443E+02 -0.42917127559E+03  0.43918989796E+03  0.47000000000E+01 0. -1.
         -5    1    3    3    0  502 -0.51399688162E+02 -0.76905380190E+02 -0.75132743724E+03  0.75701477753E+03  0.47000000000E+01 0.  1.
<mgrwt>
<rscale>  0 0.12031957E+03</rscale>
<asrwt>0</asrwt>
<pdfrwt beam="1">  1        1 0.23303789E+00 0.12073861E+03</pdfrwt>
<pdfrwt beam="2">  1       -1 0.15141187E-02 0.12073861E+03</pdfrwt>
<totfact> 0.70155585E+03</totfact>
</mgrwt>
</event>
<event>
 8    1  0.3400573E-004  0.1002174E+03  0.7546771E-02  0.1279921E+00
          2   -1    0    0  501    0  0.00000000000E+00  0.00000000000E+00  0.32524905384E+02  0.32524905384E+02  0.00000000000E+00 0. -1.
         -2   -1    0    0    0  501 -0.00000000000E+00 -0.00000000000E+00 -0.53497599077E+03  0.53497599077E+03  0.00000000000E+00 0.  1.
         23    2    1    2    0    0  0.33532502781E+02 -0.23944054537E+02 -0.43603262435E+03  0.44740136711E+03  0.91355280664E+02 0.  0.
         23    2    1    2    0    0 -0.33532502781E+02  0.23944054537E+02 -0.66418461031E+02  0.12009952904E+03  0.91185187496E+02 0.  0.
          5    1    4    4  502    0 -0.20390104670E+02  0.57949523474E+02 -0.51970820399E+02  0.80603720834E+02  0.47000000000E+01 0. -1.
         -5    1    3    3    0  503  0.53814738585E+02 -0.43992150074E+02 -0.34214328308E+03  0.34916393215E+03  0.47000000000E+01 0.  1.
          5    1    3    3  503    0 -0.20282235804E+02  0.20048095537E+02 -0.93889341271E+02  0.98237434963E+02  0.47000000000E+01 0. -1.
         -5    1    4    4    0  502 -0.13142398111E+02 -0.34005468937E+02 -0.14447640631E+02  0.39495808203E+02  0.47000000000E+01 0.  1.
<mgrwt>
<rscale>  0 0.10017865E+03</rscale>
<asrwt>0</asrwt>
<pdfrwt beam="1">  1        2 0.50038319E-02 0.10021743E+03</pdfrwt>
<pdfrwt beam="2">  1       -2 0.82303994E-01 0.10021743E+03</pdfrwt>
<totfact> 0.19783948E+03</totfact>
</mgrwt>
</event>
<event>
 8    1  0.3400573E-004  0.2137357E+03  0.7546771E-02  0.1140505E+00
          2   -1    0    0  501    0  0.00000000000E+00  0.00000000000E+00  0.68280473521E+03  0.68280473521E+03  0.00000000000E+00 0. -1.
         -2   -1    0    0    0  501 -0.00000000000E+00 -0.00000000000E+00 -0.13530775358E+03  0.13530775358E+03  0.00000000000E+00 0.  1.
         23    2    1    2    0    0 -0.25301898840E+02  0.18079280753E+03 -0.26093794296E+02  0.20599376372E+03  0.91794984886E+02 0.  0.
         23    2    1    2    0    0  0.25301898840E+02 -0.18079280753E+03  0.57359077593E+03  0.61211872507E+03  0.11116082946E+03 0.  0.
          5    1    4    4  502    0  0.64513842432E+02 -0.12347192256E+03  0.43892504520E+03  0.46052647788E+03  0.47000000000E+01 0. -1.
         -5    1    3    3    0  503  0.10775291986E+02  0.98532746077E+02  0.25291758417E+02  0.10240396482E+03  0.47000000000E+01 0.  1.
          5    1    3    3  503    0 -0.36077190827E+02  0.82260061454E+02 -0.51385552713E+02  0.10358979890E+03  0.47000000000E+01 0. -1.
         -5    1    4    4    0  502 -0.39211943592E+02 -0.57320884967E+02  0.13466573073E+03  0.15159224719E+03  0.47000000000E+01 0.  1.
<mgrwt>
<rscale>  0 0.21134559E+03</rscale>
<asrwt>0</asrwt>
<pdfrwt beam="1">  1        2 0.10504688E+00 0.21373571E+03</pdfrwt>
<pdfrwt beam="2">  1       -2 0.20816578E-01 0.21373571E+03</pdfrwt>
<totfact> 0.85092630E+02</totfact>
</mgrwt>
</event>
<event>
 8    1  0.3400573E-004  0.1209227E+03  0.7546771E-02  0.1243730E+00
         -1   -1    0    0    0  501 -0.00000000000E+00  0.00000000000E+00  0.54858103351E+02  0.54858103351E+02  0.00000000000E+00 0.  1.
          1   -1    0    0  501    0  0.00000000000E+00 -0.00000000000E+00 -0.38965122752E+03  0.38965122752E+03  0.00000000000E+00 0. -1.
         23    2    1    2    0    0  0.32635118620E+02 -0.69358364155E+02 -0.30024329023E+03  0.32367936328E+03  0.93523597240E+02 0.  0.
         23    2    1    2    0    0 -0.32635118620E+02  0.69358364155E+02 -0.34549833934E+02  0.12082996759E+03  0.86778778490E+02 0.  0.
          5    1    3    3  502    0  0.62620626906E+01 -0.32603176946E+02 -0.26234078476E+03  0.26447487201E+03  0.47000000000E+01 0. -1.
         -5    1    4    4    0  503 -0.18998937500E+02  0.84068417505E+02 -0.45419234639E+02  0.97536943376E+02  0.47000000000E+01 0.  1.
          5    1    4    4  503    0 -0.13636181120E+02 -0.14710053351E+02  0.10869400705E+02  0.23293024209E+02  0.47000000000E+01 0. -1.
         -5    1    3    3    0  502  0.26373055929E+02 -0.36755187208E+02 -0.37902505468E+02  0.59204491270E+02  0.47000000000E+01 0.  1.
<mgrwt>
<rscale>  0 0.11961731E+03</rscale>
<asrwt>0</asrwt>
<pdfrwt beam="1">  1        1 0.59946342E-01 0.12092269E+03</pdfrwt>
<pdfrwt beam="2">  1       -1 0.84397083E-02 0.12092269E+03</pdfrwt>
<totfact> 0.47514057E+03</totfact>
</mgrwt>
</event>
<event>
 8    1  0.3400573E-004  0.9792386E+02  0.7546771E-02  0.1284851E+00
          3   -1    0    0  501    0  0.00000000000E+00  0.00000000000E+00  0.81478457228E+01  0.81478457228E+01  0.00000000000E+00 0. -1.
         -3   -1    0    0    0  501 -0.00000000000E+00 -0.00000000000E+00 -0.12110968305E+04  0.12110968305E+04  0.00000000000E+00 0.  1.
         23    2    1    2    0    0  0.24254117483E+02 -0.25685775433E+02 -0.70739282595E+03  0.71410609290E+03  0.91076234170E+02 0.  0.
         23    2    1    2    0    0 -0.24254117483E+02  0.25685775433E+02 -0.49555615883E+03  0.50513858333E+03  0.91329406763E+02 0.  0.
          5    1    4    4  502    0 -0.93239427421E+01 -0.29070471808E+02 -0.81013916118E+02  0.86702784524E+02  0.47000000000E+01 0.  1.
         -5    1    3    3    0  503  0.16550915742E+01 -0.57501429955E+02 -0.46070964108E+03  0.46431090571E+03  0.47000000000E+01 0.  1.
          5    1    3    3  503    0  0.22599025909E+02  0.31815654522E+02 -0.24668318487E+03  0.24979518719E+03  0.47000000000E+01 0. -1.
         -5    1    4    4    0  502 -0.14930174741E+02  0.54756247241E+02 -0.41454224271E+03  0.41843579880E+03  0.47000000000E+01 0. -1.
<mgrwt>
<rscale>  0 0.97864784E+02</rscale>
<asrwt>0</asrwt>
<pdfrwt beam="1">  1        3 0.12535153E-02 0.97923857E+02</pdfrwt>
<pdfrwt beam="2">  1       -3 0.18632251E+00 0.97923857E+02</pdfrwt>
<totfact> 0.83347920E+02</totfact>
</mgrwt>
</event>
<event>
 8    1  0.3400573E-004  0.9157068E+02  0.7546771E-02  0.1301347E+00
         -2   -1    0    0    0  501 -0.00000000000E+00  0.00000000000E+00  0.59665356823E+03  0.59665356823E+03  0.00000000000E+00 0.  1.
          2   -1    0    0  501    0  0.00000000000E+00 -0.00000000000E+00 -0.13963817082E+02  0.13963817082E+02  0.00000000000E+00 0. -1.
         23    2    1    2    0    0 -0.10420536226E+01  0.57622239476E+01  0.24081147236E+03  0.25763414801E+03  0.91383258322E+02 0.  0.
         23    2    1    2    0    0  0.10420536226E+01 -0.57622239476E+01  0.34187827879E+03  0.35298323730E+03  0.87647699380E+02 0.  0.
          5    1    4    4  502    0 -0.33250454017E+02  0.24687221491E+02  0.16905813093E+03  0.17412005408E+03  0.47000000000E+01 0. -1.
         -5    1    4    4    0  502  0.34292507639E+02 -0.30449445438E+02  0.17282014786E+03  0.17886318322E+03  0.47000000000E+01 0.  1.
          5    1    3    3  503    0 -0.24772420387E+02 -0.26092365307E+02  0.45136042001E+02  0.57912318436E+02  0.47000000000E+01 0. -1.
         -5    1    3    3    0  503  0.23730366764E+02  0.31854589255E+02  0.19567543036E+03  0.19972182958E+03  0.47000000000E+01 0.  1.
<mgrwt>
<rscale>  0 0.90624207E+02</rscale>
<asrwt>0</asrwt>
<pdfrwt beam="1">  1        2 0.21482800E-02 0.91570678E+02</pdfrwt>
<pdfrwt beam="2">  1       -2 0.91792837E-01 0.91570678E+02</pdfrwt>
<totfact> 0.47192029E+03</totfact>
</mgrwt>
</event>
<event>
 8    1  0.3400573E-004  0.1159803E+03  0.7546771E-02  0.1256170E+00
          3   -1    0    0  501    0  0.00000000000E+00  0.00000000000E+00  0.19913160347E+03  0.19913160347E+03  0.00000000000E+00 0. -1.
         -3   -1    0    0    0  501 -0.00000000000E+00 -0.00000000000E+00 -0.60005666005E+02  0.60005666005E+02  0.00000000000E+00 0.  1.
         23    2    1    2    0    0  0.43756877081E+02  0.15468005231E+02  0.67160747723E+02  0.13402238297E+03  0.10628974374E+03 0.  0.
         23    2    1    2    0    0 -0.43756877081E+02 -0.15468005231E+02  0.71965189740E+02  0.12511488650E+03  0.91218544238E+02 0.  0.
          5    1    4    4  502    0 -0.71822588413E+02 -0.16466388021E+02  0.50428947184E+02  0.89413616720E+02  0.47000000000E+01 0. -1.
         -5    1    3    3    0  503  0.65374016063E+02 -0.15915607612E+02  0.14732953904E+02  0.69037804663E+02  0.47000000000E+01 0.  1.
          5    1    3    3  503    0 -0.21617138982E+02  0.31383612843E+02  0.52427793820E+02  0.64984578306E+02  0.47000000000E+01 0. -1.
         -5    1    4    4    0  502  0.28065711332E+02  0.99838279018E+00  0.21536242556E+02  0.35701269784E+02  0.47000000000E+01 0.  1.
<mgrwt>
<rscale>  0 0.11241031E+03</rscale>
<asrwt>0</asrwt>
<pdfrwt beam="1">  1        3 0.30635631E-01 0.11598031E+03</pdfrwt>
<pdfrwt beam="2">  1       -3 0.92316410E-02 0.11598031E+03</pdfrwt>
<totfact> 0.19393671E+03</totfact>
</mgrwt>
</event>
<event>
 8    1  0.3400573E-004  0.9980621E+02  0.7546771E-02  0.1281206E+00
         -3   -1    0    0    0  501 -0.00000000000E+00  0.00000000000E+00  0.37595643798E+03  0.37595643798E+03  0.00000000000E+00 0.  1.
          3   -1    0    0  501    0  0.00000000000E+00 -0.00000000000E+00 -0.28014226599E+02  0.28014226599E+02  0.00000000000E+00 0. -1.
         23    2    1    2    0    0  0.27771341433E+01  0.38940851768E+02  0.12243036728E+03  0.15735989651E+03  0.90823123646E+02 0.  0.
         23    2    1    2    0    0 -0.27771341433E+01 -0.38940851768E+02  0.22551184411E+03  0.24661076807E+03  0.91854105431E+02 0.  0.
          5    1    4    4  502    0 -0.33960831486E+02 -0.54645179102E+02  0.14150945528E+03  0.15551993315E+03  0.47000000000E+01 0. -1.
         -5    1    4    4    0  502  0.31183697343E+02  0.15704327334E+02  0.84002388826E+02  0.91090834915E+02  0.47000000000E+01 0.  1.
          5    1    3    3  503    0  0.78628542148E+01 -0.25820449266E+02  0.13740733363E+02  0.30649923818E+02  0.47000000000E+01 0. -1.
         -5    1    3    3    0  503 -0.50857200714E+01  0.64761301034E+02  0.10868963391E+03  0.12670997270E+03  0.47000000000E+01 0.  1.
<mgrwt>
<rscale>  0 0.99568355E+02</rscale>
<asrwt>0</asrwt>
<pdfrwt beam="1">  1        3 0.43098813E-02 0.99806208E+02</pdfrwt>
<pdfrwt beam="2">  1       -3 0.57839448E-01 0.99806208E+02</pdfrwt>
<totfact> 0.18585010E+03</totfact>
</mgrwt>
</event>
<event>
 8    1  0.3400573E-004  0.9166363E+02  0.7546771E-02  0.1299646E+00
          1   -1    0    0  501    0  0.00000000000E+00  0.00000000000E+00  0.14074732202E+03  0.14074732202E+03  0.00000000000E+00 0. -1.
         -1   -1    0    0    0  501 -0.00000000000E+00 -0.00000000000E+00 -0.99923789898E+02  0.99923789898E+02  0.00000000000E+00 0.  1.
         23    2    1    2    0    0  0.22807882911E+02 -0.61551444564E+01 -0.56648995357E+02  0.10775588216E+03  0.88567127868E+02 0.  0.
         23    2    1    2    0    0 -0.22807882911E+02  0.61551444564E+01  0.97472527484E+02  0.13291522976E+03  0.87220865410E+02 0.  0.
          5    1    4    4  502    0 -0.25291801928E+02  0.40349515486E+02  0.82147137940E+02  0.95068401251E+02  0.47000000000E+01 0. -1.
         -5    1    3    3    0  503  0.53814267953E+02 -0.13543976247E+02 -0.20529803721E+02  0.59354676048E+02  0.47000000000E+01 0.  1.
          5    1    3    3  503    0 -0.31006385042E+02  0.73888317908E+01 -0.36119191636E+02  0.48401206111E+02  0.47000000000E+01 0. -1.
         -5    1    4    4    0  502  0.24839190171E+01 -0.34194371029E+02  0.15325389544E+02  0.37846828512E+02  0.47000000000E+01 0.  1.
<mgrwt>
<rscale>  0 0.91336859E+02</rscale>
<asrwt>0</asrwt>
<pdfrwt beam="1">  1        1 0.21653434E-01 0.91663632E+02</pdfrwt>
<pdfrwt beam="2">  1       -1 0.15372891E-01 0.91663632E+02</pdfrwt>
<totfact> 0.65576153E+03</totfact>
</mgrwt>
</event>
<event>
 8    1  0.3400573E-004  0.9369596E+02  0.7546771E-02  0.1299677E+00
          1   -1    0    0  501    0  0.00000000000E+00  0.00000000000E+00  0.32684162766E+02  0.32684162766E+02  0.00000000000E+00 0. -1.
         -1   -1    0    0    0  501 -0.00000000000E+00 -0.00000000000E+00 -0.29926890760E+03  0.29926890760E+03  0.00000000000E+00 0.  1.
         23    2    1    2    0    0  0.14874292470E+02 -0.25805286647E+02 -0.21069804391E+03  0.23059184625E+03  0.88835671078E+02 0.  0.
         23    2    1    2    0    0 -0.14874292470E+02  0.25805286647E+02 -0.55886700931E+02  0.10136122412E+03  0.79143016233E+02 0.  0.
          5    1    3    3  502    0  0.49665058109E+02 -0.26581671973E+02 -0.15226769970E+03  0.16242150613E+03  0.47000000000E+01 0.  1.
         -5    1    3    3    0  502 -0.34790765639E+02  0.77638532593E+00 -0.58430344202E+02  0.68170340116E+02  0.47000000000E+01 0. -1.
          5    1    4    4  503    0 -0.33654920116E+02  0.45173314609E+02 -0.31612364999E+02  0.64766608848E+02  0.47000000000E+01 0. -1.
         -5    1    4    4    0  503  0.18780627646E+02 -0.19368027962E+02 -0.24274335932E+02  0.36594615271E+02  0.47000000000E+01 0.  1.
<mgrwt>
<rscale>  0 0.91323974E+02</rscale>
<asrwt>0</asrwt>
<pdfrwt beam="1">  1        1 0.50283326E-02 0.93695965E+02</pdfrwt>
<pdfrwt beam="2">  1       -1 0.46041372E-01 0.93695965E+02</pdfrwt>
<totfact> 0.72488703E+03</totfact>
</mgrwt>
</event>
<event>
 8    1  0.3400573E-004  0.1036250E+03  0.7546771E-02  0.1273929E+00
          1   -1    0    0  501    0  0.00000000000E+00  0.00000000000E+00  0.90012903155E+02  0.90012903155E+02  0.00000000000E+00 0. -1.
         -1   -1    0    0    0  501 -0.00000000000E+00 -0.00000000000E+00 -0.11792156532E+03  0.11792156532E+03  0.00000000000E+00 0.  1.
         23    2    1    2    0    0  0.40677412563E+02  0.12756093071E+02 -0.23942482416E+02  0.10635500796E+03  0.94449856810E+02 0.  0.
         23    2    1    2    0    0 -0.40677412563E+02 -0.12756093071E+02 -0.39661797533E+01  0.10157946051E+03  0.92115614384E+02 0.  0.
          5    1    4    4  502    0 -0.32976681752E+02 -0.38353584701E+02  0.29302289852E+02  0.58644464269E+02  0.47000000000E+01 0. -1.
         -5    1    4    4    0  502 -0.77007308107E+01  0.25597491629E+02 -0.33268469606E+02  0.42934996246E+02  0.47000000000E+01 0.  1.
          5    1    3    3  503    0 -0.26311519812E+02 -0.31933534105E+01  0.10895523646E+02  0.29039559506E+02  0.47000000000E+01 0. -1.
         -5    1    3    3    0  503  0.66988932375E+02  0.15949446482E+02 -0.34838006062E+02  0.77315448457E+02  0.47000000000E+01 0.  1.
<mgrwt>
<rscale>  0 0.10309014E+03</rscale>
<asrwt>0</asrwt>
<pdfrwt beam="1">  1        1 0.13848139E-01 0.10362502E+03</pdfrwt>
<pdfrwt beam="2">  1       -1 0.18141779E-01 0.10362502E+03</pdfrwt>
<totfact> 0.90164973E+03</totfact>
</mgrwt>
</event>
<event>
 8    1  0.3400573E-004  0.9347246E+02  0.7546771E-02  0.1295366E+00
          1   -1    0    0  501    0  0.00000000000E+00  0.00000000000E+00  0.20008243642E+02  0.20008243642E+02  0.00000000000E+00 0. -1.
         -1   -1    0    0    0  501 -0.00000000000E+00 -0.00000000000E+00 -0.44392463057E+03  0.44392463057E+03  0.00000000000E+00 0.  1.
         23    2    1    2    0    0 -0.83474892620E+01  0.72314387553E+01 -0.25025076313E+03  0.26671003270E+03  0.91579598231E+02 0.  0.
         23    2    1    2    0    0  0.83474892620E+01 -0.72314387553E+01 -0.17366562379E+03  0.19722284151E+03  0.92817703275E+02 0.  0.
          5    1    4    4  502    0  0.41421598582E+02  0.17529599406E+02 -0.53426772046E+02  0.69996754608E+02  0.47000000000E+01 0. -1.
         -5    1    4    4    0  502 -0.33074109320E+02 -0.24761038162E+02 -0.12023885175E+03  0.12722608690E+03  0.47000000000E+01 0.  1.
          5    1    3    3  503    0  0.40020978005E+02 -0.68054172251E+01 -0.94701145781E+02  0.10314256830E+03  0.47000000000E+01 0. -1.
         -5    1    3    3    0  503 -0.48368467267E+02  0.14036855980E+02 -0.15554961735E+03  0.16356746440E+03  0.47000000000E+01 0.  1.
<mgrwt>
<rscale>  0 0.93163601E+02</rscale>
<asrwt>0</asrwt>
<pdfrwt beam="1">  1        1 0.30781914E-02 0.93472458E+02</pdfrwt>
<pdfrwt beam="2">  1       -1 0.68296096E-01 0.93472458E+02</pdfrwt>
<totfact> 0.68019877E+03</totfact>
</mgrwt>
</event>
<event>
 8    1  0.3400573E-004  0.9719899E+02  0.7546771E-02  0.1288407E+00
          1   -1    0    0  501    0  0.00000000000E+00  0.00000000000E+00  0.16144594477E+03  0.16144594477E+03  0.00000000000E+00 0. -1.
         -1   -1    0    0    0  501 -0.00000000000E+00 -0.00000000000E+00 -0.72920264774E+02  0.72920264774E+02  0.00000000000E+00 0.  1.
         23    2    1    2    0    0  0.65229248216E+00  0.33199687218E+02 -0.11054104326E+02  0.97825538557E+02  0.91350960885E+02 0.  0.
         23    2    1    2    0    0 -0.65229248216E+00 -0.33199687218E+02  0.99579784318E+02  0.13654067098E+03  0.87318821972E+02 0.  0.
          5    1    3    3  502    0 -0.31864330162E+02 -0.12428763531E+02  0.12702508058E+02  0.36786592810E+02  0.47000000000E+01 0. -1.
         -5    1    4    4    0  503  0.23153816648E+02  0.22257902980E+02  0.28681391287E+02  0.43315420772E+02  0.47000000000E+01 0.  1.
          5    1    4    4  503    0 -0.23806109131E+02 -0.55457590198E+02  0.70898393031E+02  0.93225250211E+02  0.47000000000E+01 0. -1.
         -5    1    3    3    0  502  0.32516622644E+02  0.45628450749E+02 -0.23756612384E+02  0.61038945747E+02  0.47000000000E+01 0.  1.
<mgrwt>
<rscale>  0 0.96240041E+02</rscale>
<asrwt>0</asrwt>
<pdfrwt beam="1">  1        1 0.24837838E-01 0.97198985E+02</pdfrwt>
<pdfrwt beam="2">  1       -1 0.11218502E-01 0.97198985E+02</pdfrwt>
<totfact> 0.90143614E+03</totfact>
</mgrwt>
</event>
<event>
 8    1  0.3400573E-004  0.9078812E+02  0.7546771E-02  0.1302048E+00
          3   -1    0    0  501    0  0.00000000000E+00  0.00000000000E+00  0.25537959259E+03  0.25537959259E+03  0.00000000000E+00 0. -1.
         -3   -1    0    0    0  501 -0.00000000000E+00 -0.00000000000E+00 -0.31669356026E+02  0.31669356026E+02  0.00000000000E+00 0.  1.
         23    2    1    2    0    0  0.12469489617E+01 -0.68370731302E+01  0.10829963882E+03  0.14131983140E+03  0.90521724070E+02 0.  0.
         23    2    1    2    0    0 -0.12469489617E+01  0.68370731302E+01  0.11541059775E+03  0.14572911721E+03  0.88707773509E+02 0.  0.
          5    1    4    4  502    0  0.94914514224E+00  0.36518392045E+02  0.10882177382E+03  0.11488586637E+03  0.47000000000E+01 0. -1.
         -5    1    3    3    0  503 -0.23532471248E+02 -0.41428101811E+02  0.53821720697E+02  0.72034244922E+02  0.47000000000E+01 0.  1.
          5    1    3    3  503    0  0.24779420210E+02  0.34591028680E+02  0.54477918120E+02  0.69285586479E+02  0.47000000000E+01 0. -1.
         -5    1    4    4    0  502 -0.21960941039E+01 -0.29681318914E+02  0.65888239234E+01  0.30843250842E+02  0.47000000000E+01 0.  1.
<mgrwt>
<rscale>  0 0.90332574E+02</rscale>
<asrwt>0</asrwt>
<pdfrwt beam="1">  1        3 0.39289167E-01 0.90788121E+02</pdfrwt>
<pdfrwt beam="2">  1       -3 0.48722088E-02 0.90788121E+02</pdfrwt>
<totfact> 0.32201504E+03</totfact>
</mgrwt>
</event>
<event>
 8    1  0.3400573E-004  0.1036287E+03  0.7546771E-02  0.1273237E+00
         -1   -1    0    0    0  501 -0.00000000000E+00  0.00000000000E+00  0.16772681701E+02  0.16772681701E+02  0.00000000000E+00 0.  1.
          1   -1    0    0  501    0  0.00000000000E+00 -0.00000000000E+00 -0.67495168787E+03  0.67495168787E+03  0.00000000000E+00 0. -1.
         23    2    1    2    0    0  0.46596554429E+01  0.45941943838E+02 -0.41390949180E+03  0.42668486863E+03  0.92771413281E+02 0.  0.
         23    2    1    2    0    0 -0.46596554429E+01 -0.45941943838E+02 -0.24426951437E+03  0.26503950095E+03  0.91901941312E+02 0.  0.
          5    1    3    3  502    0 -0.21424651491E+02  0.33148778722E+02 -0.37876581926E+03  0.38084576020E+03  0.47000000000E+01 0. -1.
         -5    1    4    4    0  503  0.43201663011E+02 -0.17590048166E+02 -0.10457465793E+03  0.11460254169E+03  0.47000000000E+01 0.  1.
          5    1    4    4  503    0 -0.47861318454E+02 -0.28351895672E+02 -0.13969485644E+03  0.15043695925E+03  0.47000000000E+01 0. -1.
         -5    1    3    3    0  502  0.26084306934E+02  0.12793165116E+02 -0.35143672535E+02  0.45839108424E+02  0.47000000000E+01 0.  1.
<mgrwt>
<rscale>  0 0.10343375E+03</rscale>
<asrwt>0</asrwt>
<pdfrwt beam="1">  1        1 0.10383870E+00 0.10362871E+03</pdfrwt>
<pdfrwt beam="2">  1       -1 0.25804130E-02 0.10362871E+03</pdfrwt>
<totfact> 0.13076204E+04</totfact>
</mgrwt>
</event>
<event>
 8    1  0.3400573E-004  0.1099511E+03  0.7546771E-02  0.1260969E+00
          1   -1    0    0  501    0  0.00000000000E+00  0.00000000000E+00  0.33561781701E+02  0.33561781701E+02  0.00000000000E+00 0. -1.
         -1   -1    0    0    0  501 -0.00000000000E+00 -0.00000000000E+00 -0.43387278835E+03  0.43387278835E+03  0.00000000000E+00 0.  1.
         23    2    1    2    0    0 -0.26219801104E+02  0.55070913752E+02 -0.29736526317E+03  0.31681232591E+03  0.90684434157E+02 0.  0.
         23    2    1    2    0    0  0.26219801104E+02 -0.55070913752E+02 -0.10294574348E+03  0.15062224414E+03  0.91481969905E+02 0.  0.
          5    1    3    3  502    0 -0.27416988583E+02  0.27760617462E+02 -0.33927378904E+02  0.51918206673E+02  0.47000000000E+01 0. -1.
         -5    1    4    4    0  503 -0.67690801857E+01  0.19915253292E+02 -0.45829376456E+02  0.50644442011E+02  0.47000000000E+01 0.  1.
          5    1    4    4  503    0  0.32988881289E+02 -0.74986167044E+02 -0.57116367027E+02  0.99977802132E+02  0.47000000000E+01 0. -1.
         -5    1    3    3    0  502  0.11971874794E+01  0.27310296290E+02 -0.26343788426E+03  0.26489411924E+03  0.47000000000E+01 0.  1.
<mgrwt>
<rscale>  0 0.10978501E+03</rscale>
<asrwt>0</asrwt>
<pdfrwt beam="1">  1        1 0.51633513E-02 0.10995105E+03</pdfrwt>
<pdfrwt beam="2">  1       -1 0.66749656E-01 0.10995105E+03</pdfrwt>
<totfact> 0.35567727E+03</totfact>
</mgrwt>
</event>
<event>
 8    1  0.3400573E-004  0.9775468E+02  0.7546771E-02  0.1286052E+00
          4   -1    0    0  501    0  0.00000000000E+00  0.00000000000E+00  0.17000973185E+03  0.17000973185E+03  0.00000000000E+00 0. -1.
         -4   -1    0    0    0  501 -0.00000000000E+00 -0.00000000000E+00 -0.57543549027E+02  0.57543549027E+02  0.00000000000E+00 0.  1.
         23    2    1    2    0    0  0.29141595554E+02  0.19929508996E+02  0.32792426437E+02  0.10144267333E+03  0.89268442464E+02 0.  0.
         23    2    1    2    0    0 -0.29141595554E+02 -0.19929508996E+02  0.79673756389E+02  0.12611060755E+03  0.91156787789E+02 0.  0.
          5    1    4    4  502    0 -0.29414458681E+02 -0.40162910706E+02  0.89964899628E+02  0.10292736731E+03  0.47000000000E+01 0. -1.
         -5    1    3    3    0  503 -0.23900695598E+02 -0.89019701164E+01 -0.94586303940E+01  0.27605144646E+02  0.47000000000E+01 0.  1.
          5    1    3    3  503    0  0.53042291151E+02  0.28831479112E+02  0.42251056831E+02  0.73837528681E+02  0.47000000000E+01 0.  1.
         -5    1    4    4    0  502  0.27286312705E+00  0.20233401711E+02 -0.10291143239E+02  0.23183240245E+02  0.47000000000E+01 0.  1.
<mgrwt>
<rscale>  0 0.97312068E+02</rscale>
<asrwt>0</asrwt>
<pdfrwt beam="1">  1        4 0.26155343E-01 0.97754682E+02</pdfrwt>
<pdfrwt beam="2">  1       -4 0.88528538E-02 0.97754682E+02</pdfrwt>
<totfact> 0.19490826E+03</totfact>
</mgrwt>
</event>
<event>
 8    1  0.3400573E-004  0.9782775E+02  0.7546771E-02  0.1286100E+00
          1   -1    0    0  501    0  0.00000000000E+00  0.00000000000E+00  0.15031607232E+02  0.15031607232E+02  0.00000000000E+00 0. -1.
         -1   -1    0    0    0  501 -0.00000000000E+00 -0.00000000000E+00 -0.66443869835E+03  0.66443869835E+03  0.00000000000E+00 0.  1.
         23    2    1    2    0    0 -0.14350562433E+02 -0.25838738491E+02 -0.24308346426E+03  0.26203022504E+03  0.93256041031E+02 0.  0.
         23    2    1    2    0    0  0.14350562433E+02  0.25838738491E+02 -0.40632362686E+03  0.41744008054E+03  0.91015119903E+02 0.  0.
          5    1    4    4  502    0  0.41725986567E+02  0.42759253758E+02 -0.20777052697E+03  0.21624082319E+03  0.47000000000E+01 0. -1.
         -5    1    3    3    0  503 -0.38627955421E+02 -0.41785103465E+02 -0.21059383200E+03  0.21819708038E+03  0.47000000000E+01 0.  1.
          5    1    3    3  503    0  0.24277392988E+02  0.15946364974E+02 -0.32489632267E+02  0.43833144662E+02  0.47000000000E+01 0. -1.
         -5    1    4    4    0  502 -0.27375424134E+02 -0.16920515267E+02 -0.19855309989E+03  0.20119925735E+03  0.47000000000E+01 0.  1.
<mgrwt>
<rscale>  0 0.97289877E+02</rscale>
<asrwt>0</asrwt>
<pdfrwt beam="1">  1        1 0.23125556E-02 0.97827748E+02</pdfrwt>
<pdfrwt beam="2">  1       -1 0.10222131E+00 0.97827748E+02</pdfrwt>
<totfact> 0.44077821E+03</totfact>
</mgrwt>
</event>
<event>
 8    1  0.3400573E-004  0.9903177E+02  0.7546771E-02  0.1285138E+00
         -2   -1    0    0    0  501 -0.00000000000E+00  0.00000000000E+00  0.22690613076E+03  0.22690613076E+03  0.00000000000E+00 0.  1.
          2   -1    0    0  501    0  0.00000000000E+00 -0.00000000000E+00 -0.65336909814E+02  0.65336909814E+02  0.00000000000E+00 0. -1.
         23    2    1    2    0    0 -0.16996349612E+02 -0.14512580338E+02 -0.69877845172E+01  0.99277998203E+02  0.96476944949E+02 0.  0.
         23    2    1    2    0    0  0.16996349612E+02  0.14512580338E+02  0.16855700546E+03  0.19296504237E+03  0.91238986176E+02 0.  0.
          5    1    4    4  502    0 -0.25234098498E+02  0.31197217923E+02  0.41325130021E+02  0.57791716573E+02  0.47000000000E+01 0. -1.
         -5    1    3    3    0  503  0.26135223248E+02  0.20439978719E+01  0.29848837661E+02  0.40003386497E+02  0.47000000000E+01 0.  1.
          5    1    3    3  503    0 -0.43131572861E+02 -0.16556578209E+02 -0.36836622178E+02  0.59274611706E+02  0.47000000000E+01 0. -1.
         -5    1    4    4    0  502  0.42230448110E+02 -0.16684637586E+02  0.12723187544E+03  0.13517332580E+03  0.47000000000E+01 0.  1.
<mgrwt>
<rscale>  0 0.97732581E+02</rscale>
<asrwt>0</asrwt>
<pdfrwt beam="1">  1        2 0.10051832E-01 0.99031772E+02</pdfrwt>
<pdfrwt beam="2">  1       -2 0.34908635E-01 0.99031772E+02</pdfrwt>
<totfact> 0.45730336E+03</totfact>
</mgrwt>
</event>
<event>
 7    1  0.3616349E-004  0.3482327E+03  0.7546771E-02  0.1063343E+00
          2   -1    0    0  501    0  0.00000000000E+00  0.00000000000E+00  0.86508522306E+03  0.86508522306E+03  0.00000000000E+00 0. -1.
         -2   -1    0    0    0  501 -0.00000000000E+00 -0.00000000000E+00 -0.35044532557E+02  0.35044532557E+02  0.00000000000E+00 0.  1.
         23    2    1    2    0    0 -0.33576468398E+02 -0.62482234036E+02  0.27086797473E+03  0.29445904393E+03  0.91133199313E+02 0.  0.
          5    1    3    3  502    0  0.24339417222E+02 -0.13598273428E+02  0.14279778182E+03  0.14556997205E+03  0.47000000000E+01 0. -1.
         -5    1    3    3    0  502 -0.57915885621E+02 -0.48883960608E+02  0.12807019291E+03  0.14888907187E+03  0.47000000000E+01 0.  1.
          5    1    1    2  503    0  0.51380646047E+02  0.95520378744E+02  0.55732704360E+03  0.56780246307E+03  0.47000000000E+01 0. -1.
         -5    1    1    2    0  503 -0.17804177649E+02 -0.33038144708E+02  0.18456721749E+01  0.37868248616E+02  0.47000000000E+01 0.  1.
<mgrwt>
<rscale>  0 0.34823272E+03</rscale>
<asrwt>0</asrwt>
<pdfrwt beam="1">  1        2 0.13309002E+00 0.34823272E+03</pdfrwt>
<pdfrwt beam="2">  1       -2 0.53914672E-02 0.34823272E+03</pdfrwt>
<totfact> 0.56116706E+03</totfact>
</mgrwt>
</event>
<event>
 8    1  0.3400573E-004  0.9524609E+02  0.7546771E-02  0.1290689E+00
          3   -1    0    0  501    0  0.00000000000E+00  0.00000000000E+00  0.11994856548E+02  0.11994856548E+02  0.00000000000E+00 0. -1.
         -3   -1    0    0    0  501 -0.00000000000E+00 -0.00000000000E+00 -0.82328768346E+03  0.82328768346E+03  0.00000000000E+00 0.  1.
         23    2    1    2    0    0  0.17218925828E+02 -0.20641622432E+02 -0.52582956519E+03  0.53438614335E+03  0.91374233764E+02 0.  0.
         23    2    1    2    0    0 -0.17218925828E+02  0.20641622432E+02 -0.28546326173E+03  0.30089639666E+03  0.91251299957E+02 0.  0.
          5    1    4    4  502    0 -0.43638654260E+02  0.41615060405E+02 -0.16611308909E+03  0.17678176876E+03  0.47000000000E+01 0. -1.
         -5    1    4    4    0  502  0.26419728432E+02 -0.20973437973E+02 -0.11935017264E+03  0.12411462790E+03  0.47000000000E+01 0.  1.
          5    1    3    3  503    0  0.19844740743E+02  0.29277381730E+02 -0.11260858190E+03  0.11812604088E+03  0.47000000000E+01 0. -1.
         -5    1    3    3    0  503 -0.26258149146E+01 -0.49919004162E+02 -0.41322098329E+03  0.41626010247E+03  0.47000000000E+01 0.  1.
<mgrwt>
<rscale>  0 0.95216599E+02</rscale>
<asrwt>0</asrwt>
<pdfrwt beam="1">  1        3 0.18453627E-02 0.95246095E+02</pdfrwt>
<pdfrwt beam="2">  1       -3 0.12665963E+00 0.95246095E+02</pdfrwt>
<totfact> 0.12150515E+03</totfact>
</mgrwt>
</event>
<event>
 8    1  0.3437775E-004  0.9199162E+02  0.7546771E-02  0.1298437E+00
          1   -1    0    0  501    0  0.00000000000E+00  0.00000000000E+00  0.55764017810E+03  0.55764017810E+03  0.00000000000E+00 0. -1.
         -1   -1    0    0    0  501 -0.00000000000E+00 -0.00000000000E+00 -0.33726194589E+02  0.33726194589E+02  0.00000000000E+00 0.  1.
         23    2    1    2    0    0  0.11607286511E+02  0.12051208917E+01  0.48143994324E+03  0.49004262688E+03  0.90670699798E+02 0.  0.
         23    2    1    2    0    0 -0.11607286511E+02 -0.12051208917E+01  0.42474040270E+02  0.10132374580E+03  0.91248429850E+02 0.  0.
          5    1    3    3  502    0 -0.22156698817E+02  0.35945877410E+02  0.24287990561E+03  0.24656797025E+03  0.47000000000E+01 0. -1.
         -5    1    4    4    0  503 -0.30626618122E+02 -0.37809771278E+02  0.13560625703E+02  0.50730159778E+02  0.47000000000E+01 0.  1.
          5    1    4    4  503    0  0.19019331611E+02  0.36604650387E+02  0.28913414567E+02  0.50593586024E+02  0.47000000000E+01 0. -1.
         -5    1    3    3    0  502  0.33763985328E+02 -0.34740756519E+02  0.23856003762E+03  0.24347465663E+03  0.47000000000E+01 0.  1.
<mgrwt>
<rscale>  0 0.91848022E+02</rscale>
<asrwt>0</asrwt>
<pdfrwt beam="1">  1        1 0.85790790E-01 0.91991616E+02</pdfrwt>
<pdfrwt beam="2">  1       -1 0.51886457E-02 0.91991616E+02</pdfrwt>
<totfact> 0.60886862E+03</totfact>
</mgrwt>
</event>
<event>
 8    1  0.3400573E-004  0.1164882E+03  0.7546771E-02  0.1249907E+00
          3   -1    0    0  501    0  0.00000000000E+00  0.00000000000E+00  0.65813466207E+02  0.65813466207E+02  0.00000000000E+00 0. -1.
         -3   -1    0    0    0  501 -0.00000000000E+00 -0.00000000000E+00 -0.25233264916E+03  0.25233264916E+03  0.00000000000E+00 0.  1.
         23    2    1    2    0    0 -0.57076347569E+02 -0.37906243340E+02 -0.16326410654E+03  0.19935933946E+03  0.91620876506E+02 0.  0.
         23    2    1    2    0    0  0.57076347569E+02  0.37906243340E+02 -0.23255076420E+02  0.11878677591E+03  0.94206723833E+02 0.  0.
          5    1    3    3  502    0  0.18255317256E+02 -0.17689955954E+02 -0.10757039346E+02  0.27999911522E+02  0.47000000000E+01 0. -1.
         -5    1    4    4    0  503 -0.93423183897E+01  0.45896499881E+02 -0.21373286337E+02  0.51697920491E+02  0.47000000000E+01 0.  1.
          5    1    4    4  503    0  0.66418665959E+02 -0.79902565407E+01 -0.18817900831E+01  0.67088855417E+02  0.47000000000E+01 0. -1.
         -5    1    3    3    0  502 -0.75331664824E+02 -0.20216287386E+02 -0.15250706719E+03  0.17135942794E+03  0.47000000000E+01 0.  1.
<mgrwt>
<rscale>  0 0.11596439E+03</rscale>
<asrwt>0</asrwt>
<pdfrwt beam="1">  1        3 0.10125149E-01 0.11648819E+03</pdfrwt>
<pdfrwt beam="2">  1       -3 0.38820407E-01 0.11648819E+03</pdfrwt>
<totfact> 0.10686015E+03</totfact>
</mgrwt>
</event>
<event>
 8    1  0.3400573E-004  0.1016756E+03  0.7546771E-02  0.1284882E+00
         -2   -1    0    0    0  501 -0.00000000000E+00  0.00000000000E+00  0.20256645462E+02  0.20256645462E+02  0.00000000000E+00 0.  1.
          2   -1    0    0  501    0  0.00000000000E+00 -0.00000000000E+00 -0.67673706384E+03  0.67673706384E+03  0.00000000000E+00 0. -1.
         23    2    1    2    0    0  0.31204082636E+02 -0.33209178013E+02 -0.55015961270E+03  0.55947612638E+03  0.90892201343E+02 0.  0.
         23    2    1    2    0    0 -0.31204082636E+02  0.33209178013E+02 -0.10632080568E+03  0.13751758293E+03  0.74366844867E+02 0.  0.
          5    1    4    4  502    0 -0.19845224308E+02 -0.17294764943E+02 -0.67616247746E+02  0.72711682565E+02  0.47000000000E+01 0. -1.
         -5    1    3    3    0  503 -0.15392570882E+02  0.23238304225E+02 -0.16196495329E+03  0.16441315676E+03  0.47000000000E+01 0.  1.
          5    1    3    3  503    0  0.46596653517E+02 -0.56447482238E+02 -0.38819465941E+03  0.39506296961E+03  0.47000000000E+01 0. -1.
         -5    1    4    4    0  502 -0.11358858328E+02  0.50503942956E+02 -0.38704557938E+02  0.64805900362E+02  0.47000000000E+01 0.  1.
<mgrwt>
<rscale>  0 0.97850754E+02</rscale>
<asrwt>0</asrwt>
<pdfrwt beam="1">  1        2 0.10411338E+00 0.10167564E+03</pdfrwt>
<pdfrwt beam="2">  1       -2 0.31164075E-02 0.10167564E+03</pdfrwt>
<totfact> 0.16206631E+04</totfact>
</mgrwt>
</event>
<event>
 8    1  0.3400573E-004  0.1134049E+03  0.7546771E-02  0.1261449E+00
          2   -1    0    0  501    0  0.00000000000E+00  0.00000000000E+00  0.78218008267E+03  0.78218008267E+03  0.00000000000E+00 0. -1.
         -2   -1    0    0    0  501 -0.00000000000E+00 -0.00000000000E+00 -0.56762812888E+02  0.56762812888E+02  0.00000000000E+00 0.  1.
         23    2    1    2    0    0  0.18122139371E+02 -0.56900905891E+02 -0.59375250257E+01  0.98847956907E+02  0.78546415289E+02 0.  0.
         23    2    1    2    0    0 -0.18122139371E+02  0.56900905891E+02  0.73135479480E+03  0.74009493865E+03  0.96408284398E+02 0.  0.
          5    1    3    3  502    0 -0.31772258405E+01 -0.35425050342E+02  0.33391166153E+02  0.49011110300E+02  0.47000000000E+01 0. -1.
         -5    1    3    3    0  502  0.21299365212E+02 -0.21475855549E+02 -0.39328691178E+02  0.49836846608E+02  0.47000000000E+01 0.  1.
          5    1    4    4  503    0 -0.45146316958E+02  0.51615935598E+02  0.65834794831E+03  0.66192635979E+03  0.47000000000E+01 0. -1.
         -5    1    4    4    0  503  0.27024177587E+02  0.52849702934E+01  0.73006846497E+02  0.78168578858E+02  0.47000000000E+01 0.  1.
<mgrwt>
<rscale>  0 0.10952662E+03</rscale>
<asrwt>0</asrwt>
<pdfrwt beam="1">  1        2 0.12033539E+00 0.11340495E+03</pdfrwt>
<pdfrwt beam="2">  1       -2 0.87327410E-02 0.11340495E+03</pdfrwt>
<totfact> 0.29317722E+03</totfact>
</mgrwt>
</event>
<event>
 8    1  0.3400573E-004  0.1023053E+03  0.7546771E-02  0.1278825E+00
         -1   -1    0    0    0  501 -0.00000000000E+00  0.00000000000E+00  0.47732425425E+02  0.47732425425E+02  0.00000000000E+00 0.  1.
          1   -1    0    0  501    0  0.00000000000E+00 -0.00000000000E+00 -0.26753403552E+03  0.26753403552E+03  0.00000000000E+00 0. -1.
         23    2    1    2    0    0  0.20275766147E+02 -0.77784736737E+01 -0.18276314776E+03  0.20646288216E+03  0.93557159993E+02 0.  0.
         23    2    1    2    0    0 -0.20275766147E+02  0.77784736737E+01 -0.37038462331E+02  0.10880357878E+03  0.99973795154E+02 0.  0.
          5    1    3    3  502    0  0.13517447316E+02 -0.39823063030E+02 -0.16192344703E+03  0.16736155601E+03  0.47000000000E+01 0. -1.
         -5    1    3    3    0  502  0.67583188314E+01  0.32044589356E+02 -0.20839700726E+02  0.39101326151E+02  0.47000000000E+01 0.  1.
          5    1    4    4  503    0 -0.19703797942E+02 -0.22295288399E+02 -0.62328035070E+02  0.69225670772E+02  0.47000000000E+01 0. -1.
         -5    1    4    4    0  503 -0.57196820561E+00  0.30073762073E+02  0.25289572739E+02  0.39577908007E+02  0.47000000000E+01 0.  1.
<mgrwt>
<rscale>  0 0.10070284E+03</rscale>
<asrwt>0</asrwt>
<pdfrwt beam="1">  1        1 0.41159081E-01 0.10230528E+03</pdfrwt>
<pdfrwt beam="2">  1       -1 0.73434503E-02 0.10230528E+03</pdfrwt>
<totfact> 0.92057095E+03</totfact>
</mgrwt>
</event>
<event>
 8    1  0.3400573E-004  0.1142678E+03  0.7546771E-02  0.1253596E+00
         -2   -1    0    0    0  501 -0.00000000000E+00  0.00000000000E+00  0.21308467408E+03  0.21308467408E+03  0.00000000000E+00 0.  1.
          2   -1    0    0  501    0  0.00000000000E+00 -0.00000000000E+00 -0.10047647926E+03  0.10047647926E+03  0.00000000000E+00 0. -1.
         23    2    1    2    0    0 -0.54310255756E+02  0.39133703411E+02 -0.42470107549E+02  0.12190505269E+03  0.92607133712E+02 0.  0.
         23    2    1    2    0    0  0.54310255756E+02 -0.39133703411E+02  0.15507830237E+03  0.19165610064E+03  0.90563405540E+02 0.  0.
          5    1    4    4  502    0  0.12571284011E+02 -0.36662891893E+02  0.14248407496E+03  0.14773627327E+03  0.47000000000E+01 0.  1.
         -5    1    3    3    0  503 -0.80621450024E+01 -0.29628320044E+02 -0.83624016764E+01  0.32169166798E+02  0.47000000000E+01 0.  1.
          5    1    3    3  503    0 -0.46248110754E+02  0.68762023455E+02 -0.34107705872E+02  0.89735885897E+02  0.47000000000E+01 0. -1.
         -5    1    4    4    0  502  0.41738971745E+02 -0.24708115179E+01  0.12594227414E+02  0.43919827368E+02  0.47000000000E+01 0. -1.
<mgrwt>
<rscale>  0 0.11385307E+03</rscale>
<asrwt>0</asrwt>
<pdfrwt beam="1">  1        2 0.15457920E-01 0.11426781E+03</pdfrwt>
<pdfrwt beam="2">  1       -2 0.32782257E-01 0.11426781E+03</pdfrwt>
<totfact> 0.31066513E+03</totfact>
</mgrwt>
</event>
<event>
 8    1  0.3400573E-004  0.9683910E+02  0.7546771E-02  0.1288902E+00
         -1   -1    0    0    0  501 -0.00000000000E+00  0.00000000000E+00  0.99202618297E+01  0.99202618297E+01  0.00000000000E+00 0.  1.
          1   -1    0    0  501    0  0.00000000000E+00 -0.00000000000E+00 -0.10748101917E+04  0.10748101917E+04  0.00000000000E+00 0. -1.
         23    2    1    2    0    0 -0.20125475160E+02  0.11555899136E+02 -0.31488316363E+03  0.32849771171E+03  0.90668441637E+02 0.  0.
         23    2    1    2    0    0  0.20125475160E+02 -0.11555899136E+02 -0.75000676629E+03  0.75623274186E+03  0.94017215616E+02 0.  0.
          5    1    3    3  502    0 -0.17081851968E+02 -0.26962189611E+02 -0.25528355936E+03  0.25731407854E+03  0.47000000000E+01 0. -1.
         -5    1    3    3    0  502 -0.30436231921E+01  0.38518088746E+02 -0.59599604268E+02  0.71183633173E+02  0.47000000000E+01 0.  1.
          5    1    4    4  503    0  0.21082085254E+02 -0.51291762435E+02 -0.49240367311E+03  0.49553886478E+03  0.47000000000E+01 0. -1.
         -5    1    4    4    0  503 -0.95661009430E+00  0.39735863299E+02 -0.25760309317E+03  0.26069387708E+03  0.47000000000E+01 0.  1.
<mgrwt>
<rscale>  0 0.96016742E+02</rscale>
<asrwt>0</asrwt>
<pdfrwt beam="1">  1        1 0.16535530E+00 0.96839095E+02</pdfrwt>
<pdfrwt beam="2">  1       -1 0.15261952E-02 0.96839095E+02</pdfrwt>
<totfact> 0.13453525E+04</totfact>
</mgrwt>
</event>
<event>
 8    1  0.3400573E-004  0.9305308E+02  0.7546771E-02  0.1296013E+00
         -1   -1    0    0    0  501 -0.00000000000E+00  0.00000000000E+00  0.25658471059E+02  0.25658471059E+02  0.00000000000E+00 0.  1.
          1   -1    0    0  501    0  0.00000000000E+00 -0.00000000000E+00 -0.37551123245E+03  0.37551123245E+03  0.00000000000E+00 0. -1.
         23    2    1    2    0    0  0.16356863816E+02 -0.24003772415E+00 -0.24021721732E+03  0.25736835112E+03  0.90920581015E+02 0.  0.
         23    2    1    2    0    0 -0.16356863816E+02  0.24003772415E+00 -0.10963554407E+03  0.14380135238E+03  0.91603885351E+02 0.  0.
          5    1    3    3  502    0  0.13850015769E+02 -0.38160099456E+02 -0.56664586432E+02  0.69864021376E+02  0.47000000000E+01 0. -1.
         -5    1    3    3    0  502  0.25068480469E+01  0.37920061732E+02 -0.18355263089E+03  0.18750432975E+03  0.47000000000E+01 0.  1.
          5    1    4    4  503    0  0.28865335038E+00 -0.23646270632E+02 -0.11166719497E+03  0.11424045635E+03  0.47000000000E+01 0. -1.
         -5    1    4    4    0  503 -0.16645517166E+02  0.23886308356E+02  0.20316508991E+01  0.29560896028E+02  0.47000000000E+01 0.  1.
<mgrwt>
<rscale>  0 0.92884480E+02</rscale>
<asrwt>0</asrwt>
<pdfrwt beam="1">  1        1 0.57770956E-01 0.93053084E+02</pdfrwt>
<pdfrwt beam="2">  1       -1 0.39474573E-02 0.93053084E+02</pdfrwt>
<totfact> 0.15000702E+04</totfact>
</mgrwt>
</event>
<event>
 8    1  0.3400573E-004  0.1287839E+03  0.7546771E-02  0.1229924E+00
         -2   -1    0    0    0  501 -0.00000000000E+00  0.00000000000E+00  0.73359571202E+02  0.73359571202E+02  0.00000000000E+00 0.  1.
          2   -1    0    0  501    0  0.00000000000E+00 -0.00000000000E+00 -0.23324366113E+03  0.23324366113E+03  0.00000000000E+00 0. -1.
         23    2    1    2    0    0 -0.76730123626E+02  0.52757048008E+02 -0.11144902010E+03  0.16901240310E+03  0.86449351270E+02 0.  0.
         23    2    1    2    0    0  0.76730123626E+02 -0.52757048008E+02 -0.48435069832E+02  0.13759082923E+03  0.88963263842E+02 0.  0.
          5    1    3    3  502    0 -0.11931325592E+02  0.41229847565E+02 -0.89675406526E+02  0.99529017860E+02  0.47000000000E+01 0. -1.
         -5    1    3    3    0  502 -0.64798798034E+02  0.11527200443E+02 -0.21773613575E+02  0.69483385243E+02  0.47000000000E+01 0.  1.
          5    1    4    4  503    0  0.24654606868E+02  0.24428832204E+02 -0.18882746336E+02  0.39790270065E+02  0.47000000000E+01 0. -1.
         -5    1    4    4    0  503  0.52075516758E+02 -0.77185880212E+02 -0.29552323496E+02  0.97800559169E+02  0.47000000000E+01 0.  1.
<mgrwt>
<rscale>  0 0.12835077E+03</rscale>
<asrwt>0</asrwt>
<pdfrwt beam="1">  1        2 0.35883640E-01 0.12878385E+03</pdfrwt>
<pdfrwt beam="2">  1       -2 0.11286088E-01 0.12878385E+03</pdfrwt>
<totfact> 0.74350949E+03</totfact>
</mgrwt>
</event>
<event>
 8    1  0.3400573E-004  0.9460705E+02  0.7546771E-02  0.1292822E+00
         -2   -1    0    0    0  501 -0.00000000000E+00  0.00000000000E+00  0.20503327623E+02  0.20503327623E+02  0.00000000000E+00 0.  1.
          2   -1    0    0  501    0  0.00000000000E+00 -0.00000000000E+00 -0.52144206413E+03  0.52144206413E+03  0.00000000000E+00 0. -1.
         23    2    1    2    0    0  0.14139730709E+01  0.26703494083E+02 -0.36514167288E+03  0.37719879965E+03  0.90749199838E+02 0.  0.
         23    2    1    2    0    0 -0.14139730709E+01 -0.26703494083E+02 -0.13579706363E+03  0.16474659211E+03  0.89361743508E+02 0.  0.
          5    1    3    3  502    0 -0.36840639214E+02  0.28635793336E+02 -0.27753168171E+03  0.28146610046E+03  0.47000000000E+01 0. -1.
         -5    1    4    4    0  503 -0.12766850146E+02 -0.56744696404E+02 -0.10433098018E+03  0.11954077320E+03  0.47000000000E+01 0.  1.
          5    1    4    4  503    0  0.11352877075E+02  0.30041202321E+02 -0.31466083457E+02  0.45205818906E+02  0.47000000000E+01 0. -1.
         -5    1    3    3    0  502  0.38254612285E+02 -0.19322992523E+01 -0.87609991170E+02  0.95732699191E+02  0.47000000000E+01 0.  1.
<mgrwt>
<rscale>  0 0.94272765E+02</rscale>
<asrwt>0</asrwt>
<pdfrwt beam="1">  1        2 0.80221859E-01 0.94607046E+02</pdfrwt>
<pdfrwt beam="2">  1       -2 0.31543580E-02 0.94607046E+02</pdfrwt>
<totfact> 0.21191106E+04</totfact>
</mgrwt>
</event>
<event>
 7    1  0.3400573E-004  0.1845124E+03  0.7546771E-02  0.1180274E+00
          3   -1    0    0  501    0  0.00000000000E+00  0.00000000000E+00  0.50336527626E+03  0.50336527626E+03  0.00000000000E+00 0. -1.
         -3   -1    0    0    0  501 -0.00000000000E+00 -0.00000000000E+00 -0.92772233814E+02  0.92772233814E+02  0.00000000000E+00 0.  1.
         23    2    1    2    0    0  0.83367386294E+02 -0.33607360094E+02 -0.20193652729E+02  0.12749903881E+03  0.88139920220E+02 0.  0.
          5    1    1    2  502    0 -0.49167540309E+02 -0.60599059928E+02  0.24922325764E+03  0.26119727263E+03  0.47000000000E+01 0. -1.
         -5    1    3    3    0  503  0.51734317235E+01  0.22378700176E+02  0.11524433238E+02  0.26124187620E+02  0.47000000000E+01 0.  1.
          5    1    3    3  503    0  0.78193954571E+02 -0.55986060270E+02 -0.31718085967E+02  0.10137485119E+03  0.47000000000E+01 0. -1.
         -5    1    1    2    0  502 -0.34199845986E+02  0.94206420022E+02  0.18156343754E+03  0.20744119863E+03  0.47000000000E+01 0.  1.
<mgrwt>
<rscale>  0 0.16769372E+03</rscale>
<asrwt>0</asrwt>
<pdfrwt beam="1">  1        3 0.77440810E-01 0.18451244E+03</pdfrwt>
<pdfrwt beam="2">  1       -3 0.14272652E-01 0.18451244E+03</pdfrwt>
<totfact> 0.15696483E+02</totfact>
</mgrwt>
</event>
<event>
 8    1  0.3400573E-004  0.9135561E+02  0.7546771E-02  0.1301431E+00
          2   -1    0    0  501    0  0.00000000000E+00  0.00000000000E+00  0.84087445214E+03  0.84087445214E+03  0.00000000000E+00 0. -1.
         -2   -1    0    0    0  501 -0.00000000000E+00 -0.00000000000E+00 -0.11667165428E+02  0.11667165428E+02  0.00000000000E+00 0.  1.
         23    2    1    2    0    0  0.97617723310E+01  0.40561670062E+00  0.59979371038E+03  0.60671108692E+03  0.90831664368E+02 0.  0.
         23    2    1    2    0    0 -0.97617723310E+01 -0.40561670062E+00  0.22941357634E+03  0.24583053065E+03  0.87787265994E+02 0.  0.
          5    1    3    3  502    0  0.11414810993E+02 -0.43421578644E+02  0.23848442761E+03  0.24271926915E+03  0.47000000000E+01 0. -1.
         -5    1    3    3    0  502 -0.16530386618E+01  0.43827195344E+02  0.36130928277E+03  0.36399181777E+03  0.47000000000E+01 0.  1.
          5    1    4    4  503    0 -0.25354308254E+02 -0.15484834448E+02  0.22080746946E+02  0.37313140187E+02  0.47000000000E+01 0. -1.
         -5    1    4    4    0  503  0.15592535923E+02  0.15079217748E+02  0.20733282939E+03  0.20851739047E+03  0.47000000000E+01 0.  1.
<mgrwt>
<rscale>  0 0.90589444E+02</rscale>
<asrwt>0</asrwt>
<pdfrwt beam="1">  1        2 0.12936525E+00 0.91355613E+02</pdfrwt>
<pdfrwt beam="2">  1       -2 0.17949492E-02 0.91355613E+02</pdfrwt>
<totfact> 0.27457756E+04</totfact>
</mgrwt>
</event>
<event>
 8    1  0.3400573E-004  0.9270513E+02  0.7546771E-02  0.1297235E+00
         -3   -1    0    0    0  501 -0.00000000000E+00  0.00000000000E+00  0.31222587861E+03  0.31222587861E+03  0.00000000000E+00 0.  1.
          3   -1    0    0  501    0  0.00000000000E+00 -0.00000000000E+00 -0.32836354506E+02  0.32836354506E+02  0.00000000000E+00 0. -1.
         23    2    1    2    0    0 -0.35175510021E+01 -0.13429475596E+02  0.21254072771E+03  0.23187885214E+03  0.91659790266E+02 0.  0.
         23    2    1    2    0    0  0.35175510021E+01  0.13429475596E+02  0.66848796389E+02  0.11318338098E+03  0.90271768405E+02 0.  0.
          5    1    4    4  502    0  0.15768731832E+02 -0.25606674691E+02  0.65215118296E+02  0.71968439935E+02  0.47000000000E+01 0. -1.
         -5    1    3    3    0  503 -0.31876715203E+02 -0.16070725799E+02  0.19457325214E+03  0.19787681432E+03  0.47000000000E+01 0.  1.
          5    1    3    3  503    0  0.28359164201E+02  0.26412502023E+01  0.17967475576E+02  0.34002037812E+02  0.47000000000E+01 0. -1.
         -5    1    4    4    0  502 -0.12251180830E+02  0.39036150287E+02  0.16336780925E+01  0.41214941042E+02  0.47000000000E+01 0.  1.
<mgrwt>
<rscale>  0 0.92360176E+02</rscale>
<asrwt>0</asrwt>
<pdfrwt beam="1">  1        3 0.50517471E-02 0.92705130E+02</pdfrwt>
<pdfrwt beam="2">  1       -3 0.48034749E-01 0.92705130E+02</pdfrwt>
<totfact> 0.20709983E+03</totfact>
</mgrwt>
</event>
<event>
 8    1  0.3400573E-004  0.9131662E+02  0.7546771E-02  0.1300510E+00
         -2   -1    0    0    0  501 -0.00000000000E+00  0.00000000000E+00  0.12787975500E+02  0.12787975500E+02  0.00000000000E+00 0.  1.
          2   -1    0    0  501    0  0.00000000000E+00 -0.00000000000E+00 -0.80947497695E+03  0.80947497695E+03  0.00000000000E+00 0. -1.
         23    2    1    2    0    0 -0.16526768685E+01  0.24128596412E+01 -0.21393039481E+03  0.23260468250E+03  0.91269771912E+02 0.  0.
         23    2    1    2    0    0  0.16526768685E+01 -0.24128596412E+01 -0.58275660664E+03  0.58965826995E+03  0.89905836885E+02 0.  0.
          5    1    3    3  502    0 -0.18410751076E+02  0.33916408399E+02 -0.17629087898E+03  0.18052657014E+03  0.47000000000E+01 0. -1.
         -5    1    3    3    0  502  0.16758074207E+02 -0.31503548758E+02 -0.37639515834E+02  0.52078112367E+02  0.47000000000E+01 0.  1.
          5    1    4    4  503    0 -0.42813062907E+02  0.72276323693E+01 -0.31696617564E+03  0.31996069059E+03  0.47000000000E+01 0. -1.
         -5    1    4    4    0  503  0.44465739775E+02 -0.96404920105E+01 -0.26579043100E+03  0.26969757936E+03  0.47000000000E+01 0.  1.
<mgrwt>
<rscale>  0 0.90973886E+02</rscale>
<asrwt>0</asrwt>
<pdfrwt beam="1">  1        2 0.12453466E+00 0.91316617E+02</pdfrwt>
<pdfrwt beam="2">  1       -2 0.19673801E-02 0.91316617E+02</pdfrwt>
<totfact> 0.25232177E+04</totfact>
</mgrwt>
</event>
<event>
 8    1  0.3400573E-004  0.9620925E+02  0.7546771E-02  0.1289463E+00
         -1   -1    0    0    0  501 -0.00000000000E+00  0.00000000000E+00  0.56678981763E+02  0.56678981763E+02  0.00000000000E+00 0.  1.
          1   -1    0    0  501    0  0.00000000000E+00 -0.00000000000E+00 -0.16091348157E+03  0.16091348157E+03  0.00000000000E+00 0. -1.
         23    2    1    2    0    0 -0.15988160758E+02  0.22397090746E+01 -0.46024932696E+02  0.10665136399E+03  0.94845039037E+02 0.  0.
         23    2    1    2    0    0  0.15988160758E+02 -0.22397090746E+01 -0.58209567107E+02  0.11094109934E+03  0.93053405304E+02 0.  0.
          5    1    4    4  502    0  0.61021469523E+00 -0.46670472521E+02 -0.33282921199E+02  0.57518242418E+02  0.47000000000E+01 0. -1.
         -5    1    3    3    0  503 -0.55380744300E+02  0.49365869773E+01 -0.32910127682E+02  0.64780886334E+02  0.47000000000E+01 0.  1.
          5    1    3    3  503    0  0.39392583542E+02 -0.26968779027E+01 -0.13114805014E+02  0.41870477655E+02  0.47000000000E+01 0. -1.
         -5    1    4    4    0  502  0.15377946063E+02  0.44430763446E+02 -0.24926645908E+02  0.53422856922E+02  0.47000000000E+01 0.  1.
<mgrwt>
<rscale>  0 0.95764737E+02</rscale>
<asrwt>0</asrwt>
<pdfrwt beam="1">  1        1 0.24755920E-01 0.96209246E+02</pdfrwt>
<pdfrwt beam="2">  1       -1 0.87198433E-02 0.96209246E+02</pdfrwt>
<totfact> 0.13235154E+04</totfact>
</mgrwt>
</event>
<event>
 8    1  0.3400573E-004  0.1253202E+03  0.7546771E-02  0.1234638E+00
          1   -1    0    0  501    0  0.00000000000E+00  0.00000000000E+00  0.38797144576E+03  0.38797144576E+03  0.00000000000E+00 0. -1.
         -1   -1    0    0    0  501 -0.00000000000E+00 -0.00000000000E+00 -0.42568941462E+02  0.42568941462E+02  0.00000000000E+00 0.  1.
         23    2    1    2    0    0  0.59131648991E+02  0.62089123086E+02  0.12448927309E+03  0.17664292423E+03  0.91397661069E+02 0.  0.
         23    2    1    2    0    0 -0.59131648991E+02 -0.62089123086E+02  0.22091323120E+03  0.25389746299E+03  0.91157308384E+02 0.  0.
          5    1    3    3  502    0  0.14693216288E+02  0.69422409352E+02  0.10618488226E+03  0.12779937694E+03  0.47000000000E+01 0. -1.
         -5    1    3    3    0  502  0.44438432703E+02 -0.73332862657E+01  0.18304390828E+02  0.48843547293E+02  0.47000000000E+01 0.  1.
          5    1    4    4  503    0 -0.49770928708E+02  0.10158957672E+02  0.74485372993E+02  0.90280178086E+02  0.47000000000E+01 0. -1.
         -5    1    4    4    0  503 -0.93607202829E+01 -0.72248080759E+02  0.14642785821E+03  0.16361728490E+03  0.47000000000E+01 0.  1.
<mgrwt>
<rscale>  0 0.12527635E+03</rscale>
<asrwt>0</asrwt>
<pdfrwt beam="1">  1        1 0.59687912E-01 0.12532016E+03</pdfrwt>
<pdfrwt beam="2">  1       -1 0.65490682E-02 0.12532016E+03</pdfrwt>
<totfact> 0.70033719E+03</totfact>
</mgrwt>
</event>
<event>
 8    1  0.3400573E-004  0.9080548E+02  0.7546771E-02  0.1301138E+00
          1   -1    0    0  501    0  0.00000000000E+00  0.00000000000E+00  0.71687878968E+02  0.71687878968E+02  0.00000000000E+00 0. -1.
         -1   -1    0    0    0  501 -0.00000000000E+00 -0.00000000000E+00 -0.11454544797E+03  0.11454544797E+03  0.00000000000E+00 0.  1.
         23    2    1    2    0    0  0.12553781579E+01  0.41147782094E+01 -0.21524884733E+02  0.92955684200E+02  0.90326802159E+02 0.  0.
         23    2    1    2    0    0 -0.12553781579E+01 -0.41147782094E+01 -0.21332684271E+02  0.93277642740E+02  0.90703516155E+02 0.  0.
          5    1    3    3  502    0 -0.41676775536E+02  0.12495507922E+02 -0.21950766859E+02  0.48959345410E+02  0.47000000000E+01 0. -1.
         -5    1    3    3    0  502  0.42932153694E+02 -0.83807297122E+01  0.42588212538E+00  0.43996338790E+02  0.47000000000E+01 0.  1.
          5    1    4    4  503    0  0.12368191971E+02  0.34019905628E+02  0.14231179201E+02  0.39178343674E+02  0.47000000000E+01 0. -1.
         -5    1    4    4    0  503 -0.13623570129E+02 -0.38134683837E+02 -0.35563863473E+02  0.54099299067E+02  0.47000000000E+01 0.  1.
<mgrwt>
<rscale>  0 0.90711261E+02</rscale>
<asrwt>0</asrwt>
<pdfrwt beam="1">  1        1 0.11028904E-01 0.90805480E+02</pdfrwt>
<pdfrwt beam="2">  1       -1 0.17622377E-01 0.90805480E+02</pdfrwt>
<totfact> 0.12522873E+04</totfact>
</mgrwt>
</event>
<event>
 8    1  0.3400573E-004  0.1432519E+03  0.7546771E-02  0.1216673E+00
          2   -1    0    0  501    0  0.00000000000E+00  0.00000000000E+00  0.35684875451E+03  0.35684875451E+03  0.00000000000E+00 0. -1.
         -2   -1    0    0    0  501 -0.00000000000E+00 -0.00000000000E+00 -0.61627131645E+02  0.61627131645E+02  0.00000000000E+00 0.  1.
         23    2    1    2    0    0 -0.27964240015E+02 -0.73044735013E+02  0.63453826858E+02  0.15667641724E+03  0.12001491384E+03 0.  0.
         23    2    1    2    0    0  0.27964240015E+02  0.73044735013E+02  0.23176779601E+03  0.26179946891E+03  0.93301225195E+02 0.  0.
          5    1    3    3  502    0  0.20595043262E+02 -0.69748980685E+00  0.66079471207E+02  0.69377437356E+02  0.47000000000E+01 0. -1.
         -5    1    4    4    0  503 -0.90642081067E+01  0.32034873898E+02  0.12893901439E+02  0.36010216725E+02  0.47000000000E+01 0.  1.
          5    1    4    4  503    0  0.37028448121E+02  0.41009861115E+02  0.21887389457E+03  0.22578925219E+03  0.47000000000E+01 0. -1.
         -5    1    3    3    0  502 -0.48559283277E+02 -0.72347245206E+02 -0.26256443495E+01  0.87298979889E+02  0.47000000000E+01 0.  1.
<mgrwt>
<rscale>  0 0.13754381E+03</rscale>
<asrwt>0</asrwt>
<pdfrwt beam="1">  1        2 0.54899807E-01 0.14325192E+03</pdfrwt>
<pdfrwt beam="2">  1       -2 0.94810974E-02 0.14325192E+03</pdfrwt>
<totfact> 0.62723325E+03</totfact>
</mgrwt>
</event>
<event>
 8    1  0.3400573E-004  0.1152232E+03  0.7546771E-02  0.1251472E+00
         -4   -1    0    0    0  501 -0.00000000000E+00  0.00000000000E+00  0.62887262837E+02  0.62887262837E+02  0.00000000000E+00 0.  1.
          4   -1    0    0  501    0  0.00000000000E+00 -0.00000000000E+00 -0.32002315890E+03  0.32002315890E+03  0.00000000000E+00 0. -1.
         23    2    1    2    0    0  0.54912813229E+02 -0.42855037289E+02 -0.24062086848E+03  0.26650973005E+03  0.90978363288E+02 0.  0.
         23    2    1    2    0    0 -0.54912813229E+02  0.42855037289E+02 -0.16515027592E+02  0.11640069169E+03  0.91784549968E+02 0.  0.
          5    1    3    3  502    0  0.75975456180E+02 -0.50319039255E+02 -0.20178873611E+03  0.22146119225E+03  0.47000000000E+01 0. -1.
         -5    1    4    4    0  503 -0.25586192522E+02 -0.22654052077E+02 -0.26877559853E+02  0.43730453313E+02  0.47000000000E+01 0.  1.
          5    1    4    4  503    0 -0.29326620707E+02  0.65509089366E+02  0.10362532260E+02  0.72670238382E+02  0.47000000000E+01 0. -1.
         -5    1    3    3    0  502 -0.21062642951E+02  0.74640019663E+01 -0.38832132370E+02  0.45048537799E+02  0.47000000000E+01 0.  1.
<mgrwt>
<rscale>  0 0.11506253E+03</rscale>
<asrwt>0</asrwt>
<pdfrwt beam="1">  1        4 0.49234332E-01 0.11522315E+03</pdfrwt>
<pdfrwt beam="2">  1       -4 0.96749636E-02 0.11522315E+03</pdfrwt>
<totfact> 0.51547275E+02</totfact>
</mgrwt>
</event>
<event>
 8    1  0.3400573E-004  0.1015264E+03  0.7546771E-02  0.1278434E+00
          1   -1    0    0  501    0  0.00000000000E+00  0.00000000000E+00  0.23907782862E+03  0.23907782862E+03  0.00000000000E+00 0. -1.
         -1   -1    0    0    0  501 -0.00000000000E+00 -0.00000000000E+00 -0.90307221520E+02  0.90307221520E+02  0.00000000000E+00 0.  1.
         23    2    1    2    0    0 -0.36741688810E+02  0.18412443435E+02 -0.45564981471E+02  0.11128245128E+03  0.92836666553E+02 0.  0.
         23    2    1    2    0    0  0.36741688810E+02 -0.18412443435E+02  0.19433558857E+03  0.21810259886E+03  0.90074707186E+02 0.  0.
          5    1    4    4  502    0  0.51600499039E+02 -0.35086651589E+00  0.18560103107E+03  0.19269812491E+03  0.47000000000E+01 0. -1.
         -5    1    4    4    0  502 -0.14858810229E+02 -0.18061576919E+02  0.87345575040E+01  0.25404473956E+02  0.47000000000E+01 0.  1.
          5    1    3    3  503    0 -0.26577734613E+01  0.34575386241E+02  0.16352781070E+02  0.38626733517E+02  0.47000000000E+01 0. -1.
         -5    1    3    3    0  503 -0.34083915349E+02 -0.16162942806E+02 -0.61917762540E+02  0.72655717763E+02  0.47000000000E+01 0.  1.
<mgrwt>
<rscale>  0 0.10089067E+03</rscale>
<asrwt>0</asrwt>
<pdfrwt beam="1">  1        1 0.36781204E-01 0.10152643E+03</pdfrwt>
<pdfrwt beam="2">  1       -1 0.13893419E-01 0.10152643E+03</pdfrwt>
<totfact> 0.40151161E+03</totfact>
</mgrwt>
</event>
<event>
 8    1  0.3400573E-004  0.1133480E+03  0.7546771E-02  0.1257506E+00
         -2   -1    0    0    0  501 -0.00000000000E+00  0.00000000000E+00  0.18319765526E+02  0.18319765526E+02  0.00000000000E+00 0.  1.
          2   -1    0    0  501    0  0.00000000000E+00 -0.00000000000E+00 -0.75215903161E+03  0.75215903161E+03  0.00000000000E+00 0. -1.
         23    2    1    2    0    0  0.52720659575E+02 -0.18122786815E+02 -0.51037407420E+03  0.52280921558E+03  0.98690814834E+02 0.  0.
         23    2    1    2    0    0 -0.52720659575E+02  0.18122786815E+02 -0.22346519188E+03  0.24766958155E+03  0.91080328810E+02 0.  0.
          5    1    4    4  502    0 -0.78291015435E+02  0.13327941693E+02 -0.15382400874E+03  0.17317919273E+03  0.47000000000E+01 0. -1.
         -5    1    3    3    0  503  0.38235625009E+02  0.37281230322E+02 -0.19455677069E+03  0.20180753250E+03  0.47000000000E+01 0.  1.
          5    1    3    3  503    0  0.14485034565E+02 -0.55404017138E+02 -0.31581730351E+03  0.32100168308E+03  0.47000000000E+01 0. -1.
         -5    1    4    4    0  502  0.25570355861E+02  0.47948451225E+01 -0.69641183138E+02  0.74490388826E+02  0.47000000000E+01 0.  1.
<mgrwt>
<rscale>  0 0.11167101E+03</rscale>
<asrwt>0</asrwt>
<pdfrwt beam="1">  1        2 0.11571681E+00 0.11334805E+03</pdfrwt>
<pdfrwt beam="2">  1       -2 0.28184246E-02 0.11334805E+03</pdfrwt>
<totfact> 0.16712654E+04</totfact>
</mgrwt>
</event>
<event>
 8    1  0.3400573E-004  0.1294995E+03  0.7546771E-02  0.1243111E+00
          3   -1    0    0  501    0  0.00000000000E+00  0.00000000000E+00  0.93314463859E+02  0.93314463859E+02  0.00000000000E+00 0. -1.
         -3   -1    0    0    0  501 -0.00000000000E+00 -0.00000000000E+00 -0.19598716095E+03  0.19598716095E+03  0.00000000000E+00 0.  1.
         23    2    1    2    0    0 -0.29152491174E+01 -0.25799174050E+02 -0.13638239404E+03  0.18806987602E+03  0.12687010997E+03 0.  0.
         23    2    1    2    0    0  0.29152491174E+01  0.25799174050E+02  0.33709696957E+02  0.10123174878E+03  0.91855469260E+02 0.  0.
          5    1    4    4  502    0  0.24989393674E+02  0.35032737586E+02  0.54211296048E+02  0.69373749489E+02  0.47000000000E+01 0. -1.
         -5    1    4    4    0  502 -0.22074144557E+02 -0.92335635366E+01 -0.20501599091E+02  0.31857999291E+02  0.47000000000E+01 0.  1.
          5    1    3    3  503    0  0.53911644503E+02 -0.38881724142E+02 -0.48179461890E+02  0.82228975631E+02  0.47000000000E+01 0. -1.
         -5    1    3    3    0  503 -0.56826893621E+02  0.13082550093E+02 -0.88202932154E+02  0.10584090039E+03  0.47000000000E+01 0.  1.
<mgrwt>
<rscale>  0 0.11999135E+03</rscale>
<asrwt>0</asrwt>
<pdfrwt beam="1">  1        3 0.14356071E-01 0.12949950E+03</pdfrwt>
<pdfrwt beam="2">  1       -3 0.30151871E-01 0.12949950E+03</pdfrwt>
<totfact> 0.97457824E+02</totfact>
</mgrwt>
</event>
<event>
 8    1  0.3400573E-004  0.9721619E+02  0.7546771E-02  0.1286816E+00
         -2   -1    0    0    0  501 -0.00000000000E+00  0.00000000000E+00  0.46081438371E+03  0.46081438371E+03  0.00000000000E+00 0.  1.
          2   -1    0    0  501    0  0.00000000000E+00 -0.00000000000E+00 -0.63457259222E+02  0.63457259222E+02  0.00000000000E+00 0. -1.
         23    2    1    2    0    0  0.20522641362E+02 -0.23986136582E+02 -0.17175359043E+02  0.98721730622E+02  0.91948211414E+02 0.  0.
         23    2    1    2    0    0 -0.20522641362E+02  0.23986136582E+02  0.41453248353E+03  0.42554991231E+03  0.90879229793E+02 0.  0.
          5    1    3    3  502    0  0.31277341578E-02 -0.29769699081E+02 -0.50543282707E+02  0.58846821664E+02  0.47000000000E+01 0. -1.
         -5    1    3    3    0  502  0.20519513628E+02  0.57835624998E+01  0.33367923664E+02  0.39874908958E+02  0.47000000000E+01 0.  1.
          5    1    4    4  503    0 -0.31472050385E+02 -0.17293644583E+02  0.74747191327E+02  0.83058971278E+02  0.47000000000E+01 0. -1.
         -5    1    4    4    0  503  0.10949409023E+02  0.41279781164E+02  0.33978529220E+03  0.34249094103E+03  0.47000000000E+01 0.  1.
<mgrwt>
<rscale>  0 0.96962590E+02</rscale>
<asrwt>0</asrwt>
<pdfrwt beam="1">  1        2 0.97626556E-02 0.97216188E+02</pdfrwt>
<pdfrwt beam="2">  1       -2 0.70894518E-01 0.97216188E+02</pdfrwt>
<totfact> 0.11748576E+03</totfact>
</mgrwt>
</event>
<event>
 8    1  0.3400573E-004  0.1327143E+03  0.7546771E-02  0.1223810E+00
         -4   -1    0    0    0  501 -0.00000000000E+00  0.00000000000E+00  0.16031937129E+03  0.16031937129E+03  0.00000000000E+00 0.  1.
          4   -1    0    0  501    0  0.00000000000E+00 -0.00000000000E+00 -0.11062144538E+03  0.11062144538E+03  0.00000000000E+00 0. -1.
         23    2    1    2    0    0  0.33144976653E+02 -0.90746997684E+02  0.91341774070E+01  0.13302829763E+03  0.90991690325E+02 0.  0.
         23    2    1    2    0    0 -0.33144976653E+02  0.90746997684E+02  0.40563748498E+02  0.13791251904E+03  0.89670720696E+02 0.  0.
          5    1    3    3  502    0  0.10922082331E+02 -0.98238715622E+02 -0.13773697301E+02  0.99909668535E+02  0.47000000000E+01 0. -1.
         -5    1    4    4    0  503 -0.39414388812E+01  0.25360396214E+02  0.58399854410E+02  0.63963408538E+02  0.47000000000E+01 0.  1.
          5    1    4    4  503    0 -0.29203537772E+02  0.65386601470E+02 -0.17836105913E+02  0.73949110504E+02  0.47000000000E+01 0. -1.
         -5    1    3    3    0  502  0.22222894321E+02  0.74917179378E+01  0.22907874708E+02  0.33118629098E+02  0.47000000000E+01 0.  1.
<mgrwt>
<rscale>  0 0.13248821E+03</rscale>
<asrwt>0</asrwt>
<pdfrwt beam="1">  1        4 0.17018684E-01 0.13271434E+03</pdfrwt>
<pdfrwt beam="2">  1       -4 0.24664519E-01 0.13271434E+03</pdfrwt>
<totfact> 0.76254203E+02</totfact>
</mgrwt>
</event>
<event>
 8    1  0.3400573E-004  0.1114019E+03  0.7546771E-02  0.1265799E+00
          1   -1    0    0  501    0  0.00000000000E+00  0.00000000000E+00  0.21189266561E+03  0.21189266561E+03  0.00000000000E+00 0. -1.
         -1   -1    0    0    0  501 -0.00000000000E+00 -0.00000000000E+00 -0.77719954639E+02  0.77719954639E+02  0.00000000000E+00 0.  1.
         23    2    1    2    0    0 -0.50119668551E+00  0.24729205606E+02 -0.21684544108E+02  0.98035296212E+02  0.92352125271E+02 0.  0.
         23    2    1    2    0    0  0.50119668551E+00 -0.24729205606E+02  0.15585725507E+03  0.19157732403E+03  0.10862137136E+03 0.  0.
          5    1    4    4  502    0  0.18654228045E+02 -0.62468002549E+02  0.11817086749E+03  0.13504323563E+03  0.47000000000E+01 0. -1.
         -5    1    4    4    0  502 -0.18153031360E+02  0.37738796943E+02  0.37686387585E+02  0.56534088402E+02  0.47000000000E+01 0.  1.
          5    1    3    3  503    0  0.20450489179E+02 -0.28163781803E+02  0.41698973402E+01  0.35368052773E+02  0.47000000000E+01 0. -1.
         -5    1    3    3    0  503 -0.20951685865E+02  0.52892987409E+02 -0.25854441448E+02  0.62667243439E+02  0.47000000000E+01 0.  1.
<mgrwt>
<rscale>  0 0.10722398E+03</rscale>
<asrwt>0</asrwt>
<pdfrwt beam="1">  1        1 0.32598871E-01 0.11140192E+03</pdfrwt>
<pdfrwt beam="2">  1       -1 0.11956916E-01 0.11140192E+03</pdfrwt>
<totfact> 0.59045741E+03</totfact>
</mgrwt>
</event>
<event>
 8    1  0.3400573E-004  0.1008743E+03  0.7546771E-02  0.1279443E+00
         -2   -1    0    0    0  501 -0.00000000000E+00  0.00000000000E+00  0.20246466463E+03  0.20246466463E+03  0.00000000000E+00 0.  1.
          2   -1    0    0  501    0  0.00000000000E+00 -0.00000000000E+00 -0.49346067051E+02  0.49346067051E+02  0.00000000000E+00 0. -1.
         23    2    1    2    0    0  0.38983952098E+02 -0.89645187039E+00  0.77474690862E+02  0.12572491181E+03  0.91015787528E+02 0.  0.
         23    2    1    2    0    0 -0.38983952098E+02  0.89645187039E+00  0.75643906718E+02  0.12608581987E+03  0.93032688884E+02 0.  0.
          5    1    3    3  502    0  0.11609678731E+02 -0.22398322705E+02 -0.12930426974E+02  0.28735960780E+02  0.47000000000E+01 0. -1.
         -5    1    3    3    0  502  0.27374273367E+02  0.21501870835E+02  0.90405117836E+02  0.96988951034E+02  0.47000000000E+01 0.  1.
          5    1    4    4  503    0 -0.96568586372E+01  0.45332422187E+02  0.43364886407E+02  0.63646577231E+02  0.47000000000E+01 0. -1.
         -5    1    4    4    0  503 -0.29327093460E+02 -0.44435970317E+02  0.32279020311E+02  0.62439242637E+02  0.47000000000E+01 0.  1.
<mgrwt>
<rscale>  0 0.10040684E+03</rscale>
<asrwt>0</asrwt>
<pdfrwt beam="1">  1        2 0.75917027E-02 0.10087434E+03</pdfrwt>
<pdfrwt beam="2">  1       -2 0.31148410E-01 0.10087434E+03</pdfrwt>
<totfact> 0.79616279E+03</totfact>
</mgrwt>
</event>
<event>
 8    1  0.3400573E-004  0.9297388E+02  0.7546771E-02  0.1297437E+00
         -1   -1    0    0    0  501 -0.00000000000E+00  0.00000000000E+00  0.12046953677E+03  0.12046953677E+03  0.00000000000E+00 0.  1.
          1   -1    0    0  501    0  0.00000000000E+00 -0.00000000000E+00 -0.13287115397E+03  0.13287115397E+03  0.00000000000E+00 0. -1.
         23    2    1    2    0    0 -0.10663506577E+02  0.12968002519E+02  0.81132172128E+02  0.12339599291E+03  0.91445405843E+02 0.  0.
         23    2    1    2    0    0  0.10663506577E+02 -0.12968002519E+02 -0.93533789329E+02  0.12994469783E+03  0.88629426757E+02 0.  0.
          5    1    3    3  502    0  0.12095172102E+02 -0.35296098807E+02  0.45641006557E+02  0.59137967996E+02  0.47000000000E+01 0. -1.
         -5    1    4    4    0  503 -0.23935944308E+02 -0.31737260473E+02 -0.16473481243E+02  0.43285664099E+02  0.47000000000E+01 0.  1.
          5    1    4    4  503    0  0.34599450885E+02  0.18769257954E+02 -0.77060308086E+02  0.86659033735E+02  0.47000000000E+01 0. -1.
         -5    1    3    3    0  502 -0.22758678679E+02  0.48264101326E+02  0.35491165571E+02  0.64258024912E+02  0.47000000000E+01 0.  1.
<mgrwt>
<rscale>  0 0.92273949E+02</rscale>
<asrwt>0</asrwt>
<pdfrwt beam="1">  1        1 0.20441716E-01 0.92973877E+02</pdfrwt>
<pdfrwt beam="2">  1       -1 0.18533775E-01 0.92973877E+02</pdfrwt>
<totfact> 0.52649005E+03</totfact>
</mgrwt>
</event>
<event>
 8    1  0.3400573E-004  0.9820649E+02  0.7546771E-02  0.1284698E+00
         -2   -1    0    0    0  501 -0.00000000000E+00  0.00000000000E+00  0.25063946553E+03  0.25063946553E+03  0.00000000000E+00 0.  1.
          2   -1    0    0  501    0  0.00000000000E+00 -0.00000000000E+00 -0.48754871466E+03  0.48754871466E+03  0.00000000000E+00 0. -1.
         23    2    1    2    0    0  0.33874737159E+02  0.93539281712E+01  0.23588963553E+03  0.25551601591E+03  0.91703437486E+02 0.  0.
         23    2    1    2    0    0 -0.33874737159E+02 -0.93539281712E+01 -0.47279888466E+03  0.48267216427E+03  0.90546336399E+02 0.  0.
          5    1    3    3  502    0 -0.18606945180E+02 -0.26091542514E+02  0.55313527741E+02  0.64098856081E+02  0.47000000000E+01 0. -1.
         -5    1    3    3    0  502  0.52481682339E+02  0.35445470686E+02  0.18057610779E+03  0.19141715983E+03  0.47000000000E+01 0.  1.
          5    1    4    4  503    0 -0.10804736070E+02 -0.47379737938E+02 -0.31086406313E+03  0.31467465363E+03  0.47000000000E+01 0. -1.
         -5    1    4    4    0  503 -0.23070001089E+02  0.38025809767E+02 -0.16193482153E+03  0.16799751064E+03  0.47000000000E+01 0.  1.
<mgrwt>
<rscale>  0 0.97935469E+02</rscale>
<asrwt>0</asrwt>
<pdfrwt beam="1">  1        2 0.75007494E-01 0.98206488E+02</pdfrwt>
<pdfrwt beam="2">  1       -2 0.38559918E-01 0.98206488E+02</pdfrwt>
<totfact> 0.41485059E+02</totfact>
</mgrwt>
</event>
<event>
 8    1  0.3400573E-004  0.1164152E+03  0.7546771E-02  0.1254442E+00
         -1   -1    0    0    0  501 -0.00000000000E+00  0.00000000000E+00  0.19765123766E+03  0.19765123766E+03  0.00000000000E+00 0.  1.
          1   -1    0    0  501    0  0.00000000000E+00 -0.00000000000E+00 -0.12647252023E+03  0.12647252023E+03  0.00000000000E+00 0. -1.
         23    2    1    2    0    0  0.54078131786E+02 -0.49098976557E+02  0.15042845361E+03  0.18329400590E+03  0.75052109286E+02 0.  0.
         23    2    1    2    0    0 -0.54078131786E+02  0.49098976557E+02 -0.79249736180E+02  0.14082975199E+03  0.90649569911E+02 0.  0.
          5    1    3    3  502    0  0.46462404199E+02  0.76112826832E+01  0.67732781269E+02  0.82622674167E+02  0.47000000000E+01 0. -1.
         -5    1    3    3    0  502  0.76157275871E+01 -0.56710259240E+02  0.82695672341E+02  0.10067133174E+03  0.47000000000E+01 0.  1.
          5    1    4    4  503    0 -0.73838789784E+02  0.57795205550E+02 -0.68752560607E+02  0.11636776724E+03  0.47000000000E+01 0. -1.
         -5    1    4    4    0  503  0.19760657998E+02 -0.86962289932E+01 -0.10497175573E+02  0.24461984756E+02  0.47000000000E+01 0.  1.
<mgrwt>
<rscale>  0 0.11337650E+03</rscale>
<asrwt>0</asrwt>
<pdfrwt beam="1">  1        1 0.19457311E-01 0.11641520E+03</pdfrwt>
<pdfrwt beam="2">  1       -1 0.30407883E-01 0.11641520E+03</pdfrwt>
<totfact> 0.25422401E+03</totfact>
</mgrwt>
</event>
<event>
 8    1  0.3400573E-004  0.1103869E+03  0.7546771E-02  0.1260381E+00
          1   -1    0    0  501    0  0.00000000000E+00  0.00000000000E+00  0.65298794919E+03  0.65298794919E+03  0.00000000000E+00 0. -1.
         -1   -1    0    0    0  501 -0.00000000000E+00 -0.00000000000E+00 -0.28496650419E+02  0.28496650419E+02  0.00000000000E+00 0.  1.
         23    2    1    2    0    0  0.59034058132E+02  0.11198391646E+02  0.51541362303E+03  0.52710194906E+03  0.92600420677E+02 0.  0.
         23    2    1    2    0    0 -0.59034058132E+02 -0.11198391646E+02  0.10907767574E+03  0.15438265054E+03  0.91244942042E+02 0.  0.
          5    1    4    4  502    0 -0.53299613217E+02  0.27841628456E+02  0.33501092877E+02  0.68995784423E+02  0.47000000000E+01 0. -1.
         -5    1    4    4    0  502 -0.57344449149E+01 -0.39040020102E+02  0.75576582865E+02  0.85386866119E+02  0.47000000000E+01 0.  1.
          5    1    3    3  503    0  0.76250191310E+02  0.22387334543E+02  0.47400970804E+03  0.48064808096E+03  0.47000000000E+01 0. -1.
         -5    1    3    3    0  503 -0.17216133178E+02 -0.11188942897E+02  0.41403914990E+02  0.46453868098E+02  0.47000000000E+01 0.  1.
<mgrwt>
<rscale>  0 0.11010213E+03</rscale>
<asrwt>0</asrwt>
<pdfrwt beam="1">  1        1 0.10045967E+00 0.11038687E+03</pdfrwt>
<pdfrwt beam="2">  1       -1 0.43841006E-02 0.11038687E+03</pdfrwt>
<totfact> 0.63712556E+03</totfact>
</mgrwt>
</event>
<event>
 8    1  0.3400573E-004  0.2293450E+03  0.7546771E-02  0.1127135E+00
          1   -1    0    0  501    0  0.00000000000E+00  0.00000000000E+00  0.27986794954E+02  0.27986794954E+02  0.00000000000E+00 0. -1.
         -1   -1    0    0    0  501 -0.00000000000E+00 -0.00000000000E+00 -0.19775701679E+04  0.19775701679E+04  0.00000000000E+00 0.  1.
         23    2    1    2    0    0 -0.16572631377E+03 -0.12947788127E+03 -0.12003225909E+04  0.12220366048E+04  0.91484470876E+02 0.  0.
         23    2    1    2    0    0  0.16572631377E+03  0.12947788127E+03 -0.74926078198E+03  0.78352035800E+03  0.91009335610E+02 0.  0.
          5    1    3    3  502    0 -0.12572484526E+03 -0.50691993074E+02 -0.59390556385E+03  0.60919809886E+03  0.47000000000E+01 0. -1.
         -5    1    3    3    0  502 -0.40001468514E+02 -0.78785888196E+02 -0.60641702706E+03  0.61283850595E+03  0.47000000000E+01 0.  1.
          5    1    4    4  503    0  0.11285430599E+03  0.11924132427E+03 -0.44178496226E+03  0.47132858036E+03  0.47000000000E+01 0. -1.
         -5    1    4    4    0  503  0.52872007787E+02  0.10236557002E+02 -0.30747581973E+03  0.31219177764E+03  0.47000000000E+01 0.  1.
<mgrwt>
<rscale>  0 0.22929773E+03</rscale>
<asrwt>0</asrwt>
<pdfrwt beam="1">  1        1 0.43056615E-02 0.22934503E+03</pdfrwt>
<pdfrwt beam="2">  1       -1 0.30424151E+00 0.22934503E+03</pdfrwt>
<totfact> 0.75003757E+01</totfact>
</mgrwt>
</event>
<event>
 8    1  0.3400573E-004  0.9850430E+02  0.7546771E-02  0.1285355E+00
         -2   -1    0    0    0  501 -0.00000000000E+00  0.00000000000E+00  0.21780289766E+03  0.21780289766E+03  0.00000000000E+00 0.  1.
          2   -1    0    0  501    0  0.00000000000E+00 -0.00000000000E+00 -0.19136265179E+03  0.19136265179E+03  0.00000000000E+00 0. -1.
         23    2    1    2    0    0  0.18606129055E+02  0.27215455977E+02  0.19339916364E+03  0.21703993598E+03  0.92823640485E+02 0.  0.
         23    2    1    2    0    0 -0.18606129055E+02 -0.27215455977E+02 -0.16695891777E+03  0.19212561346E+03  0.89163344723E+02 0.  0.
          5    1    4    4  502    0 -0.34238137787E+01 -0.52262664756E+02 -0.54148333282E+02  0.75480067736E+02  0.47000000000E+01 0. -1.
         -5    1    4    4    0  502 -0.15182315277E+02  0.25047208779E+02 -0.11281058449E+03  0.11664554573E+03  0.47000000000E+01 0.  1.
          5    1    3    3  503    0  0.31767374386E+02  0.11914334943E+02  0.14918022881E+02  0.37359802719E+02  0.47000000000E+01 0. -1.
         -5    1    3    3    0  503 -0.13161245331E+02  0.15301121034E+02  0.17848114076E+03  0.17968013326E+03  0.47000000000E+01 0.  1.
<mgrwt>
<rscale>  0 0.97632466E+02</rscale>
<asrwt>0</asrwt>
<pdfrwt beam="1">  1        2 0.29440408E-01 0.98504301E+02</pdfrwt>
<pdfrwt beam="2">  1       -2 0.33508138E-01 0.98504301E+02</pdfrwt>
<totfact> 0.14446118E+03</totfact>
</mgrwt>
</event>
<event>
 8    1  0.3400573E-004  0.9832557E+02  0.7546771E-02  0.1284766E+00
          1   -1    0    0  501    0  0.00000000000E+00  0.00000000000E+00  0.94482990885E+02  0.94482990885E+02  0.00000000000E+00 0. -1.
         -1   -1    0    0    0  501 -0.00000000000E+00 -0.00000000000E+00 -0.13776982607E+03  0.13776982607E+03  0.00000000000E+00 0.  1.
         23    2    1    2    0    0 -0.21236891038E+02  0.29068596468E+02 -0.82104631260E+02  0.12809796474E+03  0.91498247280E+02 0.  0.
         23    2    1    2    0    0  0.21236891038E+02 -0.29068596468E+02  0.38817796074E+02  0.10415485221E+03  0.89696282565E+02 0.  0.
          5    1    4    4  502    0  0.44166370119E+02  0.71489702462E+01  0.41150588704E+02  0.60969147737E+02  0.47000000000E+01 0. -1.
         -5    1    3    3    0  503 -0.41179251582E+02  0.51118583947E+02 -0.42447677738E+02  0.78311785390E+02  0.47000000000E+01 0.  1.
          5    1    3    3  503    0  0.19942360544E+02 -0.22049987479E+02 -0.39656953522E+02  0.49786179353E+02  0.47000000000E+01 0. -1.
         -5    1    4    4    0  502 -0.22929479081E+02 -0.36217566715E+02 -0.23327926302E+01  0.43185704476E+02  0.47000000000E+01 0.  1.
<mgrwt>
<rscale>  0 0.97904223E+02</rscale>
<asrwt>0</asrwt>
<pdfrwt beam="1">  1        1 0.14535845E-01 0.98325572E+02</pdfrwt>
<pdfrwt beam="2">  1       -1 0.21195358E-01 0.98325572E+02</pdfrwt>
<totfact> 0.65855266E+03</totfact>
</mgrwt>
</event>
<event>
 8    1  0.3400573E-004  0.1091444E+03  0.7546771E-02  0.1263289E+00
         -1   -1    0    0    0  501 -0.00000000000E+00  0.00000000000E+00  0.11845663453E+03  0.11845663453E+03  0.00000000000E+00 0.  1.
          1   -1    0    0  501    0  0.00000000000E+00 -0.00000000000E+00 -0.11622859709E+03  0.11622859709E+03  0.00000000000E+00 0. -1.
         23    2    1    2    0    0  0.56822847504E+02 -0.16268516239E+02  0.47100267241E+02  0.11887358248E+03  0.91755069716E+02 0.  0.
         23    2    1    2    0    0 -0.56822847504E+02  0.16268516239E+02 -0.44872229803E+02  0.11581164914E+03  0.88911869002E+02 0.  0.
          5    1    4    4  502    0 -0.64833178419E+02  0.42956992413E+02 -0.27422236718E+02  0.82599717238E+02  0.47000000000E+01 0. -1.
         -5    1    4    4    0  502  0.80103309150E+01 -0.26688476174E+02 -0.17449993086E+02  0.33211931900E+02  0.47000000000E+01 0.  1.
          5    1    3    3  503    0  0.38872469633E+02  0.25719995357E+02 -0.76034868146E+01  0.47460405268E+02  0.47000000000E+01 0. -1.
         -5    1    3    3    0  503  0.17950377872E+02 -0.41988511596E+02  0.54703754056E+02  0.71413177212E+02  0.47000000000E+01 0.  1.
<mgrwt>
<rscale>  0 0.10854467E+03</rscale>
<asrwt>0</asrwt>
<pdfrwt beam="1">  1        1 0.17881322E-01 0.10914437E+03</pdfrwt>
<pdfrwt beam="2">  1       -1 0.18224098E-01 0.10914437E+03</pdfrwt>
<totfact> 0.64801593E+03</totfact>
</mgrwt>
</event>
<event>
 8    1  0.3400573E-004  0.1422453E+03  0.7546771E-02  0.1213665E+00
          3   -1    0    0  501    0  0.00000000000E+00  0.00000000000E+00  0.12519003541E+03  0.12519003541E+03  0.00000000000E+00 0. -1.
         -3   -1    0    0    0  501 -0.00000000000E+00 -0.00000000000E+00 -0.15805511960E+03  0.15805511960E+03  0.00000000000E+00 0.  1.
         23    2    1    2    0    0 -0.12409369416E+02 -0.10705509866E+03  0.14509280716E+02  0.13331829168E+03  0.77126267069E+02 0.  0.
         23    2    1    2    0    0  0.12409369416E+02  0.10705509866E+03 -0.47374364902E+02  0.14992686333E+03  0.92838285742E+02 0.  0.
          5    1    4    4  502    0  0.29230227113E+02  0.62664213115E+02 -0.68779216480E+02  0.97641591559E+02  0.47000000000E+01 0. -1.
         -5    1    4    4    0  502 -0.16820857697E+02  0.44390885543E+02  0.21404851578E+02  0.52285271770E+02  0.47000000000E+01 0.  1.
          5    1    3    3  503    0  0.28295748958E+02 -0.31727238015E+02  0.20355905105E+02  0.47367920724E+02  0.47000000000E+01 0. -1.
         -5    1    3    3    0  503 -0.40705118374E+02 -0.75327860644E+02 -0.58466243884E+01  0.85950370958E+02  0.47000000000E+01 0.  1.
<mgrwt>
<rscale>  0 0.13975074E+03</rscale>
<asrwt>0</asrwt>
<pdfrwt beam="1">  1        3 0.19260006E-01 0.14224533E+03</pdfrwt>
<pdfrwt beam="2">  1       -3 0.24316172E-01 0.14224533E+03</pdfrwt>
<totfact> 0.88138005E+02</totfact>
</mgrwt>
</event>
<event>
 8    1  0.3400573E-004  0.2107468E+03  0.7546771E-02  0.1141053E+00
         -1   -1    0    0    0  501 -0.00000000000E+00  0.00000000000E+00  0.11323475526E+03  0.11323475526E+03  0.00000000000E+00 0.  1.
          1   -1    0    0  501    0  0.00000000000E+00 -0.00000000000E+00 -0.97560927334E+03  0.97560927334E+03  0.00000000000E+00 0. -1.
         23    2    1    2    0    0  0.16919042594E+03  0.84115867328E+02 -0.10095348151E+02  0.21098848357E+03  0.93345298646E+02 0.  0.
         23    2    1    2    0    0 -0.16919042594E+03 -0.84115867328E+02 -0.85227916993E+03  0.87785554502E+03  0.92464561136E+02 0.  0.
          5    1    4    4  502    0 -0.10332856975E+03 -0.98385700107E+02 -0.58744720920E+03  0.60454350787E+03  0.47000000000E+01 0. -1.
         -5    1    3    3    0  503  0.14436659106E+03  0.79935524241E+02  0.25597837149E+02  0.16705909110E+03  0.47000000000E+01 0.  1.
          5    1    3    3  503    0  0.24823834875E+02  0.41803430863E+01 -0.35693185301E+02  0.43929392474E+02  0.47000000000E+01 0. -1.
         -5    1    4    4    0  502 -0.65861856192E+02  0.14269832779E+02 -0.26483196072E+03  0.27331203715E+03  0.47000000000E+01 0.  1.
<mgrwt>
<rscale>  0 0.21064960E+03</rscale>
<asrwt>0</asrwt>
<pdfrwt beam="1">  1        1 0.15009374E+00 0.21074682E+03</pdfrwt>
<pdfrwt beam="2">  1       -1 0.17420731E-01 0.21074682E+03</pdfrwt>
<totfact> 0.42671106E+02</totfact>
</mgrwt>
</event>
<event>
 8    1  0.3400573E-004  0.9780558E+02  0.7546771E-02  0.1285971E+00
          1   -1    0    0  501    0  0.00000000000E+00  0.00000000000E+00  0.25615833074E+02  0.25615833074E+02  0.00000000000E+00 0. -1.
         -1   -1    0    0    0  501 -0.00000000000E+00 -0.00000000000E+00 -0.45745591826E+03  0.45745591826E+03  0.00000000000E+00 0.  1.
         23    2    1    2    0    0 -0.15824959634E+02  0.24705312210E+02 -0.10663162647E+03  0.14347423469E+03  0.91398963114E+02 0.  0.
         23    2    1    2    0    0  0.15824959634E+02 -0.24705312210E+02 -0.32520845871E+03  0.33959751664E+03  0.93301392748E+02 0.  0.
          5    1    3    3  502    0 -0.49227054704E+02  0.24805672303E+02 -0.38351925029E+02  0.67317044251E+02  0.47000000000E+01 0. -1.
         -5    1    3    3    0  502  0.33402095070E+02 -0.10036009242E+00 -0.68279701441E+02  0.76157190443E+02  0.47000000000E+01 0.  1.
          5    1    4    4  503    0  0.17602402569E+02  0.21263650154E+02 -0.30987971029E+02  0.41765197744E+02  0.47000000000E+01 0. -1.
         -5    1    4    4    0  503 -0.17774429351E+01 -0.45968962365E+02 -0.29422048768E+03  0.29783231889E+03  0.47000000000E+01 0.  1.
<mgrwt>
<rscale>  0 0.97349115E+02</rscale>
<asrwt>0</asrwt>
<pdfrwt beam="1">  1        1 0.39408976E-02 0.97805581E+02</pdfrwt>
<pdfrwt beam="2">  1       -1 0.70377831E-01 0.97805581E+02</pdfrwt>
<totfact> 0.45941202E+03</totfact>
</mgrwt>
</event>
<event>
 7    1  0.3400573E-004  0.1633646E+03  0.7546771E-02  0.1206146E+00
          2   -1    0    0  501    0  0.00000000000E+00  0.00000000000E+00  0.87105549135E+03  0.87105549135E+03  0.00000000000E+00 0. -1.
         -2   -1    0    0    0  501 -0.00000000000E+00 -0.00000000000E+00 -0.69354355964E+02  0.69354355964E+02  0.00000000000E+00 0.  1.
         23    2    1    2    0    0 -0.46186829020E+02  0.59844742878E+01  0.76642661218E+03  0.77328025466E+03  0.91561800301E+02 0.  0.
          5    1    1    2  502    0  0.50109533614E+02  0.21381413957E+02  0.90187739264E+02  0.10547060508E+03  0.47000000000E+01 0. -1.
         -5    1    1    2    0  502 -0.39227045944E+01 -0.27365888245E+02 -0.54913216062E+02  0.61658987577E+02  0.47000000000E+01 0.  1.
          5    1    3    3  503    0 -0.64227950301E+02  0.25432078832E+02  0.65471719425E+03  0.65836822119E+03  0.47000000000E+01 0. -1.
         -5    1    3    3    0  503  0.18041121281E+02 -0.19447604544E+02  0.11170941794E+03  0.11491203347E+03  0.47000000000E+01 0.  1.
<mgrwt>
<rscale>  0 0.14547505E+03</rscale>
<asrwt>0</asrwt>
<pdfrwt beam="1">  1        2 0.13400853E+00 0.16336465E+03</pdfrwt>
<pdfrwt beam="2">  1       -2 0.10669902E-01 0.16336465E+03</pdfrwt>
<totfact> 0.18864405E+03</totfact>
</mgrwt>
</event>
<event>
 8    1  0.3400573E-004  0.1294715E+03  0.7546771E-02  0.1230025E+00
          3   -1    0    0  501    0  0.00000000000E+00  0.00000000000E+00  0.49711957985E+03  0.49711957985E+03  0.00000000000E+00 0. -1.
         -3   -1    0    0    0  501 -0.00000000000E+00 -0.00000000000E+00 -0.32510789278E+02  0.32510789278E+02  0.00000000000E+00 0.  1.
         23    2    1    2    0    0  0.64138060137E+02  0.68864676218E+02  0.22863033105E+03  0.26046741964E+03  0.81947629768E+02 0.  0.
         23    2    1    2    0    0 -0.64138060137E+02 -0.68864676218E+02  0.23597845952E+03  0.26916294950E+03  0.88920333080E+02 0.  0.
          5    1    4    4  502    0 -0.34592969370E+01 -0.54101570023E+02  0.16865062864E+03  0.17721193852E+03  0.47000000000E+01 0. -1.
         -5    1    4    4    0  502 -0.60678763200E+02 -0.14763106195E+02  0.67327830882E+02  0.91951010975E+02  0.47000000000E+01 0.  1.
          5    1    3    3  503    0  0.28140580405E+02 -0.18514180130E+01  0.13336065517E+03  0.13639088812E+03  0.47000000000E+01 0. -1.
         -5    1    3    3    0  503  0.35997479732E+02  0.70716094231E+02  0.95269675887E+02  0.12407653152E+03  0.47000000000E+01 0.  1.
<mgrwt>
<rscale>  0 0.12828376E+03</rscale>
<asrwt>0</asrwt>
<pdfrwt beam="1">  1        3 0.76479930E-01 0.12947146E+03</pdfrwt>
<pdfrwt beam="2">  1       -3 0.50016603E-02 0.12947146E+03</pdfrwt>
<totfact> 0.86018886E+02</totfact>
</mgrwt>
</event>
<event>
 8    1  0.3400573E-004  0.1253508E+03  0.7546771E-02  0.1235391E+00
          1   -1    0    0  501    0  0.00000000000E+00  0.00000000000E+00  0.84403855604E+02  0.84403855604E+02  0.00000000000E+00 0. -1.
         -1   -1    0    0    0  501 -0.00000000000E+00 -0.00000000000E+00 -0.19527378868E+03  0.19527378868E+03  0.00000000000E+00 0.  1.
         23    2    1    2    0    0 -0.43805274368E+02  0.69983961915E+02 -0.90181301405E+02  0.15263104446E+03  0.91361433990E+02 0.  0.
         23    2    1    2    0    0  0.43805274368E+02 -0.69983961915E+02 -0.20688631672E+02  0.12704659983E+03  0.94319468085E+02 0.  0.
          5    1    3    3  502    0  0.15746678136E+02  0.14593881701E+02  0.94588408674E+01  0.23926949784E+02  0.47000000000E+01 0. -1.
         -5    1    4    4    0  503  0.43481605501E+02 -0.16947752187E+01 -0.36271328505E+02  0.56843834771E+02  0.47000000000E+01 0.  1.
          5    1    4    4  503    0  0.32366886696E+00 -0.68289186696E+02  0.15582696833E+02  0.70202765058E+02  0.47000000000E+01 0. -1.
         -5    1    3    3    0  502 -0.59551952504E+02  0.55390080214E+02 -0.99640142272E+02  0.12870409467E+03  0.47000000000E+01 0.  1.
<mgrwt>
<rscale>  0 0.12479451E+03</rscale>
<asrwt>0</asrwt>
<pdfrwt beam="1">  1        1 0.12985209E-01 0.12535078E+03</pdfrwt>
<pdfrwt beam="2">  1       -1 0.30042121E-01 0.12535078E+03</pdfrwt>
<totfact> 0.43807789E+03</totfact>
</mgrwt>
</event>
<event>
 8    1  0.3400573E-004  0.1344666E+03  0.7546771E-02  0.1221874E+00
          2   -1    0    0  501    0  0.00000000000E+00  0.00000000000E+00  0.11442172869E+04  0.11442172869E+04  0.00000000000E+00 0. -1.
         -2   -1    0    0    0  501 -0.00000000000E+00 -0.00000000000E+00 -0.19026061640E+02  0.19026061640E+02  0.00000000000E+00 0.  1.
         23    2    1    2    0    0 -0.56405712682E+02 -0.81532103763E+02  0.80834209771E+03  0.81904189223E+03  0.87083786908E+02 0.  0.
         23    2    1    2    0    0  0.56405712682E+02  0.81532103763E+02  0.31684912759E+03  0.34420145635E+03  0.90841535251E+02 0.  0.
          5    1    4    4  502    0  0.31805416612E+02 -0.14449603158E+02  0.85864498057E+02  0.92817980930E+02  0.47000000000E+01 0. -1.
         -5    1    3    3    0  503  0.42408571946E+01 -0.34287377083E+02  0.88966177194E+02  0.95554590583E+02  0.47000000000E+01 0.  1.
          5    1    3    3  503    0 -0.60646569876E+02 -0.47244726680E+02  0.71937592051E+03  0.72348730165E+03  0.47000000000E+01 0. -1.
         -5    1    4    4    0  502  0.24600296070E+02  0.95981706921E+02  0.23098462954E+03  0.25138347542E+03  0.47000000000E+01 0.  1.
<mgrwt>
<rscale>  0 0.13383480E+03</rscale>
<asrwt>0</asrwt>
<pdfrwt beam="1">  1        2 0.17603337E+00 0.13446662E+03</pdfrwt>
<pdfrwt beam="2">  1       -2 0.29270873E-02 0.13446662E+03</pdfrwt>
<totfact> 0.91596128E+03</totfact>
</mgrwt>
</event>
<event>
 8    1  0.3400573E-004  0.1143873E+03  0.7546771E-02  0.1264248E+00
         -1   -1    0    0    0  501 -0.00000000000E+00  0.00000000000E+00  0.76620018382E+02  0.76620018382E+02  0.00000000000E+00 0.  1.
          1   -1    0    0  501    0  0.00000000000E+00 -0.00000000000E+00 -0.13776123370E+03  0.13776123370E+03  0.00000000000E+00 0. -1.
         23    2    1    2    0    0  0.46598738452E+02 -0.16612346259E+02 -0.24407241404E+02  0.94240350268E+02  0.76407576275E+02 0.  0.
         23    2    1    2    0    0 -0.46598738452E+02  0.16612346259E+02 -0.36733973917E+02  0.12014090182E+03  0.10313602172E+03 0.  0.
          5    1    4    4  502    0 -0.24985836013E+02 -0.41390880432E+02 -0.31387386119E+02  0.57833856793E+02  0.47000000000E+01 0. -1.
         -5    1    3    3    0  503  0.29209587458E+02  0.18262412076E+02  0.15676266981E+02  0.38138576806E+02  0.47000000000E+01 0.  1.
          5    1    3    3  503    0  0.17389150994E+02 -0.34874758334E+02 -0.40083508385E+02  0.56101773463E+02  0.47000000000E+01 0. -1.
         -5    1    4    4    0  502 -0.21612902439E+02  0.58003226691E+02 -0.53465877977E+01  0.62307045023E+02  0.47000000000E+01 0.  1.
<mgrwt>
<rscale>  0 0.10803721E+03</rscale>
<asrwt>0</asrwt>
<pdfrwt beam="1">  1        1 0.21194036E-01 0.11438729E+03</pdfrwt>
<pdfrwt beam="2">  1       -1 0.11787695E-01 0.11438729E+03</pdfrwt>
<totfact> 0.10337004E+04</totfact>
</mgrwt>
</event>
<event>
 8    1  0.3400573E-004  0.1201222E+03  0.7546771E-02  0.1243350E+00
          1   -1    0    0  501    0  0.00000000000E+00  0.00000000000E+00  0.51555226958E+03  0.51555226958E+03  0.00000000000E+00 0. -1.
         -1   -1    0    0    0  501 -0.00000000000E+00 -0.00000000000E+00 -0.28557603146E+02  0.28557603146E+02  0.00000000000E+00 0.  1.
         23    2    1    2    0    0  0.45146025460E+02 -0.59409360641E+02  0.19835280300E+03  0.23189046513E+03  0.94136696414E+02 0.  0.
         23    2    1    2    0    0 -0.45146025460E+02  0.59409360641E+02  0.28864186343E+03  0.31221940760E+03  0.92731857572E+02 0.  0.
          5    1    3    3  502    0 -0.10112354855E+02 -0.55686958364E+02  0.14107321175E+03  0.15207576443E+03  0.47000000000E+01 0. -1.
         -5    1    4    4    0  503  0.68472157546E+01  0.62136665292E+02  0.11625145330E+03  0.13207702272E+03  0.47000000000E+01 0.  1.
          5    1    4    4  503    0 -0.51993241215E+02 -0.27273046511E+01  0.17239041013E+03  0.18014238488E+03  0.47000000000E+01 0. -1.
         -5    1    3    3    0  502  0.55258380315E+02 -0.37224022769E+01  0.57279591245E+02  0.79814700694E+02  0.47000000000E+01 0.  1.
<mgrwt>
<rscale>  0 0.11984686E+03</rscale>
<asrwt>0</asrwt>
<pdfrwt beam="1">  1        1 0.79315726E-01 0.12012224E+03</pdfrwt>
<pdfrwt beam="2">  1       -1 0.43934778E-02 0.12012224E+03</pdfrwt>
<totfact> 0.87692762E+03</totfact>
</mgrwt>
</event>
<event>
 8    1  0.3400573E-004  0.9805527E+02  0.7546771E-02  0.1284442E+00
          2   -1    0    0  501    0  0.00000000000E+00  0.00000000000E+00  0.84603953566E+03  0.84603953566E+03  0.00000000000E+00 0. -1.
         -2   -1    0    0    0  501 -0.00000000000E+00 -0.00000000000E+00 -0.12730052515E+02  0.12730052515E+02  0.00000000000E+00 0.  1.
         23    2    1    2    0    0 -0.27472988351E+02 -0.33787027902E+02  0.55730926093E+03  0.56586865012E+03  0.87848668353E+02 0.  0.
         23    2    1    2    0    0  0.27472988351E+02  0.33787027902E+02  0.27600022222E+03  0.29290093805E+03  0.87855042569E+02 0.  0.
          5    1    3    3  502    0  0.31927105138E+02 -0.14280916345E+02  0.21050421570E+03  0.21344179403E+03  0.47000000000E+01 0. -1.
         -5    1    3    3    0  502 -0.59400093489E+02 -0.19506111557E+02  0.34680504523E+03  0.35242685609E+03  0.47000000000E+01 0.  1.
          5    1    4    4  503    0  0.49907878773E+02 -0.24109384198E+01  0.19394717998E+03  0.20033523807E+03  0.47000000000E+01 0. -1.
         -5    1    4    4    0  503 -0.22434890422E+02  0.36197966322E+02  0.82053042234E+02  0.92565699987E+02  0.47000000000E+01 0.  1.
<mgrwt>
<rscale>  0 0.98053847E+02</rscale>
<asrwt>0</asrwt>
<pdfrwt beam="1">  1        2 0.13015988E+00 0.98055274E+02</pdfrwt>
<pdfrwt beam="2">  1       -2 0.19584703E-02 0.98055274E+02</pdfrwt>
<totfact> 0.24203929E+04</totfact>
</mgrwt>
</event>
<event>
 8    1  0.3400573E-004  0.1081097E+03  0.7546771E-02  0.1264642E+00
         -1   -1    0    0    0  501 -0.00000000000E+00  0.00000000000E+00  0.32139382523E+02  0.32139382523E+02  0.00000000000E+00 0.  1.
          1   -1    0    0  501    0  0.00000000000E+00 -0.00000000000E+00 -0.37583919893E+03  0.37583919893E+03  0.00000000000E+00 0. -1.
         23    2    1    2    0    0  0.31814908952E+02  0.47416628877E+02 -0.13071758704E+03  0.16963136215E+03  0.91799707720E+02 0.  0.
         23    2    1    2    0    0 -0.31814908952E+02 -0.47416628877E+02 -0.21298222937E+03  0.23834721930E+03  0.90484483738E+02 0.  0.
          5    1    4    4  502    0 -0.92278664425E+01 -0.58667941293E+02 -0.20169055260E+03  0.21030513513E+03  0.47000000000E+01 0. -1.
         -5    1    3    3    0  503  0.56685642862E+01  0.52874516273E+02 -0.22269239948E+02  0.57843375939E+02  0.47000000000E+01 0.  1.
          5    1    3    3  503    0  0.26146344666E+02 -0.54578873955E+01 -0.10844834709E+03  0.11178798621E+03  0.47000000000E+01 0. -1.
         -5    1    4    4    0  502 -0.22587042509E+02  0.11251312416E+02 -0.11291676766E+02  0.28042084170E+02  0.47000000000E+01 0.  1.
<mgrwt>
<rscale>  0 0.10783000E+03</rscale>
<asrwt>0</asrwt>
<pdfrwt beam="1">  1        1 0.57821416E-01 0.10810972E+03</pdfrwt>
<pdfrwt beam="2">  1       -1 0.49445203E-02 0.10810972E+03</pdfrwt>
<totfact> 0.10927457E+04</totfact>
</mgrwt>
</event>
<event>
 8    1  0.3400573E-004  0.1488520E+03  0.7546771E-02  0.1201988E+00
          1   -1    0    0  501    0  0.00000000000E+00  0.00000000000E+00  0.33250141797E+02  0.33250141797E+02  0.00000000000E+00 0. -1.
         -1   -1    0    0    0  501 -0.00000000000E+00 -0.00000000000E+00 -0.76888818082E+03  0.76888818082E+03  0.00000000000E+00 0.  1.
         23    2    1    2    0    0 -0.76646639605E+02  0.89067555799E+02 -0.51492836262E+03  0.53592473551E+03  0.90864551069E+02 0.  0.
         23    2    1    2    0    0  0.76646639605E+02 -0.89067555799E+02 -0.22070967640E+03  0.26621358711E+03  0.91373824720E+02 0.  0.
          5    1    3    3  502    0  0.20017527772E+02  0.24903628358E+02 -0.10311687937E+03  0.10805587876E+03  0.47000000000E+01 0. -1.
         -5    1    4    4    0  503  0.49915456699E+02 -0.64312134948E+02 -0.21381441288E+03  0.22883683417E+03  0.47000000000E+01 0.  1.
          5    1    4    4  503    0  0.26731182906E+02 -0.24755420851E+02 -0.68952635261E+01  0.37376752937E+02  0.47000000000E+01 0. -1.
         -5    1    3    3    0  502 -0.96664167377E+02  0.64163927440E+02 -0.41181148325E+03  0.42786885675E+03  0.47000000000E+01 0.  1.
<mgrwt>
<rscale>  0 0.14877390E+03</rscale>
<asrwt>0</asrwt>
<pdfrwt beam="1">  1        1 0.51154068E-02 0.14885198E+03</pdfrwt>
<pdfrwt beam="2">  1       -1 0.11829048E+00 0.14885198E+03</pdfrwt>
<totfact> 0.10864580E+03</totfact>
</mgrwt>
</event>
<event>
 8    1  0.3400573E-004  0.9442359E+02  0.7546771E-02  0.1293947E+00
          2   -1    0    0  501    0  0.00000000000E+00  0.00000000000E+00  0.41191211629E+03  0.41191211629E+03  0.00000000000E+00 0. -1.
         -2   -1    0    0    0  501 -0.00000000000E+00 -0.00000000000E+00 -0.21984719520E+02  0.21984719520E+02  0.00000000000E+00 0.  1.
         23    2    1    2    0    0 -0.73498204679E+01  0.22830085636E+02  0.23677871652E+03  0.25397926525E+03  0.88690889651E+02 0.  0.
         23    2    1    2    0    0  0.73498204679E+01 -0.22830085636E+02  0.15314868025E+03  0.17991757056E+03  0.91326782843E+02 0.  0.
          5    1    4    4  502    0 -0.11711467226E+02 -0.53290424452E+02  0.11458083752E+03  0.12699561461E+03  0.47000000000E+01 0. -1.
         -5    1    4    4    0  502  0.19061287694E+02  0.30460338816E+02  0.38567842726E+02  0.52921955953E+02  0.47000000000E+01 0.  1.
          5    1    3    3  503    0  0.96952176446E+01 -0.20650385915E+02  0.17421676159E+03  0.17576690730E+03  0.47000000000E+01 0. -1.
         -5    1    3    3    0  503 -0.17045038112E+02  0.43480471551E+02  0.62561954933E+02  0.78212357947E+02  0.47000000000E+01 0.  1.
<mgrwt>
<rscale>  0 0.93780292E+02</rscale>
<asrwt>0</asrwt>
<pdfrwt beam="1">  1        2 0.63371089E-01 0.94423588E+02</pdfrwt>
<pdfrwt beam="2">  1       -2 0.33822649E-02 0.94423588E+02</pdfrwt>
<totfact> 0.24636205E+04</totfact>
</mgrwt>
</event>
<event>
 8    1  0.3400573E-004  0.1001569E+03  0.7546771E-02  0.1280750E+00
         -1   -1    0    0    0  501 -0.00000000000E+00  0.00000000000E+00  0.70355869579E+02  0.70355869579E+02  0.00000000000E+00 0.  1.
          1   -1    0    0  501    0  0.00000000000E+00 -0.00000000000E+00 -0.14069763460E+03  0.14069763460E+03  0.00000000000E+00 0. -1.
         23    2    1    2    0    0  0.34388031201E+02  0.10589550400E+02 -0.31265266946E+02  0.10492343359E+03  0.93470501934E+02 0.  0.
         23    2    1    2    0    0 -0.34388031201E+02 -0.10589550400E+02 -0.39076498078E+02  0.10613007059E+03  0.91880051774E+02 0.  0.
          5    1    4    4  502    0 -0.57346319470E+02 -0.25506478235E+02 -0.64330513059E+01  0.63266538848E+02  0.47000000000E+01 0. -1.
         -5    1    4    4    0  502  0.22958288269E+02  0.14916927835E+02 -0.32643446772E+02  0.42863531743E+02  0.47000000000E+01 0.  1.
          5    1    3    3  503    0  0.47529492350E+02 -0.55585283605E+01 -0.54965505178E+02  0.73029080783E+02  0.47000000000E+01 0. -1.
         -5    1    3    3    0  503 -0.13141461149E+02  0.16148078761E+02  0.23700238232E+02  0.31894352808E+02  0.47000000000E+01 0.  1.
<mgrwt>
<rscale>  0 0.99784197E+02</rscale>
<asrwt>0</asrwt>
<pdfrwt beam="1">  1        1 0.21645790E-01 0.10015693E+03</pdfrwt>
<pdfrwt beam="2">  1       -1 0.10823980E-01 0.10015693E+03</pdfrwt>
<totfact> 0.11331995E+04</totfact>
</mgrwt>
</event>
<event>
 8    1  0.3400573E-004  0.1013898E+03  0.7546771E-02  0.1282341E+00
         -3   -1    0    0    0  501 -0.00000000000E+00  0.00000000000E+00  0.38249441191E+03  0.38249441191E+03  0.00000000000E+00 0.  1.
          3   -1    0    0  501    0  0.00000000000E+00 -0.00000000000E+00 -0.37574845369E+02  0.37574845369E+02  0.00000000000E+00 0. -1.
         23    2    1    2    0    0 -0.13085247695E+02  0.16014601864E+02  0.30147098495E+03  0.31806390138E+03  0.99258246074E+02 0.  0.
         23    2    1    2    0    0  0.13085247695E+02 -0.16014601864E+02  0.43448581585E+02  0.10200535589E+03  0.89942327128E+02 0.  0.
          5    1    3    3  502    0 -0.93298572764E+01 -0.28833189227E+02  0.23881951235E+03  0.24078049862E+03  0.47000000000E+01 0. -1.
         -5    1    4    4    0  503 -0.34172300985E+02  0.12258018557E+02  0.22068730800E+02  0.42744871654E+02  0.47000000000E+01 0.  1.
          5    1    4    4  503    0  0.47257548680E+02 -0.28272620422E+02  0.21379850785E+02  0.59260484240E+02  0.47000000000E+01 0. -1.
         -5    1    3    3    0  502 -0.37553904188E+01  0.44847791091E+02  0.62651472609E+02  0.77283402766E+02  0.47000000000E+01 0.  1.
<mgrwt>
<rscale>  0 0.99033816E+02</rscale>
<asrwt>0</asrwt>
<pdfrwt beam="1">  1        3 0.57807457E-02 0.10138980E+03</pdfrwt>
<pdfrwt beam="2">  1       -3 0.58845291E-01 0.10138980E+03</pdfrwt>
<totfact> 0.11346315E+03</totfact>
</mgrwt>
</event>
<event>
 8    1  0.3400573E-004  0.9437342E+02  0.7546771E-02  0.1298452E+00
          1   -1    0    0  501    0  0.00000000000E+00  0.00000000000E+00  0.68232173448E+02  0.68232173448E+02  0.00000000000E+00 0. -1.
         -1   -1    0    0    0  501 -0.00000000000E+00 -0.00000000000E+00 -0.14279034903E+03  0.14279034903E+03  0.00000000000E+00 0.  1.
         23    2    1    2    0    0 -0.15757963898E+02 -0.15704965301E+02  0.88048370893E+01  0.85102969234E+02  0.81670256857E+02 0.  0.
         23    2    1    2    0    0  0.15757963898E+02  0.15704965301E+02 -0.83363012672E+02  0.12591955324E+03  0.91713590302E+02 0.  0.
          5    1    3    3  502    0 -0.23780721150E+02  0.17348253324E+02  0.31948445207E+02  0.43695282845E+02  0.47000000000E+01 0. -1.
         -5    1    4    4    0  503  0.50348783709E+02 -0.10507789312E+01 -0.26433596579E+02  0.57069511873E+02  0.47000000000E+01 0.  1.
          5    1    4    4  503    0 -0.34590819812E+02  0.16755744233E+02 -0.56929416093E+02  0.68850041370E+02  0.47000000000E+01 0. -1.
         -5    1    3    3    0  502  0.80227572527E+01 -0.33053218625E+02 -0.23143608117E+02  0.41407686389E+02  0.47000000000E+01 0.  1.
<mgrwt>
<rscale>  0 0.91841552E+02</rscale>
<asrwt>0</asrwt>
<pdfrwt beam="1">  1        1 0.10497258E-01 0.94373418E+02</pdfrwt>
<pdfrwt beam="2">  1       -1 0.21967746E-01 0.94373418E+02</pdfrwt>
<totfact> 0.94491997E+03</totfact>
</mgrwt>
</event>
<event>
 8    1  0.3400573E-004  0.1646598E+03  0.7546771E-02  0.1184677E+00
         -2   -1    0    0    0  501 -0.00000000000E+00  0.00000000000E+00  0.18824116822E+03  0.18824116822E+03  0.00000000000E+00 0.  1.
          2   -1    0    0  501    0  0.00000000000E+00 -0.00000000000E+00 -0.58005916615E+03  0.58005916615E+03  0.00000000000E+00 0. -1.
         23    2    1    2    0    0 -0.12809865779E+03 -0.27033768616E+02  0.13791269450E+03  0.21478534925E+03  0.99863627890E+02 0.  0.
         23    2    1    2    0    0  0.12809865779E+03  0.27033768616E+02 -0.52973069243E+03  0.55351498512E+03  0.92866255823E+02 0.  0.
          5    1    4    4  502    0  0.65211465030E+02  0.24870063581E+02 -0.42890777045E+03  0.43457452846E+03  0.47000000000E+01 0. -1.
         -5    1    4    4    0  502  0.62887192757E+02  0.21637050358E+01 -0.10082292198E+03  0.11894045665E+03  0.47000000000E+01 0.  1.
          5    1    3    3  503    0 -0.62224532299E+02 -0.79825505737E+01  0.25389777487E+01  0.62961495705E+02  0.47000000000E+01 0. -1.
         -5    1    3    3    0  503 -0.65874125488E+02 -0.19051218043E+02  0.13537371675E+03  0.15182385354E+03  0.47000000000E+01 0.  1.
<mgrwt>
<rscale>  0 0.16361298E+03</rscale>
<asrwt>0</asrwt>
<pdfrwt beam="1">  1        2 0.89239871E-01 0.16465976E+03</pdfrwt>
<pdfrwt beam="2">  1       -2 0.28960180E-01 0.16465976E+03</pdfrwt>
<totfact> 0.57709062E+02</totfact>
</mgrwt>
</event>
<event>
 8    1  0.3400573E-004  0.2078997E+03  0.7546771E-02  0.1143805E+00
         -1   -1    0    0    0  501 -0.00000000000E+00  0.00000000000E+00  0.25509138226E+03  0.25509138226E+03  0.00000000000E+00 0.  1.
          1   -1    0    0  501    0  0.00000000000E+00 -0.00000000000E+00 -0.18943413733E+03  0.18943413733E+03  0.00000000000E+00 0. -1.
         23    2    1    2    0    0  0.17448548151E+03 -0.65552438165E+02 -0.43570772135E+02  0.20967869442E+03  0.85582926458E+02 0.  0.
         23    2    1    2    0    0 -0.17448548151E+03  0.65552438165E+02  0.10922801706E+03  0.23484682518E+03  0.92086731817E+02 0.  0.
          5    1    3    3  502    0  0.28045824929E+02 -0.47473461566E+02  0.13942786835E+01  0.55356407597E+02  0.47000000000E+01 0. -1.
         -5    1    3    3    0  502  0.14643965658E+03 -0.18078976599E+02 -0.44965050818E+02  0.15432228682E+03  0.47000000000E+01 0.  1.
          5    1    4    4  503    0 -0.78204088619E+02  0.54116488054E+02  0.95254917923E+01  0.95693775920E+02  0.47000000000E+01 0. -1.
         -5    1    4    4    0  503 -0.96281392893E+02  0.11435950111E+02  0.99702525269E+02  0.13915304926E+03  0.47000000000E+01 0.  1.
<mgrwt>
<rscale>  0 0.20719664E+03</rscale>
<asrwt>0</asrwt>
<pdfrwt beam="1">  1        1 0.29143713E-01 0.20789967E+03</pdfrwt>
<pdfrwt beam="2">  1       -1 0.39244828E-01 0.20789967E+03</pdfrwt>
<totfact> 0.10016473E+03</totfact>
</mgrwt>
</event>
<event>
 8    1  0.3400573E-004  0.1839340E+03  0.7546771E-02  0.1164739E+00
         -3   -1    0    0    0  501 -0.00000000000E+00  0.00000000000E+00  0.10839612007E+03  0.10839612007E+03  0.00000000000E+00 0.  1.
          3   -1    0    0  501    0  0.00000000000E+00 -0.00000000000E+00 -0.53670898912E+03  0.53670898912E+03  0.00000000000E+00 0. -1.
         23    2    1    2    0    0  0.11878667535E+03  0.10679441263E+03 -0.42605768879E+03  0.46406559281E+03  0.91194295050E+02 0.  0.
         23    2    1    2    0    0 -0.11878667535E+03 -0.10679441263E+03 -0.22551802652E+01  0.18103951638E+03  0.85175699838E+02 0.  0.
          5    1    4    4  502    0 -0.49173162310E+02 -0.16955720647E+01 -0.20628235033E+02  0.53558276081E+02  0.47000000000E+01 0. -1.
         -5    1    3    3    0  503  0.41923676693E+02 -0.98506752911E+01 -0.82957361406E+02  0.93587628897E+02  0.47000000000E+01 0.  1.
          5    1    3    3  503    0  0.76862998654E+02  0.11664508793E+03 -0.34310032738E+03  0.37047796392E+03  0.47000000000E+01 0. -1.
         -5    1    4    4    0  502 -0.69613513036E+02 -0.10509884057E+03  0.18373054768E+02  0.12748124030E+03  0.47000000000E+01 0.  1.
<mgrwt>
<rscale>  0 0.18320252E+03</rscale>
<asrwt>0</asrwt>
<pdfrwt beam="1">  1        3 0.82570611E-01 0.18393401E+03</pdfrwt>
<pdfrwt beam="2">  1       -3 0.16676327E-01 0.18393401E+03</pdfrwt>
<totfact> 0.10427608E+02</totfact>
</mgrwt>
</event>
<event>
 8    1  0.3400573E-004  0.9549041E+02  0.7546771E-02  0.1292613E+00
         -3   -1    0    0    0  501 -0.00000000000E+00  0.00000000000E+00  0.54811711661E+02  0.54811711661E+02  0.00000000000E+00 0.  1.
          3   -1    0    0  501    0  0.00000000000E+00 -0.00000000000E+00 -0.19698027186E+03  0.19698027186E+03  0.00000000000E+00 0. -1.
         23    2    1    2    0    0 -0.16832631049E+02 -0.17718100352E+02 -0.14269558081E+02  0.92178157063E+02  0.87726414515E+02 0.  0.
         23    2    1    2    0    0  0.16832631049E+02  0.17718100352E+02 -0.12789900212E+03  0.15961382646E+03  0.92310076945E+02 0.  0.
          5    1    4    4  502    0 -0.17455231452E+02  0.31650572570E+02 -0.11419167787E+03  0.11986773187E+03  0.47000000000E+01 0. -1.
         -5    1    3    3    0  503 -0.50648558549E+02 -0.22005067157E+02 -0.13953594038E+01  0.55439484950E+02  0.47000000000E+01 0.  1.
          5    1    3    3  503    0  0.33815927500E+02  0.42869668055E+01 -0.12874198677E+02  0.36738672113E+02  0.47000000000E+01 0. -1.
         -5    1    4    4    0  502  0.34287862501E+02 -0.13932472218E+02 -0.13707324251E+02  0.39746094590E+02  0.47000000000E+01 0.  1.
<mgrwt>
<rscale>  0 0.94364804E+02</rscale>
<asrwt>0</asrwt>
<pdfrwt beam="1">  1        3 0.30304657E-01 0.95490412E+02</pdfrwt>
<pdfrwt beam="2">  1       -3 0.84325711E-02 0.95490412E+02</pdfrwt>
<totfact> 0.22088039E+03</totfact>
</mgrwt>
</event>
<event>
 8    1  0.3400573E-004  0.1072738E+03  0.7546771E-02  0.1268216E+00
         -1   -1    0    0    0  501 -0.00000000000E+00  0.00000000000E+00  0.22850888373E+02  0.22850888373E+02  0.00000000000E+00 0.  1.
          1   -1    0    0  501    0  0.00000000000E+00 -0.00000000000E+00 -0.62990388440E+03  0.62990388440E+03  0.00000000000E+00 0. -1.
         23    2    1    2    0    0 -0.17708285435E+02  0.46211307895E+02 -0.46841434036E+03  0.48054100064E+03  0.95176628900E+02 0.  0.
         23    2    1    2    0    0  0.17708285435E+02 -0.46211307895E+02 -0.13863865566E+03  0.17221377213E+03  0.89374706251E+02 0.  0.
          5    1    4    4  502    0  0.51646442928E+02 -0.36250998293E+02 -0.66845111054E+02  0.92042646725E+02  0.47000000000E+01 0. -1.
         -5    1    3    3    0  503 -0.11705913360E+02 -0.22161211767E+02 -0.46303789883E+02  0.52860937110E+02  0.47000000000E+01 0.  1.
          5    1    3    3  503    0 -0.60023720754E+01  0.68372519663E+02 -0.42211055047E+03  0.42768006353E+03  0.47000000000E+01 0. -1.
         -5    1    4    4    0  502 -0.33938157493E+02 -0.99603096024E+01 -0.71793544611E+02  0.80171125409E+02  0.47000000000E+01 0.  1.
<mgrwt>
<rscale>  0 0.10597211E+03</rscale>
<asrwt>0</asrwt>
<pdfrwt beam="1">  1        1 0.96908282E-01 0.10727376E+03</pdfrwt>
<pdfrwt beam="2">  1       -1 0.35155216E-02 0.10727376E+03</pdfrwt>
<totfact> 0.92216091E+03</totfact>
</mgrwt>
</event>
<event>
 8    1  0.3400573E-004  0.9482786E+02  0.7546771E-02  0.1292355E+00
         -2   -1    0    0    0  501 -0.00000000000E+00  0.00000000000E+00  0.20569098900E+03  0.20569098900E+03  0.00000000000E+00 0.  1.
          2   -1    0    0  501    0  0.00000000000E+00 -0.00000000000E+00 -0.66796884094E+02  0.66796884094E+02  0.00000000000E+00 0. -1.
         23    2    1    2    0    0  0.18161027419E+02  0.13570172444E+02 -0.12067668525E+02  0.94213424100E+02  0.90645287577E+02 0.  0.
         23    2    1    2    0    0 -0.18161027419E+02 -0.13570172444E+02  0.15096177343E+03  0.17827444899E+03  0.92077954089E+02 0.  0.
          5    1    3    3  502    0  0.56439337105E+01  0.45428662879E+02 -0.30348550713E+02  0.55124785070E+02  0.47000000000E+01 0. -1.
         -5    1    3    3    0  502  0.12517093708E+02 -0.31858490434E+02  0.18280882188E+02  0.39088639030E+02  0.47000000000E+01 0.  1.
          5    1    4    4  503    0  0.52503189323E+01  0.32481084381E+02  0.10070555616E+03  0.10604850651E+03  0.47000000000E+01 0. -1.
         -5    1    4    4    0  503 -0.23411346351E+02 -0.46051256825E+02  0.50256217270E+02  0.72225942482E+02  0.47000000000E+01 0.  1.
<mgrwt>
<rscale>  0 0.94478304E+02</rscale>
<asrwt>0</asrwt>
<pdfrwt beam="1">  1        2 0.10276444E-01 0.94827855E+02</pdfrwt>
<pdfrwt beam="2">  1       -2 0.31644767E-01 0.94827855E+02</pdfrwt>
<totfact> 0.53030859E+03</totfact>
</mgrwt>
</event>
<event>
 8    1  0.3400573E-004  0.1581542E+03  0.7546771E-02  0.1195911E+00
          2   -1    0    0  501    0  0.00000000000E+00  0.00000000000E+00  0.75975998179E+03  0.75975998179E+03  0.00000000000E+00 0. -1.
         -2   -1    0    0    0  501 -0.00000000000E+00 -0.00000000000E+00 -0.56477067484E+02  0.56477067484E+02  0.00000000000E+00 0.  1.
         23    2    1    2    0    0 -0.30447587559E+02  0.10364232107E+03  0.80207962073E+02  0.17733035830E+03  0.11551602698E+03 0.  0.
         23    2    1    2    0    0  0.30447587559E+02 -0.10364232107E+03  0.62307495224E+03  0.63890669098E+03  0.91162368147E+02 0.  0.
          5    1    3    3  502    0  0.35048316323E+02  0.22299228056E+02  0.56244012832E+02  0.70079376627E+02  0.47000000000E+01 0. -1.
         -5    1    3    3    0  502 -0.65495903882E+02  0.81343093014E+02  0.23963949241E+02  0.10725098167E+03  0.47000000000E+01 0.  1.
          5    1    4    4  503    0 -0.21291272874E+02 -0.66152665149E+02  0.42663651766E+03  0.43228497731E+03  0.47000000000E+01 0. -1.
         -5    1    4    4    0  503  0.51738860433E+02 -0.37489655921E+02  0.19643843458E+03  0.20662171367E+03  0.47000000000E+01 0.  1.
<mgrwt>
<rscale>  0 0.15377409E+03</rscale>
<asrwt>0</asrwt>
<pdfrwt beam="1">  1        2 0.11688614E+00 0.15815416E+03</pdfrwt>
<pdfrwt beam="2">  1       -2 0.86887802E-02 0.15815416E+03</pdfrwt>
<totfact> 0.30942103E+03</totfact>
</mgrwt>
</event>
<event>
 8    1  0.3400573E-004  0.1294937E+03  0.7546771E-02  0.1229254E+00
         -2   -1    0    0    0  501 -0.00000000000E+00  0.00000000000E+00  0.23443623835E+03  0.23443623835E+03  0.00000000000E+00 0.  1.
          2   -1    0    0  501    0  0.00000000000E+00 -0.00000000000E+00 -0.83216905361E+02  0.83216905361E+02  0.00000000000E+00 0. -1.
         23    2    1    2    0    0 -0.85659551269E+02 -0.23063156418E+02  0.13017981333E+02  0.13014637281E+03  0.94335267058E+02 0.  0.
         23    2    1    2    0    0  0.85659551269E+02  0.23063156418E+02  0.13820135166E+03  0.18750677090E+03  0.90497003405E+02 0.  0.
          5    1    3    3  502    0 -0.46302960403E+02 -0.57191789669E+02  0.22279060236E+02  0.77027991488E+02  0.47000000000E+01 0. -1.
         -5    1    3    3    0  502 -0.39356590867E+02  0.34128633251E+02 -0.92610789028E+01  0.53118381326E+02  0.47000000000E+01 0. -1.
          5    1    4    4  503    0  0.49179613544E+02 -0.48203826571E+01  0.91826300896E+01  0.50480502896E+02  0.47000000000E+01 0. -1.
         -5    1    4    4    0  503  0.36479937725E+02  0.27883539075E+02  0.12901872157E+03  0.13702626800E+03  0.47000000000E+01 0.  1.
<mgrwt>
<rscale>  0 0.12879583E+03</rscale>
<asrwt>0</asrwt>
<pdfrwt beam="1">  1        2 0.12802601E-01 0.12949367E+03</pdfrwt>
<pdfrwt beam="2">  1       -2 0.36067113E-01 0.12949367E+03</pdfrwt>
<totfact> 0.32783065E+03</totfact>
</mgrwt>
</event>
<event>
 8    1  0.3400573E-004  0.9410214E+02  0.7546771E-02  0.1295632E+00
         -1   -1    0    0    0  501 -0.00000000000E+00  0.00000000000E+00  0.13670885747E+03  0.13670885747E+03  0.00000000000E+00 0.  1.
          1   -1    0    0  501    0  0.00000000000E+00 -0.00000000000E+00 -0.64141820797E+02  0.64141820797E+02  0.00000000000E+00 0. -1.
         23    2    1    2    0    0 -0.14572969019E+02  0.71947714076E+01  0.18528425695E+02  0.95908894120E+02  0.92688064231E+02 0.  0.
         23    2    1    2    0    0  0.14572969019E+02 -0.71947714076E+01  0.54038610982E+02  0.10494178415E+03  0.88478643878E+02 0.  0.
          5    1    3    3  502    0  0.30346987838E+01 -0.33827207128E+02  0.34138637130E+02  0.48384149097E+02  0.47000000000E+01 0. -1.
         -5    1    4    4    0  503  0.27124100470E+02  0.31010550024E+02  0.48922936957E+02  0.64132010725E+02  0.47000000000E+01 0.  1.
          5    1    4    4  503    0 -0.12551131451E+02 -0.38205321432E+02  0.51156740249E+01  0.40809773427E+02  0.47000000000E+01 0. -1.
         -5    1    3    3    0  502 -0.17607667803E+02  0.41021978535E+02 -0.15610211435E+02  0.47524745023E+02  0.47000000000E+01 0.  1.
<mgrwt>
<rscale>  0 0.93048782E+02</rscale>
<asrwt>0</asrwt>
<pdfrwt beam="1">  1        1 0.98679724E-02 0.94102144E+02</pdfrwt>
<pdfrwt beam="2">  1       -1 0.21032132E-01 0.94102144E+02</pdfrwt>
<totfact> 0.10982832E+04</totfact>
</mgrwt>
</event>
<event>
 8    1  0.3400573E-004  0.1274277E+03  0.7546771E-02  0.1242267E+00
          1   -1    0    0  501    0  0.00000000000E+00  0.00000000000E+00  0.18262228161E+03  0.18262228161E+03  0.00000000000E+00 0. -1.
         -1   -1    0    0    0  501 -0.00000000000E+00 -0.00000000000E+00 -0.91773066085E+02  0.91773066085E+02  0.00000000000E+00 0.  1.
         23    2    1    2    0    0 -0.37149498577E+02  0.15076876257E+02 -0.21910321765E+02  0.10424090091E+03  0.93694747879E+02 0.  0.
         23    2    1    2    0    0  0.37149498577E+02 -0.15076876257E+02  0.11275953729E+03  0.17015444678E+03  0.12095629404E+03 0.  0.
          5    1    4    4  502    0  0.74169782163E+02  0.35989204597E+01  0.35712284223E+02  0.82532212251E+02  0.47000000000E+01 0. -1.
         -5    1    4    4    0  502 -0.37020283586E+02 -0.18675796716E+02  0.77047253063E+02  0.87622234531E+02  0.47000000000E+01 0.  1.
          5    1    3    3  503    0 -0.55977317751E+02  0.40963959000E+02 -0.13675104300E+02  0.70856224266E+02  0.47000000000E+01 0. -1.
         -5    1    3    3    0  503  0.18827819174E+02 -0.25887082744E+02 -0.82352174650E+01  0.33384676643E+02  0.47000000000E+01 0.  1.
<mgrwt>
<rscale>  0 0.12050484E+03</rscale>
<asrwt>0</asrwt>
<pdfrwt beam="1">  1        1 0.28095736E-01 0.12742771E+03</pdfrwt>
<pdfrwt beam="2">  1       -1 0.14118933E-01 0.12742771E+03</pdfrwt>
<totfact> 0.55394128E+03</totfact>
</mgrwt>
</event>
<event>
 7    1  0.3400573E-004  0.2032577E+03  0.7546771E-02  0.1170141E+00
         -1   -1    0    0    0  501 -0.00000000000E+00  0.00000000000E+00  0.11119889952E+03  0.11119889952E+03  0.00000000000E+00 0.  1.
          1   -1    0    0  501    0  0.00000000000E+00 -0.00000000000E+00 -0.25188098870E+03  0.25188098870E+03  0.00000000000E+00 0. -1.
         23    2    1    2    0    0 -0.57940325743E+02 -0.48835795605E+02 -0.10163235869E+03  0.15610507275E+03  0.91091388873E+02 0.  0.
          5    1    3    3  502    0 -0.63418349593E+00 -0.57171486465E+02 -0.68024300394E+02  0.88985260001E+02  0.47000000000E+01 0. -1.
         -5    1    1    2    0  503 -0.32263061253E+02  0.87406182866E+02 -0.53748373244E+02  0.10766486684E+03  0.47000000000E+01 0.  1.
          5    1    1    2  503    0  0.90203386996E+02 -0.38570387261E+02  0.14698642744E+02  0.99309948633E+02  0.47000000000E+01 0. -1.
         -5    1    3    3    0  502 -0.57306142247E+02  0.83356908601E+01 -0.33608058291E+02  0.67119812749E+02  0.47000000000E+01 0.  1.
<mgrwt>
<rscale>  0 0.17760485E+03</rscale>
<asrwt>0</asrwt>
<pdfrwt beam="1">  1        1 0.38750921E-01 0.20325770E+03</pdfrwt>
<pdfrwt beam="2">  1       -1 0.17107523E-01 0.20325770E+03</pdfrwt>
<totfact> 0.28049880E+03</totfact>
</mgrwt>
</event>
<event>
 8    1  0.3400573E-004  0.9939440E+02  0.7546771E-02  0.1283306E+00
         -2   -1    0    0    0  501 -0.00000000000E+00  0.00000000000E+00  0.36056789441E+03  0.36056789441E+03  0.00000000000E+00 0.  1.
          2   -1    0    0  501    0  0.00000000000E+00 -0.00000000000E+00 -0.50448653808E+02  0.50448653808E+02  0.00000000000E+00 0. -1.
         23    2    1    2    0    0 -0.32785834596E+02  0.10392026041E+02  0.14876832681E+02  0.10050157418E+03  0.93254174739E+02 0.  0.
         23    2    1    2    0    0  0.32785834596E+02 -0.10392026041E+02  0.29524240792E+03  0.31051497404E+03  0.89825188627E+02 0.  0.
          5    1    4    4  502    0 -0.23629439747E+02  0.11012262920E+02  0.38481976657E+02  0.46718014564E+02  0.47000000000E+01 0. -1.
         -5    1    3    3    0  503 -0.16548054765E+02 -0.39756547046E+02 -0.57583414127E+01  0.43699767109E+02  0.47000000000E+01 0.  1.
          5    1    3    3  503    0 -0.16237779832E+02  0.50148573087E+02  0.20635174093E+02  0.56801807070E+02  0.47000000000E+01 0. -1.
         -5    1    4    4    0  502  0.56415274343E+02 -0.21404288961E+02  0.25676043127E+03  0.26379695948E+03  0.47000000000E+01 0.  1.
<mgrwt>
<rscale>  0 0.98582033E+02</rscale>
<asrwt>0</asrwt>
<pdfrwt beam="1">  1        2 0.77613316E-02 0.99394398E+02</pdfrwt>
<pdfrwt beam="2">  1       -2 0.55471982E-01 0.99394398E+02</pdfrwt>
<totfact> 0.25880395E+03</totfact>
</mgrwt>
</event>
<event>
 8    1  0.3400573E-004  0.1082768E+03  0.7546771E-02  0.1264833E+00
         -1   -1    0    0    0  501 -0.00000000000E+00  0.00000000000E+00  0.37749931418E+03  0.37749931418E+03  0.00000000000E+00 0.  1.
          1   -1    0    0  501    0  0.00000000000E+00 -0.00000000000E+00 -0.36581191336E+02  0.36581191336E+02  0.00000000000E+00 0. -1.
         23    2    1    2    0    0 -0.12672257039E+02  0.53147286621E+02  0.25387081343E+03  0.27515210214E+03  0.90956413889E+02 0.  0.
         23    2    1    2    0    0  0.12672257039E+02 -0.53147286621E+02  0.87047309415E+02  0.13892840338E+03  0.93480730713E+02 0.  0.
          5    1    3    3  502    0  0.29945428403E+02  0.53073871749E+02  0.12144033189E+03  0.13595370077E+03  0.47000000000E+01 0. -1.
         -5    1    3    3    0  502 -0.42617685442E+02  0.73414871961E-01  0.13243048154E+03  0.13919840137E+03  0.47000000000E+01 0.  1.
          5    1    4    4  503    0 -0.10289101755E+02 -0.25558942477E+02 -0.14238497365E+02  0.31367976707E+02  0.47000000000E+01 0. -1.
         -5    1    4    4    0  503  0.22961358795E+02 -0.27588344144E+02  0.10128580678E+03  0.10756042667E+03  0.47000000000E+01 0.  1.
<mgrwt>
<rscale>  0 0.10772975E+03</rscale>
<asrwt>0</asrwt>
<pdfrwt beam="1">  1        1 0.56278758E-02 0.10827681E+03</pdfrwt>
<pdfrwt beam="2">  1       -1 0.58076815E-01 0.10827681E+03</pdfrwt>
<totfact> 0.41222519E+03</totfact>
</mgrwt>
</event>
<event>
 8    1  0.3400573E-004  0.1011763E+03  0.7546771E-02  0.1277919E+00
         -1   -1    0    0    0  501 -0.00000000000E+00  0.00000000000E+00  0.53147190794E+02  0.53147190794E+02  0.00000000000E+00 0.  1.
          1   -1    0    0  501    0  0.00000000000E+00 -0.00000000000E+00 -0.20302361716E+03  0.20302361716E+03  0.00000000000E+00 0. -1.
         23    2    1    2    0    0  0.41479391088E+02 -0.45147788039E+01 -0.10439249387E+03  0.14537689719E+03  0.92172264525E+02 0.  0.
         23    2    1    2    0    0 -0.41479391088E+02  0.45147788039E+01 -0.45483932490E+02  0.11079391076E+03  0.92008583479E+02 0.  0.
          5    1    4    4  502    0 -0.33853300685E+02  0.46552427593E+02 -0.21879616430E+02  0.61757445682E+02  0.47000000000E+01 0. -1.
         -5    1    3    3    0  503 -0.25227159375E+01 -0.21426722224E+02  0.79388721537E+01  0.23464530936E+02  0.47000000000E+01 0.  1.
          5    1    3    3  503    0  0.44002107025E+02  0.16911943420E+02 -0.11233136603E+03  0.12191236626E+03  0.47000000000E+01 0. -1.
         -5    1    4    4    0  502 -0.76260904027E+01 -0.42037648789E+02 -0.23604316059E+02  0.49036465076E+02  0.47000000000E+01 0.  1.
<mgrwt>
<rscale>  0 0.10113903E+03</rscale>
<asrwt>0</asrwt>
<pdfrwt beam="1">  1        1 0.31234402E-01 0.10117633E+03</pdfrwt>
<pdfrwt beam="2">  1       -1 0.81764910E-02 0.10117633E+03</pdfrwt>
<totfact> 0.10987237E+04</totfact>
</mgrwt>
</event>
<event>
 8    1  0.3400573E-004  0.1131076E+03  0.7546771E-02  0.1255494E+00
         -2   -1    0    0    0  501 -0.00000000000E+00  0.00000000000E+00  0.11071081059E+03  0.11071081059E+03  0.00000000000E+00 0.  1.
          2   -1    0    0  501    0  0.00000000000E+00 -0.00000000000E+00 -0.32269091448E+03  0.32269091448E+03  0.00000000000E+00 0. -1.
         23    2    1    2    0    0  0.27027630048E+02  0.59490841332E+02  0.68383105083E+02  0.13108259321E+03  0.90756510476E+02 0.  0.
         23    2    1    2    0    0 -0.27027630048E+02 -0.59490841332E+02 -0.28036320897E+03  0.30231913185E+03  0.92323753978E+02 0.  0.
          5    1    4    4  502    0  0.33874673254E+02 -0.20101042525E+02 -0.82850576961E+02  0.91857789552E+02  0.47000000000E+01 0. -1.
         -5    1    3    3    0  503  0.23918107639E+02  0.27438279159E+02  0.86408427326E+02  0.93879930492E+02  0.47000000000E+01 0.  1.
          5    1    3    3  503    0  0.31095224090E+01  0.32052562174E+02 -0.18025322242E+02  0.37202662720E+02  0.47000000000E+01 0. -1.
         -5    1    4    4    0  502 -0.60902303301E+02 -0.39389798807E+02 -0.19751263201E+03  0.21046134230E+03  0.47000000000E+01 0.  1.
<mgrwt>
<rscale>  0 0.11278734E+03</rscale>
<asrwt>0</asrwt>
<pdfrwt beam="1">  1        2 0.49644756E-01 0.11310760E+03</pdfrwt>
<pdfrwt beam="2">  1       -2 0.17032432E-01 0.11310760E+03</pdfrwt>
<totfact> 0.26911664E+03</totfact>
</mgrwt>
</event>
<event>
 8    1  0.3400573E-004  0.9962345E+02  0.7546771E-02  0.1281225E+00
         -2   -1    0    0    0  501 -0.00000000000E+00  0.00000000000E+00  0.49520396513E+02  0.49520396513E+02  0.00000000000E+00 0.  1.
          2   -1    0    0  501    0  0.00000000000E+00 -0.00000000000E+00 -0.25255561130E+03  0.25255561130E+03  0.00000000000E+00 0. -1.
         23    2    1    2    0    0  0.42622826613E+02 -0.14438788898E+02 -0.17037603057E+03  0.19723586853E+03  0.88593521600E+02 0.  0.
         23    2    1    2    0    0 -0.42622826613E+02  0.14438788898E+02 -0.32659184220E+02  0.10484013928E+03  0.88879966909E+02 0.  0.
          5    1    3    3  502    0  0.63508263104E+02  0.76166995281E+01 -0.14014684436E+03  0.15412508420E+03  0.47000000000E+01 0. -1.
         -5    1    4    4    0  503 -0.13151972234E+02 -0.23282284454E+02  0.19848936300E+02  0.33631970137E+02  0.47000000000E+01 0.  1.
          5    1    4    4  503    0 -0.29470854379E+02  0.37721073352E+02 -0.52508120520E+02  0.71208169146E+02  0.47000000000E+01 0. -1.
         -5    1    3    3    0  502 -0.20885436491E+02 -0.22055488426E+02 -0.30229186207E+02  0.43110784333E+02  0.47000000000E+01 0.  1.
<mgrwt>
<rscale>  0 0.99559524E+02</rscale>
<asrwt>0</asrwt>
<pdfrwt beam="1">  1        2 0.38854709E-01 0.99623454E+02</pdfrwt>
<pdfrwt beam="2">  1       -2 0.76185226E-02 0.99623454E+02</pdfrwt>
<totfact> 0.12332610E+04</totfact>
</mgrwt>
</event>
<event>
 8    1  0.3400573E-004  0.1366554E+03  0.7546771E-02  0.1218872E+00
         -2   -1    0    0    0  501 -0.00000000000E+00  0.00000000000E+00  0.16365637999E+03  0.16365637999E+03  0.00000000000E+00 0.  1.
          2   -1    0    0  501    0  0.00000000000E+00 -0.00000000000E+00 -0.12443422670E+03  0.12443422670E+03  0.00000000000E+00 0. -1.
         23    2    1    2    0    0  0.63072948627E+02 -0.76771153251E+02 -0.26080516591E+02  0.13912190117E+03  0.93822722302E+02 0.  0.
         23    2    1    2    0    0 -0.63072948627E+02  0.76771153251E+02  0.65302669875E+02  0.14896870551E+03  0.89750931524E+02 0.  0.
          5    1    3    3  502    0  0.78268696247E+02 -0.46907758535E+02 -0.43352836117E+02  0.10113300659E+03  0.47000000000E+01 0. -1.
         -5    1    4    4    0  503 -0.78473949012E+01  0.76968548162E+02  0.46765804146E+02  0.90525518227E+02  0.47000000000E+01 0.  1.
          5    1    4    4  503    0 -0.55225553726E+02 -0.19739491091E+00  0.18536865730E+02  0.58443187286E+02  0.47000000000E+01 0. -1.
         -5    1    3    3    0  502 -0.15195747619E+02 -0.29863394716E+02  0.17272319526E+02  0.37988894581E+02  0.47000000000E+01 0.  1.
<mgrwt>
<rscale>  0 0.13595944E+03</rscale>
<asrwt>0</asrwt>
<pdfrwt beam="1">  1        2 0.19143727E-01 0.13665544E+03</pdfrwt>
<pdfrwt beam="2">  1       -2 0.25177905E-01 0.13665544E+03</pdfrwt>
<totfact> 0.39313969E+03</totfact>
</mgrwt>
</event>
<event>
 8    1  0.3400573E-004  0.1015913E+03  0.7546771E-02  0.1279918E+00
         -2   -1    0    0    0  501 -0.00000000000E+00  0.00000000000E+00  0.29977092880E+02  0.29977092880E+02  0.00000000000E+00 0.  1.
          2   -1    0    0  501    0  0.00000000000E+00 -0.00000000000E+00 -0.37272766904E+03  0.37272766904E+03  0.00000000000E+00 0. -1.
         23    2    1    2    0    0  0.22425239998E+02  0.36536534696E+02 -0.23860204864E+03  0.25721352897E+03  0.85965412314E+02 0.  0.
         23    2    1    2    0    0 -0.22425239998E+02 -0.36536534696E+02 -0.10414852752E+03  0.14549123295E+03  0.92103058170E+02 0.  0.
          5    1    4    4  502    0 -0.24586387939E+02  0.25074343539E+02 -0.59418025779E+02  0.69179512597E+02  0.47000000000E+01 0. -1.
         -5    1    4    4    0  502  0.21611479409E+01 -0.61610878235E+02 -0.44730501746E+02  0.76311720356E+02  0.47000000000E+01 0.  1.
          5    1    3    3  503    0 -0.41797231619E+00  0.45587370704E+02 -0.53577558220E+02  0.70505516191E+02  0.47000000000E+01 0. -1.
         -5    1    3    3    0  503  0.22843212314E+02 -0.90508360085E+01 -0.18502449042E+03  0.18670801278E+03  0.47000000000E+01 0.  1.
<mgrwt>
<rscale>  0 0.10017974E+03</rscale>
<asrwt>0</asrwt>
<pdfrwt beam="1">  1        2 0.57342721E-01 0.10159125E+03</pdfrwt>
<pdfrwt beam="2">  1       -2 0.46118602E-02 0.10159125E+03</pdfrwt>
<totfact> 0.17466807E+04</totfact>
</mgrwt>
</event>
<event>
 8    1  0.3400573E-004  0.9691915E+02  0.7546771E-02  0.1287997E+00
          2   -1    0    0  501    0  0.00000000000E+00  0.00000000000E+00  0.55601312486E+03  0.55601312486E+03  0.00000000000E+00 0.  1.
         -2   -1    0    0    0  501 -0.00000000000E+00 -0.00000000000E+00 -0.19857260672E+02  0.19857260672E+02  0.00000000000E+00 0. -1.
         23    2    1    2    0    0 -0.18927855400E+02 -0.24852439698E+02  0.14837085537E+03  0.17615732091E+03  0.89674876730E+02 0.  0.
         23    2    1    2    0    0  0.18927855400E+02  0.24852439698E+02  0.38778500881E+03  0.39971306462E+03  0.91746463149E+02 0.  0.
          5    1    4    4  502    0 -0.35015302439E+02  0.23273790331E+02  0.18919261435E+03  0.19386509754E+03  0.47000000000E+01 0.  1.
         -5    1    3    3    0  503 -0.54268032952E+02 -0.15891010403E+02  0.74523345162E+02  0.93666229700E+02  0.47000000000E+01 0.  1.
          5    1    3    3  503    0  0.35340177552E+02 -0.89614292946E+01  0.73847510212E+02  0.82491091209E+02  0.47000000000E+01 0. -1.
         -5    1    4    4    0  502  0.53943157839E+02  0.15786493670E+01  0.19859239446E+03  0.20584796708E+03  0.47000000000E+01 0. -1.
<mgrwt>
<rscale>  0 0.96425722E+02</rscale>
<asrwt>0</asrwt>
<pdfrwt beam="1">  1        2 0.85540469E-01 0.96919147E+02</pdfrwt>
<pdfrwt beam="2">  1       -2 0.30549636E-02 0.96919147E+02</pdfrwt>
<totfact> 0.20742984E+04</totfact>
</mgrwt>
</event>
<event>
 8    1  0.3400573E-004  0.9856590E+02  0.7546771E-02  0.1288101E+00
          2   -1    0    0  501    0  0.00000000000E+00  0.00000000000E+00  0.72379558267E+02  0.72379558267E+02  0.00000000000E+00 0. -1.
         -2   -1    0    0    0  501 -0.00000000000E+00 -0.00000000000E+00 -0.12344676442E+03  0.12344676442E+03  0.00000000000E+00 0.  1.
         23    2    1    2    0    0  0.18384271995E+02  0.33743424915E+02 -0.18179306619E+02  0.91918426081E+02  0.81497912134E+02 0.  0.
         23    2    1    2    0    0 -0.18384271995E+02 -0.33743424915E+02 -0.32887899530E+02  0.10390789660E+03  0.90766937037E+02 0.  0.
          5    1    3    3  502    0 -0.69553347024E+01  0.51965068602E+02  0.48286843006E+01  0.52859731628E+02  0.47000000000E+01 0. -1.
         -5    1    3    3    0  502  0.25339606697E+02 -0.18221643687E+02 -0.23007990919E+02  0.39058694453E+02  0.47000000000E+01 0.  1.
          5    1    4    4  503    0 -0.21017260554E+02  0.23735226804E+01 -0.56439323833E+02  0.60455323386E+02  0.47000000000E+01 0. -1.
         -5    1    4    4    0  503  0.26329885590E+01 -0.36116947595E+02  0.23551424303E+02  0.43452573216E+02  0.47000000000E+01 0.  1.
<mgrwt>
<rscale>  0 0.96378368E+02</rscale>
<asrwt>0</asrwt>
<pdfrwt beam="1">  1        2 0.11135317E-01 0.98565902E+02</pdfrwt>
<pdfrwt beam="2">  1       -2 0.18991810E-01 0.98565902E+02</pdfrwt>
<totfact> 0.11683880E+04</totfact>
</mgrwt>
</event>
<event>
 8    1  0.3400573E-004  0.9611817E+02  0.7546771E-02  0.1289228E+00
          1   -1    0    0  501    0  0.00000000000E+00  0.00000000000E+00  0.27350325822E+02  0.27350325822E+02  0.00000000000E+00 0. -1.
         -1   -1    0    0    0  501 -0.00000000000E+00 -0.00000000000E+00 -0.37583793929E+03  0.37583793929E+03  0.00000000000E+00 0.  1.
         23    2    1    2    0    0 -0.19088234615E+02  0.18330046752E+02 -0.24203933992E+03  0.26042608423E+03  0.92403203215E+02 0.  0.
         23    2    1    2    0    0  0.19088234615E+02 -0.18330046752E+02 -0.10644827354E+03  0.14276218088E+03  0.91375346968E+02 0.  0.
          5    1    4    4  502    0 -0.19110353126E+02  0.10108037720E+02 -0.89188107247E+02  0.91891166591E+02  0.47000000000E+01 0. -1.
         -5    1    3    3    0  503  0.19841493590E+02 -0.26236782183E+02 -0.12296104943E+03  0.12737175230E+03  0.47000000000E+01 0.  1.
          5    1    3    3  503    0 -0.38929728206E+02  0.44566828936E+02 -0.11907829050E+03  0.13305433194E+03  0.47000000000E+01 0. -1.
         -5    1    4    4    0  502  0.38198587741E+02 -0.28438084472E+02 -0.17260166297E+02  0.50871014286E+02  0.47000000000E+01 0.  1.
<mgrwt>
<rscale>  0 0.95870289E+02</rscale>
<asrwt>0</asrwt>
<pdfrwt beam="1">  1        1 0.42077427E-02 0.96118174E+02</pdfrwt>
<pdfrwt beam="2">  1       -1 0.57821217E-01 0.96118174E+02</pdfrwt>
<totfact> 0.61094659E+03</totfact>
</mgrwt>
</event>
<event>
 8    1  0.3400573E-004  0.9654267E+02  0.7546771E-02  0.1288395E+00
         -2   -1    0    0    0  501 -0.00000000000E+00  0.00000000000E+00  0.73756663231E+02  0.73756663231E+02  0.00000000000E+00 0.  1.
          2   -1    0    0  501    0  0.00000000000E+00 -0.00000000000E+00 -0.14131526496E+03  0.14131526496E+03  0.00000000000E+00 0. -1.
         23    2    1    2    0    0 -0.11480262461E+02  0.30573826568E+02 -0.70329870944E+02  0.11848949387E+03  0.89593047242E+02 0.  0.
         23    2    1    2    0    0  0.11480262461E+02 -0.30573826568E+02  0.27712692191E+01  0.96582434313E+02  0.90851149622E+02 0.  0.
          5    1    4    4  502    0 -0.21841319867E+02 -0.49023681393E+02 -0.12454279751E+02  0.55295240980E+02  0.47000000000E+01 0. -1.
         -5    1    4    4    0  502  0.33321582328E+02  0.18449854825E+02  0.15225548970E+02  0.41287193334E+02  0.47000000000E+01 0.  1.
          5    1    3    3  503    0  0.10030293041E+01 -0.25950314634E+02 -0.50748207177E+02  0.57200484517E+02  0.47000000000E+01 0. -1.
         -5    1    3    3    0  503 -0.12483291766E+02  0.56524141202E+02 -0.19581663767E+02  0.61289009356E+02  0.47000000000E+01 0.  1.
<mgrwt>
<rscale>  0 0.96245553E+02</rscale>
<asrwt>0</asrwt>
<pdfrwt beam="1">  1        2 0.21740810E-01 0.96542668E+02</pdfrwt>
<pdfrwt beam="2">  1       -2 0.11347179E-01 0.96542668E+02</pdfrwt>
<totfact> 0.12398024E+04</totfact>
</mgrwt>
</event>
<event>
 8    1  0.3400573E-004  0.9133673E+02  0.7546771E-02  0.1300620E+00
          2   -1    0    0  501    0  0.00000000000E+00  0.00000000000E+00  0.80373879087E+03  0.80373879087E+03  0.00000000000E+00 0. -1.
         -2   -1    0    0    0  501 -0.00000000000E+00 -0.00000000000E+00 -0.12281414465E+02  0.12281414465E+02  0.00000000000E+00 0.  1.
         23    2    1    2    0    0 -0.99265874607E+01  0.13278147884E+02  0.56091414323E+03  0.56804322861E+03  0.88167948521E+02 0.  0.
         23    2    1    2    0    0  0.99265874607E+01 -0.13278147884E+02  0.23054323317E+03  0.24797697672E+03  0.89819553950E+02 0.  0.
          5    1    3    3  502    0 -0.32375035751E+01  0.47397115379E+02  0.42503547031E+03  0.42770808853E+03  0.47000000000E+01 0. -1.
         -5    1    3    3    0  502 -0.66890838857E+01 -0.34118967495E+02  0.13587867292E+03  0.14033514008E+03  0.47000000000E+01 0.  1.
          5    1    4    4  503    0  0.32507622956E+02 -0.15158193156E+02  0.21927313810E+03  0.22223707040E+03  0.47000000000E+01 0. -1.
         -5    1    4    4    0  503 -0.22581035495E+02  0.18800452727E+01  0.11270095075E+02  0.25739906318E+02  0.47000000000E+01 0.  1.
<mgrwt>
<rscale>  0 0.90928080E+02</rscale>
<asrwt>0</asrwt>
<pdfrwt beam="1">  1        2 0.12365208E+00 0.91336732E+02</pdfrwt>
<pdfrwt beam="2">  1       -2 0.18894490E-02 0.91336732E+02</pdfrwt>
<totfact> 0.26973676E+04</totfact>
</mgrwt>
</event>
<event>
 8    1  0.3400573E-004  0.9459370E+02  0.7546771E-02  0.1293165E+00
         -1   -1    0    0    0  501 -0.00000000000E+00  0.00000000000E+00  0.25751925318E+02  0.25751925318E+02  0.00000000000E+00 0.  1.
          1   -1    0    0  501    0  0.00000000000E+00 -0.00000000000E+00 -0.53083446491E+03  0.53083446491E+03  0.00000000000E+00 0. -1.
         23    2    1    2    0    0 -0.25653784133E+02 -0.63222309621E+01 -0.87580502854E+02  0.12891203608E+03  0.90828857313E+02 0.  0.
         23    2    1    2    0    0  0.25653784133E+02  0.63222309621E+01 -0.41750203674E+03  0.42767435415E+03  0.88878092204E+02 0.  0.
          5    1    3    3  502    0  0.28209498613E+02  0.18757859436E+02 -0.40141875610E+02  0.52736071906E+02  0.47000000000E+01 0. -1.
         -5    1    4    4    0  503  0.51690273827E+02 -0.18780383874E+02 -0.21893420038E+03  0.22578498914E+03  0.47000000000E+01 0.  1.
          5    1    4    4  503    0 -0.26036489694E+02  0.25102614837E+02 -0.19856783636E+03  0.20188936501E+03  0.47000000000E+01 0. -1.
         -5    1    3    3    0  502 -0.53863282746E+02 -0.25080090398E+02 -0.47438627244E+02  0.76175964171E+02  0.47000000000E+01 0.  1.
<mgrwt>
<rscale>  0 0.94122310E+02</rscale>
<asrwt>0</asrwt>
<pdfrwt beam="1">  1        1 0.81666833E-01 0.94593703E+02</pdfrwt>
<pdfrwt beam="2">  1       -1 0.39618350E-02 0.94593703E+02</pdfrwt>
<totfact> 0.96466167E+03</totfact>
</mgrwt>
</event>
<event>
 8    1  0.3400573E-004  0.1453226E+03  0.7546771E-02  0.1217708E+00
          3   -1    0    0  501    0  0.00000000000E+00  0.00000000000E+00  0.29847877342E+03  0.29847877342E+03  0.00000000000E+00 0. -1.
         -3   -1    0    0    0  501 -0.00000000000E+00 -0.00000000000E+00 -0.12107910857E+03  0.12107910857E+03  0.00000000000E+00 0.  1.
         23    2    1    2    0    0 -0.27975029879E+02  0.64683228227E+02 -0.59172988088E+02  0.15690794043E+03  0.12709105767E+03 0.  0.
         23    2    1    2    0    0  0.27975029879E+02 -0.64683228227E+02  0.23657265293E+03  0.26264994156E+03  0.89732097807E+02 0.  0.
          5    1    4    4  502    0  0.52202949289E+02 -0.68858304403E+02  0.20380307281E+03  0.22141453540E+03  0.47000000000E+01 0. -1.
         -5    1    3    3    0  503 -0.64546297372E+02  0.66610509682E+02 -0.72325840649E+02  0.11771279340E+03  0.47000000000E+01 0.  1.
          5    1    3    3  503    0  0.36571267493E+02 -0.19272814556E+01  0.13152852561E+02  0.39195147025E+02  0.47000000000E+01 0. -1.
         -5    1    4    4    0  502 -0.24227919410E+02  0.41750761761E+01  0.32769580125E+02  0.41235406164E+02  0.47000000000E+01 0.  1.
<mgrwt>
<rscale>  0 0.13679476E+03</rscale>
<asrwt>0</asrwt>
<pdfrwt beam="1">  1        3 0.45919811E-01 0.14532260E+03</pdfrwt>
<pdfrwt beam="2">  1       -3 0.18627555E-01 0.14532260E+03</pdfrwt>
<totfact> 0.28348767E+02</totfact>
</mgrwt>
</event>
<event>
 8    1  0.3400573E-004  0.1117663E+03  0.7546771E-02  0.1259531E+00
          1   -1    0    0  501    0  0.00000000000E+00  0.00000000000E+00  0.77368764995E+02  0.77368764995E+02  0.00000000000E+00 0. -1.
         -1   -1    0    0    0  501 -0.00000000000E+00 -0.00000000000E+00 -0.24579836675E+03  0.24579836675E+03  0.00000000000E+00 0.  1.
         23    2    1    2    0    0 -0.24080031551E+02  0.52616121101E+02 -0.18372382546E+03  0.21504916942E+03  0.95621112232E+02 0.  0.
         23    2    1    2    0    0  0.24080031551E+02 -0.52616121101E+02  0.15294223705E+02  0.10811796233E+03  0.90040415264E+02 0.  0.
          5    1    4    4  502    0  0.54138111619E+02 -0.52140896488E+02  0.32098405854E+01  0.75379050756E+02  0.47000000000E+01 0. -1.
         -5    1    4    4    0  502 -0.30058080068E+02 -0.47522461264E+00  0.12084383120E+02  0.32738911576E+02  0.47000000000E+01 0.  1.
          5    1    3    3  503    0  0.22986729941E+02 -0.14062129891E+02 -0.27842366019E+02  0.39031020945E+02  0.47000000000E+01 0. -1.
         -5    1    3    3    0  503 -0.47066761493E+02  0.66678250992E+02 -0.15588145944E+03  0.17601814847E+03  0.47000000000E+01 0.  1.
<mgrwt>
<rscale>  0 0.11056311E+03</rscale>
<asrwt>0</asrwt>
<pdfrwt beam="1">  1        1 0.11902887E-01 0.11176628E+03</pdfrwt>
<pdfrwt beam="2">  1       -1 0.37815134E-01 0.11176628E+03</pdfrwt>
<totfact> 0.32947190E+03</totfact>
</mgrwt>
</event>
<event>
 8    1  0.3400573E-004  0.1126051E+03  0.7546771E-02  0.1256005E+00
          2   -1    0    0  501    0  0.00000000000E+00  0.00000000000E+00  0.80546335762E+03  0.80546335762E+03  0.00000000000E+00 0. -1.
         -2   -1    0    0    0  501 -0.00000000000E+00 -0.00000000000E+00 -0.23648216047E+02  0.23648216047E+02  0.00000000000E+00 0.  1.
         23    2    1    2    0    0  0.21805661447E+02 -0.62551734775E+02  0.14987420362E+03  0.18721651648E+03  0.90551315484E+02 0.  0.
         23    2    1    2    0    0 -0.21805661447E+02  0.62551734775E+02  0.63194093795E+03  0.64189505719E+03  0.91058821600E+02 0.  0.
          5    1    4    4  502    0  0.31376062737E+02  0.44834324940E+02  0.36325550788E+03  0.36738430561E+03  0.47000000000E+01 0. -1.
         -5    1    3    3    0  503 -0.15172793601E+02 -0.67063756385E+02  0.66470986916E+02  0.95750943534E+02  0.47000000000E+01 0.  1.
          5    1    3    3  503    0  0.36978455048E+02  0.45120216101E+01  0.83403216705E+02  0.91465572941E+02  0.47000000000E+01 0. -1.
         -5    1    4    4    0  502 -0.53181724184E+02  0.17717409835E+02  0.26868543007E+03  0.27451075158E+03  0.47000000000E+01 0.  1.
<mgrwt>
<rscale>  0 0.11250249E+03</rscale>
<asrwt>0</asrwt>
<pdfrwt beam="1">  1        2 0.12391742E+00 0.11260513E+03</pdfrwt>
<pdfrwt beam="2">  1       -2 0.36381877E-02 0.11260513E+03</pdfrwt>
<totfact> 0.10567018E+04</totfact>
</mgrwt>
</event>
<event>
 8    1  0.3400573E-004  0.9737404E+02  0.7546771E-02  0.1288415E+00
         -2   -1    0    0    0  501 -0.00000000000E+00  0.00000000000E+00  0.92647831315E+01  0.92647831315E+01  0.00000000000E+00 0. -1.
          2   -1    0    0  501    0  0.00000000000E+00 -0.00000000000E+00 -0.97698559673E+03  0.97698559673E+03  0.00000000000E+00 0.  1.
         23    2    1    2    0    0  0.37308360404E+01  0.27618895117E+02 -0.49707259269E+03  0.50652035082E+03  0.93300487081E+02 0.  0.
         23    2    1    2    0    0 -0.37308360404E+01 -0.27618895117E+02 -0.47064822091E+03  0.47973002904E+03  0.88625224465E+02 0.  0.
          5    1    3    3  502    0  0.34413622255E+02  0.47915244628E+02 -0.26719907192E+03  0.27367426276E+03  0.47000000000E+01 0. -1.
         -5    1    4    4    0  503 -0.25307170363E+02  0.24729194796E+02 -0.20356243750E+03  0.20666819279E+03  0.47000000000E+01 0.  1.
          5    1    4    4  503    0  0.21576334323E+02 -0.52348089913E+02 -0.26708578341E+03  0.27306183625E+03  0.47000000000E+01 0. -1.
         -5    1    3    3    0  502 -0.30682786215E+02 -0.20296349511E+02 -0.22987352077E+03  0.23284608806E+03  0.47000000000E+01 0.  1.
<mgrwt>
<rscale>  0 0.96236759E+02</rscale>
<asrwt>0</asrwt>
<pdfrwt beam="1">  1        2 0.15030557E+00 0.97374039E+02</pdfrwt>
<pdfrwt beam="2">  1       -2 0.14253504E-02 0.97374039E+02</pdfrwt>
<totfact> 0.31656610E+04</totfact>
</mgrwt>
</event>
<event>
 8    1  0.3400573E-004  0.9161091E+02  0.7546771E-02  0.1299473E+00
         -1   -1    0    0    0  501 -0.00000000000E+00  0.00000000000E+00  0.11989660740E+02  0.11989660740E+02  0.00000000000E+00 0.  1.
          1   -1    0    0  501    0  0.00000000000E+00 -0.00000000000E+00 -0.72143373222E+03  0.72143373222E+03  0.00000000000E+00 0. -1.
         23    2    1    2    0    0 -0.87423760936E+01  0.12410648996E+02 -0.28153789569E+03  0.29582054218E+03  0.89530738400E+02 0.  0.
         23    2    1    2    0    0  0.87423760936E+01 -0.12410648996E+02 -0.42790617579E+03  0.43760285078E+03  0.90344376599E+02 0.  0.
          5    1    4    4  502    0  0.33296380397E+02 -0.40530199409E+02 -0.28509695031E+03  0.28992017365E+03  0.47000000000E+01 0. -1.
         -5    1    3    3    0  503 -0.45072477548E+02  0.53839867812E+01 -0.92584306173E+02  0.10322044030E+03  0.47000000000E+01 0.  1.
          5    1    3    3  503    0  0.36330101455E+02  0.70266622143E+01 -0.18895358952E+03  0.19260010188E+03  0.47000000000E+01 0. -1.
         -5    1    4    4    0  502 -0.24554004303E+02  0.28119550413E+02 -0.14280922548E+03  0.14768267713E+03  0.47000000000E+01 0.  1.
<mgrwt>
<rscale>  0 0.91409680E+02</rscale>
<asrwt>0</asrwt>
<pdfrwt beam="1">  1        1 0.11098981E+00 0.91610915E+02</pdfrwt>
<pdfrwt beam="2">  1       -1 0.18445632E-02 0.91610915E+02</pdfrwt>
<totfact> 0.19051311E+04</totfact>
</mgrwt>
</event>
<event>
 8    1  0.3400573E-004  0.9897809E+02  0.7546771E-02  0.1283393E+00
         -1   -1    0    0    0  501 -0.00000000000E+00  0.00000000000E+00  0.27240616983E+02  0.27240616983E+02  0.00000000000E+00 0.  1.
          1   -1    0    0  501    0  0.00000000000E+00 -0.00000000000E+00 -0.36737310450E+03  0.36737310450E+03  0.00000000000E+00 0. -1.
         23    2    1    2    0    0 -0.44469680903E+00 -0.35795914537E+02 -0.20715328528E+03  0.22884240245E+03  0.90414690750E+02 0.  0.
         23    2    1    2    0    0  0.44469680903E+00  0.35795914537E+02 -0.13297920224E+03  0.16577131904E+03  0.92277390157E+02 0.  0.
          5    1    3    3  502    0  0.80279981220E+01  0.26846442769E+02 -0.10363133311E+03  0.10745568131E+03  0.47000000000E+01 0. -1.
         -5    1    3    3    0  502 -0.84726949310E+01 -0.62642357306E+02 -0.10352195217E+03  0.12138672114E+03  0.47000000000E+01 0.  1.
          5    1    4    4  503    0  0.40584328221E+02  0.83804542113E+01 -0.95506757935E+02  0.10421588421E+03  0.47000000000E+01 0. -1.
         -5    1    4    4    0  503 -0.40139631412E+02  0.27415460326E+02 -0.37472444303E+02  0.61555434828E+02  0.47000000000E+01 0.  1.
<mgrwt>
<rscale>  0 0.98541644E+02</rscale>
<asrwt>0</asrwt>
<pdfrwt beam="1">  1        1 0.56518937E-01 0.98978088E+02</pdfrwt>
<pdfrwt beam="2">  1       -1 0.41908643E-02 0.98978088E+02</pdfrwt>
<totfact> 0.14209116E+04</totfact>
</mgrwt>
</event>
<event>
 7    1  0.3400573E-004  0.1698498E+03  0.7546771E-02  0.1200408E+00
          1   -1    0    0  501    0  0.00000000000E+00  0.00000000000E+00  0.29476544643E+03  0.29476544643E+03  0.00000000000E+00 0. -1.
         -1   -1    0    0    0  501 -0.00000000000E+00 -0.00000000000E+00 -0.89324167292E+02  0.89324167292E+02  0.00000000000E+00 0.  1.
         23    2    1    2    0    0  0.25025459616E+02 -0.34578963898E+02  0.18638372413E+03  0.21317399519E+03  0.94245855235E+02 0.  0.
          5    1    1    2  502    0  0.50655629427E+02  0.50646846959E+02 -0.31480082571E+02  0.78384829516E+02  0.47000000000E+01 0. -1.
         -5    1    3    3    0  503  0.21413074933E+02 -0.66102718059E+02  0.10831319931E+03  0.12877083620E+03  0.47000000000E+01 0.  1.
          5    1    3    3  503    0  0.36123846833E+01  0.31523754161E+02  0.78070524827E+02  0.84403158982E+02  0.47000000000E+01 0. -1.
         -5    1    1    2    0  502 -0.75681089043E+02 -0.16067883061E+02  0.50537637578E+02  0.92530789020E+02  0.47000000000E+01 0.  1.
<mgrwt>
<rscale>  0 0.15005255E+03</rscale>
<asrwt>0</asrwt>
<pdfrwt beam="1">  1        1 0.45348530E-01 0.16984981E+03</pdfrwt>
<pdfrwt beam="2">  1       -1 0.13742180E-01 0.16984981E+03</pdfrwt>
<totfact> 0.32372729E+03</totfact>
</mgrwt>
</event>
<event>
 8    1  0.3400573E-004  0.9146919E+02  0.7546771E-02  0.1303261E+00
          1   -1    0    0  501    0  0.00000000000E+00  0.00000000000E+00  0.58070026884E+02  0.58070026884E+02  0.00000000000E+00 0. -1.
         -1   -1    0    0    0  501 -0.00000000000E+00 -0.00000000000E+00 -0.15358300211E+03  0.15358300211E+03  0.00000000000E+00 0.  1.
         23    2    1    2    0    0 -0.79982084606E+01 -0.95829013234E+01 -0.11695685544E+02  0.92213891878E+02  0.90613516975E+02 0.  0.
         23    2    1    2    0    0  0.79982084606E+01  0.95829013234E+01 -0.83817289686E+02  0.11943913712E+03  0.84169864496E+02 0.  0.
          5    1    4    4  502    0  0.33599930907E+02 -0.11934249770E+02 -0.85862605426E+01  0.36975607427E+02  0.47000000000E+01 0. -1.
         -5    1    3    3    0  503  0.21428190411E+02  0.22008218275E+02  0.21299322677E+02  0.37673334900E+02  0.47000000000E+01 0.  1.
          5    1    3    3  503    0 -0.29426398871E+02 -0.31591119599E+02 -0.32995008221E+02  0.54540556979E+02  0.47000000000E+01 0. -1.
         -5    1    4    4    0  502 -0.25601722446E+02  0.21517151094E+02 -0.75231029143E+02  0.82463529692E+02  0.47000000000E+01 0.  1.
<mgrwt>
<rscale>  0 0.89830996E+02</rscale>
<asrwt>0</asrwt>
<pdfrwt beam="1">  1        1 0.89338503E-02 0.91469190E+02</pdfrwt>
<pdfrwt beam="2">  1       -1 0.23628154E-01 0.91469190E+02</pdfrwt>
<totfact> 0.10354536E+04</totfact>
</mgrwt>
</event>
<event>
 8    1  0.3400573E-004  0.1273443E+03  0.7546771E-02  0.1234253E+00
         -1   -1    0    0    0  501 -0.00000000000E+00  0.00000000000E+00  0.10577345041E+03  0.10577345041E+03  0.00000000000E+00 0.  1.
          1   -1    0    0  501    0  0.00000000000E+00 -0.00000000000E+00 -0.20638822228E+03  0.20638822228E+03  0.00000000000E+00 0. -1.
         23    2    1    2    0    0  0.80696438320E+02  0.25693579214E+02 -0.13652541815E+03  0.18669694155E+03  0.95102486894E+02 0.  0.
         23    2    1    2    0    0 -0.80696438320E+02 -0.25693579214E+02  0.35910646279E+02  0.12546473113E+03  0.85321445553E+02 0.  0.
          5    1    4    4  502    0 -0.28486450425E+01 -0.28567464239E+02 -0.14552783891E+02  0.32528269407E+02  0.47000000000E+01 0. -1.
         -5    1    3    3    0  503  0.48600151768E+02  0.51399847861E+02 -0.12504701189E+03  0.14374548443E+03  0.47000000000E+01 0. -1.
          5    1    3    3  503    0  0.32096286553E+02 -0.25706268647E+02 -0.11478406255E+02  0.42951457116E+02  0.47000000000E+01 0.  1.
         -5    1    4    4    0  502 -0.77847793278E+02  0.28738850254E+01  0.50463430170E+02  0.92936461725E+02  0.47000000000E+01 0.  1.
<mgrwt>
<rscale>  0 0.12552344E+03</rscale>
<asrwt>0</asrwt>
<pdfrwt beam="1">  1        1 0.31752034E-01 0.12734425E+03</pdfrwt>
<pdfrwt beam="2">  1       -1 0.16272839E-01 0.12734425E+03</pdfrwt>
<totfact> 0.38100345E+03</totfact>
</mgrwt>
</event>
<event>
 8    1  0.3400573E-004  0.1230377E+03  0.7546771E-02  0.1252275E+00
         -1   -1    0    0    0  501 -0.00000000000E+00  0.00000000000E+00  0.52101247262E+02  0.52101247262E+02  0.00000000000E+00 0.  1.
          1   -1    0    0  501    0  0.00000000000E+00 -0.00000000000E+00 -0.35019942422E+03  0.35019942422E+03  0.00000000000E+00 0. -1.
         23    2    1    2    0    0  0.36340863666E+01 -0.17228926786E+02 -0.25603708427E+03  0.27227216413E+03  0.90923596135E+02 0.  0.
         23    2    1    2    0    0 -0.36340863666E+01  0.17228926786E+02 -0.42061092687E+02  0.13002850736E+03  0.12177123924E+03 0.  0.
          5    1    3    3  502    0 -0.34926807692E+02  0.93205128610E+01 -0.56324307289E+02  0.67091515463E+02  0.47000000000E+01 0. -1.
         -5    1    3    3    0  502  0.38560894058E+02 -0.26549439647E+02 -0.19971277698E+03  0.20518064866E+03  0.47000000000E+01 0.  1.
          5    1    4    4  503    0 -0.40485847937E+02 -0.34600832832E+02  0.31225208625E+00  0.53465026112E+02  0.47000000000E+01 0. -1.
         -5    1    4    4    0  503  0.36851761570E+02  0.51829759617E+02 -0.42373344773E+02  0.76563481243E+02  0.47000000000E+01 0.  1.
<mgrwt>
<rscale>  0 0.11460314E+03</rscale>
<asrwt>0</asrwt>
<pdfrwt beam="1">  1        1 0.53876838E-01 0.12303771E+03</pdfrwt>
<pdfrwt beam="2">  1       -1 0.80155760E-02 0.12303771E+03</pdfrwt>
<totfact> 0.58726841E+03</totfact>
</mgrwt>
</event>
<event>
 8    1  0.3400573E-004  0.1585972E+03  0.7546771E-02  0.1191823E+00
          3   -1    0    0  501    0  0.00000000000E+00  0.00000000000E+00  0.13518835184E+04  0.13518835184E+04  0.00000000000E+00 0. -1.
         -3   -1    0    0    0  501 -0.00000000000E+00 -0.00000000000E+00 -0.18164777790E+02  0.18164777790E+02  0.00000000000E+00 0.  1.
         23    2    1    2    0    0 -0.88659848152E+02  0.85643577103E+02  0.74473565471E+03  0.76143566691E+03  0.99788218087E+02 0.  0.
         23    2    1    2    0    0  0.88659848152E+02 -0.85643577103E+02  0.58898308592E+03  0.60861262930E+03  0.91174920200E+02 0.  0.
          5    1    3    3  502    0 -0.27302279814E+02  0.81721549032E+01  0.37606997227E+02  0.47419140010E+02  0.47000000000E+01 0. -1.
         -5    1    4    4    0  503  0.33261219047E+01 -0.39785145444E+02  0.32311305612E+03  0.32560414298E+03  0.47000000000E+01 0.  1.
          5    1    4    4  503    0  0.85333726247E+02 -0.45858431659E+02  0.26587002979E+03  0.28300848632E+03  0.47000000000E+01 0. -1.
         -5    1    3    3    0  502 -0.61357568338E+02  0.77471422199E+02  0.70712865748E+03  0.71401652690E+03  0.47000000000E+01 0.  1.
<mgrwt>
<rscale>  0 0.15726216E+03</rscale>
<asrwt>0</asrwt>
<pdfrwt beam="1">  1        3 0.20798200E+00 0.15859722E+03</pdfrwt>
<pdfrwt beam="2">  1       -3 0.27945823E-02 0.15859722E+03</pdfrwt>
<totfact> 0.19636830E+02</totfact>
</mgrwt>
</event>
<event>
 8    1  0.3400573E-004  0.9126663E+02  0.7546771E-02  0.1305139E+00
          1   -1    0    0  501    0  0.00000000000E+00  0.00000000000E+00  0.24939926193E+03  0.24939926193E+03  0.00000000000E+00 0. -1.
         -1   -1    0    0    0  501 -0.00000000000E+00 -0.00000000000E+00 -0.31760871970E+02  0.31760871970E+02  0.00000000000E+00 0.  1.
         23    2    1    2    0    0 -0.10127141806E+02 -0.14741312200E+02  0.14339884849E+03  0.16997890387E+03  0.89497110165E+02 0.  0.
         23    2    1    2    0    0  0.10127141806E+02  0.14741312200E+02  0.74239541474E+02  0.11118123003E+03  0.80807741619E+02 0.  0.
          5    1    4    4  502    0  0.10241257975E+02  0.47011346728E+02  0.55371889082E+02  0.73505688124E+02  0.47000000000E+01 0. -1.
         -5    1    4    4    0  502 -0.11411616838E+00 -0.32270034528E+02  0.18867652392E+02  0.37675541904E+02  0.47000000000E+01 0.  1.
          5    1    3    3  503    0  0.37807053308E+02  0.12725345025E+01  0.81171240293E+02  0.89676378576E+02  0.47000000000E+01 0. -1.
         -5    1    3    3    0  503 -0.47934195114E+02 -0.16013846702E+02  0.62227608192E+02  0.80302525295E+02  0.47000000000E+01 0.  1.
<mgrwt>
<rscale>  0 0.89062198E+02</rscale>
<asrwt>0</asrwt>
<pdfrwt beam="1">  1        1 0.38369116E-01 0.91266631E+02</pdfrwt>
<pdfrwt beam="2">  1       -1 0.48862882E-02 0.91266631E+02</pdfrwt>
<totfact> 0.18108523E+04</totfact>
</mgrwt>
</event>
<event>
 8    1  0.3400573E-004  0.9054937E+02  0.7546771E-02  0.1302328E+00
          1   -1    0    0  501    0  0.00000000000E+00  0.00000000000E+00  0.16343794931E+03  0.16343794931E+03  0.00000000000E+00 0. -1.
         -1   -1    0    0    0  501 -0.00000000000E+00 -0.00000000000E+00 -0.49449480478E+02  0.49449480478E+02  0.00000000000E+00 0.  1.
         23    2    1    2    0    0 -0.87522399120E+00  0.93191170269E+01  0.55680872695E+02  0.10629933337E+03  0.90064292207E+02 0.  0.
         23    2    1    2    0    0  0.87522399120E+00 -0.93191170269E+01  0.58307596133E+02  0.10658809642E+03  0.88733503099E+02 0.  0.
          5    1    4    4  502    0 -0.26042893468E+02 -0.39596053060E+02  0.38539000431E+02  0.61265196256E+02  0.47000000000E+01 0. -1.
         -5    1    4    4    0  502  0.26918117459E+02  0.30276936033E+02  0.19768595702E+02  0.45322900162E+02  0.47000000000E+01 0.  1.
          5    1    3    3  503    0 -0.34780088907E+02 -0.88773068602E+01  0.56985489022E+02  0.67512199790E+02  0.47000000000E+01 0. -1.
         -5    1    3    3    0  503  0.33904864916E+02  0.18196423887E+02 -0.13046163265E+01  0.38787133576E+02  0.47000000000E+01 0.  1.
<mgrwt>
<rscale>  0 0.90216654E+02</rscale>
<asrwt>0</asrwt>
<pdfrwt beam="1">  1        1 0.25144300E-01 0.90549372E+02</pdfrwt>
<pdfrwt beam="2">  1       -1 0.76076125E-02 0.90549372E+02</pdfrwt>
<totfact> 0.15823397E+04</totfact>
</mgrwt>
</event>
<event>
 8    1  0.3400573E-004  0.1483997E+03  0.7546771E-02  0.1202566E+00
         -1   -1    0    0    0  501 -0.00000000000E+00  0.00000000000E+00  0.25356167474E+03  0.25356167474E+03  0.00000000000E+00 0.  1.
          1   -1    0    0  501    0  0.00000000000E+00 -0.00000000000E+00 -0.25597106094E+03  0.25597106094E+03  0.00000000000E+00 0. -1.
         23    2    1    2    0    0  0.13650303949E+02  0.11564247239E+03 -0.20841654192E+03  0.25585137532E+03  0.91994342706E+02 0.  0.
         23    2    1    2    0    0 -0.13650303949E+02 -0.11564247239E+03  0.20600715572E+03  0.25368136035E+03  0.91409912823E+02 0.  0.
          5    1    3    3  502    0  0.34634589028E+02  0.10366796774E+03 -0.20306921499E+03  0.23066382111E+03  0.47000000000E+01 0. -1.
         -5    1    4    4    0  503 -0.27170318693E+02  0.37067626681E+01  0.39978680196E+02  0.48706787798E+02  0.47000000000E+01 0. -1.
          5    1    4    4  503    0  0.13520014744E+02 -0.11934923506E+03  0.16602847552E+03  0.20497457255E+03  0.47000000000E+01 0.  1.
         -5    1    3    3    0  502 -0.20984285079E+02  0.11974504654E+02 -0.53473269313E+01  0.25187554215E+02  0.47000000000E+01 0.  1.
<mgrwt>
<rscale>  0 0.14830922E+03</rscale>
<asrwt>0</asrwt>
<pdfrwt beam="1">  1        1 0.39380163E-01 0.14839970E+03</pdfrwt>
<pdfrwt beam="2">  1       -1 0.39009489E-01 0.14839970E+03</pdfrwt>
<totfact> 0.69256913E+02</totfact>
</mgrwt>
</event>
<event>
 8    1  0.3400573E-004  0.1827860E+03  0.7546771E-02  0.1166659E+00
          3   -1    0    0  501    0  0.00000000000E+00  0.00000000000E+00  0.27902876252E+03  0.27902876252E+03  0.00000000000E+00 0. -1.
         -3   -1    0    0    0  501 -0.00000000000E+00 -0.00000000000E+00 -0.14052152727E+03  0.14052152727E+03  0.00000000000E+00 0.  1.
         23    2    1    2    0    0  0.78547221306E+02 -0.12753239125E+03  0.15851714053E+03  0.24194710810E+03  0.10476899581E+03 0.  0.
         23    2    1    2    0    0 -0.78547221306E+02  0.12753239125E+03 -0.20009905291E+02  0.17760318169E+03  0.93318363907E+02 0.  0.
          5    1    4    4  502    0 -0.71341472082E+02  0.58920616832E+02  0.23914290768E+02  0.95682955795E+02  0.47000000000E+01 0. -1.
         -5    1    3    3    0  503  0.25074979523E+02 -0.85931714676E+02  0.14827927641E+03  0.17326813902E+03  0.47000000000E+01 0.  1.
          5    1    3    3  503    0  0.53472241783E+02 -0.41600676574E+02  0.10237864120E+02  0.68678969084E+02  0.47000000000E+01 0. -1.
         -5    1    4    4    0  502 -0.72057492238E+01  0.68611774418E+02 -0.43924196058E+02  0.81920225891E+02  0.47000000000E+01 0.  1.
<mgrwt>
<rscale>  0 0.18118672E+03</rscale>
<asrwt>0</asrwt>
<pdfrwt beam="1">  1        3 0.42927502E-01 0.18278599E+03</pdfrwt>
<pdfrwt beam="2">  1       -3 0.21618697E-01 0.18278599E+03</pdfrwt>
<totfact> 0.25557656E+02</totfact>
</mgrwt>
</event>
<event>
 8    1  0.3400573E-004  0.9459197E+02  0.7546771E-02  0.1297060E+00
          1   -1    0    0  501    0  0.00000000000E+00  0.00000000000E+00  0.11858818726E+03  0.11858818726E+03  0.00000000000E+00 0. -1.
         -1   -1    0    0    0  501 -0.00000000000E+00 -0.00000000000E+00 -0.10185036777E+03  0.10185036777E+03  0.00000000000E+00 0.  1.
         23    2    1    2    0    0 -0.86745069745E+01  0.23038889681E+02 -0.54493087320E+02  0.10202621520E+03  0.82666888856E+02 0.  0.
         23    2    1    2    0    0  0.86745069745E+01 -0.23038889681E+02  0.71230906810E+02  0.11841233983E+03  0.91332374491E+02 0.  0.
          5    1    3    3  502    0 -0.22265669405E+02  0.47999292680E+02 -0.49849646667E+02  0.72847576519E+02  0.47000000000E+01 0. -1.
         -5    1    3    3    0  502  0.13591162431E+02 -0.24960402999E+02 -0.46434406536E+01  0.29178638680E+02  0.47000000000E+01 0.  1.
          5    1    4    4  503    0  0.27270947721E+02  0.28346631909E+02  0.32931625484E+02  0.51515221899E+02  0.47000000000E+01 0. -1.
         -5    1    4    4    0  503 -0.18596440747E+02 -0.51385521590E+02  0.38299281326E+02  0.66897117932E+02  0.47000000000E+01 0.  1.
<mgrwt>
<rscale>  0 0.92434954E+02</rscale>
<asrwt>0</asrwt>
<pdfrwt beam="1">  1        1 0.18244337E-01 0.94591967E+02</pdfrwt>
<pdfrwt beam="2">  1       -1 0.15669287E-01 0.94591967E+02</pdfrwt>
<totfact> 0.79153047E+03</totfact>
</mgrwt>
</event>
<event>
 8    1  0.3400573E-004  0.9161757E+02  0.7546771E-02  0.1300938E+00
         -1   -1    0    0    0  501 -0.00000000000E+00  0.00000000000E+00  0.12122577860E+02  0.12122577860E+02  0.00000000000E+00 0.  1.
          1   -1    0    0  501    0  0.00000000000E+00 -0.00000000000E+00 -0.66852695682E+03  0.66852695682E+03  0.00000000000E+00 0. -1.
         23    2    1    2    0    0 -0.11877557497E+02 -0.99585514339E+01 -0.31355374408E+03  0.32576879935E+03  0.87000638413E+02 0.  0.
         23    2    1    2    0    0  0.11877557497E+02  0.99585514339E+01 -0.34285063488E+03  0.35488073533E+03  0.90296895584E+02 0.  0.
          5    1    3    3  502    0 -0.12917031790E+02 -0.39204969160E+02 -0.78150465199E+02  0.88506861473E+02  0.47000000000E+01 0. -1.
         -5    1    3    3    0  502  0.10394742934E+01  0.29246417726E+02 -0.23540327889E+03  0.23726193788E+03  0.47000000000E+01 0.  1.
          5    1    4    4  503    0 -0.35393052931E+02 -0.12729495901E+02 -0.17084296953E+03  0.17499748141E+03  0.47000000000E+01 0. -1.
         -5    1    4    4    0  503  0.47270610428E+02  0.22688047335E+02 -0.17200766535E+03  0.17988325392E+03  0.47000000000E+01 0.  1.
<mgrwt>
<rscale>  0 0.90794804E+02</rscale>
<asrwt>0</asrwt>
<pdfrwt beam="1">  1        1 0.10285033E+00 0.91617566E+02</pdfrwt>
<pdfrwt beam="2">  1       -1 0.18650115E-02 0.91617566E+02</pdfrwt>
<totfact> 0.20870088E+04</totfact>
</mgrwt>
</event>
<event>
 8    1  0.3400573E-004  0.1119422E+03  0.7546771E-02  0.1257546E+00
          1   -1    0    0  501    0  0.00000000000E+00  0.00000000000E+00  0.20090700801E+03  0.20090700801E+03  0.00000000000E+00 0. -1.
         -1   -1    0    0    0  501 -0.00000000000E+00 -0.00000000000E+00 -0.22705579273E+03  0.22705579273E+03  0.00000000000E+00 0.  1.
         23    2    1    2    0    0  0.23090984536E+01 -0.63591656067E+02 -0.19568738805E+03  0.22544315050E+03  0.92096849051E+02 0.  0.
         23    2    1    2    0    0 -0.23090984536E+01  0.63591656067E+02  0.16953860333E+03  0.20251965024E+03  0.90673259886E+02 0.  0.
          5    1    3    3  502    0  0.16618330448E+02  0.19353257140E+02 -0.64318929977E+02  0.69352233001E+02  0.47000000000E+01 0. -1.
         -5    1    4    4    0  503  0.75610041610E+01 -0.20881797677E+02  0.19214766888E+02  0.29740805717E+02  0.47000000000E+01 0.  1.
          5    1    4    4  503    0 -0.98701026146E+01  0.84473453743E+02  0.15032383644E+03  0.17277884453E+03  0.47000000000E+01 0. -1.
         -5    1    3    3    0  502 -0.14309231994E+02 -0.82944913206E+02 -0.13136845808E+03  0.15609091750E+03  0.47000000000E+01 0.  1.
<mgrwt>
<rscale>  0 0.11164900E+03</rscale>
<asrwt>0</asrwt>
<pdfrwt beam="1">  1        1 0.30908771E-01 0.11194222E+03</pdfrwt>
<pdfrwt beam="2">  1       -1 0.34931660E-01 0.11194222E+03</pdfrwt>
<totfact> 0.11258128E+03</totfact>
</mgrwt>
</event>
<event>
 8    1  0.3400573E-004  0.1068734E+03  0.7546771E-02  0.1274875E+00
         -2   -1    0    0    0  501 -0.00000000000E+00  0.00000000000E+00  0.36482401413E+03  0.36482401413E+03  0.00000000000E+00 0.  1.
          2   -1    0    0  501    0  0.00000000000E+00 -0.00000000000E+00 -0.28312210365E+02  0.28312210365E+02  0.00000000000E+00 0. -1.
         23    2    1    2    0    0 -0.36149882391E+01  0.17361866494E+01  0.10996104903E+03  0.14264238687E+03  0.90770786846E+02 0.  0.
         23    2    1    2    0    0  0.36149882391E+01 -0.17361866494E+01  0.22655075474E+03  0.25049383763E+03  0.10679810735E+03 0.  0.
          5    1    3    3  502    0 -0.27696331363E+02  0.22722802963E+02  0.98450751297E+01  0.37449005992E+02  0.47000000000E+01 0. -1.
         -5    1    3    3    0  502  0.24081343124E+02 -0.20986616313E+02  0.10011597390E+03  0.10519338088E+03  0.47000000000E+01 0.  1.
          5    1    4    4  503    0 -0.15278834759E+02  0.36798944197E+02  0.32312032235E+02  0.51514682497E+02  0.47000000000E+01 0. -1.
         -5    1    4    4    0  503  0.18893822998E+02 -0.38535130846E+02  0.19423872250E+03  0.19897915513E+03  0.47000000000E+01 0.  1.
<mgrwt>
<rscale>  0 0.10262296E+03</rscale>
<asrwt>0</asrwt>
<pdfrwt beam="1">  1        2 0.43557249E-02 0.10687337E+03</pdfrwt>
<pdfrwt beam="2">  1       -2 0.56126768E-01 0.10687337E+03</pdfrwt>
<totfact> 0.53230494E+03</totfact>
</mgrwt>
</event>
<event>
 8    1  0.3400573E-004  0.1022233E+03  0.7546771E-02  0.1275784E+00
          1   -1    0    0  501    0  0.00000000000E+00  0.00000000000E+00  0.15780267188E+03  0.15780267188E+03  0.00000000000E+00 0. -1.
         -1   -1    0    0    0  501 -0.00000000000E+00 -0.00000000000E+00 -0.67371328259E+02  0.67371328259E+02  0.00000000000E+00 0.  1.
         23    2    1    2    0    0 -0.36241511323E+02  0.25226655698E+02  0.29702718018E+02  0.10627252674E+03  0.91987864315E+02 0.  0.
         23    2    1    2    0    0  0.36241511323E+02 -0.25226655698E+02  0.60728625599E+02  0.11890147340E+03  0.92194159835E+02 0.  0.
          5    1    4    4  502    0  0.13182599093E+02  0.31582429480E+02  0.31944327678E+01  0.34691860305E+02  0.47000000000E+01 0. -1.
         -5    1    4    4    0  502  0.23058912230E+02 -0.56809085178E+02  0.57534192831E+02  0.84209613090E+02  0.47000000000E+01 0.  1.
          5    1    3    3  503    0  0.21389923100E+02 -0.18295755741E+02  0.15658701799E+02  0.32550705528E+02  0.47000000000E+01 0. -1.
         -5    1    3    3    0  503 -0.57631434423E+02  0.43522411439E+02  0.14044016219E+02  0.73721821211E+02  0.47000000000E+01 0.  1.
<mgrwt>
<rscale>  0 0.10217672E+03</rscale>
<asrwt>0</asrwt>
<pdfrwt beam="1">  1        1 0.24277334E-01 0.10222326E+03</pdfrwt>
<pdfrwt beam="2">  1       -1 0.10364820E-01 0.10222326E+03</pdfrwt>
<totfact> 0.10506179E+04</totfact>
</mgrwt>
</event>
<event>
 8    1  0.3400573E-004  0.9994579E+02  0.7546771E-02  0.1281528E+00
         -1   -1    0    0    0  501 -0.00000000000E+00  0.00000000000E+00  0.21861076974E+02  0.21861076974E+02  0.00000000000E+00 0.  1.
          1   -1    0    0  501    0  0.00000000000E+00 -0.00000000000E+00 -0.57407842967E+03  0.57407842967E+03  0.00000000000E+00 0. -1.
         23    2    1    2    0    0  0.37171007760E+02 -0.91269041094E+01 -0.13385033028E+03  0.16579984657E+03  0.90048287098E+02 0.  0.
         23    2    1    2    0    0 -0.37171007760E+02  0.91269041094E+01 -0.41836702242E+03  0.43013966008E+03  0.92326472526E+02 0.  0.
          5    1    3    3  502    0 -0.26372080620E+02  0.13759356610E+02 -0.43060511553E+02  0.52546210003E+02  0.47000000000E+01 0. -1.
         -5    1    3    3    0  502  0.63543088379E+02 -0.22886260719E+02 -0.90789818730E+02  0.11325363657E+03  0.47000000000E+01 0.  1.
          5    1    4    4  503    0 -0.46427185123E+02 -0.19156460974E+02 -0.36806163799E+03  0.37150223805E+03  0.47000000000E+01 0. -1.
         -5    1    4    4    0  503  0.92561773635E+01  0.28283365083E+02 -0.50305384426E+02  0.58637422028E+02  0.47000000000E+01 0.  1.
<mgrwt>
<rscale>  0 0.99416449E+02</rscale>
<asrwt>0</asrwt>
<pdfrwt beam="1">  1        1 0.88319769E-01 0.99945794E+02</pdfrwt>
<pdfrwt beam="2">  1       -1 0.33632422E-02 0.99945794E+02</pdfrwt>
<totfact> 0.11084755E+04</totfact>
</mgrwt>
</event>
<event>
 8    1  0.3400573E-004  0.1794885E+03  0.7546771E-02  0.1168629E+00
         -4   -1    0    0    0  501 -0.00000000000E+00  0.00000000000E+00  0.24823918318E+03  0.24823918318E+03  0.00000000000E+00 0.  1.
          4   -1    0    0  501    0  0.00000000000E+00 -0.00000000000E+00 -0.13589410918E+03  0.13589410918E+03  0.00000000000E+00 0. -1.
         23    2    1    2    0    0 -0.36241079268E+02 -0.14963795368E+03  0.10024717896E+03  0.20558606173E+03  0.92256159040E+02 0.  0.
         23    2    1    2    0    0  0.36241079268E+02  0.14963795368E+03  0.12097895045E+02  0.17854723062E+03  0.89598110966E+02 0.  0.
          5    1    3    3  502    0 -0.15095217489E+02 -0.39514142516E+02 -0.14610068362E+02  0.44997523791E+02  0.47000000000E+01 0. -1.
         -5    1    4    4    0  503 -0.15913636276E+01  0.30618004541E+02 -0.33367733447E+02  0.45557549052E+02  0.47000000000E+01 0.  1.
          5    1    4    4  503    0  0.37832442896E+02  0.11901994914E+03  0.45465628492E+02  0.13298968157E+03  0.47000000000E+01 0. -1.
         -5    1    3    3    0  502 -0.21145861779E+02 -0.11012381117E+03  0.11485724732E+03  0.16058853794E+03  0.47000000000E+01 0.  1.
<mgrwt>
<rscale>  0 0.17914966E+03</rscale>
<asrwt>0</asrwt>
<pdfrwt beam="1">  1        4 0.20906786E-01 0.17948853E+03</pdfrwt>
<pdfrwt beam="2">  1       -4 0.38190644E-01 0.17948853E+03</pdfrwt>
<totfact> 0.24253916E+02</totfact>
</mgrwt>
</event>
<event>
 8    1  0.3400573E-004  0.9617046E+02  0.7546771E-02  0.1289180E+00
         -1   -1    0    0    0  501 -0.00000000000E+00  0.00000000000E+00  0.55007675324E+02  0.55007675324E+02  0.00000000000E+00 0.  1.
          1   -1    0    0  501    0  0.00000000000E+00 -0.00000000000E+00 -0.17177133927E+03  0.17177133927E+03  0.00000000000E+00 0. -1.
         23    2    1    2    0    0 -0.61533315645E+01  0.26491738333E+02 -0.79125245152E+02  0.12453739053E+03  0.92244682938E+02 0.  0.
         23    2    1    2    0    0  0.61533315645E+01 -0.26491738333E+02 -0.37638418791E+02  0.10224162406E+03  0.91087998289E+02 0.  0.
          5    1    4    4  502    0 -0.45881702604E+01  0.31376808184E+02 -0.27699973804E+02  0.42366660794E+02  0.47000000000E+01 0. -1.
         -5    1    3    3    0  503 -0.43377263900E+02  0.57829682133E+01 -0.66708634411E+02  0.79919720031E+02  0.47000000000E+01 0.  1.
          5    1    3    3  503    0  0.37223932336E+02  0.20708770120E+02 -0.12416610741E+02  0.44617670499E+02  0.47000000000E+01 0. -1.
         -5    1    4    4    0  502  0.10741501825E+02 -0.57868546517E+02 -0.99384449875E+01  0.59874963267E+02  0.47000000000E+01 0.  1.
<mgrwt>
<rscale>  0 0.95892026E+02</rscale>
<asrwt>0</asrwt>
<pdfrwt beam="1">  1        1 0.26426360E-01 0.96170459E+02</pdfrwt>
<pdfrwt beam="2">  1       -1 0.84627193E-02 0.96170459E+02</pdfrwt>
<totfact> 0.12765371E+04</totfact>
</mgrwt>
</event>
<event>
 8    1  0.3400573E-004  0.1026957E+03  0.7546771E-02  0.1276530E+00
         -2   -1    0    0    0  501 -0.00000000000E+00  0.00000000000E+00  0.11525228573E+03  0.11525228573E+03  0.00000000000E+00 0.  1.
          2   -1    0    0  501    0  0.00000000000E+00 -0.00000000000E+00 -0.17561400489E+03  0.17561400489E+03  0.00000000000E+00 0. -1.
         23    2    1    2    0    0 -0.35729484415E+02 -0.11766023612E+02  0.72547849010E+02  0.12290389257E+03  0.91799461024E+02 0.  0.
         23    2    1    2    0    0  0.35729484415E+02  0.11766023612E+02 -0.13290956817E+03  0.16796239805E+03  0.95558246514E+02 0.  0.
          5    1    4    4  502    0  0.35018605774E+02 -0.10709348292E+02 -0.13930647449E+03  0.14411584481E+03  0.47000000000E+01 0. -1.
         -5    1    3    3    0  503 -0.25067591654E+02 -0.39877892227E+02  0.78717277910E+02  0.91853852839E+02  0.47000000000E+01 0.  1.
          5    1    3    3  503    0 -0.10661892761E+02  0.28111868614E+02 -0.61694288999E+01  0.31050039729E+02  0.47000000000E+01 0. -1.
         -5    1    4    4    0  502  0.71087864070E+00  0.22475371904E+02  0.63969063168E+01  0.23846553233E+02  0.47000000000E+01 0.  1.
<mgrwt>
<rscale>  0 0.10181241E+03</rscale>
<asrwt>0</asrwt>
<pdfrwt beam="1">  1        2 0.27017539E-01 0.10269573E+03</pdfrwt>
<pdfrwt beam="2">  1       -2 0.17731121E-01 0.10269573E+03</pdfrwt>
<totfact> 0.47804527E+03</totfact>
</mgrwt>
</event>
<event>
 8    1  0.3400573E-004  0.1031173E+03  0.7546771E-02  0.1275148E+00
          1   -1    0    0  501    0  0.00000000000E+00  0.00000000000E+00  0.20179923131E+03  0.20179923131E+03  0.00000000000E+00 0. -1.
         -1   -1    0    0    0  501 -0.00000000000E+00 -0.00000000000E+00 -0.65891685583E+02  0.65891685583E+02  0.00000000000E+00 0.  1.
         23    2    1    2    0    0 -0.43129842256E+02 -0.42301837846E+01  0.13001309288E+03  0.16440529326E+03  0.90816399305E+02 0.  0.
         23    2    1    2    0    0  0.43129842256E+02  0.42301837846E+01  0.58944528413E+01  0.10328562363E+03  0.93568679198E+02 0.  0.
          5    1    3    3  502    0  0.40984785619E+01  0.37121432111E+02  0.46533371107E+02  0.59851841034E+02  0.47000000000E+01 0. -1.
         -5    1    3    3    0  502 -0.47228320818E+02 -0.41351615896E+02  0.83479721774E+02  0.10455345222E+03  0.47000000000E+01 0.  1.
          5    1    4    4  503    0  0.60499818205E+02  0.33051732300E+02  0.25970291854E+01  0.69148243444E+02  0.47000000000E+01 0. -1.
         -5    1    4    4    0  503 -0.17369975949E+02 -0.28821548515E+02  0.32974236559E+01  0.34137380187E+02  0.47000000000E+01 0.  1.
<mgrwt>
<rscale>  0 0.10248888E+03</rscale>
<asrwt>0</asrwt>
<pdfrwt beam="1">  1        1 0.31046035E-01 0.10311729E+03</pdfrwt>
<pdfrwt beam="2">  1       -1 0.10137183E-01 0.10311729E+03</pdfrwt>
<totfact> 0.80193190E+03</totfact>
</mgrwt>
</event>
<event>
 8    1  0.3400573E-004  0.1010483E+03  0.7546771E-02  0.1278995E+00
         -1   -1    0    0    0  501 -0.00000000000E+00  0.00000000000E+00  0.20760392476E+02  0.20760392476E+02  0.00000000000E+00 0.  1.
          1   -1    0    0  501    0  0.00000000000E+00 -0.00000000000E+00 -0.49917643368E+03  0.49917643368E+03  0.00000000000E+00 0. -1.
         23    2    1    2    0    0 -0.17066821709E+02 -0.38191341185E+02 -0.28314985420E+03  0.30007404982E+03  0.90115151321E+02 0.  0.
         23    2    1    2    0    0  0.17066821709E+02  0.38191341185E+02 -0.19526618701E+03  0.21986277634E+03  0.91983159797E+02 0.  0.
          5    1    3    3  502    0  0.22695599900E+02 -0.52052381766E+02 -0.16307333140E+03  0.17274125772E+03  0.47000000000E+01 0. -1.
         -5    1    4    4    0  503  0.41838452805E+02  0.54650501545E+02 -0.11462821470E+03  0.13378658774E+03  0.47000000000E+01 0.  1.
          5    1    4    4  503    0 -0.24771631096E+02 -0.16459160360E+02 -0.80637972303E+02  0.86076188600E+02  0.47000000000E+01 0. -1.
         -5    1    3    3    0  502 -0.39762421609E+02  0.13861040581E+02 -0.12007652279E+03  0.12733279210E+03  0.47000000000E+01 0.  1.
<mgrwt>
<rscale>  0 0.10062123E+03</rscale>
<asrwt>0</asrwt>
<pdfrwt beam="1">  1        1 0.76796366E-01 0.10104829E+03</pdfrwt>
<pdfrwt beam="2">  1       -1 0.31939069E-02 0.10104829E+03</pdfrwt>
<totfact> 0.14356771E+04</totfact>
</mgrwt>
</event>
<event>
 8    1  0.3400573E-004  0.2546159E+03  0.7546771E-02  0.1111213E+00
         -2   -1    0    0    0  501 -0.00000000000E+00  0.00000000000E+00  0.29702158143E+02  0.29702158143E+02  0.00000000000E+00 0.  1.
          2   -1    0    0  501    0  0.00000000000E+00 -0.00000000000E+00 -0.28479618525E+04  0.28479618525E+04  0.00000000000E+00 0. -1.
         23    2    1    2    0    0  0.23186106877E+03 -0.31657292002E+02 -0.68081109515E+03  0.72510372781E+03  0.86659849146E+02 0.  0.
         23    2    1    2    0    0 -0.23186106877E+03  0.31657292002E+02 -0.21374485992E+04  0.21525602828E+04  0.10033702026E+03 0.  0.
          5    1    4    4  502    0 -0.23359000612E+03  0.11620647003E+02 -0.19737824438E+04  0.19875961753E+04  0.47000000000E+01 0. -1.
         -5    1    4    4    0  502  0.17289373440E+01  0.20036644998E+02 -0.16366615536E+03  0.16496410754E+03  0.47000000000E+01 0.  1.
          5    1    3    3  503    0  0.20690207818E+02 -0.21542758281E+02 -0.16294256517E+03  0.16572430322E+03  0.47000000000E+01 0. -1.
         -5    1    3    3    0  503  0.21117086096E+03 -0.10114533721E+02 -0.51786852998E+03  0.55937942458E+03  0.47000000000E+01 0.  1.
<mgrwt>
<rscale>  0 0.25333807E+03</rscale>
<asrwt>0</asrwt>
<pdfrwt beam="1">  1        2 0.43814819E+00 0.25461590E+03</pdfrwt>
<pdfrwt beam="2">  1       -2 0.45695605E-02 0.25461590E+03</pdfrwt>
<totfact> 0.57652318E+02</totfact>
</mgrwt>
</event>
<event>
 8    1  0.3400573E-004  0.1137633E+03  0.7546771E-02  0.1255779E+00
          2   -1    0    0  501    0  0.00000000000E+00  0.00000000000E+00  0.12731185464E+03  0.12731185464E+03  0.00000000000E+00 0. -1.
         -2   -1    0    0    0  501 -0.00000000000E+00 -0.00000000000E+00 -0.97935873677E+02  0.97935873677E+02  0.00000000000E+00 0.  1.
         23    2    1    2    0    0  0.22975461473E+02  0.63720587700E+02  0.19936629182E+02  0.11109346152E+03  0.85767726350E+02 0.  0.
         23    2    1    2    0    0 -0.22975461473E+02 -0.63720587700E+02  0.94393517837E+01  0.11415426680E+03  0.91399727238E+02 0.  0.
          5    1    4    4  502    0 -0.11714740718E+02 -0.85921351798E+02 -0.75513958995E+00  0.86846842664E+02  0.47000000000E+01 0. -1.
         -5    1    3    3    0  503 -0.13681117159E+02  0.53675116995E+02 -0.16750409791E+02  0.58059085244E+02  0.47000000000E+01 0.  1.
          5    1    3    3  503    0  0.36656578632E+02  0.10045470705E+02  0.36687038974E+02  0.53034376280E+02  0.47000000000E+01 0. -1.
         -5    1    4    4    0  502 -0.11260720755E+02  0.22200764098E+02  0.10194491374E+02  0.27307424133E+02  0.47000000000E+01 0.  1.
<mgrwt>
<rscale>  0 0.11262810E+03</rscale>
<asrwt>0</asrwt>
<pdfrwt beam="1">  1        2 0.19586439E-01 0.11376333E+03</pdfrwt>
<pdfrwt beam="2">  1       -2 0.15067057E-01 0.11376333E+03</pdfrwt>
<totfact> 0.89803150E+03</totfact>
</mgrwt>
</event>
<event>
 8    1  0.3400573E-004  0.1055409E+03  0.7546771E-02  0.1269889E+00
          2   -1    0    0  501    0  0.00000000000E+00  0.00000000000E+00  0.75160892550E+03  0.75160892550E+03  0.00000000000E+00 0. -1.
         -2   -1    0    0    0  501 -0.00000000000E+00 -0.00000000000E+00 -0.17225743712E+02  0.17225743712E+02  0.00000000000E+00 0.  1.
         23    2    1    2    0    0  0.38771364638E+02  0.30571348702E+02  0.51521510763E+03  0.52557855886E+03  0.91369515323E+02 0.  0.
         23    2    1    2    0    0 -0.38771364638E+02 -0.30571348702E+02  0.21916807416E+03  0.24325611035E+03  0.93279496216E+02 0.  0.
          5    1    4    4  502    0 -0.24832180991E+02  0.27404889552E+02  0.13464181789E+03  0.13970745975E+03  0.47000000000E+01 0. -1.
         -5    1    4    4    0  502 -0.13939183647E+02 -0.57976238254E+02  0.84526256273E+02  0.10354865061E+03  0.47000000000E+01 0.  1.
          5    1    3    3  503    0  0.40565232706E+02  0.60753229218E+02  0.37110189650E+03  0.37825282623E+03  0.47000000000E+01 0. -1.
         -5    1    3    3    0  503 -0.17938680678E+01 -0.30181880516E+02  0.14411321113E+03  0.14732573264E+03  0.47000000000E+01 0.  1.
<mgrwt>
<rscale>  0 0.10511734E+03</rscale>
<asrwt>0</asrwt>
<pdfrwt beam="1">  1        2 0.11563212E+00 0.10554094E+03</pdfrwt>
<pdfrwt beam="2">  1       -2 0.26501150E-02 0.10554094E+03</pdfrwt>
<totfact> 0.18190003E+04</totfact>
</mgrwt>
</event>
<event>
 8    1  0.3400573E-004  0.9941827E+02  0.7546771E-02  0.1281582E+00
          2   -1    0    0  501    0  0.00000000000E+00  0.00000000000E+00  0.11201544466E+04  0.11201544466E+04  0.00000000000E+00 0. -1.
         -2   -1    0    0    0  501 -0.00000000000E+00 -0.00000000000E+00 -0.12028536543E+02  0.12028536543E+02  0.00000000000E+00 0.  1.
         23    2    1    2    0    0  0.21934531847E+02 -0.34628813485E+02  0.84647913193E+03  0.85228473464E+03  0.90454793701E+02 0.  0.
         23    2    1    2    0    0 -0.21934531847E+02  0.34628813485E+02  0.26164677813E+03  0.27989824850E+03  0.90574359494E+02 0.  0.
          5    1    4    4  502    0 -0.26968484927E+01  0.52061716123E+02  0.24037403919E+03  0.24600704054E+03  0.47000000000E+01 0. -1.
         -5    1    3    3    0  503  0.49291914256E+02 -0.47490986952E+02  0.56679686846E+03  0.57093420527E+03  0.47000000000E+01 0.  1.
          5    1    3    3  503    0 -0.27357382410E+02  0.12862173466E+02  0.27968226347E+03  0.28135052937E+03  0.47000000000E+01 0. -1.
         -5    1    4    4    0  502 -0.19237683354E+02 -0.17432902638E+02  0.21272738937E+02  0.33891207962E+02  0.47000000000E+01 0.  1.
<mgrwt>
<rscale>  0 0.99391032E+02</rscale>
<asrwt>0</asrwt>
<pdfrwt beam="1">  1        2 0.17233137E+00 0.99418273E+02</pdfrwt>
<pdfrwt beam="2">  1       -2 0.18505450E-02 0.99418273E+02</pdfrwt>
<totfact> 0.18044857E+04</totfact>
</mgrwt>
</event>
<event>
 8    1  0.3400573E-004  0.9456153E+02  0.7546771E-02  0.1293185E+00
          2   -1    0    0  501    0  0.00000000000E+00  0.00000000000E+00  0.11459496238E+03  0.11459496238E+03  0.00000000000E+00 0. -1.
         -2   -1    0    0    0  501 -0.00000000000E+00 -0.00000000000E+00 -0.80980788857E+02  0.80980788857E+02  0.00000000000E+00 0.  1.
         23    2    1    2    0    0  0.18517464177E+02  0.28695121418E+01 -0.58665166615E+01  0.94743327107E+02  0.92686306616E+02 0.  0.
         23    2    1    2    0    0 -0.18517464177E+02 -0.28695121418E+01  0.39480690189E+02  0.10083242413E+03  0.90869809506E+02 0.  0.
          5    1    4    4  502    0  0.10645644962E+02  0.22645599421E+02  0.53587318370E+02  0.59328269989E+02  0.47000000000E+01 0. -1.
         -5    1    4    4    0  502 -0.29163109138E+02 -0.25515111563E+02 -0.14106628181E+02  0.41504154146E+02  0.47000000000E+01 0.  1.
          5    1    3    3  503    0  0.35179152012E+02  0.40071042324E+02 -0.34115693662E+01  0.53637579874E+02  0.47000000000E+01 0. -1.
         -5    1    3    3    0  503 -0.16661687835E+02 -0.37201530182E+02 -0.24549472953E+01  0.41105747233E+02  0.47000000000E+01 0.  1.
<mgrwt>
<rscale>  0 0.94113406E+02</rscale>
<asrwt>0</asrwt>
<pdfrwt beam="1">  1        2 0.17629994E-01 0.94561525E+02</pdfrwt>
<pdfrwt beam="2">  1       -2 0.12458583E-01 0.94561525E+02</pdfrwt>
<totfact> 0.13501997E+04</totfact>
</mgrwt>
</event>
<event>
 8    1  0.3400573E-004  0.9430375E+02  0.7546771E-02  0.1293342E+00
         -2   -1    0    0    0  501 -0.00000000000E+00  0.00000000000E+00  0.19839588303E+03  0.19839588303E+03  0.00000000000E+00 0.  1.
          2   -1    0    0  501    0  0.00000000000E+00 -0.00000000000E+00 -0.18676635919E+03  0.18676635919E+03  0.00000000000E+00 0. -1.
         23    2    1    2    0    0  0.20714878062E+01  0.20033473249E+02  0.17398265150E+03  0.19740778783E+03  0.91072721268E+02 0.  0.
         23    2    1    2    0    0 -0.20714878062E+01 -0.20033473249E+02 -0.16235312766E+03  0.18775445439E+03  0.92127986888E+02 0.  0.
          5    1    4    4  502    0 -0.44579974828E+02  0.15346609824E+01 -0.61645179523E+02  0.76236129876E+02  0.47000000000E+01 0. -1.
         -5    1    3    3    0  503  0.41831964066E+02  0.78577103332E+00  0.12182920294E+03  0.12889908977E+03  0.47000000000E+01 0.  1.
          5    1    3    3  503    0 -0.39760476259E+02  0.19247702216E+02  0.52153448559E+02  0.68508698058E+02  0.47000000000E+01 0. -1.
         -5    1    4    4    0  502  0.42508487022E+02 -0.21568134232E+02 -0.10070794814E+03  0.11151832451E+03  0.47000000000E+01 0.  1.
<mgrwt>
<rscale>  0 0.94045025E+02</rscale>
<asrwt>0</asrwt>
<pdfrwt beam="1">  1        2 0.28733286E-01 0.94303749E+02</pdfrwt>
<pdfrwt beam="2">  1       -2 0.30522444E-01 0.94303749E+02</pdfrwt>
<totfact> 0.17515370E+03</totfact>
</mgrwt>
</event>
<event>
 8    1  0.3400573E-004  0.1012231E+03  0.7546771E-02  0.1278833E+00
          1   -1    0    0  501    0  0.00000000000E+00  0.00000000000E+00  0.18084652375E+03  0.18084652375E+03  0.00000000000E+00 0. -1.
         -1   -1    0    0    0  501 -0.00000000000E+00 -0.00000000000E+00 -0.73549935741E+02  0.73549935741E+02  0.00000000000E+00 0.  1.
         23    2    1    2    0    0 -0.41001139109E+01 -0.39618014475E+02 -0.97857238441E+01  0.99624431618E+02  0.90790247158E+02 0.  0.
         23    2    1    2    0    0  0.41001139109E+01  0.39618014475E+02  0.11708231185E+03  0.15477202787E+03  0.93057588929E+02 0.  0.
          5    1    4    4  502    0 -0.13712144166E+02  0.61499175015E+02  0.10733872856E+03  0.12455466300E+03  0.47000000000E+01 0. -1.
         -5    1    4    4    0  502  0.17812258077E+02 -0.21881160540E+02  0.97435832862E+01  0.30217364869E+02  0.47000000000E+01 0.  1.
          5    1    3    3  503    0 -0.26281341522E+02  0.14840342293E+02  0.16866693997E+02  0.34892979781E+02  0.47000000000E+01 0. -1.
         -5    1    3    3    0  503  0.22181227612E+02 -0.54458356768E+02 -0.26652417841E+02  0.64731451838E+02  0.47000000000E+01 0.  1.
<mgrwt>
<rscale>  0 0.10069892E+03</rscale>
<asrwt>0</asrwt>
<pdfrwt beam="1">  1        1 0.27822542E-01 0.10122308E+03</pdfrwt>
<pdfrwt beam="2">  1       -1 0.11315375E-01 0.10122308E+03</pdfrwt>
<totfact> 0.77555240E+03</totfact>
</mgrwt>
</event>
<event>
 8    1  0.3400573E-004  0.9923210E+02  0.7546771E-02  0.1283500E+00
         -1   -1    0    0    0  501 -0.00000000000E+00  0.00000000000E+00  0.27806499116E+03  0.27806499116E+03  0.00000000000E+00 0.  1.
          1   -1    0    0  501    0  0.00000000000E+00 -0.00000000000E+00 -0.35312680335E+02  0.35312680335E+02  0.00000000000E+00 0. -1.
         23    2    1    2    0    0  0.21295759539E+02 -0.31216584170E+02  0.94079297719E+02  0.13463015555E+03  0.88579794660E+02 0.  0.
         23    2    1    2    0    0 -0.21295759539E+02  0.31216584170E+02  0.14867301311E+03  0.17874751595E+03  0.91755245788E+02 0.  0.
          5    1    3    3  502    0  0.32622452667E+02  0.18782158196E+02  0.65647602405E+02  0.75820126524E+02  0.47000000000E+01 0. -1.
         -5    1    3    3    0  502 -0.11326693128E+02 -0.49998742366E+02  0.28431695314E+02  0.58810029024E+02  0.47000000000E+01 0.  1.
          5    1    4    4  503    0  0.30068324418E+01  0.30719978052E+02  0.34310011978E+01  0.31410505600E+02  0.47000000000E+01 0. -1.
         -5    1    4    4    0  503 -0.24302591981E+02  0.49660611794E+00  0.14524201191E+03  0.14733701035E+03  0.47000000000E+01 0.  1.
<mgrwt>
<rscale>  0 0.98491705E+02</rscale>
<asrwt>0</asrwt>
<pdfrwt beam="1">  1        1 0.54327202E-02 0.99232100E+02</pdfrwt>
<pdfrwt beam="2">  1       -1 0.42779228E-01 0.99232100E+02</pdfrwt>
<totfact> 0.74738977E+03</totfact>
</mgrwt>
</event>
<event>
 7    1  0.3400573E-004  0.2132847E+03  0.7546771E-02  0.1159304E+00
          1   -1    0    0  501    0  0.00000000000E+00  0.00000000000E+00  0.53037166064E+03  0.53037166064E+03  0.00000000000E+00 0. -1.
         -1   -1    0    0    0  501 -0.00000000000E+00 -0.00000000000E+00 -0.16608716046E+03  0.16608716046E+03  0.00000000000E+00 0.  1.
         23    2    1    2    0    0 -0.74327587526E+02 -0.58692426574E+02  0.44828289222E+03  0.46722944756E+03  0.91522751273E+02 0.  0.
          5    1    3    3  502    0 -0.50987720385E+02  0.60067398244E+01  0.29055085217E+03  0.29508933605E+03  0.47000000000E+01 0. -1.
         -5    1    1    2    0  503  0.82943042293E+02  0.10772120299E+03 -0.10806829402E+03  0.17373615631E+03  0.47000000000E+01 0.  1.
          5    1    1    2  503    0 -0.86154547668E+01 -0.49028776412E+02  0.24069901973E+02  0.55493217228E+02  0.47000000000E+01 0. -1.
         -5    1    3    3    0  502 -0.23339867140E+02 -0.64699166398E+02  0.15773204006E+03  0.17214011151E+03  0.47000000000E+01 0.  1.
<mgrwt>
<rscale>  0 0.18906848E+03</rscale>
<asrwt>0</asrwt>
<pdfrwt beam="1">  1        1 0.81595639E-01 0.21328473E+03</pdfrwt>
<pdfrwt beam="2">  1       -1 0.25551871E-01 0.21328473E+03</pdfrwt>
<totfact> 0.56380647E+02</totfact>
</mgrwt>
</event>
<event>
 8    1  0.3400573E-004  0.1682185E+03  0.7546771E-02  0.1180174E+00
          1   -1    0    0  501    0  0.00000000000E+00  0.00000000000E+00  0.65825380414E+02  0.65825380414E+02  0.00000000000E+00 0. -1.
         -1   -1    0    0    0  501 -0.00000000000E+00 -0.00000000000E+00 -0.58094329010E+03  0.58094329010E+03  0.00000000000E+00 0.  1.
         23    2    1    2    0    0  0.75499757520E+02  0.11821994662E+03 -0.42579377379E+03  0.45781854231E+03  0.92851013539E+02 0.  0.
         23    2    1    2    0    0 -0.75499757520E+02 -0.11821994662E+03 -0.89324135898E+02  0.18895012821E+03  0.89706078572E+02 0.  0.
          5    1    3    3  502    0  0.15782580296E+02  0.32586045344E+02 -0.26602025613E+02  0.45174085034E+02  0.47000000000E+01 0. -1.
         -5    1    4    4    0  503  0.12810410386E+02 -0.34396338972E+02 -0.47306478130E+02  0.60060033483E+02  0.47000000000E+01 0.  1.
          5    1    4    4  503    0 -0.88310167906E+02 -0.83823607648E+02 -0.42017657768E+02  0.12889009473E+03  0.47000000000E+01 0. -1.
         -5    1    3    3    0  502  0.59717177224E+02  0.85633901276E+02 -0.39919174818E+03  0.41264445727E+03  0.47000000000E+01 0.  1.
<mgrwt>
<rscale>  0 0.16778809E+03</rscale>
<asrwt>0</asrwt>
<pdfrwt beam="1">  1        1 0.10126982E-01 0.16821855E+03</pdfrwt>
<pdfrwt beam="2">  1       -1 0.89375888E-01 0.16821855E+03</pdfrwt>
<totfact> 0.80811838E+02</totfact>
</mgrwt>
</event>
<event>
 8    1  0.3400573E-004  0.1031598E+03  0.7546771E-02  0.1273828E+00
         -1   -1    0    0    0  501 -0.00000000000E+00  0.00000000000E+00  0.18139211459E+03  0.18139211459E+03  0.00000000000E+00 0.  1.
          1   -1    0    0  501    0  0.00000000000E+00 -0.00000000000E+00 -0.59487914786E+02  0.59487914786E+02  0.00000000000E+00 0. -1.
         23    2    1    2    0    0 -0.35157539793E+02  0.32555564717E+02  0.46408307437E+02  0.11304588976E+03  0.91267326000E+02 0.  0.
         23    2    1    2    0    0  0.35157539793E+02 -0.32555564717E+02  0.75495892367E+02  0.12783413961E+03  0.91356554704E+02 0.  0.
          5    1    3    3  502    0 -0.58037832463E+02  0.15249274447E+02  0.23202806593E+01  0.60236235527E+02  0.47000000000E+01 0. -1.
         -5    1    3    3    0  502  0.22880292670E+02  0.17306290270E+02  0.44088026778E+02  0.52809654238E+02  0.47000000000E+01 0.  1.
          5    1    4    4  503    0 -0.14133674397E+02 -0.48791028660E+02  0.35628623255E+02  0.62223902359E+02  0.47000000000E+01 0. -1.
         -5    1    4    4    0  503  0.49291214190E+02  0.16235463944E+02  0.39867269113E+02  0.65610237252E+02  0.47000000000E+01 0.  1.
<mgrwt>
<rscale>  0 0.10314001E+03</rscale>
<asrwt>0</asrwt>
<pdfrwt beam="1">  1        1 0.91519870E-02 0.10315977E+03</pdfrwt>
<pdfrwt beam="2">  1       -1 0.27906479E-01 0.10315977E+03</pdfrwt>
<totfact> 0.77264860E+03</totfact>
</mgrwt>
</event>
<event>
 8    1  0.3400573E-004  0.9394069E+02  0.7546771E-02  0.1296470E+00
          3   -1    0    0  501    0  0.00000000000E+00  0.00000000000E+00  0.46124770385E+03  0.46124770385E+03  0.00000000000E+00 0. -1.
         -3   -1    0    0    0  501 -0.00000000000E+00 -0.00000000000E+00 -0.45889273716E+03  0.45889273716E+03  0.00000000000E+00 0.  1.
         23    2    1    2    0    0 -0.15303999794E+02  0.16825159747E+01 -0.44969744373E+03  0.45940466254E+03  0.92670436472E+02 0.  0.
         23    2    1    2    0    0  0.15303999794E+02 -0.16825159747E+01  0.45205241041E+03  0.46073577847E+03  0.87687128671E+02 0.  0.
          5    1    4    4  502    0  0.42258076664E+02  0.10249237355E+02  0.38324878673E+03  0.38573632761E+03  0.47000000000E+01 0. -1.
         -5    1    3    3    0  503 -0.46036935313E+02  0.23815483267E+02 -0.32015193497E+03  0.32435463327E+03  0.47000000000E+01 0.  1.
          5    1    3    3  503    0  0.30732935519E+02 -0.22132967292E+02 -0.12954550875E+03  0.13505002927E+03  0.47000000000E+01 0. -1.
         -5    1    4    4    0  502 -0.26954076870E+02 -0.11931753330E+02  0.68803623683E+02  0.74999450860E+02  0.47000000000E+01 0.  1.
<mgrwt>
<rscale>  0 0.92687802E+02</rscale>
<asrwt>0</asrwt>
<pdfrwt beam="1">  1        3 0.70961185E-01 0.93940689E+02</pdfrwt>
<pdfrwt beam="2">  1       -3 0.70598883E-01 0.93940689E+02</pdfrwt>
<totfact> 0.88625581E+00</totfact>
</mgrwt>
</event>
<event>
 8    1  0.3400573E-004  0.9131307E+02  0.7546771E-02  0.1301476E+00
         -1   -1    0    0    0  501 -0.00000000000E+00  0.00000000000E+00  0.69459298347E+02  0.69459298347E+02  0.00000000000E+00 0.  1.
          1   -1    0    0  501    0  0.00000000000E+00 -0.00000000000E+00 -0.12966566683E+03  0.12966566683E+03  0.00000000000E+00 0. -1.
         23    2    1    2    0    0 -0.23840288331E+02 -0.63255738151E+01  0.23978074614E+01  0.88412008105E+02  0.84867905976E+02 0.  0.
         23    2    1    2    0    0  0.23840288331E+02  0.63255738151E+01 -0.62604175945E+02  0.11071295707E+03  0.87918733988E+02 0.  0.
          5    1    3    3  502    0 -0.22796643129E+02  0.28761463570E+02 -0.24120966052E+02  0.44168084947E+02  0.47000000000E+01 0. -1.
         -5    1    4    4    0  503  0.42741097575E+02  0.18358824277E+02 -0.29849739812E+01  0.46849204053E+02  0.47000000000E+01 0.  1.
          5    1    4    4  503    0 -0.18900809244E+02 -0.12033250462E+02 -0.59619201964E+02  0.63863753018E+02  0.47000000000E+01 0. -1.
         -5    1    3    3    0  502 -0.10436452019E+01 -0.35087037385E+02  0.26518773513E+02  0.44243923158E+02  0.47000000000E+01 0.  1.
<mgrwt>
<rscale>  0 0.90570666E+02</rscale>
<asrwt>0</asrwt>
<pdfrwt beam="1">  1        1 0.19948564E-01 0.91313066E+02</pdfrwt>
<pdfrwt beam="2">  1       -1 0.10686046E-01 0.91313066E+02</pdfrwt>
<totfact> 0.12689828E+04</totfact>
</mgrwt>
</event>
<event>
 8    1  0.3400573E-004  0.1031578E+03  0.7546771E-02  0.1275181E+00
         -1   -1    0    0    0  501 -0.00000000000E+00  0.00000000000E+00  0.20974882053E+03  0.20974882053E+03  0.00000000000E+00 0.  1.
          1   -1    0    0  501    0  0.00000000000E+00 -0.00000000000E+00 -0.80034602162E+02  0.80034602162E+02  0.00000000000E+00 0. -1.
         23    2    1    2    0    0  0.26426794904E+02  0.29678647230E+02  0.15501459010E+03  0.18620166791E+03  0.95196325557E+02 0.  0.
         23    2    1    2    0    0 -0.26426794904E+02 -0.29678647230E+02 -0.25300371730E+02  0.10358175478E+03  0.92248975731E+02 0.  0.
          5    1    3    3  502    0 -0.11060538387E+02  0.24667965858E+02  0.91044069365E+00  0.27454743693E+02  0.47000000000E+01 0. -1.
         -5    1    3    3    0  502  0.37487333292E+02  0.50106813720E+01  0.15410414941E+03  0.15874692422E+03  0.47000000000E+01 0.  1.
          5    1    4    4  503    0  0.12459431051E+02 -0.53049930345E+02 -0.16483109955E+02  0.57125436064E+02  0.47000000000E+01 0. -1.
         -5    1    4    4    0  503 -0.38886225956E+02  0.23371283115E+02 -0.88172617744E+01  0.46456318717E+02  0.47000000000E+01 0.  1.
<mgrwt>
<rscale>  0 0.10247267E+03</rscale>
<asrwt>0</asrwt>
<pdfrwt beam="1">  1        1 0.12313016E-01 0.10315783E+03</pdfrwt>
<pdfrwt beam="2">  1       -1 0.32269049E-01 0.10315783E+03</pdfrwt>
<totfact> 0.41105904E+03</totfact>
</mgrwt>
</event>
<event>
 8    1  0.3400573E-004  0.1126573E+03  0.7546771E-02  0.1257255E+00
          2   -1    0    0  501    0  0.00000000000E+00  0.00000000000E+00  0.51438720455E+03  0.51438720455E+03  0.00000000000E+00 0. -1.
         -2   -1    0    0    0  501 -0.00000000000E+00 -0.00000000000E+00 -0.25115486308E+02  0.25115486308E+02  0.00000000000E+00 0.  1.
         23    2    1    2    0    0  0.66099461489E+02  0.11225386178E+02  0.18287994983E+03  0.21305579530E+03  0.86328140008E+02 0.  0.
         23    2    1    2    0    0 -0.66099461489E+02 -0.11225386178E+02  0.30639176841E+03  0.32644689556E+03  0.90534588776E+02 0.  0.
          5    1    4    4  502    0 -0.33475282561E+02 -0.38273982396E+02  0.72367172680E+02  0.88569689808E+02  0.47000000000E+01 0. -1.
         -5    1    4    4    0  502 -0.32624178929E+02  0.27048596217E+02  0.23402459573E+03  0.23787720575E+03  0.47000000000E+01 0.  1.
          5    1    3    3  503    0  0.30684614508E+02  0.30168082630E+02  0.16172862628E+03  0.16742131685E+03  0.47000000000E+01 0. -1.
         -5    1    3    3    0  503  0.35414846981E+02 -0.18942696452E+02  0.21151323549E+02  0.45634478451E+02  0.47000000000E+01 0.  1.
<mgrwt>
<rscale>  0 0.11180982E+03</rscale>
<asrwt>0</asrwt>
<pdfrwt beam="1">  1        2 0.79136485E-01 0.11265727E+03</pdfrwt>
<pdfrwt beam="2">  1       -2 0.38639214E-02 0.11265727E+03</pdfrwt>
<totfact> 0.16230616E+04</totfact>
</mgrwt>
</event>
<event>
 8    1  0.3400573E-004  0.1043831E+03  0.7546771E-02  0.1273805E+00
         -3   -1    0    0    0  501 -0.00000000000E+00  0.00000000000E+00  0.76845191891E+03  0.76845191891E+03  0.00000000000E+00 0.  1.
          3   -1    0    0  501    0  0.00000000000E+00 -0.00000000000E+00 -0.24755807544E+02  0.24755807544E+02  0.00000000000E+00 0. -1.
         23    2    1    2    0    0 -0.37484566305E+02  0.28876924912E+02  0.64371153598E+03  0.65211990437E+03  0.93042241062E+02 0.  0.
         23    2    1    2    0    0  0.37484566305E+02 -0.28876924912E+02  0.99984575384E+02  0.14108782208E+03  0.87577900872E+02 0.  0.
          5    1    3    3  502    0 -0.19958803463E+02 -0.25757482903E+02  0.98043862382E+02  0.10342384015E+03  0.47000000000E+01 0. -1.
         -5    1    4    4    0  503  0.17682952125E+02 -0.51664873767E+02  0.25243215835E+02  0.60342819978E+02  0.47000000000E+01 0.  1.
          5    1    4    4  503    0  0.19801614180E+02  0.22787948855E+02  0.74741359549E+02  0.80745002102E+02  0.47000000000E+01 0. -1.
         -5    1    3    3    0  502 -0.17525762842E+02  0.54634407815E+02  0.54566767360E+03  0.54869606422E+03  0.47000000000E+01 0.  1.
<mgrwt>
<rscale>  0 0.10315150E+03</rscale>
<asrwt>0</asrwt>
<pdfrwt beam="1">  1        3 0.38085864E-02 0.10438308E+03</pdfrwt>
<pdfrwt beam="2">  1       -3 0.11822335E+00 0.10438308E+03</pdfrwt>
<totfact> 0.47972502E+02</totfact>
</mgrwt>
</event>
<event>
 8    1  0.3400573E-004  0.1187807E+03  0.7546771E-02  0.1257486E+00
         -1   -1    0    0    0  501 -0.00000000000E+00  0.00000000000E+00  0.79716986178E+02  0.79716986178E+02  0.00000000000E+00 0.  1.
          1   -1    0    0  501    0  0.00000000000E+00 -0.00000000000E+00 -0.16389798815E+03  0.16389798815E+03  0.00000000000E+00 0. -1.
         23    2    1    2    0    0 -0.16933832945E+02 -0.74242228262E+01 -0.83458525537E+02  0.12483205385E+03  0.90971657127E+02 0.  0.
         23    2    1    2    0    0  0.16933832945E+02  0.74242228262E+01 -0.72247643358E+00  0.11878292048E+03  0.11733280207E+03 0.  0.
          5    1    3    3  502    0 -0.72276009094E+01 -0.26669603750E+02 -0.95618458228E+02  0.99641786079E+02  0.47000000000E+01 0. -1.
         -5    1    4    4    0  503  0.55139373524E+02  0.37741436453E+02 -0.13081574518E+02  0.68249425859E+02  0.47000000000E+01 0.  1.
          5    1    4    4  503    0 -0.38205540578E+02 -0.30317213627E+02  0.12359098085E+02  0.50533494620E+02  0.47000000000E+01 0. -1.
         -5    1    3    3    0  502 -0.97062320359E+01  0.19245380924E+02  0.12159932691E+02  0.25190267770E+02  0.47000000000E+01 0.  1.
<mgrwt>
<rscale>  0 0.11168208E+03</rscale>
<asrwt>0</asrwt>
<pdfrwt beam="1">  1        1 0.25215075E-01 0.11878072E+03</pdfrwt>
<pdfrwt beam="2">  1       -1 0.12264152E-01 0.11878072E+03</pdfrwt>
<totfact> 0.78451351E+03</totfact>
</mgrwt>
</event>
<event>
 8    1  0.3400573E-004  0.9653001E+02  0.7546771E-02  0.1291433E+00
          1   -1    0    0  501    0  0.00000000000E+00  0.00000000000E+00  0.15979768743E+03  0.15979768743E+03  0.00000000000E+00 0. -1.
         -1   -1    0    0    0  501 -0.00000000000E+00 -0.00000000000E+00 -0.56649845978E+02  0.56649845978E+02  0.00000000000E+00 0.  1.
         23    2    1    2    0    0  0.14841317266E+02  0.23591605720E+01  0.28816628798E+02  0.94614974561E+02  0.88858117125E+02 0.  0.
         23    2    1    2    0    0 -0.14841317266E+02 -0.23591605720E+01  0.74331212655E+02  0.12183255885E+03  0.95353095826E+02 0.  0.
          5    1    3    3  502    0 -0.30195040557E+02 -0.90231889162E+00  0.37511375622E+02  0.48391610375E+02  0.47000000000E+01 0. -1.
         -5    1    4    4    0  503  0.48592198256E+01 -0.26679751950E+02 -0.11893460174E+02  0.29982754649E+02  0.47000000000E+01 0.  1.
          5    1    4    4  503    0 -0.19700537092E+02  0.24320591378E+02  0.86224672829E+02  0.91849804198E+02  0.47000000000E+01 0. -1.
         -5    1    3    3    0  502  0.45036357824E+02  0.32614794636E+01 -0.86947468242E+01  0.46223364186E+02  0.47000000000E+01 0.  1.
<mgrwt>
<rscale>  0 0.94885956E+02</rscale>
<asrwt>0</asrwt>
<pdfrwt beam="1">  1        1 0.24584259E-01 0.96530012E+02</pdfrwt>
<pdfrwt beam="2">  1       -1 0.87153610E-02 0.96530012E+02</pdfrwt>
<totfact> 0.13364700E+04</totfact>
</mgrwt>
</event>
<event>
 8    1  0.3400573E-004  0.9918861E+02  0.7546771E-02  0.1283603E+00
         -1   -1    0    0    0  501 -0.00000000000E+00  0.00000000000E+00  0.58452370008E+03  0.58452370008E+03  0.00000000000E+00 0.  1.
          1   -1    0    0  501    0  0.00000000000E+00 -0.00000000000E+00 -0.16587401175E+02  0.16587401175E+02  0.00000000000E+00 0. -1.
         23    2    1    2    0    0 -0.32357897049E+02 -0.10536921164E+01  0.25113141962E+03  0.27000994350E+03  0.93756257898E+02 0.  0.
         23    2    1    2    0    0  0.32357897049E+02  0.10536921164E+01  0.31680487928E+03  0.33110115776E+03  0.90633886410E+02 0.  0.
          5    1    3    3  502    0 -0.59906088419E+02  0.20542333291E+02  0.17222304504E+03  0.18355814918E+03  0.47000000000E+01 0. -1.
         -5    1    3    3    0  502  0.27548191369E+02 -0.21596025408E+02  0.78908374586E+02  0.86451794319E+02  0.47000000000E+01 0.  1.
          5    1    4    4  503    0  0.60287143271E+02  0.29457013903E+01  0.26697737440E+03  0.27375577664E+03  0.47000000000E+01 0.  1.
         -5    1    4    4    0  503 -0.27929246221E+02 -0.18920092739E+01  0.49827504880E+02  0.57345381123E+02  0.47000000000E+01 0. -1.
<mgrwt>
<rscale>  0 0.98443766E+02</rscale>
<asrwt>0</asrwt>
<pdfrwt beam="1">  1        1 0.25519083E-02 0.99188607E+02</pdfrwt>
<pdfrwt beam="2">  1       -1 0.89926707E-01 0.99188607E+02</pdfrwt>
<totfact> 0.50748716E+03</totfact>
</mgrwt>
</event>
<event>
 8    1  0.3400573E-004  0.1227127E+03  0.7546771E-02  0.1239379E+00
          1   -1    0    0  501    0  0.00000000000E+00  0.00000000000E+00  0.19203443411E+02  0.19203443411E+02  0.00000000000E+00 0. -1.
         -1   -1    0    0    0  501 -0.00000000000E+00 -0.00000000000E+00 -0.77420166676E+03  0.77420166676E+03  0.00000000000E+00 0.  1.
         23    2    1    2    0    0 -0.11708693561E+02 -0.78550815566E+02 -0.36617644992E+03  0.38619114770E+03  0.93547239157E+02 0.  0.
         23    2    1    2    0    0  0.11708693561E+02  0.78550815566E+02 -0.38882177343E+03  0.40721396247E+03  0.91288091277E+02 0.  0.
          5    1    4    4  502    0  0.39885702865E+02  0.33162256780E+01 -0.14170275795E+03  0.14732151321E+03  0.47000000000E+01 0. -1.
         -5    1    4    4    0  502 -0.28177009304E+02  0.75234589888E+02 -0.24711901548E+03  0.25989244926E+03  0.47000000000E+01 0.  1.
          5    1    3    3  503    0  0.36372058413E+02 -0.40332127287E+02 -0.11071578446E+03  0.12340859798E+03  0.47000000000E+01 0. -1.
         -5    1    3    3    0  503 -0.48080751973E+02 -0.38218688279E+02 -0.25546066545E+03  0.26278254972E+03  0.47000000000E+01 0.  1.
<mgrwt>
<rscale>  0 0.12228211E+03</rscale>
<asrwt>0</asrwt>
<pdfrwt beam="1">  1        1 0.29543756E-02 0.12271271E+03</pdfrwt>
<pdfrwt beam="2">  1       -1 0.11910796E+00 0.12271271E+03</pdfrwt>
<totfact> 0.22574777E+03</totfact>
</mgrwt>
</event>
<event>
 8    1  0.3400573E-004  0.1018198E+03  0.7546771E-02  0.1276665E+00
          2   -1    0    0  501    0  0.00000000000E+00  0.00000000000E+00  0.71985279626E+03  0.71985279626E+03  0.00000000000E+00 0. -1.
         -2   -1    0    0    0  501 -0.00000000000E+00 -0.00000000000E+00 -0.29663757209E+02  0.29663757209E+02  0.00000000000E+00 0.  1.
         23    2    1    2    0    0  0.44926349749E+02 -0.30726021807E+01  0.61450404812E+03  0.62288241136E+03  0.91320618922E+02 0.  0.
         23    2    1    2    0    0 -0.44926349749E+02  0.30726021807E+01  0.75684990928E+02  0.12663414211E+03  0.90995441144E+02 0.  0.
          5    1    3    3  502    0 -0.25986935304E+02  0.35907997648E-02  0.25817975176E+03  0.25952686766E+03  0.47000000000E+01 0. -1.
         -5    1    3    3    0  502  0.70913285053E+02 -0.30761929805E+01  0.35632429636E+03  0.36335554370E+03  0.47000000000E+01 0.  1.
          5    1    4    4  503    0  0.18766299904E+02  0.25850128074E+02  0.34726882209E+02  0.47417818185E+02  0.47000000000E+01 0. -1.
         -5    1    4    4    0  503 -0.63692649653E+02 -0.22777525893E+02  0.40958108719E+02  0.79216323920E+02  0.47000000000E+01 0.  1.
<mgrwt>
<rscale>  0 0.10174684E+03</rscale>
<asrwt>0</asrwt>
<pdfrwt beam="1">  1        2 0.11074657E+00 0.10181981E+03</pdfrwt>
<pdfrwt beam="2">  1       -2 0.45636555E-02 0.10181981E+03</pdfrwt>
<totfact> 0.86009703E+03</totfact>
</mgrwt>
</event>
<event>
 8    1  0.3400573E-004  0.1047833E+03  0.7546771E-02  0.1274790E+00
         -1   -1    0    0    0  501 -0.00000000000E+00  0.00000000000E+00  0.14826792536E+02  0.14826792536E+02  0.00000000000E+00 0.  1.
          1   -1    0    0  501    0  0.00000000000E+00 -0.00000000000E+00 -0.69149383416E+03  0.69149383416E+03  0.00000000000E+00 0. -1.
         23    2    1    2    0    0  0.28132130986E+02  0.45809085042E+02 -0.28687967343E+03  0.30269489276E+03  0.80214475043E+02 0.  0.
         23    2    1    2    0    0 -0.28132130986E+02 -0.45809085042E+02 -0.38978736819E+03  0.40362573394E+03  0.89942490677E+02 0.  0.
          5    1    3    3  502    0  0.34132268276E+01  0.64420152408E+02 -0.20832608952E+03  0.21813632372E+03  0.47000000000E+01 0. -1.
         -5    1    3    3    0  502  0.24718904159E+02 -0.18611067366E+02 -0.78553583916E+02  0.84558569036E+02  0.47000000000E+01 0.  1.
          5    1    4    4  503    0 -0.44484667997E+02  0.15639445306E+01 -0.27011353042E+03  0.27379689722E+03  0.47000000000E+01 0. -1.
         -5    1    4    4    0  503  0.16352537011E+02 -0.47373029572E+02 -0.11967383777E+03  0.12982883672E+03  0.47000000000E+01 0.  1.
<mgrwt>
<rscale>  0 0.10266462E+03</rscale>
<asrwt>0</asrwt>
<pdfrwt beam="1">  1        1 0.10638367E+00 0.10478330E+03</pdfrwt>
<pdfrwt beam="2">  1       -1 0.22810449E-02 0.10478330E+03</pdfrwt>
<totfact> 0.15106279E+04</totfact>
</mgrwt>
</event>
<event>
 8    1  0.3400573E-004  0.1185187E+03  0.7546771E-02  0.1245817E+00
          1   -1    0    0  501    0  0.00000000000E+00  0.00000000000E+00  0.56447023955E+03  0.56447023955E+03  0.00000000000E+00 0. -1.
         -1   -1    0    0    0  501 -0.00000000000E+00 -0.00000000000E+00 -0.47922285685E+02  0.47922285685E+02  0.00000000000E+00 0.  1.
         23    2    1    2    0    0 -0.41411016145E+02 -0.56190255633E+02  0.45042021026E+02  0.12621917156E+03  0.95027777643E+02 0.  0.
         23    2    1    2    0    0  0.41411016145E+02  0.56190255633E+02  0.47150593284E+03  0.48617335368E+03  0.95783443447E+02 0.  0.
          5    1    4    4  502    0  0.12011373943E+02  0.70205453599E+02  0.19385355049E+03  0.20657775256E+03  0.47000000000E+01 0. -1.
         -5    1    4    4    0  502  0.29399642202E+02 -0.14015197965E+02  0.27765238235E+03  0.27959560111E+03  0.47000000000E+01 0.  1.
          5    1    3    3  503    0 -0.55991901593E+02 -0.39716817573E+01  0.44518393820E+02  0.71797247081E+02  0.47000000000E+01 0. -1.
         -5    1    3    3    0  503  0.14580885448E+02 -0.52218573876E+02  0.52362720602E+00  0.54421924475E+02  0.47000000000E+01 0.  1.
<mgrwt>
<rscale>  0 0.11836595E+03</rscale>
<asrwt>0</asrwt>
<pdfrwt beam="1">  1        1 0.86841570E-01 0.11851871E+03</pdfrwt>
<pdfrwt beam="2">  1       -1 0.73726598E-02 0.11851871E+03</pdfrwt>
<totfact> 0.36103791E+03</totfact>
</mgrwt>
</event>
<event>
 8    1  0.3400573E-004  0.1024143E+03  0.7546771E-02  0.1277690E+00
         -4   -1    0    0    0  501 -0.00000000000E+00  0.00000000000E+00  0.24004049178E+02  0.24004049178E+02  0.00000000000E+00 0.  1.
          4   -1    0    0  501    0  0.00000000000E+00 -0.00000000000E+00 -0.50230089108E+03  0.50230089108E+03  0.00000000000E+00 0. -1.
         23    2    1    2    0    0 -0.30594476517E+02  0.37299672448E+02 -0.34261713773E+03  0.35631177345E+03  0.85113390683E+02 0.  0.
         23    2    1    2    0    0  0.30594476517E+02 -0.37299672448E+02 -0.13567970417E+03  0.16999316681E+03  0.90340506304E+02 0.  0.
          5    1    3    3  502    0 -0.31545126316E+02 -0.20001185829E+02 -0.17810218394E+03  0.18203741471E+03  0.47000000000E+01 0. -1.
         -5    1    4    4    0  503  0.41891302508E+02 -0.11033722381E+02 -0.15311023556E+02  0.46185946972E+02  0.47000000000E+01 0.  1.
          5    1    4    4  503    0 -0.11296825991E+02 -0.26265950067E+02 -0.12036868061E+03  0.12380721984E+03  0.47000000000E+01 0. -1.
         -5    1    3    3    0  502  0.95064979915E+00  0.57300858277E+02 -0.16451495379E+03  0.17427435874E+03  0.47000000000E+01 0.  1.
<mgrwt>
<rscale>  0 0.10124964E+03</rscale>
<asrwt>0</asrwt>
<pdfrwt beam="1">  1        4 0.77277058E-01 0.10241433E+03</pdfrwt>
<pdfrwt beam="2">  1       -4 0.36929307E-02 0.10241433E+03</pdfrwt>
<totfact> 0.92639437E+02</totfact>
</mgrwt>
</event>
<event>
 8    1  0.3400573E-004  0.9894091E+02  0.7546771E-02  0.1283915E+00
          1   -1    0    0  501    0  0.00000000000E+00  0.00000000000E+00  0.74219663777E+02  0.74219663777E+02  0.00000000000E+00 0. -1.
         -1   -1    0    0    0  501 -0.00000000000E+00 -0.00000000000E+00 -0.14107602566E+03  0.14107602566E+03  0.00000000000E+00 0.  1.
         23    2    1    2    0    0 -0.51982932984E+01 -0.33064676975E+02 -0.65929683136E+02  0.11889502436E+03  0.93107510881E+02 0.  0.
         23    2    1    2    0    0  0.51982932984E+01  0.33064676975E+02 -0.92667874732E+00  0.96400665079E+02  0.90398752079E+02 0.  0.
          5    1    4    4  502    0  0.27988537336E+02  0.52189791819E+02 -0.17617706013E+02  0.61964555654E+02  0.47000000000E+01 0. -1.
         -5    1    3    3    0  503 -0.25952708805E+02 -0.56287122368E+02 -0.24413235827E+02  0.66782327920E+02  0.47000000000E+01 0.  1.
          5    1    3    3  503    0  0.20754415506E+02  0.23222445394E+02 -0.41516447309E+02  0.52112696440E+02  0.47000000000E+01 0. -1.
         -5    1    4    4    0  502 -0.22790244038E+02 -0.19125114844E+02  0.16691027265E+02  0.34436109424E+02  0.47000000000E+01 0.  1.
<mgrwt>
<rscale>  0 0.98298506E+02</rscale>
<asrwt>0</asrwt>
<pdfrwt beam="1">  1        1 0.11418410E-01 0.98940910E+02</pdfrwt>
<pdfrwt beam="2">  1       -1 0.21704003E-01 0.98940910E+02</pdfrwt>
<totfact> 0.86688918E+03</totfact>
</mgrwt>
</event>
<event>
 8    1  0.3400573E-004  0.9880247E+02  0.7546771E-02  0.1284717E+00
         -1   -1    0    0    0  501 -0.00000000000E+00  0.00000000000E+00  0.15554281632E+03  0.15554281632E+03  0.00000000000E+00 0.  1.
          1   -1    0    0  501    0  0.00000000000E+00 -0.00000000000E+00 -0.63920666747E+02  0.63920666747E+02  0.00000000000E+00 0. -1.
         23    2    1    2    0    0  0.37468687854E+02 -0.86149157483E+01  0.70103540416E+02  0.11834484208E+03  0.87251796114E+02 0.  0.
         23    2    1    2    0    0 -0.37468687854E+02  0.86149157483E+01  0.21518609161E+02  0.10111864099E+03  0.91015436455E+02 0.  0.
          5    1    3    3  502    0  0.13671764358E+02  0.39098604595E+02  0.27575978567E+02  0.49981422707E+02  0.47000000000E+01 0. -1.
         -5    1    4    4    0  503 -0.65866364251E+02 -0.33327276502E+01  0.62453140622E+01  0.66412189852E+02  0.47000000000E+01 0.  1.
          5    1    4    4  503    0  0.28397676397E+02  0.11947643398E+02  0.15273295099E+02  0.34706451140E+02  0.47000000000E+01 0. -1.
         -5    1    3    3    0  502  0.23796923496E+02 -0.47713520343E+02  0.42527561849E+02  0.68363419372E+02  0.47000000000E+01 0.  1.
<mgrwt>
<rscale>  0 0.97926965E+02</rscale>
<asrwt>0</asrwt>
<pdfrwt beam="1">  1        1 0.98339488E-02 0.98802475E+02</pdfrwt>
<pdfrwt beam="2">  1       -1 0.23929664E-01 0.98802475E+02</pdfrwt>
<totfact> 0.90043535E+03</totfact>
</mgrwt>
</event>
<event>
 8    1  0.3400573E-004  0.1053785E+03  0.7546771E-02  0.1269874E+00
         -3   -1    0    0    0  501 -0.00000000000E+00  0.00000000000E+00  0.94431605144E+02  0.94431605144E+02  0.00000000000E+00 0.  1.
          3   -1    0    0  501    0  0.00000000000E+00 -0.00000000000E+00 -0.12167574634E+03  0.12167574634E+03  0.00000000000E+00 0. -1.
         23    2    1    2    0    0 -0.40903382055E+02  0.28065449041E+02 -0.36035897579E+02  0.11136970243E+03  0.92972407793E+02 0.  0.
         23    2    1    2    0    0  0.40903382055E+02 -0.28065449041E+02  0.87917563813E+01  0.10473764906E+03  0.91825508748E+02 0.  0.
          5    1    4    4  502    0  0.40025910402E+02  0.25936057230E+01  0.42701552970E+02  0.58773403170E+02  0.47000000000E+01 0. -1.
         -5    1    3    3    0  503 -0.13231625011E+02  0.42927335583E+02  0.18057759333E+02  0.48641594472E+02  0.47000000000E+01 0.  1.
          5    1    3    3  503    0 -0.27671757044E+02 -0.14861886542E+02 -0.54093656911E+02  0.62728107954E+02  0.47000000000E+01 0. -1.
         -5    1    4    4    0  502  0.87747165339E+00 -0.30659054764E+02 -0.33909796588E+02  0.45964245889E+02  0.47000000000E+01 0.  1.
<mgrwt>
<rscale>  0 0.10512495E+03</rscale>
<asrwt>0</asrwt>
<pdfrwt beam="1">  1        3 0.18719346E-01 0.10537848E+03</pdfrwt>
<pdfrwt beam="2">  1       -3 0.14527939E-01 0.10537848E+03</pdfrwt>
<totfact> 0.21627278E+03</totfact>
</mgrwt>
</event>
<event>
 8    1  0.3400573E-004  0.1278486E+03  0.7546771E-02  0.1244428E+00
         -2   -1    0    0    0  501 -0.00000000000E+00  0.00000000000E+00  0.17005816918E+02  0.17005816918E+02  0.00000000000E+00 0. -1.
          2   -1    0    0  501    0  0.00000000000E+00 -0.00000000000E+00 -0.75157198833E+03  0.75157198833E+03  0.00000000000E+00 0.  1.
         23    2    1    2    0    0  0.25066379892E+02 -0.11184078877E+02 -0.37164165469E+03  0.39301754621E+03  0.12486739006E+03 0.  0.
         23    2    1    2    0    0 -0.25066379892E+02  0.11184078877E+02 -0.36292451672E+03  0.37556025904E+03  0.92616933200E+02 0.  0.
          5    1    3    3  502    0 -0.43409241475E+02  0.24541046607E+02 -0.16114314740E+03  0.16874782715E+03  0.47000000000E+01 0.  1.
         -5    1    4    4    0  503  0.28140342545E+02  0.23642942925E+02 -0.20651656866E+03  0.20981432449E+03  0.47000000000E+01 0.  1.
          5    1    4    4  503    0 -0.53206722437E+02 -0.12458864048E+02 -0.15640794806E+03  0.16574593456E+03  0.47000000000E+01 0. -1.
         -5    1    3    3    0  502  0.68475621367E+02 -0.35725125485E+02 -0.21049850729E+03  0.22426971906E+03  0.47000000000E+01 0.  1.
<mgrwt>
<rscale>  0 0.11919687E+03</rscale>
<asrwt>0</asrwt>
<pdfrwt beam="1">  1        2 0.11562646E+00 0.12784863E+03</pdfrwt>
<pdfrwt beam="2">  1       -2 0.26162795E-02 0.12784863E+03</pdfrwt>
<totfact> 0.18828900E+04</totfact>
</mgrwt>
</event>
<event>
 8    1  0.3400573E-004  0.9391084E+02  0.7546771E-02  0.1296306E+00
         -1   -1    0    0    0  501 -0.00000000000E+00  0.00000000000E+00  0.20907058534E+03  0.20907058534E+03  0.00000000000E+00 0.  1.
          1   -1    0    0  501    0  0.00000000000E+00 -0.00000000000E+00 -0.40727503422E+02  0.40727503422E+02  0.00000000000E+00 0. -1.
         23    2    1    2    0    0  0.19662513640E+02  0.64512022629E+01  0.71672473174E+02  0.11813631433E+03  0.91602472130E+02 0.  0.
         23    2    1    2    0    0 -0.19662513640E+02 -0.64512022629E+01  0.96670608745E+02  0.13166177443E+03  0.86956217705E+02 0.  0.
          5    1    3    3  502    0 -0.17380680364E+02 -0.22820833392E+02 -0.34632928761E+01  0.29273928403E+02  0.47000000000E+01 0. -1.
         -5    1    4    4    0  503  0.12200631911E+02 -0.17239472896E+02  0.95238034289E+02  0.97664876082E+02  0.47000000000E+01 0.  1.
          5    1    4    4  503    0 -0.31863145551E+02  0.10788270633E+02  0.14325744556E+01  0.33996898348E+02  0.47000000000E+01 0. -1.
         -5    1    3    3    0  502  0.37043194004E+02  0.29272035655E+02  0.75135766050E+02  0.88862385931E+02  0.47000000000E+01 0.  1.
<mgrwt>
<rscale>  0 0.92758245E+02</rscale>
<asrwt>0</asrwt>
<pdfrwt beam="1">  1        1 0.62657699E-02 0.93910837E+02</pdfrwt>
<pdfrwt beam="2">  1       -1 0.32164705E-01 0.93910837E+02</pdfrwt>
<totfact> 0.10014288E+04</totfact>
</mgrwt>
</event>
<event>
 7    1  0.3400573E-004  0.1326685E+03  0.7546771E-02  0.1240281E+00
          1   -1    0    0  501    0  0.00000000000E+00  0.00000000000E+00  0.24723971288E+03  0.24723971288E+03  0.00000000000E+00 0. -1.
         -1   -1    0    0    0  501 -0.00000000000E+00 -0.00000000000E+00 -0.10750044629E+03  0.10750044629E+03  0.00000000000E+00 0.  1.
         23    2    1    2    0    0 -0.13283741575E+02  0.14969062307E+02 -0.62482753981E+02  0.11288341096E+03  0.91858800936E+02 0.  0.
          5    1    1    2  502    0  0.49969302539E+02 -0.54928395648E+02  0.14434497543E+03  0.16239341667E+03  0.47000000000E+01 0. -1.
         -5    1    1    2    0  502 -0.36685560964E+02  0.39959333341E+02  0.57877045138E+02  0.79463331532E+02  0.47000000000E+01 0.  1.
          5    1    3    3  503    0  0.33287608491E+02  0.21297563375E+02 -0.76730947475E+01  0.40529217458E+02  0.47000000000E+01 0. -1.
         -5    1    3    3    0  503 -0.46571350066E+02 -0.63285010676E+01 -0.54809659233E+02  0.72354193507E+02  0.47000000000E+01 0.  1.
<mgrwt>
<rscale>  0 0.12172330E+03</rscale>
<asrwt>0</asrwt>
<pdfrwt beam="1">  1        1 0.38036879E-01 0.13266854E+03</pdfrwt>
<pdfrwt beam="2">  1       -1 0.16538530E-01 0.13266854E+03</pdfrwt>
<totfact> 0.29766878E+03</totfact>
</mgrwt>
</event>
<event>
 8    1  0.3400573E-004  0.1120511E+03  0.7546771E-02  0.1256972E+00
          2   -1    0    0  501    0  0.00000000000E+00  0.00000000000E+00  0.10662181935E+04  0.10662181935E+04  0.00000000000E+00 0. -1.
         -2   -1    0    0    0  501 -0.00000000000E+00 -0.00000000000E+00 -0.19558752623E+02  0.19558752623E+02  0.00000000000E+00 0.  1.
         23    2    1    2    0    0 -0.38537588507E+02  0.52664645881E+02  0.86705648997E+03  0.87426678223E+03  0.91086437296E+02 0.  0.
         23    2    1    2    0    0  0.38537588507E+02 -0.52664645881E+02  0.17960295090E+03  0.21151016388E+03  0.90667628186E+02 0.  0.
          5    1    4    4  502    0 -0.24110789199E+02  0.12276992123E+01  0.69781528808E+02  0.73989115172E+02  0.47000000000E+01 0. -1.
         -5    1    4    4    0  502  0.62648377706E+02 -0.53892345093E+02  0.10982142209E+03  0.13752104871E+03  0.47000000000E+01 0.  1.
          5    1    3    3  503    0 -0.34787155793E+02  0.74463649746E+02  0.77958720805E+03  0.78392173481E+03  0.47000000000E+01 0. -1.
         -5    1    3    3    0  503 -0.37504327137E+01 -0.21799003865E+02  0.87469281915E+02  0.90345047423E+02  0.47000000000E+01 0.  1.
<mgrwt>
<rscale>  0 0.11196596E+03</rscale>
<asrwt>0</asrwt>
<pdfrwt beam="1">  1        2 0.16403352E+00 0.11205110E+03</pdfrwt>
<pdfrwt beam="2">  1       -2 0.30090397E-02 0.11205110E+03</pdfrwt>
<totfact> 0.96483287E+03</totfact>
</mgrwt>
</event>
<event>
 8    1  0.3400573E-004  0.9802509E+02  0.7546771E-02  0.1284907E+00
          1   -1    0    0  501    0  0.00000000000E+00  0.00000000000E+00  0.40240841522E+03  0.40240841522E+03  0.00000000000E+00 0. -1.
         -1   -1    0    0    0  501 -0.00000000000E+00 -0.00000000000E+00 -0.25084737322E+02  0.25084737322E+02  0.00000000000E+00 0.  1.
         23    2    1    2    0    0 -0.27566882933E+02  0.22212123068E+02  0.13772554000E+03  0.16861830526E+03  0.90611793131E+02 0.  0.
         23    2    1    2    0    0  0.27566882933E+02 -0.22212123068E+02  0.23959813790E+03  0.25887484728E+03  0.91409011730E+02 0.  0.
          5    1    4    4  502    0 -0.86987692319E+01 -0.49650448040E+02  0.14953590767E+03  0.15787309225E+03  0.47000000000E+01 0. -1.
         -5    1    4    4    0  502  0.36265652165E+02  0.27438324971E+02  0.90062230231E+02  0.10100175503E+03  0.47000000000E+01 0.  1.
          5    1    3    3  503    0 -0.53663270836E+02  0.30750017519E+01  0.11965255152E+03  0.13125557267E+03  0.47000000000E+01 0. -1.
         -5    1    3    3    0  503  0.26096387902E+02  0.19137121316E+02  0.18072988484E+02  0.37362732590E+02  0.47000000000E+01 0.  1.
<mgrwt>
<rscale>  0 0.97838816E+02</rscale>
<asrwt>0</asrwt>
<pdfrwt beam="1">  1        1 0.61908982E-01 0.98025093E+02</pdfrwt>
<pdfrwt beam="2">  1       -1 0.38591907E-02 0.98025093E+02</pdfrwt>
<totfact> 0.14295074E+04</totfact>
</mgrwt>
</event>
<event>
 8    1  0.3400573E-004  0.9985405E+02  0.7546771E-02  0.1281037E+00
          1   -1    0    0  501    0  0.00000000000E+00  0.00000000000E+00  0.81818875052E+01  0.81818875052E+01  0.00000000000E+00 0. -1.
         -1   -1    0    0    0  501 -0.00000000000E+00 -0.00000000000E+00 -0.12094207033E+04  0.12094207033E+04  0.00000000000E+00 0.  1.
         23    2    1    2    0    0  0.17575827081E+01 -0.37518790033E+02 -0.58284899433E+03  0.59120271671E+03  0.91634891584E+02 0.  0.
         23    2    1    2    0    0 -0.17575827081E+01  0.37518790033E+02 -0.61838982142E+03  0.62639987404E+03  0.92520712639E+02 0.  0.
          5    1    4    4  502    0 -0.40692393993E+02  0.43884164631E+02 -0.35884697697E+03  0.36383366215E+03  0.47000000000E+01 0. -1.
         -5    1    3    3    0  503 -0.16708722310E+02 -0.63576076775E+02 -0.35316764730E+03  0.35926393646E+03  0.47000000000E+01 0.  1.
          5    1    3    3  503    0  0.18466305018E+02  0.26057286742E+02 -0.22968134702E+03  0.23193878025E+03  0.47000000000E+01 0. -1.
         -5    1    4    4    0  502  0.38934811285E+02 -0.63653745986E+01 -0.25954284445E+03  0.26256621189E+03  0.47000000000E+01 0.  1.
<mgrwt>
<rscale>  0 0.99648362E+02</rscale>
<asrwt>0</asrwt>
<pdfrwt beam="1">  1        1 0.12587526E-02 0.99854048E+02</pdfrwt>
<pdfrwt beam="2">  1       -1 0.18606463E+00 0.99854048E+02</pdfrwt>
<totfact> 0.23006333E+03</totfact>
</mgrwt>
</event>
<event>
 8    1  0.3400573E-004  0.1196676E+03  0.7546771E-02  0.1248355E+00
          2   -1    0    0  501    0  0.00000000000E+00  0.00000000000E+00  0.20045115652E+03  0.20045115652E+03  0.00000000000E+00 0. -1.
         -2   -1    0    0    0  501 -0.00000000000E+00 -0.00000000000E+00 -0.81525703393E+02  0.81525703393E+02  0.00000000000E+00 0.  1.
         23    2    1    2    0    0 -0.66023948289E+02 -0.98044600611E+01  0.12038179180E+03  0.16230042516E+03  0.85990482183E+02 0.  0.
         23    2    1    2    0    0  0.66023948289E+02  0.98044600611E+01 -0.14563386718E+01  0.11967643475E+03  0.99322902332E+02 0.  0.
          5    1    3    3  502    0 -0.66192543456E+02  0.26366315510E+02  0.89598562323E+02  0.11457149634E+03  0.47000000000E+01 0. -1.
         -5    1    4    4    0  503  0.57764143269E+02 -0.31791171222E+02 -0.25324254850E+02  0.70786882252E+02  0.47000000000E+01 0.  1.
          5    1    4    4  503    0  0.82598050201E+01  0.41595631284E+02  0.23867916178E+02  0.48889552499E+02  0.47000000000E+01 0. -1.
         -5    1    3    3    0  502  0.16859516677E+00 -0.36170775571E+02  0.30783229477E+02  0.47728928824E+02  0.47000000000E+01 0.  1.
<mgrwt>
<rscale>  0 0.11686799E+03</rscale>
<asrwt>0</asrwt>
<pdfrwt beam="1">  1        2 0.30838639E-01 0.11966757E+03</pdfrwt>
<pdfrwt beam="2">  1       -2 0.12542416E-01 0.11966757E+03</pdfrwt>
<totfact> 0.73539670E+03</totfact>
</mgrwt>
</event>
<event>
 8    1  0.4038366E-004  0.1229846E+03  0.7546771E-02  0.1238654E+00
         -2   -1    0    0    0  501 -0.00000000000E+00  0.00000000000E+00  0.21019840082E+03  0.21019840082E+03  0.00000000000E+00 0.  1.
          2   -1    0    0  501    0  0.00000000000E+00 -0.00000000000E+00 -0.37159024068E+03  0.37159024068E+03  0.00000000000E+00 0. -1.
         23    2    1    2    0    0  0.11622281249E+02 -0.81485564483E+02 -0.34222818026E+03  0.36365552578E+03  0.91379644484E+02 0.  0.
         23    2    1    2    0    0 -0.11622281249E+02  0.81485564483E+02  0.18083634041E+03  0.21813311572E+03  0.90029436968E+02 0.  0.
          5    1    4    4  502    0  0.16718227728E+02  0.21063592804E+02  0.22102366461E+01  0.27388852226E+02  0.47000000000E+01 0. -1.
         -5    1    4    4    0  502 -0.28340508978E+02  0.60421971679E+02  0.17862610376E+03  0.19074426349E+03  0.47000000000E+01 0.  1.
          5    1    3    3  503    0 -0.29022100424E+02 -0.75580260349E+02 -0.24241361906E+03  0.25561907357E+03  0.47000000000E+01 0. -1.
         -5    1    3    3    0  503  0.40644381673E+02 -0.59053041340E+01 -0.99814561205E+02  0.10803645221E+03  0.47000000000E+01 0.  1.
<mgrwt>
<rscale>  0 0.12273387E+03</rscale>
<asrwt>0</asrwt>
<pdfrwt beam="1">  1        2 0.57167729E-01 0.12298461E+03</pdfrwt>
<pdfrwt beam="2">  1       -2 0.32338216E-01 0.12298461E+03</pdfrwt>
<totfact> 0.76763147E+02</totfact>
</mgrwt>
</event>
<event>
 8    1  0.3400573E-004  0.9714448E+02  0.7546771E-02  0.1286889E+00
         -1   -1    0    0    0  501 -0.00000000000E+00  0.00000000000E+00  0.13976600612E+03  0.13976600612E+03  0.00000000000E+00 0.  1.
          1   -1    0    0  501    0  0.00000000000E+00 -0.00000000000E+00 -0.68602118864E+02  0.68602118864E+02  0.00000000000E+00 0. -1.
         23    2    1    2    0    0 -0.29150235303E+01  0.29859188750E+02  0.19140249366E+02  0.98170537278E+02  0.91493369862E+02 0.  0.
         23    2    1    2    0    0  0.29150235303E+01 -0.29859188750E+02  0.52023637891E+02  0.11019758771E+03  0.92395784114E+02 0.  0.
          5    1    4    4  502    0 -0.13176688915E+02 -0.49588034933E+02  0.63588612319E+02  0.81842531461E+02  0.47000000000E+01 0. -1.
         -5    1    3    3    0  503 -0.36754303683E+02  0.44291314435E+02  0.32968145822E+01  0.57840801862E+02  0.47000000000E+01 0.  1.
          5    1    3    3  503    0  0.33839280153E+02 -0.14432125685E+02  0.15843434783E+02  0.40329735417E+02  0.47000000000E+01 0. -1.
         -5    1    4    4    0  502  0.16091712445E+02  0.19728846184E+02 -0.11564974428E+02  0.28355056246E+02  0.47000000000E+01 0.  1.
<mgrwt>
<rscale>  0 0.96929289E+02</rscale>
<asrwt>0</asrwt>
<pdfrwt beam="1">  1        1 0.10554172E-01 0.97144477E+02</pdfrwt>
<pdfrwt beam="2">  1       -1 0.21502462E-01 0.97144477E+02</pdfrwt>
<totfact> 0.97361317E+03</totfact>
</mgrwt>
</event>
<event>
 8    1  0.3400573E-004  0.1131472E+03  0.7546771E-02  0.1255662E+00
          3   -1    0    0  501    0  0.00000000000E+00  0.00000000000E+00  0.87133548627E+02  0.87133548627E+02  0.00000000000E+00 0. -1.
         -3   -1    0    0    0  501 -0.00000000000E+00 -0.00000000000E+00 -0.17082681724E+03  0.17082681724E+03  0.00000000000E+00 0.  1.
         23    2    1    2    0    0  0.92340522184E+00  0.67760805340E+02 -0.92105156549E+02  0.14450090679E+03  0.88344625087E+02 0.  0.
         23    2    1    2    0    0 -0.92340522184E+00 -0.67760805340E+02  0.84118879394E+01  0.11345945908E+03  0.90608551350E+02 0.  0.
          5    1    4    4  502    0  0.16419676185E+02 -0.83946855735E+02  0.17836954985E+02  0.87503870297E+02  0.47000000000E+01 0. -1.
         -5    1    4    4    0  502 -0.17343081407E+02  0.16186050395E+02 -0.94250670454E+01  0.25955588779E+02  0.47000000000E+01 0.  1.
          5    1    3    3  503    0  0.64508669851E+01  0.30629309025E+02  0.11910003779E+02  0.33818729223E+02  0.47000000000E+01 0. -1.
         -5    1    3    3    0  503 -0.55274617633E+01  0.37131496315E+02 -0.10401516033E+03  0.11068217756E+03  0.47000000000E+01 0.  1.
<mgrwt>
<rscale>  0 0.11269330E+03</rscale>
<asrwt>0</asrwt>
<pdfrwt beam="1">  1        3 0.13405161E-01 0.11314720E+03</pdfrwt>
<pdfrwt beam="2">  1       -3 0.26281048E-01 0.11314720E+03</pdfrwt>
<totfact> 0.13756322E+03</totfact>
</mgrwt>
</event>
<event>
 8    1  0.3400573E-004  0.1130360E+03  0.7546771E-02  0.1265479E+00
         -4   -1    0    0    0  501 -0.00000000000E+00  0.00000000000E+00  0.67608298679E+02  0.67608298679E+02  0.00000000000E+00 0.  1.
          4   -1    0    0  501    0  0.00000000000E+00 -0.00000000000E+00 -0.31311719383E+03  0.31311719383E+03  0.00000000000E+00 0. -1.
         23    2    1    2    0    0 -0.58593435997E+01 -0.12464287621E+02  0.18145184775E+02  0.93862088891E+02  0.91055772069E+02 0.  0.
         23    2    1    2    0    0  0.58593435997E+01  0.12464287621E+02 -0.26365407992E+03  0.28686340361E+03  0.11219379707E+03 0.  0.
          5    1    3    3  502    0  0.31164057003E+02 -0.29357688563E+02 -0.99268765127E+01  0.44200737595E+02  0.47000000000E+01 0. -1.
         -5    1    4    4    0  503 -0.39824655478E+02 -0.30157026150E+02 -0.10870527193E+03  0.11972625257E+03  0.47000000000E+01 0.  1.
          5    1    4    4  503    0  0.45683999078E+02  0.42621313771E+02 -0.15494880799E+03  0.16713715104E+03  0.47000000000E+01 0. -1.
         -5    1    3    3    0  502 -0.37023400603E+02  0.16893400942E+02  0.28072061288E+02  0.49661351296E+02  0.47000000000E+01 0.  1.
<mgrwt>
<rscale>  0 0.10739090E+03</rscale>
<asrwt>0</asrwt>
<pdfrwt beam="1">  1        4 0.48171876E-01 0.11303601E+03</pdfrwt>
<pdfrwt beam="2">  1       -4 0.10401277E-01 0.11303601E+03</pdfrwt>
<totfact> 0.47517385E+02</totfact>
</mgrwt>
</event>
<event>
 8    1  0.3400573E-004  0.1752121E+03  0.7546771E-02  0.1173404E+00
         -1   -1    0    0    0  501 -0.00000000000E+00  0.00000000000E+00  0.16384329094E+02  0.16384329094E+02  0.00000000000E+00 0.  1.
          1   -1    0    0  501    0  0.00000000000E+00 -0.00000000000E+00 -0.18713432231E+04  0.18713432231E+04  0.00000000000E+00 0. -1.
         23    2    1    2    0    0  0.33857900794E+02  0.14210314879E+03 -0.80791353208E+03  0.82669435058E+03  0.96745085766E+02 0.  0.
         23    2    1    2    0    0 -0.33857900794E+02 -0.14210314879E+03 -0.10470453619E+04  0.10610332016E+04  0.90265179615E+02 0.  0.
          5    1    3    3  502    0  0.18574553418E+02  0.59819542871E+02 -0.58803065701E+03  0.59137596783E+03  0.47000000000E+01 0. -1.
         -5    1    4    4    0  503 -0.11360214278E+02 -0.10059167058E+03 -0.91735060208E+03  0.92293117608E+03  0.47000000000E+01 0.  1.
          5    1    4    4  503    0 -0.22497686516E+02 -0.41511478218E+02 -0.12969475982E+03  0.13810202550E+03  0.47000000000E+01 0. -1.
         -5    1    3    3    0  502  0.15283347376E+02  0.82283605924E+02 -0.21988287507E+03  0.23531838275E+03  0.47000000000E+01 0.  1.
<mgrwt>
<rscale>  0 0.17433224E+03</rscale>
<asrwt>0</asrwt>
<pdfrwt beam="1">  1        1 0.28789895E+00 0.17521208E+03</pdfrwt>
<pdfrwt beam="2">  1       -1 0.25206661E-02 0.17521208E+03</pdfrwt>
<totfact> 0.19988367E+03</totfact>
</mgrwt>
</event>
<event>
 8    1  0.3400573E-004  0.1198983E+03  0.7546771E-02  0.1244287E+00
          1   -1    0    0  501    0  0.00000000000E+00  0.00000000000E+00  0.21995747744E+03  0.21995747744E+03  0.00000000000E+00 0. -1.
         -1   -1    0    0    0  501 -0.00000000000E+00 -0.00000000000E+00 -0.64511121889E+02  0.64511121889E+02  0.00000000000E+00 0.  1.
         23    2    1    2    0    0 -0.28834907414E+02 -0.69408532551E+02  0.66218661431E+02  0.13696905551E+03  0.93416351730E+02 0.  0.
         23    2    1    2    0    0  0.28834907414E+02  0.69408532551E+02  0.89227694120E+02  0.14749954381E+03  0.90252632931E+02 0.  0.
          5    1    3    3  502    0  0.31406836983E+01 -0.80526707260E+02  0.27399756685E+02  0.85248173838E+02  0.47000000000E+01 0. -1.
         -5    1    3    3    0  502 -0.31975591112E+02  0.11118174709E+02  0.38818904745E+02  0.51720881677E+02  0.47000000000E+01 0.  1.
          5    1    4    4  503    0 -0.21882549628E+02  0.43648252440E+02  0.10343330600E+02  0.50130733161E+02  0.47000000000E+01 0. -1.
         -5    1    4    4    0  503  0.50717457042E+02  0.25760280111E+02  0.78884363520E+02  0.97368810654E+02  0.47000000000E+01 0.  1.
<mgrwt>
<rscale>  0 0.11928154E+03</rscale>
<asrwt>0</asrwt>
<pdfrwt beam="1">  1        1 0.33839611E-01 0.11989834E+03</pdfrwt>
<pdfrwt beam="2">  1       -1 0.99247881E-02 0.11989834E+03</pdfrwt>
<totfact> 0.75333123E+03</totfact>
</mgrwt>
</event>
<event>
 8    1  0.3400573E-004  0.1792224E+03  0.7546771E-02  0.1168799E+00
          1   -1    0    0  501    0  0.00000000000E+00  0.00000000000E+00  0.35784246415E+03  0.35784246415E+03  0.00000000000E+00 0. -1.
         -1   -1    0    0    0  501 -0.00000000000E+00 -0.00000000000E+00 -0.16494609357E+03  0.16494609357E+03  0.00000000000E+00 0.  1.
         23    2    1    2    0    0 -0.14338741210E+03  0.52058251558E+02  0.27335905968E+03  0.32633269840E+03  0.92183746015E+02 0.  0.
         23    2    1    2    0    0  0.14338741210E+03 -0.52058251558E+02 -0.80462689107E+02  0.19645585932E+03  0.94077886990E+02 0.  0.
          5    1    3    3  502    0 -0.57468907877E+02 -0.23332209054E+02  0.11807375575E+03  0.13345624432E+03  0.47000000000E+01 0. -1.
         -5    1    4    4    0  503  0.11916282292E+03 -0.78031301143E+02 -0.71876380502E+02  0.15961505693E+03  0.47000000000E+01 0.  1.
          5    1    4    4  503    0  0.24224589174E+02  0.25973049585E+02 -0.85863086047E+01  0.36840802391E+02  0.47000000000E+01 0. -1.
         -5    1    3    3    0  502 -0.85918504220E+02  0.75390460612E+02  0.15528530393E+03  0.19287645407E+03  0.47000000000E+01 0.  1.
<mgrwt>
<rscale>  0 0.17897512E+03</rscale>
<asrwt>0</asrwt>
<pdfrwt beam="1">  1        1 0.55052687E-01 0.17922238E+03</pdfrwt>
<pdfrwt beam="2">  1       -1 0.25376322E-01 0.17922238E+03</pdfrwt>
<totfact> 0.94872645E+02</totfact>
</mgrwt>
</event>
<event>
 8    1  0.3400573E-004  0.1263067E+03  0.7546771E-02  0.1233202E+00
          2   -1    0    0  501    0  0.00000000000E+00  0.00000000000E+00  0.78571063093E+03  0.78571063093E+03  0.00000000000E+00 0. -1.
         -2   -1    0    0    0  501 -0.00000000000E+00 -0.00000000000E+00 -0.20809850308E+02  0.20809850308E+02  0.00000000000E+00 0.  1.
         23    2    1    2    0    0 -0.27729707794E+02  0.82213113266E+02  0.31495380449E+03  0.33918155669E+03  0.91215660651E+02 0.  0.
         23    2    1    2    0    0  0.27729707794E+02 -0.82213113266E+02  0.44994697614E+03  0.46733892456E+03  0.91790284781E+02 0.  0.
          5    1    4    4  502    0 -0.12146008143E+02 -0.83764042962E+02  0.33547456567E+03  0.34601909574E+03  0.47000000000E+01 0. -1.
         -5    1    3    3    0  503  0.22014373744E+02  0.57098331271E+02  0.10231207893E+03  0.11930927701E+03  0.47000000000E+01 0.  1.
          5    1    3    3  503    0 -0.49744081538E+02  0.25114781995E+02  0.21264172556E+03  0.21987227968E+03  0.47000000000E+01 0. -1.
         -5    1    4    4    0  502  0.39875715937E+02  0.15509296961E+01  0.11447241047E+03  0.12131982881E+03  0.47000000000E+01 0.  1.
<mgrwt>
<rscale>  0 0.12620235E+03</rscale>
<asrwt>0</asrwt>
<pdfrwt beam="1">  1        2 0.12087854E+00 0.12630673E+03</pdfrwt>
<pdfrwt beam="2">  1       -2 0.32015160E-02 0.12630673E+03</pdfrwt>
<totfact> 0.13254984E+04</totfact>
</mgrwt>
</event>
<event>
 8    1  0.3400573E-004  0.1059563E+03  0.7546771E-02  0.1269476E+00
         -1   -1    0    0    0  501 -0.00000000000E+00  0.00000000000E+00  0.65932858424E+02  0.65932858424E+02  0.00000000000E+00 0.  1.
          1   -1    0    0  501    0  0.00000000000E+00 -0.00000000000E+00 -0.16679308283E+03  0.16679308283E+03  0.00000000000E+00 0. -1.
         23    2    1    2    0    0  0.35194942879E+02  0.36903041853E+02 -0.57400044954E+02  0.12050520926E+03  0.92877455796E+02 0.  0.
         23    2    1    2    0    0 -0.35194942879E+02 -0.36903041853E+02 -0.43460179452E+02  0.11222073200E+03  0.90023258049E+02 0.  0.
          5    1    3    3  502    0  0.66147602883E+02  0.29682895237E+02 -0.47815063538E+02  0.86976720666E+02  0.47000000000E+01 0. -1.
         -5    1    3    3    0  502 -0.30952660003E+02  0.72201466165E+01 -0.95849814161E+01  0.33528488591E+02  0.47000000000E+01 0.  1.
          5    1    4    4  503    0  0.16867265980E+02 -0.19289151135E+02 -0.50290816403E+02  0.56637727952E+02  0.47000000000E+01 0. -1.
         -5    1    4    4    0  503 -0.52062208859E+02 -0.17613890719E+02  0.68306369513E+01  0.55583004045E+02  0.47000000000E+01 0.  1.
<mgrwt>
<rscale>  0 0.10532755E+03</rscale>
<asrwt>0</asrwt>
<pdfrwt beam="1">  1        1 0.25660475E-01 0.10595631E+03</pdfrwt>
<pdfrwt beam="2">  1       -1 0.10143516E-01 0.10595631E+03</pdfrwt>
<totfact> 0.10164663E+04</totfact>
</mgrwt>
</event>
<event>
 8    1  0.3400573E-004  0.9327654E+02  0.7546771E-02  0.1296296E+00
         -2   -1    0    0    0  501 -0.00000000000E+00  0.00000000000E+00  0.24429864357E+02  0.24429864357E+02  0.00000000000E+00 0. -1.
          2   -1    0    0  501    0  0.00000000000E+00 -0.00000000000E+00 -0.48880099976E+03  0.48880099976E+03  0.00000000000E+00 0.  1.
         23    2    1    2    0    0  0.11852883973E+01 -0.20379069854E+01 -0.96488846305E+02  0.13420361444E+03  0.93246740929E+02 0.  0.
         23    2    1    2    0    0 -0.11852883973E+01  0.20379069854E+01 -0.36788228910E+03  0.37902724968E+03  0.91207013948E+02 0.  0.
          5    1    3    3  502    0  0.30027043477E+01  0.43344755963E+02 -0.66500457048E+02  0.79575026802E+02  0.47000000000E+01 0. -1.
         -5    1    3    3    0  502 -0.18174159504E+01 -0.45382662948E+02 -0.29988389256E+02  0.54628587637E+02  0.47000000000E+01 0.  1.
          5    1    4    4  503    0 -0.68318724373E+01  0.40112518128E+02 -0.95710961944E+02  0.10410747729E+03  0.47000000000E+01 0. -1.
         -5    1    4    4    0  503  0.56465840399E+01 -0.38074611143E+02 -0.27217132716E+03  0.27491977239E+03  0.47000000000E+01 0.  1.
<mgrwt>
<rscale>  0 0.92762540E+02</rscale>
<asrwt>0</asrwt>
<pdfrwt beam="1">  1        2 0.75200142E-01 0.93276539E+02</pdfrwt>
<pdfrwt beam="2">  1       -2 0.37584413E-02 0.93276539E+02</pdfrwt>
<totfact> 0.17566466E+04</totfact>
</mgrwt>
</event>
<event>
 8    1  0.3400573E-004  0.1026430E+03  0.7546771E-02  0.1275695E+00
         -2   -1    0    0    0  501 -0.00000000000E+00  0.00000000000E+00  0.22151382197E+02  0.22151382197E+02  0.00000000000E+00 0.  1.
          2   -1    0    0  501    0  0.00000000000E+00 -0.00000000000E+00 -0.68898249226E+03  0.68898249226E+03  0.00000000000E+00 0. -1.
         23    2    1    2    0    0 -0.14497836386E+02 -0.43655649377E+02 -0.13385608476E+03  0.16868029652E+03  0.91758313097E+02 0.  0.
         23    2    1    2    0    0  0.14497836386E+02  0.43655649377E+02 -0.53297502530E+03  0.54245357795E+03  0.89874933350E+02 0.  0.
          5    1    3    3  502    0 -0.45523820966E+02 -0.23489770538E+01 -0.88986027280E+02  0.10009265218E+03  0.47000000000E+01 0. -1.
         -5    1    4    4    0  503 -0.14772263450E+02 -0.16015919891E+02 -0.47998621175E+02  0.52921518233E+02  0.47000000000E+01 0.  1.
          5    1    4    4  503    0  0.29270099836E+02  0.59671569269E+02 -0.48497640413E+03  0.48953205971E+03  0.47000000000E+01 0. -1.
         -5    1    3    3    0  502  0.31025984580E+02 -0.41306672324E+02 -0.44870057483E+02  0.68587644340E+02  0.47000000000E+01 0.  1.
<mgrwt>
<rscale>  0 0.10222039E+03</rscale>
<asrwt>0</asrwt>
<pdfrwt beam="1">  1        2 0.10599732E+00 0.10264303E+03</pdfrwt>
<pdfrwt beam="2">  1       -2 0.34079046E-02 0.10264303E+03</pdfrwt>
<totfact> 0.13936359E+04</totfact>
</mgrwt>
</event>
<event>
 8    1  0.3400573E-004  0.1048989E+03  0.7546771E-02  0.1271265E+00
         -1   -1    0    0    0  501 -0.00000000000E+00  0.00000000000E+00  0.60766519130E+02  0.60766519130E+02  0.00000000000E+00 0.  1.
          1   -1    0    0  501    0  0.00000000000E+00 -0.00000000000E+00 -0.20644292839E+03  0.20644292839E+03  0.00000000000E+00 0. -1.
         23    2    1    2    0    0 -0.40178077915E+02  0.32473425813E+02 -0.12201293796E+03  0.15967464084E+03  0.89106860387E+02 0.  0.
         23    2    1    2    0    0  0.40178077915E+02 -0.32473425813E+02 -0.23663471304E+02  0.10753480669E+03  0.91296075742E+02 0.  0.
          5    1    3    3  502    0  0.20128899540E+02  0.12222248318E+02 -0.79422636953E+02  0.82973497041E+02  0.47000000000E+01 0. -1.
         -5    1    3    3    0  502 -0.60306977456E+02  0.20251177494E+02 -0.42590301004E+02  0.76701143794E+02  0.47000000000E+01 0.  1.
          5    1    4    4  503    0 -0.19173337983E+02 -0.73290967038E+01  0.20396251375E+02  0.29316030053E+02  0.47000000000E+01 0. -1.
         -5    1    4    4    0  503  0.59351415898E+02 -0.25144329109E+02 -0.44059722679E+02  0.78218776633E+02  0.47000000000E+01 0.  1.
<mgrwt>
<rscale>  0 0.10442070E+03</rscale>
<asrwt>0</asrwt>
<pdfrwt beam="1">  1        1 0.31760451E-01 0.10489888E+03</pdfrwt>
<pdfrwt beam="2">  1       -1 0.93486952E-02 0.10489888E+03</pdfrwt>
<totfact> 0.88266166E+03</totfact>
</mgrwt>
</event>
<event>
 8    1  0.3400573E-004  0.9727364E+02  0.7546771E-02  0.1286594E+00
          1   -1    0    0  501    0  0.00000000000E+00  0.00000000000E+00  0.18795800366E+03  0.18795800366E+03  0.00000000000E+00 0. -1.
         -1   -1    0    0    0  501 -0.00000000000E+00 -0.00000000000E+00 -0.52782172707E+02  0.52782172707E+02  0.00000000000E+00 0.  1.
         23    2    1    2    0    0  0.31822156244E+02 -0.15438841868E+02  0.39785652318E+02  0.10509547338E+03  0.90615412196E+02 0.  0.
         23    2    1    2    0    0 -0.31822156244E+02  0.15438841868E+02  0.95390178634E+02  0.13564470299E+03  0.89717288206E+02 0.  0.
          5    1    4    4  502    0 -0.60828698359E+02  0.10375395566E+01  0.46077922226E+02  0.76462225635E+02  0.47000000000E+01 0. -1.
         -5    1    4    4    0  502  0.29006542115E+02  0.14401302311E+02  0.49312256408E+02  0.59182477354E+02  0.47000000000E+01 0.  1.
          5    1    3    3  503    0  0.52747455498E+01 -0.19491154247E+02  0.64836741857E+02  0.68070706836E+02  0.47000000000E+01 0. -1.
         -5    1    3    3    0  503  0.26547410695E+02  0.40523123791E+01 -0.25051089540E+02  0.37024766540E+02  0.47000000000E+01 0.  1.
<mgrwt>
<rscale>  0 0.97063936E+02</rscale>
<asrwt>0</asrwt>
<pdfrwt beam="1">  1        1 0.28916615E-01 0.97273637E+02</pdfrwt>
<pdfrwt beam="2">  1       -1 0.81203344E-02 0.97273637E+02</pdfrwt>
<totfact> 0.12163233E+04</totfact>
</mgrwt>
</event>
<event>
 8    1  0.3400573E-004  0.9406603E+02  0.7546771E-02  0.1293650E+00
         -3   -1    0    0    0  501 -0.00000000000E+00  0.00000000000E+00  0.19547724132E+03  0.19547724132E+03  0.00000000000E+00 0.  1.
          3   -1    0    0  501    0  0.00000000000E+00 -0.00000000000E+00 -0.45283677213E+02  0.45283677213E+02  0.00000000000E+00 0. -1.
         23    2    1    2    0    0  0.64624434862E+00 -0.80807573683E+01  0.85417900978E+02  0.12706154452E+03  0.93716071282E+02 0.  0.
         23    2    1    2    0    0 -0.64624434862E+00  0.80807573683E+01  0.64775663130E+02  0.11369937402E+03  0.93091056747E+02 0.  0.
          5    1    4    4  502    0  0.30788301179E+02  0.38411398488E+02  0.36302354315E+02  0.61345790011E+02  0.47000000000E+01 0. -1.
         -5    1    4    4    0  502 -0.31434545527E+02 -0.30330641120E+02  0.28473308815E+02  0.52353584004E+02  0.47000000000E+01 0.  1.
          5    1    3    3  503    0  0.38815559465E+01  0.28419138459E+02 -0.49041485701E+01  0.29476339333E+02  0.47000000000E+01 0. -1.
         -5    1    3    3    0  503 -0.32353115979E+01 -0.36499895827E+02  0.90322049548E+02  0.97585205185E+02  0.47000000000E+01 0.  1.
<mgrwt>
<rscale>  0 0.93909975E+02</rscale>
<asrwt>0</asrwt>
<pdfrwt beam="1">  1        3 0.69667197E-02 0.94066032E+02</pdfrwt>
<pdfrwt beam="2">  1       -3 0.30073421E-01 0.94066032E+02</pdfrwt>
<totfact> 0.30357828E+03</totfact>
</mgrwt>
</event>
<event>
 8    1  0.3400573E-004  0.1164360E+03  0.7546771E-02  0.1249563E+00
          1   -1    0    0  501    0  0.00000000000E+00  0.00000000000E+00  0.66510160722E+03  0.66510160722E+03  0.00000000000E+00 0. -1.
         -1   -1    0    0    0  501 -0.00000000000E+00 -0.00000000000E+00 -0.21180271314E+02  0.21180271314E+02  0.00000000000E+00 0.  1.
         23    2    1    2    0    0  0.17978076790E+02 -0.69910334599E+02  0.39455623786E+03  0.41107233146E+03  0.89973166714E+02 0.  0.
         23    2    1    2    0    0 -0.17978076790E+02  0.69910334599E+02  0.24936509804E+03  0.27520954707E+03  0.91360147482E+02 0.  0.
          5    1    3    3  502    0 -0.25847441964E+02  0.21221687562E+01  0.15120386682E+03  0.15348385321E+03  0.47000000000E+01 0. -1.
         -5    1    3    3    0  502  0.43825518754E+02 -0.72032503355E+02  0.24335237104E+03  0.25758847825E+03  0.47000000000E+01 0.  1.
          5    1    4    4  503    0 -0.49767530246E+02  0.17302707527E+02  0.14009910714E+03  0.14975326566E+03  0.47000000000E+01 0. -1.
         -5    1    4    4    0  503  0.31789453456E+02  0.52607627073E+02  0.10926599090E+03  0.12545628141E+03  0.47000000000E+01 0.  1.
<mgrwt>
<rscale>  0 0.11616378E+03</rscale>
<asrwt>0</asrwt>
<pdfrwt beam="1">  1        1 0.10232331E+00 0.11643600E+03</pdfrwt>
<pdfrwt beam="2">  1       -1 0.32585038E-02 0.11643600E+03</pdfrwt>
<totfact> 0.96065535E+03</totfact>
</mgrwt>
</event>
<event>
 8    1  0.3400573E-004  0.9559898E+02  0.7546771E-02  0.1290567E+00
         -2   -1    0    0    0  501 -0.00000000000E+00  0.00000000000E+00  0.61647286198E+02  0.61647286198E+02  0.00000000000E+00 0.  1.
          2   -1    0    0  501    0  0.00000000000E+00 -0.00000000000E+00 -0.16996113304E+03  0.16996113304E+03  0.00000000000E+00 0. -1.
         23    2    1    2    0    0  0.25884391366E+00 -0.31102397629E+02 -0.97105624868E+02  0.13535463984E+03  0.89016571535E+02 0.  0.
         23    2    1    2    0    0 -0.25884391366E+00  0.31102397629E+02 -0.11208221972E+02  0.96253779391E+02  0.90397675129E+02 0.  0.
          5    1    3    3  502    0  0.12238506134E+02  0.29437432740E+02 -0.29371891048E+02  0.43602080942E+02  0.47000000000E+01 0. -1.
         -5    1    4    4    0  503  0.16944470704E+02 -0.22796037621E+02  0.16390472375E+02  0.33128718710E+02  0.47000000000E+01 0.  1.
          5    1    4    4  503    0 -0.17203314618E+02  0.53898435251E+02 -0.27598694346E+02  0.63125060681E+02  0.47000000000E+01 0. -1.
         -5    1    3    3    0  502 -0.11979662220E+02 -0.60539830369E+02 -0.67733733820E+02  0.91752558903E+02  0.47000000000E+01 0.  1.
<mgrwt>
<rscale>  0 0.95271079E+02</rscale>
<asrwt>0</asrwt>
<pdfrwt beam="1">  1        2 0.26147866E-01 0.95598984E+02</pdfrwt>
<pdfrwt beam="2">  1       -2 0.94841979E-02 0.95598984E+02</pdfrwt>
<totfact> 0.13387898E+04</totfact>
</mgrwt>
</event>
<event>
 8    1  0.3400573E-004  0.1060650E+03  0.7546771E-02  0.1269098E+00
          1   -1    0    0  501    0  0.00000000000E+00  0.00000000000E+00  0.23489626470E+02  0.23489626470E+02  0.00000000000E+00 0. -1.
         -1   -1    0    0    0  501 -0.00000000000E+00 -0.00000000000E+00 -0.48055811786E+03  0.48055811786E+03  0.00000000000E+00 0.  1.
         23    2    1    2    0    0  0.91635662146E+01  0.53460813753E+02 -0.26956068789E+03  0.28967697208E+03  0.91146882233E+02 0.  0.
         23    2    1    2    0    0 -0.91635662146E+01 -0.53460813753E+02 -0.18750780350E+03  0.21437077225E+03  0.88620663909E+02 0.  0.
          5    1    4    4  502    0  0.12501485665E+02 -0.16719930634E+02 -0.16410211102E+03  0.16549149847E+03  0.47000000000E+01 0.  1.
         -5    1    3    3    0  503  0.49600497282E+02  0.24040040170E+02 -0.12693741276E+03  0.13846779272E+03  0.47000000000E+01 0.  1.
          5    1    3    3  503    0 -0.40436931068E+02  0.29420773583E+02 -0.14262327513E+03  0.15120917936E+03  0.47000000000E+01 0. -1.
         -5    1    4    4    0  502 -0.21665051879E+02 -0.36740883119E+02 -0.23405692475E+02  0.48879273783E+02  0.47000000000E+01 0. -1.
<mgrwt>
<rscale>  0 0.10552009E+03</rscale>
<asrwt>0</asrwt>
<pdfrwt beam="1">  1        1 0.36137887E-02 0.10606500E+03</pdfrwt>
<pdfrwt beam="2">  1       -1 0.73932018E-01 0.10606500E+03</pdfrwt>
<totfact> 0.47218256E+03</totfact>
</mgrwt>
</event>
<event>
 8    1  0.3400573E-004  0.1048900E+03  0.7546771E-02  0.1270593E+00
         -1   -1    0    0    0  501 -0.00000000000E+00  0.00000000000E+00  0.92971106036E+03  0.92971106036E+03  0.00000000000E+00 0.  1.
          1   -1    0    0  501    0  0.00000000000E+00 -0.00000000000E+00 -0.14807848386E+02  0.14807848386E+02  0.00000000000E+00 0. -1.
         23    2    1    2    0    0 -0.32608650453E+02 -0.36624014020E+02  0.24463684520E+03  0.26617495169E+03  0.92721499086E+02 0.  0.
         23    2    1    2    0    0  0.32608650453E+02  0.36624014020E+02  0.67026636678E+03  0.67834395705E+03  0.92135113577E+02 0.  0.
          5    1    4    4  502    0 -0.31806250235E+02  0.18085284190E+02  0.26222183714E+03  0.26480388390E+03  0.47000000000E+01 0. -1.
         -5    1    4    4    0  502  0.64414900688E+02  0.18538729830E+02  0.40804452964E+03  0.41354007315E+03  0.47000000000E+01 0.  1.
          5    1    3    3  503    0 -0.49050833934E+02 -0.58329275982E+02  0.19406239609E+03  0.20854398175E+03  0.47000000000E+01 0. -1.
         -5    1    3    3    0  503  0.16442183481E+02  0.21705261961E+02  0.50574449105E+02  0.57630969945E+02  0.47000000000E+01 0.  1.
<mgrwt>
<rscale>  0 0.10476029E+03</rscale>
<asrwt>0</asrwt>
<pdfrwt beam="1">  1        1 0.22781313E-02 0.10489003E+03</pdfrwt>
<pdfrwt beam="2">  1       -1 0.14303242E+00 0.10489003E+03</pdfrwt>
<totfact> 0.20560740E+03</totfact>
</mgrwt>
</event>
<event>
 8    1  0.3400573E-004  0.1364021E+03  0.7546771E-02  0.1220441E+00
         -1   -1    0    0    0  501 -0.00000000000E+00  0.00000000000E+00  0.83480483195E+02  0.83480483195E+02  0.00000000000E+00 0.  1.
          1   -1    0    0  501    0  0.00000000000E+00 -0.00000000000E+00 -0.24395211367E+03  0.24395211367E+03  0.00000000000E+00 0. -1.
         23    2    1    2    0    0 -0.51476438649E+01 -0.92719146304E+02 -0.13695677546E+03  0.18901844673E+03  0.91364525570E+02 0.  0.
         23    2    1    2    0    0  0.51476438649E+01  0.92719146304E+02 -0.23514855011E+02  0.13841415013E+03  0.99910911418E+02 0.  0.
          5    1    3    3  502    0 -0.44062120450E+02 -0.73909620389E+02 -0.99517316798E+02  0.13164303547E+03  0.47000000000E+01 0. -1.
         -5    1    4    4    0  503  0.49611067008E+02  0.65956665764E+02 -0.24748371244E+02  0.86290854716E+02  0.47000000000E+01 0.  1.
          5    1    4    4  503    0 -0.44463423143E+02  0.26762480540E+02  0.12335162331E+01  0.52123295411E+02  0.47000000000E+01 0. -1.
         -5    1    3    3    0  502  0.38914476585E+02 -0.18809525915E+02 -0.37439458662E+02  0.57375411266E+02  0.47000000000E+01 0.  1.
<mgrwt>
<rscale>  0 0.13484306E+03</rscale>
<asrwt>0</asrwt>
<pdfrwt beam="1">  1        1 0.37531095E-01 0.13640208E+03</pdfrwt>
<pdfrwt beam="2">  1       -1 0.12843151E-01 0.13640208E+03</pdfrwt>
<totfact> 0.45003073E+03</totfact>
</mgrwt>
</event>
<event>
 8    1  0.3400573E-004  0.1206903E+03  0.7546771E-02  0.1242059E+00
          2   -1    0    0  501    0  0.00000000000E+00  0.00000000000E+00  0.30559271590E+03  0.30559271590E+03  0.00000000000E+00 0. -1.
         -2   -1    0    0    0  501 -0.00000000000E+00 -0.00000000000E+00 -0.64109537928E+02  0.64109537928E+02  0.00000000000E+00 0.  1.
         23    2    1    2    0    0 -0.55981984499E+02 -0.55493251568E+02  0.26945373555E+02  0.12366161849E+03  0.91392883609E+02 0.  0.
         23    2    1    2    0    0  0.55981984499E+02  0.55493251568E+02  0.21453780442E+03  0.24604063533E+03  0.91082606207E+02 0.  0.
          5    1    3    3  502    0  0.58821924888E+01 -0.57009445658E+02  0.21384625218E+02  0.61352011201E+02  0.47000000000E+01 0. -1.
         -5    1    4    4    0  503 -0.24375185872E+02  0.12209992917E+02  0.35320028747E+02  0.44864552199E+02  0.47000000000E+01 0.  1.
          5    1    4    4  503    0  0.80357170371E+02  0.43283258651E+02  0.17921777567E+03  0.20117608313E+03  0.47000000000E+01 0. -1.
         -5    1    3    3    0  502 -0.61864176988E+02  0.15161940898E+01  0.55607483376E+01  0.62309607293E+02  0.47000000000E+01 0.  1.
<mgrwt>
<rscale>  0 0.12063154E+03</rscale>
<asrwt>0</asrwt>
<pdfrwt beam="1">  1        2 0.47014263E-01 0.12069028E+03</pdfrwt>
<pdfrwt beam="2">  1       -2 0.98630060E-02 0.12069028E+03</pdfrwt>
<totfact> 0.68733096E+03</totfact>
</mgrwt>
</event>
<event>
 8    1  0.3400573E-004  0.1001247E+03  0.7546771E-02  0.1280898E+00
          2   -1    0    0  501    0  0.00000000000E+00  0.00000000000E+00  0.74886588412E+03  0.74886588412E+03  0.00000000000E+00 0. -1.
         -2   -1    0    0    0  501 -0.00000000000E+00 -0.00000000000E+00 -0.13169772704E+02  0.13169772704E+02  0.00000000000E+00 0.  1.
         23    2    1    2    0    0  0.33111850985E+02 -0.14139529879E+02  0.36352518104E+03  0.37663177801E+03  0.91676703541E+02 0.  0.
         23    2    1    2    0    0 -0.33111850985E+02  0.14139529879E+02  0.37217093037E+03  0.38540387881E+03  0.93427123533E+02 0.  0.
          5    1    4    4  502    0 -0.40284258307E+02  0.38028576971E+02  0.33955059307E+03  0.34407221536E+03  0.47000000000E+01 0. -1.
         -5    1    3    3    0  503  0.45127804450E+02 -0.45692699270E+02  0.23496231954E+03  0.24362619544E+03  0.47000000000E+01 0.  1.
          5    1    3    3  503    0 -0.12015953465E+02  0.31553169391E+02  0.12856286150E+03  0.13300558256E+03  0.47000000000E+01 0. -1.
         -5    1    4    4    0  502  0.71724073222E+01 -0.23889047092E+02  0.32620337306E+02  0.41331663452E+02  0.47000000000E+01 0.  1.
<mgrwt>
<rscale>  0 0.99714319E+02</rscale>
<asrwt>0</asrwt>
<pdfrwt beam="1">  1        2 0.11521010E+00 0.10012466E+03</pdfrwt>
<pdfrwt beam="2">  1       -2 0.20261195E-02 0.10012466E+03</pdfrwt>
<totfact> 0.26816198E+04</totfact>
</mgrwt>
</event>
<event>
 8    1  0.3400573E-004  0.1134705E+03  0.7546771E-02  0.1254967E+00
          3   -1    0    0  501    0  0.00000000000E+00  0.00000000000E+00  0.56278846703E+02  0.56278846703E+02  0.00000000000E+00 0. -1.
         -3   -1    0    0    0  501 -0.00000000000E+00 -0.00000000000E+00 -0.23101842200E+03  0.23101842200E+03  0.00000000000E+00 0.  1.
         23    2    1    2    0    0 -0.56569590725E+01  0.62451893844E+02 -0.10980993512E+03  0.15790435842E+03  0.94569151032E+02 0.  0.
         23    2    1    2    0    0  0.56569590725E+01 -0.62451893844E+02 -0.64929640181E+02  0.12939291029E+03  0.92706131553E+02 0.  0.
          5    1    3    3  502    0 -0.36060857252E+02 -0.28998538598E+01 -0.59803090247E+02  0.70052081920E+02  0.47000000000E+01 0. -1.
         -5    1    4    4    0  503  0.28498747583E+02  0.12834060865E+02 -0.93806580111E+01  0.32969356634E+02  0.47000000000E+01 0.  1.
          5    1    4    4  503    0 -0.22841788511E+02 -0.75285954709E+02 -0.55548982170E+02  0.96423553652E+02  0.47000000000E+01 0. -1.
         -5    1    3    3    0  502  0.30403898180E+02  0.65351747703E+02 -0.50006844873E+02  0.87852276502E+02  0.47000000000E+01 0.  1.
<mgrwt>
<rscale>  0 0.11308156E+03</rscale>
<asrwt>0</asrwt>
<pdfrwt beam="1">  1        3 0.86582842E-02 0.11347054E+03</pdfrwt>
<pdfrwt beam="2">  1       -3 0.35541295E-01 0.11347054E+03</pdfrwt>
<totfact> 0.16253954E+03</totfact>
</mgrwt>
</event>
<event>
 8    1  0.3400573E-004  0.9884775E+02  0.7546771E-02  0.1284736E+00
         -1   -1    0    0    0  501 -0.00000000000E+00  0.00000000000E+00  0.34014533102E+03  0.34014533102E+03  0.00000000000E+00 0.  1.
          1   -1    0    0  501    0  0.00000000000E+00 -0.00000000000E+00 -0.28377743966E+02  0.28377743966E+02  0.00000000000E+00 0. -1.
         23    2    1    2    0    0  0.65156857568E+01 -0.27092725100E+02  0.12966081375E+03  0.16304234127E+03  0.94838855489E+02 0.  0.
         23    2    1    2    0    0 -0.65156857568E+01  0.27092725100E+02  0.18210677331E+03  0.20548073372E+03  0.91010906660E+02 0.  0.
          5    1    4    4  502    0  0.32929790903E+02  0.38602833419E+02  0.75066946816E+02  0.90728641460E+02  0.47000000000E+01 0. -1.
         -5    1    4    4    0  502 -0.39445476660E+02 -0.11510108319E+02  0.10703982650E+03  0.11475209226E+03  0.47000000000E+01 0.  1.
          5    1    3    3  503    0 -0.20290747156E+02  0.29247672272E+02  0.40599310566E+02  0.54199029252E+02  0.47000000000E+01 0. -1.
         -5    1    3    3    0  503  0.26806432913E+02 -0.56340397372E+02  0.89061503180E+02  0.10884331201E+03  0.47000000000E+01 0.  1.
<mgrwt>
<rscale>  0 0.97918074E+02</rscale>
<asrwt>0</asrwt>
<pdfrwt beam="1">  1        1 0.43658070E-02 0.98847754E+02</pdfrwt>
<pdfrwt beam="2">  1       -1 0.52330048E-01 0.98847754E+02</pdfrwt>
<totfact> 0.70027166E+03</totfact>
</mgrwt>
</event>
<event>
 8    1  0.3400573E-004  0.1006859E+03  0.7546771E-02  0.1279846E+00
          1   -1    0    0  501    0  0.00000000000E+00  0.00000000000E+00  0.10879917113E+04  0.10879917113E+04  0.00000000000E+00 0. -1.
         -1   -1    0    0    0  501 -0.00000000000E+00 -0.00000000000E+00 -0.94664472198E+01  0.94664472198E+01  0.00000000000E+00 0.  1.
         23    2    1    2    0    0 -0.23358226832E+02 -0.30726580829E+02  0.64522398384E+03  0.65303264333E+03  0.92994163268E+02 0.  0.
         23    2    1    2    0    0  0.23358226832E+02  0.30726580829E+02  0.43330128027E+03  0.44442551522E+03  0.90963231937E+02 0.  0.
          5    1    4    4  502    0 -0.13949388675E+01  0.46304651136E+02  0.38470401673E+03  0.38751172506E+03  0.47000000000E+01 0. -1.
         -5    1    4    4    0  502  0.24753165700E+02 -0.15578070307E+02  0.48597263537E+02  0.56913790156E+02  0.47000000000E+01 0.  1.
          5    1    3    3  503    0 -0.38731915187E+02 -0.49608227825E+02  0.57700237036E+03  0.58044376379E+03  0.47000000000E+01 0. -1.
         -5    1    3    3    0  503  0.15373688355E+02  0.18881646997E+02  0.68221613475E+02  0.72588879534E+02  0.47000000000E+01 0.  1.
<mgrwt>
<rscale>  0 0.10021439E+03</rscale>
<asrwt>0</asrwt>
<pdfrwt beam="1">  1        1 0.16738324E+00 0.10068587E+03</pdfrwt>
<pdfrwt beam="2">  1       -1 0.14563774E-02 0.10068587E+03</pdfrwt>
<totfact> 0.14117983E+04</totfact>
</mgrwt>
</event>
<event>
 8    1  0.4189785E-004  0.9716068E+02  0.7546771E-02  0.1286949E+00
         -4   -1    0    0    0  501 -0.00000000000E+00  0.00000000000E+00  0.39247357996E+02  0.39247357996E+02  0.00000000000E+00 0.  1.
          4   -1    0    0  501    0  0.00000000000E+00 -0.00000000000E+00 -0.57711273543E+03  0.57711273543E+03  0.00000000000E+00 0. -1.
         23    2    1    2    0    0  0.25630193108E+02  0.19736400159E+02 -0.50458072325E+03  0.51365631779E+03  0.90524440019E+02 0.  0.
         23    2    1    2    0    0 -0.25630193108E+02 -0.19736400159E+02 -0.33284654190E+02  0.10270377564E+03  0.91617493070E+02 0.  0.
          5    1    4    4  502    0  0.23849065568E+02 -0.14179913061E+02 -0.43355857382E+02  0.51688182714E+02  0.47000000000E+01 0. -1.
         -5    1    4    4    0  502 -0.49479258676E+02 -0.55564870984E+01  0.10071203192E+02  0.51015592928E+02  0.47000000000E+01 0.  1.
          5    1    3    3  503    0  0.58292175269E+02  0.19255505080E+02 -0.28206540045E+03  0.28870700079E+03  0.47000000000E+01 0. -1.
         -5    1    3    3    0  503 -0.32661982161E+02  0.48089507867E+00 -0.22251532280E+03  0.22494931700E+03  0.47000000000E+01 0.  1.
<mgrwt>
<rscale>  0 0.96902147E+02</rscale>
<asrwt>0</asrwt>
<pdfrwt beam="1">  1        4 0.88786569E-01 0.97160678E+02</pdfrwt>
<pdfrwt beam="2">  1       -4 0.60380555E-02 0.97160678E+02</pdfrwt>
<totfact> 0.30799057E+02</totfact>
</mgrwt>
</event>
<event>
 8    1  0.3400573E-004  0.9642945E+02  0.7546771E-02  0.1292431E+00
         -3   -1    0    0    0  501 -0.00000000000E+00  0.00000000000E+00  0.98234680443E+03  0.98234680443E+03  0.00000000000E+00 0.  1.
          3   -1    0    0  501    0  0.00000000000E+00 -0.00000000000E+00 -0.12134294695E+02  0.12134294695E+02  0.00000000000E+00 0. -1.
         23    2    1    2    0    0  0.40922842828E+01 -0.80990169982E+01  0.73399927444E+03  0.73934323117E+03  0.88267421690E+02 0.  0.
         23    2    1    2    0    0 -0.40922842828E+01  0.80990169982E+01  0.23621323530E+03  0.25513786796E+03  0.96001553473E+02 0.  0.
          5    1    4    4  502    0  0.22028923257E+02  0.44527977105E+02  0.10187042101E+03  0.11343582715E+03  0.47000000000E+01 0. -1.
         -5    1    4    4    0  502 -0.26121207539E+02 -0.36428960107E+02  0.13434281429E+03  0.14170204081E+03  0.47000000000E+01 0.  1.
          5    1    3    3  503    0 -0.96807379907E+01 -0.46220115312E+02  0.43232937852E+03  0.43492619751E+03  0.47000000000E+01 0.  1.
         -5    1    3    3    0  503  0.13773022274E+02  0.38121098314E+02  0.30166989592E+03  0.30441703366E+03  0.47000000000E+01 0. -1.
<mgrwt>
<rscale>  0 0.94444811E+02</rscale>
<asrwt>0</asrwt>
<pdfrwt beam="1">  1        3 0.18668153E-02 0.96429452E+02</pdfrwt>
<pdfrwt beam="2">  1       -3 0.15113021E+00 0.96429452E+02</pdfrwt>
<totfact> 0.78103061E+02</totfact>
</mgrwt>
</event>
<event>
 8    1  0.3400573E-004  0.1757741E+03  0.7546771E-02  0.1177090E+00
         -2   -1    0    0    0  501 -0.00000000000E+00  0.00000000000E+00  0.84709637510E+03  0.84709637510E+03  0.00000000000E+00 0.  1.
          2   -1    0    0  501    0  0.00000000000E+00 -0.00000000000E+00 -0.10541096610E+03  0.10541096610E+03  0.00000000000E+00 0. -1.
         23    2    1    2    0    0  0.10123603300E+03  0.71362667695E+02  0.75985846446E+03  0.77579630863E+03  0.95570192822E+02 0.  0.
         23    2    1    2    0    0 -0.10123603300E+03 -0.71362667695E+02 -0.18173055452E+02  0.17671103257E+03  0.12472034465E+03 0.  0.
          5    1    3    3  502    0  0.49394319574E+02  0.36260983211E+02  0.14163554014E+03  0.15439356833E+03  0.47000000000E+01 0. -1.
         -5    1    4    4    0  503 -0.26543246954E+02 -0.54240087605E+02  0.46473809514E+02  0.76344194495E+02  0.47000000000E+01 0.  1.
          5    1    4    4  503    0 -0.74692786041E+02 -0.17122580090E+02 -0.64646864966E+02  0.10036683808E+03  0.47000000000E+01 0.  1.
         -5    1    3    3    0  502  0.51841713422E+02  0.35101684483E+02  0.61822292431E+03  0.62140274030E+03  0.47000000000E+01 0.  1.
<mgrwt>
<rscale>  0 0.17072870E+03</rscale>
<asrwt>0</asrwt>
<pdfrwt beam="1">  1        2 0.16217072E-01 0.17577409E+03</pdfrwt>
<pdfrwt beam="2">  1       -2 0.13032251E+00 0.17577409E+03</pdfrwt>
<totfact> 0.16186567E+02</totfact>
</mgrwt>
</event>
<event>
 8    1  0.3400573E-004  0.1132235E+03  0.7546771E-02  0.1262534E+00
          1   -1    0    0  501    0  0.00000000000E+00  0.00000000000E+00  0.27009521749E+03  0.27009521749E+03  0.00000000000E+00 0. -1.
         -1   -1    0    0    0  501 -0.00000000000E+00 -0.00000000000E+00 -0.45064091673E+02  0.45064091673E+02  0.00000000000E+00 0.  1.
         23    2    1    2    0    0  0.30852466148E+02 -0.48541594542E+01  0.72765408200E+02  0.13458960429E+03  0.10883069153E+03 0.  0.
         23    2    1    2    0    0 -0.30852466148E+02  0.48541594542E+01  0.15226571761E+03  0.18056970487E+03  0.91897399455E+02 0.  0.
          5    1    3    3  502    0  0.52837613099E+02  0.16183976683E+02  0.84970731503E+02  0.10146846639E+03  0.47000000000E+01 0. -1.
         -5    1    3    3    0  502 -0.21985146951E+02 -0.21038136137E+02 -0.12205323303E+02  0.33121137896E+02  0.47000000000E+01 0.  1.
          5    1    4    4  503    0  0.14939940265E+02 -0.15950086824E+02  0.24752872428E+01  0.22490534270E+02  0.47000000000E+01 0. -1.
         -5    1    4    4    0  503 -0.45792406413E+02  0.20804246278E+02  0.14979043037E+03  0.15807917060E+03  0.47000000000E+01 0.  1.
<mgrwt>
<rscale>  0 0.10894618E+03</rscale>
<asrwt>0</asrwt>
<pdfrwt beam="1">  1        1 0.41553110E-01 0.11322348E+03</pdfrwt>
<pdfrwt beam="2">  1       -1 0.69329373E-02 0.11322348E+03</pdfrwt>
<totfact> 0.99966719E+03</totfact>
</mgrwt>
</event>
<event>
 8    1  0.3400573E-004  0.1360381E+03  0.7546771E-02  0.1218956E+00
          2   -1    0    0  501    0  0.00000000000E+00  0.00000000000E+00  0.28095324120E+03  0.28095324120E+03  0.00000000000E+00 0. -1.
         -2   -1    0    0    0  501 -0.00000000000E+00 -0.00000000000E+00 -0.17253873311E+03  0.17253873311E+03  0.00000000000E+00 0.  1.
         23    2    1    2    0    0  0.60046092283E+02 -0.82180550629E+02 -0.12434409971E+03  0.18389423573E+03  0.89422920463E+02 0.  0.
         23    2    1    2    0    0 -0.60046092283E+02  0.82180550629E+02  0.23275860780E+03  0.26959773857E+03  0.90261813843E+02 0.  0.
          5    1    3    3  502    0  0.38834009033E+02 -0.79471269285E+02 -0.40787283728E+02  0.97516436631E+02  0.47000000000E+01 0. -1.
         -5    1    3    3    0  502  0.21212083250E+02 -0.27092813438E+01 -0.83556815980E+02  0.86377799104E+02  0.47000000000E+01 0.  1.
          5    1    4    4  503    0 -0.80146532945E+02  0.75185246623E+02  0.21492626237E+03  0.24143669213E+03  0.47000000000E+01 0. -1.
         -5    1    4    4    0  503  0.20100440662E+02  0.69953040061E+01  0.17832345435E+02  0.28161046441E+02  0.47000000000E+01 0.  1.
<mgrwt>
<rscale>  0 0.13589912E+03</rscale>
<asrwt>0</asrwt>
<pdfrwt beam="1">  1        2 0.43223576E-01 0.13603812E+03</pdfrwt>
<pdfrwt beam="2">  1       -2 0.26544421E-01 0.13603812E+03</pdfrwt>
<totfact> 0.14729103E+03</totfact>
</mgrwt>
</event>
<event>
 8    1  0.3400573E-004  0.1501387E+03  0.7546771E-02  0.1200554E+00
          1   -1    0    0  501    0  0.00000000000E+00  0.00000000000E+00  0.13478758923E+03  0.13478758923E+03  0.00000000000E+00 0. -1.
         -1   -1    0    0    0  501 -0.00000000000E+00 -0.00000000000E+00 -0.17604997158E+03  0.17604997158E+03  0.00000000000E+00 0.  1.
         23    2    1    2    0    0 -0.11769000941E+03 -0.26935314906E+01  0.15838494524E+02  0.15097185136E+03  0.93185023311E+02 0.  0.
         23    2    1    2    0    0  0.11769000941E+03  0.26935314906E+01 -0.57100876877E+02  0.15986570945E+03  0.91860445747E+02 0.  0.
          5    1    4    4  502    0  0.18282858461E+02  0.26571683654E+02  0.13765819859E+02  0.35382270732E+02  0.47000000000E+01 0. -1.
         -5    1    3    3    0  503 -0.31365031834E+02 -0.11308986514E+02  0.47739466813E+02  0.58419218494E+02  0.47000000000E+01 0.  1.
          5    1    3    3  503    0 -0.86324977572E+02  0.86154550236E+01 -0.31900972289E+02  0.92552632869E+02  0.47000000000E+01 0. -1.
         -5    1    4    4    0  502  0.99407150944E+02 -0.23878152164E+02 -0.70866696736E+02  0.12448343872E+03  0.47000000000E+01 0.  1.
<mgrwt>
<rscale>  0 0.14993370E+03</rscale>
<asrwt>0</asrwt>
<pdfrwt beam="1">  1        1 0.20736552E-01 0.15013874E+03</pdfrwt>
<pdfrwt beam="2">  1       -1 0.27084611E-01 0.15013874E+03</pdfrwt>
<totfact> 0.28790141E+03</totfact>
</mgrwt>
</event>
<event>
 8    1  0.3400573E-004  0.1113131E+03  0.7546771E-02  0.1258939E+00
         -4   -1    0    0    0  501 -0.00000000000E+00  0.00000000000E+00  0.20041883363E+03  0.20041883363E+03  0.00000000000E+00 0.  1.
          4   -1    0    0  501    0  0.00000000000E+00 -0.00000000000E+00 -0.60891036380E+02  0.60891036380E+02  0.00000000000E+00 0. -1.
         23    2    1    2    0    0 -0.60260050062E+02  0.14590338278E+02  0.71885984383E+02  0.13250739736E+03  0.92447087563E+02 0.  0.
         23    2    1    2    0    0  0.60260050062E+02 -0.14590338278E+02  0.67641812864E+02  0.12880247265E+03  0.90390876248E+02 0.  0.
          5    1    3    3  502    0 -0.36757855583E+02  0.51134819424E+02  0.60251082399E+02  0.87282258420E+02  0.47000000000E+01 0. -1.
         -5    1    3    3    0  502 -0.23502194479E+02 -0.36544481147E+02  0.11634901984E+02  0.45225138936E+02  0.47000000000E+01 0.  1.
          5    1    4    4  503    0 -0.55835042810E+01 -0.35236222750E+02  0.41336057249E+02  0.54804439078E+02  0.47000000000E+01 0. -1.
         -5    1    4    4    0  503  0.65843554343E+02  0.20645884472E+02  0.26305755615E+02  0.73998033572E+02  0.47000000000E+01 0.  1.
<mgrwt>
<rscale>  0 0.11088525E+03</rscale>
<asrwt>0</asrwt>
<pdfrwt beam="1">  1        4 0.93678518E-02 0.11131314E+03</pdfrwt>
<pdfrwt beam="2">  1       -4 0.30833666E-01 0.11131314E+03</pdfrwt>
<totfact> 0.13473660E+03</totfact>
</mgrwt>
</event>
<event>
 8    1  0.3400573E-004  0.1002964E+03  0.7546771E-02  0.1280837E+00
          2   -1    0    0  501    0  0.00000000000E+00  0.00000000000E+00  0.89049303780E+02  0.89049303780E+02  0.00000000000E+00 0. -1.
         -2   -1    0    0    0  501 -0.00000000000E+00 -0.00000000000E+00 -0.17019714035E+03  0.17019714035E+03  0.00000000000E+00 0.  1.
         23    2    1    2    0    0 -0.37557589507E+00  0.42028726893E+02  0.35896914310E+02  0.10652674124E+03  0.91064829659E+02 0.  0.
         23    2    1    2    0    0  0.37557589507E+00 -0.42028726893E+02 -0.11704475088E+03  0.15271970289E+03  0.88641293994E+02 0.  0.
          5    1    4    4  502    0 -0.20960838450E+02 -0.22288109266E+02  0.10865228163E+01  0.30973974478E+02  0.47000000000E+01 0. -1.
         -5    1    3    3    0  503  0.19378928461E+02 -0.23547416833E+02  0.17426580642E+02  0.35437260344E+02  0.47000000000E+01 0.  1.
          5    1    3    3  503    0 -0.19754504356E+02  0.65576143726E+02  0.18470333668E+02  0.71089480896E+02  0.47000000000E+01 0. -1.
         -5    1    4    4    0  502  0.21336414345E+02 -0.19740617627E+02 -0.11813127370E+03  0.12174572841E+03  0.47000000000E+01 0.  1.
<mgrwt>
<rscale>  0 0.99742986E+02</rscale>
<asrwt>0</asrwt>
<pdfrwt beam="1">  1        2 0.13699893E-01 0.10029635E+03</pdfrwt>
<pdfrwt beam="2">  1       -2 0.26184175E-01 0.10029635E+03</pdfrwt>
<totfact> 0.52905115E+03</totfact>
</mgrwt>
</event>
<event>
 8    1  0.3400573E-004  0.9745358E+02  0.7546771E-02  0.1285827E+00
         -2   -1    0    0    0  501 -0.00000000000E+00  0.00000000000E+00  0.14871686176E+02  0.14871686176E+02  0.00000000000E+00 0.  1.
          2   -1    0    0  501    0  0.00000000000E+00 -0.00000000000E+00 -0.64925097213E+03  0.64925097213E+03  0.00000000000E+00 0. -1.
         23    2    1    2    0    0  0.85425531025E+00 -0.32764448925E+02 -0.27295936233E+03  0.28983445820E+03  0.91776689888E+02 0.  0.
         23    2    1    2    0    0 -0.85425531025E+00  0.32764448925E+02 -0.36141992363E+03  0.37428820012E+03  0.91613627187E+02 0.  0.
          5    1    3    3  502    0 -0.17814435708E+02  0.25159252237E+02 -0.14149981712E+03  0.14489523918E+03  0.47000000000E+01 0. -1.
         -5    1    3    3    0  502  0.18668691018E+02 -0.57923701161E+02 -0.13145954521E+03  0.14493921901E+03  0.47000000000E+01 0.  1.
          5    1    4    4  503    0 -0.42296300812E+02 -0.48448322631E+00 -0.12952008584E+03  0.13633324768E+03  0.47000000000E+01 0. -1.
         -5    1    4    4    0  503  0.41442045501E+02  0.33248932151E+02 -0.23189983779E+03  0.23795495244E+03  0.47000000000E+01 0.  1.
<mgrwt>
<rscale>  0 0.97415167E+02</rscale>
<asrwt>0</asrwt>
<pdfrwt beam="1">  1        2 0.99884793E-01 0.97453577E+02</pdfrwt>
<pdfrwt beam="2">  1       -2 0.22879511E-02 0.97453577E+02</pdfrwt>
<totfact> 0.26524206E+04</totfact>
</mgrwt>
</event>
<event>
 8    1  0.3400573E-004  0.9600075E+02  0.7546771E-02  0.1288961E+00
          1   -1    0    0  501    0  0.00000000000E+00  0.00000000000E+00  0.74657246700E+02  0.74657246700E+02  0.00000000000E+00 0. -1.
         -1   -1    0    0    0  501 -0.00000000000E+00 -0.00000000000E+00 -0.14606670912E+03  0.14606670912E+03  0.00000000000E+00 0.  1.
         23    2    1    2    0    0  0.23115071009E+02 -0.20178845422E+02 -0.79194075559E+02  0.12445017164E+03  0.90965110383E+02 0.  0.
         23    2    1    2    0    0 -0.23115071009E+02  0.20178845422E+02  0.77846131361E+01  0.96273784184E+02  0.90920564280E+02 0.  0.
          5    1    4    4  502    0 -0.57287693541E+02  0.13646743629E+02  0.13765882745E+02  0.60660555312E+02  0.47000000000E+01 0. -1.
         -5    1    3    3    0  503  0.25424181965E+02 -0.54840733772E+02 -0.45251600346E+02  0.75655088680E+02  0.47000000000E+01 0.  1.
          5    1    3    3  503    0 -0.23091109560E+01  0.34661888350E+02 -0.33942475213E+02  0.48795082959E+02  0.47000000000E+01 0. -1.
         -5    1    4    4    0  502  0.34172622532E+02  0.65321017929E+01 -0.59812696091E+01  0.35613228872E+02  0.47000000000E+01 0.  1.
<mgrwt>
<rscale>  0 0.95990194E+02</rscale>
<asrwt>0</asrwt>
<pdfrwt beam="1">  1        1 0.11485730E-01 0.96000748E+02</pdfrwt>
<pdfrwt beam="2">  1       -1 0.22471801E-01 0.96000748E+02</pdfrwt>
<totfact> 0.81138602E+03</totfact>
</mgrwt>
</event>
<event>
 8    1  0.3400573E-004  0.1261718E+03  0.7546771E-02  0.1234649E+00
         -1   -1    0    0    0  501 -0.00000000000E+00  0.00000000000E+00  0.51668884257E+02  0.51668884257E+02  0.00000000000E+00 0.  1.
          1   -1    0    0  501    0  0.00000000000E+00 -0.00000000000E+00 -0.60344702493E+03  0.60344702493E+03  0.00000000000E+00 0. -1.
         23    2    1    2    0    0 -0.55875507816E+02 -0.65617787830E+02 -0.45374364642E+02  0.13408261156E+03  0.92149591988E+02 0.  0.
         23    2    1    2    0    0  0.55875507816E+02  0.65617787830E+02 -0.50640377603E+03  0.52103329763E+03  0.87196022845E+02 0.  0.
          5    1    3    3  502    0 -0.21156260092E+02  0.21541853931E+02 -0.20861742917E+02  0.36999204443E+02  0.47000000000E+01 0. -1.
         -5    1    3    3    0  502 -0.34719247724E+02 -0.87159641760E+02 -0.24512621725E+02  0.97083407121E+02  0.47000000000E+01 0.  1.
          5    1    4    4  503    0  0.25268607336E+02 -0.94221648465E+01 -0.26362092304E+03  0.26503841376E+03  0.47000000000E+01 0. -1.
         -5    1    4    4    0  503  0.30606900480E+02  0.75039952676E+02 -0.24278285300E+03  0.25599488386E+03  0.47000000000E+01 0.  1.
<mgrwt>
<rscale>  0 0.12526934E+03</rscale>
<asrwt>0</asrwt>
<pdfrwt beam="1">  1        1 0.92837997E-01 0.12617176E+03</pdfrwt>
<pdfrwt beam="2">  1       -1 0.79490597E-02 0.12617176E+03</pdfrwt>
<totfact> 0.29550243E+03</totfact>
</mgrwt>
</event>
<event>
 8    1  0.3400573E-004  0.1057544E+03  0.7546771E-02  0.1274633E+00
         -1   -1    0    0    0  501 -0.00000000000E+00  0.00000000000E+00  0.31349935459E+02  0.31349935459E+02  0.00000000000E+00 0.  1.
          1   -1    0    0  501    0  0.00000000000E+00 -0.00000000000E+00 -0.41219390389E+03  0.41219390389E+03  0.00000000000E+00 0. -1.
         23    2    1    2    0    0  0.21028155565E+02  0.16846569213E+02 -0.76529690714E+02  0.12137747048E+03  0.90275725188E+02 0.  0.
         23    2    1    2    0    0 -0.21028155565E+02 -0.16846569213E+02 -0.30431427772E+03  0.32216636887E+03  0.10226436030E+03 0.  0.
          5    1    3    3  502    0 -0.29969817579E+02 -0.14445151906E+02 -0.34134351120E+02  0.47896725417E+02  0.47000000000E+01 0. -1.
         -5    1    4    4    0  503  0.12210799726E+02 -0.33742118536E+02 -0.26616838702E+03  0.26861744999E+03  0.47000000000E+01 0.  1.
          5    1    4    4  503    0 -0.33238955291E+02  0.16895549323E+02 -0.38145890699E+02  0.53548918877E+02  0.47000000000E+01 0. -1.
         -5    1    3    3    0  502  0.50997973144E+02  0.31291721119E+02 -0.42395339594E+02  0.73480745061E+02  0.47000000000E+01 0.  1.
<mgrwt>
<rscale>  0 0.10274225E+03</rscale>
<asrwt>0</asrwt>
<pdfrwt beam="1">  1        1 0.63414444E-01 0.10575438E+03</pdfrwt>
<pdfrwt beam="2">  1       -1 0.48230672E-02 0.10575438E+03</pdfrwt>
<totfact> 0.10082041E+04</totfact>
</mgrwt>
</event>
<event>
 8    1  0.3400573E-004  0.1652360E+03  0.7546771E-02  0.1183054E+00
         -1   -1    0    0    0  501 -0.00000000000E+00  0.00000000000E+00  0.90302520994E+03  0.90302520994E+03  0.00000000000E+00 0.  1.
          1   -1    0    0  501    0  0.00000000000E+00 -0.00000000000E+00 -0.40829767497E+02  0.40829767497E+02  0.00000000000E+00 0. -1.
         23    2    1    2    0    0 -0.10892953149E+03 -0.83638534373E+02  0.18907416521E+03  0.25074951370E+03  0.90913318087E+02 0.  0.
         23    2    1    2    0    0  0.10892953149E+03  0.83638534373E+02  0.67312127723E+03  0.69310546374E+03  0.91879718892E+02 0.  0.
          5    1    4    4  502    0  0.34823961267E+02  0.58506267739E+02  0.15880362724E+03  0.17284783385E+03  0.47000000000E+01 0. -1.
         -5    1    3    3    0  503 -0.31083080034E+02  0.94520699375E+01  0.98802523022E+01  0.34281319637E+02  0.47000000000E+01 0.  1.
          5    1    3    3  503    0 -0.77846451457E+02 -0.93090604311E+02  0.17919391291E+03  0.21646819406E+03  0.47000000000E+01 0. -1.
         -5    1    4    4    0  502  0.74105570225E+02  0.25132266634E+02  0.51431765000E+03  0.52025762989E+03  0.47000000000E+01 0.  1.
<mgrwt>
<rscale>  0 0.16510197E+03</rscale>
<asrwt>0</asrwt>
<pdfrwt beam="1">  1        1 0.62815034E-02 0.16523598E+03</pdfrwt>
<pdfrwt beam="2">  1       -1 0.13892694E+00 0.16523598E+03</pdfrwt>
<totfact> 0.55694065E+02</totfact>
</mgrwt>
</event>
<event>
 8    1  0.3400573E-004  0.9423655E+02  0.7546771E-02  0.1294443E+00
          2   -1    0    0  501    0  0.00000000000E+00  0.00000000000E+00  0.11679084617E+03  0.11679084617E+03  0.00000000000E+00 0. -1.
         -2   -1    0    0    0  501 -0.00000000000E+00 -0.00000000000E+00 -0.86372309350E+02  0.86372309350E+02  0.00000000000E+00 0.  1.
         23    2    1    2    0    0 -0.36820804662E+01  0.24465868920E+01 -0.23564788406E+02  0.94559626808E+02  0.91469559229E+02 0.  0.
         23    2    1    2    0    0  0.36820804662E+01 -0.24465868920E+01  0.53983325224E+02  0.10860352871E+03  0.94132797376E+02 0.  0.
          5    1    4    4  502    0 -0.40090349688E+02  0.12814025103E+02  0.43767900496E+02  0.60902828269E+02  0.47000000000E+01 0. -1.
         -5    1    3    3    0  503  0.15385483596E+02 -0.34443514003E+02  0.11808849314E+02  0.39807131076E+02  0.47000000000E+01 0.  1.
          5    1    3    3  503    0 -0.19067564063E+02  0.36890100895E+02 -0.35373637720E+02  0.54752495732E+02  0.47000000000E+01 0. -1.
         -5    1    4    4    0  502  0.43772430154E+02 -0.15260611995E+02  0.10215424728E+02  0.47700700439E+02  0.47000000000E+01 0.  1.
<mgrwt>
<rscale>  0 0.93564335E+02</rscale>
<asrwt>0</asrwt>
<pdfrwt beam="1">  1        2 0.17967822E-01 0.94236548E+02</pdfrwt>
<pdfrwt beam="2">  1       -2 0.13288048E-01 0.94236548E+02</pdfrwt>
<totfact> 0.11920816E+04</totfact>
</mgrwt>
</event>
<event>
 8    1  0.3400573E-004  0.4993530E+03  0.7546771E-02  0.1013989E+00
          1   -1    0    0  501    0  0.00000000000E+00  0.00000000000E+00  0.59059208798E+03  0.59059208798E+03  0.00000000000E+00 0. -1.
         -1   -1    0    0    0  501 -0.00000000000E+00 -0.00000000000E+00 -0.46261795544E+03  0.46261795544E+03  0.00000000000E+00 0.  1.
         23    2    1    2    0    0  0.43225361067E+03  0.23231077084E+03 -0.92621500539E+02  0.50787022750E+03  0.92422656481E+02 0.  0.
         23    2    1    2    0    0 -0.43225361067E+03 -0.23231077084E+03  0.22059563308E+03  0.54533981593E+03  0.89003389366E+02 0.  0.
          5    1    3    3  502    0  0.12779074238E+03  0.23204051505E+02 -0.24820782792E+02  0.13231425887E+03  0.47000000000E+01 0. -1.
         -5    1    4    4    0  503 -0.69556992607E+02 -0.73873675303E+02  0.29292814509E+02  0.10571496632E+03  0.47000000000E+01 0.  1.
          5    1    4    4  503    0 -0.36269661806E+03 -0.15843709554E+03  0.19130281857E+03  0.43962484960E+03  0.47000000000E+01 0. -1.
         -5    1    3    3    0  502  0.30446286829E+03  0.20910671934E+03 -0.67800717747E+02  0.37555596862E+03  0.47000000000E+01 0.  1.
<mgrwt>
<rscale>  0 0.49919755E+03</rscale>
<asrwt>0</asrwt>
<pdfrwt beam="1">  1        1 0.90860322E-01 0.49935301E+03</pdfrwt>
<pdfrwt beam="2">  1       -1 0.71171993E-01 0.49935301E+03</pdfrwt>
<totfact> 0.72965184E+01</totfact>
</mgrwt>
</event>
<event>
 8    1  0.3400573E-004  0.2449592E+03  0.7546771E-02  0.1116572E+00
          1   -1    0    0  501    0  0.00000000000E+00  0.00000000000E+00  0.39901764988E+03  0.39901764988E+03  0.00000000000E+00 0. -1.
         -1   -1    0    0    0  501 -0.00000000000E+00 -0.00000000000E+00 -0.15031502237E+03  0.15031502237E+03  0.00000000000E+00 0.  1.
         23    2    1    2    0    0 -0.15866509274E+03 -0.16263511133E+03  0.11795174988E+03  0.27187792803E+03  0.91543439727E+02 0.  0.
         23    2    1    2    0    0  0.15866509274E+03  0.16263511133E+03  0.13075087764E+03  0.27745474422E+03  0.90887578896E+02 0.  0.
          5    1    4    4  502    0  0.25255556155E+02  0.42068120303E+02 -0.84425409764E+01  0.50009362730E+02  0.47000000000E+01 0. -1.
         -5    1    4    4    0  502  0.13340953659E+03  0.12056699102E+03  0.13919341861E+03  0.22744538149E+03  0.47000000000E+01 0.  1.
          5    1    3    3  503    0 -0.15612621612E+03 -0.11800927764E+03  0.11452488882E+03  0.22680305361E+03  0.47000000000E+01 0. -1.
         -5    1    3    3    0  503 -0.25388766280E+01 -0.44625833691E+02  0.34268610578E+01  0.45074874419E+02  0.47000000000E+01 0.  1.
<mgrwt>
<rscale>  0 0.24489806E+03</rscale>
<asrwt>0</asrwt>
<pdfrwt beam="1">  1        1 0.61387331E-01 0.24495916E+03</pdfrwt>
<pdfrwt beam="2">  1       -1 0.23125388E-01 0.24495916E+03</pdfrwt>
<totfact> 0.96538758E+02</totfact>
</mgrwt>
</event>
<event>
 8    1  0.3400573E-004  0.1081954E+03  0.7546771E-02  0.1270982E+00
          3   -1    0    0  501    0  0.00000000000E+00  0.00000000000E+00  0.39447647212E+03  0.39447647212E+03  0.00000000000E+00 0. -1.
         -3   -1    0    0    0  501 -0.00000000000E+00 -0.00000000000E+00 -0.26587667883E+02  0.26587667883E+02  0.00000000000E+00 0.  1.
         23    2    1    2    0    0  0.57724375032E+01  0.23977628259E+02  0.14065567625E+03  0.16938748471E+03  0.91103529145E+02 0.  0.
         23    2    1    2    0    0 -0.57724375032E+01 -0.23977628259E+02  0.22723312799E+03  0.25167665530E+03  0.10534702974E+03 0.  0.
          5    1    3    3  502    0  0.40705168776E+02  0.11082481516E+02  0.11833894271E+03  0.12572162711E+03  0.47000000000E+01 0. -1.
         -5    1    4    4    0  503 -0.32983544110E+02 -0.33609338848E+02  0.39395495467E+02  0.61575944190E+02  0.47000000000E+01 0.  1.
          5    1    4    4  503    0  0.27211106607E+02  0.96317105888E+01  0.18783763252E+03  0.19010071111E+03  0.47000000000E+01 0. -1.
         -5    1    3    3    0  502 -0.34932731272E+02  0.12895146743E+02  0.22316733535E+02  0.43665857593E+02  0.47000000000E+01 0.  1.
<mgrwt>
<rscale>  0 0.10456341E+03</rscale>
<asrwt>0</asrwt>
<pdfrwt beam="1">  1        3 0.60688684E-01 0.10819540E+03</pdfrwt>
<pdfrwt beam="2">  1       -3 0.40904107E-02 0.10819540E+03</pdfrwt>
<totfact> 0.18577259E+03</totfact>
</mgrwt>
</event>
<event>
 8    1  0.3400573E-004  0.1408370E+03  0.7546771E-02  0.1215445E+00
         -2   -1    0    0    0  501 -0.00000000000E+00  0.00000000000E+00  0.42741383098E+03  0.42741383098E+03  0.00000000000E+00 0.  1.
          2   -1    0    0  501    0  0.00000000000E+00 -0.00000000000E+00 -0.80213091086E+02  0.80213091086E+02  0.00000000000E+00 0. -1.
         23    2    1    2    0    0  0.10331148293E+03  0.44238978523E+01  0.48793487273E+01  0.14092151005E+03  0.95615012291E+02 0.  0.
         23    2    1    2    0    0 -0.10331148293E+03 -0.44238978523E+01  0.34232139117E+03  0.36670541202E+03  0.81216322078E+02 0.  0.
          5    1    3    3  502    0  0.39101123091E+02 -0.33991792954E+02 -0.27973329713E+02  0.59067224333E+02  0.47000000000E+01 0. -1.
         -5    1    3    3    0  502  0.64210359836E+02  0.38415690806E+02  0.32852678440E+02  0.81854285722E+02  0.47000000000E+01 0.  1.
          5    1    4    4  503    0  0.11838639762E+01 -0.24416072743E+02  0.70637844169E+02  0.74895535054E+02  0.47000000000E+01 0. -1.
         -5    1    4    4    0  503 -0.10449534690E+03  0.19992174891E+02  0.27168354700E+03  0.29180987696E+03  0.47000000000E+01 0.  1.
<mgrwt>
<rscale>  0 0.13843905E+03</rscale>
<asrwt>0</asrwt>
<pdfrwt beam="1">  1        2 0.12340476E-01 0.14083701E+03</pdfrwt>
<pdfrwt beam="2">  1       -2 0.65755973E-01 0.14083701E+03</pdfrwt>
<totfact> 0.10538473E+03</totfact>
</mgrwt>
</event>
<event>
 8    1  0.3400573E-004  0.1000597E+03  0.7546771E-02  0.1281971E+00
          1   -1    0    0  501    0  0.00000000000E+00  0.00000000000E+00  0.64869607931E+02  0.64869607931E+02  0.00000000000E+00 0. -1.
         -1   -1    0    0    0  501 -0.00000000000E+00 -0.00000000000E+00 -0.22052617602E+03  0.22052617602E+03  0.00000000000E+00 0.  1.
         23    2    1    2    0    0  0.37212595157E+02  0.36524938315E+01 -0.15987911976E+03  0.18860877980E+03  0.92810672529E+02 0.  0.
         23    2    1    2    0    0 -0.37212595157E+02 -0.36524938315E+01  0.42225516660E+01  0.96787004150E+02  0.89172732829E+02 0.  0.
          5    1    3    3  502    0  0.19505556296E+01 -0.28587044882E+02 -0.91890703693E+01  0.30455751782E+02  0.47000000000E+01 0. -1.
         -5    1    4    4    0  503  0.25175065766E+02 -0.18933671616E+02 -0.29495751144E+01  0.31985275527E+02  0.47000000000E+01 0.  1.
          5    1    4    4  503    0 -0.62387660923E+02  0.15281177785E+02  0.71721267805E+01  0.64801728623E+02  0.47000000000E+01 0. -1.
         -5    1    3    3    0  502  0.35262039528E+02  0.32239538713E+02 -0.15069004939E+03  0.15815302802E+03  0.47000000000E+01 0.  1.
<mgrwt>
<rscale>  0 0.99207649E+02</rscale>
<asrwt>0</asrwt>
<pdfrwt beam="1">  1        1 0.99799397E-02 0.10005968E+03</pdfrwt>
<pdfrwt beam="2">  1       -1 0.33927104E-01 0.10005968E+03</pdfrwt>
<totfact> 0.49594200E+03</totfact>
</mgrwt>
</event>
<event>
 8    1  0.3400573E-004  0.9571003E+02  0.7546771E-02  0.1289741E+00
         -1   -1    0    0    0  501 -0.00000000000E+00  0.00000000000E+00  0.23222678744E+03  0.23222678744E+03  0.00000000000E+00 0.  1.
          1   -1    0    0  501    0  0.00000000000E+00 -0.00000000000E+00 -0.45645448493E+02  0.45645448493E+02  0.00000000000E+00 0. -1.
         23    2    1    2    0    0 -0.19504944760E+02  0.19550023111E+02  0.14508527863E+03  0.17381066520E+03  0.91639309203E+02 0.  0.
         23    2    1    2    0    0  0.19504944760E+02 -0.19550023111E+02  0.41496060320E+02  0.10406157073E+03  0.91346818261E+02 0.  0.
          5    1    3    3  502    0 -0.22063890853E+02 -0.19373178831E+02  0.74187827437E+01  0.30647408945E+02  0.47000000000E+01 0. -1.
         -5    1    4    4    0  503  0.22671180252E+02  0.30588403495E+02 -0.57244246578E+00  0.38367310732E+02  0.47000000000E+01 0.  1.
          5    1    4    4  503    0 -0.31662354912E+01 -0.50138426606E+02  0.42068502786E+02  0.65694259996E+02  0.47000000000E+01 0. -1.
         -5    1    3    3    0  502  0.25589460931E+01  0.38923201942E+02  0.13766649588E+03  0.14316325626E+03  0.47000000000E+01 0.  1.
<mgrwt>
<rscale>  0 0.95639947E+02</rscale>
<asrwt>0</asrwt>
<pdfrwt beam="1">  1        1 0.70223768E-02 0.95710027E+02</pdfrwt>
<pdfrwt beam="2">  1       -1 0.35727197E-01 0.95710027E+02</pdfrwt>
<totfact> 0.72101191E+03</totfact>
</mgrwt>
</event>
<event>
 8    1  0.3400573E-004  0.9835296E+02  0.7546771E-02  0.1284700E+00
          1   -1    0    0  501    0  0.00000000000E+00  0.00000000000E+00  0.16701957684E+03  0.16701957684E+03  0.00000000000E+00 0. -1.
         -1   -1    0    0    0  501 -0.00000000000E+00 -0.00000000000E+00 -0.57907946123E+02  0.57907946123E+02  0.00000000000E+00 0.  1.
         23    2    1    2    0    0  0.23353517042E+02  0.22892928394E+02  0.68619043536E+02  0.11856514792E+03  0.90992572428E+02 0.  0.
         23    2    1    2    0    0 -0.23353517042E+02 -0.22892928394E+02  0.40492587178E+02  0.10636237504E+03  0.92756844915E+02 0.  0.
          5    1    4    4  502    0  0.18703652277E+02 -0.34838927133E+02  0.47338923171E+02  0.61859850463E+02  0.47000000000E+01 0. -1.
         -5    1    3    3    0  503  0.54727030963E+02  0.31915578338E+02  0.48573753779E+02  0.79969691852E+02  0.47000000000E+01 0. -1.
          5    1    3    3  503    0 -0.31373513921E+02 -0.90226499437E+01  0.20045289757E+02  0.38595456070E+02  0.47000000000E+01 0.  1.
         -5    1    4    4    0  502 -0.42057169319E+02  0.11945998740E+02 -0.68463359933E+01  0.44502524575E+02  0.47000000000E+01 0.  1.
<mgrwt>
<rscale>  0 0.97934776E+02</rscale>
<asrwt>0</asrwt>
<pdfrwt beam="1">  1        1 0.25695319E-01 0.98352962E+02</pdfrwt>
<pdfrwt beam="2">  1       -1 0.89089149E-02 0.98352962E+02</pdfrwt>
<totfact> 0.12261918E+04</totfact>
</mgrwt>
</event>
<event>
 8    1  0.3400573E-004  0.3334597E+03  0.7546771E-02  0.1069749E+00
          1   -1    0    0  501    0  0.00000000000E+00  0.00000000000E+00  0.45600286562E+03  0.45600286562E+03  0.00000000000E+00 0. -1.
         -1   -1    0    0    0  501 -0.00000000000E+00 -0.00000000000E+00 -0.42937749230E+03  0.42937749230E+03  0.00000000000E+00 0.  1.
         23    2    1    2    0    0  0.28562262906E+03  0.14582870435E+03  0.30498690133E+03  0.45100664373E+03  0.86854392307E+02 0.  0.
         23    2    1    2    0    0 -0.28562262906E+03 -0.14582870435E+03 -0.27836152801E+03  0.43437371419E+03  0.91373333393E+02 0.  0.
          5    1    3    3  502    0  0.21140150262E+03  0.63286124381E+02  0.19198219699E+03  0.29253202014E+03  0.47000000000E+01 0. -1.
         -5    1    4    4    0  503 -0.25347161331E+03 -0.10196143477E+03 -0.25888191075E+03  0.37641191087E+03  0.47000000000E+01 0.  1.
          5    1    4    4  503    0 -0.32151015758E+02 -0.43867269585E+02 -0.19479617256E+02  0.57961803315E+02  0.47000000000E+01 0. -1.
         -5    1    3    3    0  502  0.74221126448E+02  0.82542579974E+02  0.11300470433E+03  0.15847462359E+03  0.47000000000E+01 0.  1.
<mgrwt>
<rscale>  0 0.33315685E+03</rscale>
<asrwt>0</asrwt>
<pdfrwt beam="1">  1        1 0.70154287E-01 0.33345972E+03</pdfrwt>
<pdfrwt beam="2">  1       -1 0.66058076E-01 0.33345972E+03</pdfrwt>
<totfact> 0.12315465E+02</totfact>
</mgrwt>
</event>
<event>
 8    1  0.3400573E-004  0.9587385E+02  0.7546771E-02  0.1291619E+00
          2   -1    0    0  501    0  0.00000000000E+00  0.00000000000E+00  0.29063927388E+03  0.29063927388E+03  0.00000000000E+00 0. -1.
         -2   -1    0    0    0  501 -0.00000000000E+00 -0.00000000000E+00 -0.35458140211E+02  0.35458140211E+02  0.00000000000E+00 0.  1.
         23    2    1    2    0    0 -0.49091174310E+01 -0.20059438922E+02  0.19249373323E+03  0.21504797670E+03  0.93623257920E+02 0.  0.
         23    2    1    2    0    0  0.49091174310E+01  0.20059438922E+02  0.62687400434E+02  0.11104943739E+03  0.89307260892E+02 0.  0.
          5    1    3    3  502    0 -0.32440841269E+01  0.33656624746E+02  0.11951327983E+03  0.12429322800E+03  0.47000000000E+01 0. -1.
         -5    1    3    3    0  502 -0.16650333041E+01 -0.53716063668E+02  0.72980453404E+02  0.90754748697E+02  0.47000000000E+01 0.  1.
          5    1    4    4  503    0  0.19475425802E+01  0.55310449389E+02  0.43369720580E+02  0.70470287333E+02  0.47000000000E+01 0. -1.
         -5    1    4    4    0  503  0.29615748508E+01 -0.35251010467E+02  0.19317679855E+02  0.40579150059E+02  0.47000000000E+01 0.  1.
<mgrwt>
<rscale>  0 0.94803569E+02</rscale>
<asrwt>0</asrwt>
<pdfrwt beam="1">  1        2 0.44713733E-01 0.95873849E+02</pdfrwt>
<pdfrwt beam="2">  1       -2 0.54550987E-02 0.95873849E+02</pdfrwt>
<totfact> 0.17559765E+04</totfact>
</mgrwt>
</event>
<event>
 8    1  0.3400573E-004  0.1031661E+03  0.7546771E-02  0.1277816E+00
         -1   -1    0    0    0  501 -0.00000000000E+00  0.00000000000E+00  0.38413986635E+03  0.38413986635E+03  0.00000000000E+00 0.  1.
          1   -1    0    0  501    0  0.00000000000E+00 -0.00000000000E+00 -0.51681546132E+02  0.51681546132E+02  0.00000000000E+00 0. -1.
         23    2    1    2    0    0 -0.30880950181E+02 -0.26204789502E+02  0.32392838898E+03  0.33996007548E+03  0.94883758679E+02 0.  0.
         23    2    1    2    0    0  0.30880950181E+02  0.26204789502E+02  0.85299312437E+01  0.95861337001E+02  0.86465670226E+02 0.  0.
          5    1    4    4  502    0  0.30357377671E+02  0.49409581749E+02 -0.17417463796E+02  0.60731665486E+02  0.47000000000E+01 0. -1.
         -5    1    4    4    0  502  0.52357250946E+00 -0.23204792246E+02  0.25947395040E+02  0.35129671514E+02  0.47000000000E+01 0.  1.
          5    1    3    3  503    0  0.11290902929E+02 -0.26052018203E+02  0.25261647038E+02  0.38294032857E+02  0.47000000000E+01 0. -1.
         -5    1    3    3    0  503 -0.42171853110E+02 -0.15277129971E+00  0.29866674194E+03  0.30166604263E+03  0.47000000000E+01 0.  1.
<mgrwt>
<rscale>  0 0.10118874E+03</rscale>
<asrwt>0</asrwt>
<pdfrwt beam="1">  1        1 0.79510074E-02 0.10316614E+03</pdfrwt>
<pdfrwt beam="2">  1       -1 0.59098439E-01 0.10316614E+03</pdfrwt>
<totfact> 0.25015876E+03</totfact>
</mgrwt>
</event>
<event>
 8    1  0.3400573E-004  0.9953202E+02  0.7546771E-02  0.1282512E+00
          3   -1    0    0  501    0  0.00000000000E+00  0.00000000000E+00  0.10166372992E+02  0.10166372992E+02  0.00000000000E+00 0. -1.
         -3   -1    0    0    0  501 -0.00000000000E+00 -0.00000000000E+00 -0.95297647806E+03  0.95297647806E+03  0.00000000000E+00 0.  1.
         23    2    1    2    0    0  0.15840865951E+02  0.25585802319E+02 -0.48035988677E+03  0.49010286531E+03  0.92464217139E+02 0.  0.
         23    2    1    2    0    0 -0.15840865951E+02 -0.25585802319E+02 -0.46245021829E+03  0.47303998574E+03  0.94873902603E+02 0.  0.
          5    1    3    3  502    0  0.14086962827E+02 -0.29103299600E+02 -0.87095953819E+02  0.93022791513E+02  0.47000000000E+01 0. -1.
         -5    1    3    3    0  502  0.17539031247E+01  0.54689101918E+02 -0.39326393295E+03  0.39708007380E+03  0.47000000000E+01 0.  1.
          5    1    4    4  503    0  0.42482501568E+01 -0.55469982267E+02 -0.18551612245E+03  0.19373509814E+03  0.47000000000E+01 0. -1.
         -5    1    4    4    0  503 -0.20089116108E+02  0.29884179948E+02 -0.27693409585E+03  0.27930488760E+03  0.47000000000E+01 0.  1.
<mgrwt>
<rscale>  0 0.98953453E+02</rscale>
<asrwt>0</asrwt>
<pdfrwt beam="1">  1        3 0.15640571E-02 0.99532024E+02</pdfrwt>
<pdfrwt beam="2">  1       -3 0.14661179E+00 0.99532024E+02</pdfrwt>
<totfact> 0.11044286E+03</totfact>
</mgrwt>
</event>
<event>
 8    1  0.3400573E-004  0.9192605E+02  0.7546771E-02  0.1298454E+00
          2   -1    0    0  501    0  0.00000000000E+00  0.00000000000E+00  0.11743684547E+03  0.11743684547E+03  0.00000000000E+00 0. -1.
         -2   -1    0    0    0  501 -0.00000000000E+00 -0.00000000000E+00 -0.88658331784E+02  0.88658331784E+02  0.00000000000E+00 0.  1.
         23    2    1    2    0    0 -0.16121138855E+02  0.47719716955E+01 -0.30669644284E+02  0.96907303690E+02  0.90375525426E+02 0.  0.
         23    2    1    2    0    0  0.16121138855E+02 -0.47719716955E+01  0.59448157974E+02  0.10918787357E+03  0.90029136483E+02 0.  0.
          5    1    4    4  502    0  0.28350900225E+02  0.36874708491E+02  0.21998458170E+02  0.51667589761E+02  0.47000000000E+01 0. -1.
         -5    1    3    3    0  503  0.13740879042E+02  0.32335811977E+02 -0.41510218094E+02  0.54585755461E+02  0.47000000000E+01 0.  1.
          5    1    3    3  503    0 -0.29862017897E+02 -0.27563840281E+02  0.10840573810E+02  0.42321548228E+02  0.47000000000E+01 0. -1.
         -5    1    4    4    0  502 -0.12229761370E+02 -0.41646680187E+02  0.37449699804E+02  0.57520283806E+02  0.47000000000E+01 0.  1.
<mgrwt>
<rscale>  0 0.91840799E+02</rscale>
<asrwt>0</asrwt>
<pdfrwt beam="1">  1        2 0.18067207E-01 0.91926049E+02</pdfrwt>
<pdfrwt beam="2">  1       -2 0.13639743E-01 0.91926049E+02</pdfrwt>
<totfact> 0.11334964E+04</totfact>
</mgrwt>
</event>
<event>
 8    1  0.3400573E-004  0.9961542E+02  0.7546771E-02  0.1284569E+00
         -2   -1    0    0    0  501 -0.00000000000E+00  0.00000000000E+00  0.30368780969E+03  0.30368780969E+03  0.00000000000E+00 0.  1.
          2   -1    0    0  501    0  0.00000000000E+00 -0.00000000000E+00 -0.32289680040E+02  0.32289680040E+02  0.00000000000E+00 0. -1.
         23    2    1    2    0    0 -0.96995491345E+01 -0.20837433941E+02  0.93457581165E+02  0.13205086039E+03  0.90414768401E+02 0.  0.
         23    2    1    2    0    0  0.96995491345E+01  0.20837433941E+02  0.17794054848E+03  0.20392662934E+03  0.96927557761E+02 0.  0.
          5    1    4    4  502    0 -0.10216789207E+02  0.45414427421E+02  0.37698379201E+02  0.60084197541E+02  0.47000000000E+01 0. -1.
         -5    1    4    4    0  502  0.19916338342E+02 -0.24576993481E+02  0.14024216928E+03  0.14384243180E+03  0.47000000000E+01 0.  1.
          5    1    3    3  503    0 -0.46000938374E+02 -0.21313825627E+02  0.30869526624E+02  0.59543120242E+02  0.47000000000E+01 0. -1.
         -5    1    3    3    0  503  0.36301389239E+02  0.47639168639E+00  0.62588054541E+02  0.72507740145E+02  0.47000000000E+01 0.  1.
<mgrwt>
<rscale>  0 0.97995070E+02</rscale>
<asrwt>0</asrwt>
<pdfrwt beam="1">  1        2 0.49676433E-02 0.99615417E+02</pdfrwt>
<pdfrwt beam="2">  1       -2 0.46721200E-01 0.99615417E+02</pdfrwt>
<totfact> 0.64056089E+03</totfact>
</mgrwt>
</event>
<event>
 8    1  0.3400573E-004  0.1181676E+03  0.7546771E-02  0.1246206E+00
         -2   -1    0    0    0  501 -0.00000000000E+00  0.00000000000E+00  0.15799638516E+03  0.15799638516E+03  0.00000000000E+00 0.  1.
          2   -1    0    0  501    0  0.00000000000E+00 -0.00000000000E+00 -0.31622988208E+03  0.31622988208E+03  0.00000000000E+00 0. -1.
         23    2    1    2    0    0 -0.49551468480E+02  0.57313949100E+02  0.12220869105E+03  0.16990504814E+03  0.90512565020E+02 0.  0.
         23    2    1    2    0    0  0.49551468480E+02 -0.57313949100E+02 -0.28044218797E+03  0.30432121910E+03  0.90682670958E+02 0.  0.
          5    1    4    4  502    0  0.51060127721E+02 -0.78451346962E+02 -0.19787131246E+03  0.21894496289E+03  0.47000000000E+01 0. -1.
         -5    1    3    3    0  503 -0.58984404131E+02  0.48462234625E+01  0.39208775500E+02  0.71148182610E+02  0.47000000000E+01 0.  1.
          5    1    3    3  503    0  0.94329356510E+01  0.52467725637E+02  0.82999915552E+02  0.98756865534E+02  0.47000000000E+01 0. -1.
         -5    1    4    4    0  502 -0.15086592408E+01  0.21137397862E+02 -0.82570875511E+02  0.85376256206E+02  0.47000000000E+01 0.  1.
<mgrwt>
<rscale>  0 0.11813497E+03</rscale>
<asrwt>0</asrwt>
<pdfrwt beam="1">  1        2 0.48650751E-01 0.11816761E+03</pdfrwt>
<pdfrwt beam="2">  1       -2 0.24307136E-01 0.11816761E+03</pdfrwt>
<totfact> 0.15094415E+03</totfact>
</mgrwt>
</event>
<event>
 8    1  0.7408395E-004  0.1076778E+03  0.7546771E-02  0.1270764E+00
          1   -1    0    0  501    0  0.00000000000E+00  0.00000000000E+00  0.39722511475E+03  0.39722511475E+03  0.00000000000E+00 0. -1.
         -1   -1    0    0    0  501 -0.00000000000E+00 -0.00000000000E+00 -0.86701385411E+02  0.86701385411E+02  0.00000000000E+00 0.  1.
         23    2    1    2    0    0  0.57892494263E+01  0.40911399340E+02  0.35472739975E+03  0.36752861738E+03  0.86824526817E+02 0.  0.
         23    2    1    2    0    0 -0.57892494263E+01 -0.40911399340E+02 -0.44203670403E+02  0.11639788279E+03  0.99434624931E+02 0.  0.
          5    1    3    3  502    0  0.16280888027E+02  0.63615995185E+02  0.19567401623E+03  0.20645210773E+03  0.47000000000E+01 0. -1.
         -5    1    4    4    0  503 -0.49938014636E+02 -0.36852402869E+02 -0.18485710500E+02  0.64928548387E+02  0.47000000000E+01 0.  1.
          5    1    4    4  503    0  0.44148765210E+02 -0.40589964714E+01 -0.25717959904E+02  0.51469334399E+02  0.47000000000E+01 0. -1.
         -5    1    3    3    0  502 -0.10491638600E+02 -0.22704595845E+02  0.15905338351E+03  0.16107650965E+03  0.47000000000E+01 0.  1.
<mgrwt>
<rscale>  0 0.10467365E+03</rscale>
<asrwt>0</asrwt>
<pdfrwt beam="1">  1        1 0.61111555E-01 0.10767777E+03</pdfrwt>
<pdfrwt beam="2">  1       -1 0.13338675E-01 0.10767777E+03</pdfrwt>
<totfact> 0.22952526E+03</totfact>
</mgrwt>
</event>
<event>
 8    1  0.3400573E-004  0.1107419E+03  0.7546771E-02  0.1265544E+00
          1   -1    0    0  501    0  0.00000000000E+00  0.00000000000E+00  0.41607413252E+03  0.41607413252E+03  0.00000000000E+00 0. -1.
         -1   -1    0    0    0  501 -0.00000000000E+00 -0.00000000000E+00 -0.38555714715E+02  0.38555714715E+02  0.00000000000E+00 0.  1.
         23    2    1    2    0    0  0.38823386189E+01  0.32102600878E+02  0.67833359483E+02  0.12986581787E+03  0.10591561006E+03 0.  0.
         23    2    1    2    0    0 -0.38823386189E+01 -0.32102600878E+02  0.30968505832E+03  0.32476402936E+03  0.92310291337E+02 0.  0.
          5    1    3    3  502    0 -0.26653798720E+02 -0.21093826059E+02 -0.48370571166E+01  0.34653450125E+02  0.47000000000E+01 0. -1.
         -5    1    4    4    0  503  0.38743913824E+02 -0.26887025117E+02  0.22214984733E+03  0.22714895476E+03  0.47000000000E+01 0.  1.
          5    1    4    4  503    0 -0.42626252443E+02 -0.52155757606E+01  0.87535210988E+02  0.97615074607E+02  0.47000000000E+01 0. -1.
         -5    1    3    3    0  502  0.30536137338E+02  0.53196426937E+02  0.72670416600E+02  0.95212367743E+02  0.47000000000E+01 0.  1.
<mgrwt>
<rscale>  0 0.10735691E+03</rscale>
<asrwt>0</asrwt>
<pdfrwt beam="1">  1        1 0.64011402E-01 0.11074189E+03</pdfrwt>
<pdfrwt beam="2">  1       -1 0.59316487E-02 0.11074189E+03</pdfrwt>
<totfact> 0.73705023E+03</totfact>
</mgrwt>
</event>
<event>
 8    1  0.3400573E-004  0.9857860E+02  0.7546771E-02  0.1284371E+00
         -4   -1    0    0    0  501 -0.00000000000E+00  0.00000000000E+00  0.32543192268E+03  0.32543192268E+03  0.00000000000E+00 0.  1.
          4   -1    0    0  501    0  0.00000000000E+00 -0.00000000000E+00 -0.27297310950E+03  0.27297310950E+03  0.00000000000E+00 0. -1.
         23    2    1    2    0    0 -0.14420566829E+02  0.29906912885E+02  0.30896109410E+03  0.32430648720E+03  0.92818984005E+02 0.  0.
         23    2    1    2    0    0  0.14420566829E+02 -0.29906912885E+02 -0.25650228091E+03  0.27409854497E+03  0.90742581281E+02 0.  0.
          5    1    4    4  502    0 -0.23205376043E+01  0.24253418483E+02 -0.16129626447E+03  0.16319371352E+03  0.47000000000E+01 0. -1.
         -5    1    4    4    0  502  0.16741104433E+02 -0.54160331367E+02 -0.95206016445E+02  0.11090483145E+03  0.47000000000E+01 0.  1.
          5    1    3    3  503    0 -0.32251325722E+02  0.51987277900E+02  0.13917591049E+03  0.15210144356E+03  0.47000000000E+01 0. -1.
         -5    1    3    3    0  503  0.17830758894E+02 -0.22080365016E+02  0.16978518361E+03  0.17220504364E+03  0.47000000000E+01 0.  1.
<mgrwt>
<rscale>  0 0.98086791E+02</rscale>
<asrwt>0</asrwt>
<pdfrwt beam="1">  1        4 0.41995863E-01 0.98578598E+02</pdfrwt>
<pdfrwt beam="2">  1       -4 0.50066449E-01 0.98578598E+02</pdfrwt>
<totfact> 0.34390901E+01</totfact>
</mgrwt>
</event>
<event>
 8    1  0.3400573E-004  0.1262663E+03  0.7546771E-02  0.1233779E+00
          3   -1    0    0  501    0  0.00000000000E+00  0.00000000000E+00  0.51151505616E+03  0.51151505616E+03  0.00000000000E+00 0. -1.
         -3   -1    0    0    0  501 -0.00000000000E+00 -0.00000000000E+00 -0.31151048197E+02  0.31151048197E+02  0.00000000000E+00 0.  1.
         23    2    1    2    0    0  0.53061171124E+02 -0.69100533206E+02  0.21069267909E+03  0.24563098433E+03  0.91393675239E+02 0.  0.
         23    2    1    2    0    0 -0.53061171124E+02  0.69100533206E+02  0.26967132888E+03  0.29703512003E+03  0.88976768535E+02 0.  0.
          5    1    4    4  502    0 -0.13641967136E+01  0.66594399802E+02  0.10570186952E+03  0.12502659852E+03  0.47000000000E+01 0. -1.
         -5    1    3    3    0  503 -0.88320571916E+00 -0.56803590730E+02  0.50744740381E+02  0.76318717550E+02  0.47000000000E+01 0.  1.
          5    1    3    3  503    0  0.53944376843E+02 -0.12296942477E+02  0.15994793871E+03  0.16931226678E+03  0.47000000000E+01 0. -1.
         -5    1    4    4    0  502 -0.51696974410E+02  0.25061334040E+01  0.16396945936E+03  0.17200852150E+03  0.47000000000E+01 0.  1.
<mgrwt>
<rscale>  0 0.12582947E+03</rscale>
<asrwt>0</asrwt>
<pdfrwt beam="1">  1        3 0.78694618E-01 0.12626629E+03</pdfrwt>
<pdfrwt beam="2">  1       -3 0.47924693E-02 0.12626629E+03</pdfrwt>
<totfact> 0.86183408E+02</totfact>
</mgrwt>
</event>
<event>
 8    1  0.3400573E-004  0.1001034E+03  0.7546771E-02  0.1280440E+00
          1   -1    0    0  501    0  0.00000000000E+00  0.00000000000E+00  0.45943359807E+03  0.45943359807E+03  0.00000000000E+00 0. -1.
         -1   -1    0    0    0  501 -0.00000000000E+00 -0.00000000000E+00 -0.21946535110E+02  0.21946535110E+02  0.00000000000E+00 0.  1.
         23    2    1    2    0    0  0.14795901802E+02  0.40432204751E+02  0.19206281791E+03  0.21658443958E+03  0.90371519585E+02 0.  0.
         23    2    1    2    0    0 -0.14795901802E+02 -0.40432204751E+02  0.24542424505E+03  0.26479569361E+03  0.89610364362E+02 0.  0.
          5    1    3    3  502    0 -0.19503848996E+01 -0.21851865476E+02  0.10916589209E+03  0.11144770084E+03  0.47000000000E+01 0. -1.
         -5    1    3    3    0  502  0.16746286702E+02  0.62284070226E+02  0.82896925817E+02  0.10513673874E+03  0.47000000000E+01 0.  1.
          5    1    4    4  503    0  0.17431363123E+02 -0.53738530388E+02  0.19664121075E+03  0.20464979315E+03  0.47000000000E+01 0. -1.
         -5    1    4    4    0  503 -0.32227264925E+02  0.13306325638E+02  0.48783034301E+02  0.60145900460E+02  0.47000000000E+01 0.  1.
<mgrwt>
<rscale>  0 0.99931316E+02</rscale>
<asrwt>0</asrwt>
<pdfrwt beam="1">  1        1 0.70682085E-01 0.10010341E+03</pdfrwt>
<pdfrwt beam="2">  1       -1 0.33763904E-02 0.10010341E+03</pdfrwt>
<totfact> 0.14718178E+04</totfact>
</mgrwt>
</event>
<event>
 8    1  0.3400573E-004  0.9587421E+02  0.7546771E-02  0.1290513E+00
          1   -1    0    0  501    0  0.00000000000E+00  0.00000000000E+00  0.64801248913E+02  0.64801248913E+02  0.00000000000E+00 0. -1.
         -1   -1    0    0    0  501 -0.00000000000E+00 -0.00000000000E+00 -0.18210963599E+03  0.18210963599E+03  0.00000000000E+00 0.  1.
         23    2    1    2    0    0 -0.10839647453E+02  0.24498550947E+02 -0.11962525245E+03  0.15330382974E+03  0.92055343318E+02 0.  0.
         23    2    1    2    0    0  0.10839647453E+02 -0.24498550947E+02  0.23168653684E+01  0.93607055169E+02  0.89661786492E+02 0.  0.
          5    1    3    3  502    0 -0.16674348475E+02 -0.22303263748E+02 -0.42331909821E+01  0.28556599531E+02  0.47000000000E+01 0. -1.
         -5    1    3    3    0  502  0.58347010221E+01  0.46801814695E+02 -0.11539206147E+03  0.12474723021E+03  0.47000000000E+01 0.  1.
          5    1    4    4  503    0  0.26998538847E+02 -0.46219697628E+02  0.23760730957E+02  0.58752394711E+02  0.47000000000E+01 0. -1.
         -5    1    4    4    0  503 -0.16158891394E+02  0.21721146682E+02 -0.21443865588E+02  0.34854660458E+02  0.47000000000E+01 0.  1.
<mgrwt>
<rscale>  0 0.95295021E+02</rscale>
<asrwt>0</asrwt>
<pdfrwt beam="1">  1        1 0.99694229E-02 0.95874205E+02</pdfrwt>
<pdfrwt beam="2">  1       -1 0.28016867E-01 0.95874205E+02</pdfrwt>
<totfact> 0.68162343E+03</totfact>
</mgrwt>
</event>
<event>
 8    1  0.3400573E-004  0.1009290E+03  0.7546771E-02  0.1278785E+00
          1   -1    0    0  501    0  0.00000000000E+00  0.00000000000E+00  0.49416869302E+03  0.49416869302E+03  0.00000000000E+00 0. -1.
         -1   -1    0    0    0  501 -0.00000000000E+00 -0.00000000000E+00 -0.21282934053E+02  0.21282934053E+02  0.00000000000E+00 0.  1.
         23    2    1    2    0    0 -0.35266941667E+02  0.20583693716E+02  0.18439114138E+03  0.20981161639E+03  0.91396803725E+02 0.  0.
         23    2    1    2    0    0  0.35266941667E+02 -0.20583693716E+02  0.28849461758E+03  0.30564001068E+03  0.92299654020E+02 0.  0.
          5    1    3    3  502    0  0.16150271557E+02  0.36492233878E+02  0.11532315336E+03  0.12212302856E+03  0.47000000000E+01 0. -1.
         -5    1    3    3    0  502 -0.51417213225E+02 -0.15908540161E+02  0.69067988026E+02  0.87688587831E+02  0.47000000000E+01 0.  1.
          5    1    4    4  503    0  0.31073518371E+02 -0.21404351796E+00  0.28142918102E+03  0.28317853606E+03  0.47000000000E+01 0. -1.
         -5    1    4    4    0  503  0.41934232961E+01 -0.20369650198E+02  0.70654365675E+01  0.22461474618E+02  0.47000000000E+01 0.  1.
<mgrwt>
<rscale>  0 0.10072216E+03</rscale>
<asrwt>0</asrwt>
<pdfrwt beam="1">  1        1 0.76025944E-01 0.10092904E+03</pdfrwt>
<pdfrwt beam="2">  1       -1 0.32742979E-02 0.10092904E+03</pdfrwt>
<totfact> 0.14028912E+04</totfact>
</mgrwt>
</event>
<event>
 8    1  0.3400573E-004  0.9541089E+02  0.7546771E-02  0.1295911E+00
         -2   -1    0    0    0  501 -0.00000000000E+00  0.00000000000E+00  0.25903835999E+02  0.25903835999E+02  0.00000000000E+00 0.  1.
          2   -1    0    0  501    0  0.00000000000E+00 -0.00000000000E+00 -0.55451047048E+03  0.55451047048E+03  0.00000000000E+00 0. -1.
         23    2    1    2    0    0  0.96199090356E+01  0.11023415031E+02 -0.66616062094E+02  0.10867441332E+03  0.84607151308E+02 0.  0.
         23    2    1    2    0    0 -0.96199090356E+01 -0.11023415031E+02 -0.46199057239E+03  0.47173989316E+03  0.94282445324E+02 0.  0.
          5    1    3    3  502    0 -0.32684188525E+02 -0.12656293659E+02 -0.17329546502E+02  0.39380720292E+02  0.47000000000E+01 0. -1.
         -5    1    4    4    0  503  0.37829371706E+02 -0.13184880679E+02 -0.12399418264E+03  0.13038999107E+03  0.47000000000E+01 0.  1.
          5    1    4    4  503    0 -0.47449280742E+02  0.21614656477E+01 -0.33799638975E+03  0.34134990209E+03  0.47000000000E+01 0. -1.
         -5    1    3    3    0  502  0.42304097561E+02  0.23679708690E+02 -0.49286515593E+02  0.69293693027E+02  0.47000000000E+01 0.  1.
<mgrwt>
<rscale>  0 0.92928682E+02</rscale>
<asrwt>0</asrwt>
<pdfrwt beam="1">  1        2 0.85309307E-01 0.95410889E+02</pdfrwt>
<pdfrwt beam="2">  1       -2 0.39852054E-02 0.95410889E+02</pdfrwt>
<totfact> 0.14075937E+04</totfact>
</mgrwt>
</event>
<event>
 8    1  0.3400573E-004  0.1135267E+03  0.7546771E-02  0.1255703E+00
          2   -1    0    0  501    0  0.00000000000E+00  0.00000000000E+00  0.75100958380E+02  0.75100958380E+02  0.00000000000E+00 0. -1.
         -2   -1    0    0    0  501 -0.00000000000E+00 -0.00000000000E+00 -0.57100337078E+03  0.57100337078E+03  0.00000000000E+00 0.  1.
         23    2    1    2    0    0  0.15425972838E+02  0.59571871517E+02 -0.52092895254E+03  0.53315595918E+03  0.95401963869E+02 0.  0.
         23    2    1    2    0    0 -0.15425972838E+02 -0.59571871517E+02  0.25026540132E+02  0.11294836998E+03  0.91346801017E+02 0.  0.
          5    1    4    4  502    0 -0.53574328512E+02 -0.29516074116E+02  0.14138533790E+02  0.62955503687E+02  0.47000000000E+01 0. -1.
         -5    1    3    3    0  503  0.13818111820E+02  0.85682096853E+02 -0.40420045552E+03  0.41343979027E+03  0.47000000000E+01 0.  1.
          5    1    3    3  503    0  0.16078610186E+01 -0.26110225336E+02 -0.11672849701E+03  0.11971616891E+03  0.47000000000E+01 0. -1.
         -5    1    4    4    0  502  0.38148355674E+02 -0.30055797401E+02  0.10888006342E+02  0.49992866292E+02  0.47000000000E+01 0.  1.
<mgrwt>
<rscale>  0 0.11267057E+03</rscale>
<asrwt>0</asrwt>
<pdfrwt beam="1">  1        2 0.11553994E-01 0.11352666E+03</pdfrwt>
<pdfrwt beam="2">  1       -2 0.87846669E-01 0.11352666E+03</pdfrwt>
<totfact> 0.60554155E+02</totfact>
</mgrwt>
</event>
<event>
 8    1  0.3400573E-004  0.1078374E+03  0.7546771E-02  0.1266239E+00
         -1   -1    0    0    0  501 -0.00000000000E+00  0.00000000000E+00  0.10873963212E+02  0.10873963212E+02  0.00000000000E+00 0.  1.
          1   -1    0    0  501    0  0.00000000000E+00 -0.00000000000E+00 -0.10382031796E+04  0.10382031796E+04  0.00000000000E+00 0. -1.
         23    2    1    2    0    0 -0.52905407791E+02  0.10762410881E+02 -0.48520250967E+03  0.49632922385E+03  0.89478552736E+02 0.  0.
         23    2    1    2    0    0  0.52905407791E+02 -0.10762410881E+02 -0.54212670670E+03  0.55274791894E+03  0.93349258773E+02 0.  0.
          5    1    3    3  502    0 -0.65481757005E+02  0.33893589409E+02 -0.40773350088E+03  0.41437342295E+03  0.47000000000E+01 0. -1.
         -5    1    3    3    0  502  0.12576349214E+02 -0.23131178528E+02 -0.77469008786E+02  0.81955800905E+02  0.47000000000E+01 0.  1.
          5    1    4    4  503    0  0.23148075219E+02  0.41294593509E+02 -0.22661447742E+03  0.23155407190E+03  0.47000000000E+01 0. -1.
         -5    1    4    4    0  503  0.29757332572E+02 -0.52057004390E+02 -0.31551222928E+03  0.32119384704E+03  0.47000000000E+01 0.  1.
<mgrwt>
<rscale>  0 0.10699435E+03</rscale>
<asrwt>0</asrwt>
<pdfrwt beam="1">  1        1 0.15972353E+00 0.10783736E+03</pdfrwt>
<pdfrwt beam="2">  1       -1 0.16729178E-02 0.10783736E+03</pdfrwt>
<totfact> 0.12625090E+04</totfact>
</mgrwt>
</event>
<event>
 8    1  0.3400573E-004  0.1055910E+03  0.7546771E-02  0.1269839E+00
          2   -1    0    0  501    0  0.00000000000E+00  0.00000000000E+00  0.20925573261E+03  0.20925573261E+03  0.00000000000E+00 0. -1.
         -2   -1    0    0    0  501 -0.00000000000E+00 -0.00000000000E+00 -0.55216751747E+02  0.55216751747E+02  0.00000000000E+00 0.  1.
         23    2    1    2    0    0  0.37141495779E-01 -0.51946606691E+02  0.10758298220E+03  0.15074333964E+03  0.91929348200E+02 0.  0.
         23    2    1    2    0    0 -0.37141495779E-01  0.51946606691E+02  0.46455998661E+02  0.11372914472E+03  0.89876065891E+02 0.  0.
          5    1    4    4  502    0 -0.33106462828E+02  0.31007914059E+02 -0.82052617663E+01  0.46335137163E+02  0.47000000000E+01 0. -1.
         -5    1    4    4    0  502  0.33069321332E+02  0.20938692632E+02  0.54661260427E+02  0.67394007553E+02  0.47000000000E+01 0.  1.
          5    1    3    3  503    0 -0.40612089958E+02 -0.13905178928E+02  0.73645671359E+02  0.85372541028E+02  0.47000000000E+01 0. -1.
         -5    1    3    3    0  503  0.40649231454E+02 -0.38041427763E+02  0.33937310844E+02  0.65370798613E+02  0.47000000000E+01 0.  1.
<mgrwt>
<rscale>  0 0.10514246E+03</rscale>
<asrwt>0</asrwt>
<pdfrwt beam="1">  1        2 0.32193189E-01 0.10559099E+03</pdfrwt>
<pdfrwt beam="2">  1       -2 0.84948850E-02 0.10559099E+03</pdfrwt>
<totfact> 0.12808349E+04</totfact>
</mgrwt>
</event>
<event>
 8    1  0.3400573E-004  0.1256760E+03  0.7546771E-02  0.1235649E+00
         -2   -1    0    0    0  501 -0.00000000000E+00  0.00000000000E+00  0.14070646353E+03  0.14070646353E+03  0.00000000000E+00 0.  1.
          2   -1    0    0  501    0  0.00000000000E+00 -0.00000000000E+00 -0.10982726816E+03  0.10982726816E+03  0.00000000000E+00 0. -1.
         23    2    1    2    0    0 -0.77443680818E+02 -0.14964888589E+02  0.18965435362E+01  0.12155910649E+03  0.92474579771E+02 0.  0.
         23    2    1    2    0    0  0.77443680818E+02  0.14964888589E+02  0.28982651828E+02  0.12897462520E+03  0.97841648847E+02 0.  0.
          5    1    3    3  502    0 -0.18333580219E+02 -0.47036316819E+02 -0.13377086424E+02  0.52436358614E+02  0.47000000000E+01 0. -1.
         -5    1    3    3    0  502 -0.59110100599E+02  0.32071428230E+02  0.15273629961E+02  0.69122747874E+02  0.47000000000E+01 0.  1.
          5    1    4    4  503    0 -0.19127615655E+02 -0.14371167221E+02  0.89289261906E+01  0.25965589746E+02  0.47000000000E+01 0. -1.
         -5    1    4    4    0  503  0.96571296473E+02  0.29336055810E+02  0.20053725637E+02  0.10300903545E+03  0.47000000000E+01 0.  1.
<mgrwt>
<rscale>  0 0.12463010E+03</rscale>
<asrwt>0</asrwt>
<pdfrwt beam="1">  1        2 0.16896503E-01 0.12567601E+03</pdfrwt>
<pdfrwt beam="2">  1       -2 0.21647148E-01 0.12567601E+03</pdfrwt>
<totfact> 0.58556978E+03</totfact>
</mgrwt>
</event>
<event>
 8    1  0.3400573E-004  0.2246325E+03  0.7546771E-02  0.1132339E+00
         -1   -1    0    0    0  501 -0.00000000000E+00  0.00000000000E+00  0.26046842665E+03  0.26046842665E+03  0.00000000000E+00 0.  1.
          1   -1    0    0  501    0  0.00000000000E+00 -0.00000000000E+00 -0.21826523737E+03  0.21826523737E+03  0.00000000000E+00 0. -1.
         23    2    1    2    0    0 -0.17519271256E+03 -0.97361311875E+02  0.11468199967E+03  0.25221367753E+03  0.10143010647E+03 0.  0.
         23    2    1    2    0    0  0.17519271256E+03  0.97361311875E+02 -0.72478810392E+02  0.22651998649E+03  0.76722973985E+02 0.  0.
          5    1    4    4  502    0  0.48939886944E+02  0.40817249219E+02  0.11056518532E+02  0.64849803161E+02  0.47000000000E+01 0. -1.
         -5    1    3    3    0  503 -0.58308656501E+02 -0.12859941530E+02  0.86450032522E+02  0.10517117306E+03  0.47000000000E+01 0.  1.
          5    1    3    3  503    0 -0.11688405606E+03 -0.84501370345E+02  0.28231967146E+02  0.14704250447E+03  0.47000000000E+01 0. -1.
         -5    1    4    4    0  502  0.12625282562E+03  0.56544062656E+02 -0.83535328924E+02  0.16167018333E+03  0.47000000000E+01 0.  1.
<mgrwt>
<rscale>  0 0.22208426E+03</rscale>
<asrwt>0</asrwt>
<pdfrwt beam="1">  1        1 0.33579267E-01 0.22463254E+03</pdfrwt>
<pdfrwt beam="2">  1       -1 0.40072066E-01 0.22463254E+03</pdfrwt>
<totfact> 0.80828303E+02</totfact>
</mgrwt>
</event>
<event>
 8    1  0.3400573E-004  0.1122333E+03  0.7546771E-02  0.1256638E+00
         -1   -1    0    0    0  501 -0.00000000000E+00  0.00000000000E+00  0.35282766544E+03  0.35282766544E+03  0.00000000000E+00 0.  1.
          1   -1    0    0  501    0  0.00000000000E+00 -0.00000000000E+00 -0.36288536975E+02  0.36288536975E+02  0.00000000000E+00 0. -1.
         23    2    1    2    0    0  0.23322922200E+02  0.57247569024E+02  0.13116300782E+03  0.17241222728E+03  0.93279143624E+02 0.  0.
         23    2    1    2    0    0 -0.23322922200E+02 -0.57247569024E+02  0.18537612064E+03  0.21670397513E+03  0.93675310920E+02 0.  0.
          5    1    4    4  502    0  0.34672739096E+01 -0.65971245592E+02  0.64314962746E+02  0.92318642031E+02  0.47000000000E+01 0. -1.
         -5    1    4    4    0  502 -0.26790196109E+02  0.87236765679E+01  0.12106115789E+03  0.12438533310E+03  0.47000000000E+01 0.  1.
          5    1    3    3  503    0  0.50843106569E+02  0.40774339725E+01  0.51356247228E+02  0.72534137361E+02  0.47000000000E+01 0. -1.
         -5    1    3    3    0  503 -0.27520184369E+02  0.53170135052E+02  0.79806760595E+02  0.99878089918E+02  0.47000000000E+01 0.  1.
<mgrwt>
<rscale>  0 0.11215057E+03</rscale>
<asrwt>0</asrwt>
<pdfrwt beam="1">  1        1 0.55828521E-02 0.11223327E+03</pdfrwt>
<pdfrwt beam="2">  1       -1 0.54281177E-01 0.11223327E+03</pdfrwt>
<totfact> 0.47376880E+03</totfact>
</mgrwt>
</event>
<event>
 8    1  0.3400573E-004  0.1917024E+03  0.7546771E-02  0.1157188E+00
          2   -1    0    0  501    0  0.00000000000E+00  0.00000000000E+00  0.14163527356E+04  0.14163527356E+04  0.00000000000E+00 0. -1.
         -2   -1    0    0    0  501 -0.00000000000E+00 -0.00000000000E+00 -0.39538561131E+02  0.39538561131E+02  0.00000000000E+00 0.  1.
         23    2    1    2    0    0  0.13429904078E+03  0.10047899566E+03  0.11162740232E+04  0.11324241923E+04  0.90468753292E+02 0.  0.
         23    2    1    2    0    0 -0.13429904078E+03 -0.10047899566E+03  0.26054015128E+03  0.32346710452E+03  0.92830686515E+02 0.  0.
          5    1    3    3  502    0  0.13762560079E+03  0.64505485916E+02  0.95932357225E+03  0.97130096777E+03  0.47000000000E+01 0. -1.
         -5    1    3    3    0  502 -0.33265600056E+01  0.35973509740E+02  0.15695045098E+03  0.16112322448E+03  0.47000000000E+01 0.  1.
          5    1    4    4  503    0 -0.10759292196E+03 -0.41591444259E+02  0.21566165988E+03  0.24461832849E+03  0.47000000000E+01 0. -1.
         -5    1    4    4    0  503 -0.26706118817E+02 -0.58887551397E+02  0.44878491402E+02  0.78848776036E+02  0.47000000000E+01 0.  1.
<mgrwt>
<rscale>  0 0.19141860E+03</rscale>
<asrwt>0</asrwt>
<pdfrwt beam="1">  1        2 0.21790038E+00 0.19170237E+03</pdfrwt>
<pdfrwt beam="2">  1       -2 0.60828566E-02 0.19170237E+03</pdfrwt>
<totfact> 0.21946698E+03</totfact>
</mgrwt>
</event>
<event>
 8    1  0.3400573E-004  0.9468364E+02  0.7546771E-02  0.1295236E+00
          1   -1    0    0  501    0  0.00000000000E+00  0.00000000000E+00  0.30242901244E+03  0.30242901244E+03  0.00000000000E+00 0. -1.
         -1   -1    0    0    0  501 -0.00000000000E+00 -0.00000000000E+00 -0.41856807590E+02  0.41856807590E+02  0.00000000000E+00 0.  1.
         23    2    1    2    0    0  0.72682740556E+01  0.25849886726E+02  0.22702641318E+03  0.24383527201E+03  0.84815111529E+02 0.  0.
         23    2    1    2    0    0 -0.72682740556E+01 -0.25849886726E+02  0.33545791663E+02  0.10045054801E+03  0.90796189381E+02 0.  0.
          5    1    4    4  502    0 -0.33922445761E+02 -0.48363331202E+02  0.24318540200E+02  0.64056424571E+02  0.47000000000E+01 0. -1.
         -5    1    4    4    0  502  0.26654171705E+02  0.22513444476E+02  0.92272514635E+01  0.36394123441E+02  0.47000000000E+01 0.  1.
          5    1    3    3  503    0  0.79012682511E+01 -0.22840076430E+02  0.15388195402E+03  0.15583916358E+03  0.47000000000E+01 0. -1.
         -5    1    3    3    0  503 -0.63299419553E+00  0.48689963157E+02  0.73144459166E+02  0.87996108439E+02  0.47000000000E+01 0.  1.
<mgrwt>
<rscale>  0 0.93220230E+02</rscale>
<asrwt>0</asrwt>
<pdfrwt beam="1">  1        1 0.46527539E-01 0.94683644E+02</pdfrwt>
<pdfrwt beam="2">  1       -1 0.64395090E-02 0.94683644E+02</pdfrwt>
<totfact> 0.95692431E+03</totfact>
</mgrwt>
</event>
<event>
 8    1  0.3400573E-004  0.9483287E+02  0.7546771E-02  0.1292058E+00
         -1   -1    0    0    0  501 -0.00000000000E+00  0.00000000000E+00  0.29374311431E+03  0.29374311431E+03  0.00000000000E+00 0.  1.
          1   -1    0    0  501    0  0.00000000000E+00 -0.00000000000E+00 -0.51638956613E+02  0.51638956613E+02  0.00000000000E+00 0. -1.
         23    2    1    2    0    0 -0.21189214230E+02 -0.13985026566E+02  0.23232203906E+03  0.25093186994E+03  0.91371274208E+02 0.  0.
         23    2    1    2    0    0  0.21189214230E+02  0.13985026566E+02  0.97821186349E+01  0.94450200982E+02  0.90446596690E+02 0.  0.
          5    1    4    4  502    0  0.50166860981E+02  0.12620519559E+02 -0.17035521040E+02  0.54665257996E+02  0.47000000000E+01 0. -1.
         -5    1    3    3    0  503 -0.42988949199E+02 -0.30805615423E+01  0.21800717439E+03  0.22227630935E+03  0.47000000000E+01 0.  1.
          5    1    3    3  503    0  0.21799734969E+02 -0.10904465024E+02  0.14314864671E+02  0.28655560590E+02  0.47000000000E+01 0. -1.
         -5    1    4    4    0  502 -0.28977646751E+02  0.13645070067E+01  0.26817639675E+02  0.39784942986E+02  0.47000000000E+01 0.  1.
<mgrwt>
<rscale>  0 0.94609433E+02</rscale>
<asrwt>0</asrwt>
<pdfrwt beam="1">  1        1 0.79444550E-02 0.94832872E+02</pdfrwt>
<pdfrwt beam="2">  1       -1 0.45191247E-01 0.94832872E+02</pdfrwt>
<totfact> 0.40634156E+03</totfact>
</mgrwt>
</event>
<event>
 8    1  0.3400573E-004  0.1897535E+03  0.7546771E-02  0.1158767E+00
          2   -1    0    0  501    0  0.00000000000E+00  0.00000000000E+00  0.93810240589E+03  0.93810240589E+03  0.00000000000E+00 0. -1.
         -2   -1    0    0    0  501 -0.00000000000E+00 -0.00000000000E+00 -0.46347414025E+03  0.46347414025E+03  0.00000000000E+00 0.  1.
         23    2    1    2    0    0  0.91155878692E+02  0.13921376849E+03 -0.43386915097E+03  0.47354916854E+03  0.91194886395E+02 0.  0.
         23    2    1    2    0    0 -0.91155878692E+02 -0.13921376849E+03  0.90849741660E+03  0.92802737760E+03  0.90428922562E+02 0.  0.
          5    1    3    3  502    0 -0.64869227137E+01  0.64319858227E+02 -0.12000951288E+03  0.13639463886E+03  0.47000000000E+01 0. -1.
         -5    1    4    4    0  503 -0.66481655900E+02 -0.57012074281E+02  0.27297462190E+03  0.28671836598E+03  0.47000000000E+01 0.  1.
          5    1    4    4  503    0 -0.24674222792E+02 -0.82201694212E+02  0.63552279470E+03  0.64130901162E+03  0.47000000000E+01 0. -1.
         -5    1    3    3    0  502  0.97642801406E+02  0.74893910266E+02 -0.31385963809E+03  0.33715452968E+03  0.47000000000E+01 0.  1.
<mgrwt>
<rscale>  0 0.18966166E+03</rscale>
<asrwt>0</asrwt>
<pdfrwt beam="1">  1        2 0.14432345E+00 0.18975346E+03</pdfrwt>
<pdfrwt beam="2">  1       -2 0.71303714E-01 0.18975346E+03</pdfrwt>
<totfact> 0.54596193E+01</totfact>
</mgrwt>
</event>
<event>
 8    1  0.3400573E-004  0.1035847E+03  0.7546771E-02  0.1272970E+00
         -2   -1    0    0    0  501 -0.00000000000E+00  0.00000000000E+00  0.77141553791E+03  0.77141553791E+03  0.00000000000E+00 0.  1.
          2   -1    0    0  501    0  0.00000000000E+00 -0.00000000000E+00 -0.14576656318E+02  0.14576656318E+02  0.00000000000E+00 0. -1.
         23    2    1    2    0    0 -0.33678907557E+02 -0.36321806030E+02  0.29359021608E+03  0.31130374906E+03  0.90891511132E+02 0.  0.
         23    2    1    2    0    0  0.33678907557E+02  0.36321806030E+02  0.46324866551E+03  0.47468844516E+03  0.90973905411E+02 0.  0.
          5    1    4    4  502    0  0.61823273082E+02  0.32932192877E+02  0.38459656077E+03  0.39095172461E+03  0.47000000000E+01 0. -1.
         -5    1    3    3    0  503 -0.36510201864E+02 -0.12186996715E+02  0.28076032380E+03  0.28342541726E+03  0.47000000000E+01 0.  1.
          5    1    3    3  503    0  0.28312943065E+01 -0.24134809315E+02  0.12829892276E+02  0.27878331799E+02  0.47000000000E+01 0. -1.
         -5    1    4    4    0  502 -0.28144365525E+02  0.33896131528E+01  0.78652104745E+02  0.83736720553E+02  0.47000000000E+01 0.  1.
<mgrwt>
<rscale>  0 0.10356662E+03</rscale>
<asrwt>0</asrwt>
<pdfrwt beam="1">  1        2 0.22425631E-02 0.10358472E+03</pdfrwt>
<pdfrwt beam="2">  1       -2 0.11867928E+00 0.10358472E+03</pdfrwt>
<totfact> 0.24892160E+03</totfact>
</mgrwt>
</event>
<event>
 8    1  0.3400573E-004  0.1435627E+03  0.7546771E-02  0.1214882E+00
         -1   -1    0    0    0  501 -0.00000000000E+00  0.00000000000E+00  0.14630807237E+03  0.14630807237E+03  0.00000000000E+00 0.  1.
          1   -1    0    0  501    0  0.00000000000E+00 -0.00000000000E+00 -0.51685348771E+03  0.51685348771E+03  0.00000000000E+00 0. -1.
         23    2    1    2    0    0  0.85514135652E+02 -0.71446100233E+02 -0.47130986629E+03  0.48776567096E+03  0.58009887671E+02 0.  0.
         23    2    1    2    0    0 -0.85514135652E+02  0.71446100233E+02  0.10076445095E+03  0.17539588912E+03  0.90515361742E+02 0.  0.
          5    1    3    3  502    0  0.22625924137E+01 -0.25571080038E+02 -0.16378334883E+03  0.16584955475E+03  0.47000000000E+01 0. -1.
         -5    1    4    4    0  503 -0.59844998897E+02  0.92303189598E+02  0.79239046850E+02  0.13565477968E+03  0.47000000000E+01 0.  1.
          5    1    4    4  503    0 -0.25669136754E+02 -0.20857089365E+02  0.21525404098E+02  0.39741109447E+02  0.47000000000E+01 0. -1.
         -5    1    3    3    0  502  0.83251543238E+02 -0.45875020195E+02 -0.30752651747E+03  0.32191611621E+03  0.47000000000E+01 0.  1.
<mgrwt>
<rscale>  0 0.13885217E+03</rscale>
<asrwt>0</asrwt>
<pdfrwt beam="1">  1        1 0.79515922E-01 0.14356268E+03</pdfrwt>
<pdfrwt beam="2">  1       -1 0.22508934E-01 0.14356268E+03</pdfrwt>
<totfact> 0.72004346E+02</totfact>
</mgrwt>
</event>
<event>
 8    1  0.3400573E-004  0.9521566E+02  0.7546771E-02  0.1291773E+00
          1   -1    0    0  501    0  0.00000000000E+00  0.00000000000E+00  0.39059822297E+03  0.39059822297E+03  0.00000000000E+00 0. -1.
         -1   -1    0    0    0  501 -0.00000000000E+00 -0.00000000000E+00 -0.50974067901E+02  0.50974067901E+02  0.00000000000E+00 0.  1.
         23    2    1    2    0    0  0.21079370427E+02 -0.10066090515E+01  0.33486752820E+03  0.34814118332E+03  0.92847557661E+02 0.  0.
         23    2    1    2    0    0 -0.21079370427E+02  0.10066090515E+01  0.47566268714E+01  0.93431107550E+02  0.90892206703E+02 0.  0.
          5    1    3    3  502    0 -0.22266563434E+02  0.26227427756E+02  0.67840649336E+02  0.76211032772E+02  0.47000000000E+01 0. -1.
         -5    1    3    3    0  502  0.43345933860E+02 -0.27234036808E+02  0.26702687886E+03  0.27193015055E+03  0.47000000000E+01 0.  1.
          5    1    4    4  503    0 -0.35818636101E+02 -0.12659256256E+02  0.38232817433E+02  0.54102400963E+02  0.47000000000E+01 0. -1.
         -5    1    4    4    0  503  0.14739265675E+02  0.13665865308E+02 -0.33476190562E+02  0.39328706586E+02  0.47000000000E+01 0.  1.
<mgrwt>
<rscale>  0 0.94735614E+02</rscale>
<asrwt>0</asrwt>
<pdfrwt beam="1">  1        1 0.60092032E-01 0.95215661E+02</pdfrwt>
<pdfrwt beam="2">  1       -1 0.78421645E-02 0.95215661E+02</pdfrwt>
<totfact> 0.52129440E+03</totfact>
</mgrwt>
</event>
<event>
 8    1  0.3400573E-004  0.2065230E+03  0.7546771E-02  0.1145118E+00
         -1   -1    0    0    0  501 -0.00000000000E+00  0.00000000000E+00  0.61807897465E+03  0.61807897465E+03  0.00000000000E+00 0.  1.
          1   -1    0    0  501    0  0.00000000000E+00 -0.00000000000E+00 -0.97626870508E+02  0.97626870508E+02  0.00000000000E+00 0. -1.
         23    2    1    2    0    0 -0.76067987465E+02 -0.16446704859E+03  0.45982368368E+03  0.50407297255E+03  0.99075692260E+02 0.  0.
         23    2    1    2    0    0  0.76067987465E+02  0.16446704859E+03  0.60628420462E+02  0.21163287260E+03  0.90977572016E+02 0.  0.
          5    1    3    3  502    0 -0.29413597681E+02 -0.29113741351E+02  0.30900079740E+02  0.51862072770E+02  0.47000000000E+01 0. -1.
         -5    1    4    4    0  503  0.46750373781E+02  0.13714406885E+02  0.18351690299E+02  0.52273864805E+02  0.47000000000E+01 0.  1.
          5    1    4    4  503    0  0.29317613684E+02  0.15075264171E+03  0.42276730163E+02  0.15935900780E+03  0.47000000000E+01 0. -1.
         -5    1    3    3    0  502 -0.46654389784E+02 -0.13535330724E+03  0.42892360394E+03  0.45221089978E+03  0.47000000000E+01 0.  1.
<mgrwt>
<rscale>  0 0.20557639E+03</rscale>
<asrwt>0</asrwt>
<pdfrwt beam="1">  1        1 0.15019519E-01 0.20652298E+03</pdfrwt>
<pdfrwt beam="2">  1       -1 0.95089071E-01 0.20652298E+03</pdfrwt>
<totfact> 0.42063699E+02</totfact>
</mgrwt>
</event>
<event>
 8    1  0.3400573E-004  0.9266251E+02  0.7546771E-02  0.1300422E+00
          2   -1    0    0  501    0  0.00000000000E+00  0.00000000000E+00  0.13583774907E+03  0.13583774907E+03  0.00000000000E+00 0. -1.
         -2   -1    0    0    0  501 -0.00000000000E+00 -0.00000000000E+00 -0.83895971275E+02  0.83895971275E+02  0.00000000000E+00 0.  1.
         23    2    1    2    0    0  0.12242640032E+02 -0.11170818548E+02 -0.34628464570E+02  0.92923834902E+02  0.84622923091E+02 0.  0.
         23    2    1    2    0    0 -0.12242640032E+02  0.11170818548E+02  0.86570242370E+02  0.12680988545E+03  0.91168364914E+02 0.  0.
          5    1    3    3  502    0 -0.67392193407E+01 -0.31778938666E+02  0.14726771568E+02  0.35976184079E+02  0.47000000000E+01 0. -1.
         -5    1    4    4    0  503  0.35037545873E+02  0.16473866166E+02  0.61507637851E+02  0.72830607585E+02  0.47000000000E+01 0.  1.
          5    1    4    4  503    0 -0.47280185905E+02 -0.53030476177E+01  0.25062604519E+02  0.53979277862E+02  0.47000000000E+01 0. -1.
         -5    1    3    3    0  502  0.18981859373E+02  0.20608120118E+02 -0.49355236138E+02  0.56947650823E+02  0.47000000000E+01 0.  1.
<mgrwt>
<rscale>  0 0.91010883E+02</rscale>
<asrwt>0</asrwt>
<pdfrwt beam="1">  1        2 0.20898115E-01 0.92662507E+02</pdfrwt>
<pdfrwt beam="2">  1       -2 0.12907073E-01 0.92662507E+02</pdfrwt>
<totfact> 0.10523721E+04</totfact>
</mgrwt>
</event>
<event>
 8    1  0.3400573E-004  0.9360890E+02  0.7546771E-02  0.1296291E+00
         -2   -1    0    0    0  501 -0.00000000000E+00  0.00000000000E+00  0.13361198326E+02  0.13361198326E+02  0.00000000000E+00 0.  1.
          2   -1    0    0  501    0  0.00000000000E+00 -0.00000000000E+00 -0.70203814772E+03  0.70203814772E+03  0.00000000000E+00 0. -1.
         23    2    1    2    0    0 -0.10142192934E+02 -0.44800935884E+01 -0.23756121957E+03  0.25533890988E+03  0.92949935661E+02 0.  0.
         23    2    1    2    0    0  0.10142192934E+02  0.44800935884E+01 -0.45111572982E+03  0.46006043616E+03  0.89595021702E+02 0.  0.
          5    1    4    4  502    0  0.48448462128E+02  0.13763002976E+02 -0.25264772206E+03  0.25766186212E+03  0.47000000000E+01 0. -1.
         -5    1    3    3    0  503 -0.30126865419E+02  0.22260081883E+02 -0.40311538390E+02  0.55229062936E+02  0.47000000000E+01 0.  1.
          5    1    3    3  503    0  0.19984672485E+02 -0.26740175471E+02 -0.19724968118E+03  0.20010984695E+03  0.47000000000E+01 0. -1.
         -5    1    4    4    0  502 -0.38306269194E+02 -0.92829093874E+01 -0.19846800776E+03  0.20239857403E+03  0.47000000000E+01 0.  1.
<mgrwt>
<rscale>  0 0.92764948E+02</rscale>
<asrwt>0</asrwt>
<pdfrwt beam="1">  1        2 0.10800589E+00 0.93608898E+02</pdfrwt>
<pdfrwt beam="2">  1       -2 0.20555686E-02 0.93608898E+02</pdfrwt>
<totfact> 0.28162195E+04</totfact>
</mgrwt>
</event>
<event>
 8    1  0.3400573E-004  0.1121185E+03  0.7546771E-02  0.1260147E+00
         -1   -1    0    0    0  501 -0.00000000000E+00  0.00000000000E+00  0.19358506998E+02  0.19358506998E+02  0.00000000000E+00 0.  1.
          1   -1    0    0  501    0  0.00000000000E+00 -0.00000000000E+00 -0.64638345726E+03  0.64638345726E+03  0.00000000000E+00 0. -1.
         23    2    1    2    0    0  0.30542074449E+02  0.40082643208E+02 -0.40526050925E+03  0.42048381368E+03  0.10015548221E+03 0.  0.
         23    2    1    2    0    0 -0.30542074449E+02 -0.40082643208E+02 -0.22176444102E+03  0.24525815058E+03  0.91829497038E+02 0.  0.
          5    1    3    3  502    0  0.50485535958E+01 -0.26088604551E+02 -0.39211379193E+02  0.47599636963E+02  0.47000000000E+01 0. -1.
         -5    1    4    4    0  503  0.16932022395E+02 -0.25887594939E+02 -0.19292278288E+02  0.36757896508E+02  0.47000000000E+01 0.  1.
          5    1    4    4  503    0 -0.47474096844E+02 -0.14195048269E+02 -0.20247216273E+03  0.20850025407E+03  0.47000000000E+01 0. -1.
         -5    1    3    3    0  502  0.25493520854E+02  0.66171247759E+02 -0.36604913005E+03  0.37288417672E+03  0.47000000000E+01 0.  1.
<mgrwt>
<rscale>  0 0.11022856E+03</rscale>
<asrwt>0</asrwt>
<pdfrwt beam="1">  1        1 0.99443622E-01 0.11211850E+03</pdfrwt>
<pdfrwt beam="2">  1       -1 0.29782314E-02 0.11211850E+03</pdfrwt>
<totfact> 0.11357952E+04</totfact>
</mgrwt>
</event>
<event>
 8    1  0.3400573E-004  0.1196094E+03  0.7546771E-02  0.1249290E+00
         -1   -1    0    0    0  501 -0.00000000000E+00  0.00000000000E+00  0.99745207165E+03  0.99745207165E+03  0.00000000000E+00 0.  1.
          1   -1    0    0  501    0  0.00000000000E+00 -0.00000000000E+00 -0.20579908506E+02  0.20579908506E+02  0.00000000000E+00 0. -1.
         23    2    1    2    0    0  0.15754236881E+02 -0.54329175007E+02  0.19418919152E+03  0.22806984567E+03  0.10538765185E+03 0.  0.
         23    2    1    2    0    0 -0.15754236881E+02  0.54329175007E+02  0.78268297163E+03  0.78996213449E+03  0.90816764000E+02 0.  0.
          5    1    3    3  502    0  0.33684552334E+02  0.10620656406E+02  0.13034868773E+03  0.13513074336E+03  0.47000000000E+01 0. -1.
         -5    1    3    3    0  502 -0.17930315453E+02 -0.64949831413E+02  0.63840503793E+02  0.92939102306E+02  0.47000000000E+01 0.  1.
          5    1    4    4  503    0 -0.30402925591E+02  0.74894076662E+02  0.56578919590E+03  0.57155311634E+03  0.47000000000E+01 0. -1.
         -5    1    4    4    0  503  0.14648688710E+02 -0.20564901655E+02  0.21689377572E+03  0.21840901815E+03  0.47000000000E+01 0.  1.
<mgrwt>
<rscale>  0 0.11632232E+03</rscale>
<asrwt>0</asrwt>
<pdfrwt beam="1">  1        1 0.31661405E-02 0.11960942E+03</pdfrwt>
<pdfrwt beam="2">  1       -1 0.15345413E+00 0.11960942E+03</pdfrwt>
<totfact> 0.10969932E+03</totfact>
</mgrwt>
</event>
<event>
 8    1  0.3400573E-004  0.9427176E+02  0.7546771E-02  0.1293366E+00
         -1   -1    0    0    0  501 -0.00000000000E+00  0.00000000000E+00  0.34518565761E+02  0.34518565761E+02  0.00000000000E+00 0.  1.
          1   -1    0    0  501    0  0.00000000000E+00 -0.00000000000E+00 -0.54865888961E+03  0.54865888961E+03  0.00000000000E+00 0. -1.
         23    2    1    2    0    0  0.20344575644E+02 -0.24577723512E+00 -0.43102303791E+02  0.10279845861E+03  0.91081020728E+02 0.  0.
         23    2    1    2    0    0 -0.20344575644E+02  0.24577723512E+00 -0.47103802006E+03  0.48037899676E+03  0.92049997386E+02 0.  0.
          5    1    3    3  502    0  0.17229892717E+02 -0.31920061336E+02 -0.57021418276E+02  0.67744310913E+02  0.47000000000E+01 0. -1.
         -5    1    4    4    0  503  0.33639951966E+02  0.25294106575E+01 -0.27050217095E+03  0.27263814622E+03  0.47000000000E+01 0.  1.
          5    1    4    4  503    0 -0.53984527610E+02 -0.22836334224E+01 -0.20053584911E+03  0.20774085054E+03  0.47000000000E+01 0. -1.
         -5    1    3    3    0  502  0.31146829267E+01  0.31674284101E+02  0.13919114486E+02  0.35054147702E+02  0.47000000000E+01 0.  1.
<mgrwt>
<rscale>  0 0.94034386E+02</rscale>
<asrwt>0</asrwt>
<pdfrwt beam="1">  1        1 0.84409063E-01 0.94271757E+02</pdfrwt>
<pdfrwt beam="2">  1       -1 0.53105484E-02 0.94271757E+02</pdfrwt>
<totfact> 0.60210681E+03</totfact>
</mgrwt>
</event>
<event>
 8    1  0.3400573E-004  0.1117764E+03  0.7546771E-02  0.1257534E+00
         -1   -1    0    0    0  501 -0.00000000000E+00  0.00000000000E+00  0.26632247934E+03  0.26632247934E+03  0.00000000000E+00 0.  1.
          1   -1    0    0  501    0  0.00000000000E+00 -0.00000000000E+00 -0.49843022025E+02  0.49843022025E+02  0.00000000000E+00 0. -1.
         23    2    1    2    0    0  0.63757976077E+02 -0.67271781779E+01  0.68396078242E+02  0.13063210708E+03  0.90974663731E+02 0.  0.
         23    2    1    2    0    0 -0.63757976077E+02  0.67271781779E+01  0.14808337908E+03  0.18553339429E+03  0.91562103508E+02 0.  0.
          5    1    3    3  502    0  0.81671703944E+02  0.99617395608E+01  0.66009302007E+02  0.10558797958E+03  0.47000000000E+01 0. -1.
         -5    1    4    4    0  503 -0.48188305080E+01  0.23164197275E+02  0.11151836344E+03  0.11409748703E+03  0.47000000000E+01 0.  1.
          5    1    4    4  503    0 -0.58939145569E+02 -0.16437019098E+02  0.36565015636E+02  0.71435907258E+02  0.47000000000E+01 0. -1.
         -5    1    3    3    0  502 -0.17913727867E+02 -0.16688917739E+02  0.23867762349E+01  0.25044127498E+02  0.47000000000E+01 0.  1.
<mgrwt>
<rscale>  0 0.11165599E+03</rscale>
<asrwt>0</asrwt>
<pdfrwt beam="1">  1        1 0.76681574E-02 0.11177635E+03</pdfrwt>
<pdfrwt beam="2">  1       -1 0.40972688E-01 0.11177635E+03</pdfrwt>
<totfact> 0.51230953E+03</totfact>
</mgrwt>
</event>
<event>
 8    1  0.3400573E-004  0.1236838E+03  0.7546771E-02  0.1239031E+00
          3   -1    0    0  501    0  0.00000000000E+00  0.00000000000E+00  0.77510059618E+03  0.77510059618E+03  0.00000000000E+00 0. -1.
         -3   -1    0    0    0  501 -0.00000000000E+00 -0.00000000000E+00 -0.18999270261E+02  0.18999270261E+02  0.00000000000E+00 0.  1.
         23    2    1    2    0    0 -0.14103251668E+02 -0.81510472767E+02  0.38880844392E+03  0.40800697679E+03  0.91950139600E+02 0.  0.
         23    2    1    2    0    0  0.14103251668E+02  0.81510472767E+02  0.36729288200E+03  0.38609288965E+03  0.85561670096E+02 0.  0.
          5    1    4    4  502    0  0.37517404146E+02  0.82205356111E+02  0.32662338501E+03  0.33892506815E+03  0.47000000000E+01 0. -1.
         -5    1    3    3    0  503 -0.89328667270E+01 -0.10147452264E+03  0.30623099824E+03  0.32276367382E+03  0.47000000000E+01 0.  1.
          5    1    3    3  503    0 -0.51703849408E+01  0.19964049872E+02  0.82577445679E+02  0.85243302978E+02  0.47000000000E+01 0. -1.
         -5    1    4    4    0  502 -0.23414152478E+02 -0.69488334331E+00  0.40669496997E+02  0.47167821501E+02  0.47000000000E+01 0.  1.
<mgrwt>
<rscale>  0 0.12249873E+03</rscale>
<asrwt>0</asrwt>
<pdfrwt beam="1">  1        3 0.11924622E+00 0.12368382E+03</pdfrwt>
<pdfrwt beam="2">  1       -3 0.29229652E-02 0.12368382E+03</pdfrwt>
<totfact> 0.72899284E+02</totfact>
</mgrwt>
</event>
<event>
 8    1  0.3400573E-004  0.9422155E+02  0.7546771E-02  0.1293267E+00
          1   -1    0    0  501    0  0.00000000000E+00  0.00000000000E+00  0.60046462863E+02  0.60046462863E+02  0.00000000000E+00 0. -1.
         -1   -1    0    0    0  501 -0.00000000000E+00 -0.00000000000E+00 -0.21813642230E+03  0.21813642230E+03  0.00000000000E+00 0.  1.
         23    2    1    2    0    0  0.17553867312E+02  0.13959075701E+02  0.57611521994E+00  0.93649353979E+02  0.90922359956E+02 0.  0.
         23    2    1    2    0    0 -0.17553867312E+02 -0.13959075701E+02 -0.15866607466E+03  0.18453353118E+03  0.91513424326E+02 0.  0.
          5    1    4    4  502    0 -0.45522301573E+02  0.11496444134E+02 -0.47234514569E+02  0.66765541523E+02  0.47000000000E+01 0. -1.
         -5    1    4    4    0  502  0.27968434261E+02 -0.25455519835E+02 -0.11143156009E+03  0.11776798966E+03  0.47000000000E+01 0.  1.
          5    1    3    3  503    0 -0.27373095836E+02 -0.21736558050E+02 -0.57330810643E+01  0.35731254525E+02  0.47000000000E+01 0. -1.
         -5    1    3    3    0  503  0.44926963148E+02  0.35695633751E+02  0.63091962843E+01  0.57918099454E+02  0.47000000000E+01 0.  1.
<mgrwt>
<rscale>  0 0.94077731E+02</rscale>
<asrwt>0</asrwt>
<pdfrwt beam="1">  1        1 0.92379173E-02 0.94221552E+02</pdfrwt>
<pdfrwt beam="2">  1       -1 0.33559450E-01 0.94221552E+02</pdfrwt>
<totfact> 0.55666297E+03</totfact>
</mgrwt>
</event>
<event>
 8    1  0.3400573E-004  0.1156997E+03  0.7546771E-02  0.1251249E+00
          1   -1    0    0  501    0  0.00000000000E+00  0.00000000000E+00  0.17535009061E+03  0.17535009061E+03  0.00000000000E+00 0. -1.
         -1   -1    0    0    0  501 -0.00000000000E+00 -0.00000000000E+00 -0.84363979600E+02  0.84363979600E+02  0.00000000000E+00 0.  1.
         23    2    1    2    0    0 -0.66973847262E+02 -0.62284189761E+01  0.88370387356E+02  0.14398475875E+03  0.91640580371E+02 0.  0.
         23    2    1    2    0    0  0.66973847262E+02  0.62284189761E+01  0.26157236577E+01  0.11572931146E+03  0.94138951033E+02 0.  0.
          5    1    3    3  502    0  0.17019193331E+01 -0.31732201142E+02  0.43564080309E+01  0.32417547866E+02  0.47000000000E+01 0. -1.
         -5    1    3    3    0  502 -0.68675766595E+02  0.25503782166E+02  0.84013979325E+02  0.11156721088E+03  0.47000000000E+01 0.  1.
          5    1    4    4  503    0  0.45844926080E+02 -0.10348730786E+02  0.45062554165E+02  0.65280757226E+02  0.47000000000E+01 0. -1.
         -5    1    4    4    0  503  0.21128921182E+02  0.16577149762E+02 -0.42446830507E+02  0.50448554238E+02  0.47000000000E+01 0.  1.
<mgrwt>
<rscale>  0 0.11519052E+03</rscale>
<asrwt>0</asrwt>
<pdfrwt beam="1">  1        1 0.26976937E-01 0.11569975E+03</pdfrwt>
<pdfrwt beam="2">  1       -1 0.12979074E-01 0.11569975E+03</pdfrwt>
<totfact> 0.65954054E+03</totfact>
</mgrwt>
</event>
<event>
 7    1  0.3400573E-004  0.1434763E+03  0.7546771E-02  0.1229584E+00
         -1   -1    0    0    0  501 -0.00000000000E+00  0.00000000000E+00  0.96142867911E+02  0.96142867911E+02  0.00000000000E+00 0.  1.
          1   -1    0    0  501    0  0.00000000000E+00 -0.00000000000E+00 -0.15225382286E+03  0.15225382286E+03  0.00000000000E+00 0. -1.
         23    2    1    2    0    0  0.36384159035E+01 -0.13138877348E+02 -0.49088820207E+02  0.10474866827E+03  0.91524330467E+02 0.  0.
          5    1    3    3  502    0  0.10233530740E+01  0.37759134022E+02 -0.74900934052E+01  0.38794212878E+02  0.47000000000E+01 0. -1.
         -5    1    1    2    0  503  0.66540025529E+02 -0.37359194101E+01  0.14127643462E+02  0.68287717790E+02  0.47000000000E+01 0.  1.
          5    1    1    2  503    0 -0.70178441432E+02  0.16874796758E+02 -0.21149778204E+02  0.75360304707E+02  0.47000000000E+01 0. -1.
         -5    1    3    3    0  502  0.26150628294E+01 -0.50898011370E+02 -0.41598726801E+02  0.65954455395E+02  0.47000000000E+01 0.  1.
<mgrwt>
<rscale>  0 0.12857621E+03</rscale>
<asrwt>0</asrwt>
<pdfrwt beam="1">  1        1 0.23423665E-01 0.14347628E+03</pdfrwt>
<pdfrwt beam="2">  1       -1 0.14791210E-01 0.14347628E+03</pdfrwt>
<totfact> 0.65204600E+03</totfact>
</mgrwt>
</event>
<event>
 8    1  0.3400573E-004  0.1602831E+03  0.7546771E-02  0.1188838E+00
         -2   -1    0    0    0  501 -0.00000000000E+00  0.00000000000E+00  0.40887306095E+03  0.40887306095E+03  0.00000000000E+00 0.  1.
          2   -1    0    0  501    0  0.00000000000E+00 -0.00000000000E+00 -0.62227928626E+02  0.62227928626E+02  0.00000000000E+00 0. -1.
         23    2    1    2    0    0 -0.20587782887E+02 -0.12779571867E+03  0.17947636006E+03  0.24062923260E+03  0.94525452913E+02 0.  0.
         23    2    1    2    0    0  0.20587782887E+02  0.12779571867E+03  0.16716877227E+03  0.23047175697E+03  0.91740012137E+02 0.  0.
          5    1    3    3  502    0 -0.43583554792E+02 -0.67755674893E+02  0.14871795034E+03  0.16920247186E+03  0.47000000000E+01 0. -1.
         -5    1    3    3    0  502  0.22995771906E+02 -0.60040043777E+02  0.30758409715E+02  0.71426760744E+02  0.47000000000E+01 0.  1.
          5    1    4    4  503    0 -0.18315498591E+02  0.69520788787E+02  0.33446470168E+02  0.79431441690E+02  0.47000000000E+01 0. -1.
         -5    1    4    4    0  503  0.38903281477E+02  0.58274929883E+02  0.13372230210E+03  0.15104031528E+03  0.47000000000E+01 0.  1.
<mgrwt>
<rscale>  0 0.15987483E+03</rscale>
<asrwt>0</asrwt>
<pdfrwt beam="1">  1        2 0.95735277E-02 0.16028307E+03</pdfrwt>
<pdfrwt beam="2">  1       -2 0.62903546E-01 0.16028307E+03</pdfrwt>
<totfact> 0.15839365E+03</totfact>
</mgrwt>
</event>
<event>
 8    1  0.3400573E-004  0.1359405E+03  0.7546771E-02  0.1222213E+00
          4   -1    0    0  501    0  0.00000000000E+00  0.00000000000E+00  0.50402957387E+03  0.50402957387E+03  0.00000000000E+00 0. -1.
         -4   -1    0    0    0  501 -0.00000000000E+00 -0.00000000000E+00 -0.65879973808E+02  0.65879973808E+02  0.00000000000E+00 0.  1.
         23    2    1    2    0    0  0.74687291009E+02  0.46638882869E+02  0.25625383099E+02  0.13833463248E+03  0.10356849642E+03 0.  0.
         23    2    1    2    0    0 -0.74687291009E+02 -0.46638882869E+02  0.41252421696E+03  0.43157491519E+03  0.91254046549E+02 0.  0.
          5    1    3    3  502    0  0.80854086292E+02  0.21527875588E+02  0.53972472453E+02  0.99679237960E+02  0.47000000000E+01 0. -1.
         -5    1    3    3    0  502 -0.61667952834E+01  0.25111007281E+02 -0.28347089354E+02  0.38655394522E+02  0.47000000000E+01 0.  1.
          5    1    4    4  503    0 -0.16213435980E+01 -0.48869094909E+02  0.22393776695E+03  0.22926192588E+03  0.47000000000E+01 0. -1.
         -5    1    4    4    0  503 -0.73065947411E+02  0.22302120396E+01  0.18858645001E+03  0.20231298931E+03  0.47000000000E+01 0.  1.
<mgrwt>
<rscale>  0 0.13359789E+03</rscale>
<asrwt>0</asrwt>
<pdfrwt beam="1">  1        4 0.77543009E-01 0.13594047E+03</pdfrwt>
<pdfrwt beam="2">  1       -4 0.10135381E-01 0.13594047E+03</pdfrwt>
<totfact> 0.18884990E+02</totfact>
</mgrwt>
</event>
<event>
 8    1  0.3400573E-004  0.1196498E+03  0.7546771E-02  0.1248377E+00
          1   -1    0    0  501    0  0.00000000000E+00  0.00000000000E+00  0.54444431630E+03  0.54444431630E+03  0.00000000000E+00 0. -1.
         -1   -1    0    0    0  501 -0.00000000000E+00 -0.00000000000E+00 -0.38332269567E+02  0.38332269567E+02  0.00000000000E+00 0.  1.
         23    2    1    2    0    0  0.70397556384E+02 -0.29052784391E+02  0.82335243516E+02  0.14524178835E+03  0.92283284146E+02 0.  0.
         23    2    1    2    0    0 -0.70397556384E+02  0.29052784391E+02  0.42377680322E+03  0.43753479752E+03  0.77782002209E+02 0.  0.
          5    1    3    3  502    0 -0.10310541481E+02 -0.26974220976E+02  0.50433164353E+02  0.58305316477E+02  0.47000000000E+01 0. -1.
         -5    1    4    4    0  503 -0.24346195549E+02  0.22467914138E+02  0.46038800379E+02  0.56914018869E+02  0.47000000000E+01 0.  1.
          5    1    4    4  503    0 -0.46051360835E+02  0.65848702535E+01  0.37773800284E+03  0.38062077865E+03  0.47000000000E+01 0. -1.
         -5    1    3    3    0  502  0.80708097865E+02 -0.20785634153E+01  0.31902079163E+02  0.86936471873E+02  0.47000000000E+01 0.  1.
<mgrwt>
<rscale>  0 0.11685533E+03</rscale>
<asrwt>0</asrwt>
<pdfrwt beam="1">  1        1 0.83760659E-01 0.11964984E+03</pdfrwt>
<pdfrwt beam="2">  1       -1 0.58972726E-02 0.11964984E+03</pdfrwt>
<totfact> 0.52857343E+03</totfact>
</mgrwt>
</event>
<event>
 8    1  0.3400573E-004  0.1009615E+03  0.7546771E-02  0.1280102E+00
         -1   -1    0    0    0  501 -0.00000000000E+00  0.00000000000E+00  0.64234146288E+03  0.64234146288E+03  0.00000000000E+00 0.  1.
          1   -1    0    0  501    0  0.00000000000E+00 -0.00000000000E+00 -0.20939161993E+02  0.20939161993E+02  0.00000000000E+00 0. -1.
         23    2    1    2    0    0 -0.37963404881E+02  0.19840676910E+02  0.48620352200E+03  0.49657535744E+03  0.91424002574E+02 0.  0.
         23    2    1    2    0    0  0.37963404881E+02 -0.19840676910E+02  0.13519877889E+03  0.16670526743E+03  0.87618855307E+02 0.  0.
          5    1    3    3  502    0 -0.52807822204E+02  0.43084642106E+02  0.40415222794E+03  0.40988543011E+03  0.47000000000E+01 0.  1.
         -5    1    3    3    0  502  0.14844417324E+02 -0.23243965196E+02  0.82051294058E+02  0.86689927329E+02  0.47000000000E+01 0. -1.
          5    1    4    4  503    0  0.45208061814E+02  0.24269150325E+02  0.59900528175E+02  0.79012174923E+02  0.47000000000E+01 0. -1.
         -5    1    4    4    0  503 -0.72446569331E+01 -0.44109827235E+02  0.75298250718E+02  0.87693092510E+02  0.47000000000E+01 0.  1.
<mgrwt>
<rscale>  0 0.10009224E+03</rscale>
<asrwt>0</asrwt>
<pdfrwt beam="1">  1        1 0.32214100E-02 0.10096148E+03</pdfrwt>
<pdfrwt beam="2">  1       -1 0.98821748E-01 0.10096148E+03</pdfrwt>
<totfact> 0.30156630E+03</totfact>
</mgrwt>
</event>
<event>
 8    1  0.3400573E-004  0.1319323E+03  0.7546771E-02  0.1224788E+00
         -1   -1    0    0    0  501 -0.00000000000E+00  0.00000000000E+00  0.45492122830E+02  0.45492122830E+02  0.00000000000E+00 0.  1.
          1   -1    0    0  501    0  0.00000000000E+00 -0.00000000000E+00 -0.40274373828E+03  0.40274373828E+03  0.00000000000E+00 0. -1.
         23    2    1    2    0    0  0.39871574711E+02 -0.84346080460E+02 -0.12654957492E+03  0.18247361190E+03  0.92616523200E+02 0.  0.
         23    2    1    2    0    0 -0.39871574711E+02  0.84346080460E+02 -0.23070204053E+03  0.26576224921E+03  0.93285249851E+02 0.  0.
          5    1    4    4  502    0 -0.72730365834E+01  0.89867753733E+02 -0.20371742243E+03  0.22282726140E+03  0.47000000000E+01 0. -1.
         -5    1    4    4    0  502 -0.32598538127E+02 -0.55216732723E+01 -0.26984618096E+02  0.42934987802E+02  0.47000000000E+01 0.  1.
          5    1    3    3  503    0 -0.22009138539E+02 -0.14717469755E+01 -0.46224943632E+02  0.51433487459E+02  0.47000000000E+01 0. -1.
         -5    1    3    3    0  503  0.61880713250E+02 -0.82874333485E+02 -0.80324631290E+02  0.13104012445E+03  0.47000000000E+01 0.  1.
<mgrwt>
<rscale>  0 0.13181418E+03</rscale>
<asrwt>0</asrwt>
<pdfrwt beam="1">  1        1 0.61960574E-01 0.13193234E+03</pdfrwt>
<pdfrwt beam="2">  1       -1 0.69987882E-02 0.13193234E+03</pdfrwt>
<totfact> 0.60704465E+03</totfact>
</mgrwt>
</event>
<event>
 8    1  0.3400573E-004  0.9302479E+02  0.7546771E-02  0.1298351E+00
         -1   -1    0    0    0  501 -0.00000000000E+00  0.00000000000E+00  0.18291226942E+02  0.18291226942E+02  0.00000000000E+00 0.  1.
          1   -1    0    0  501    0  0.00000000000E+00 -0.00000000000E+00 -0.45941340988E+03  0.45941340988E+03  0.00000000000E+00 0. -1.
         23    2    1    2    0    0  0.83858908949E+01  0.75499301279E+01 -0.19282590571E+03  0.21409213431E+03  0.92337898237E+02 0.  0.
         23    2    1    2    0    0 -0.83858908949E+01 -0.75499301279E+01 -0.24829627723E+03  0.26361250251E+03  0.87824743571E+02 0.  0.
          5    1    3    3  502    0  0.14143437808E+02  0.28294564202E+02 -0.18904916926E+03  0.19173496706E+03  0.47000000000E+01 0. -1.
         -5    1    4    4    0  503  0.73543082134E+01 -0.22707796674E+02 -0.23758402589E+03  0.23882627418E+03  0.47000000000E+01 0.  1.
          5    1    4    4  503    0 -0.15740199108E+02  0.15157866546E+02 -0.10712251336E+02  0.24786228331E+02  0.47000000000E+01 0. -1.
         -5    1    3    3    0  502 -0.57575469128E+01 -0.20744634074E+02 -0.37767364506E+01  0.22357167252E+02  0.47000000000E+01 0.  1.
<mgrwt>
<rscale>  0 0.91884461E+02</rscale>
<asrwt>0</asrwt>
<pdfrwt beam="1">  1        1 0.70678987E-01 0.93024793E+02</pdfrwt>
<pdfrwt beam="2">  1       -1 0.28140349E-02 0.93024793E+02</pdfrwt>
<totfact> 0.19015675E+04</totfact>
</mgrwt>
</event>
<event>
 8    1  0.3400573E-004  0.1332248E+03  0.7546771E-02  0.1228730E+00
          1   -1    0    0  501    0  0.00000000000E+00  0.00000000000E+00  0.33036407902E+03  0.33036407902E+03  0.00000000000E+00 0. -1.
         -1   -1    0    0    0  501 -0.00000000000E+00 -0.00000000000E+00 -0.11355209182E+03  0.11355209182E+03  0.00000000000E+00 0.  1.
         23    2    1    2    0    0 -0.64257706954E+02  0.35832235479E+02 -0.63406161052E+02  0.13364039858E+03  0.91795494830E+02 0.  0.
         23    2    1    2    0    0  0.64257706954E+02 -0.35832235479E+02  0.28021814825E+03  0.31027577227E+03  0.11106683684E+03 0.  0.
          5    1    4    4  502    0  0.33236349789E+02 -0.74238088954E+02  0.20009717864E+03  0.21604841980E+03  0.47000000000E+01 0. -1.
         -5    1    4    4    0  502  0.31021357166E+02  0.38405853475E+02  0.80120969611E+02  0.94227352467E+02  0.47000000000E+01 0.  1.
          5    1    3    3  503    0  0.22586421526E+02  0.12970846907E+02 -0.22959236933E+02  0.35037206900E+02  0.47000000000E+01 0. -1.
         -5    1    3    3    0  503 -0.86844128480E+02  0.22861388572E+02 -0.40446924119E+02  0.98603191680E+02  0.47000000000E+01 0.  1.
<mgrwt>
<rscale>  0 0.12914527E+03</rscale>
<asrwt>0</asrwt>
<pdfrwt beam="1">  1        1 0.50825242E-01 0.13322479E+03</pdfrwt>
<pdfrwt beam="2">  1       -1 0.17469553E-01 0.13322479E+03</pdfrwt>
<totfact> 0.19077479E+03</totfact>
</mgrwt>
</event>
<event>
 8    1  0.3400573E-004  0.1093141E+03  0.7546771E-02  0.1262044E+00
          1   -1    0    0  501    0  0.00000000000E+00  0.00000000000E+00  0.22645095028E+03  0.22645095028E+03  0.00000000000E+00 0. -1.
         -1   -1    0    0    0  501 -0.00000000000E+00 -0.00000000000E+00 -0.75568887056E+03  0.75568887056E+03  0.00000000000E+00 0.  1.
         23    2    1    2    0    0 -0.28479717715E+01 -0.54588234335E+02 -0.73833795200E+03  0.74638629104E+03  0.94665610502E+02 0.  0.
         23    2    1    2    0    0  0.28479717715E+01  0.54588234335E+02  0.20910003172E+03  0.23575352980E+03  0.94174929129E+02 0.  0.
          5    1    3    3  502    0 -0.46188231581E+02 -0.39266747918E+02 -0.34195795198E+03  0.34732198483E+03  0.47000000000E+01 0. -1.
         -5    1    4    4    0  503  0.44459733798E+02  0.18650938189E+02  0.13453180166E+03  0.14298748575E+03  0.47000000000E+01 0.  1.
          5    1    4    4  503    0 -0.41611762027E+02  0.35937296146E+02  0.74568230060E+02  0.92766044043E+02  0.47000000000E+01 0. -1.
         -5    1    3    3    0  502  0.43340259809E+02 -0.15321486417E+02 -0.39638000002E+03  0.39906430620E+03  0.47000000000E+01 0.  1.
<mgrwt>
<rscale>  0 0.10920774E+03</rscale>
<asrwt>0</asrwt>
<pdfrwt beam="1">  1        1 0.34838608E-01 0.10931406E+03</pdfrwt>
<pdfrwt beam="2">  1       -1 0.11625983E+00 0.10931406E+03</pdfrwt>
<totfact> 0.93526452E+01</totfact>
</mgrwt>
</event>
<event>
 8    1  0.3400573E-004  0.1041879E+03  0.7546771E-02  0.1274647E+00
          3   -1    0    0  501    0  0.00000000000E+00  0.00000000000E+00  0.33087547898E+03  0.33087547898E+03  0.00000000000E+00 0. -1.
         -3   -1    0    0    0  501 -0.00000000000E+00 -0.00000000000E+00 -0.57967808010E+02  0.57967808010E+02  0.00000000000E+00 0.  1.
         23    2    1    2    0    0 -0.20572635529E+02 -0.33273237635E+02  0.19193271300E+01  0.98516241940E+02  0.90395931513E+02 0.  0.
         23    2    1    2    0    0  0.20572635529E+02  0.33273237635E+02  0.27098834384E+03  0.29032704505E+03  0.96564843061E+02 0.  0.
          5    1    3    3  502    0  0.30953975087E+02 -0.75447063714E+01  0.20071605721E+02  0.37947734111E+02  0.47000000000E+01 0. -1.
         -5    1    4    4    0  503  0.40908686853E+02 -0.19372224766E+02  0.14979289090E+03  0.15655287898E+03  0.47000000000E+01 0.  1.
          5    1    4    4  503    0 -0.20336051324E+02  0.52645462400E+02  0.12119545293E+03  0.13377416607E+03  0.47000000000E+01 0. -1.
         -5    1    3    3    0  502 -0.51526610617E+02 -0.25728531263E+02 -0.18152278591E+02  0.60568507829E+02  0.47000000000E+01 0.  1.
<mgrwt>
<rscale>  0 0.10273518E+03</rscale>
<asrwt>0</asrwt>
<pdfrwt beam="1">  1        3 0.50903918E-01 0.10418786E+03</pdfrwt>
<pdfrwt beam="2">  1       -3 0.89181246E-02 0.10418786E+03</pdfrwt>
<totfact> 0.76161111E+02</totfact>
</mgrwt>
</event>
<event>
 8    1  0.3400573E-004  0.1193253E+03  0.7546771E-02  0.1244927E+00
          1   -1    0    0  501    0  0.00000000000E+00  0.00000000000E+00  0.28643125063E+03  0.28643125063E+03  0.00000000000E+00 0. -1.
         -1   -1    0    0    0  501 -0.00000000000E+00 -0.00000000000E+00 -0.93383355044E+02  0.93383355044E+02  0.00000000000E+00 0.  1.
         23    2    1    2    0    0  0.25774464094E+02  0.71375643234E+02 -0.34755266050E+02  0.12265162434E+03  0.89870389943E+02 0.  0.
         23    2    1    2    0    0 -0.25774464094E+02 -0.71375643234E+02  0.22780316164E+03  0.25716298134E+03  0.92085357526E+02 0.  0.
          5    1    3    3  502    0  0.54454561107E+02  0.26552857388E+02 -0.37398299168E+01  0.60880454898E+02  0.47000000000E+01 0. -1.
         -5    1    4    4    0  503 -0.47742511854E+02 -0.68869561902E+02  0.11648544636E+03  0.14357337221E+03  0.47000000000E+01 0.  1.
          5    1    4    4  503    0  0.21968047760E+02 -0.25060813322E+01  0.11131771528E+03  0.11358960912E+03  0.47000000000E+01 0. -1.
         -5    1    3    3    0  502 -0.28680097012E+02  0.44822785846E+02 -0.31015436134E+02  0.61771169442E+02  0.47000000000E+01 0.  1.
<mgrwt>
<rscale>  0 0.11889775E+03</rscale>
<asrwt>0</asrwt>
<pdfrwt beam="1">  1        1 0.44066346E-01 0.11932526E+03</pdfrwt>
<pdfrwt beam="2">  1       -1 0.14366670E-01 0.11932526E+03</pdfrwt>
<totfact> 0.30801932E+03</totfact>
</mgrwt>
</event>
<event>
 8    1  0.3400573E-004  0.9718834E+02  0.7546771E-02  0.1288179E+00
         -2   -1    0    0    0  501 -0.00000000000E+00  0.00000000000E+00  0.24747353962E+03  0.24747353962E+03  0.00000000000E+00 0.  1.
          2   -1    0    0  501    0  0.00000000000E+00 -0.00000000000E+00 -0.38311016077E+02  0.38311016077E+02  0.00000000000E+00 0. -1.
         23    2    1    2    0    0 -0.14809488324E+02  0.27390594469E+02  0.75107076705E+02  0.12020546218E+03  0.88536515394E+02 0.  0.
         23    2    1    2    0    0  0.14809488324E+02 -0.27390594469E+02  0.13405544683E+03  0.16557909351E+03  0.92065236499E+02 0.  0.
          5    1    3    3  502    0  0.37212781664E+02  0.12199234820E+02  0.32505235378E+02  0.51110593583E+02  0.47000000000E+01 0. -1.
         -5    1    4    4    0  503 -0.24812125290E+02 -0.13926964383E+02  0.11639747307E+03  0.11991690305E+03  0.47000000000E+01 0.  1.
          5    1    4    4  503    0  0.39621613614E+02 -0.13463630086E+02  0.17657973759E+02  0.45662190461E+02  0.47000000000E+01 0. -1.
         -5    1    3    3    0  502 -0.52022269988E+02  0.15191359649E+02  0.42601841327E+02  0.69094868602E+02  0.47000000000E+01 0.  1.
<mgrwt>
<rscale>  0 0.96343410E+02</rscale>
<asrwt>0</asrwt>
<pdfrwt beam="1">  1        2 0.58940026E-02 0.97188340E+02</pdfrwt>
<pdfrwt beam="2">  1       -2 0.38072851E-01 0.97188340E+02</pdfrwt>
<totfact> 0.75676980E+03</totfact>
</mgrwt>
</event>
<event>
 8    1  0.3400573E-004  0.9530612E+02  0.7546771E-02  0.1292392E+00
          1   -1    0    0  501    0  0.00000000000E+00  0.00000000000E+00  0.35131565055E+02  0.35131565055E+02  0.00000000000E+00 0. -1.
         -1   -1    0    0    0  501 -0.00000000000E+00 -0.00000000000E+00 -0.26696480681E+03  0.26696480681E+03  0.00000000000E+00 0.  1.
         23    2    1    2    0    0  0.14523290052E+02 -0.17780442287E+02 -0.15251665759E+03  0.17810291872E+03  0.89063172701E+02 0.  0.
         23    2    1    2    0    0 -0.14523290052E+02  0.17780442287E+02 -0.79316584168E+02  0.12399345315E+03  0.92499653071E+02 0.  0.
          5    1    3    3  502    0 -0.22123002390E+02 -0.27270744076E+02 -0.21042531898E+02  0.41206781795E+02  0.47000000000E+01 0. -1.
         -5    1    3    3    0  502  0.36646292443E+02  0.94903017897E+01 -0.13147412569E+03  0.13689613692E+03  0.47000000000E+01 0.  1.
          5    1    4    4  503    0 -0.38917383288E+02  0.40406158961E+02 -0.28572013391E+02  0.63132165757E+02  0.47000000000E+01 0. -1.
         -5    1    4    4    0  503  0.24394093236E+02 -0.22625716674E+02 -0.50744570777E+02  0.60861287394E+02  0.47000000000E+01 0.  1.
<mgrwt>
<rscale>  0 0.94462080E+02</rscale>
<asrwt>0</asrwt>
<pdfrwt beam="1">  1        1 0.54048560E-02 0.95306117E+02</pdfrwt>
<pdfrwt beam="2">  1       -1 0.41071510E-01 0.95306117E+02</pdfrwt>
<totfact> 0.80535254E+03</totfact>
</mgrwt>
</event>
<event>
 8    1  0.3400573E-004  0.9511609E+02  0.7546771E-02  0.1291802E+00
         -2   -1    0    0    0  501 -0.00000000000E+00  0.00000000000E+00  0.12637251678E+03  0.12637251678E+03  0.00000000000E+00 0.  1.
          2   -1    0    0  501    0  0.00000000000E+00 -0.00000000000E+00 -0.10183596516E+03  0.10183596516E+03  0.00000000000E+00 0. -1.
         23    2    1    2    0    0  0.16565500998E+02 -0.22729189167E+02  0.75575014486E+02  0.12026407074E+03  0.89223494847E+02 0.  0.
         23    2    1    2    0    0 -0.16565500998E+02  0.22729189167E+02 -0.51038462869E+02  0.10794441121E+03  0.90862750096E+02 0.  0.
          5    1    3    3  502    0  0.41858037841E+02 -0.25986884110E+02  0.79888295715E+02  0.93976823046E+02  0.47000000000E+01 0. -1.
         -5    1    4    4    0  503  0.21723997022E+02  0.24178961353E+02  0.11204961312E+02  0.34701518363E+02  0.47000000000E+01 0.  1.
          5    1    4    4  503    0 -0.38289498021E+02 -0.14497721860E+01 -0.62243424181E+02  0.73242892842E+02  0.47000000000E+01 0. -1.
         -5    1    3    3    0  502 -0.25292536842E+02  0.32576949435E+01 -0.43132812295E+01  0.26287247692E+02  0.47000000000E+01 0.  1.
<mgrwt>
<rscale>  0 0.94722483E+02</rscale>
<asrwt>0</asrwt>
<pdfrwt beam="1">  1        2 0.15667072E-01 0.95116093E+02</pdfrwt>
<pdfrwt beam="2">  1       -2 0.19441926E-01 0.95116093E+02</pdfrwt>
<totfact> 0.74944742E+03</totfact>
</mgrwt>
</event>
<event>
 8    1  0.3400573E-004  0.1041739E+03  0.7546771E-02  0.1275196E+00
          3   -1    0    0  501    0  0.00000000000E+00  0.00000000000E+00  0.52684583896E+03  0.52684583896E+03  0.00000000000E+00 0. -1.
         -3   -1    0    0    0  501 -0.00000000000E+00 -0.00000000000E+00 -0.34468946565E+02  0.34468946565E+02  0.00000000000E+00 0.  1.
         23    2    1    2    0    0 -0.67594280319E+01 -0.86157637567E+01  0.42775038041E+03  0.43872286879E+03  0.96888835296E+02 0.  0.
         23    2    1    2    0    0  0.67594280319E+01  0.86157637567E+01  0.64626511982E+02  0.12259191673E+03  0.10359667343E+03 0.  0.
          5    1    3    3  502    0 -0.43823401902E+02 -0.10511767868E+02  0.11282663821E+03  0.12158506532E+03  0.47000000000E+01 0. -1.
         -5    1    3    3    0  502  0.37063973870E+02  0.18960041114E+01  0.31492374220E+03  0.31713780348E+03  0.47000000000E+01 0.  1.
          5    1    4    4  503    0 -0.45029151518E+02  0.20920564111E+02  0.23349060413E+02  0.55068712636E+02  0.47000000000E+01 0. -1.
         -5    1    4    4    0  503  0.51788579550E+02 -0.12304800355E+02  0.41277451568E+02  0.67523204097E+02  0.47000000000E+01 0.  1.
<mgrwt>
<rscale>  0 0.10246525E+03</rscale>
<asrwt>0</asrwt>
<pdfrwt beam="1">  1        3 0.81053200E-01 0.10417385E+03</pdfrwt>
<pdfrwt beam="2">  1       -3 0.53029152E-02 0.10417385E+03</pdfrwt>
<totfact> 0.66799326E+02</totfact>
</mgrwt>
</event>
<event>
 8    1  0.3400573E-004  0.1257123E+03  0.7546771E-02  0.1234007E+00
          3   -1    0    0  501    0  0.00000000000E+00  0.00000000000E+00  0.33435800651E+02  0.33435800651E+02  0.00000000000E+00 0. -1.
         -3   -1    0    0    0  501 -0.00000000000E+00 -0.00000000000E+00 -0.47471971613E+03  0.47471971613E+03  0.00000000000E+00 0.  1.
         23    2    1    2    0    0  0.79980356669E+02 -0.31468024192E+02 -0.20223107639E+03  0.23811967948E+03  0.91741372872E+02 0.  0.
         23    2    1    2    0    0 -0.79980356669E+02  0.31468024192E+02 -0.23905283909E+03  0.27003583731E+03  0.91575103349E+02 0.  0.
          5    1    4    4  502    0 -0.57747231700E+02  0.63644895906E+02 -0.16964197599E+03  0.19022593294E+03  0.47000000000E+01 0. -1.
         -5    1    3    3    0  503  0.60645537154E+02 -0.98367202747E+01 -0.19927071023E+03  0.20857983651E+03  0.47000000000E+01 0.  1.
          5    1    3    3  503    0  0.19334819515E+02 -0.21631303917E+02 -0.29603661622E+01  0.29539842969E+02  0.47000000000E+01 0. -1.
         -5    1    4    4    0  502 -0.22233124969E+02 -0.32176871714E+02 -0.69410863103E+02  0.79809904372E+02  0.47000000000E+01 0.  1.
<mgrwt>
<rscale>  0 0.12568193E+03</rscale>
<asrwt>0</asrwt>
<pdfrwt beam="1">  1        3 0.51439697E-02 0.12571226E+03</pdfrwt>
<pdfrwt beam="2">  1       -3 0.73033797E-01 0.12571226E+03</pdfrwt>
<totfact> 0.90274959E+02</totfact>
</mgrwt>
</event>
<event>
 8    1  0.3400573E-004  0.9723739E+02  0.7546771E-02  0.1287440E+00
         -4   -1    0    0    0  501 -0.00000000000E+00  0.00000000000E+00  0.30533772936E+02  0.30533772936E+02  0.00000000000E+00 0.  1.
          4   -1    0    0  501    0  0.00000000000E+00 -0.00000000000E+00 -0.30713477565E+03  0.30713477565E+03  0.00000000000E+00 0. -1.
         23    2    1    2    0    0 -0.11334142200E+01 -0.24916561530E+02 -0.15714362783E+03  0.18363876742E+03  0.91689462119E+02 0.  0.
         23    2    1    2    0    0  0.11334142200E+01  0.24916561530E+02 -0.11945737488E+03  0.15402978117E+03  0.93983984844E+02 0.  0.
          5    1    4    4  502    0 -0.41066931507E+02  0.32438755311E+02 -0.79145983120E+02  0.94999696597E+02  0.47000000000E+01 0. -1.
         -5    1    4    4    0  502  0.42200345727E+02 -0.75221937814E+01 -0.40311391756E+02  0.59030084568E+02  0.47000000000E+01 0.  1.
          5    1    3    3  503    0 -0.28217836769E+02 -0.20188478532E+02 -0.15109358044E+03  0.15509732759E+03  0.47000000000E+01 0. -1.
         -5    1    3    3    0  503  0.27084422549E+02 -0.47280829981E+01 -0.60500473951E+01  0.28541439823E+02  0.47000000000E+01 0.  1.
<mgrwt>
<rscale>  0 0.96678605E+02</rscale>
<asrwt>0</asrwt>
<pdfrwt beam="1">  1        4 0.47251502E-01 0.97237385E+02</pdfrwt>
<pdfrwt beam="2">  1       -4 0.46975038E-02 0.97237385E+02</pdfrwt>
<totfact> 0.17481065E+03</totfact>
</mgrwt>
</event>
<event>
 7    1  0.3400573E-004  0.2387856E+03  0.7546771E-02  0.1152406E+00
          2   -1    0    0  501    0  0.00000000000E+00  0.00000000000E+00  0.76437861420E+02  0.76437861420E+02  0.00000000000E+00 0. -1.
         -2   -1    0    0    0  501 -0.00000000000E+00 -0.00000000000E+00 -0.53588347071E+03  0.53588347071E+03  0.00000000000E+00 0.  1.
         23    2    1    2    0    0  0.31989410219E+02 -0.46020754182E+02 -0.31377957188E+03  0.33261223838E+03  0.95037093879E+02 0.  0.
          5    1    1    2  502    0  0.21524630614E+02  0.13258685382E+03 -0.62650260299E+02  0.14828934096E+03  0.47000000000E+01 0. -1.
         -5    1    1    2    0  502 -0.53514040832E+02 -0.86566099635E+02 -0.83015777117E+02  0.13141975279E+03  0.47000000000E+01 0.  1.
          5    1    3    3  503    0  0.32207212440E+02 -0.66830130781E+02 -0.14957995773E+03  0.16703240604E+03  0.47000000000E+01 0. -1.
         -5    1    3    3    0  503 -0.21780222164E+00  0.20809376600E+02 -0.16419961414E+03  0.16557983234E+03  0.47000000000E+01 0.  1.
<mgrwt>
<rscale>  0 0.19687117E+03</rscale>
<asrwt>0</asrwt>
<pdfrwt beam="1">  1        2 0.11759671E-01 0.23878564E+03</pdfrwt>
<pdfrwt beam="2">  1       -2 0.82443614E-01 0.23878564E+03</pdfrwt>
<totfact> 0.69602003E+02</totfact>
</mgrwt>
</event>
<event>
 8    1  0.3400573E-004  0.9551204E+02  0.7546771E-02  0.1294469E+00
          1   -1    0    0  501    0  0.00000000000E+00  0.00000000000E+00  0.78233790156E+03  0.78233790156E+03  0.00000000000E+00 0. -1.
         -1   -1    0    0    0  501 -0.00000000000E+00 -0.00000000000E+00 -0.12175369947E+02  0.12175369947E+02  0.00000000000E+00 0.  1.
         23    2    1    2    0    0 -0.38938186651E+02 -0.62576075794E+01  0.26341527745E+03  0.28019664063E+03  0.86989706269E+02 0.  0.
         23    2    1    2    0    0  0.38938186651E+02  0.62576075794E+01  0.50674725417E+03  0.51431663088E+03  0.78571478012E+02 0.  0.
          5    1    4    4  502    0  0.21955915664E+02 -0.31686960931E+02  0.34758359659E+03  0.34974644007E+03  0.47000000000E+01 0. -1.
         -5    1    3    3    0  503 -0.64956583546E+02 -0.38994298091E+01  0.14757123247E+03  0.16135030819E+03  0.47000000000E+01 0.  1.
          5    1    3    3  503    0  0.26018396896E+02 -0.23581777703E+01  0.11584404498E+03  0.11884633245E+03  0.47000000000E+01 0. -1.
         -5    1    4    4    0  502  0.16982270986E+02  0.37944568511E+02  0.15916365758E+03  0.16457019081E+03  0.47000000000E+01 0.  1.
<mgrwt>
<rscale>  0 0.93552997E+02</rscale>
<asrwt>0</asrwt>
<pdfrwt beam="1">  1        1 0.12035964E+00 0.95512036E+02</pdfrwt>
<pdfrwt beam="2">  1       -1 0.18731344E-02 0.95512036E+02</pdfrwt>
<totfact> 0.16639116E+04</totfact>
</mgrwt>
</event>
<event>
 8    1  0.3400573E-004  0.1463347E+03  0.7546771E-02  0.1205107E+00
         -1   -1    0    0    0  501 -0.00000000000E+00  0.00000000000E+00  0.32124259234E+02  0.32124259234E+02  0.00000000000E+00 0.  1.
          1   -1    0    0  501    0  0.00000000000E+00 -0.00000000000E+00 -0.85694968082E+03  0.85694968082E+03  0.00000000000E+00 0. -1.
         23    2    1    2    0    0 -0.61184195325E+02  0.95750070519E+02 -0.62217696360E+03  0.63911347806E+03  0.91925415634E+02 0.  0.
         23    2    1    2    0    0  0.61184195325E+02 -0.95750070519E+02 -0.20264845799E+03  0.24996046199E+03  0.92207663860E+02 0.  0.
          5    1    3    3  502    0  0.18919055275E+02  0.49470701970E+02 -0.24869548328E+03  0.25431636677E+03  0.47000000000E+01 0. -1.
         -5    1    3    3    0  502 -0.80103250599E+02  0.46279368548E+02 -0.37348148032E+03  0.38479711128E+03  0.47000000000E+01 0.  1.
          5    1    4    4  503    0  0.55533124239E+02 -0.48991671511E+02 -0.18520297239E+03  0.19951526946E+03  0.47000000000E+01 0. -1.
         -5    1    4    4    0  503  0.56510710862E+01 -0.46758399008E+02 -0.17445485594E+02  0.50445192534E+02  0.47000000000E+01 0.  1.
<mgrwt>
<rscale>  0 0.14629023E+03</rscale>
<asrwt>0</asrwt>
<pdfrwt beam="1">  1        1 0.13183840E+00 0.14633467E+03</pdfrwt>
<pdfrwt beam="2">  1       -1 0.49421943E-02 0.14633467E+03</pdfrwt>
<totfact> 0.36329309E+03</totfact>
</mgrwt>
</event>
<event>
 8    1  0.3400573E-004  0.1058588E+03  0.7546771E-02  0.1269308E+00
          1   -1    0    0  501    0  0.00000000000E+00  0.00000000000E+00  0.12726214305E+03  0.12726214305E+03  0.00000000000E+00 0. -1.
         -1   -1    0    0    0  501 -0.00000000000E+00 -0.00000000000E+00 -0.14979019831E+03  0.14979019831E+03  0.00000000000E+00 0.  1.
         23    2    1    2    0    0  0.47773343285E+02 -0.13739644773E+02 -0.10118976399E+03  0.14516699764E+03  0.91449541831E+02 0.  0.
         23    2    1    2    0    0 -0.47773343285E+02  0.13739644773E+02  0.78661708731E+02  0.13188534372E+03  0.93461271663E+02 0.  0.
          5    1    4    4  502    0 -0.69055991583E+02  0.32305843102E+02  0.49515682386E+02  0.91029062800E+02  0.47000000000E+01 0. -1.
         -5    1    3    3    0  503  0.18441824694E+02 -0.34380694718E+02 -0.10166029928E+03  0.10899100658E+03  0.47000000000E+01 0.  1.
          5    1    3    3  503    0  0.29331518591E+02  0.20641049945E+02  0.47053528395E+00  0.36175991060E+02  0.47000000000E+01 0. -1.
         -5    1    4    4    0  502  0.21282648299E+02 -0.18566198329E+02  0.29146026345E+02  0.40856280921E+02  0.47000000000E+01 0.  1.
<mgrwt>
<rscale>  0 0.10541300E+03</rscale>
<asrwt>0</asrwt>
<pdfrwt beam="1">  1        1 0.19578791E-01 0.10585877E+03</pdfrwt>
<pdfrwt beam="2">  1       -1 0.23044646E-01 0.10585877E+03</pdfrwt>
<totfact> 0.39597435E+03</totfact>
</mgrwt>
</event>
<event>
 8    1  0.3400573E-004  0.1042052E+03  0.7546771E-02  0.1275019E+00
         -1   -1    0    0    0  501 -0.00000000000E+00  0.00000000000E+00  0.50483892704E+03  0.50483892704E+03  0.00000000000E+00 0.  1.
          1   -1    0    0  501    0  0.00000000000E+00 -0.00000000000E+00 -0.27087950715E+02  0.27087950715E+02  0.00000000000E+00 0. -1.
         23    2    1    2    0    0 -0.35643334666E+02 -0.16864794598E+02  0.37866353256E+03  0.39274010921E+03  0.96456487053E+02 0.  0.
         23    2    1    2    0    0  0.35643334666E+02  0.16864794598E+02  0.99087443773E+02  0.13918676854E+03  0.89441413348E+02 0.  0.
          5    1    3    3  502    0  0.12133853377E+02  0.25097353249E+02  0.45782082812E+02  0.53807031553E+02  0.47000000000E+01 0. -1.
         -5    1    4    4    0  503  0.41061544184E+02 -0.28601162277E+02  0.63623368705E+02  0.81080823502E+02  0.47000000000E+01 0.  1.
          5    1    4    4  503    0 -0.54182095184E+01  0.45465956875E+02  0.35464075068E+02  0.58105945043E+02  0.47000000000E+01 0. -1.
         -5    1    3    3    0  502 -0.47777188043E+02 -0.41962147847E+02  0.33288144974E+03  0.33893307766E+03  0.47000000000E+01 0.  1.
<mgrwt>
<rscale>  0 0.10255192E+03</rscale>
<asrwt>0</asrwt>
<pdfrwt beam="1">  1        1 0.41673774E-02 0.10420519E+03</pdfrwt>
<pdfrwt beam="2">  1       -1 0.77667521E-01 0.10420519E+03</pdfrwt>
<totfact> 0.35161933E+03</totfact>
</mgrwt>
</event>
<event>
 8    1  0.3400573E-004  0.9285919E+02  0.7546771E-02  0.1312831E+00
         -1   -1    0    0    0  501 -0.00000000000E+00  0.00000000000E+00  0.20033283357E+03  0.20033283357E+03  0.00000000000E+00 0.  1.
          1   -1    0    0  501    0  0.00000000000E+00 -0.00000000000E+00 -0.33487229621E+02  0.33487229621E+02  0.00000000000E+00 0. -1.
         23    2    1    2    0    0  0.89163999185E+00  0.16209401095E+02  0.50504186951E+02  0.84963906854E+02  0.66367558811E+02 0.  0.
         23    2    1    2    0    0 -0.89163999185E+00 -0.16209401095E+02  0.11634141699E+03  0.14885615633E+03  0.91429154346E+02 0.  0.
          5    1    3    3  502    0 -0.32064971952E+02  0.52723033395E+01  0.29306050030E+02  0.44010159931E+02  0.47000000000E+01 0. -1.
         -5    1    3    3    0  502  0.32956611943E+02  0.10937097756E+02  0.21198136921E+02  0.40953746923E+02  0.47000000000E+01 0.  1.
          5    1    4    4  503    0 -0.31076896284E+02  0.16504123488E+02  0.90404434363E+02  0.97124720474E+02  0.47000000000E+01 0. -1.
         -5    1    4    4    0  503  0.30185256292E+02 -0.32713524583E+02  0.25936982630E+02  0.51731435859E+02  0.47000000000E+01 0.  1.
<mgrwt>
<rscale>  0 0.86002738E+02</rscale>
<asrwt>0</asrwt>
<pdfrwt beam="1">  1        1 0.51518816E-02 0.92859194E+02</pdfrwt>
<pdfrwt beam="2">  1       -1 0.30820435E-01 0.92859194E+02</pdfrwt>
<totfact> 0.13980963E+04</totfact>
</mgrwt>
</event>
<event>
 8    1  0.3400573E-004  0.9462795E+02  0.7546771E-02  0.1293920E+00
          4   -1    0    0  501    0  0.00000000000E+00  0.00000000000E+00  0.16533726658E+03  0.16533726658E+03  0.00000000000E+00 0. -1.
         -4   -1    0    0    0  501 -0.00000000000E+00 -0.00000000000E+00 -0.56296120068E+02  0.56296120068E+02  0.00000000000E+00 0.  1.
         23    2    1    2    0    0  0.20873553401E+01  0.75972983925E+01  0.83192425099E+02  0.12353850597E+03  0.90987399503E+02 0.  0.
         23    2    1    2    0    0 -0.20873553401E+01 -0.75972983925E+01  0.25848721418E+02  0.98094880682E+02  0.94299380814E+02 0.  0.
          5    1    4    4  502    0 -0.19207625364E+02  0.13850286390E+02  0.53598813164E+02  0.58785083804E+02  0.47000000000E+01 0. -1.
         -5    1    4    4    0  502  0.17120270024E+02 -0.21447584783E+02 -0.27750091746E+02  0.39309796879E+02  0.47000000000E+01 0.  1.
          5    1    3    3  503    0 -0.63643846393E+01  0.36769867011E+02  0.84795960820E+02  0.92762996303E+02  0.47000000000E+01 0. -1.
         -5    1    3    3    0  503  0.84517399794E+01 -0.29172568618E+02 -0.16035357212E+01  0.30775509667E+02  0.47000000000E+01 0.  1.
<mgrwt>
<rscale>  0 0.93791921E+02</rscale>
<asrwt>0</asrwt>
<pdfrwt beam="1">  1        4 0.25436502E-01 0.94627952E+02</pdfrwt>
<pdfrwt beam="2">  1       -4 0.86609416E-02 0.94627952E+02</pdfrwt>
<totfact> 0.21098419E+03</totfact>
</mgrwt>
</event>
<event>
 8    1  0.3400573E-004  0.9718384E+02  0.7546771E-02  0.1289054E+00
         -4   -1    0    0    0  501 -0.00000000000E+00  0.00000000000E+00  0.47811201064E+03  0.47811201064E+03  0.00000000000E+00 0.  1.
          4   -1    0    0  501    0  0.00000000000E+00 -0.00000000000E+00 -0.18784880556E+02  0.18784880556E+02  0.00000000000E+00 0. -1.
         23    2    1    2    0    0  0.20241457157E+02  0.13897814180E+02  0.22018094019E+03  0.23875817099E+03  0.89010965421E+02 0.  0.
         23    2    1    2    0    0 -0.20241457157E+02 -0.13897814180E+02  0.23914618989E+03  0.25813872020E+03  0.94031020954E+02 0.  0.
          5    1    4    4  502    0 -0.27794743917E+02  0.27230132711E+02  0.45865028884E+02  0.60330081978E+02  0.47000000000E+01 0. -1.
         -5    1    3    3    0  503  0.50239472381E+02  0.28851269193E+02  0.12870331548E+03  0.14121980645E+03  0.47000000000E+01 0.  1.
          5    1    3    3  503    0 -0.29998015223E+02 -0.14953455012E+02  0.91477624718E+02  0.97538364545E+02  0.47000000000E+01 0. -1.
         -5    1    4    4    0  502  0.75532867595E+01 -0.41127946891E+02  0.19328116101E+03  0.19780863823E+03  0.47000000000E+01 0.  1.
<mgrwt>
<rscale>  0 0.95948358E+02</rscale>
<asrwt>0</asrwt>
<pdfrwt beam="1">  1        4 0.28899820E-02 0.97183840E+02</pdfrwt>
<pdfrwt beam="2">  1       -4 0.73555685E-01 0.97183840E+02</pdfrwt>
<totfact> 0.14935498E+03</totfact>
</mgrwt>
</event>
<event>
 8    1  0.3400573E-004  0.1103901E+03  0.7546771E-02  0.1260088E+00
          2   -1    0    0  501    0  0.00000000000E+00  0.00000000000E+00  0.42870539948E+02  0.42870539948E+02  0.00000000000E+00 0. -1.
         -2   -1    0    0    0  501 -0.00000000000E+00 -0.00000000000E+00 -0.54965758045E+03  0.54965758045E+03  0.00000000000E+00 0.  1.
         23    2    1    2    0    0  0.37356572052E+02  0.48869102935E+02 -0.46704937927E+02  0.11938807118E+03  0.91040966688E+02 0.  0.
         23    2    1    2    0    0 -0.37356572052E+02 -0.48869102935E+02 -0.46008210258E+03  0.47314004923E+03  0.91663855306E+02 0.  0.
          5    1    3    3  502    0  0.26084809685E+02  0.16344785908E+02  0.24853713871E+02  0.39841767228E+02  0.47000000000E+01 0. -1.
         -5    1    3    3    0  502  0.11271762367E+02  0.32524317028E+02 -0.71558651797E+02  0.79546303949E+02  0.47000000000E+01 0.  1.
          5    1    4    4  503    0 -0.39490073635E+02 -0.26565426026E+02 -0.44028302683E+03  0.44287291799E+03  0.47000000000E+01 0. -1.
         -5    1    4    4    0  503  0.21335015825E+01 -0.22303676909E+02 -0.19799075754E+02  0.30267131238E+02  0.47000000000E+01 0.  1.
<mgrwt>
<rscale>  0 0.11026066E+03</rscale>
<asrwt>0</asrwt>
<pdfrwt beam="1">  1        2 0.65954680E-02 0.11039006E+03</pdfrwt>
<pdfrwt beam="2">  1       -2 0.84562701E-01 0.11039006E+03</pdfrwt>
<totfact> 0.13163587E+03</totfact>
</mgrwt>
</event>
<event>
 8    1  0.3400573E-004  0.1170893E+03  0.7546771E-02  0.1249487E+00
          1   -1    0    0  501    0  0.00000000000E+00  0.00000000000E+00  0.28027267647E+03  0.28027267647E+03  0.00000000000E+00 0. -1.
         -1   -1    0    0    0  501 -0.00000000000E+00 -0.00000000000E+00 -0.47714713063E+02  0.47714713063E+02  0.00000000000E+00 0.  1.
         23    2    1    2    0    0 -0.38620958006E+02  0.61456870353E+02  0.12625629153E+03  0.16984205464E+03  0.87390772184E+02 0.  0.
         23    2    1    2    0    0  0.38620958006E+02 -0.61456870353E+02  0.10630167188E+03  0.15814533489E+03  0.91876962253E+02 0.  0.
          5    1    3    3  502    0  0.21521902869E+01  0.52826701031E+02  0.21984821268E+02  0.57451846193E+02  0.47000000000E+01 0. -1.
         -5    1    4    4    0  503  0.35280439714E+02  0.61779414256E+01  0.53850962245E+01  0.36523494466E+02  0.47000000000E+01 0.  1.
          5    1    4    4  503    0  0.33405182924E+01 -0.67634811779E+02  0.10091657565E+03  0.12162184042E+03  0.47000000000E+01 0. -1.
         -5    1    3    3    0  502 -0.40773148293E+02  0.86301693218E+01  0.10427147026E+03  0.11239020845E+03  0.47000000000E+01 0.  1.
<mgrwt>
<rscale>  0 0.11620785E+03</rscale>
<asrwt>0</asrwt>
<pdfrwt beam="1">  1        1 0.43118872E-01 0.11708929E+03</pdfrwt>
<pdfrwt beam="2">  1       -1 0.73407252E-02 0.11708929E+03</pdfrwt>
<totfact> 0.87935433E+03</totfact>
</mgrwt>
</event>
<event>
 8    1  0.3400573E-004  0.9404960E+02  0.7546771E-02  0.1294176E+00
          2   -1    0    0  501    0  0.00000000000E+00  0.00000000000E+00  0.34664013320E+03  0.34664013320E+03  0.00000000000E+00 0. -1.
         -2   -1    0    0    0  501 -0.00000000000E+00 -0.00000000000E+00 -0.19109968981E+03  0.19109968981E+03  0.00000000000E+00 0.  1.
         23    2    1    2    0    0 -0.83034729719E+01  0.20199298397E+02 -0.17288470140E+03  0.19611370803E+03  0.89969479163E+02 0.  0.
         23    2    1    2    0    0  0.83034729719E+01 -0.20199298397E+02  0.32842514479E+03  0.34162611498E+03  0.91478781052E+02 0.  0.
          5    1    3    3  502    0  0.24676751848E+02 -0.25004370824E+02 -0.81220629061E+02  0.88617386709E+02  0.47000000000E+01 0. -1.
         -5    1    3    3    0  502 -0.32980224820E+02  0.45203669222E+02 -0.91664072339E+02  0.10749632132E+03  0.47000000000E+01 0.  1.
          5    1    4    4  503    0  0.42487944089E+02 -0.96901581818E+01  0.26551476508E+03  0.26910835185E+03  0.47000000000E+01 0. -1.
         -5    1    4    4    0  503 -0.34184471117E+02 -0.10509140216E+02  0.62910379712E+02  0.72517763128E+02  0.47000000000E+01 0.  1.
<mgrwt>
<rscale>  0 0.93680585E+02</rscale>
<asrwt>0</asrwt>
<pdfrwt beam="1">  1        2 0.53329251E-01 0.94049597E+02</pdfrwt>
<pdfrwt beam="2">  1       -2 0.29399952E-01 0.94049597E+02</pdfrwt>
<totfact> 0.97533818E+02</totfact>
</mgrwt>
</event>
<event>
 8    1  0.3400573E-004  0.1207689E+03  0.7546771E-02  0.1244220E+00
          2   -1    0    0  501    0  0.00000000000E+00  0.00000000000E+00  0.35190195899E+03  0.35190195899E+03  0.00000000000E+00 0. -1.
         -2   -1    0    0    0  501 -0.00000000000E+00 -0.00000000000E+00 -0.40131696265E+02  0.40131696265E+02  0.00000000000E+00 0.  1.
         23    2    1    2    0    0  0.18341617168E+02 -0.75170799875E+02  0.17640250263E+03  0.21062373769E+03  0.85190679475E+02 0.  0.
         23    2    1    2    0    0 -0.18341617168E+02  0.75170799875E+02  0.13536776009E+03  0.18140991756E+03  0.92725744235E+02 0.  0.
          5    1    3    3  502    0 -0.31978832053E+02 -0.16759463124E+02  0.41797053468E+02  0.55431119259E+02  0.47000000000E+01 0. -1.
         -5    1    4    4    0  503 -0.94763956477E+01  0.95600922989E+02  0.95745027062E+02  0.13571491723E+03  0.47000000000E+01 0.  1.
          5    1    4    4  503    0 -0.88652215198E+01 -0.20430123114E+02  0.39622733029E+02  0.45695000336E+02  0.47000000000E+01 0. -1.
         -5    1    3    3    0  502  0.50320449221E+02 -0.58411336751E+02  0.13460544917E+03  0.15519261843E+03  0.47000000000E+01 0.  1.
<mgrwt>
<rscale>  0 0.11932209E+03</rscale>
<asrwt>0</asrwt>
<pdfrwt beam="1">  1        2 0.54138761E-01 0.12076890E+03</pdfrwt>
<pdfrwt beam="2">  1       -2 0.61741074E-02 0.12076890E+03</pdfrwt>
<totfact> 0.12171062E+04</totfact>
</mgrwt>
</event>
<event>
 8    1  0.3400573E-004  0.9539687E+02  0.7546771E-02  0.1293797E+00
          1   -1    0    0  501    0  0.00000000000E+00  0.00000000000E+00  0.41753283151E+03  0.41753283151E+03  0.00000000000E+00 0. -1.
         -1   -1    0    0    0  501 -0.00000000000E+00 -0.00000000000E+00 -0.33242639296E+02  0.33242639296E+02  0.00000000000E+00 0.  1.
         23    2    1    2    0    0 -0.22042706459E+02 -0.23370364202E+02  0.56160815050E+02  0.11070049258E+03  0.89824868934E+02 0.  0.
         23    2    1    2    0    0  0.22042706459E+02  0.23370364202E+02  0.32812937716E+03  0.34007497822E+03  0.83366946852E+02 0.  0.
          5    1    4    4  502    0 -0.79953493218E+01  0.39476453564E+02  0.26583913047E+03  0.26891420432E+03  0.47000000000E+01 0. -1.
         -5    1    3    3    0  503  0.17122658485E+02 -0.36153713334E+02 -0.74989290834E+00  0.40285589989E+02  0.47000000000E+01 0.  1.
          5    1    3    3  503    0 -0.39165364944E+02  0.12783349132E+02  0.56910707958E+02  0.70414902588E+02  0.47000000000E+01 0. -1.
         -5    1    4    4    0  502  0.30038055781E+02 -0.16106089362E+02  0.62290246687E+02  0.71160773900E+02  0.47000000000E+01 0.  1.
<mgrwt>
<rscale>  0 0.93845887E+02</rscale>
<asrwt>0</asrwt>
<pdfrwt beam="1">  1        1 0.64235817E-01 0.95396865E+02</pdfrwt>
<pdfrwt beam="2">  1       -1 0.51142525E-02 0.95396865E+02</pdfrwt>
<totfact> 0.90289950E+03</totfact>
</mgrwt>
</event>
<event>
 8    1  0.3400573E-004  0.9622647E+02  0.7546771E-02  0.1289238E+00
          1   -1    0    0  501    0  0.00000000000E+00  0.00000000000E+00  0.61353647337E+03  0.61353647337E+03  0.00000000000E+00 0. -1.
         -1   -1    0    0    0  501 -0.00000000000E+00 -0.00000000000E+00 -0.16162206335E+02  0.16162206335E+02  0.00000000000E+00 0.  1.
         23    2    1    2    0    0  0.22071026420E+02 -0.39073802325E+01  0.38985363767E+03  0.40155372267E+03  0.93579568069E+02 0.  0.
         23    2    1    2    0    0 -0.22071026420E+02  0.39073802325E+01  0.20752062936E+03  0.22814495703E+03  0.92102725147E+02 0.  0.
          5    1    4    4  502    0  0.62684691395E+01 -0.22744781104E+02  0.17659376474E+03  0.17822476404E+03  0.47000000000E+01 0. -1.
         -5    1    3    3    0  503 -0.13690526842E+02 -0.38865690394E+02  0.23860017841E+03  0.24217784282E+03  0.47000000000E+01 0.  1.
          5    1    3    3  503    0  0.35761553262E+02  0.34958310161E+02  0.15125345926E+03  0.15937587985E+03  0.47000000000E+01 0. -1.
         -5    1    4    4    0  502 -0.28339495559E+02  0.26652161337E+02  0.30926864622E+02  0.49920192987E+02  0.47000000000E+01 0.  1.
<mgrwt>
<rscale>  0 0.95865545E+02</rscale>
<asrwt>0</asrwt>
<pdfrwt beam="1">  1        1 0.94390209E-01 0.96226469E+02</pdfrwt>
<pdfrwt beam="2">  1       -1 0.24864938E-02 0.96226469E+02</pdfrwt>
<totfact> 0.15624906E+04</totfact>
</mgrwt>
</event>
<event>
 8    1  0.3400573E-004  0.9999606E+02  0.7546771E-02  0.1280573E+00
          1   -1    0    0  501    0  0.00000000000E+00  0.00000000000E+00  0.19964690904E+03  0.19964690904E+03  0.00000000000E+00 0. -1.
         -1   -1    0    0    0  501 -0.00000000000E+00 -0.00000000000E+00 -0.12472793608E+03  0.12472793608E+03  0.00000000000E+00 0.  1.
         23    2    1    2    0    0 -0.34487462591E+02 -0.19070086877E+02 -0.88260602623E+02  0.13299358769E+03  0.91347178945E+02 0.  0.
         23    2    1    2    0    0  0.34487462591E+02  0.19070086877E+02  0.16317957558E+03  0.19138125744E+03  0.91902984289E+02 0.  0.
          5    1    4    4  502    0  0.62764464348E+02 -0.29383975554E+01  0.11530549304E+03  0.13139809318E+03  0.47000000000E+01 0. -1.
         -5    1    3    3    0  503 -0.10126970624E+02 -0.54812161345E+02 -0.47794095135E+02  0.73575091540E+02  0.47000000000E+01 0.  1.
          5    1    3    3  503    0 -0.24360491967E+02  0.35742074468E+02 -0.40466507488E+02  0.59418496148E+02  0.47000000000E+01 0. -1.
         -5    1    4    4    0  502 -0.28277001757E+02  0.22008484433E+02  0.47874082540E+02  0.59983164258E+02  0.47000000000E+01 0.  1.
<mgrwt>
<rscale>  0 0.99868169E+02</rscale>
<asrwt>0</asrwt>
<pdfrwt beam="1">  1        1 0.30714909E-01 0.99996059E+02</pdfrwt>
<pdfrwt beam="2">  1       -1 0.19188913E-01 0.99996059E+02</pdfrwt>
<totfact> 0.30192623E+03</totfact>
</mgrwt>
</event>
<event>
 8    1  0.3400573E-004  0.1288269E+03  0.7546771E-02  0.1238698E+00
          2   -1    0    0  501    0  0.00000000000E+00  0.00000000000E+00  0.20073210459E+03  0.20073210459E+03  0.00000000000E+00 0. -1.
         -2   -1    0    0    0  501 -0.00000000000E+00 -0.00000000000E+00 -0.69426240329E+02  0.69426240329E+02  0.00000000000E+00 0.  1.
         23    2    1    2    0    0  0.30313760757E+02 -0.47012508352E+02  0.73117858202E+02  0.12879988502E+03  0.90078239106E+02 0.  0.
         23    2    1    2    0    0 -0.30313760757E+02  0.47012508352E+02  0.58188006060E+02  0.14135845990E+03  0.11604856786E+03 0.  0.
          5    1    4    4  502    0  0.26514878211E+02 -0.17888144271E+02  0.42749997717E+02  0.53597357927E+02  0.47000000000E+01 0. -1.
         -5    1    4    4    0  502 -0.56828638969E+02  0.64900652623E+02  0.15438008344E+02  0.87761101973E+02  0.47000000000E+01 0.  1.
          5    1    3    3  503    0  0.24706456854E+02 -0.71482644846E+02  0.36384791362E+02  0.84060219884E+02  0.47000000000E+01 0. -1.
         -5    1    3    3    0  503  0.56073039029E+01  0.24470136494E+02  0.36733066840E+02  0.44739665137E+02  0.47000000000E+01 0.  1.
<mgrwt>
<rscale>  0 0.12270609E+03</rscale>
<asrwt>0</asrwt>
<pdfrwt beam="1">  1        2 0.30881862E-01 0.12882690E+03</pdfrwt>
<pdfrwt beam="2">  1       -2 0.10680960E-01 0.12882690E+03</pdfrwt>
<totfact> 0.95302276E+03</totfact>
</mgrwt>
</event>
<event>
 8    1  0.3400573E-004  0.1049159E+03  0.7546771E-02  0.1275427E+00
          1   -1    0    0  501    0  0.00000000000E+00  0.00000000000E+00  0.17000864030E+02  0.17000864030E+02  0.00000000000E+00 0. -1.
         -1   -1    0    0    0  501 -0.00000000000E+00 -0.00000000000E+00 -0.59737414493E+03  0.59737414493E+03  0.00000000000E+00 0.  1.
         23    2    1    2    0    0 -0.25368401488E+02 -0.12588887511E+02 -0.31475090102E+03  0.32878336074E+03  0.90710157774E+02 0.  0.
         23    2    1    2    0    0  0.25368401488E+02  0.12588887511E+02 -0.26562237987E+03  0.28559164821E+03  0.10102130942E+03 0.  0.
          5    1    3    3  502    0 -0.76454763439E+01 -0.36906630164E+02 -0.52658239392E+02  0.64927134809E+02  0.47000000000E+01 0. -1.
         -5    1    3    3    0  502 -0.17722925144E+02  0.24317742653E+02 -0.26209266163E+03  0.26385622593E+03  0.47000000000E+01 0.  1.
          5    1    4    4  503    0  0.51485121514E+02  0.40335559016E+02 -0.18542284224E+03  0.19667586401E+03  0.47000000000E+01 0. -1.
         -5    1    4    4    0  503 -0.26116720027E+02 -0.27746671505E+02 -0.80199537631E+02  0.88915784205E+02  0.47000000000E+01 0.  1.
<mgrwt>
<rscale>  0 0.10235147E+03</rscale>
<asrwt>0</asrwt>
<pdfrwt beam="1">  1        1 0.26155174E-02 0.10491588E+03</pdfrwt>
<pdfrwt beam="2">  1       -1 0.91903720E-01 0.10491588E+03</pdfrwt>
<totfact> 0.47065371E+03</totfact>
</mgrwt>
</event>
<event>
 8    1  0.3400573E-004  0.1090167E+03  0.7546771E-02  0.1262530E+00
          3   -1    0    0  501    0  0.00000000000E+00  0.00000000000E+00  0.32543297377E+03  0.32543297377E+03  0.00000000000E+00 0. -1.
         -3   -1    0    0    0  501 -0.00000000000E+00 -0.00000000000E+00 -0.37007520993E+02  0.37007520993E+02  0.00000000000E+00 0.  1.
         23    2    1    2    0    0  0.86907528161E+01  0.58304754249E+02  0.12171560902E+03  0.16339929555E+03  0.91704235207E+02 0.  0.
         23    2    1    2    0    0 -0.86907528161E+01 -0.58304754249E+02  0.16670984376E+03  0.19904119921E+03  0.91379721087E+02 0.  0.
          5    1    3    3  502    0 -0.30275689654E+02  0.48624012859E+02  0.10490877680E+03  0.11961961988E+03  0.47000000000E+01 0. -1.
         -5    1    3    3    0  502  0.38966442470E+02  0.96807413897E+01  0.16806832221E+02  0.43779675672E+02  0.47000000000E+01 0.  1.
          5    1    4    4  503    0 -0.40817107399E+02 -0.55601031950E+02  0.14271365826E+03  0.15857739203E+03  0.47000000000E+01 0. -1.
         -5    1    4    4    0  503  0.32126354583E+02 -0.27037222985E+01  0.23996185502E+02  0.40463807183E+02  0.47000000000E+01 0.  1.
<mgrwt>
<rscale>  0 0.10894842E+03</rscale>
<asrwt>0</asrwt>
<pdfrwt beam="1">  1        3 0.50066609E-01 0.10901670E+03</pdfrwt>
<pdfrwt beam="2">  1       -3 0.56934650E-02 0.10901670E+03</pdfrwt>
<totfact> 0.16313713E+03</totfact>
</mgrwt>
</event>
<event>
 8    1  0.3400573E-004  0.9691392E+02  0.7546771E-02  0.1288432E+00
          2   -1    0    0  501    0  0.00000000000E+00  0.00000000000E+00  0.16146031897E+03  0.16146031897E+03  0.00000000000E+00 0. -1.
         -2   -1    0    0    0  501 -0.00000000000E+00 -0.00000000000E+00 -0.57401664915E+02  0.57401664915E+02  0.00000000000E+00 0.  1.
         23    2    1    2    0    0  0.14898678225E+02  0.26739964800E+02  0.66044964654E+02  0.11727849495E+03  0.91952768812E+02 0.  0.
         23    2    1    2    0    0 -0.14898678225E+02 -0.26739964800E+02  0.38013689402E+02  0.10158348893E+03  0.89090786905E+02 0.  0.
          5    1    4    4  502    0  0.36069388069E+02 -0.34115938405E+01  0.23676843910E+02  0.43535303672E+02  0.47000000000E+01 0. -1.
         -5    1    4    4    0  502 -0.50968066295E+02 -0.23328370959E+02  0.14336845492E+02  0.58048185261E+02  0.47000000000E+01 0.  1.
          5    1    3    3  503    0  0.33227011020E+02  0.39868487809E+02  0.76031987684E+02  0.92176372963E+02  0.47000000000E+01 0. -1.
         -5    1    3    3    0  503 -0.18328332795E+02 -0.13128523010E+02 -0.99870230295E+01  0.25102121991E+02  0.47000000000E+01 0.  1.
<mgrwt>
<rscale>  0 0.96228908E+02</rscale>
<asrwt>0</asrwt>
<pdfrwt beam="1">  1        2 0.24840049E-01 0.96913921E+02</pdfrwt>
<pdfrwt beam="2">  1       -2 0.88310254E-02 0.96913921E+02</pdfrwt>
<totfact> 0.15830296E+04</totfact>
</mgrwt>
</event>
<event>
 8    1  0.3400573E-004  0.1180235E+03  0.7546771E-02  0.1246874E+00
         -2   -1    0    0    0  501 -0.00000000000E+00  0.00000000000E+00  0.17245771960E+02  0.17245771960E+02  0.00000000000E+00 0.  1.
          2   -1    0    0  501    0  0.00000000000E+00 -0.00000000000E+00 -0.85529737302E+03  0.85529737302E+03  0.00000000000E+00 0. -1.
         23    2    1    2    0    0  0.74123895899E+02  0.93754718639E+01 -0.53187749655E+03  0.54481484803E+03  0.91363536953E+02 0.  0.
         23    2    1    2    0    0 -0.74123895899E+02 -0.93754718639E+01 -0.30617410451E+03  0.32772829694E+03  0.89894398775E+02 0.  0.
          5    1    4    4  502    0 -0.19631276038E+02  0.27148095829E+02 -0.19995208848E+03  0.20279382090E+03  0.47000000000E+01 0. -1.
         -5    1    3    3    0  503  0.95417721602E+02  0.42964500394E+01 -0.42931740460E+03  0.43983920354E+03  0.47000000000E+01 0.  1.
          5    1    3    3  503    0 -0.21293825703E+02  0.50790218245E+01 -0.10256009195E+03  0.10497564450E+03  0.47000000000E+01 0. -1.
         -5    1    4    4    0  502 -0.54492619861E+02 -0.36523567693E+02 -0.10622201602E+03  0.12493447604E+03  0.47000000000E+01 0.  1.
<mgrwt>
<rscale>  0 0.11773908E+03</rscale>
<asrwt>0</asrwt>
<pdfrwt beam="1">  1        2 0.13158419E+00 0.11802350E+03</pdfrwt>
<pdfrwt beam="2">  1       -2 0.26531960E-02 0.11802350E+03</pdfrwt>
<totfact> 0.15618676E+04</totfact>
</mgrwt>
</event>
<event>
 8    1  0.3400573E-004  0.1077945E+03  0.7546771E-02  0.1264826E+00
          1   -1    0    0  501    0  0.00000000000E+00  0.00000000000E+00  0.29730534054E+03  0.29730534054E+03  0.00000000000E+00 0. -1.
         -1   -1    0    0    0  501 -0.00000000000E+00 -0.00000000000E+00 -0.41822902981E+02  0.41822902981E+02  0.00000000000E+00 0.  1.
         23    2    1    2    0    0  0.53679262996E+02 -0.21861724894E+02  0.83513715924E+02  0.13616793704E+03  0.90596733042E+02 0.  0.
         23    2    1    2    0    0 -0.53679262996E+02  0.21861724894E+02  0.17196872163E+03  0.20296030648E+03  0.90885898229E+02 0.  0.
          5    1    3    3  502    0 -0.63074040914E+01 -0.41531240862E+02  0.20996068779E+02  0.47196951364E+02  0.47000000000E+01 0. -1.
         -5    1    3    3    0  502  0.59986667088E+02  0.19669515968E+02  0.62517647145E+02  0.88970985671E+02  0.47000000000E+01 0.  1.
          5    1    4    4  503    0 -0.67404812318E+02 -0.13284004959E+02  0.12298566123E+03  0.14095189385E+03  0.47000000000E+01 0. -1.
         -5    1    4    4    0  503  0.13725549322E+02  0.35145729852E+02  0.48983060400E+02  0.62008412632E+02  0.47000000000E+01 0.  1.
<mgrwt>
<rscale>  0 0.10773348E+03</rscale>
<asrwt>0</asrwt>
<pdfrwt beam="1">  1        1 0.45739282E-01 0.10779446E+03</pdfrwt>
<pdfrwt beam="2">  1       -1 0.64342929E-02 0.10779446E+03</pdfrwt>
<totfact> 0.98896688E+03</totfact>
</mgrwt>
</event>
<event>
 8    1  0.3400573E-004  0.1176116E+03  0.7546771E-02  0.1248530E+00
          1   -1    0    0  501    0  0.00000000000E+00  0.00000000000E+00  0.11815244793E+03  0.11815244793E+03  0.00000000000E+00 0. -1.
         -1   -1    0    0    0  501 -0.00000000000E+00 -0.00000000000E+00 -0.19512124641E+03  0.19512124641E+03  0.00000000000E+00 0.  1.
         23    2    1    2    0    0 -0.65327662516E+02  0.32235037485E+02  0.62328875997E+02  0.13310666347E+03  0.92334684413E+02 0.  0.
         23    2    1    2    0    0  0.65327662516E+02 -0.32235037485E+02 -0.13929767448E+03  0.18016703087E+03  0.88031334006E+02 0.  0.
          5    1    4    4  502    0  0.66752174497E+01  0.20946551612E+02 -0.74290219531E+02  0.77617287188E+02  0.47000000000E+01 0. -1.
         -5    1    4    4    0  502  0.58652445066E+02 -0.53181589097E+02 -0.65007454949E+02  0.10254974369E+03  0.47000000000E+01 0.  1.
          5    1    3    3  503    0 -0.46504538751E+02  0.61303847952E+02  0.60701514319E+02  0.98120322761E+02  0.47000000000E+01 0. -1.
         -5    1    3    3    0  503 -0.18823123765E+02 -0.29068810466E+02  0.16273616779E+01  0.34986340709E+02  0.47000000000E+01 0.  1.
<mgrwt>
<rscale>  0 0.11676570E+03</rscale>
<asrwt>0</asrwt>
<pdfrwt beam="1">  1        1 0.18177300E-01 0.11761163E+03</pdfrwt>
<pdfrwt beam="2">  1       -1 0.30018653E-01 0.11761163E+03</pdfrwt>
<totfact> 0.28336866E+03</totfact>
</mgrwt>
</event>
<event>
 8    1  0.3400573E-004  0.1166161E+03  0.7546771E-02  0.1249810E+00
          4   -1    0    0  501    0  0.00000000000E+00  0.00000000000E+00  0.34172365697E+02  0.34172365697E+02  0.00000000000E+00 0. -1.
         -4   -1    0    0    0  501 -0.00000000000E+00 -0.00000000000E+00 -0.40715162811E+03  0.40715162811E+03  0.00000000000E+00 0.  1.
         23    2    1    2    0    0 -0.62133040176E+02 -0.37021309051E+02 -0.23368442411E+03  0.26116608212E+03  0.91477977527E+02 0.  0.
         23    2    1    2    0    0  0.62133040176E+02  0.37021309051E+02 -0.13929483830E+03  0.18015791168E+03  0.88446193587E+02 0.  0.
          5    1    3    3  502    0 -0.49798386945E+02  0.14554488479E+02 -0.59771713580E+02  0.79287200868E+02  0.47000000000E+01 0. -1.
         -5    1    4    4    0  503  0.11245976453E+02 -0.28142400942E+02 -0.47380287228E+02  0.56439776178E+02  0.47000000000E+01 0.  1.
          5    1    4    4  503    0  0.50887063723E+02  0.65163709993E+02 -0.91914551069E+02  0.12371813550E+03  0.47000000000E+01 0. -1.
         -5    1    3    3    0  502 -0.12334653231E+02 -0.51575797530E+02 -0.17391271053E+03  0.18187888125E+03  0.47000000000E+01 0.  1.
<mgrwt>
<rscale>  0 0.11602086E+03</rscale>
<asrwt>0</asrwt>
<pdfrwt beam="1">  1        4 0.52572869E-02 0.11661609E+03</pdfrwt>
<pdfrwt beam="2">  1       -4 0.62638714E-01 0.11661609E+03</pdfrwt>
<totfact> 0.85391206E+02</totfact>
</mgrwt>
</event>
<event>
 8    1  0.3400573E-004  0.1068878E+03  0.7546771E-02  0.1266671E+00
         -1   -1    0    0    0  501 -0.00000000000E+00  0.00000000000E+00  0.10213144398E+02  0.10213144398E+02  0.00000000000E+00 0.  1.
          1   -1    0    0  501    0  0.00000000000E+00 -0.00000000000E+00 -0.11190600835E+04  0.11190600835E+04  0.00000000000E+00 0. -1.
         23    2    1    2    0    0 -0.42208829046E+01  0.54439331814E+02 -0.59453332780E+03  0.60406528849E+03  0.91888727224E+02 0.  0.
         23    2    1    2    0    0  0.42208829046E+01 -0.54439331814E+02 -0.51431361128E+03  0.52520793938E+03  0.91342389653E+02 0.  0.
          5    1    4    4  502    0  0.15121408906E+02  0.22121705987E+02 -0.96007871943E+02  0.99787916894E+02  0.47000000000E+01 0. -1.
         -5    1    4    4    0  502 -0.10900526001E+02 -0.76561037801E+02 -0.41830573933E+03  0.42542002249E+03  0.47000000000E+01 0.  1.
          5    1    3    3  503    0  0.42794299109E+02  0.36122096036E+02 -0.30780123981E+03  0.31288951898E+03  0.47000000000E+01 0. -1.
         -5    1    3    3    0  503 -0.47015182014E+02  0.18317235778E+02 -0.28673208799E+03  0.29117576951E+03  0.47000000000E+01 0.  1.
<mgrwt>
<rscale>  0 0.10677025E+03</rscale>
<asrwt>0</asrwt>
<pdfrwt beam="1">  1        1 0.17216307E+00 0.10688777E+03</pdfrwt>
<pdfrwt beam="2">  1       -1 0.15712532E-02 0.10688777E+03</pdfrwt>
<totfact> 0.12105372E+04</totfact>
</mgrwt>
</event>
<event>
 8    1  0.3400573E-004  0.9308624E+02  0.7546771E-02  0.1296234E+00
         -2   -1    0    0    0  501 -0.00000000000E+00  0.00000000000E+00  0.72941390112E+02  0.72941390112E+02  0.00000000000E+00 0.  1.
          2   -1    0    0  501    0  0.00000000000E+00 -0.00000000000E+00 -0.14439033699E+03  0.14439033699E+03  0.00000000000E+00 0. -1.
         23    2    1    2    0    0 -0.12610933348E+02 -0.10322352342E+02  0.11165555262E+02  0.93753495741E+02  0.91648577411E+02 0.  0.
         23    2    1    2    0    0  0.12610933348E+02  0.10322352342E+02 -0.82614502142E+02  0.12357823136E+03  0.90447977894E+02 0.  0.
          5    1    4    4  502    0  0.26954174283E+02 -0.34830348998E+02 -0.39249257061E+02  0.59180021142E+02  0.47000000000E+01 0. -1.
         -5    1    3    3    0  503  0.66171394855E+01  0.38410383224E+02 -0.27186714887E+01  0.39352576143E+02  0.47000000000E+01 0.  1.
          5    1    3    3  503    0 -0.19228072833E+02 -0.48732735566E+02  0.13884226750E+02  0.54400919598E+02  0.47000000000E+01 0. -1.
         -5    1    4    4    0  502 -0.14343240936E+02  0.45152701340E+02 -0.43365245081E+02  0.64398210222E+02  0.47000000000E+01 0.  1.
<mgrwt>
<rscale>  0 0.92789370E+02</rscale>
<asrwt>0</asrwt>
<pdfrwt beam="1">  1        2 0.22213898E-01 0.93086241E+02</pdfrwt>
<pdfrwt beam="2">  1       -2 0.11221752E-01 0.93086241E+02</pdfrwt>
<totfact> 0.12277443E+04</totfact>
</mgrwt>
</event>
<event>
 8    1  0.3400573E-004  0.9570811E+02  0.7546771E-02  0.1290115E+00
         -1   -1    0    0    0  501 -0.00000000000E+00  0.00000000000E+00  0.25112909788E+02  0.25112909788E+02  0.00000000000E+00 0.  1.
          1   -1    0    0  501    0  0.00000000000E+00 -0.00000000000E+00 -0.38783217833E+03  0.38783217833E+03  0.00000000000E+00 0. -1.
         23    2    1    2    0    0 -0.98663375490E+01  0.25723710220E+02 -0.12807534028E+03  0.15988538247E+03  0.91656908386E+02 0.  0.
         23    2    1    2    0    0  0.98663375490E+01 -0.25723710220E+02 -0.23464392826E+03  0.25305970565E+03  0.90677382346E+02 0.  0.
          5    1    4    4  502    0  0.47830068937E+02 -0.16256850385E+02 -0.16943541939E+03  0.17686845966E+03  0.47000000000E+01 0. -1.
         -5    1    4    4    0  502 -0.37963731388E+02 -0.94668598350E+01 -0.65208508873E+02  0.76191245989E+02  0.47000000000E+01 0.  1.
          5    1    3    3  503    0  0.39006051522E+02 -0.19709321231E+01 -0.52423892542E+02  0.65541674819E+02  0.47000000000E+01 0. -1.
         -5    1    3    3    0  503 -0.48872389071E+02  0.27694642343E+02 -0.75651447737E+02  0.94343707648E+02  0.47000000000E+01 0.  1.
<mgrwt>
<rscale>  0 0.95472835E+02</rscale>
<asrwt>0</asrwt>
<pdfrwt beam="1">  1        1 0.59666489E-01 0.95708112E+02</pdfrwt>
<pdfrwt beam="2">  1       -1 0.38635246E-02 0.95708112E+02</pdfrwt>
<totfact> 0.14909069E+04</totfact>
</mgrwt>
</event>
<event>
 8    1  0.3400573E-004  0.1753507E+03  0.7546771E-02  0.1172522E+00
          1   -1    0    0  501    0  0.00000000000E+00  0.00000000000E+00  0.17459942503E+03  0.17459942503E+03  0.00000000000E+00 0. -1.
         -1   -1    0    0    0  501 -0.00000000000E+00 -0.00000000000E+00 -0.17758045995E+03  0.17758045995E+03  0.00000000000E+00 0.  1.
         23    2    1    2    0    0  0.14477062384E+03 -0.37399346963E+02 -0.20383251982E+02  0.17653145063E+03  0.91600389830E+02 0.  0.
         23    2    1    2    0    0 -0.14477062384E+03  0.37399346963E+02  0.17402217061E+02  0.17564843436E+03  0.90511273618E+02 0.  0.
          5    1    3    3  502    0  0.59931710256E+02 -0.28715589222E+02  0.34481635791E+02  0.75016452632E+02  0.47000000000E+01 0. -1.
         -5    1    3    3    0  502  0.84838913588E+02 -0.86837577413E+01 -0.54864887773E+02  0.10151499799E+03  0.47000000000E+01 0.  1.
          5    1    4    4  503    0 -0.39485545176E+02 -0.19582172992E+02  0.32402424629E+02  0.54905162770E+02  0.47000000000E+01 0. -1.
         -5    1    4    4    0  503 -0.10528507867E+03  0.56981519956E+02 -0.15000207568E+02  0.12074327159E+03  0.47000000000E+01 0.  1.
<mgrwt>
<rscale>  0 0.17520893E+03</rscale>
<asrwt>0</asrwt>
<pdfrwt beam="1">  1        1 0.26861450E-01 0.17535072E+03</pdfrwt>
<pdfrwt beam="2">  1       -1 0.27320071E-01 0.17535072E+03</pdfrwt>
<totfact> 0.20578166E+03</totfact>
</mgrwt>
</event>
<event>
 8    1  0.3400573E-004  0.1271228E+03  0.7546771E-02  0.1233403E+00
          1   -1    0    0  501    0  0.00000000000E+00  0.00000000000E+00  0.58711521288E+03  0.58711521288E+03  0.00000000000E+00 0. -1.
         -1   -1    0    0    0  501 -0.00000000000E+00 -0.00000000000E+00 -0.26754968971E+02  0.26754968971E+02  0.00000000000E+00 0.  1.
         23    2    1    2    0    0 -0.68474176272E+02  0.46337696232E+02  0.26411401643E+03  0.29311502056E+03  0.96562449701E+02 0.  0.
         23    2    1    2    0    0  0.68474176272E+02 -0.46337696232E+02  0.29624622748E+03  0.32075516130E+03  0.91028299412E+02 0.  0.
          5    1    3    3  502    0 -0.17042593455E+02  0.66514482091E+02  0.17633804191E+03  0.18929295112E+03  0.47000000000E+01 0. -1.
         -5    1    3    3    0  502 -0.51431582817E+02 -0.20176785859E+02  0.87775974521E+02  0.10382206944E+03  0.47000000000E+01 0.  1.
          5    1    4    4  503    0  0.31118471058E+02  0.25987420497E+02  0.84146638600E+02  0.93522468170E+02  0.47000000000E+01 0. -1.
         -5    1    4    4    0  503  0.37355705214E+02 -0.72325116729E+02  0.21209958888E+03  0.22723269313E+03  0.47000000000E+01 0.  1.
<mgrwt>
<rscale>  0 0.12607206E+03</rscale>
<asrwt>0</asrwt>
<pdfrwt beam="1">  1        1 0.90325407E-01 0.12712278E+03</pdfrwt>
<pdfrwt beam="2">  1       -1 0.41161495E-02 0.12712278E+03</pdfrwt>
<totfact> 0.81518042E+03</totfact>
</mgrwt>
</event>
<event>
 8    1  0.3400573E-004  0.9650576E+02  0.7546771E-02  0.1288480E+00
         -1   -1    0    0    0  501 -0.00000000000E+00  0.00000000000E+00  0.39657897348E+02  0.39657897348E+02  0.00000000000E+00 0.  1.
          1   -1    0    0  501    0  0.00000000000E+00 -0.00000000000E+00 -0.25913995945E+03  0.25913995945E+03  0.00000000000E+00 0. -1.
         23    2    1    2    0    0  0.30240852449E+02 -0.10151110718E+02 -0.61965728795E+02  0.11468702719E+03  0.91081328788E+02 0.  0.
         23    2    1    2    0    0 -0.30240852449E+02  0.10151110718E+02 -0.15751633330E+03  0.18411082961E+03  0.89821200816E+02 0.  0.
          5    1    3    3  502    0 -0.25880062363E+02 -0.26541333591E+02 -0.18585209714E+02  0.41733919500E+02  0.47000000000E+01 0. -1.
         -5    1    3    3    0  502  0.56120914812E+02  0.16390222872E+02 -0.43380519082E+02  0.72953107686E+02  0.47000000000E+01 0.  1.
          5    1    4    4  503    0 -0.10916869134E+02 -0.29377623912E+02 -0.12564026909E+03  0.12957542219E+03  0.47000000000E+01 0. -1.
         -5    1    4    4    0  503 -0.19323983315E+02  0.39528734631E+02 -0.31876064213E+02  0.54535407419E+02  0.47000000000E+01 0.  1.
<mgrwt>
<rscale>  0 0.96207286E+02</rscale>
<asrwt>0</asrwt>
<pdfrwt beam="1">  1        1 0.39867686E-01 0.96505765E+02</pdfrwt>
<pdfrwt beam="2">  1       -1 0.61012150E-02 0.96505765E+02</pdfrwt>
<totfact> 0.12537552E+04</totfact>
</mgrwt>
</event>
<event>
 8    1  0.3400573E-004  0.1022167E+03  0.7546771E-02  0.1278137E+00
          1   -1    0    0  501    0  0.00000000000E+00  0.00000000000E+00  0.52923994817E+03  0.52923994817E+03  0.00000000000E+00 0. -1.
         -1   -1    0    0    0  501 -0.00000000000E+00 -0.00000000000E+00 -0.22678123509E+02  0.22678123509E+02  0.00000000000E+00 0.  1.
         23    2    1    2    0    0 -0.23910583586E+02  0.24922637991E+02  0.36167349653E+03  0.37460231210E+03  0.91248672580E+02 0.  0.
         23    2    1    2    0    0  0.23910583586E+02 -0.24922637991E+02  0.14488832813E+03  0.17731575958E+03  0.96204974269E+02 0.  0.
          5    1    3    3  502    0 -0.44895837661E+02 -0.10252341209E+02  0.27192809423E+03  0.27584003548E+03  0.47000000000E+01 0. -1.
         -5    1    4    4    0  503  0.56789047482E+02 -0.11111568745E+02  0.12079511975E+03  0.13402243778E+03  0.47000000000E+01 0.  1.
          5    1    4    4  503    0 -0.32878463896E+02 -0.13811069246E+02  0.24093208379E+02  0.43293321793E+02  0.47000000000E+01 0. -1.
         -5    1    3    3    0  502  0.20985254075E+02  0.35174979199E+02  0.89745402297E+02  0.98762276623E+02  0.47000000000E+01 0.  1.
<mgrwt>
<rscale>  0 0.10103370E+03</rscale>
<asrwt>0</asrwt>
<pdfrwt beam="1">  1        1 0.81421521E-01 0.10221669E+03</pdfrwt>
<pdfrwt beam="2">  1       -1 0.34889425E-02 0.10221669E+03</pdfrwt>
<totfact> 0.11719998E+04</totfact>
</mgrwt>
</event>
<event>
 8    1  0.3400573E-004  0.1130693E+03  0.7546771E-02  0.1255896E+00
          2   -1    0    0  501    0  0.00000000000E+00  0.00000000000E+00  0.64729262631E+02  0.64729262631E+02  0.00000000000E+00 0.  1.
         -2   -1    0    0    0  501 -0.00000000000E+00 -0.00000000000E+00 -0.23899099933E+03  0.23899099933E+03  0.00000000000E+00 0. -1.
         23    2    1    2    0    0 -0.66331992174E+02  0.16657830585E+02 -0.15364389007E+03  0.19076456764E+03  0.90040317673E+02 0.  0.
         23    2    1    2    0    0  0.66331992174E+02 -0.16657830585E+02 -0.20617846629E+02  0.11295569432E+03  0.87501295839E+02 0.  0.
          5    1    3    3  502    0 -0.85893282399E+02  0.27373408236E+02 -0.12326429959E+03  0.15278460980E+03  0.47000000000E+01 0. -1.
         -5    1    3    3    0  502  0.19561290225E+02 -0.10715577651E+02 -0.30379590479E+02  0.37979957837E+02  0.47000000000E+01 0.  1.
          5    1    4    4  503    0  0.47195735375E+02  0.23509204190E+02 -0.37782064276E+02  0.65036101514E+02  0.47000000000E+01 0. -1.
         -5    1    4    4    0  503  0.19136256799E+02 -0.40167034776E+02  0.17164217648E+02  0.47919592803E+02  0.47000000000E+01 0.  1.
<mgrwt>
<rscale>  0 0.11256313E+03</rscale>
<asrwt>0</asrwt>
<pdfrwt beam="1">  1        2 0.99583482E-02 0.11306934E+03</pdfrwt>
<pdfrwt beam="2">  1       -2 0.36767846E-01 0.11306934E+03</pdfrwt>
<totfact> 0.42450678E+03</totfact>
</mgrwt>
</event>
<event>
 8    1  0.3400573E-004  0.1359491E+03  0.7546771E-02  0.1219011E+00
          1   -1    0    0  501    0  0.00000000000E+00  0.00000000000E+00  0.39873717077E+03  0.39873717077E+03  0.00000000000E+00 0. -1.
         -1   -1    0    0    0  501 -0.00000000000E+00 -0.00000000000E+00 -0.25760354892E+03  0.25760354892E+03  0.00000000000E+00 0.  1.
         23    2    1    2    0    0  0.54583164596E+02 -0.82703998563E+02  0.36781822765E+03  0.39201504460E+03  0.92554164488E+02 0.  0.
         23    2    1    2    0    0 -0.54583164596E+02  0.82703998563E+02 -0.22668460580E+03  0.26432567510E+03  0.93074587147E+02 0.  0.
          5    1    4    4  502    0  0.25252954480E+02  0.12027201243E+02 -0.60526672663E+02  0.66842601561E+02  0.47000000000E+01 0. -1.
         -5    1    4    4    0  502 -0.79836119076E+02  0.70676797320E+02 -0.16615793314E+03  0.19748307354E+03  0.47000000000E+01 0.  1.
          5    1    3    3  503    0  0.38725162572E+02  0.24242344397E+01  0.55503149561E+02  0.67883759030E+02  0.47000000000E+01 0. -1.
         -5    1    3    3    0  503  0.15858002024E+02 -0.85128233003E+02  0.31231507809E+03  0.32413128557E+03  0.47000000000E+01 0.  1.
<mgrwt>
<rscale>  0 0.13586005E+03</rscale>
<asrwt>0</asrwt>
<pdfrwt beam="1">  1        1 0.61344180E-01 0.13594908E+03</pdfrwt>
<pdfrwt beam="2">  1       -1 0.39631315E-01 0.13594908E+03</pdfrwt>
<totfact> 0.38803844E+02</totfact>
</mgrwt>
</event>
<event>
 8    1  0.3400573E-004  0.9218230E+02  0.7546771E-02  0.1298285E+00
         -1   -1    0    0    0  501 -0.00000000000E+00  0.00000000000E+00  0.11605581578E+03  0.11605581578E+03  0.00000000000E+00 0.  1.
          1   -1    0    0  501    0  0.00000000000E+00 -0.00000000000E+00 -0.84074663063E+02  0.84074663063E+02  0.00000000000E+00 0. -1.
         23    2    1    2    0    0 -0.18738908694E+02  0.75261024947E-01  0.53247382437E+02  0.10552694336E+03  0.89159966772E+02 0.  0.
         23    2    1    2    0    0  0.18738908694E+02 -0.75261024947E-01 -0.21266229725E+02  0.94603535481E+02  0.90257542818E+02 0.  0.
          5    1    3    3  502    0 -0.12841043307E+02  0.41900307259E+02  0.43495072847E+02  0.61922851223E+02  0.47000000000E+01 0. -1.
         -5    1    4    4    0  503 -0.34134567349E+02  0.53539778981E+01  0.48334575047E+01  0.35203495265E+02  0.47000000000E+01 0.  1.
          5    1    4    4  503    0  0.52873476043E+02 -0.54292389231E+01 -0.26099687230E+02  0.59400040216E+02  0.47000000000E+01 0. -1.
         -5    1    3    3    0  502 -0.58978653867E+01 -0.41825046234E+02  0.97523095901E+01  0.43604092135E+02  0.47000000000E+01 0.  1.
<mgrwt>
<rscale>  0 0.91912521E+02</rscale>
<asrwt>0</asrwt>
<pdfrwt beam="1">  1        1 0.12934563E-01 0.92182300E+02</pdfrwt>
<pdfrwt beam="2">  1       -1 0.17854741E-01 0.92182300E+02</pdfrwt>
<totfact> 0.99913582E+03</totfact>
</mgrwt>
</event>
<event>
 8    1  0.3400573E-004  0.1061450E+03  0.7546771E-02  0.1268684E+00
         -1   -1    0    0    0  501 -0.00000000000E+00  0.00000000000E+00  0.27978321311E+02  0.27978321311E+02  0.00000000000E+00 0.  1.
          1   -1    0    0  501    0  0.00000000000E+00 -0.00000000000E+00 -0.52704146188E+03  0.52704146188E+03  0.00000000000E+00 0. -1.
         23    2    1    2    0    0  0.12822592687E+02 -0.50515525638E+02 -0.38910771084E+03  0.40332564992E+03  0.92469086935E+02 0.  0.
         23    2    1    2    0    0 -0.12822592687E+02  0.50515525638E+02 -0.10995542973E+03  0.15169413327E+03  0.90579668395E+02 0.  0.
          5    1    4    4  502    0 -0.36843777805E+01  0.27727517898E+02 -0.12106188031E+03  0.12434009311E+03  0.47000000000E+01 0. -1.
         -5    1    4    4    0  502 -0.91382149061E+01  0.22788007741E+02  0.11106450585E+02  0.27354040160E+02  0.47000000000E+01 0.  1.
          5    1    3    3  503    0  0.19943154949E+01 -0.70641067420E+02 -0.18851492658E+03  0.20138049867E+03  0.47000000000E+01 0. -1.
         -5    1    3    3    0  503  0.10828277192E+02  0.20125541781E+02 -0.20059278426E+03  0.20194515125E+03  0.47000000000E+01 0.  1.
<mgrwt>
<rscale>  0 0.10573217E+03</rscale>
<asrwt>0</asrwt>
<pdfrwt beam="1">  1        1 0.81083295E-01 0.10614504E+03</pdfrwt>
<pdfrwt beam="2">  1       -1 0.43043575E-02 0.10614504E+03</pdfrwt>
<totfact> 0.87037963E+03</totfact>
</mgrwt>
</event>
<event>
 7    1  0.3400573E-004  0.1846322E+03  0.7546771E-02  0.1178317E+00
          2   -1    0    0  501    0  0.00000000000E+00  0.00000000000E+00  0.40521329749E+03  0.40521329749E+03  0.00000000000E+00 0. -1.
         -2   -1    0    0    0  501 -0.00000000000E+00 -0.00000000000E+00 -0.90773183424E+02  0.90773183424E+02  0.00000000000E+00 0.  1.
         23    2    1    2    0    0 -0.85763915057E+02  0.21296817113E+02 -0.51585442147E-01  0.13130294467E+03  0.97115689119E+02 0.  0.
          5    1    3    3  502    0  0.84004197786E+01  0.22552521494E+02 -0.23689797582E+02  0.34095157833E+02  0.47000000000E+01 0. -1.
         -5    1    3    3    0  502 -0.94164334836E+02 -0.12557043818E+01  0.23638212140E+02  0.97207786837E+02  0.47000000000E+01 0.  1.
          5    1    1    2  503    0  0.11159675818E+03 -0.17709843432E+02  0.31840767699E+03  0.33789497444E+03  0.47000000000E+01 0. -1.
         -5    1    1    2    0  503 -0.25832843119E+02 -0.35869736803E+01 -0.39159774765E+01  0.26788561802E+02  0.47000000000E+01 0.  1.
<mgrwt>
<rscale>  0 0.16955055E+03</rscale>
<asrwt>0</asrwt>
<pdfrwt beam="1">  1        2 0.62340506E-01 0.18463221E+03</pdfrwt>
<pdfrwt beam="2">  1       -2 0.13965105E-01 0.18463221E+03</pdfrwt>
<totfact> 0.29835044E+03</totfact>
</mgrwt>
</event>
<event>
 8    1  0.3400573E-004  0.1056101E+03  0.7546771E-02  0.1269808E+00
         -1   -1    0    0    0  501 -0.00000000000E+00  0.00000000000E+00  0.45410469066E+02  0.45410469066E+02  0.00000000000E+00 0.  1.
          1   -1    0    0  501    0  0.00000000000E+00 -0.00000000000E+00 -0.27226833125E+03  0.27226833125E+03  0.00000000000E+00 0. -1.
         23    2    1    2    0    0 -0.48573801810E+02 -0.27659428350E+01 -0.59136435198E+02  0.11947694190E+03  0.91709089062E+02 0.  0.
         23    2    1    2    0    0  0.48573801810E+02  0.27659428350E+01 -0.16772142698E+03  0.19820185841E+03  0.93735985329E+02 0.  0.
          5    1    3    3  502    0 -0.48825286270E+01 -0.28697758643E+02 -0.61704456287E+02  0.68388086408E+02  0.47000000000E+01 0. -1.
         -5    1    4    4    0  503  0.20753566202E+02 -0.27285496739E+02 -0.11239319093E+02  0.36381604363E+02  0.47000000000E+01 0.  1.
          5    1    4    4  503    0  0.27820235608E+02  0.30051439574E+02 -0.15648210789E+03  0.16182025405E+03  0.47000000000E+01 0. -1.
         -5    1    3    3    0  502 -0.43691273183E+02  0.25931815808E+02  0.25680210896E+01  0.51088855495E+02  0.47000000000E+01 0.  1.
<mgrwt>
<rscale>  0 0.10515854E+03</rscale>
<asrwt>0</asrwt>
<pdfrwt beam="1">  1        1 0.41887436E-01 0.10561013E+03</pdfrwt>
<pdfrwt beam="2">  1       -1 0.69862259E-02 0.10561013E+03</pdfrwt>
<totfact> 0.97308461E+03</totfact>
</mgrwt>
</event>
<event>
 8    1  0.3400573E-004  0.1094003E+03  0.7546771E-02  0.1267166E+00
          1   -1    0    0  501    0  0.00000000000E+00  0.00000000000E+00  0.10040070177E+03  0.10040070177E+03  0.00000000000E+00 0. -1.
         -1   -1    0    0    0  501 -0.00000000000E+00 -0.00000000000E+00 -0.14226220963E+03  0.14226220963E+03  0.00000000000E+00 0.  1.
         23    2    1    2    0    0 -0.59481782089E+02  0.14064117286E+02 -0.80066654493E+02  0.12678337104E+03  0.76990078676E+02 0.  0.
         23    2    1    2    0    0  0.59481782089E+02 -0.14064117286E+02  0.38205146638E+02  0.11587954036E+03  0.90733416381E+02 0.  0.
          5    1    4    4  502    0  0.81722287760E+01 -0.25256962935E+02  0.54407315209E+02  0.60720222728E+02  0.47000000000E+01 0. -1.
         -5    1    3    3    0  503 -0.11723703978E+02  0.37104206146E+02 -0.13294400811E+02  0.41388385347E+02  0.47000000000E+01 0.  1.
          5    1    3    3  503    0 -0.47758078111E+02 -0.23040088859E+02 -0.66772253682E+02  0.85394985692E+02  0.47000000000E+01 0. -1.
         -5    1    4    4    0  502  0.51309553313E+02  0.11192845649E+02 -0.16202168571E+02  0.55159317629E+02  0.47000000000E+01 0.  1.
<mgrwt>
<rscale>  0 0.10651358E+03</rscale>
<asrwt>0</asrwt>
<pdfrwt beam="1">  1        1 0.15446262E-01 0.10940034E+03</pdfrwt>
<pdfrwt beam="2">  1       -1 0.21886494E-01 0.10940034E+03</pdfrwt>
<totfact> 0.58336076E+03</totfact>
</mgrwt>
</event>
<event>
 8    1  0.3400573E-004  0.1234353E+03  0.7546771E-02  0.1237950E+00
          3   -1    0    0  501    0  0.00000000000E+00  0.00000000000E+00  0.22219386728E+03  0.22219386728E+03  0.00000000000E+00 0. -1.
         -3   -1    0    0    0  501 -0.00000000000E+00 -0.00000000000E+00 -0.80695842520E+02  0.80695842520E+02  0.00000000000E+00 0.  1.
         23    2    1    2    0    0  0.49857077989E+02  0.62268911724E+02  0.10415483925E+02  0.12283716886E+03  0.92829640497E+02 0.  0.
         23    2    1    2    0    0 -0.49857077989E+02 -0.62268911724E+02  0.13108254084E+03  0.18005254094E+03  0.94197342822E+02 0.  0.
          5    1    4    4  502    0 -0.59191595151E+02 -0.35672475839E+02  0.13448344622E+03  0.15127477574E+03  0.47000000000E+01 0. -1.
         -5    1    4    4    0  502  0.93345171612E+01 -0.26596435885E+02 -0.34009053842E+01  0.28777765199E+02  0.47000000000E+01 0.  1.
          5    1    3    3  503    0 -0.19515475873E+02 -0.82539337370E+01  0.97635134041E+01  0.23799105333E+02  0.47000000000E+01 0. -1.
         -5    1    3    3    0  503  0.69372553862E+02  0.70522845461E+02  0.65197052092E+00  0.99038063525E+02  0.47000000000E+01 0.  1.
<mgrwt>
<rscale>  0 0.12317438E+03</rscale>
<asrwt>0</asrwt>
<pdfrwt beam="1">  1        3 0.34183672E-01 0.12343535E+03</pdfrwt>
<pdfrwt beam="2">  1       -3 0.12414745E-01 0.12343535E+03</pdfrwt>
<totfact> 0.97843528E+02</totfact>
</mgrwt>
</event>
<event>
 8    1  0.3400573E-004  0.9757262E+02  0.7546771E-02  0.1289588E+00
         -1   -1    0    0    0  501 -0.00000000000E+00  0.00000000000E+00  0.15591796345E+02  0.15591796345E+02  0.00000000000E+00 0.  1.
          1   -1    0    0  501    0  0.00000000000E+00 -0.00000000000E+00 -0.70715399368E+03  0.70715399368E+03  0.00000000000E+00 0. -1.
         23    2    1    2    0    0  0.10844887700E+02 -0.14491783104E+02 -0.19515844763E+03  0.21819082512E+03  0.95879054640E+02 0.  0.
         23    2    1    2    0    0 -0.10844887700E+02  0.14491783104E+02 -0.49640374971E+03  0.50455496491E+03  0.88495234461E+02 0.  0.
          5    1    4    4  502    0 -0.13597902914E+02 -0.33067502230E+02 -0.12561478725E+03  0.13068866608E+03  0.47000000000E+01 0. -1.
         -5    1    4    4    0  502  0.27530152134E+01  0.47559285335E+02 -0.37078896246E+03  0.37386629883E+03  0.47000000000E+01 0.  1.
          5    1    3    3  503    0 -0.33398374479E+02 -0.41966139826E+00 -0.25645941315E+02  0.42372536383E+02  0.47000000000E+01 0.  1.
         -5    1    3    3    0  503  0.44243262180E+02 -0.14072121706E+02 -0.16951250631E+03  0.17581828874E+03  0.47000000000E+01 0. -1.
<mgrwt>
<rscale>  0 0.95708563E+02</rscale>
<asrwt>0</asrwt>
<pdfrwt beam="1">  1        1 0.10879290E+00 0.97572622E+02</pdfrwt>
<pdfrwt beam="2">  1       -1 0.23987383E-02 0.97572622E+02</pdfrwt>
<totfact> 0.13535773E+04</totfact>
</mgrwt>
</event>
<event>
 8    1  0.3400573E-004  0.1171284E+03  0.7546771E-02  0.1248666E+00
         -2   -1    0    0    0  501 -0.00000000000E+00  0.00000000000E+00  0.16076301222E+02  0.16076301222E+02  0.00000000000E+00 0.  1.
          2   -1    0    0  501    0  0.00000000000E+00 -0.00000000000E+00 -0.84872315551E+03  0.84872315551E+03  0.00000000000E+00 0. -1.
         23    2    1    2    0    0 -0.30563221610E+02 -0.67273018786E+02 -0.45548933799E+03  0.46987307743E+03  0.88602495989E+02 0.  0.
         23    2    1    2    0    0  0.30563221610E+02  0.67273018786E+02 -0.37715751630E+03  0.39492637930E+03  0.90880599692E+02 0.  0.
          5    1    4    4  502    0  0.36524589217E+02 -0.97653485700E+01 -0.15697268818E+03  0.16152994300E+03  0.47000000000E+01 0. -1.
         -5    1    3    3    0  503  0.21452520845E+01 -0.73383684814E+02 -0.38262583340E+03  0.38963365575E+03  0.47000000000E+01 0. -1.
          5    1    3    3  503    0 -0.32708473695E+02  0.61106660278E+01 -0.72863504591E+02  0.80239421683E+02  0.47000000000E+01 0.  1.
         -5    1    4    4    0  502 -0.59613676066E+01  0.77038367356E+02 -0.22018482812E+03  0.23339643631E+03  0.47000000000E+01 0.  1.
<mgrwt>
<rscale>  0 0.11668620E+03</rscale>
<asrwt>0</asrwt>
<pdfrwt beam="1">  1        2 0.13057280E+00 0.11712836E+03</pdfrwt>
<pdfrwt beam="2">  1       -2 0.24732770E-02 0.11712836E+03</pdfrwt>
<totfact> 0.17460801E+04</totfact>
</mgrwt>
</event>
<event>
 8    1  0.3400573E-004  0.1138056E+03  0.7546771E-02  0.1256022E+00
         -1   -1    0    0    0  501 -0.00000000000E+00  0.00000000000E+00  0.42117652452E+03  0.42117652452E+03  0.00000000000E+00 0.  1.
          1   -1    0    0  501    0  0.00000000000E+00 -0.00000000000E+00 -0.31951421841E+02  0.31951421841E+02  0.00000000000E+00 0. -1.
         23    2    1    2    0    0 -0.65136989114E+02 -0.10544299835E+01  0.26311135243E+03  0.28666930065E+03  0.93315405908E+02 0.  0.
         23    2    1    2    0    0  0.65136989114E+02  0.10544299835E+01  0.12611375025E+03  0.16645864572E+03  0.86947475864E+02 0.  0.
          5    1    3    3  502    0 -0.30742123988E+02  0.15351762510E+02  0.18977791725E+02  0.39534812232E+02  0.47000000000E+01 0. -1.
         -5    1    3    3    0  502 -0.34394865126E+02 -0.16406192494E+02  0.24413356071E+03  0.24713448841E+03  0.47000000000E+01 0.  1.
          5    1    4    4  503    0 -0.75523009684E+00  0.28123344195E+02  0.70215087942E+02  0.75787475456E+02  0.47000000000E+01 0. -1.
         -5    1    4    4    0  503  0.65892219211E+02 -0.27068914211E+02  0.55898662305E+02  0.90671170261E+02  0.47000000000E+01 0.  1.
<mgrwt>
<rscale>  0 0.11249296E+03</rscale>
<asrwt>0</asrwt>
<pdfrwt beam="1">  1        1 0.49156036E-02 0.11380555E+03</pdfrwt>
<pdfrwt beam="2">  1       -1 0.64796385E-01 0.11380555E+03</pdfrwt>
<totfact> 0.40363095E+03</totfact>
</mgrwt>
</event>
<event>
 8    1  0.3400573E-004  0.1016202E+03  0.7546771E-02  0.1276929E+00
         -2   -1    0    0    0  501 -0.00000000000E+00  0.00000000000E+00  0.45201644410E+03  0.45201644410E+03  0.00000000000E+00 0.  1.
          2   -1    0    0  501    0  0.00000000000E+00 -0.00000000000E+00 -0.23198609200E+02  0.23198609200E+02  0.00000000000E+00 0. -1.
         23    2    1    2    0    0  0.35755865177E+02  0.22293923400E+02  0.18502868488E+03  0.21109423006E+03  0.92464365139E+02 0.  0.
         23    2    1    2    0    0 -0.35755865177E+02 -0.22293923400E+02  0.24378915001E+03  0.26412082323E+03  0.92472475293E+02 0.  0.
          5    1    3    3  502    0 -0.17522521502E+02  0.40940033313E+02  0.88155499935E+02  0.98876727577E+02  0.47000000000E+01 0. -1.
         -5    1    3    3    0  502  0.53278386679E+02 -0.18646109913E+02  0.96873184948E+02  0.11221750248E+03  0.47000000000E+01 0.  1.
          5    1    4    4  503    0 -0.52851005431E+02 -0.43919834376E+02  0.13203715501E+03  0.14892307051E+03  0.47000000000E+01 0. -1.
         -5    1    4    4    0  503  0.17095140254E+02  0.21625910976E+02  0.11175199500E+03  0.11519775273E+03  0.47000000000E+01 0.  1.
<mgrwt>
<rscale>  0 0.10161833E+03</rscale>
<asrwt>0</asrwt>
<pdfrwt beam="1">  1        2 0.35690171E-02 0.10162017E+03</pdfrwt>
<pdfrwt beam="2">  1       -2 0.69540985E-01 0.10162017E+03</pdfrwt>
<totfact> 0.44262354E+03</totfact>
</mgrwt>
</event>
<event>
 8    1  0.3400573E-004  0.1251516E+03  0.7546771E-02  0.1235167E+00
          1   -1    0    0  501    0  0.00000000000E+00  0.00000000000E+00  0.10313728773E+03  0.10313728773E+03  0.00000000000E+00 0. -1.
         -1   -1    0    0    0  501 -0.00000000000E+00 -0.00000000000E+00 -0.15193071479E+03  0.15193071479E+03  0.00000000000E+00 0.  1.
         23    2    1    2    0    0  0.63217649045E+02  0.57031835319E+02 -0.13625307112E+02  0.12589111139E+03  0.91726885600E+02 0.  0.
         23    2    1    2    0    0 -0.63217649045E+02 -0.57031835319E+02 -0.35168119945E+02  0.12917689114E+03  0.90558109257E+02 0.  0.
          5    1    3    3  502    0 -0.87859139126E+01  0.50708043046E+02 -0.13679903226E+02  0.53457718480E+02  0.47000000000E+01 0. -1.
         -5    1    4    4    0  503 -0.40950967381E+02 -0.36854968500E+02 -0.65842776389E+02  0.85980414254E+02  0.47000000000E+01 0.  1.
          5    1    4    4  503    0 -0.22266681665E+02 -0.20176866819E+02  0.30674656445E+02  0.43196476882E+02  0.47000000000E+01 0. -1.
         -5    1    3    3    0  502  0.72003562958E+02  0.63237922731E+01  0.54596114066E-01  0.72433392908E+02  0.47000000000E+01 0.  1.
<mgrwt>
<rscale>  0 0.12493753E+03</rscale>
<asrwt>0</asrwt>
<pdfrwt beam="1">  1        1 0.15867275E-01 0.12515160E+03</pdfrwt>
<pdfrwt beam="2">  1       -1 0.23373956E-01 0.12515160E+03</pdfrwt>
<totfact> 0.51137876E+03</totfact>
</mgrwt>
</event>
<event>
 8    1  0.3400573E-004  0.1078273E+03  0.7546771E-02  0.1270492E+00
         -2   -1    0    0    0  501 -0.00000000000E+00  0.00000000000E+00  0.54077482322E+02  0.54077482322E+02  0.00000000000E+00 0.  1.
          2   -1    0    0  501    0  0.00000000000E+00 -0.00000000000E+00 -0.41255785185E+03  0.41255785185E+03  0.00000000000E+00 0. -1.
         23    2    1    2    0    0 -0.86431774300E+00  0.32319792170E+02 -0.42461775411E+01  0.96353560149E+02  0.90667869273E+02 0.  0.
         23    2    1    2    0    0  0.86431774300E+00 -0.32319792170E+02 -0.35423419199E+03  0.37028177402E+03  0.10286599725E+03 0.  0.
          5    1    4    4  502    0 -0.28330831428E+02  0.40884859802E+01 -0.28608209664E+03  0.28754896582E+03  0.47000000000E+01 0. -1.
         -5    1    3    3    0  503  0.40591676328E+02  0.12082527340E+02 -0.20408608973E+02  0.47246936135E+02  0.47000000000E+01 0.  1.
          5    1    3    3  503    0 -0.41455994071E+02  0.20237264831E+02  0.16162431431E+02  0.49106624013E+02  0.47000000000E+01 0. -1.
         -5    1    4    4    0  502  0.29195149171E+02 -0.36408278151E+02 -0.68152095351E+02  0.82732808207E+02  0.47000000000E+01 0.  1.
<mgrwt>
<rscale>  0 0.10481127E+03</rscale>
<asrwt>0</asrwt>
<pdfrwt beam="1">  1        2 0.63470438E-01 0.10782731E+03</pdfrwt>
<pdfrwt beam="2">  1       -2 0.83196127E-02 0.10782731E+03</pdfrwt>
<totfact> 0.64690603E+03</totfact>
</mgrwt>
</event>
<event>
 8    1  0.3400573E-004  0.9415388E+02  0.7546771E-02  0.1294139E+00
          2   -1    0    0  501    0  0.00000000000E+00  0.00000000000E+00  0.15718086195E+03  0.15718086195E+03  0.00000000000E+00 0. -1.
         -2   -1    0    0    0  501 -0.00000000000E+00 -0.00000000000E+00 -0.63255815236E+02  0.63255815236E+02  0.00000000000E+00 0.  1.
         23    2    1    2    0    0 -0.98932867794E+00 -0.14418402745E+02  0.85607985476E+02  0.12591617256E+03  0.91199156942E+02 0.  0.
         23    2    1    2    0    0  0.98932867794E+00  0.14418402745E+02  0.83170612421E+01  0.94520504627E+02  0.93038073810E+02 0.  0.
          5    1    3    3  502    0 -0.16281575698E+02  0.34241187597E+02  0.52484296537E+02  0.64917178145E+02  0.47000000000E+01 0. -1.
         -5    1    4    4    0  503 -0.38951465143E+02 -0.16328628850E+02  0.10762784920E+02  0.43837977783E+02  0.47000000000E+01 0.  1.
          5    1    4    4  503    0  0.39940793821E+02  0.30747031594E+02 -0.24457236781E+01  0.50682526843E+02  0.47000000000E+01 0. -1.
         -5    1    3    3    0  502  0.15292247020E+02 -0.48659590342E+02  0.33123688938E+02  0.60998994418E+02  0.47000000000E+01 0.  1.
<mgrwt>
<rscale>  0 0.93696379E+02</rscale>
<asrwt>0</asrwt>
<pdfrwt beam="1">  1        2 0.24181671E-01 0.94153876E+02</pdfrwt>
<pdfrwt beam="2">  1       -2 0.97316639E-02 0.94153876E+02</pdfrwt>
<totfact> 0.13987127E+04</totfact>
</mgrwt>
</event>
<event>
 8    1  0.3400573E-004  0.1020549E+03  0.7546771E-02  0.1282413E+00
         -1   -1    0    0    0  501 -0.00000000000E+00  0.00000000000E+00  0.42027738312E+02  0.42027738312E+02  0.00000000000E+00 0.  1.
          1   -1    0    0  501    0  0.00000000000E+00 -0.00000000000E+00 -0.27654501670E+03  0.27654501670E+03  0.00000000000E+00 0. -1.
         23    2    1    2    0    0  0.30564921063E+01 -0.12291072295E+02 -0.39834751308E+02  0.98762612253E+02  0.89480911737E+02 0.  0.
         23    2    1    2    0    0 -0.30564921063E+01  0.12291072295E+02 -0.19468252708E+03  0.21981014276E+03  0.10126598593E+03 0.  0.
          5    1    3    3  502    0 -0.14299278950E+02  0.35857290917E+02 -0.15003569548E+02  0.41682271886E+02  0.47000000000E+01 0. -1.
         -5    1    4    4    0  503 -0.34769808935E+02  0.22314890149E+02 -0.28848707034E+02  0.50608614220E+02  0.47000000000E+01 0.  1.
          5    1    4    4  503    0  0.31713316829E+02 -0.10023817855E+02 -0.16583382005E+03  0.16920152854E+03  0.47000000000E+01 0. -1.
         -5    1    3    3    0  502  0.17355771056E+02 -0.48148363211E+02 -0.24831181759E+02  0.57080340367E+02  0.47000000000E+01 0.  1.
<mgrwt>
<rscale>  0 0.98999957E+02</rscale>
<asrwt>0</asrwt>
<pdfrwt beam="1">  1        1 0.42545387E-01 0.10205495E+03</pdfrwt>
<pdfrwt beam="2">  1       -1 0.64658059E-02 0.10205495E+03</pdfrwt>
<totfact> 0.10679665E+04</totfact>
</mgrwt>
</event>
<event>
 8    1  0.3400573E-004  0.1301915E+03  0.7546771E-02  0.1238668E+00
          2   -1    0    0  501    0  0.00000000000E+00  0.00000000000E+00  0.11760287379E+03  0.11760287379E+03  0.00000000000E+00 0. -1.
         -2   -1    0    0    0  501 -0.00000000000E+00 -0.00000000000E+00 -0.11571790800E+03  0.11571790800E+03  0.00000000000E+00 0.  1.
         23    2    1    2    0    0 -0.38532515817E+02 -0.11650245127E+02  0.71425497327E+01  0.13038732233E+03  0.12381177174E+03 0.  0.
         23    2    1    2    0    0  0.38532515817E+02  0.11650245127E+02 -0.52575839391E+01  0.10293345946E+03  0.94589491497E+02 0.  0.
          5    1    3    3  502    0 -0.62734308408E+02  0.28663450102E+02  0.32907624533E+02  0.76564930455E+02  0.47000000000E+01 0. -1.
         -5    1    3    3    0  502  0.24201792591E+02 -0.40313695228E+02 -0.25765074800E+02  0.53822391874E+02  0.47000000000E+01 0. -1.
          5    1    4    4  503    0 -0.20046882745E+02  0.17340303874E+02  0.24869380503E+02  0.36648870826E+02  0.47000000000E+01 0.  1.
         -5    1    4    4    0  503  0.58579398562E+02 -0.56900587471E+01 -0.30126964442E+02  0.66284588638E+02  0.47000000000E+01 0.  1.
<mgrwt>
<rscale>  0 0.12272539E+03</rscale>
<asrwt>0</asrwt>
<pdfrwt beam="1">  1        2 0.18092750E-01 0.13019154E+03</pdfrwt>
<pdfrwt beam="2">  1       -2 0.17802755E-01 0.13019154E+03</pdfrwt>
<totfact> 0.75472565E+03</totfact>
</mgrwt>
</event>
<event>
 8    1  0.3400573E-004  0.9927017E+02  0.7546771E-02  0.1282486E+00
         -1   -1    0    0    0  501 -0.00000000000E+00  0.00000000000E+00  0.42164178800E+03  0.42164178800E+03  0.00000000000E+00 0.  1.
          1   -1    0    0  501    0  0.00000000000E+00 -0.00000000000E+00 -0.46350848554E+02  0.46350848554E+02  0.00000000000E+00 0. -1.
         23    2    1    2    0    0  0.21911563848E+02  0.22679536894E+02  0.21297386504E+02  0.10034334355E+03  0.92847885803E+02 0.  0.
         23    2    1    2    0    0 -0.21911563848E+02 -0.22679536894E+02  0.35399355295E+03  0.36764929301E+03  0.94128046301E+02 0.  0.
          5    1    3    3  502    0  0.51965224119E+02  0.29515526604E+02  0.31266218718E+02  0.67610777702E+02  0.47000000000E+01 0. -1.
         -5    1    3    3    0  502 -0.30053660272E+02 -0.68359897097E+01 -0.99688322146E+01  0.32732565844E+02  0.47000000000E+01 0.  1.
          5    1    4    4  503    0  0.30638497230E+00  0.33555512421E+02  0.18559345254E+03  0.18866129945E+03  0.47000000000E+01 0. -1.
         -5    1    4    4    0  503 -0.22217948820E+02 -0.56235049315E+02  0.16840010041E+03  0.17898799356E+03  0.47000000000E+01 0.  1.
<mgrwt>
<rscale>  0 0.98965521E+02</rscale>
<asrwt>0</asrwt>
<pdfrwt beam="1">  1        1 0.71309001E-02 0.99270172E+02</pdfrwt>
<pdfrwt beam="2">  1       -1 0.64867965E-01 0.99270172E+02</pdfrwt>
<totfact> 0.24179573E+03</totfact>
</mgrwt>
</event>
<event>
 8    1  0.3400573E-004  0.9509412E+02  0.7546771E-02  0.1292987E+00
          2   -1    0    0  501    0  0.00000000000E+00  0.00000000000E+00  0.50300328024E+03  0.50300328024E+03  0.00000000000E+00 0. -1.
         -2   -1    0    0    0  501 -0.00000000000E+00 -0.00000000000E+00 -0.22982646743E+02  0.22982646743E+02  0.00000000000E+00 0.  1.
         23    2    1    2    0    0 -0.18436522343E+02 -0.15647336856E+02  0.36714906851E+03  0.37839567757E+03  0.88318207576E+02 0.  0.
         23    2    1    2    0    0  0.18436522343E+02  0.15647336856E+02  0.11287156498E+03  0.14759024941E+03  0.91968184891E+02 0.  0.
          5    1    3    3  502    0  0.96918196890E+00 -0.46594387574E+02  0.12550402210E+03  0.13396016509E+03  0.47000000000E+01 0. -1.
         -5    1    3    3    0  502 -0.19405704312E+02  0.30947050718E+02  0.24164504642E+03  0.24443551249E+03  0.47000000000E+01 0.  1.
          5    1    4    4  503    0  0.22318026636E+02 -0.16977470737E+02  0.11074074821E+03  0.11433255066E+03  0.47000000000E+01 0. -1.
         -5    1    4    4    0  503 -0.38815042929E+01  0.32624807593E+02  0.21308167703E+01  0.33257698750E+02  0.47000000000E+01 0.  1.
<mgrwt>
<rscale>  0 0.94200273E+02</rscale>
<asrwt>0</asrwt>
<pdfrwt beam="1">  1        2 0.77385112E-01 0.95094119E+02</pdfrwt>
<pdfrwt beam="2">  1       -2 0.35357922E-02 0.95094119E+02</pdfrwt>
<totfact> 0.18659914E+04</totfact>
</mgrwt>
</event>
<event>
 8    1  0.3400573E-004  0.1257016E+03  0.7546771E-02  0.1241454E+00
          2   -1    0    0  501    0  0.00000000000E+00  0.00000000000E+00  0.11160053782E+03  0.11160053782E+03  0.00000000000E+00 0. -1.
         -2   -1    0    0    0  501 -0.00000000000E+00 -0.00000000000E+00 -0.13448193452E+03  0.13448193452E+03  0.00000000000E+00 0.  1.
         23    2    1    2    0    0  0.17614448473E+02 -0.57542162903E+02 -0.49206449455E+02  0.13498946360E+03  0.11036082325E+03 0.  0.
         23    2    1    2    0    0 -0.17614448473E+02  0.57542162903E+02  0.26325052755E+02  0.11109300875E+03  0.89595082919E+02 0.  0.
          5    1    4    4  502    0 -0.25824245683E+02  0.78957217058E+02  0.13178976760E+02  0.84243155325E+02  0.47000000000E+01 0. -1.
         -5    1    3    3    0  503  0.34204121804E+02 -0.85705027706E+01 -0.70427214480E+02  0.78901571629E+02  0.47000000000E+01 0.  1.
          5    1    3    3  503    0 -0.16589673330E+02 -0.48971660132E+02  0.21220765025E+02  0.56087891969E+02  0.47000000000E+01 0. -1.
         -5    1    4    4    0  502  0.82097972096E+01 -0.21415054155E+02  0.13146075995E+02  0.26849853422E+02  0.47000000000E+01 0.  1.
<mgrwt>
<rscale>  0 0.12100127E+03</rscale>
<asrwt>0</asrwt>
<pdfrwt beam="1">  1        2 0.17169313E-01 0.12570155E+03</pdfrwt>
<pdfrwt beam="2">  1       -2 0.20689529E-01 0.12570155E+03</pdfrwt>
<totfact> 0.62091250E+03</totfact>
</mgrwt>
</event>
<event>
 8    1  0.3400573E-004  0.9295207E+02  0.7546771E-02  0.1296530E+00
          2   -1    0    0  501    0  0.00000000000E+00  0.00000000000E+00  0.35151306283E+02  0.35151306283E+02  0.00000000000E+00 0. -1.
         -2   -1    0    0    0  501 -0.00000000000E+00 -0.00000000000E+00 -0.26120185459E+03  0.26120185459E+03  0.00000000000E+00 0.  1.
         23    2    1    2    0    0 -0.68901088980E+01  0.14573013859E+02 -0.72988901774E+02  0.11727788367E+03  0.90370768958E+02 0.  0.
         23    2    1    2    0    0  0.68901088980E+01 -0.14573013859E+02 -0.15306164653E+03  0.17907527720E+03  0.91543655885E+02 0.  0.
          5    1    3    3  502    0 -0.13969492294E+02  0.51560332543E+02 -0.46715112406E+02  0.71119662077E+02  0.47000000000E+01 0. -1.
         -5    1    3    3    0  502  0.70793833958E+01 -0.36987318684E+02 -0.26273789369E+02  0.46158221592E+02  0.47000000000E+01 0.  1.
          5    1    4    4  503    0  0.37081526772E+02  0.13928428842E+02 -0.32419235382E+02  0.51401727408E+02  0.47000000000E+01 0. -1.
         -5    1    4    4    0  503 -0.30191417874E+02 -0.28501442701E+02 -0.12064241115E+03  0.12767354979E+03  0.47000000000E+01 0.  1.
<mgrwt>
<rscale>  0 0.92661992E+02</rscale>
<asrwt>0</asrwt>
<pdfrwt beam="1">  1        2 0.54078932E-02 0.92952070E+02</pdfrwt>
<pdfrwt beam="2">  1       -2 0.40184901E-01 0.92952070E+02</pdfrwt>
<totfact> 0.76052655E+03</totfact>
</mgrwt>
</event>
<event>
 8    1  0.3400573E-004  0.9408674E+02  0.7546771E-02  0.1294241E+00
         -1   -1    0    0    0  501 -0.00000000000E+00  0.00000000000E+00  0.82376608412E+02  0.82376608412E+02  0.00000000000E+00 0.  1.
          1   -1    0    0  501    0  0.00000000000E+00 -0.00000000000E+00 -0.57024541031E+03  0.57024541031E+03  0.00000000000E+00 0. -1.
         23    2    1    2    0    0 -0.21684711449E+02 -0.99673411162E+01  0.50229290465E+02  0.10665503435E+03  0.91009560668E+02 0.  0.
         23    2    1    2    0    0  0.21684711449E+02  0.99673411162E+01 -0.53809809236E+03  0.54596698437E+03  0.89223407332E+02 0.  0.
          5    1    3    3  502    0  0.18035652346E+02  0.30691688956E+02  0.11463103032E+02  0.37692933789E+02  0.47000000000E+01 0.  1.
         -5    1    3    3    0  502 -0.39720363795E+02 -0.40659030072E+02  0.38766187432E+02  0.68962100566E+02  0.47000000000E+01 0.  1.
          5    1    4    4  503    0  0.14806183595E+02 -0.38521937544E+02 -0.29791136610E+03  0.30079300988E+03  0.47000000000E+01 0. -1.
         -5    1    4    4    0  503  0.68785278547E+01  0.48489278660E+02 -0.24018672626E+03  0.24517397448E+03  0.47000000000E+01 0.  1.
<mgrwt>
<rscale>  0 0.93652082E+02</rscale>
<asrwt>0</asrwt>
<pdfrwt beam="1">  1        1 0.87730063E-01 0.94086740E+02</pdfrwt>
<pdfrwt beam="2">  1       -1 0.12673324E-01 0.94086740E+02</pdfrwt>
<totfact> 0.15557536E+03</totfact>
</mgrwt>
</event>
<event>
 8    1  0.3400573E-004  0.1496887E+03  0.7546771E-02  0.1203208E+00
         -1   -1    0    0    0  501 -0.00000000000E+00  0.00000000000E+00  0.17461696220E+02  0.17461696220E+02  0.00000000000E+00 0.  1.
          1   -1    0    0  501    0  0.00000000000E+00 -0.00000000000E+00 -0.14525379585E+04  0.14525379585E+04  0.00000000000E+00 0. -1.
         23    2    1    2    0    0 -0.83967565609E+02 -0.83001673016E+02 -0.99601736941E+03  0.10061253082E+04  0.79358086469E+02 0.  0.
         23    2    1    2    0    0  0.83967565609E+02  0.83001673016E+02 -0.43905889290E+03  0.46387434653E+03  0.92015586353E+02 0.  0.
          5    1    4    4  502    0  0.75963582420E+02  0.14934282298E+02 -0.28151776541E+03  0.29200657679E+03  0.47000000000E+01 0. -1.
         -5    1    3    3    0  503 -0.93864909131E+02 -0.56284021389E+02 -0.86835695420E+03  0.87523962555E+03  0.47000000000E+01 0.  1.
          5    1    3    3  503    0  0.98973435213E+01 -0.26717651627E+02 -0.12766041521E+03  0.13088568267E+03  0.47000000000E+01 0. -1.
         -5    1    4    4    0  502  0.80039831889E+01  0.68067390718E+02 -0.15754112749E+03  0.17186776974E+03  0.47000000000E+01 0.  1.
<mgrwt>
<rscale>  0 0.14779556E+03</rscale>
<asrwt>0</asrwt>
<pdfrwt beam="1">  1        1 0.22346745E+00 0.14968867E+03</pdfrwt>
<pdfrwt beam="2">  1       -1 0.26864139E-02 0.14968867E+03</pdfrwt>
<totfact> 0.33884896E+03</totfact>
</mgrwt>
</event>
<event>
 8    1  0.3400573E-004  0.1241121E+03  0.7546771E-02  0.1236465E+00
          1   -1    0    0  501    0  0.00000000000E+00  0.00000000000E+00  0.12895628333E+03  0.12895628333E+03  0.00000000000E+00 0. -1.
         -1   -1    0    0    0  501 -0.00000000000E+00 -0.00000000000E+00 -0.13816400871E+03  0.13816400871E+03  0.00000000000E+00 0.  1.
         23    2    1    2    0    0 -0.41962391042E+02  0.72171292913E+02 -0.53761989166E+02  0.13525337492E+03  0.91834558669E+02 0.  0.
         23    2    1    2    0    0  0.41962391042E+02 -0.72171292913E+02  0.44554263791E+02  0.13186691712E+03  0.91838247080E+02 0.  0.
          5    1    4    4  502    0  0.63663199037E+02 -0.26531847410E+02  0.42336899615E+02  0.81064449098E+02  0.47000000000E+01 0. -1.
         -5    1    4    4    0  502 -0.21700807995E+02 -0.45639445503E+02  0.22173641764E+01  0.50802468024E+02  0.47000000000E+01 0.  1.
          5    1    3    3  503    0  0.98844979497E+01  0.31641688668E+02  0.17800328008E+02  0.37918879712E+02  0.47000000000E+01 0. -1.
         -5    1    3    3    0  503 -0.51846888992E+02  0.40529604245E+02 -0.71562317174E+02  0.97334495210E+02  0.47000000000E+01 0.  1.
<mgrwt>
<rscale>  0 0.12411137E+03</rscale>
<asrwt>0</asrwt>
<pdfrwt beam="1">  1        1 0.19839428E-01 0.12411205E+03</pdfrwt>
<pdfrwt beam="2">  1       -1 0.21256001E-01 0.12411205E+03</pdfrwt>
<totfact> 0.44806503E+03</totfact>
</mgrwt>
</event>
<event>
 8    1  0.3400573E-004  0.9426278E+02  0.7546771E-02  0.1293058E+00
          3   -1    0    0  501    0  0.00000000000E+00  0.00000000000E+00  0.37427569441E+02  0.37427569441E+02  0.00000000000E+00 0. -1.
         -3   -1    0    0    0  501 -0.00000000000E+00 -0.00000000000E+00 -0.39203338115E+03  0.39203338115E+03  0.00000000000E+00 0.  1.
         23    2    1    2    0    0  0.20142110089E+02 -0.11404565015E+02 -0.31278317909E+03  0.32667841848E+03  0.91376710808E+02 0.  0.
         23    2    1    2    0    0 -0.20142110089E+02  0.11404565015E+02 -0.41822632620E+02  0.10278253211E+03  0.90990920457E+02 0.  0.
          5    1    3    3  502    0 -0.90042803429E+00  0.25908964566E+02 -0.27223687779E+02  0.37885411332E+02  0.47000000000E+01 0. -1.
         -5    1    4    4    0  503  0.16755230309E+01 -0.32708494851E+02 -0.41844409198E+02  0.53345080316E+02  0.47000000000E+01 0.  1.
          5    1    4    4  503    0 -0.21817633120E+02  0.44113059865E+02  0.21776577904E-01  0.49437451794E+02  0.47000000000E+01 0. -1.
         -5    1    3    3    0  502  0.21042538123E+02 -0.37313529581E+02 -0.28555949131E+03  0.28879300715E+03  0.47000000000E+01 0.  1.
<mgrwt>
<rscale>  0 0.94169159E+02</rscale>
<asrwt>0</asrwt>
<pdfrwt beam="1">  1        3 0.57580875E-02 0.94262782E+02</pdfrwt>
<pdfrwt beam="2">  1       -3 0.60312829E-01 0.94262782E+02</pdfrwt>
<totfact> 0.10714042E+03</totfact>
</mgrwt>
</event>
<event>
 8    1  0.3400573E-004  0.9747686E+02  0.7546771E-02  0.1286945E+00
          3   -1    0    0  501    0  0.00000000000E+00  0.00000000000E+00  0.96867757344E+03  0.96867757344E+03  0.00000000000E+00 0. -1.
         -3   -1    0    0    0  501 -0.00000000000E+00 -0.00000000000E+00 -0.10283335180E+02  0.10283335180E+02  0.00000000000E+00 0.  1.
         23    2    1    2    0    0  0.23566164779E+02 -0.27513188446E+02  0.34607583029E+03  0.35893222295E+03  0.88042720896E+02 0.  0.
         23    2    1    2    0    0 -0.23566164779E+02  0.27513188446E+02  0.61231840797E+03  0.62002868567E+03  0.90495296282E+02 0.  0.
          5    1    3    3  502    0 -0.24519455512E+02 -0.37939664627E+02  0.15019408773E+03  0.15691072570E+03  0.47000000000E+01 0. -1.
         -5    1    3    3    0  502  0.48085620291E+02  0.10426476182E+02  0.19588174256E+03  0.20202149726E+03  0.47000000000E+01 0.  1.
          5    1    4    4  503    0 -0.20140969618E+02  0.60447151707E+02  0.38552813061E+03  0.39078580616E+03  0.47000000000E+01 0. -1.
         -5    1    4    4    0  503 -0.34251951610E+01 -0.32933963261E+02  0.22679027737E+03  0.22924287951E+03  0.47000000000E+01 0.  1.
<mgrwt>
<rscale>  0 0.96903687E+02</rscale>
<asrwt>0</asrwt>
<pdfrwt beam="1">  1        3 0.14902725E+00 0.97476860E+02</pdfrwt>
<pdfrwt beam="2">  1       -3 0.15820523E-02 0.97476860E+02</pdfrwt>
<totfact> 0.10430876E+03</totfact>
</mgrwt>
</event>
<event>
 8    1  0.3400573E-004  0.1006357E+03  0.7546771E-02  0.1281588E+00
          1   -1    0    0  501    0  0.00000000000E+00  0.00000000000E+00  0.27103920932E+03  0.27103920932E+03  0.00000000000E+00 0. -1.
         -1   -1    0    0    0  501 -0.00000000000E+00 -0.00000000000E+00 -0.37567451809E+02  0.37567451809E+02  0.00000000000E+00 0.  1.
         23    2    1    2    0    0 -0.47898421985E+02  0.23223037427E+00  0.78401591672E+02  0.12374373984E+03  0.82893852684E+02 0.  0.
         23    2    1    2    0    0  0.47898421985E+02 -0.23223037427E+00  0.15507016584E+03  0.18486292129E+03  0.88505539801E+02 0.  0.
          5    1    3    3  502    0 -0.23786523015E+02  0.20968344563E+02  0.85072481497E+02  0.90911425349E+02  0.47000000000E+01 0. -1.
         -5    1    3    3    0  502 -0.24111898970E+02 -0.20736114189E+02 -0.66708898259E+01  0.32832314489E+02  0.47000000000E+01 0.  1.
          5    1    4    4  503    0  0.73339000614E+02 -0.12716513239E+01  0.12652305822E+03  0.14632293179E+03  0.47000000000E+01 0. -1.
         -5    1    4    4    0  503 -0.25440578629E+02  0.10394209496E+01  0.28547107622E+02  0.38539989497E+02  0.47000000000E+01 0.  1.
<mgrwt>
<rscale>  0 0.99388187E+02</rscale>
<asrwt>0</asrwt>
<pdfrwt beam="1">  1        1 0.41698339E-01 0.10063570E+03</pdfrwt>
<pdfrwt beam="2">  1       -1 0.57796081E-02 0.10063570E+03</pdfrwt>
<totfact> 0.12905365E+04</totfact>
</mgrwt>
</event>
<event>
 8    1  0.3400573E-004  0.1039132E+03  0.7546771E-02  0.1273656E+00
          1   -1    0    0  501    0  0.00000000000E+00  0.00000000000E+00  0.11366168423E+03  0.11366168423E+03  0.00000000000E+00 0. -1.
         -1   -1    0    0    0  501 -0.00000000000E+00 -0.00000000000E+00 -0.18643765549E+03  0.18643765549E+03  0.00000000000E+00 0.  1.
         23    2    1    2    0    0 -0.25190298106E+02  0.35670136362E+02 -0.14263798779E+03  0.17488490373E+03  0.91281017992E+02 0.  0.
         23    2    1    2    0    0  0.25190298106E+02 -0.35670136362E+02  0.69862016530E+02  0.12521443599E+03  0.94292332027E+02 0.  0.
          5    1    4    4  502    0 -0.68136939816E+01 -0.27318246639E+02  0.84164669172E+02  0.88873475019E+02  0.47000000000E+01 0. -1.
         -5    1    4    4    0  502  0.32003992088E+02 -0.83518897229E+01 -0.14302652642E+02  0.36340960968E+02  0.47000000000E+01 0.  1.
          5    1    3    3  503    0 -0.16876521084E+02 -0.25823021333E+02 -0.19175211154E+02  0.36625457233E+02  0.47000000000E+01 0. -1.
         -5    1    3    3    0  503 -0.83137770215E+01  0.61493157695E+02 -0.12346277663E+03  0.13825944650E+03  0.47000000000E+01 0.  1.
<mgrwt>
<rscale>  0 0.10322525E+03</rscale>
<asrwt>0</asrwt>
<pdfrwt beam="1">  1        1 0.17486413E-01 0.10391320E+03</pdfrwt>
<pdfrwt beam="2">  1       -1 0.28682716E-01 0.10391320E+03</pdfrwt>
<totfact> 0.31898116E+03</totfact>
</mgrwt>
</event>
<event>
 8    1  0.3400573E-004  0.1056044E+03  0.7546771E-02  0.1270146E+00
          4   -1    0    0  501    0  0.00000000000E+00  0.00000000000E+00  0.19637038916E+02  0.19637038916E+02  0.00000000000E+00 0. -1.
         -4   -1    0    0    0  501 -0.00000000000E+00 -0.00000000000E+00 -0.56248659577E+03  0.56248659577E+03  0.00000000000E+00 0.  1.
         23    2    1    2    0    0 -0.14110479510E+02 -0.49470411428E+02 -0.23430878672E+03  0.25601062411E+03  0.89411435972E+02 0.  0.
         23    2    1    2    0    0  0.14110479510E+02  0.49470411428E+02 -0.30854077013E+03  0.32611301057E+03  0.92227228054E+02 0.  0.
          5    1    3    3  502    0 -0.32150171827E+02  0.28670715006E+01 -0.30118140127E+02  0.44396463961E+02  0.47000000000E+01 0. -1.
         -5    1    4    4    0  503  0.35809512808E+02  0.63379555869E+02 -0.16804387298E+03  0.18319422086E+03  0.47000000000E+01 0.  1.
          5    1    4    4  503    0 -0.21699033298E+02 -0.13909144441E+02 -0.14049689715E+03  0.14291878971E+03  0.47000000000E+01 0. -1.
         -5    1    3    3    0  502  0.18039692318E+02 -0.52337482928E+02 -0.20419064659E+03  0.21161416015E+03  0.47000000000E+01 0.  1.
<mgrwt>
<rscale>  0 0.10498650E+03</rscale>
<asrwt>0</asrwt>
<pdfrwt beam="1">  1        4 0.30210829E-02 0.10560440E+03</pdfrwt>
<pdfrwt beam="2">  1       -4 0.86536399E-01 0.10560440E+03</pdfrwt>
<totfact> 0.99544202E+02</totfact>
</mgrwt>
</event>
<event>
 8    1  0.3400573E-004  0.1099993E+03  0.7546771E-02  0.1260653E+00
          1   -1    0    0  501    0  0.00000000000E+00  0.00000000000E+00  0.38799911730E+02  0.38799911730E+02  0.00000000000E+00 0. -1.
         -1   -1    0    0    0  501 -0.00000000000E+00 -0.00000000000E+00 -0.32943262399E+03  0.32943262399E+03  0.00000000000E+00 0.  1.
         23    2    1    2    0    0 -0.38823604923E+02  0.50443862863E+02 -0.10207404444E+03  0.14993407953E+03  0.89494480592E+02 0.  0.
         23    2    1    2    0    0  0.38823604923E+02 -0.50443862863E+02 -0.18855866783E+03  0.21829845619E+03  0.89710585579E+02 0.  0.
          5    1    4    4  502    0 -0.12540013362E+02 -0.46633828960E+02 -0.13671335055E+03  0.14506755721E+03  0.47000000000E+01 0. -1.
         -5    1    4    4    0  502  0.51363618285E+02 -0.38100339035E+01 -0.51845317280E+02  0.73230898980E+02  0.47000000000E+01 0.  1.
          5    1    3    3  503    0 -0.20771725580E+01  0.50400310666E+02 -0.11321002094E+02  0.51911087925E+02  0.47000000000E+01 0. -1.
         -5    1    3    3    0  503 -0.36746432365E+02  0.43552196959E-01 -0.90753042345E+02  0.98022991605E+02  0.47000000000E+01 0.  1.
<mgrwt>
<rscale>  0 0.10995522E+03</rscale>
<asrwt>0</asrwt>
<pdfrwt beam="1">  1        1 0.59692172E-02 0.10999929E+03</pdfrwt>
<pdfrwt beam="2">  1       -1 0.50681942E-01 0.10999929E+03</pdfrwt>
<totfact> 0.49011098E+03</totfact>
</mgrwt>
</event>
<event>
 8    1  0.3400573E-004  0.1815097E+03  0.7546771E-02  0.1166498E+00
         -2   -1    0    0    0  501 -0.00000000000E+00  0.00000000000E+00  0.94820065159E+02  0.94820065159E+02  0.00000000000E+00 0.  1.
          2   -1    0    0  501    0  0.00000000000E+00 -0.00000000000E+00 -0.36232784423E+03  0.36232784423E+03  0.00000000000E+00 0. -1.
         23    2    1    2    0    0  0.15469283205E+03 -0.26728237013E+02 -0.85858318749E+02  0.20079198651E+03  0.91112567773E+02 0.  0.
         23    2    1    2    0    0 -0.15469283205E+03  0.26728237013E+02 -0.18164946032E+03  0.25635592288E+03  0.89875257005E+02 0.  0.
          5    1    4    4  502    0 -0.13355882346E+03  0.55630176643E+02 -0.14375529118E+03  0.20401066055E+03  0.47000000000E+01 0. -1.
         -5    1    3    3    0  503  0.70937394056E+02 -0.53876155974E+02 -0.21852939731E+02  0.91838962499E+02  0.47000000000E+01 0.  1.
          5    1    3    3  503    0  0.83755437990E+02  0.27147918962E+02 -0.64005379018E+02  0.10895302401E+03  0.47000000000E+01 0. -1.
         -5    1    4    4    0  502 -0.21134008586E+02 -0.28901939631E+02 -0.37894169143E+02  0.52345262329E+02  0.47000000000E+01 0.  1.
<mgrwt>
<rscale>  0 0.18135502E+03</rscale>
<asrwt>0</asrwt>
<pdfrwt beam="1">  1        2 0.55742745E-01 0.18150970E+03</pdfrwt>
<pdfrwt beam="2">  1       -2 0.14587702E-01 0.18150970E+03</pdfrwt>
<totfact> 0.31316457E+03</totfact>
</mgrwt>
</event>
<event>
 8    1  0.3400573E-004  0.1068301E+03  0.7546771E-02  0.1268522E+00
          1   -1    0    0  501    0  0.00000000000E+00  0.00000000000E+00  0.36327525716E+02  0.36327525716E+02  0.00000000000E+00 0. -1.
         -1   -1    0    0    0  501 -0.00000000000E+00 -0.00000000000E+00 -0.44949500933E+03  0.44949500933E+03  0.00000000000E+00 0.  1.
         23    2    1    2    0    0 -0.94236154634E+01  0.51507984042E+02 -0.34813364738E+03  0.36415616556E+03  0.93117128036E+02 0.  0.
         23    2    1    2    0    0  0.94236154634E+01 -0.51507984042E+02 -0.65033836238E+02  0.12166636948E+03  0.88495359535E+02 0.  0.
          5    1    4    4  502    0 -0.31721855669E+02  0.37895697234E+01 -0.30549441671E+02  0.44452169263E+02  0.47000000000E+01 0. -1.
         -5    1    3    3    0  503  0.11831241165E+02 -0.19251986848E+02 -0.31910751835E+02  0.39382779838E+02  0.47000000000E+01 0.  1.
          5    1    3    3  503    0 -0.21254856628E+02  0.70759970890E+02 -0.31622289554E+03  0.32477338572E+03  0.47000000000E+01 0. -1.
         -5    1    4    4    0  502  0.41145471133E+02 -0.55297553765E+02 -0.34484394567E+02  0.77214200221E+02  0.47000000000E+01 0.  1.
<mgrwt>
<rscale>  0 0.10581486E+03</rscale>
<asrwt>0</asrwt>
<pdfrwt beam="1">  1        1 0.55888505E-02 0.10683013E+03</pdfrwt>
<pdfrwt beam="2">  1       -1 0.69153073E-01 0.10683013E+03</pdfrwt>
<totfact> 0.29768321E+03</totfact>
</mgrwt>
</event>
<event>
 7    1  0.7942063E-004  0.5831382E+03  0.7546771E-02  0.1055130E+00
          2   -1    0    0  501    0  0.00000000000E+00  0.00000000000E+00  0.25850902065E+03  0.25850902065E+03  0.00000000000E+00 0. -1.
         -2   -1    0    0    0  501 -0.00000000000E+00 -0.00000000000E+00 -0.44329261205E+03  0.44329261205E+03  0.00000000000E+00 0.  1.
         23    2    1    2    0    0  0.13549111761E+02 -0.15782937116E+02 -0.35352307512E+02  0.99821690884E+02  0.91004971243E+02 0.  0.
          5    1    3    3  502    0  0.18412587667E+01 -0.47240419564E+02 -0.44095225081E+02  0.64819181955E+02  0.47000000000E+01 0. -1.
         -5    1    1    2    0  503  0.25190481459E+03  0.11323654956E+03 -0.15952976201E+03  0.31898336436E+03  0.47000000000E+01 0.  1.
          5    1    1    2  503    0 -0.26545392635E+03 -0.97453612444E+02  0.10098478126E+02  0.28299657746E+03  0.47000000000E+01 0. -1.
         -5    1    3    3    0  502  0.11707852994E+02  0.31457482448E+02  0.87429175692E+01  0.35002508929E+02  0.47000000000E+01 0.  1.
<mgrwt>
<rscale>  0 0.36885820E+03</rscale>
<asrwt>0</asrwt>
<pdfrwt beam="1">  1        2 0.39770619E-01 0.58313818E+03</pdfrwt>
<pdfrwt beam="2">  1       -2 0.68198863E-01 0.58313818E+03</pdfrwt>
<totfact> 0.25829043E+02</totfact>
</mgrwt>
</event>
<event>
 8    1  0.3400573E-004  0.9115196E+02  0.7546771E-02  0.1300297E+00
         -2   -1    0    0    0  501 -0.00000000000E+00  0.00000000000E+00  0.65497894084E+02  0.65497894084E+02  0.00000000000E+00 0.  1.
          2   -1    0    0  501    0  0.00000000000E+00 -0.00000000000E+00 -0.26308250497E+03  0.26308250497E+03  0.00000000000E+00 0. -1.
         23    2    1    2    0    0 -0.29539587348E+01 -0.58718524252E+01 -0.21713531409E+03  0.23535535319E+03  0.90560439064E+02 0.  0.
         23    2    1    2    0    0  0.29539587348E+01  0.58718524252E+01  0.19550703206E+02  0.93225045870E+02  0.90914655906E+02 0.  0.
          5    1    4    4  502    0  0.36247564314E+02  0.26109885211E+02 -0.75275919708E+01  0.45545215614E+02  0.47000000000E+01 0. -1.
         -5    1    3    3    0  503 -0.36482925971E+02  0.24957239397E+02 -0.93964011230E+02  0.10394803073E+03  0.47000000000E+01 0.  1.
          5    1    3    3  503    0  0.33528967236E+02 -0.30829091822E+02 -0.12317130286E+03  0.13140732246E+03  0.47000000000E+01 0. -1.
         -5    1    4    4    0  502 -0.33293605580E+02 -0.20238032785E+02  0.27078295177E+02  0.47679830256E+02  0.47000000000E+01 0.  1.
<mgrwt>
<rscale>  0 0.91063505E+02</rscale>
<asrwt>0</asrwt>
<pdfrwt beam="1">  1        2 0.40474231E-01 0.91151957E+02</pdfrwt>
<pdfrwt beam="2">  1       -2 0.10076599E-01 0.91151957E+02</pdfrwt>
<totfact> 0.76214781E+03</totfact>
</mgrwt>
</event>
<event>
 8    1  0.3400573E-004  0.1581367E+03  0.7546771E-02  0.1194618E+00
          3   -1    0    0  501    0  0.00000000000E+00  0.00000000000E+00  0.36614503965E+03  0.36614503965E+03  0.00000000000E+00 0. -1.
         -3   -1    0    0    0  501 -0.00000000000E+00 -0.00000000000E+00 -0.63196083421E+02  0.63196083421E+02  0.00000000000E+00 0.  1.
         23    2    1    2    0    0 -0.21487941194E+01  0.12984684491E+03  0.14387571267E+03  0.21379294332E+03  0.90235145430E+02 0.  0.
         23    2    1    2    0    0  0.21487941194E+01 -0.12984684491E+03  0.15907324357E+03  0.21554817975E+03  0.65512598236E+02 0.  0.
          5    1    3    3  502    0  0.29410607988E+02  0.95801954186E+02  0.13172037978E+03  0.16557580360E+03  0.47000000000E+01 0. -1.
         -5    1    3    3    0  502 -0.31559402107E+02  0.34044890719E+02  0.12155332886E+02  0.48217139722E+02  0.47000000000E+01 0.  1.
          5    1    4    4  503    0  0.18257025405E+02 -0.20800902905E+02  0.64076898595E+02  0.69956668530E+02  0.47000000000E+01 0. -1.
         -5    1    4    4    0  503 -0.16108231285E+02 -0.10904594200E+03  0.94996344971E+02  0.14559151122E+03  0.47000000000E+01 0.  1.
<mgrwt>
<rscale>  0 0.15486578E+03</rscale>
<asrwt>0</asrwt>
<pdfrwt beam="1">  1        3 0.56330005E-01 0.15813666E+03</pdfrwt>
<pdfrwt beam="2">  1       -3 0.97224746E-02 0.15813666E+03</pdfrwt>
<totfact> 0.57446938E+02</totfact>
</mgrwt>
</event>
<event>
 8    1  0.3400573E-004  0.1264637E+03  0.7546771E-02  0.1233887E+00
         -1   -1    0    0    0  501 -0.00000000000E+00  0.00000000000E+00  0.53260289994E+02  0.53260289994E+02  0.00000000000E+00 0.  1.
          1   -1    0    0  501    0  0.00000000000E+00 -0.00000000000E+00 -0.33989508497E+03  0.33989508497E+03  0.00000000000E+00 0. -1.
         23    2    1    2    0    0  0.75574925486E+02 -0.45812524809E+02 -0.21717517976E+03  0.25131281884E+03  0.90458373956E+02 0.  0.
         23    2    1    2    0    0 -0.75574925486E+02  0.45812524809E+02 -0.69459615212E+02  0.14184255612E+03  0.86511940154E+02 0.  0.
          5    1    4    4  502    0 -0.10493019578E+02 -0.23834343003E+02 -0.57110112380E+01  0.27071849136E+02  0.47000000000E+01 0. -1.
         -5    1    4    4    0  502 -0.65081905909E+02  0.69646867813E+02 -0.63748603974E+02  0.11477070698E+03  0.47000000000E+01 0.  1.
          5    1    3    3  503    0  0.70344013824E+02 -0.65929907722E+02 -0.20543564174E+03  0.22698221497E+03  0.47000000000E+01 0. -1.
         -5    1    3    3    0  503  0.52309116621E+01  0.20117382912E+02 -0.11739538017E+02  0.24330603875E+02  0.47000000000E+01 0.  1.
<mgrwt>
<rscale>  0 0.12575985E+03</rscale>
<asrwt>0</asrwt>
<pdfrwt beam="1">  1        1 0.52291551E-01 0.12646373E+03</pdfrwt>
<pdfrwt beam="2">  1       -1 0.81938908E-02 0.12646373E+03</pdfrwt>
<totfact> 0.59063005E+03</totfact>
</mgrwt>
</event>
<event>
 8    1  0.3400573E-004  0.9413650E+02  0.7546771E-02  0.1295379E+00
         -1   -1    0    0    0  501 -0.00000000000E+00  0.00000000000E+00  0.96906041675E+02  0.96906041675E+02  0.00000000000E+00 0.  1.
          1   -1    0    0  501    0  0.00000000000E+00 -0.00000000000E+00 -0.92174308499E+02  0.92174308499E+02  0.00000000000E+00 0. -1.
         23    2    1    2    0    0  0.79393973625E+01 -0.21684520939E+01  0.23044499599E+02  0.93179165575E+02  0.89908685457E+02 0.  0.
         23    2    1    2    0    0 -0.79393973625E+01  0.21684520939E+01 -0.18312766424E+02  0.95901184598E+02  0.93776028804E+02 0.  0.
          5    1    4    4  502    0 -0.11255899921E+02 -0.36827143995E+02 -0.35790618922E+02  0.52782499189E+02  0.47000000000E+01 0. -1.
         -5    1    4    4    0  502  0.33165025584E+01  0.38995596088E+02  0.17477852498E+02  0.43118685410E+02  0.47000000000E+01 0.  1.
          5    1    3    3  503    0  0.25649551723E+02 -0.26010068143E+02 -0.19036020795E+02  0.41459416736E+02  0.47000000000E+01 0. -1.
         -5    1    3    3    0  503 -0.17710154360E+02  0.23841616049E+02  0.42080520395E+02  0.51719748839E+02  0.47000000000E+01 0.  1.
<mgrwt>
<rscale>  0 0.93158381E+02</rscale>
<asrwt>0</asrwt>
<pdfrwt beam="1">  1        1 0.14180663E-01 0.94136496E+02</pdfrwt>
<pdfrwt beam="2">  1       -1 0.14908622E-01 0.94136496E+02</pdfrwt>
<totfact> 0.11785448E+04</totfact>
</mgrwt>
</event>
<event>
 8    1  0.3400573E-004  0.1072556E+03  0.7546771E-02  0.1266211E+00
         -2   -1    0    0    0  501 -0.00000000000E+00  0.00000000000E+00  0.61624479100E+02  0.61624479100E+02  0.00000000000E+00 0.  1.
          2   -1    0    0  501    0  0.00000000000E+00 -0.00000000000E+00 -0.25097840228E+03  0.25097840228E+03  0.00000000000E+00 0. -1.
         23    2    1    2    0    0  0.38586332198E+02  0.42590785771E+02 -0.14841141939E+02  0.10827752873E+03  0.90558730495E+02 0.  0.
         23    2    1    2    0    0 -0.38586332198E+02 -0.42590785771E+02 -0.17451278124E+03  0.20432535265E+03  0.89393841253E+02 0.  0.
          5    1    3    3  502    0 -0.26892240317E+02  0.13437399237E+01 -0.14075116026E+02  0.30744058245E+02  0.47000000000E+01 0. -1.
         -5    1    4    4    0  503 -0.71604782008E+01 -0.31565097890E+02 -0.69713372564E+01  0.33441252907E+02  0.47000000000E+01 0.  1.
          5    1    4    4  503    0 -0.31425853997E+02 -0.11025687881E+02 -0.16754144398E+03  0.17088409974E+03  0.47000000000E+01 0. -1.
         -5    1    3    3    0  502  0.65478572515E+02  0.41247045847E+02 -0.76602591322E+00  0.77533470485E+02  0.47000000000E+01 0.  1.
<mgrwt>
<rscale>  0 0.10700932E+03</rscale>
<asrwt>0</asrwt>
<pdfrwt beam="1">  1        2 0.38612062E-01 0.10725560E+03</pdfrwt>
<pdfrwt beam="2">  1       -2 0.94806890E-02 0.10725560E+03</pdfrwt>
<totfact> 0.89201404E+03</totfact>
</mgrwt>
</event>
<event>
 8    1  0.3458735E-004  0.1313105E+03  0.7546771E-02  0.1228965E+00
          1   -1    0    0  501    0  0.00000000000E+00  0.00000000000E+00  0.22856025747E+03  0.22856025747E+03  0.00000000000E+00 0. -1.
         -1   -1    0    0    0  501 -0.00000000000E+00 -0.00000000000E+00 -0.25170765764E+03  0.25170765764E+03  0.00000000000E+00 0.  1.
         23    2    1    2    0    0 -0.79213163756E+02  0.30980529915E+01  0.19234812721E+03  0.22791740827E+03  0.93081790410E+02 0.  0.
         23    2    1    2    0    0  0.79213163756E+02 -0.30980529915E+01 -0.21549552738E+03  0.25235050684E+03  0.10468110019E+03 0.  0.
          5    1    3    3  502    0 -0.43775391273E+02 -0.12940655738E+02  0.18157226583E+03  0.18728140103E+03  0.47000000000E+01 0. -1.
         -5    1    3    3    0  502 -0.35437772483E+02  0.16038708730E+02  0.10775861385E+02  0.40636007245E+02  0.47000000000E+01 0.  1.
          5    1    4    4  503    0  0.17892672272E+02 -0.42285943293E+02 -0.13988622191E+03  0.14730408617E+03  0.47000000000E+01 0. -1.
         -5    1    4    4    0  503  0.61320491484E+02  0.39187890302E+02 -0.75609305471E+02  0.10504642067E+03  0.47000000000E+01 0.  1.
<mgrwt>
<rscale>  0 0.12898807E+03</rscale>
<asrwt>0</asrwt>
<pdfrwt beam="1">  1        1 0.35163117E-01 0.13131053E+03</pdfrwt>
<pdfrwt beam="2">  1       -1 0.38724255E-01 0.13131053E+03</pdfrwt>
<totfact> 0.80616526E+02</totfact>
</mgrwt>
</event>
<event>
 8    1  0.3400573E-004  0.1254299E+03  0.7546771E-02  0.1236188E+00
          2   -1    0    0  501    0  0.00000000000E+00  0.00000000000E+00  0.41071162553E+03  0.41071162553E+03  0.00000000000E+00 0. -1.
         -2   -1    0    0    0  501 -0.00000000000E+00 -0.00000000000E+00 -0.37374441660E+02  0.37374441660E+02  0.00000000000E+00 0.  1.
         23    2    1    2    0    0 -0.64728426777E+02 -0.58885451743E+02  0.15916572662E+03  0.19988839857E+03  0.83452847103E+02 0.  0.
         23    2    1    2    0    0  0.64728426777E+02  0.58885451743E+02  0.21417145724E+03  0.24819766862E+03  0.89863251398E+02 0.  0.
          5    1    3    3  502    0 -0.10184295566E+02  0.19808976434E+02  0.16958198927E+02  0.28386368813E+02  0.47000000000E+01 0. -1.
         -5    1    3    3    0  502 -0.54544131210E+02 -0.78694428177E+02  0.14220752770E+03  0.17150202975E+03  0.47000000000E+01 0.  1.
          5    1    4    4  503    0  0.39898431892E+02  0.29530890437E+02  0.20129715860E+03  0.20738031348E+03  0.47000000000E+01 0. -1.
         -5    1    4    4    0  503  0.24829994885E+02  0.29354561306E+02  0.12874298643E+02  0.40817355144E+02  0.47000000000E+01 0.  1.
<mgrwt>
<rscale>  0 0.12428692E+03</rscale>
<asrwt>0</asrwt>
<pdfrwt beam="1">  1        2 0.63186401E-01 0.12542994E+03</pdfrwt>
<pdfrwt beam="2">  1       -2 0.57499144E-02 0.12542994E+03</pdfrwt>
<totfact> 0.11536578E+04</totfact>
</mgrwt>
</event>
<event>
 8    1  0.3400573E-004  0.1094610E+03  0.7546771E-02  0.1261822E+00
         -1   -1    0    0    0  501 -0.00000000000E+00  0.00000000000E+00  0.32037623357E+03  0.32037623357E+03  0.00000000000E+00 0.  1.
          1   -1    0    0  501    0  0.00000000000E+00 -0.00000000000E+00 -0.86085767498E+02  0.86085767498E+02  0.00000000000E+00 0. -1.
         23    2    1    2    0    0  0.57324262178E+02 -0.15692998513E+02  0.27039417789E+03  0.29170999621E+03  0.91920450467E+02 0.  0.
         23    2    1    2    0    0 -0.57324262178E+02  0.15692998513E+02 -0.36103711817E+02  0.11475200486E+03  0.91280903676E+02 0.  0.
          5    1    3    3  502    0  0.75335979575E+02  0.91261421536E+01  0.16185078313E+03  0.17881991581E+03  0.47000000000E+01 0. -1.
         -5    1    4    4    0  503 -0.24904529472E+02  0.13548501205E+02  0.29629441423E+02  0.41277006579E+02  0.47000000000E+01 0.  1.
          5    1    4    4  503    0 -0.32419732706E+02  0.21444973085E+01 -0.65733153240E+02  0.73474998281E+02  0.47000000000E+01 0. -1.
         -5    1    3    3    0  502 -0.18011717397E+02 -0.24819140667E+02  0.10854339476E+03  0.11289008040E+03  0.47000000000E+01 0.  1.
<mgrwt>
<rscale>  0 0.10932663E+03</rscale>
<asrwt>0</asrwt>
<pdfrwt beam="1">  1        1 0.13243964E-01 0.10946100E+03</pdfrwt>
<pdfrwt beam="2">  1       -1 0.49288651E-01 0.10946100E+03</pdfrwt>
<totfact> 0.17933123E+03</totfact>
</mgrwt>
</event>
<event>
 8    1  0.3400573E-004  0.9613841E+02  0.7546771E-02  0.1288777E+00
          1   -1    0    0  501    0  0.00000000000E+00  0.00000000000E+00  0.10544738742E+03  0.10544738742E+03  0.00000000000E+00 0. -1.
         -1   -1    0    0    0  501 -0.00000000000E+00 -0.00000000000E+00 -0.10460550996E+03  0.10460550996E+03  0.00000000000E+00 0.  1.
         23    2    1    2    0    0  0.27348965578E+02  0.38277378205E+01 -0.42156561357E+02  0.10473689423E+03  0.91815161347E+02 0.  0.
         23    2    1    2    0    0 -0.27348965578E+02 -0.38277378205E+01  0.42998438818E+02  0.10531600315E+03  0.92086792121E+02 0.  0.
          5    1    4    4  502    0 -0.18794992237E+02  0.17004589598E+02 -0.23542428729E+02  0.34910510610E+02  0.47000000000E+01 0. -1.
         -5    1    3    3    0  503  0.22206850145E+02 -0.33902420022E+02 -0.51051069312E+02  0.65351510730E+02  0.47000000000E+01 0.  1.
          5    1    3    3  503    0  0.51421154325E+01  0.37730157843E+02  0.88945079552E+01  0.39385383504E+02  0.47000000000E+01 0. -1.
         -5    1    4    4    0  502 -0.85539733414E+01 -0.20832327418E+02  0.66540867547E+02  0.70405492538E+02  0.47000000000E+01 0.  1.
<mgrwt>
<rscale>  0 0.96073311E+02</rscale>
<asrwt>0</asrwt>
<pdfrwt beam="1">  1        1 0.16222675E-01 0.96138415E+02</pdfrwt>
<pdfrwt beam="2">  1       -1 0.16093155E-01 0.96138415E+02</pdfrwt>
<totfact> 0.88258609E+03</totfact>
</mgrwt>
</event>
<event>
 8    1  0.3400573E-004  0.9123415E+02  0.7546771E-02  0.1300051E+00
         -1   -1    0    0    0  501 -0.00000000000E+00  0.00000000000E+00  0.20936596442E+03  0.20936596442E+03  0.00000000000E+00 0.  1.
          1   -1    0    0  501    0  0.00000000000E+00 -0.00000000000E+00 -0.55189174859E+02  0.55189174859E+02  0.00000000000E+00 0. -1.
         23    2    1    2    0    0 -0.19810030629E+02  0.14882710702E+02  0.14722044325E+03  0.17305617168E+03  0.87525123563E+02 0.  0.
         23    2    1    2    0    0  0.19810030629E+02 -0.14882710702E+02  0.69563463015E+01  0.91498967590E+02  0.87805113318E+02 0.  0.
          5    1    4    4  502    0  0.32557278421E+02  0.66892203520E+01 -0.31055095853E+02  0.45729979505E+02  0.47000000000E+01 0. -1.
         -5    1    3    3    0  503  0.44393996060E+01 -0.33737921566E+02  0.39720908801E+02  0.52514723806E+02  0.47000000000E+01 0.  1.
          5    1    3    3  503    0 -0.24249430234E+02  0.48620632268E+02  0.10749953445E+03  0.12054144788E+03  0.47000000000E+01 0. -1.
         -5    1    4    4    0  502 -0.12747247793E+02 -0.21571931054E+02  0.38011442154E+02  0.45768988085E+02  0.47000000000E+01 0.  1.
<mgrwt>
<rscale>  0 0.91166718E+02</rscale>
<asrwt>0</asrwt>
<pdfrwt beam="1">  1        1 0.84906424E-02 0.91234151E+02</pdfrwt>
<pdfrwt beam="2">  1       -1 0.32210148E-01 0.91234151E+02</pdfrwt>
<totfact> 0.66495323E+03</totfact>
</mgrwt>
</event>
<event>
 8    1  0.3400573E-004  0.1056775E+03  0.7546771E-02  0.1271315E+00
          1   -1    0    0  501    0  0.00000000000E+00  0.00000000000E+00  0.13667257732E+03  0.13667257732E+03  0.00000000000E+00 0. -1.
         -1   -1    0    0    0  501 -0.00000000000E+00 -0.00000000000E+00 -0.79053123085E+02  0.79053123085E+02  0.00000000000E+00 0.  1.
         23    2    1    2    0    0 -0.37237412332E+02  0.44950775233E+02  0.14895793345E+02  0.10173861571E+03  0.81985756050E+02 0.  0.
         23    2    1    2    0    0  0.37237412332E+02 -0.44950775233E+02  0.42723660887E+02  0.11398708469E+03  0.88093968048E+02 0.  0.
          5    1    3    3  502    0 -0.26795834115E+02 -0.83805326437E+01  0.33633693374E+02  0.44063197606E+02  0.47000000000E+01 0. -1.
         -5    1    4    4    0  503  0.28432885934E+02 -0.14696668017E+00 -0.20852527136E+02  0.35572018353E+02  0.47000000000E+01 0.  1.
          5    1    4    4  503    0  0.88045263974E+01 -0.44803808553E+02  0.63576188023E+02  0.78415066342E+02  0.47000000000E+01 0. -1.
         -5    1    3    3    0  502 -0.10441578217E+02  0.53331307877E+02 -0.18737900029E+02  0.57675418100E+02  0.47000000000E+01 0.  1.
<mgrwt>
<rscale>  0 0.10439558E+03</rscale>
<asrwt>0</asrwt>
<pdfrwt beam="1">  1        1 0.21026550E-01 0.10567755E+03</pdfrwt>
<pdfrwt beam="2">  1       -1 0.12162019E-01 0.10567755E+03</pdfrwt>
<totfact> 0.98839367E+03</totfact>
</mgrwt>
</event>
<event>
 8    1  0.3400573E-004  0.1214688E+03  0.7546771E-02  0.1243774E+00
          3   -1    0    0  501    0  0.00000000000E+00  0.00000000000E+00  0.36538183818E+03  0.36538183818E+03  0.00000000000E+00 0. -1.
         -3   -1    0    0    0  501 -0.00000000000E+00 -0.00000000000E+00 -0.38644075909E+02  0.38644075909E+02  0.00000000000E+00 0.  1.
         23    2    1    2    0    0  0.67710626690E+02 -0.15848456430E+02  0.14186259829E+03  0.18676098771E+03  0.99593007785E+02 0.  0.
         23    2    1    2    0    0 -0.67710626690E+02  0.15848456430E+02  0.18487516397E+03  0.21726492637E+03  0.90494858629E+02 0.  0.
          5    1    3    3  502    0 -0.18934518671E+02  0.67385099508E+01  0.66508604830E+02  0.69637691160E+02  0.47000000000E+01 0. -1.
         -5    1    4    4    0  503  0.19797286341E+02  0.16268615141E+02  0.34715522140E+02  0.43403431460E+02  0.47000000000E+01 0.  1.
          5    1    4    4  503    0 -0.87507913032E+02 -0.42015871144E+00  0.15015964183E+03  0.17386149491E+03  0.47000000000E+01 0. -1.
         -5    1    3    3    0  502  0.86645145362E+02 -0.22586966381E+02  0.75353993463E+02  0.11712329655E+03  0.47000000000E+01 0.  1.
<mgrwt>
<rscale>  0 0.11959051E+03</rscale>
<asrwt>0</asrwt>
<pdfrwt beam="1">  1        3 0.56212588E-01 0.12146880E+03</pdfrwt>
<pdfrwt beam="2">  1       -3 0.59452427E-02 0.12146880E+03</pdfrwt>
<totfact> 0.12303280E+03</totfact>
</mgrwt>
</event>
<event>
 8    1  0.3400573E-004  0.1258897E+03  0.7546771E-02  0.1234345E+00
         -2   -1    0    0    0  501 -0.00000000000E+00  0.00000000000E+00  0.10865043931E+03  0.10865043931E+03  0.00000000000E+00 0.  1.
          2   -1    0    0  501    0  0.00000000000E+00 -0.00000000000E+00 -0.28457130644E+03  0.28457130644E+03  0.00000000000E+00 0. -1.
         23    2    1    2    0    0  0.44979825035E+02 -0.70958280999E+02  0.49965821102E+02  0.13544296609E+03  0.93754741120E+02 0.  0.
         23    2    1    2    0    0 -0.44979825035E+02  0.70958280999E+02 -0.22588668823E+03  0.25777877966E+03  0.91470437967E+02 0.  0.
          5    1    3    3  502    0  0.47374069305E+02  0.24857881465E+01  0.22975186156E+01  0.47726828692E+02  0.47000000000E+01 0. -1.
         -5    1    4    4    0  503 -0.23491759263E+02 -0.19479214297E+02 -0.49465358032E+02  0.58311355567E+02  0.47000000000E+01 0.  1.
          5    1    4    4  503    0 -0.21488065773E+02  0.90437495296E+02 -0.17642133020E+03  0.19946742410E+03  0.47000000000E+01 0. -1.
         -5    1    3    3    0  502 -0.23942442692E+01 -0.73444069145E+02  0.47668302486E+02  0.87716137399E+02  0.47000000000E+01 0.  1.
<mgrwt>
<rscale>  0 0.12546458E+03</rscale>
<asrwt>0</asrwt>
<pdfrwt beam="1">  1        2 0.43780200E-01 0.12588969E+03</pdfrwt>
<pdfrwt beam="2">  1       -2 0.16715453E-01 0.12588969E+03</pdfrwt>
<totfact> 0.31856159E+03</totfact>
</mgrwt>
</event>
<event>
 8    1  0.3400573E-004  0.1106981E+03  0.7546771E-02  0.1259407E+00
          2   -1    0    0  501    0  0.00000000000E+00  0.00000000000E+00  0.30706420239E+02  0.30706420239E+02  0.00000000000E+00 0. -1.
         -2   -1    0    0    0  501 -0.00000000000E+00 -0.00000000000E+00 -0.39809363104E+03  0.39809363104E+03  0.00000000000E+00 0.  1.
         23    2    1    2    0    0 -0.49202398455E+02  0.39370709244E+02 -0.18391345891E+03  0.21465839918E+03  0.91011753148E+02 0.  0.
         23    2    1    2    0    0  0.49202398455E+02 -0.39370709244E+02 -0.18347375188E+03  0.21414165209E+03  0.90681314334E+02 0.  0.
          5    1    4    4  502    0  0.47948656521E+02  0.78593518581E+01 -0.40301875984E+02  0.63302245470E+02  0.47000000000E+01 0. -1.
         -5    1    4    4    0  502  0.12537419344E+01 -0.47230061102E+02 -0.14317187590E+03  0.15083940662E+03  0.47000000000E+01 0.  1.
          5    1    3    3  503    0 -0.71343330524E+02  0.23204840753E+02 -0.92971735792E+02  0.11955822473E+03  0.47000000000E+01 0. -1.
         -5    1    3    3    0  503  0.22140932069E+02  0.16165868491E+02 -0.90941723120E+02  0.95100174453E+02  0.47000000000E+01 0.  1.
<mgrwt>
<rscale>  0 0.11063015E+03</rscale>
<asrwt>0</asrwt>
<pdfrwt beam="1">  1        2 0.47240650E-02 0.11069809E+03</pdfrwt>
<pdfrwt beam="2">  1       -2 0.61245169E-01 0.11069809E+03</pdfrwt>
<totfact> 0.40207598E+03</totfact>
</mgrwt>
</event>
<event>
 8    1  0.3400573E-004  0.1509834E+03  0.7546771E-02  0.1200579E+00
          1   -1    0    0  501    0  0.00000000000E+00  0.00000000000E+00  0.32064605316E+03  0.32064605316E+03  0.00000000000E+00 0. -1.
         -1   -1    0    0    0  501 -0.00000000000E+00 -0.00000000000E+00 -0.80459341464E+02  0.80459341464E+02  0.00000000000E+00 0.  1.
         23    2    1    2    0    0  0.36573812502E+02 -0.10844685287E+03  0.19686257496E+03  0.24809443384E+03  0.98476449077E+02 0.  0.
         23    2    1    2    0    0 -0.36573812502E+02  0.10844685287E+03  0.43324136736E+02  0.15301096079E+03  0.91853196124E+02 0.  0.
          5    1    4    4  502    0  0.10536050472E+02  0.19463650079E+02  0.46986511586E+02  0.52150400813E+02  0.47000000000E+01 0. -1.
         -5    1    4    4    0  502 -0.47109862974E+02  0.88983202792E+02 -0.36623748494E+01  0.10086055997E+03  0.47000000000E+01 0.  1.
          5    1    3    3  503    0  0.67049041747E+02 -0.56313004584E+02  0.13887821305E+03  0.16424364993E+03  0.47000000000E+01 0. -1.
         -5    1    3    3    0  503 -0.30475229245E+02 -0.52133848288E+02  0.57984361909E+02  0.83850783901E+02  0.47000000000E+01 0.  1.
<mgrwt>
<rscale>  0 0.14991354E+03</rscale>
<asrwt>0</asrwt>
<pdfrwt beam="1">  1        1 0.49330161E-01 0.15098336E+03</pdfrwt>
<pdfrwt beam="2">  1       -1 0.12378360E-01 0.15098336E+03</pdfrwt>
<totfact> 0.34131676E+03</totfact>
</mgrwt>
</event>
<event>
 8    1  0.3400573E-004  0.9500329E+02  0.7546771E-02  0.1291289E+00
          2   -1    0    0  501    0  0.00000000000E+00  0.00000000000E+00  0.17943993677E+03  0.17943993677E+03  0.00000000000E+00 0. -1.
         -2   -1    0    0    0  501 -0.00000000000E+00 -0.00000000000E+00 -0.96726504873E+02  0.96726504873E+02  0.00000000000E+00 0.  1.
         23    2    1    2    0    0 -0.12720997873E+02  0.19575507176E+02  0.13716253647E+03  0.16685078950E+03  0.92090174714E+02 0.  0.
         23    2    1    2    0    0  0.12720997873E+02 -0.19575507176E+02 -0.54449104576E+02  0.10931565214E+03  0.91870466118E+02 0.  0.
          5    1    3    3  502    0 -0.32972336345E+02 -0.26796119960E+02  0.48435944126E+02  0.64601375313E+02  0.47000000000E+01 0. -1.
         -5    1    4    4    0  503 -0.36782312703E+01  0.22056638654E+02 -0.59790462581E+02  0.64007922241E+02  0.47000000000E+01 0.  1.
          5    1    4    4  503    0  0.16399229143E+02 -0.41632145830E+02  0.53413580054E+01  0.45307729895E+02  0.47000000000E+01 0. -1.
         -5    1    3    3    0  502  0.20251338472E+02  0.46371627136E+02  0.88726592342E+02  0.10224941419E+03  0.47000000000E+01 0.  1.
<mgrwt>
<rscale>  0 0.94950003E+02</rscale>
<asrwt>0</asrwt>
<pdfrwt beam="1">  1        2 0.27606144E-01 0.95003287E+02</pdfrwt>
<pdfrwt beam="2">  1       -2 0.14881001E-01 0.95003287E+02</pdfrwt>
<totfact> 0.61861912E+03</totfact>
</mgrwt>
</event>
<event>
 7    1  0.3400573E-004  0.3090615E+03  0.7546771E-02  0.1104391E+00
          1   -1    0    0  501    0  0.00000000000E+00  0.00000000000E+00  0.94593827050E+03  0.94593827050E+03  0.00000000000E+00 0. -1.
         -1   -1    0    0    0  501 -0.00000000000E+00 -0.00000000000E+00 -0.70949170665E+02  0.70949170665E+02  0.00000000000E+00 0.  1.
         23    2    1    2    0    0  0.95470763962E+01 -0.11415971421E+03  0.52159675944E+03  0.54741419579E+03  0.12031431867E+03 0.  0.
          5    1    1    2  502    0 -0.28020727744E+02  0.70579170031E+01 -0.46555203333E+02  0.54995020984E+02  0.47000000000E+01 0. -1.
         -5    1    3    3    0  503  0.21816713905E+02  0.15837704055E+02  0.17269037318E+03  0.17484523689E+03  0.47000000000E+01 0.  1.
          5    1    3    3  503    0 -0.12269637509E+02 -0.12999741827E+03  0.34890638627E+03  0.37256895891E+03  0.47000000000E+01 0. -1.
         -5    1    1    2    0  502  0.18473651348E+02  0.10710179721E+03  0.39994754373E+03  0.41447822439E+03  0.47000000000E+01 0.  1.
<mgrwt>
<rscale>  0 0.26463394E+03</rscale>
<asrwt>0</asrwt>
<pdfrwt beam="1">  1        1 0.14552896E+00 0.30906145E+03</pdfrwt>
<pdfrwt beam="2">  1       -1 0.10915258E-01 0.30906145E+03</pdfrwt>
<totfact> 0.93517721E+02</totfact>
</mgrwt>
</event>
<event>
 8    1  0.3400573E-004  0.9356132E+02  0.7546771E-02  0.1297535E+00
          3   -1    0    0  501    0  0.00000000000E+00  0.00000000000E+00  0.80415235572E+02  0.80415235572E+02  0.00000000000E+00 0. -1.
         -3   -1    0    0    0  501 -0.00000000000E+00 -0.00000000000E+00 -0.19174578881E+03  0.19174578881E+03  0.00000000000E+00 0.  1.
         23    2    1    2    0    0  0.45396776828E+01 -0.18680706643E+02  0.36097983261E+02  0.10028352640E+03  0.91564970365E+02 0.  0.
         23    2    1    2    0    0 -0.45396776828E+01  0.18680706643E+02 -0.14742853650E+03  0.17187749798E+03  0.86238758473E+02 0.  0.
          5    1    3    3  502    0  0.43539685763E+02  0.63669113121E+01  0.56129723989E+01  0.44607591900E+02  0.47000000000E+01 0.  1.
         -5    1    4    4    0  503  0.15555255644E+02  0.31468552696E+02 -0.17139464505E+02  0.39345737132E+02  0.47000000000E+01 0.  1.
          5    1    4    4  503    0 -0.20094933327E+02 -0.12787846053E+02 -0.13028907199E+03  0.13253176084E+03  0.47000000000E+01 0. -1.
         -5    1    3    3    0  502 -0.39000008080E+02 -0.25047617955E+02  0.30485010862E+02  0.55675934502E+02  0.47000000000E+01 0. -1.
<mgrwt>
<rscale>  0 0.92231806E+02</rscale>
<asrwt>0</asrwt>
<pdfrwt beam="1">  1        3 0.12371575E-01 0.93561324E+02</pdfrwt>
<pdfrwt beam="2">  1       -3 0.29499352E-01 0.93561324E+02</pdfrwt>
<totfact> 0.12318278E+03</totfact>
</mgrwt>
</event>
<event>
 8    1  0.3400573E-004  0.3178969E+03  0.7546771E-02  0.1076748E+00
          1   -1    0    0  501    0  0.00000000000E+00  0.00000000000E+00  0.62492210190E+02  0.62492210190E+02  0.00000000000E+00 0. -1.
         -1   -1    0    0    0  501 -0.00000000000E+00 -0.00000000000E+00 -0.24749489727E+04  0.24749489727E+04  0.00000000000E+00 0.  1.
         23    2    1    2    0    0  0.29686845573E+03  0.62115491955E+02 -0.45553497128E+03  0.55486676607E+03  0.91519416966E+02 0.  0.
         23    2    1    2    0    0 -0.29686845573E+03 -0.62115491955E+02 -0.19569217912E+04  0.19825744168E+04  0.95232383685E+02 0.  0.
          5    1    3    3  502    0  0.85705737317E+02  0.27559022831E+00 -0.19988115185E+03  0.21753186944E+03  0.47000000000E+01 0. -1.
         -5    1    3    3    0  502  0.21116271841E+03  0.61839901727E+02 -0.25565381943E+03  0.33733489663E+03  0.47000000000E+01 0.  1.
          5    1    4    4  503    0 -0.14703333946E+03 -0.50113930716E+02 -0.12641656862E+04  0.12736825276E+04  0.47000000000E+01 0. -1.
         -5    1    4    4    0  503 -0.14983511626E+03 -0.12001561239E+02 -0.69275610494E+03  0.70889188912E+03  0.47000000000E+01 0.  1.
<mgrwt>
<rscale>  0 0.31762340E+03</rscale>
<asrwt>0</asrwt>
<pdfrwt beam="1">  1        1 0.96141853E-02 0.31789687E+03</pdfrwt>
<pdfrwt beam="2">  1       -1 0.38076142E+00 0.31789687E+03</pdfrwt>
<totfact> 0.78630449E+00</totfact>
</mgrwt>
</event>
<event>
 8    1  0.3400573E-004  0.1095420E+03  0.7546771E-02  0.1261638E+00
         -3   -1    0    0    0  501 -0.00000000000E+00  0.00000000000E+00  0.43526260974E+02  0.43526260974E+02  0.00000000000E+00 0.  1.
          3   -1    0    0  501    0  0.00000000000E+00 -0.00000000000E+00 -0.29310640824E+03  0.29310640824E+03  0.00000000000E+00 0. -1.
         23    2    1    2    0    0  0.50723071697E+02 -0.31898149976E+02 -0.82147343830E+02  0.13654969063E+03  0.91144445463E+02 0.  0.
         23    2    1    2    0    0 -0.50723071697E+02  0.31898149976E+02 -0.16743280344E+03  0.20008297859E+03  0.91701323210E+02 0.  0.
          5    1    4    4  502    0 -0.61690632568E+02  0.55469224314E+02 -0.12897354293E+03  0.15342370667E+03  0.47000000000E+01 0. -1.
         -5    1    3    3    0  503  0.19655807090E+02 -0.19960117558E+02  0.16142507164E+02  0.32671510262E+02  0.47000000000E+01 0.  1.
          5    1    3    3  503    0  0.31067264607E+02 -0.11938032419E+02 -0.98289850994E+02  0.10387818037E+03  0.47000000000E+01 0. -1.
         -5    1    4    4    0  502  0.10967560871E+02 -0.23571074337E+02 -0.38459260512E+02  0.46659271919E+02  0.47000000000E+01 0.  1.
<mgrwt>
<rscale>  0 0.10942540E+03</rscale>
<asrwt>0</asrwt>
<pdfrwt beam="1">  1        3 0.45093294E-01 0.10954202E+03</pdfrwt>
<pdfrwt beam="2">  1       -3 0.66963478E-02 0.10954202E+03</pdfrwt>
<totfact> 0.15494625E+03</totfact>
</mgrwt>
</event>
<event>
 8    1  0.3400573E-004  0.2207106E+03  0.7546771E-02  0.1133373E+00
          1   -1    0    0  501    0  0.00000000000E+00  0.00000000000E+00  0.33065421384E+03  0.33065421384E+03  0.00000000000E+00 0. -1.
         -1   -1    0    0    0  501 -0.00000000000E+00 -0.00000000000E+00 -0.17062240049E+03  0.17062240049E+03  0.00000000000E+00 0.  1.
         23    2    1    2    0    0  0.14064029945E+03  0.14348425028E+03 -0.12747661370E+02  0.22098045477E+03  0.91117696472E+02 0.  0.
         23    2    1    2    0    0 -0.14064029945E+03 -0.14348425028E+03  0.17277947472E+03  0.28029615956E+03  0.91355165554E+02 0.  0.
          5    1    4    4  502    0 -0.11318409428E+03 -0.92467699707E+02  0.16686297493E+03  0.22186991028E+03  0.47000000000E+01 0. -1.
         -5    1    3    3    0  503  0.50946997671E+02  0.11418067438E+03  0.32395009243E+01  0.12516152499E+03  0.47000000000E+01 0.  1.
          5    1    3    3  503    0  0.89693301777E+02  0.29303575909E+02 -0.15987162295E+02  0.95818929773E+02  0.47000000000E+01 0.  1.
         -5    1    4    4    0  502 -0.27456205168E+02 -0.51016550577E+02  0.59164997879E+01  0.58426249278E+02  0.47000000000E+01 0.  1.
<mgrwt>
<rscale>  0 0.22068610E+03</rscale>
<asrwt>0</asrwt>
<pdfrwt beam="1">  1        1 0.50869879E-01 0.22071065E+03</pdfrwt>
<pdfrwt beam="2">  1       -1 0.26249600E-01 0.22071065E+03</pdfrwt>
<totfact> 0.99266108E+02</totfact>
</mgrwt>
</event>
<event>
 8    1  0.3400573E-004  0.1407242E+03  0.7546771E-02  0.1212854E+00
          3   -1    0    0  501    0  0.00000000000E+00  0.00000000000E+00  0.31712994100E+02  0.31712994100E+02  0.00000000000E+00 0. -1.
         -3   -1    0    0    0  501 -0.00000000000E+00 -0.00000000000E+00 -0.62546523046E+03  0.62546523046E+03  0.00000000000E+00 0.  1.
         23    2    1    2    0    0 -0.10237015360E+03 -0.33090526410E+02 -0.25925068892E+03  0.29428075067E+03  0.88405934326E+02 0.  0.
         23    2    1    2    0    0  0.10237015360E+03  0.33090526410E+02 -0.33450154743E+03  0.36289747388E+03  0.90711961879E+02 0.  0.
          5    1    3    3  502    0 -0.49713971581E+02  0.27396250808E+02 -0.83928754578E+02  0.10143056430E+03  0.47000000000E+01 0. -1.
         -5    1    4    4    0  503  0.75409579479E+02  0.27793918130E+02 -0.32276291420E+03  0.33265161257E+03  0.47000000000E+01 0.  1.
          5    1    4    4  503    0  0.26960574124E+02  0.52966082798E+01 -0.11738633234E+02  0.30245861313E+02  0.47000000000E+01 0. -1.
         -5    1    3    3    0  502 -0.52656182022E+02 -0.60486777219E+02 -0.17532193434E+03  0.19285018638E+03  0.47000000000E+01 0.  1.
<mgrwt>
<rscale>  0 0.14035388E+03</rscale>
<asrwt>0</asrwt>
<pdfrwt beam="1">  1        3 0.48789224E-02 0.14072417E+03</pdfrwt>
<pdfrwt beam="2">  1       -3 0.96225416E-01 0.14072417E+03</pdfrwt>
<totfact> 0.54591105E+02</totfact>
</mgrwt>
</event>
<event>
 8    1  0.3400573E-004  0.1207350E+03  0.7546771E-02  0.1244302E+00
         -1   -1    0    0    0  501 -0.00000000000E+00  0.00000000000E+00  0.94498267788E+02  0.94498267788E+02  0.00000000000E+00 0.  1.
          1   -1    0    0  501    0  0.00000000000E+00 -0.00000000000E+00 -0.14783659354E+03  0.14783659354E+03  0.00000000000E+00 0. -1.
         23    2    1    2    0    0 -0.18696827425E+02  0.67521735026E+02 -0.18226355363E+02  0.12210295218E+03  0.98326877530E+02 0.  0.
         23    2    1    2    0    0  0.18696827425E+02 -0.67521735026E+02 -0.35111970390E+02  0.12023190915E+03  0.91181716674E+02 0.  0.
          5    1    4    4  502    0 -0.81594638353E+01  0.18494681702E+02 -0.19846173059E+02  0.28715687114E+02  0.47000000000E+01 0. -1.
         -5    1    3    3    0  503  0.25216750859E+02  0.64784460566E+02 -0.30682265295E+02  0.76134107064E+02  0.47000000000E+01 0.  1.
          5    1    3    3  503    0 -0.43913578284E+02  0.27372744601E+01  0.12455909933E+02  0.45968845118E+02  0.47000000000E+01 0. -1.
         -5    1    4    4    0  502  0.26856291261E+02 -0.86016416728E+02 -0.15265797331E+02  0.91516222033E+02  0.47000000000E+01 0.  1.
<mgrwt>
<rscale>  0 0.11927254E+03</rscale>
<asrwt>0</asrwt>
<pdfrwt beam="1">  1        1 0.22744091E-01 0.12073496E+03</pdfrwt>
<pdfrwt beam="2">  1       -1 0.14538195E-01 0.12073496E+03</pdfrwt>
<totfact> 0.68681243E+03</totfact>
</mgrwt>
</event>
<event>
 8    1  0.3400573E-004  0.9345298E+02  0.7546771E-02  0.1295303E+00
         -1   -1    0    0    0  501 -0.00000000000E+00  0.00000000000E+00  0.91762545133E+03  0.91762545133E+03  0.00000000000E+00 0.  1.
          1   -1    0    0  501    0  0.00000000000E+00 -0.00000000000E+00 -0.16824321845E+02  0.16824321845E+02  0.00000000000E+00 0. -1.
         23    2    1    2    0    0  0.17999584578E+02  0.17294461416E+02  0.75911664744E+03  0.76472072146E+03  0.88975356014E+02 0.  0.
         23    2    1    2    0    0 -0.17999584578E+02 -0.17294461416E+02  0.14168448204E+03  0.16972905171E+03  0.90057621005E+02 0.  0.
          5    1    4    4  502    0 -0.38726090802E+02 -0.43492435323E+02  0.10287425327E+03  0.11830682155E+03  0.47000000000E+01 0. -1.
         -5    1    4    4    0  502  0.20726506224E+02  0.26197973907E+02  0.38810228774E+02  0.51422230160E+02  0.47000000000E+01 0.  1.
          5    1    3    3  503    0 -0.36081721215E+02  0.81121187471E+01  0.29155398945E+03  0.29392773915E+03  0.47000000000E+01 0. -1.
         -5    1    3    3    0  503  0.54081305792E+02  0.91823426692E+01  0.46756265799E+03  0.47079298231E+03  0.47000000000E+01 0.  1.
<mgrwt>
<rscale>  0 0.93191255E+02</rscale>
<asrwt>0</asrwt>
<pdfrwt beam="1">  1        1 0.25883579E-02 0.93452975E+02</pdfrwt>
<pdfrwt beam="2">  1       -1 0.14117311E+00 0.93452975E+02</pdfrwt>
<totfact> 0.17700520E+03</totfact>
</mgrwt>
</event>
<event>
 8    1  0.3400573E-004  0.9219240E+02  0.7546771E-02  0.1301442E+00
         -1   -1    0    0    0  501 -0.00000000000E+00  0.00000000000E+00  0.11575217366E+02  0.11575217366E+02  0.00000000000E+00 0.  1.
          1   -1    0    0  501    0  0.00000000000E+00 -0.00000000000E+00 -0.77584996542E+03  0.77584996542E+03  0.00000000000E+00 0. -1.
         23    2    1    2    0    0  0.12347239288E+02 -0.11995376657E+01 -0.52848539156E+03  0.53646644553E+03  0.91353953836E+02 0.  0.
         23    2    1    2    0    0 -0.12347239288E+02  0.11995376657E+01 -0.23578935649E+03  0.25095873725E+03  0.85028077476E+02 0.  0.
          5    1    4    4  502    0  0.12971361514E+02  0.38058337071E+02 -0.12505027947E+03  0.13143955126E+03  0.47000000000E+01 0. -1.
         -5    1    4    4    0  502 -0.25318600802E+02 -0.36858799405E+02 -0.11073907703E+03  0.11951918599E+03  0.47000000000E+01 0.  1.
          5    1    3    3  503    0  0.30995156742E+02  0.34397272289E+02 -0.19212818946E+03  0.19768460554E+03  0.47000000000E+01 0. -1.
         -5    1    3    3    0  503 -0.18647917454E+02 -0.35596809954E+02 -0.33635720210E+03  0.33878183999E+03  0.47000000000E+01 0.  1.
<mgrwt>
<rscale>  0 0.90584803E+02</rscale>
<asrwt>0</asrwt>
<pdfrwt beam="1">  1        1 0.11936153E+00 0.92192397E+02</pdfrwt>
<pdfrwt beam="2">  1       -1 0.17808027E-02 0.92192397E+02</pdfrwt>
<totfact> 0.18046162E+04</totfact>
</mgrwt>
</event>
<event>
 8    1  0.3400573E-004  0.1122845E+03  0.7546771E-02  0.1261577E+00
         -1   -1    0    0    0  501 -0.00000000000E+00  0.00000000000E+00  0.25131107241E+03  0.25131107241E+03  0.00000000000E+00 0.  1.
          1   -1    0    0  501    0  0.00000000000E+00 -0.00000000000E+00 -0.45484879590E+02  0.45484879590E+02  0.00000000000E+00 0. -1.
         23    2    1    2    0    0  0.29675392199E+02  0.60508985592E+02  0.10319435883E+03  0.14467395681E+03  0.75759566044E+02 0.  0.
         23    2    1    2    0    0 -0.29675392199E+02 -0.60508985592E+02  0.10263183399E+03  0.15212199519E+03  0.89810031906E+02 0.  0.
          5    1    4    4  502    0 -0.11088661289E+02 -0.81902430573E+02  0.68034042359E+02  0.10715263628E+03  0.47000000000E+01 0. -1.
         -5    1    3    3    0  503  0.51453798195E+02  0.47401551686E+02  0.93929099803E+02  0.11721418959E+03  0.47000000000E+01 0.  1.
          5    1    3    3  503    0 -0.21778405996E+02  0.13107433906E+02  0.92652590215E+01  0.27459767225E+02  0.47000000000E+01 0. -1.
         -5    1    4    4    0  502 -0.18586730910E+02  0.21393444981E+02  0.34597791634E+02  0.44969358902E+02  0.47000000000E+01 0.  1.
<mgrwt>
<rscale>  0 0.10945782E+03</rscale>
<asrwt>0</asrwt>
<pdfrwt beam="1">  1        1 0.69976739E-02 0.11228450E+03</pdfrwt>
<pdfrwt beam="2">  1       -1 0.38663241E-01 0.11228450E+03</pdfrwt>
<totfact> 0.64090581E+03</totfact>
</mgrwt>
</event>
<event>
 8    1  0.3400573E-004  0.9619940E+02  0.7546771E-02  0.1288715E+00
          3   -1    0    0  501    0  0.00000000000E+00  0.00000000000E+00  0.27938005946E+03  0.27938005946E+03  0.00000000000E+00 0. -1.
         -3   -1    0    0    0  501 -0.00000000000E+00 -0.00000000000E+00 -0.15063134342E+03  0.15063134342E+03  0.00000000000E+00 0.  1.
         23    2    1    2    0    0  0.53063051304E+01 -0.33097394134E+02 -0.12566301231E+03  0.15801939686E+03  0.89751561258E+02 0.  0.
         23    2    1    2    0    0 -0.53063051304E+01  0.33097394134E+02  0.25441172835E+03  0.27199200602E+03  0.90170557521E+02 0.  0.
          5    1    4    4  502    0  0.57399313013E+01  0.63244819670E+02  0.17342293157E+03  0.18474430227E+03  0.47000000000E+01 0. -1.
         -5    1    3    3    0  503  0.87914743918E+01 -0.63334822798E+02 -0.94572335068E+02  0.11425675630E+03  0.47000000000E+01 0.  1.
          5    1    3    3  503    0 -0.34851692614E+01  0.30237428665E+02 -0.31090677246E+02  0.43762640558E+02  0.47000000000E+01 0. -1.
         -5    1    4    4    0  502 -0.11046236432E+02 -0.30147425537E+02  0.80988796777E+02  0.87247703748E+02  0.47000000000E+01 0.  1.
<mgrwt>
<rscale>  0 0.96101089E+02</rscale>
<asrwt>0</asrwt>
<pdfrwt beam="1">  1        3 0.42981547E-01 0.96199396E+02</pdfrwt>
<pdfrwt beam="2">  1       -3 0.23174053E-01 0.96199396E+02</pdfrwt>
<totfact> 0.20762649E+02</totfact>
</mgrwt>
</event>
<event>
 8    1  0.3400573E-004  0.9573830E+02  0.7546771E-02  0.1289937E+00
          2   -1    0    0  501    0  0.00000000000E+00  0.00000000000E+00  0.20555855876E+03  0.20555855876E+03  0.00000000000E+00 0. -1.
         -2   -1    0    0    0  501 -0.00000000000E+00 -0.00000000000E+00 -0.51829853119E+02  0.51829853119E+02  0.00000000000E+00 0.  1.
         23    2    1    2    0    0  0.20506532925E+02 -0.17053634289E+02  0.12584129464E+03  0.15767116322E+03  0.91174667193E+02 0.  0.
         23    2    1    2    0    0 -0.20506532925E+02  0.17053634289E+02  0.27887410994E+02  0.99717248659E+02  0.91948233551E+02 0.  0.
          5    1    3    3  502    0 -0.24307657508E+02  0.83472670415E+01  0.55221624959E+01  0.26704369665E+02  0.47000000000E+01 0. -1.
         -5    1    3    3    0  502  0.44814190433E+02 -0.25400901330E+02  0.12031913215E+03  0.13096679355E+03  0.47000000000E+01 0.  1.
          5    1    4    4  503    0  0.13641771806E+02  0.43619005114E+02  0.32022348120E+02  0.56002109998E+02  0.47000000000E+01 0. -1.
         -5    1    4    4    0  503 -0.34148304731E+02 -0.26565370825E+02 -0.41349371259E+01  0.43715138660E+02  0.47000000000E+01 0.  1.
<mgrwt>
<rscale>  0 0.95552082E+02</rscale>
<asrwt>0</asrwt>
<pdfrwt beam="1">  1        2 0.31624393E-01 0.95738299E+02</pdfrwt>
<pdfrwt beam="2">  1       -2 0.79738237E-02 0.95738299E+02</pdfrwt>
<totfact> 0.14255017E+04</totfact>
</mgrwt>
</event>
<event>
 8    1  0.3400573E-004  0.9346508E+02  0.7546771E-02  0.1301707E+00
         -2   -1    0    0    0  501 -0.00000000000E+00  0.00000000000E+00  0.64671144334E+03  0.64671144334E+03  0.00000000000E+00 0.  1.
          2   -1    0    0  501    0  0.00000000000E+00 -0.00000000000E+00 -0.15169365297E+02  0.15169365297E+02  0.00000000000E+00 0. -1.
         23    2    1    2    0    0 -0.77913693005E+01 -0.20436920500E+02  0.17873723359E+03  0.20169957761E+03  0.90869949825E+02 0.  0.
         23    2    1    2    0    0  0.77913693005E+01  0.20436920500E+02  0.45280484445E+03  0.46018123103E+03  0.79095923255E+02 0.  0.
          5    1    4    4  502    0  0.25990268983E+02 -0.20840155121E+02  0.13363667640E+03  0.13780659428E+03  0.47000000000E+01 0. -1.
         -5    1    3    3    0  503  0.24744376671E+02 -0.10487946051E+02  0.93127038012E+01  0.28828764131E+02  0.47000000000E+01 0.  1.
          5    1    3    3  503    0 -0.32535745972E+02 -0.99489744491E+01  0.16942452979E+03  0.17287081348E+03  0.47000000000E+01 0. -1.
         -5    1    4    4    0  502 -0.18198899683E+02  0.41277075622E+02  0.31916816805E+03  0.32237463675E+03  0.47000000000E+01 0.  1.
<mgrwt>
<rscale>  0 0.90474358E+02</rscale>
<asrwt>0</asrwt>
<pdfrwt beam="1">  1        2 0.23337490E-02 0.93465079E+02</pdfrwt>
<pdfrwt beam="2">  1       -2 0.99494047E-01 0.93465079E+02</pdfrwt>
<totfact> 0.35263378E+03</totfact>
</mgrwt>
</event>
<event>
 8    1  0.3400573E-004  0.9522101E+02  0.7546771E-02  0.1292994E+00
          2   -1    0    0  501    0  0.00000000000E+00  0.00000000000E+00  0.42314203696E+03  0.42314203696E+03  0.00000000000E+00 0. -1.
         -2   -1    0    0    0  501 -0.00000000000E+00 -0.00000000000E+00 -0.20530722987E+02  0.20530722987E+02  0.00000000000E+00 0.  1.
         23    2    1    2    0    0 -0.24102266740E+02 -0.86864089865E+01  0.19684792271E+03  0.21694469920E+03  0.87518711555E+02 0.  0.
         23    2    1    2    0    0  0.24102266740E+02  0.86864089865E+01  0.20576339127E+03  0.22672806075E+03  0.91709690784E+02 0.  0.
          5    1    4    4  502    0  0.34004465378E+02 -0.35599816656E+02  0.11324427912E+03  0.12357187125E+03  0.47000000000E+01 0. -1.
         -5    1    3    3    0  503 -0.22628351851E+02  0.21437628815E+02  0.19669858491E+02  0.37156527957E+02  0.47000000000E+01 0.  1.
          5    1    3    3  503    0 -0.14739148890E+01 -0.30124037802E+02  0.17717806421E+03  0.17978817124E+03  0.47000000000E+01 0. -1.
         -5    1    4    4    0  502 -0.99021986381E+01  0.44286225642E+02  0.92519112150E+02  0.10315618950E+03  0.47000000000E+01 0.  1.
<mgrwt>
<rscale>  0 0.94197250E+02</rscale>
<asrwt>0</asrwt>
<pdfrwt beam="1">  1        2 0.65098769E-01 0.95221008E+02</pdfrwt>
<pdfrwt beam="2">  1       -2 0.31585731E-02 0.95221008E+02</pdfrwt>
<totfact> 0.26484419E+04</totfact>
</mgrwt>
</event>
<event>
 8    1  0.3400573E-004  0.1140877E+03  0.7546771E-02  0.1253801E+00
          1   -1    0    0  501    0  0.00000000000E+00  0.00000000000E+00  0.22053754487E+03  0.22053754487E+03  0.00000000000E+00 0. -1.
         -1   -1    0    0    0  501 -0.00000000000E+00 -0.00000000000E+00 -0.20487617237E+03  0.20487617237E+03  0.00000000000E+00 0.  1.
         23    2    1    2    0    0 -0.61589025465E+02 -0.25546542335E+02 -0.17206915003E+03  0.20645530710E+03  0.92575199451E+02 0.  0.
         23    2    1    2    0    0  0.61589025465E+02  0.25546542335E+02  0.18773052253E+03  0.21895841014E+03  0.90852641121E+02 0.  0.
          5    1    3    3  502    0 -0.96435452708E+01  0.28052698695E+02 -0.92508826849E+02  0.97262145332E+02  0.47000000000E+01 0. -1.
         -5    1    3    3    0  502 -0.51945480194E+02 -0.53599241031E+02 -0.79560323180E+02  0.10919316176E+03  0.47000000000E+01 0.  1.
          5    1    4    4  503    0  0.16024987961E+02  0.18026470437E+02  0.16581514987E+03  0.16762609523E+03  0.47000000000E+01 0. -1.
         -5    1    4    4    0  503  0.45564037504E+02  0.75200718980E+01  0.21915372657E+02  0.51332314907E+02  0.47000000000E+01 0.  1.
<mgrwt>
<rscale>  0 0.11373777E+03</rscale>
<asrwt>0</asrwt>
<pdfrwt beam="1">  1        1 0.33928853E-01 0.11408769E+03</pdfrwt>
<pdfrwt beam="2">  1       -1 0.31519411E-01 0.11408769E+03</pdfrwt>
<totfact> 0.11950449E+03</totfact>
</mgrwt>
</event>
<event>
 8    1  0.3400573E-004  0.9764926E+02  0.7546771E-02  0.1287789E+00
         -1   -1    0    0    0  501 -0.00000000000E+00  0.00000000000E+00  0.21258915228E+02  0.21258915228E+02  0.00000000000E+00 0.  1.
          1   -1    0    0  501    0  0.00000000000E+00 -0.00000000000E+00 -0.50541357908E+03  0.50541357908E+03  0.00000000000E+00 0. -1.
         23    2    1    2    0    0  0.22411176547E+02  0.37438794714E+01 -0.34963568068E+03  0.36301582133E+03  0.94968941594E+02 0.  0.
         23    2    1    2    0    0 -0.22411176547E+02 -0.37438794714E+01 -0.13451898318E+03  0.16365667298E+03  0.90398408766E+02 0.  0.
          5    1    4    4  502    0 -0.47361606526E+02 -0.26503279181E+02 -0.10610520635E+03  0.11927258861E+03  0.47000000000E+01 0. -1.
         -5    1    4    4    0  502  0.24950429979E+02  0.22759399709E+02 -0.28413776827E+02  0.44384084364E+02  0.47000000000E+01 0.  1.
          5    1    3    3  503    0 -0.37156742733E+02 -0.80724692571E+00 -0.14762957736E+03  0.15230842817E+03  0.47000000000E+01 0. -1.
         -5    1    3    3    0  503  0.59567919280E+02  0.45511263971E+01 -0.20200610331E+03  0.21070739317E+03  0.47000000000E+01 0.  1.
<mgrwt>
<rscale>  0 0.96520068E+02</rscale>
<asrwt>0</asrwt>
<pdfrwt beam="1">  1        1 0.77755936E-01 0.97649257E+02</pdfrwt>
<pdfrwt beam="2">  1       -1 0.32706023E-02 0.97649257E+02</pdfrwt>
<totfact> 0.13610755E+04</totfact>
</mgrwt>
</event>
<event>
 8    1  0.3400573E-004  0.1066649E+03  0.7546771E-02  0.1271084E+00
          2   -1    0    0  501    0  0.00000000000E+00  0.00000000000E+00  0.87763340684E+03  0.87763340684E+03  0.00000000000E+00 0. -1.
         -2   -1    0    0    0  501 -0.00000000000E+00 -0.00000000000E+00 -0.12186398719E+02  0.12186398719E+02  0.00000000000E+00 0.  1.
         23    2    1    2    0    0  0.32027757960E+01  0.29589908267E+02  0.50951532168E+03  0.52056053135E+03  0.10242843025E+03 0.  0.
         23    2    1    2    0    0 -0.32027757960E+01 -0.29589908267E+02  0.35593168644E+03  0.36925927421E+03  0.93697522574E+02 0.  0.
          5    1    3    3  502    0 -0.32151649436E+02 -0.20992146981E+02  0.28709867052E+03  0.28969317460E+03  0.47000000000E+01 0. -1.
         -5    1    4    4    0  503  0.35002241496E+02  0.57974392403E+01  0.23206959478E+03  0.23481301930E+03  0.47000000000E+01 0.  1.
          5    1    4    4  503    0 -0.38205017292E+02 -0.35387347508E+02  0.12386209166E+03  0.13444625491E+03  0.47000000000E+01 0. -1.
         -5    1    3    3    0  502  0.35354425232E+02  0.50582055249E+02  0.22241665116E+03  0.23086735674E+03  0.47000000000E+01 0.  1.
<mgrwt>
<rscale>  0 0.10451213E+03</rscale>
<asrwt>0</asrwt>
<pdfrwt beam="1">  1        2 0.13502047E+00 0.10666491E+03</pdfrwt>
<pdfrwt beam="2">  1       -2 0.18748313E-02 0.10666491E+03</pdfrwt>
<totfact> 0.24793207E+04</totfact>
</mgrwt>
</event>
<event>
 8    1  0.3400573E-004  0.1005494E+03  0.7546771E-02  0.1283098E+00
          1   -1    0    0  501    0  0.00000000000E+00  0.00000000000E+00  0.17426692147E+02  0.17426692147E+02  0.00000000000E+00 0. -1.
         -1   -1    0    0    0  501 -0.00000000000E+00 -0.00000000000E+00 -0.54272674972E+03  0.54272674972E+03  0.00000000000E+00 0.  1.
         23    2    1    2    0    0  0.23243137538E+01  0.28518657549E+01 -0.27622188936E+03  0.29154570100E+03  0.93203154641E+02 0.  0.
         23    2    1    2    0    0 -0.23243137538E+01 -0.28518657549E+01 -0.24907816822E+03  0.26860774087E+03  0.10048208299E+03 0.  0.
          5    1    3    3  502    0  0.24301630618E+02  0.13728580542E+02 -0.26051528073E+03  0.26204836322E+03  0.47000000000E+01 0. -1.
         -5    1    4    4    0  503  0.30383832359E+02 -0.24467441814E+02 -0.20780952468E+03  0.21149165829E+03  0.47000000000E+01 0.  1.
          5    1    4    4  503    0 -0.32708146113E+02  0.21615576059E+02 -0.41268643532E+02  0.57116082582E+02  0.47000000000E+01 0. -1.
         -5    1    3    3    0  502 -0.21977316864E+02 -0.10876714787E+02 -0.15706608632E+02  0.29497337775E+02  0.47000000000E+01 0.  1.
<mgrwt>
<rscale>  0 0.98679475E+02</rscale>
<asrwt>0</asrwt>
<pdfrwt beam="1">  1        1 0.26810297E-02 0.10054941E+03</pdfrwt>
<pdfrwt beam="2">  1       -1 0.83496419E-01 0.10054941E+03</pdfrwt>
<totfact> 0.55392087E+03</totfact>
</mgrwt>
</event>
<event>
 8    1  0.3400573E-004  0.9972359E+02  0.7546771E-02  0.1282756E+00
         -1   -1    0    0    0  501 -0.00000000000E+00  0.00000000000E+00  0.27953719530E+03  0.27953719530E+03  0.00000000000E+00 0.  1.
          1   -1    0    0  501    0  0.00000000000E+00 -0.00000000000E+00 -0.36549113810E+02  0.36549113810E+02  0.00000000000E+00 0. -1.
         23    2    1    2    0    0  0.22686210166E+02  0.35812133555E+02  0.16236035508E+03  0.19054049355E+03  0.90264177497E+02 0.  0.
         23    2    1    2    0    0 -0.22686210166E+02 -0.35812133555E+02  0.80627726417E+02  0.12554581557E+03  0.86392988707E+02 0.  0.
          5    1    3    3  502    0 -0.21183021414E+01  0.59474107899E+02  0.70500391806E+02  0.92379932665E+02  0.47000000000E+01 0.  1.
         -5    1    3    3    0  502  0.24804512308E+02 -0.23661974344E+02  0.91859963271E+02  0.98160560883E+02  0.47000000000E+01 0. -1.
          5    1    4    4  503    0 -0.37690151790E+01 -0.62645142518E+02  0.55914477737E+02  0.84185142259E+02  0.47000000000E+01 0. -1.
         -5    1    4    4    0  503 -0.18917194987E+02  0.26833008963E+02  0.24713248680E+02  0.41360673308E+02  0.47000000000E+01 0.  1.
<mgrwt>
<rscale>  0 0.98839425E+02</rscale>
<asrwt>0</asrwt>
<pdfrwt beam="1">  1        1 0.56229408E-02 0.99723592E+02</pdfrwt>
<pdfrwt beam="2">  1       -1 0.43005721E-01 0.99723592E+02</pdfrwt>
<totfact> 0.70717804E+03</totfact>
</mgrwt>
</event>
<event>
 8    1  0.3400573E-004  0.1212595E+03  0.7546771E-02  0.1242462E+00
         -2   -1    0    0    0  501 -0.00000000000E+00  0.00000000000E+00  0.19923910156E+02  0.19923910156E+02  0.00000000000E+00 0.  1.
          2   -1    0    0  501    0  0.00000000000E+00 -0.00000000000E+00 -0.72163162845E+03  0.72163162845E+03  0.00000000000E+00 0. -1.
         23    2    1    2    0    0 -0.34613767263E+02 -0.66817532237E+02 -0.31646585957E+03  0.33768036824E+03  0.90634956404E+02 0.  0.
         23    2    1    2    0    0  0.34613767263E+02  0.66817532237E+02 -0.38524185873E+03  0.40387517037E+03  0.95085056807E+02 0.  0.
          5    1    3    3  502    0 -0.87279740437E+01 -0.45121972065E+02 -0.29219416114E+03  0.29582374432E+03  0.47000000000E+01 0. -1.
         -5    1    3    3    0  502 -0.25885793219E+02 -0.21695560172E+02 -0.24271698423E+02  0.41856623922E+02  0.47000000000E+01 0.  1.
          5    1    4    4  503    0  0.11413008182E+02 -0.24168114420E+02 -0.79394578183E+02  0.83904371491E+02  0.47000000000E+01 0. -1.
         -5    1    4    4    0  503  0.23200759080E+02  0.90985646657E+02 -0.30584728055E+03  0.31997079888E+03  0.47000000000E+01 0.  1.
<mgrwt>
<rscale>  0 0.12038580E+03</rscale>
<asrwt>0</asrwt>
<pdfrwt beam="1">  1        2 0.11102024E+00 0.12125949E+03</pdfrwt>
<pdfrwt beam="2">  1       -2 0.30652171E-02 0.12125949E+03</pdfrwt>
<totfact> 0.15616507E+04</totfact>
</mgrwt>
</event>
<event>
 8    1  0.3400573E-004  0.9703603E+02  0.7546771E-02  0.1289204E+00
          1   -1    0    0  501    0  0.00000000000E+00  0.00000000000E+00  0.16715653877E+03  0.16715653877E+03  0.00000000000E+00 0. -1.
         -1   -1    0    0    0  501 -0.00000000000E+00 -0.00000000000E+00 -0.53749106790E+02  0.53749106790E+02  0.00000000000E+00 0.  1.
         23    2    1    2    0    0  0.31901575669E+02  0.19845395778E+02  0.60294652739E+02  0.11424287975E+03  0.89467536913E+02 0.  0.
         23    2    1    2    0    0 -0.31901575669E+02 -0.19845395778E+02  0.53112779245E+02  0.10666276581E+03  0.84524718442E+02 0.  0.
          5    1    3    3  502    0  0.20987035742E+02 -0.31836237601E+02  0.69864889320E+01  0.39050002835E+02  0.47000000000E+01 0. -1.
         -5    1    4    4    0  503 -0.13362036514E+02 -0.28306955139E+02 -0.15276773340E+02  0.35146799751E+02  0.47000000000E+01 0.  1.
          5    1    4    4  503    0 -0.18539539156E+02  0.84615593617E+01  0.68389552584E+02  0.71515966061E+02  0.47000000000E+01 0. -1.
         -5    1    3    3    0  502  0.10914539928E+02  0.51681633379E+02  0.53308163807E+02  0.75192876917E+02  0.47000000000E+01 0.  1.
<mgrwt>
<rscale>  0 0.95881200E+02</rscale>
<asrwt>0</asrwt>
<pdfrwt beam="1">  1        1 0.25716390E-01 0.97036026E+02</pdfrwt>
<pdfrwt beam="2">  1       -1 0.82690935E-02 0.97036026E+02</pdfrwt>
<totfact> 0.13681191E+04</totfact>
</mgrwt>
</event>
<event>
 8    1  0.3400573E-004  0.1199311E+03  0.7546771E-02  0.1243619E+00
         -2   -1    0    0    0  501 -0.00000000000E+00  0.00000000000E+00  0.44149618898E+03  0.44149618898E+03  0.00000000000E+00 0.  1.
          2   -1    0    0  501    0  0.00000000000E+00 -0.00000000000E+00 -0.36516095943E+02  0.36516095943E+02  0.00000000000E+00 0. -1.
         23    2    1    2    0    0 -0.42785641844E+02  0.63267159730E+02  0.12065196319E+03  0.16942524857E+03  0.91184834185E+02 0.  0.
         23    2    1    2    0    0  0.42785641844E+02 -0.63267159730E+02  0.28432812985E+03  0.30858703635E+03  0.92466907218E+02 0.  0.
          5    1    3    3  502    0 -0.44101530122E+02  0.14932449372E+02  0.89902389866E+01  0.47653304192E+02  0.47000000000E+01 0. -1.
         -5    1    4    4    0  503  0.64542749208E+02 -0.65743591031E+02  0.18449811620E+03  0.20627561930E+03  0.47000000000E+01 0.  1.
          5    1    4    4  503    0 -0.21757107364E+02  0.24764313008E+01  0.99830013651E+02  0.10231141705E+03  0.47000000000E+01 0. -1.
         -5    1    3    3    0  502  0.13158882784E+01  0.48334710358E+02  0.11166172420E+03  0.12177194438E+03  0.47000000000E+01 0.  1.
<mgrwt>
<rscale>  0 0.11968394E+03</rscale>
<asrwt>0</asrwt>
<pdfrwt beam="1">  1        2 0.56178612E-02 0.11993112E+03</pdfrwt>
<pdfrwt beam="2">  1       -2 0.67922487E-01 0.11993112E+03</pdfrwt>
<totfact> 0.26052340E+03</totfact>
</mgrwt>
</event>
<event>
 8    1  0.3400573E-004  0.9670707E+02  0.7546771E-02  0.1292189E+00
         -2   -1    0    0    0  501 -0.00000000000E+00  0.00000000000E+00  0.65493782808E+02  0.65493782808E+02  0.00000000000E+00 0.  1.
          2   -1    0    0  501    0  0.00000000000E+00 -0.00000000000E+00 -0.31649658668E+03  0.31649658668E+03  0.00000000000E+00 0. -1.
         23    2    1    2    0    0 -0.24806016208E+02  0.25805399089E+02  0.18419699385E+02  0.98445629716E+02  0.89838742325E+02 0.  0.
         23    2    1    2    0    0  0.24806016208E+02 -0.25805399089E+02 -0.26942250325E+03  0.28354473977E+03  0.80795279126E+02 0.  0.
          5    1    3    3  502    0  0.24770974560E+02 -0.17221588936E+02  0.19043019589E+01  0.30592493721E+02  0.47000000000E+01 0. -1.
         -5    1    3    3    0  502 -0.49576990768E+02  0.43026988025E+02  0.16515397426E+02  0.67853135995E+02  0.47000000000E+01 0.  1.
          5    1    4    4  503    0  0.47847647440E+02 -0.16696968095E+02 -0.23734843484E+03  0.24274380657E+03  0.47000000000E+01 0. -1.
         -5    1    4    4    0  503 -0.23041631232E+02 -0.91084309948E+01 -0.32074068416E+02  0.40800933198E+02  0.47000000000E+01 0.  1.
<mgrwt>
<rscale>  0 0.94551629E+02</rscale>
<asrwt>0</asrwt>
<pdfrwt beam="1">  1        2 0.48691783E-01 0.96707066E+02</pdfrwt>
<pdfrwt beam="2">  1       -2 0.10075967E-01 0.96707066E+02</pdfrwt>
<totfact> 0.63091320E+03</totfact>
</mgrwt>
</event>
<event>
 8    1  0.3400573E-004  0.1178379E+03  0.7546771E-02  0.1247276E+00
          1   -1    0    0  501    0  0.00000000000E+00  0.00000000000E+00  0.91400428185E+02  0.91400428185E+02  0.00000000000E+00 0. -1.
         -1   -1    0    0    0  501 -0.00000000000E+00 -0.00000000000E+00 -0.21523656059E+03  0.21523656059E+03  0.00000000000E+00 0.  1.
         23    2    1    2    0    0 -0.54111149092E+02 -0.49134129003E+02 -0.14594756209E+03  0.18674254412E+03  0.90718839367E+02 0.  0.
         23    2    1    2    0    0  0.54111149092E+02  0.49134129003E+02  0.22111429690E+02  0.11989444465E+03  0.92431506780E+02 0.  0.
          5    1    3    3  502    0  0.77592260573E+01  0.20819192799E+02 -0.23571248272E+02  0.32731301882E+02  0.47000000000E+01 0. -1.
         -5    1    3    3    0  502 -0.61870375150E+02 -0.69953321803E+02 -0.12237631382E+03  0.15401124224E+03  0.47000000000E+01 0.  1.
          5    1    4    4  503    0 -0.20149482697E+02  0.21777808856E+02  0.27102669844E+02  0.40458859650E+02  0.47000000000E+01 0.  1.
         -5    1    4    4    0  503  0.74260631789E+02  0.27356320147E+02 -0.49912401540E+01  0.79435584998E+02  0.47000000000E+01 0. -1.
<mgrwt>
<rscale>  0 0.11750179E+03</rscale>
<asrwt>0</asrwt>
<pdfrwt beam="1">  1        1 0.14061605E-01 0.11783787E+03</pdfrwt>
<pdfrwt beam="2">  1       -1 0.33113316E-01 0.11783787E+03</pdfrwt>
<totfact> 0.33399770E+03</totfact>
</mgrwt>
</event>
<event>
 8    1  0.3400573E-004  0.1806745E+03  0.7546771E-02  0.1167513E+00
          2   -1    0    0  501    0  0.00000000000E+00  0.00000000000E+00  0.36442867372E+03  0.36442867372E+03  0.00000000000E+00 0. -1.
         -2   -1    0    0    0  501 -0.00000000000E+00 -0.00000000000E+00 -0.12393412546E+03  0.12393412546E+03  0.00000000000E+00 0.  1.
         23    2    1    2    0    0 -0.20690218312E+02 -0.15427430948E+03 -0.93419161851E+01  0.18091589318E+03  0.91731354009E+02 0.  0.
         23    2    1    2    0    0  0.20690218312E+02  0.15427430948E+03  0.24983646444E+03  0.30744690600E+03  0.88750737156E+02 0.  0.
          5    1    4    4  502    0  0.43484009545E+02  0.13262175381E+03  0.16116740294E+03  0.21325198812E+03  0.47000000000E+01 0. -1.
         -5    1    3    3    0  503  0.31624652774E+02 -0.76030662288E+02  0.14412050903E+02  0.83729191338E+02  0.47000000000E+01 0.  1.
          5    1    3    3  503    0 -0.52314871086E+02 -0.78243647191E+02 -0.23753967088E+02  0.97186701842E+02  0.47000000000E+01 0. -1.
         -5    1    4    4    0  502 -0.22793791233E+02  0.21652555672E+02  0.88669061503E+02  0.94194917876E+02  0.47000000000E+01 0.  1.
<mgrwt>
<rscale>  0 0.18029965E+03</rscale>
<asrwt>0</asrwt>
<pdfrwt beam="1">  1        2 0.56065949E-01 0.18067454E+03</pdfrwt>
<pdfrwt beam="2">  1       -2 0.19066789E-01 0.18067454E+03</pdfrwt>
<totfact> 0.19924372E+03</totfact>
</mgrwt>
</event>
<event>
 8    1  0.3400573E-004  0.1033070E+03  0.7546771E-02  0.1274741E+00
          1   -1    0    0  501    0  0.00000000000E+00  0.00000000000E+00  0.18228308968E+02  0.18228308968E+02  0.00000000000E+00 0. -1.
         -1   -1    0    0    0  501 -0.00000000000E+00 -0.00000000000E+00 -0.59461792067E+03  0.59461792067E+03  0.00000000000E+00 0.  1.
         23    2    1    2    0    0  0.38985123367E+02  0.33981260615E+02 -0.34505160064E+03  0.35948953119E+03  0.86588394202E+02 0.  0.
         23    2    1    2    0    0 -0.38985123367E+02 -0.33981260615E+02 -0.23133801105E+03  0.25335669844E+03  0.89430282184E+02 0.  0.
          5    1    3    3  502    0  0.11380156002E+02  0.47818445045E+02 -0.91074993763E+02  0.10359949868E+03  0.47000000000E+01 0. -1.
         -5    1    4    4    0  503 -0.17870773387E+02 -0.50362482973E+02 -0.62558287020E+02  0.82409790120E+02  0.47000000000E+01 0.  1.
          5    1    4    4  503    0 -0.21114349980E+02  0.16381222359E+02 -0.16877972403E+03  0.17094690832E+03  0.47000000000E+01 0. -1.
         -5    1    3    3    0  502  0.27604967365E+02 -0.13837184431E+02 -0.25397660688E+03  0.25589003251E+03  0.47000000000E+01 0.  1.
<mgrwt>
<rscale>  0 0.10268897E+03</rscale>
<asrwt>0</asrwt>
<pdfrwt beam="1">  1        1 0.28043555E-02 0.10330702E+03</pdfrwt>
<pdfrwt beam="2">  1       -1 0.91479671E-01 0.10330702E+03</pdfrwt>
<totfact> 0.43125617E+03</totfact>
</mgrwt>
</event>
<event>
 8    1  0.3400573E-004  0.1379168E+03  0.7546771E-02  0.1225570E+00
          1   -1    0    0  501    0  0.00000000000E+00  0.00000000000E+00  0.10028833137E+04  0.10028833137E+04  0.00000000000E+00 0. -1.
         -1   -1    0    0    0  501 -0.00000000000E+00 -0.00000000000E+00 -0.15922254087E+02  0.15922254087E+02  0.00000000000E+00 0.  1.
         23    2    1    2    0    0 -0.66428579350E+02  0.85264974969E+01  0.48460234079E+03  0.50384569088E+03  0.12056365206E+03 0.  0.
         23    2    1    2    0    0  0.66428579350E+02 -0.85264974969E+01  0.50235871881E+03  0.51495987690E+03  0.91290389091E+02 0.  0.
          5    1    4    4  502    0  0.88640626014E+02 -0.12751357840E+02  0.37969306510E+03  0.39013929742E+03  0.47000000000E+01 0. -1.
         -5    1    3    3    0  503 -0.88325088434E+02  0.41025927721E+02  0.31682356536E+03  0.33148711824E+03  0.47000000000E+01 0.  1.
          5    1    3    3  503    0  0.21896509084E+02 -0.32499430224E+02  0.16777877544E+03  0.17235857264E+03  0.47000000000E+01 0. -1.
         -5    1    4    4    0  502 -0.22212046664E+02  0.42248603431E+01  0.12266565371E+03  0.12482057948E+03  0.47000000000E+01 0.  1.
<mgrwt>
<rscale>  0 0.13127934E+03</rscale>
<asrwt>0</asrwt>
<pdfrwt beam="1">  1        1 0.15428969E+00 0.13791683E+03</pdfrwt>
<pdfrwt beam="2">  1       -1 0.24495783E-02 0.13791683E+03</pdfrwt>
<totfact> 0.78496796E+03</totfact>
</mgrwt>
</event>
<event>
 8    1  0.3400573E-004  0.1216479E+03  0.7546771E-02  0.1240475E+00
         -1   -1    0    0    0  501 -0.00000000000E+00  0.00000000000E+00  0.52270972614E+03  0.52270972614E+03  0.00000000000E+00 0.  1.
          1   -1    0    0  501    0  0.00000000000E+00 -0.00000000000E+00 -0.29100851162E+02  0.29100851162E+02  0.00000000000E+00 0. -1.
         23    2    1    2    0    0 -0.41352782174E+02 -0.70095968026E+02  0.29327124274E+03  0.31743188049E+03  0.90174717116E+02 0.  0.
         23    2    1    2    0    0  0.41352782174E+02  0.70095968026E+02  0.20033763223E+03  0.23437869681E+03  0.90414099015E+02 0.  0.
          5    1    3    3  502    0 -0.11513178250E+02 -0.27383785279E+02  0.13771280116E+02  0.33078136671E+02  0.47000000000E+01 0. -1.
         -5    1    3    3    0  502 -0.29839603924E+02 -0.42712182747E+02  0.27949996263E+03  0.28435374382E+03  0.47000000000E+01 0.  1.
          5    1    4    4  503    0  0.65041170307E+02  0.46015345868E+02  0.97311853640E+02  0.12585488766E+03  0.47000000000E+01 0. -1.
         -5    1    4    4    0  503 -0.23688388133E+02  0.24080622158E+02  0.10302577859E+03  0.10852380914E+03  0.47000000000E+01 0.  1.
<mgrwt>
<rscale>  0 0.12160340E+03</rscale>
<asrwt>0</asrwt>
<pdfrwt beam="1">  1        1 0.44770544E-02 0.12164788E+03</pdfrwt>
<pdfrwt beam="2">  1       -1 0.80416874E-01 0.12164788E+03</pdfrwt>
<totfact> 0.30005143E+03</totfact>
</mgrwt>
</event>
<event>
 8    1  0.3400573E-004  0.1023611E+03  0.7546771E-02  0.1275594E+00
         -1   -1    0    0    0  501 -0.00000000000E+00  0.00000000000E+00  0.27103568139E+02  0.27103568139E+02  0.00000000000E+00 0.  1.
          1   -1    0    0  501    0  0.00000000000E+00 -0.00000000000E+00 -0.44600274896E+03  0.44600274896E+03  0.00000000000E+00 0. -1.
         23    2    1    2    0    0 -0.44158981791E+02 -0.79143588391E+01 -0.12178987515E+03  0.15885841615E+03  0.91600054288E+02 0.  0.
         23    2    1    2    0    0  0.44158981791E+02  0.79143588391E+01 -0.29710930567E+03  0.31424790094E+03  0.92006255126E+02 0.  0.
          5    1    4    4  502    0  0.41926383350E+02 -0.26016916467E+02 -0.25570125510E+03  0.26046098254E+03  0.47000000000E+01 0. -1.
         -5    1    3    3    0  503 -0.15635442132E+02  0.41258766297E+02 -0.44955734956E+02  0.63165346135E+02  0.47000000000E+01 0.  1.
          5    1    3    3  503    0 -0.28523539659E+02 -0.49173125136E+02 -0.76834140194E+02  0.95693070019E+02  0.47000000000E+01 0. -1.
         -5    1    4    4    0  502  0.22325984415E+01  0.33931275307E+02 -0.41408050567E+02  0.53786918405E+02  0.47000000000E+01 0.  1.
<mgrwt>
<rscale>  0 0.10226978E+03</rscale>
<asrwt>0</asrwt>
<pdfrwt beam="1">  1        1 0.68615810E-01 0.10236114E+03</pdfrwt>
<pdfrwt beam="2">  1       -1 0.41697795E-02 0.10236114E+03</pdfrwt>
<totfact> 0.11265996E+04</totfact>
</mgrwt>
</event>
<event>
 8    1  0.3400573E-004  0.9310873E+02  0.7546771E-02  0.1298854E+00
          2   -1    0    0  501    0  0.00000000000E+00  0.00000000000E+00  0.19888609062E+03  0.19888609062E+03  0.00000000000E+00 0. -1.
         -2   -1    0    0    0  501 -0.00000000000E+00 -0.00000000000E+00 -0.41407094163E+02  0.41407094163E+02  0.00000000000E+00 0.  1.
         23    2    1    2    0    0 -0.91418391611E+01 -0.40962202176E+01  0.64384462208E+02  0.10862759667E+03  0.86915151387E+02 0.  0.
         23    2    1    2    0    0  0.91418391611E+01  0.40962202176E+01  0.93094534247E+02  0.13166558811E+03  0.92568258833E+02 0.  0.
          5    1    3    3  502    0  0.38839669540E+02 -0.88399150652E+00  0.30437089193E+02  0.49576282328E+02  0.47000000000E+01 0. -1.
         -5    1    4    4    0  503 -0.26672885938E+02  0.29462573959E+02  0.16550304764E+02  0.43306912800E+02  0.47000000000E+01 0.  1.
          5    1    4    4  503    0  0.35814725099E+02 -0.25366353741E+02  0.76544229483E+02  0.88358675314E+02  0.47000000000E+01 0. -1.
         -5    1    3    3    0  502 -0.47981508701E+02 -0.32122287111E+01  0.33947373015E+02  0.59051314339E+02  0.47000000000E+01 0.  1.
<mgrwt>
<rscale>  0 0.91671232E+02</rscale>
<asrwt>0</asrwt>
<pdfrwt beam="1">  1        2 0.30597859E-01 0.93108726E+02</pdfrwt>
<pdfrwt beam="2">  1       -2 0.63703223E-02 0.93108726E+02</pdfrwt>
<totfact> 0.20704305E+04</totfact>
</mgrwt>
</event>
<event>
 8    1  0.3400573E-004  0.1078759E+03  0.7546771E-02  0.1266639E+00
         -3   -1    0    0    0  501 -0.00000000000E+00  0.00000000000E+00  0.82088077799E+02  0.82088077799E+02  0.00000000000E+00 0.  1.
          3   -1    0    0  501    0  0.00000000000E+00 -0.00000000000E+00 -0.17102247149E+03  0.17102247149E+03  0.00000000000E+00 0. -1.
         23    2    1    2    0    0  0.11343871962E+01  0.47809711978E+02  0.11926618833E+02  0.10853318117E+03  0.96696182887E+02 0.  0.
         23    2    1    2    0    0 -0.11343871962E+01 -0.47809711978E+02 -0.10086101252E+03  0.14457736811E+03  0.91883709818E+02 0.  0.
          5    1    3    3  502    0  0.68823421756E+01  0.67512024454E+02 -0.19446755860E+02  0.70749603484E+02  0.47000000000E+01 0. -1.
         -5    1    4    4    0  503  0.99670288689E+01 -0.65491867235E+02 -0.10354093773E+03  0.12300952046E+03  0.47000000000E+01 0.  1.
          5    1    4    4  503    0 -0.11101416065E+02  0.17682155257E+02  0.26799252079E+01  0.21567847651E+02  0.47000000000E+01 0. -1.
         -5    1    3    3    0  502 -0.57479549794E+01 -0.19702312476E+02  0.31373374693E+02  0.37783577689E+02  0.47000000000E+01 0.  1.
<mgrwt>
<rscale>  0 0.10678656E+03</rscale>
<asrwt>0</asrwt>
<pdfrwt beam="1">  1        3 0.26311149E-01 0.10787589E+03</pdfrwt>
<pdfrwt beam="2">  1       -3 0.12628935E-01 0.10787589E+03</pdfrwt>
<totfact> 0.15047642E+03</totfact>
</mgrwt>
</event>
<event>
 8    1  0.3400573E-004  0.1110983E+03  0.7546771E-02  0.1258917E+00
         -1   -1    0    0    0  501 -0.00000000000E+00  0.00000000000E+00  0.38074426521E+03  0.38074426521E+03  0.00000000000E+00 0.  1.
          1   -1    0    0  501    0  0.00000000000E+00 -0.00000000000E+00 -0.46032911491E+02  0.46032911491E+02  0.00000000000E+00 0. -1.
         23    2    1    2    0    0  0.83273572565E+01 -0.58118041712E+02  0.28397421188E+03  0.30464162374E+03  0.93370842597E+02 0.  0.
         23    2    1    2    0    0 -0.83273572565E+01  0.58118041712E+02  0.50737141835E+02  0.12213555296E+03  0.94317464369E+02 0.  0.
          5    1    3    3  502    0  0.28591686818E+02  0.16064721131E+02  0.78980936606E+02  0.85648340131E+02  0.47000000000E+01 0. -1.
         -5    1    4    4    0  503 -0.27030571693E+02 -0.18025347922E+01  0.52389685043E+02  0.59166460403E+02  0.47000000000E+01 0.  1.
          5    1    4    4  503    0  0.18703214436E+02  0.59920576504E+02 -0.16525432086E+01  0.62969092560E+02  0.47000000000E+01 0. -1.
         -5    1    3    3    0  502 -0.20264329561E+02 -0.74182762843E+02  0.20499327528E+03  0.21899328361E+03  0.47000000000E+01 0.  1.
<mgrwt>
<rscale>  0 0.11089714E+03</rscale>
<asrwt>0</asrwt>
<pdfrwt beam="1">  1        1 0.70819866E-02 0.11109832E+03</pdfrwt>
<pdfrwt beam="2">  1       -1 0.58576039E-01 0.11109832E+03</pdfrwt>
<totfact> 0.29818114E+03</totfact>
</mgrwt>
</event>
<event>
 8    1  0.3400573E-004  0.1195673E+03  0.7546771E-02  0.1252291E+00
         -1   -1    0    0    0  501 -0.00000000000E+00  0.00000000000E+00  0.10163193861E+03  0.10163193861E+03  0.00000000000E+00 0.  1.
          1   -1    0    0  501    0  0.00000000000E+00 -0.00000000000E+00 -0.11991254544E+03  0.11991254544E+03  0.00000000000E+00 0. -1.
         23    2    1    2    0    0 -0.56795370584E+02  0.20734221849E+01 -0.22444608251E+01  0.10090659020E+03  0.83349200012E+02 0.  0.
         23    2    1    2    0    0  0.56795370584E+02 -0.20734221849E+01 -0.16036146009E+02  0.12063789384E+03  0.10519662662E+03 0.  0.
          5    1    3    3  502    0  0.10737787775E+02  0.24795400336E+02  0.84582833377E+01  0.28700949830E+02  0.47000000000E+01 0. -1.
         -5    1    4    4    0  503  0.20093926642E+02 -0.51959220148E+02  0.20600367434E+01  0.55945153478E+02  0.47000000000E+01 0.  1.
          5    1    4    4  503    0  0.36701443941E+02  0.49885797963E+02 -0.18096182752E+02  0.64692740366E+02  0.47000000000E+01 0. -1.
         -5    1    3    3    0  502 -0.67533158359E+02 -0.22721978151E+02 -0.10702744163E+02  0.72205640372E+02  0.47000000000E+01 0.  1.
<mgrwt>
<rscale>  0 0.11459413E+03</rscale>
<asrwt>0</asrwt>
<pdfrwt beam="1">  1        1 0.18448084E-01 0.11956732E+03</pdfrwt>
<pdfrwt beam="2">  1       -1 0.15635683E-01 0.11956732E+03</pdfrwt>
<totfact> 0.79819370E+03</totfact>
</mgrwt>
</event>
<event>
 8    1  0.3400573E-004  0.1094694E+03  0.7546771E-02  0.1262132E+00
          2   -1    0    0  501    0  0.00000000000E+00  0.00000000000E+00  0.44061932819E+03  0.44061932819E+03  0.00000000000E+00 0. -1.
         -2   -1    0    0    0  501 -0.00000000000E+00 -0.00000000000E+00 -0.76202643219E+02  0.76202643219E+02  0.00000000000E+00 0.  1.
         23    2    1    2    0    0 -0.10973000557E+02  0.58390878100E+02 -0.26024511233E+02  0.11132490433E+03  0.90476835444E+02 0.  0.
         23    2    1    2    0    0  0.10973000557E+02 -0.58390878100E+02  0.39044119620E+03  0.40549706708E+03  0.91943691098E+02 0.  0.
          5    1    3    3  502    0 -0.38661118646E+02 -0.20310281718E+01 -0.21521987397E+02  0.44543160102E+02  0.47000000000E+01 0. -1.
         -5    1    4    4    0  503 -0.26093519477E+02  0.35017434603E+00  0.38570273357E+02  0.46805452328E+02  0.47000000000E+01 0.  1.
          5    1    4    4  503    0  0.37066520034E+02 -0.58741052446E+02  0.35187092285E+03  0.35869161475E+03  0.47000000000E+01 0. -1.
         -5    1    3    3    0  502  0.27688118088E+02  0.60421906271E+02 -0.45025238358E+01  0.66781744224E+02  0.47000000000E+01 0.  1.
<mgrwt>
<rscale>  0 0.10916080E+03</rscale>
<asrwt>0</asrwt>
<pdfrwt beam="1">  1        2 0.67787588E-01 0.10946937E+03</pdfrwt>
<pdfrwt beam="2">  1       -2 0.11723484E-01 0.10946937E+03</pdfrwt>
<totfact> 0.35334557E+03</totfact>
</mgrwt>
</event>
<event>
 8    1  0.3400573E-004  0.9507965E+02  0.7546771E-02  0.1292584E+00
         -1   -1    0    0    0  501 -0.00000000000E+00  0.00000000000E+00  0.97733492673E+02  0.97733492673E+02  0.00000000000E+00 0.  1.
          1   -1    0    0  501    0  0.00000000000E+00 -0.00000000000E+00 -0.28094561688E+03  0.28094561688E+03  0.00000000000E+00 0. -1.
         23    2    1    2    0    0  0.18520402595E+02 -0.99698428166E+01  0.64991170345E+02  0.11288780807E+03  0.89874367374E+02 0.  0.
         23    2    1    2    0    0 -0.18520402595E+02  0.99698428166E+01 -0.24820329455E+03  0.26579130148E+03  0.92723985233E+02 0.  0.
          5    1    4    4  502    0 -0.47250070809E+02 -0.17200678606E+02 -0.17858810351E+03  0.18559157645E+03  0.47000000000E+01 0. -1.
         -5    1    3    3    0  503  0.40561344628E+02  0.20229860104E+02  0.59287562061E+02  0.74776834200E+02  0.47000000000E+01 0.  1.
          5    1    3    3  503    0 -0.22040942033E+02 -0.30199702921E+02  0.57036082847E+01  0.38110973874E+02  0.47000000000E+01 0. -1.
         -5    1    4    4    0  502  0.28729668214E+02  0.27170521423E+02 -0.69615191044E+02  0.80199725025E+02  0.47000000000E+01 0.  1.
<mgrwt>
<rscale>  0 0.94377702E+02</rscale>
<asrwt>0</asrwt>
<pdfrwt beam="1">  1        1 0.43222402E-01 0.95079654E+02</pdfrwt>
<pdfrwt beam="2">  1       -1 0.15035922E-01 0.95079654E+02</pdfrwt>
<totfact> 0.29054808E+03</totfact>
</mgrwt>
</event>
<event>
 8    1  0.3400573E-004  0.1236687E+03  0.7546771E-02  0.1237294E+00
          2   -1    0    0  501    0  0.00000000000E+00  0.00000000000E+00  0.99319385936E+03  0.99319385936E+03  0.00000000000E+00 0. -1.
         -2   -1    0    0    0  501 -0.00000000000E+00 -0.00000000000E+00 -0.23689775338E+02  0.23689775338E+02  0.00000000000E+00 0.  1.
         23    2    1    2    0    0 -0.85781595140E+02  0.78456157625E+01  0.78586240405E+03  0.79548308626E+03  0.88281292889E+02 0.  0.
         23    2    1    2    0    0  0.85781595140E+02 -0.78456157625E+01  0.18364167997E+03  0.22140054844E+03  0.88735001405E+02 0.  0.
          5    1    3    3  502    0 -0.59594476210E+02  0.43213142669E+02  0.59510003711E+03  0.59965408484E+03  0.47000000000E+01 0. -1.
         -5    1    4    4    0  503  0.63725650682E+02 -0.18348361253E+02  0.44376951220E+02  0.79931375035E+02  0.47000000000E+01 0.  1.
          5    1    4    4  503    0  0.22055944458E+02  0.10502745491E+02  0.13926472875E+03  0.14146917340E+03  0.47000000000E+01 0. -1.
         -5    1    3    3    0  502 -0.26187118930E+02 -0.35367526906E+02  0.19076236694E+03  0.19582900142E+03  0.47000000000E+01 0.  1.
<mgrwt>
<rscale>  0 0.12358729E+03</rscale>
<asrwt>0</asrwt>
<pdfrwt beam="1">  1        2 0.15279902E+00 0.12366865E+03</pdfrwt>
<pdfrwt beam="2">  1       -2 0.36445816E-02 0.12366865E+03</pdfrwt>
<totfact> 0.80767736E+03</totfact>
</mgrwt>
</event>
<event>
 8    1  0.3400573E-004  0.1116774E+03  0.7546771E-02  0.1257906E+00
          4   -1    0    0  501    0  0.00000000000E+00  0.00000000000E+00  0.20903892659E+03  0.20903892659E+03  0.00000000000E+00 0. -1.
         -4   -1    0    0    0  501 -0.00000000000E+00 -0.00000000000E+00 -0.59281688047E+02  0.59281688047E+02  0.00000000000E+00 0.  1.
         23    2    1    2    0    0  0.47004803723E+02  0.41386407122E+02  0.80074272287E+02  0.13668640016E+03  0.91372844106E+02 0.  0.
         23    2    1    2    0    0 -0.47004803723E+02 -0.41386407122E+02  0.69682966259E+02  0.13163421448E+03  0.92463854379E+02 0.  0.
          5    1    3    3  502    0 -0.14564309461E+01  0.57255684769E+02  0.29033945375E+02  0.64384738980E+02  0.47000000000E+01 0. -1.
         -5    1    4    4    0  503 -0.36195577095E+02 -0.13413233886E+02 -0.14997176966E+02  0.41677811381E+02  0.47000000000E+01 0.  1.
          5    1    4    4  503    0 -0.10809226628E+02 -0.27973173236E+02  0.84680143226E+02  0.89956403096E+02  0.47000000000E+01 0. -1.
         -5    1    3    3    0  502  0.48461234669E+02 -0.15869277647E+02  0.51040326912E+02  0.72301661184E+02  0.47000000000E+01 0.  1.
<mgrwt>
<rscale>  0 0.11145135E+03</rscale>
<asrwt>0</asrwt>
<pdfrwt beam="1">  1        4 0.32159835E-01 0.11167744E+03</pdfrwt>
<pdfrwt beam="2">  1       -4 0.91202598E-02 0.11167744E+03</pdfrwt>
<totfact> 0.13018676E+03</totfact>
</mgrwt>
</event>
<event>
 8    1  0.3400573E-004  0.9224058E+02  0.7546771E-02  0.1300051E+00
          4   -1    0    0  501    0  0.00000000000E+00  0.00000000000E+00  0.59334999614E+02  0.59334999614E+02  0.00000000000E+00 0. -1.
         -4   -1    0    0    0  501 -0.00000000000E+00 -0.00000000000E+00 -0.13853813406E+03  0.13853813406E+03  0.00000000000E+00 0.  1.
         23    2    1    2    0    0 -0.11884261231E+00 -0.36057102557E+01 -0.27956660349E+02  0.92352871387E+02  0.87945794246E+02 0.  0.
         23    2    1    2    0    0  0.11884261231E+00  0.36057102557E+01 -0.51246474099E+02  0.10552026229E+03  0.92170002583E+02 0.  0.
          5    1    4    4  502    0  0.35892755617E+02  0.16741680394E+02  0.19296025420E+01  0.39929777537E+02  0.47000000000E+01 0. -1.
         -5    1    3    3    0  503 -0.29456845128E+02  0.18260950335E+02 -0.40384690155E+02  0.53424537723E+02  0.47000000000E+01 0.  1.
          5    1    3    3  503    0  0.29338002516E+02 -0.21866660590E+02  0.12428029806E+02  0.38928333664E+02  0.47000000000E+01 0. -1.
         -5    1    4    4    0  502 -0.35773913005E+02 -0.13135970138E+02 -0.53176076641E+02  0.65590484753E+02  0.47000000000E+01 0.  1.
<mgrwt>
<rscale>  0 0.91166769E+02</rscale>
<asrwt>0</asrwt>
<pdfrwt beam="1">  1        4 0.91284615E-02 0.92240580E+02</pdfrwt>
<pdfrwt beam="2">  1       -4 0.21313559E-01 0.92240580E+02</pdfrwt>
<totfact> 0.26485818E+03</totfact>
</mgrwt>
</event>
<event>
 8    1  0.3400573E-004  0.1021499E+03  0.7546771E-02  0.1277437E+00
         -1   -1    0    0    0  501 -0.00000000000E+00  0.00000000000E+00  0.65574557556E+03  0.65574557556E+03  0.00000000000E+00 0.  1.
          1   -1    0    0  501    0  0.00000000000E+00 -0.00000000000E+00 -0.10739170831E+03  0.10739170831E+03  0.00000000000E+00 0. -1.
         23    2    1    2    0    0 -0.13109908070E+02  0.30955279125E+02 -0.78295587530E+02  0.12870433447E+03  0.96459876065E+02 0.  0.
         23    2    1    2    0    0  0.13109908070E+02 -0.30955279125E+02  0.62664945478E+03  0.63443294939E+03  0.93196186066E+02 0.  0.
          5    1    4    4  502    0  0.32308422843E+02 -0.55677723112E+02  0.34273345062E+03  0.34875801240E+03  0.47000000000E+01 0.  1.
         -5    1    4    4    0  502 -0.19198514772E+02  0.24722443987E+02  0.28391600416E+03  0.28567493699E+03  0.47000000000E+01 0. -1.
          5    1    3    3  503    0 -0.48260139961E+02  0.95744985013E+01 -0.12530979527E+02  0.50988504376E+02  0.47000000000E+01 0. -1.
         -5    1    3    3    0  503  0.35150231890E+02  0.21380780624E+02 -0.65764608003E+02  0.77715830098E+02  0.47000000000E+01 0.  1.
<mgrwt>
<rscale>  0 0.10137206E+03</rscale>
<asrwt>0</asrwt>
<pdfrwt beam="1">  1        1 0.16521802E-01 0.10214992E+03</pdfrwt>
<pdfrwt beam="2">  1       -1 0.10088393E+00 0.10214992E+03</pdfrwt>
<totfact> 0.32725106E+02</totfact>
</mgrwt>
</event>
<event>
 8    1  0.3400573E-004  0.1013445E+03  0.7546771E-02  0.1278823E+00
         -1   -1    0    0    0  501 -0.00000000000E+00  0.00000000000E+00  0.37281207326E+02  0.37281207326E+02  0.00000000000E+00 0.  1.
          1   -1    0    0  501    0  0.00000000000E+00 -0.00000000000E+00 -0.30178990590E+03  0.30178990590E+03  0.00000000000E+00 0. -1.
         23    2    1    2    0    0  0.31198739997E+02 -0.32399774033E+02 -0.18993644720E+03  0.21528250415E+03  0.90816275430E+02 0.  0.
         23    2    1    2    0    0 -0.31198739997E+02  0.32399774033E+02 -0.74572251373E+02  0.12378860908E+03  0.87974384496E+02 0.  0.
          5    1    3    3  502    0 -0.10696688915E+02 -0.31878096282E+02 -0.16002829731E+03  0.16359027513E+03  0.47000000000E+01 0. -1.
         -5    1    3    3    0  502  0.41895428911E+02 -0.52167775094E+00 -0.29908149890E+02  0.51692229021E+02  0.47000000000E+01 0.  1.
          5    1    4    4  503    0 -0.54128225431E+00 -0.29151549088E+02 -0.27238830896E+02  0.40176482042E+02  0.47000000000E+01 0. -1.
         -5    1    4    4    0  503 -0.30657457742E+02  0.61551323121E+02 -0.47333420477E+02  0.83612127034E+02  0.47000000000E+01 0.  1.
<mgrwt>
<rscale>  0 0.10070377E+03</rscale>
<asrwt>0</asrwt>
<pdfrwt beam="1">  1        1 0.46429217E-01 0.10134448E+03</pdfrwt>
<pdfrwt beam="2">  1       -1 0.57355703E-02 0.10134448E+03</pdfrwt>
<totfact> 0.11449911E+04</totfact>
</mgrwt>
</event>
<event>
 8    1  0.3400573E-004  0.1050051E+03  0.7546771E-02  0.1270607E+00
         -1   -1    0    0    0  501 -0.00000000000E+00  0.00000000000E+00  0.17300335463E+02  0.17300335463E+02  0.00000000000E+00 0.  1.
          1   -1    0    0  501    0  0.00000000000E+00 -0.00000000000E+00 -0.88533240438E+03  0.88533240438E+03  0.00000000000E+00 0. -1.
         23    2    1    2    0    0 -0.26791170281E+02  0.39939423701E+02 -0.19075621163E+03  0.21726520407E+03  0.92213406039E+02 0.  0.
         23    2    1    2    0    0  0.26791170281E+02 -0.39939423701E+02 -0.67727585729E+03  0.68536753578E+03  0.93344243841E+02 0.  0.
          5    1    3    3  502    0 -0.57521374406E+02  0.43783983692E+02 -0.12629987102E+03  0.14560045729E+03  0.47000000000E+01 0. -1.
         -5    1    4    4    0  503  0.59830094712E+02 -0.38203495206E+02 -0.43033910743E+03  0.43617999113E+03  0.47000000000E+01 0.  1.
          5    1    4    4  503    0 -0.33038924431E+02 -0.17359284952E+01 -0.24693674986E+03  0.24918754464E+03  0.47000000000E+01 0. -1.
         -5    1    3    3    0  502  0.30730204125E+02 -0.38445599909E+01 -0.64456340602E+02  0.71664746779E+02  0.47000000000E+01 0.  1.
<mgrwt>
<rscale>  0 0.10475321E+03</rscale>
<asrwt>0</asrwt>
<pdfrwt beam="1">  1        1 0.13620504E+00 0.10500511E+03</pdfrwt>
<pdfrwt beam="2">  1       -1 0.26615889E-02 0.10500511E+03</pdfrwt>
<totfact> 0.83940481E+03</totfact>
</mgrwt>
</event>
<event>
 8    1  0.3400573E-004  0.9338754E+02  0.7546771E-02  0.1295265E+00
         -1   -1    0    0    0  501 -0.00000000000E+00  0.00000000000E+00  0.10397440668E+03  0.10397440668E+03  0.00000000000E+00 0.  1.
          1   -1    0    0  501    0  0.00000000000E+00 -0.00000000000E+00 -0.84354496279E+02  0.84354496279E+02  0.00000000000E+00 0. -1.
         23    2    1    2    0    0 -0.44300495527E+01 -0.19113675608E+02 -0.10741005728E+01  0.92676017471E+02  0.90568938317E+02 0.  0.
         23    2    1    2    0    0  0.44300495527E+01  0.19113675608E+02  0.20694010971E+02  0.95652885485E+02  0.91303200805E+02 0.  0.
          5    1    4    4  502    0 -0.17816115461E+02 -0.13938984213E+02  0.43681724820E+02  0.49415507022E+02  0.47000000000E+01 0. -1.
         -5    1    4    4    0  502  0.22246165014E+02  0.33052659821E+02 -0.22987713849E+02  0.46237378463E+02  0.47000000000E+01 0.  1.
          5    1    3    3  503    0 -0.35181178553E+02 -0.33310630583E+02 -0.21095485189E+02  0.53051135045E+02  0.47000000000E+01 0. -1.
         -5    1    3    3    0  503  0.30751129000E+02  0.14196954975E+02  0.20021384616E+02  0.39624882426E+02  0.47000000000E+01 0.  1.
<mgrwt>
<rscale>  0 0.93207583E+02</rscale>
<asrwt>0</asrwt>
<pdfrwt beam="1">  1        1 0.12977615E-01 0.93387539E+02</pdfrwt>
<pdfrwt beam="2">  1       -1 0.15996063E-01 0.93387539E+02</pdfrwt>
<totfact> 0.11831686E+04</totfact>
</mgrwt>
</event>
<event>
 8    1  0.3400573E-004  0.9535038E+02  0.7546771E-02  0.1290455E+00
         -1   -1    0    0    0  501 -0.00000000000E+00  0.00000000000E+00  0.38173798155E+02  0.38173798155E+02  0.00000000000E+00 0.  1.
          1   -1    0    0  501    0  0.00000000000E+00 -0.00000000000E+00 -0.36963882688E+03  0.36963882688E+03  0.00000000000E+00 0. -1.
         23    2    1    2    0    0 -0.25886832586E+02 -0.60649334378E+01 -0.44054607307E+02  0.10503572145E+03  0.91568459832E+02 0.  0.
         23    2    1    2    0    0  0.25886832586E+02  0.60649334378E+01 -0.28741042142E+03  0.30277690359E+03  0.91445018937E+02 0.  0.
          5    1    3    3  502    0  0.14116208957E+02 -0.33630866163E+02  0.34371928280E+01  0.36935170349E+02  0.47000000000E+01 0. -1.
         -5    1    3    3    0  502 -0.40003041544E+02  0.27565932725E+02 -0.47491800135E+02  0.68100551098E+02  0.47000000000E+01 0.  1.
          5    1    4    4  503    0  0.77053212113E+01  0.30508679646E+02 -0.25871194351E+03  0.26066091234E+03  0.47000000000E+01 0. -1.
         -5    1    4    4    0  503  0.18181511375E+02 -0.24443746208E+02 -0.28698477915E+02  0.42115991253E+02  0.47000000000E+01 0.  1.
<mgrwt>
<rscale>  0 0.95320728E+02</rscale>
<asrwt>0</asrwt>
<pdfrwt beam="1">  1        1 0.56867513E-01 0.95350377E+02</pdfrwt>
<pdfrwt beam="2">  1       -1 0.58728919E-02 0.95350377E+02</pdfrwt>
<totfact> 0.85717369E+03</totfact>
</mgrwt>
</event>
<event>
 8    1  0.3400573E-004  0.9884328E+02  0.7546771E-02  0.1282986E+00
         -1   -1    0    0    0  501 -0.00000000000E+00  0.00000000000E+00  0.13725599902E+02  0.13725599902E+02  0.00000000000E+00 0.  1.
          1   -1    0    0  501    0  0.00000000000E+00 -0.00000000000E+00 -0.71773152402E+03  0.71773152402E+03  0.00000000000E+00 0. -1.
         23    2    1    2    0    0  0.16450755497E+02 -0.32369760208E+02 -0.31153025907E+03  0.32683496715E+03  0.91932392030E+02 0.  0.
         23    2    1    2    0    0 -0.16450755497E+02  0.32369760208E+02 -0.39247566504E+03  0.40462215676E+03  0.91452246346E+02 0.  0.
          5    1    3    3  502    0 -0.20612021216E+02 -0.52099144116E+02 -0.16374137726E+03  0.17312569094E+03  0.47000000000E+01 0. -1.
         -5    1    3    3    0  502  0.37062776713E+02  0.19729383908E+02 -0.14778888181E+03  0.15370927621E+03  0.47000000000E+01 0.  1.
          5    1    4    4  503    0  0.26166456437E+02 -0.18097999108E+02 -0.13157322801E+03  0.13544676202E+03  0.47000000000E+01 0. -1.
         -5    1    4    4    0  503 -0.42617211934E+02  0.50467759316E+02 -0.26090243703E+03  0.26917539474E+03  0.47000000000E+01 0.  1.
<mgrwt>
<rscale>  0 0.98731483E+02</rscale>
<asrwt>0</asrwt>
<pdfrwt beam="1">  1        1 0.11042024E+00 0.98843277E+02</pdfrwt>
<pdfrwt beam="2">  1       -1 0.21116307E-02 0.98843277E+02</pdfrwt>
<totfact> 0.15928315E+04</totfact>
</mgrwt>
</event>
<event>
 8    1  0.3400573E-004  0.1040297E+03  0.7546771E-02  0.1274257E+00
          2   -1    0    0  501    0  0.00000000000E+00  0.00000000000E+00  0.84853562176E+02  0.84853562176E+02  0.00000000000E+00 0. -1.
         -2   -1    0    0    0  501 -0.00000000000E+00 -0.00000000000E+00 -0.19076115560E+03  0.19076115560E+03  0.00000000000E+00 0.  1.
         23    2    1    2    0    0 -0.40920938754E+02  0.22477939497E+02  0.28881310610E+02  0.10796440075E+03  0.92964513301E+02 0.  0.
         23    2    1    2    0    0  0.40920938754E+02 -0.22477939497E+02 -0.13478890403E+03  0.16765031703E+03  0.88084045985E+02 0.  0.
          5    1    4    4  502    0  0.11523667595E+01 -0.33808163484E+02 -0.92359063556E+01  0.35379539758E+02  0.47000000000E+01 0. -1.
         -5    1    3    3    0  503  0.25074107824E+02  0.27562412867E+02  0.79984317913E+01  0.38398729111E+02  0.47000000000E+01 0.  1.
          5    1    3    3  503    0 -0.65995046577E+02 -0.50844733699E+01  0.20882878818E+02  0.69565671634E+02  0.47000000000E+01 0. -1.
         -5    1    4    4    0  502  0.39768571994E+02  0.11330223987E+02 -0.12555299768E+03  0.13227077727E+03  0.47000000000E+01 0.  1.
<mgrwt>
<rscale>  0 0.10292802E+03</rscale>
<asrwt>0</asrwt>
<pdfrwt beam="1">  1        2 0.13054394E-01 0.10402972E+03</pdfrwt>
<pdfrwt beam="2">  1       -2 0.29347870E-01 0.10402972E+03</pdfrwt>
<totfact> 0.45917870E+03</totfact>
</mgrwt>
</event>
<event>
 8    1  0.3400573E-004  0.1043020E+03  0.7546771E-02  0.1273855E+00
         -4   -1    0    0    0  501 -0.00000000000E+00  0.00000000000E+00  0.15291059013E+03  0.15291059013E+03  0.00000000000E+00 0.  1.
          4   -1    0    0  501    0  0.00000000000E+00 -0.00000000000E+00 -0.68766583232E+02  0.68766583232E+02  0.00000000000E+00 0. -1.
         23    2    1    2    0    0 -0.47809508254E+02  0.29899473654E+01  0.29643604009E+02  0.10399451226E+03  0.87415252994E+02 0.  0.
         23    2    1    2    0    0  0.47809508254E+02 -0.29899473654E+01  0.54500402889E+02  0.11768266111E+03  0.92651097916E+02 0.  0.
          5    1    4    4  502    0  0.34143555365E+02  0.31651974594E+02 -0.52838484171E+01  0.47091813755E+02  0.47000000000E+01 0. -1.
         -5    1    3    3    0  503 -0.62532274661E+02  0.24350329888E+02  0.36796259857E+02  0.76676454531E+02  0.47000000000E+01 0. -1.
          5    1    3    3  503    0  0.14722766407E+02 -0.21360382522E+02 -0.71526558488E+01  0.27318057725E+02  0.47000000000E+01 0.  1.
         -5    1    4    4    0  502  0.13665952889E+02 -0.34641921959E+02  0.59784251306E+02  0.70590847350E+02  0.47000000000E+01 0.  1.
<mgrwt>
<rscale>  0 0.10312683E+03</rscale>
<asrwt>0</asrwt>
<pdfrwt beam="1">  1        4 0.10579474E-01 0.10430204E+03</pdfrwt>
<pdfrwt beam="2">  1       -4 0.23524706E-01 0.10430204E+03</pdfrwt>
<totfact> 0.17866519E+03</totfact>
</mgrwt>
</event>
<event>
 8    1  0.3400573E-004  0.1363703E+03  0.7546771E-02  0.1218778E+00
          1   -1    0    0  501    0  0.00000000000E+00  0.00000000000E+00  0.61758390923E+03  0.61758390923E+03  0.00000000000E+00 0. -1.
         -1   -1    0    0    0  501 -0.00000000000E+00 -0.00000000000E+00 -0.32757204898E+03  0.32757204898E+03  0.00000000000E+00 0.  1.
         23    2    1    2    0    0  0.85256894249E+02  0.47357035082E+02  0.59563397812E+03  0.61104557375E+03  0.95317524770E+02 0.  0.
         23    2    1    2    0    0 -0.85256894249E+02 -0.47357035082E+02 -0.30562211787E+03  0.33411038445E+03  0.93345826254E+02 0.  0.
          5    1    4    4  502    0 -0.20310641737E+01  0.22384230799E+02 -0.29607650166E+02  0.37468412810E+02  0.47000000000E+01 0. -1.
         -5    1    4    4    0  502 -0.83225830075E+02 -0.69741265881E+02 -0.27601446770E+03  0.29664197164E+03  0.47000000000E+01 0.  1.
          5    1    3    3  503    0  0.19440179932E+02 -0.28620598306E+02  0.18454370297E+03  0.18781780413E+03  0.47000000000E+01 0. -1.
         -5    1    3    3    0  503  0.65816714317E+02  0.75977633388E+02  0.41109027515E+03  0.42322776962E+03  0.47000000000E+01 0.  1.
<mgrwt>
<rscale>  0 0.13602630E+03</rscale>
<asrwt>0</asrwt>
<pdfrwt beam="1">  1        1 0.95012909E-01 0.13637029E+03</pdfrwt>
<pdfrwt beam="2">  1       -1 0.50395700E-01 0.13637029E+03</pdfrwt>
<totfact> 0.14253066E+02</totfact>
</mgrwt>
</event>
<event>
 8    1  0.3400573E-004  0.1107046E+03  0.7546771E-02  0.1259716E+00
          1   -1    0    0  501    0  0.00000000000E+00  0.00000000000E+00  0.35765462533E+02  0.35765462533E+02  0.00000000000E+00 0. -1.
         -1   -1    0    0    0  501 -0.00000000000E+00 -0.00000000000E+00 -0.37891714363E+03  0.37891714363E+03  0.00000000000E+00 0.  1.
         23    2    1    2    0    0  0.66505303820E+02 -0.14319878134E+02 -0.10552855180E+03  0.15294374573E+03  0.87335558441E+02 0.  0.
         23    2    1    2    0    0 -0.66505303820E+02  0.14319878134E+02 -0.23762312930E+03  0.26173886043E+03  0.86107288517E+02 0.  0.
          5    1    3    3  502    0  0.78013609739E+02  0.11736790972E+02 -0.60823294723E+02  0.99726820604E+02  0.47000000000E+01 0. -1.
         -5    1    4    4    0  503 -0.73585405057E+02  0.33124778214E+02 -0.13740823342E+03  0.15942137680E+03  0.47000000000E+01 0.  1.
          5    1    4    4  503    0  0.70801012366E+01 -0.18804900081E+02 -0.10021489588E+03  0.10231748363E+03  0.47000000000E+01 0. -1.
         -5    1    3    3    0  502 -0.11508305918E+02 -0.26056669106E+02 -0.44705257077E+02  0.53216925130E+02  0.47000000000E+01 0.  1.
<mgrwt>
<rscale>  0 0.11046223E+03</rscale>
<asrwt>0</asrwt>
<pdfrwt beam="1">  1        1 0.55023787E-02 0.11070463E+03</pdfrwt>
<pdfrwt beam="2">  1       -1 0.58294947E-01 0.11070463E+03</pdfrwt>
<totfact> 0.42267762E+03</totfact>
</mgrwt>
</event>
<event>
 8    1  0.3400573E-004  0.1664670E+03  0.7546771E-02  0.1184127E+00
         -1   -1    0    0    0  501 -0.00000000000E+00  0.00000000000E+00  0.38824384714E+02  0.38824384714E+02  0.00000000000E+00 0.  1.
          1   -1    0    0  501    0  0.00000000000E+00 -0.00000000000E+00 -0.78073914154E+03  0.78073914154E+03  0.00000000000E+00 0. -1.
         23    2    1    2    0    0  0.12195123793E+03 -0.35536594455E+02 -0.53095459781E+03  0.55643871385E+03  0.10759323102E+03 0.  0.
         23    2    1    2    0    0 -0.12195123793E+03  0.35536594455E+02 -0.21096015901E+03  0.26312481240E+03  0.92712050076E+02 0.  0.
          5    1    4    4  502    0 -0.27432945539E+02  0.52646731847E+02 -0.63304323990E+02  0.86912440485E+02  0.47000000000E+01 0. -1.
         -5    1    4    4    0  502 -0.94518292394E+02 -0.17110137392E+02 -0.14765583502E+03  0.17621237191E+03  0.47000000000E+01 0.  1.
          5    1    3    3  503    0  0.10813299796E+03  0.11518602415E+02 -0.43698863842E+03  0.45034051956E+03  0.47000000000E+01 0. -1.
         -5    1    3    3    0  503  0.13818239969E+02 -0.47055196870E+02 -0.93965959387E+02  0.10609819429E+03  0.47000000000E+01 0.  1.
<mgrwt>
<rscale>  0 0.16411571E+03</rscale>
<asrwt>0</asrwt>
<pdfrwt beam="1">  1        1 0.12011371E+00 0.16646699E+03</pdfrwt>
<pdfrwt beam="2">  1       -1 0.59729826E-02 0.16646699E+03</pdfrwt>
<totfact> 0.31724445E+03</totfact>
</mgrwt>
</event>
<event>
 8    1  0.3400573E-004  0.2290951E+03  0.7546771E-02  0.1127426E+00
         -1   -1    0    0    0  501 -0.00000000000E+00  0.00000000000E+00  0.29948310572E+03  0.29948310572E+03  0.00000000000E+00 0. -1.
          1   -1    0    0  501    0  0.00000000000E+00 -0.00000000000E+00 -0.20607912761E+03  0.20607912761E+03  0.00000000000E+00 0.  1.
         23    2    1    2    0    0  0.88635818680E+02 -0.18936131449E+03 -0.52142579244E+02  0.23414305109E+03  0.91597511021E+02 0.  0.
         23    2    1    2    0    0 -0.88635818680E+02  0.18936131449E+03  0.14554655736E+03  0.27141918224E+03  0.93651248517E+02 0.  0.
          5    1    3    3  502    0  0.37638624140E+01 -0.61559217092E+02 -0.51761848640E+02  0.80654093783E+02  0.47000000000E+01 0. -1.
         -5    1    4    4    0  503  0.91625507760E+01  0.74153153985E+02  0.69612881561E+02  0.10222859611E+03  0.47000000000E+01 0.  1.
          5    1    4    4  503    0 -0.97798369456E+02  0.11520816051E+03  0.75933675799E+02  0.16919058613E+03  0.47000000000E+01 0. -1.
         -5    1    3    3    0  502  0.84871956266E+02 -0.12780209740E+03 -0.38073060461E+00  0.15348895731E+03  0.47000000000E+01 0.  1.
<mgrwt>
<rscale>  0 0.22888687E+03</rscale>
<asrwt>0</asrwt>
<pdfrwt beam="1">  1        1 0.31704481E-01 0.22909512E+03</pdfrwt>
<pdfrwt beam="2">  1       -1 0.46074324E-01 0.22909512E+03</pdfrwt>
<totfact> 0.67623303E+02</totfact>
</mgrwt>
</event>
<event>
 8    1  0.3400573E-004  0.1071794E+03  0.7546771E-02  0.1269795E+00
         -2   -1    0    0    0  501 -0.00000000000E+00  0.00000000000E+00  0.18418623939E+03  0.18418623939E+03  0.00000000000E+00 0.  1.
          2   -1    0    0  501    0  0.00000000000E+00 -0.00000000000E+00 -0.58465042614E+02  0.58465042614E+02  0.00000000000E+00 0. -1.
         23    2    1    2    0    0  0.16605266782E+02  0.15513373389E+02  0.77206403564E+02  0.13209180573E+03  0.10474262146E+03 0.  0.
         23    2    1    2    0    0 -0.16605266782E+02 -0.15513373389E+02  0.48514793212E+02  0.11055947628E+03  0.96712527602E+02 0.  0.
          5    1    4    4  502    0 -0.15997493255E+02 -0.49500687038E+02  0.13742980088E+01  0.52251473689E+02  0.47000000000E+01 0. -1.
         -5    1    4    4    0  502 -0.60777352675E+00  0.33987313648E+02  0.47140495203E+02  0.58308002587E+02  0.47000000000E+01 0.  1.
          5    1    3    3  503    0  0.36825317175E+02 -0.35852807372E+02  0.40919643113E+02  0.65863760703E+02  0.47000000000E+01 0. -1.
         -5    1    3    3    0  503 -0.20220050393E+02  0.51366180761E+02  0.36286760450E+02  0.66228045025E+02  0.47000000000E+01 0.  1.
<mgrwt>
<rscale>  0 0.10516505E+03</rscale>
<asrwt>0</asrwt>
<pdfrwt beam="1">  1        2 0.89946220E-02 0.10717937E+03</pdfrwt>
<pdfrwt beam="2">  1       -2 0.28336344E-01 0.10717937E+03</pdfrwt>
<totfact> 0.76792866E+03</totfact>
</mgrwt>
</event>
<event>
 8    1  0.3400573E-004  0.9296327E+02  0.7546771E-02  0.1298222E+00
         -1   -1    0    0    0  501 -0.00000000000E+00  0.00000000000E+00  0.46770162920E+02  0.46770162920E+02  0.00000000000E+00 0.  1.
          1   -1    0    0  501    0  0.00000000000E+00 -0.00000000000E+00 -0.35852487668E+03  0.35852487668E+03  0.00000000000E+00 0. -1.
         23    2    1    2    0    0  0.10830365067E+02 -0.12236295985E+02 -0.13347004661E+02  0.93916520796E+02  0.91515827036E+02 0.  0.
         23    2    1    2    0    0 -0.10830365067E+02  0.12236295985E+02 -0.29840770909E+03  0.31137851880E+03  0.87420806312E+02 0.  0.
          5    1    4    4  502    0  0.27837487655E+02  0.14335629049E+02 -0.23360215122E+03  0.23573818323E+03  0.47000000000E+01 0. -1.
         -5    1    3    3    0  503  0.29498229796E+02 -0.45544600740E+02 -0.89196850189E+01  0.55191548253E+02  0.47000000000E+01 0.  1.
          5    1    3    3  503    0 -0.18667864729E+02  0.33308304756E+02 -0.44273196426E+01  0.38724972543E+02  0.47000000000E+01 0. -1.
         -5    1    4    4    0  502 -0.38667852722E+02 -0.20993330641E+01 -0.64805557877E+02  0.75640335570E+02  0.47000000000E+01 0.  1.
<mgrwt>
<rscale>  0 0.91939396E+02</rscale>
<asrwt>0</asrwt>
<pdfrwt beam="1">  1        1 0.55157673E-01 0.92963274E+02</pdfrwt>
<pdfrwt beam="2">  1       -1 0.71954097E-02 0.92963274E+02</pdfrwt>
<totfact> 0.65778756E+03</totfact>
</mgrwt>
</event>
<event>
 8    1  0.3400573E-004  0.1758720E+03  0.7546771E-02  0.1172109E+00
         -2   -1    0    0    0  501 -0.00000000000E+00  0.00000000000E+00  0.25848221071E+02  0.25848221071E+02  0.00000000000E+00 0.  1.
          2   -1    0    0  501    0  0.00000000000E+00 -0.00000000000E+00 -0.12668056776E+04  0.12668056776E+04  0.00000000000E+00 0. -1.
         23    2    1    2    0    0 -0.23739964002E+02  0.14694606358E+03 -0.78143236304E+03  0.80097909769E+03  0.93670942294E+02 0.  0.
         23    2    1    2    0    0  0.23739964002E+02 -0.14694606358E+03 -0.45952509351E+03  0.49167480100E+03  0.91782715633E+02 0.  0.
          5    1    3    3  502    0 -0.78351025035E+01  0.54529607356E+02 -0.52489914595E+03  0.52780306018E+03  0.47000000000E+01 0. -1.
         -5    1    3    3    0  502 -0.15904861498E+02  0.92416456221E+02 -0.25653321709E+03  0.27317603751E+03  0.47000000000E+01 0.  1.
          5    1    4    4  503    0  0.41511874662E+02 -0.10745252077E+03 -0.22161195844E+03  0.24980638519E+03  0.47000000000E+01 0. -1.
         -5    1    4    4    0  503 -0.17771910660E+02 -0.39493542807E+02 -0.23791313506E+03  0.24186841581E+03  0.47000000000E+01 0.  1.
<mgrwt>
<rscale>  0 0.17562192E+03</rscale>
<asrwt>0</asrwt>
<pdfrwt beam="1">  1        2 0.19489311E+00 0.17587205E+03</pdfrwt>
<pdfrwt beam="2">  1       -2 0.39766508E-02 0.17587205E+03</pdfrwt>
<totfact> 0.50228181E+03</totfact>
</mgrwt>
</event>
<event>
 8    1  0.3400573E-004  0.1096572E+03  0.7546771E-02  0.1261424E+00
          2   -1    0    0  501    0  0.00000000000E+00  0.00000000000E+00  0.32922880576E+03  0.32922880576E+03  0.00000000000E+00 0. -1.
         -2   -1    0    0    0  501 -0.00000000000E+00 -0.00000000000E+00 -0.36545847987E+02  0.36545847987E+02  0.00000000000E+00 0.  1.
         23    2    1    2    0    0 -0.82587320333E+01 -0.59961280262E+02  0.13391222494E+03  0.17308145684E+03  0.91439296409E+02 0.  0.
         23    2    1    2    0    0  0.82587320333E+01  0.59961280262E+02  0.15877073283E+03  0.19269319691E+03  0.90878824512E+02 0.  0.
          5    1    3    3  502    0 -0.42163687563E+02 -0.23721844239E+01  0.56748650701E+02  0.70893604537E+02  0.47000000000E+01 0. -1.
         -5    1    3    3    0  502  0.33904955529E+02 -0.57589095838E+02  0.77163574237E+02  0.10218785230E+03  0.47000000000E+01 0.  1.
          5    1    4    4  503    0  0.26256255207E+02 -0.11105885377E+02  0.18379342764E+02  0.34243566811E+02  0.47000000000E+01 0. -1.
         -5    1    4    4    0  503 -0.17997523174E+02  0.71067165639E+02  0.14039139007E+03  0.15844963010E+03  0.47000000000E+01 0.  1.
<mgrwt>
<rscale>  0 0.10954031E+03</rscale>
<asrwt>0</asrwt>
<pdfrwt beam="1">  1        2 0.50650583E-01 0.10965722E+03</pdfrwt>
<pdfrwt beam="2">  1       -2 0.56224384E-02 0.10965722E+03</pdfrwt>
<totfact> 0.14914504E+04</totfact>
</mgrwt>
</event>
<event>
 8    1  0.3400573E-004  0.1024853E+03  0.7546771E-02  0.1275285E+00
          1   -1    0    0  501    0  0.00000000000E+00  0.00000000000E+00  0.10004673116E+04  0.10004673116E+04  0.00000000000E+00 0. -1.
         -1   -1    0    0    0  501 -0.00000000000E+00 -0.00000000000E+00 -0.11212755073E+02  0.11212755073E+02  0.00000000000E+00 0.  1.
         23    2    1    2    0    0 -0.46391445076E+02  0.59241251473E+01  0.62520694449E+03  0.63355106426E+03  0.91191919346E+02 0.  0.
         23    2    1    2    0    0  0.46391445076E+02 -0.59241251473E+01  0.36404761203E+03  0.37812900240E+03  0.90904439928E+02 0.  0.
          5    1    4    4  502    0  0.55445454285E+02  0.31081345501E+02  0.23550232245E+03  0.24397475755E+03  0.47000000000E+01 0. -1.
         -5    1    4    4    0  502 -0.90540092094E+01 -0.37005470648E+02  0.12854528957E+03  0.13415424485E+03  0.47000000000E+01 0.  1.
          5    1    3    3  503    0 -0.70764896676E+02  0.20301355611E+02  0.44314440173E+03  0.44924254743E+03  0.47000000000E+01 0. -1.
         -5    1    3    3    0  503  0.24373451601E+02 -0.14377230464E+02  0.18206254276E+03  0.18430851683E+03  0.47000000000E+01 0.  1.
<mgrwt>
<rscale>  0 0.10242127E+03</rscale>
<asrwt>0</asrwt>
<pdfrwt beam="1">  1        1 0.15391798E+00 0.10248526E+03</pdfrwt>
<pdfrwt beam="2">  1       -1 0.17250400E-02 0.10248526E+03</pdfrwt>
<totfact> 0.12816214E+04</totfact>
</mgrwt>
</event>
<event>
 8    1  0.3400573E-004  0.1069040E+03  0.7546771E-02  0.1266416E+00
          3   -1    0    0  501    0  0.00000000000E+00  0.00000000000E+00  0.57959113968E+03  0.57959113968E+03  0.00000000000E+00 0. -1.
         -3   -1    0    0    0  501 -0.00000000000E+00 -0.00000000000E+00 -0.52519860823E+02  0.52519860823E+02  0.00000000000E+00 0.  1.
         23    2    1    2    0    0 -0.40460000912E+01 -0.54657133779E+02  0.13753815602E+02  0.10777973489E+03  0.91779798539E+02 0.  0.
         23    2    1    2    0    0  0.40460000912E+01  0.54657133779E+02  0.51331746325E+03  0.52433126561E+03  0.91786086237E+02 0.  0.
          5    1    3    3  502    0 -0.14855374133E+02 -0.31602486363E+02  0.51261168617E+02  0.62202867241E+02  0.47000000000E+01 0. -1.
         -5    1    4    4    0  503  0.46060281884E+02  0.19340406310E+02  0.29075483319E+03  0.29505264599E+03  0.47000000000E+01 0.  1.
          5    1    4    4  503    0 -0.42014281793E+02  0.35316727470E+02  0.22256263006E+03  0.22927861962E+03  0.47000000000E+01 0. -1.
         -5    1    3    3    0  502  0.10809374042E+02 -0.23054647416E+02 -0.37507353015E+02  0.45576867650E+02  0.47000000000E+01 0.  1.
<mgrwt>
<rscale>  0 0.10690262E+03</rscale>
<asrwt>0</asrwt>
<pdfrwt beam="1">  1        3 0.89167863E-01 0.10690397E+03</pdfrwt>
<pdfrwt beam="2">  1       -3 0.80799790E-02 0.10690397E+03</pdfrwt>
<totfact> 0.27804895E+02</totfact>
</mgrwt>
</event>
<event>
 8    1  0.3400573E-004  0.9483497E+02  0.7546771E-02  0.1292283E+00
         -3   -1    0    0    0  501 -0.00000000000E+00  0.00000000000E+00  0.82953501797E+03  0.82953501797E+03  0.00000000000E+00 0.  1.
          3   -1    0    0  501    0  0.00000000000E+00 -0.00000000000E+00 -0.18150545672E+02  0.18150545672E+02  0.00000000000E+00 0. -1.
         23    2    1    2    0    0  0.17854813248E+02  0.10348822543E+01  0.13240765274E+03  0.16211777493E+03  0.91817869220E+02 0.  0.
         23    2    1    2    0    0 -0.17854813248E+02 -0.10348822543E+01  0.67897681956E+03  0.68556778871E+03  0.93133270532E+02 0.  0.
          5    1    4    4  502    0  0.36248639396E+02 -0.99754872091E+01  0.21204824951E+03  0.21540664875E+03  0.47000000000E+01 0. -1.
         -5    1    4    4    0  502 -0.54103452644E+02  0.89406049548E+01  0.46692857005E+03  0.47016113996E+03  0.47000000000E+01 0.  1.
          5    1    3    3  503    0  0.45250508428E+02 -0.25711928448E+02  0.94774146177E+02  0.10822633950E+03  0.47000000000E+01 0. -1.
         -5    1    3    3    0  503 -0.27395695181E+02  0.26746810702E+02  0.37633506563E+02  0.53891435437E+02  0.47000000000E+01 0.  1.
<mgrwt>
<rscale>  0 0.94510440E+02</rscale>
<asrwt>0</asrwt>
<pdfrwt beam="1">  1        3 0.27923923E-02 0.94834969E+02</pdfrwt>
<pdfrwt beam="2">  1       -3 0.12762074E+00 0.94834969E+02</pdfrwt>
<totfact> 0.63603422E+02</totfact>
</mgrwt>
</event>
<event>
 8    1  0.3400573E-004  0.1386176E+03  0.7546771E-02  0.1215485E+00
          3   -1    0    0  501    0  0.00000000000E+00  0.00000000000E+00  0.76558501859E+02  0.76558501859E+02  0.00000000000E+00 0. -1.
         -3   -1    0    0    0  501 -0.00000000000E+00 -0.00000000000E+00 -0.42436440939E+03  0.42436440939E+03  0.00000000000E+00 0.  1.
         23    2    1    2    0    0  0.10375243084E+03  0.47985587353E+01 -0.33499380226E+03  0.36254060211E+03  0.91800041109E+02 0.  0.
         23    2    1    2    0    0 -0.10375243084E+03 -0.47985587353E+01 -0.12812105265E+02  0.13838230914E+03  0.90542367821E+02 0.  0.
          5    1    4    4  502    0 -0.10532749027E+03 -0.27497642235E+02  0.50494945652E+01  0.10907606489E+03  0.47000000000E+01 0. -1.
         -5    1    3    3    0  503  0.74974673919E+02 -0.22215695128E+02 -0.29840034275E+03  0.30851190154E+03  0.47000000000E+01 0.  1.
          5    1    3    3  503    0  0.28777756924E+02  0.27014253863E+02 -0.36593459513E+02  0.54028700563E+02  0.47000000000E+01 0. -1.
         -5    1    4    4    0  502  0.15750594305E+01  0.22699083499E+02 -0.17861599830E+02  0.29306244256E+02  0.47000000000E+01 0.  1.
<mgrwt>
<rscale>  0 0.13840972E+03</rscale>
<asrwt>0</asrwt>
<pdfrwt beam="1">  1        3 0.11778231E-01 0.13861761E+03</pdfrwt>
<pdfrwt beam="2">  1       -3 0.65286833E-01 0.13861761E+03</pdfrwt>
<totfact> 0.30208688E+02</totfact>
</mgrwt>
</event>
<event>
 8    1  0.3400573E-004  0.1260147E+03  0.7546771E-02  0.1234447E+00
         -1   -1    0    0    0  501 -0.00000000000E+00  0.00000000000E+00  0.30179086132E+03  0.30179086132E+03  0.00000000000E+00 0.  1.
          1   -1    0    0  501    0  0.00000000000E+00 -0.00000000000E+00 -0.32116444485E+03  0.32116444485E+03  0.00000000000E+00 0. -1.
         23    2    1    2    0    0 -0.82938742891E+02 -0.59734432913E+01  0.27568612953E+03  0.30211276446E+03  0.91404394522E+02 0.  0.
         23    2    1    2    0    0  0.82938742891E+02  0.59734432913E+01 -0.29505971306E+03  0.32084254171E+03  0.94684661924E+02 0.  0.
          5    1    4    4  502    0  0.70401161704E+02  0.45459120255E+02 -0.20865702244E+03  0.22490597635E+03  0.47000000000E+01 0. -1.
         -5    1    4    4    0  502  0.12537581187E+02 -0.39485676963E+02 -0.86402690618E+02  0.95936565361E+02  0.47000000000E+01 0.  1.
          5    1    3    3  503    0 -0.52813189446E+02  0.40831351759E+02  0.13314818270E+03  0.14902000142E+03  0.47000000000E+01 0. -1.
         -5    1    3    3    0  503 -0.30125553445E+02 -0.46804795050E+02  0.14253794683E+03  0.15309276304E+03  0.47000000000E+01 0.  1.
<mgrwt>
<rscale>  0 0.12539875E+03</rscale>
<asrwt>0</asrwt>
<pdfrwt beam="1">  1        1 0.49409914E-01 0.12601469E+03</pdfrwt>
<pdfrwt beam="2">  1       -1 0.46429364E-01 0.12601469E+03</pdfrwt>
<totfact> 0.38419919E+02</totfact>
</mgrwt>
</event>
<event>
 8    1  0.3400573E-004  0.1171526E+03  0.7546771E-02  0.1248504E+00
          2   -1    0    0  501    0  0.00000000000E+00  0.00000000000E+00  0.13848922424E+02  0.13848922424E+02  0.00000000000E+00 0. -1.
         -2   -1    0    0    0  501 -0.00000000000E+00 -0.00000000000E+00 -0.11264197645E+04  0.11264197645E+04  0.00000000000E+00 0.  1.
         23    2    1    2    0    0 -0.12210741917E+02 -0.72648966760E+02 -0.35279475584E+03  0.37173763662E+03  0.91092020209E+02 0.  0.
         23    2    1    2    0    0  0.12210741917E+02  0.72648966760E+02 -0.75977608625E+03  0.76853105031E+03  0.89181273080E+02 0.  0.
          5    1    4    4  502    0  0.31776269144E+02  0.91473189897E+01 -0.10063573464E+03  0.10603322975E+03  0.47000000000E+01 0. -1.
         -5    1    4    4    0  502 -0.19565527227E+02  0.63501647770E+02 -0.65914035161E+03  0.66249782056E+03  0.47000000000E+01 0.  1.
          5    1    3    3  503    0  0.33083710456E+02 -0.49529603221E+02 -0.12863202897E+03  0.14183089357E+03  0.47000000000E+01 0. -1.
         -5    1    3    3    0  503 -0.45294452373E+02 -0.23119363539E+02 -0.22416272687E+03  0.22990674306E+03  0.47000000000E+01 0.  1.
<mgrwt>
<rscale>  0 0.11678097E+03</rscale>
<asrwt>0</asrwt>
<pdfrwt beam="1">  1        2 0.21306023E-02 0.11715260E+03</pdfrwt>
<pdfrwt beam="2">  1       -2 0.17329544E+00 0.11715260E+03</pdfrwt>
<totfact> 0.10385819E+03</totfact>
</mgrwt>
</event>
<event>
 7    1  0.3400573E-004  0.1102410E+03  0.7546771E-02  0.1275757E+00
         -2   -1    0    0    0  501 -0.00000000000E+00  0.00000000000E+00  0.64193998860E+02  0.64193998860E+02  0.00000000000E+00 0.  1.
          2   -1    0    0  501    0  0.00000000000E+00 -0.00000000000E+00 -0.15927441526E+03  0.15927441526E+03  0.00000000000E+00 0. -1.
         23    2    1    2    0    0 -0.40604562367E+02 -0.46636408896E+02 -0.18638514397E+02  0.11180552195E+03  0.91265521423E+02 0.  0.
          5    1    3    3  502    0  0.11132778306E+01 -0.62879514372E+02 -0.21682936006E+02  0.66688173082E+02  0.47000000000E+01 0. -1.
         -5    1    1    2    0  503  0.18063037677E+02  0.50746648484E+02 -0.36045986905E+02  0.64983835178E+02  0.47000000000E+01 0. -1.
          5    1    1    2  503    0  0.22541524690E+02 -0.41102395872E+01 -0.40395915097E+02  0.46679056988E+02  0.47000000000E+01 0.  1.
         -5    1    3    3    0  502 -0.41717840197E+02  0.16243105476E+02  0.30444216093E+01  0.45117348871E+02  0.47000000000E+01 0.  1.
<mgrwt>
<rscale>  0 0.10218980E+03</rscale>
<asrwt>0</asrwt>
<pdfrwt beam="1">  1        2 0.24503756E-01 0.11024101E+03</pdfrwt>
<pdfrwt beam="2">  1       -2 0.98759999E-02 0.11024101E+03</pdfrwt>
<totfact> 0.13679412E+04</totfact>
</mgrwt>
</event>
<event>
 8    1  0.3400573E-004  0.9688067E+02  0.7546771E-02  0.1287469E+00
          1   -1    0    0  501    0  0.00000000000E+00  0.00000000000E+00  0.10930939258E+04  0.10930939258E+04  0.00000000000E+00 0. -1.
         -1   -1    0    0    0  501 -0.00000000000E+00 -0.00000000000E+00 -0.10193127867E+02  0.10193127867E+02  0.00000000000E+00 0.  1.
         23    2    1    2    0    0  0.26427471816E+02  0.89411324136E+01  0.76758215091E+03  0.77367190908E+03  0.92776664019E+02 0.  0.
         23    2    1    2    0    0 -0.26427471816E+02 -0.89411324136E+01  0.31531864700E+03  0.32961514456E+03  0.91880026475E+02 0.  0.
          5    1    3    3  502    0  0.41413781889E+02 -0.31590993446E+02  0.47659342521E+03  0.47945435148E+03  0.47000000000E+01 0. -1.
         -5    1    4    4    0  503  0.68277113420E+01  0.37616210368E+02  0.13392127849E+03  0.13935062166E+03  0.47000000000E+01 0.  1.
          5    1    4    4  503    0 -0.33255183158E+02 -0.46557342782E+02  0.18139736851E+03  0.19026452291E+03  0.47000000000E+01 0. -1.
         -5    1    3    3    0  502 -0.14986310073E+02  0.40532125860E+02  0.29098872570E+03  0.29421755760E+03  0.47000000000E+01 0.  1.
<mgrwt>
<rscale>  0 0.96665378E+02</rscale>
<asrwt>0</asrwt>
<pdfrwt beam="1">  1        1 0.16816820E+00 0.96880671E+02</pdfrwt>
<pdfrwt beam="2">  1       -1 0.15681744E-02 0.96880671E+02</pdfrwt>
<totfact> 0.12569199E+04</totfact>
</mgrwt>
</event>
<event>
 8    1  0.3400573E-004  0.1286196E+03  0.7546771E-02  0.1230214E+00
         -2   -1    0    0    0  501 -0.00000000000E+00  0.00000000000E+00  0.14306027235E+03  0.14306027235E+03  0.00000000000E+00 0.  1.
          2   -1    0    0  501    0  0.00000000000E+00 -0.00000000000E+00 -0.24379344181E+03  0.24379344181E+03  0.00000000000E+00 0. -1.
         23    2    1    2    0    0  0.86438060144E+02 -0.19681923265E+02 -0.19133307290E+03  0.22952813184E+03  0.90641613922E+02 0.  0.
         23    2    1    2    0    0 -0.86438060144E+02  0.19681923265E+02  0.90599903433E+02  0.15732558233E+03  0.93188411338E+02 0.  0.
          5    1    4    4  502    0 -0.86014708097E+02 -0.11453245651E+02  0.91005215436E+02  0.12583221401E+03  0.47000000000E+01 0. -1.
         -5    1    3    3    0  503  0.82389169813E+02  0.65005317413E+01 -0.80467722320E+02  0.11544425733E+03  0.47000000000E+01 0.  1.
          5    1    3    3  503    0  0.40488903307E+01 -0.26182455007E+02 -0.11086535058E+03  0.11408387450E+03  0.47000000000E+01 0. -1.
         -5    1    4    4    0  502 -0.42335204692E+00  0.31135168917E+02 -0.40531200368E+00  0.31493368322E+02  0.47000000000E+01 0.  1.
<mgrwt>
<rscale>  0 0.12815884E+03</rscale>
<asrwt>0</asrwt>
<pdfrwt beam="1">  1        2 0.37506683E-01 0.12861958E+03</pdfrwt>
<pdfrwt beam="2">  1       -2 0.22009273E-01 0.12861958E+03</pdfrwt>
<totfact> 0.23660913E+03</totfact>
</mgrwt>
</event>
<event>
 8    1  0.3400573E-004  0.1008312E+03  0.7546771E-02  0.1278643E+00
          1   -1    0    0  501    0  0.00000000000E+00  0.00000000000E+00  0.40057882728E+02  0.40057882728E+02  0.00000000000E+00 0. -1.
         -1   -1    0    0    0  501 -0.00000000000E+00 -0.00000000000E+00 -0.28808475088E+03  0.28808475088E+03  0.00000000000E+00 0.  1.
         23    2    1    2    0    0 -0.34062781281E+02  0.24861412222E+02 -0.18085911831E+03  0.20698799477E+03  0.91409225016E+02 0.  0.
         23    2    1    2    0    0  0.34062781281E+02 -0.24861412222E+02 -0.67167749841E+02  0.12115463883E+03  0.91589175156E+02 0.  0.
          5    1    3    3  502    0  0.29885844752E+02  0.44152697784E+01 -0.35814363820E+02  0.47089457202E+02  0.47000000000E+01 0. -1.
         -5    1    4    4    0  503 -0.26548107780E+02  0.11812971154E+02 -0.14899341074E+02  0.32991342480E+02  0.47000000000E+01 0.  1.
          5    1    4    4  503    0  0.60610889061E+02 -0.36674383376E+02 -0.52268408766E+02  0.88163296353E+02  0.47000000000E+01 0. -1.
         -5    1    3    3    0  502 -0.63948626033E+02  0.20446142443E+02 -0.14504475449E+03  0.15989853757E+03  0.47000000000E+01 0.  1.
<mgrwt>
<rscale>  0 0.10079036E+03</rscale>
<asrwt>0</asrwt>
<pdfrwt beam="1">  1        1 0.61627512E-02 0.10083124E+03</pdfrwt>
<pdfrwt beam="2">  1       -1 0.44320731E-01 0.10083124E+03</pdfrwt>
<totfact> 0.59323114E+03</totfact>
</mgrwt>
</event>
<event>
 8    1  0.3400573E-004  0.9066301E+02  0.7546771E-02  0.1302284E+00
         -4   -1    0    0    0  501 -0.00000000000E+00  0.00000000000E+00  0.65753337034E+03  0.65753337034E+03  0.00000000000E+00 0.  1.
          4   -1    0    0  501    0  0.00000000000E+00 -0.00000000000E+00 -0.12519307534E+02  0.12519307534E+02  0.00000000000E+00 0. -1.
         23    2    1    2    0    0  0.14923202014E+02 -0.14668051865E+02  0.36702343093E+03  0.37765128780E+03  0.86466424839E+02 0.  0.
         23    2    1    2    0    0 -0.14923202014E+02  0.14668051865E+02  0.27799063187E+03  0.29240139007E+03  0.88215235647E+02 0.  0.
          5    1    4    4  502    0  0.14351321760E+02  0.44448501848E+02  0.11829406599E+03  0.12726824349E+03  0.47000000000E+01 0. -1.
         -5    1    3    3    0  503  0.28293952487E+02 -0.37864024989E+02  0.31858498620E+03  0.32210668351E+03  0.47000000000E+01 0.  1.
          5    1    3    3  503    0 -0.13370750473E+02  0.23195973123E+02  0.48438444736E+02  0.55544604290E+02  0.47000000000E+01 0. -1.
         -5    1    4    4    0  502 -0.29274523774E+02 -0.29780449983E+02  0.15969656589E+03  0.16513314658E+03  0.47000000000E+01 0.  1.
<mgrwt>
<rscale>  0 0.90234817E+02</rscale>
<asrwt>0</asrwt>
<pdfrwt beam="1">  1        4 0.19260478E-02 0.90663011E+02</pdfrwt>
<pdfrwt beam="2">  1       -4 0.10115895E+00 0.90663011E+02</pdfrwt>
<totfact> 0.13494275E+03</totfact>
</mgrwt>
</event>
<event>
 8    1  0.3400573E-004  0.1132668E+03  0.7546771E-02  0.1254832E+00
         -1   -1    0    0    0  501 -0.00000000000E+00  0.00000000000E+00  0.43949298466E+02  0.43949298466E+02  0.00000000000E+00 0.  1.
          1   -1    0    0  501    0  0.00000000000E+00 -0.00000000000E+00 -0.29622284637E+03  0.29622284637E+03  0.00000000000E+00 0. -1.
         23    2    1    2    0    0  0.36404429382E+02  0.55861951660E+02 -0.10286114840E+03  0.15267968360E+03  0.91021040493E+02 0.  0.
         23    2    1    2    0    0 -0.36404429382E+02 -0.55861951660E+02 -0.14941239951E+03  0.18749246124E+03  0.91561551827E+02 0.  0.
          5    1    4    4  502    0  0.88031019766E+01 -0.63321014517E+02 -0.10780211135E+03  0.12542101377E+03  0.47000000000E+01 0. -1.
         -5    1    3    3    0  503  0.41445268598E+02  0.75694420954E+02 -0.60800953014E+02  0.10567024908E+03  0.47000000000E+01 0.  1.
          5    1    3    3  503    0 -0.50408392163E+01 -0.19832469294E+02 -0.42060195388E+02  0.47009434525E+02  0.47000000000E+01 0. -1.
         -5    1    4    4    0  502 -0.45207531358E+02  0.74590628575E+01 -0.41610288160E+02  0.62071447470E+02  0.47000000000E+01 0.  1.
<mgrwt>
<rscale>  0 0.11315748E+03</rscale>
<asrwt>0</asrwt>
<pdfrwt beam="1">  1        1 0.45572745E-01 0.11326676E+03</pdfrwt>
<pdfrwt beam="2">  1       -1 0.67614307E-02 0.11326676E+03</pdfrwt>
<totfact> 0.92641969E+03</totfact>
</mgrwt>
</event>
<event>
 8    1  0.3400573E-004  0.1137587E+03  0.7546771E-02  0.1254081E+00
          3   -1    0    0  501    0  0.00000000000E+00  0.00000000000E+00  0.51408151505E+02  0.51408151505E+02  0.00000000000E+00 0. -1.
         -3   -1    0    0    0  501 -0.00000000000E+00 -0.00000000000E+00 -0.35224819382E+03  0.35224819382E+03  0.00000000000E+00 0.  1.
         23    2    1    2    0    0 -0.15032989101E+02 -0.64304411685E+02 -0.25941314552E+03  0.28325999385E+03  0.92628267418E+02 0.  0.
         23    2    1    2    0    0  0.15032989101E+02  0.64304411685E+02 -0.41426896793E+02  0.12039635147E+03  0.91749907609E+02 0.  0.
          5    1    4    4  502    0 -0.19099573707E+02  0.16703609716E+02 -0.54408367209E+02  0.60217644554E+02  0.47000000000E+01 0. -1.
         -5    1    3    3    0  503 -0.49031435485E+02 -0.19248764002E+02 -0.16385152009E+03  0.17217435122E+03  0.47000000000E+01 0.  1.
          5    1    3    3  503    0  0.33998446384E+02 -0.45055647682E+02 -0.95561625427E+02  0.11108564263E+03  0.47000000000E+01 0. -1.
         -5    1    4    4    0  502  0.34132562808E+02  0.47600801969E+02  0.12981470417E+02  0.60178706916E+02  0.47000000000E+01 0.  1.
<mgrwt>
<rscale>  0 0.11357977E+03</rscale>
<asrwt>0</asrwt>
<pdfrwt beam="1">  1        3 0.79089462E-02 0.11375871E+03</pdfrwt>
<pdfrwt beam="2">  1       -3 0.54192031E-01 0.11375871E+03</pdfrwt>
<totfact> 0.82821540E+02</totfact>
</mgrwt>
</event>
<event>
 8    1  0.3400573E-004  0.1037320E+03  0.7546771E-02  0.1272939E+00
          2   -1    0    0  501    0  0.00000000000E+00  0.00000000000E+00  0.61284406200E+03  0.61284406200E+03  0.00000000000E+00 0. -1.
         -2   -1    0    0    0  501 -0.00000000000E+00 -0.00000000000E+00 -0.17610193581E+02  0.17610193581E+02  0.00000000000E+00 0.  1.
         23    2    1    2    0    0 -0.25436632781E+02 -0.39640127296E+02  0.32788224579E+03  0.34389984590E+03  0.92422805265E+02 0.  0.
         23    2    1    2    0    0  0.25436632781E+02  0.39640127296E+02  0.26735162263E+03  0.28655440968E+03  0.91750627248E+02 0.  0.
          5    1    4    4  502    0 -0.14493514119E+02  0.37571939536E+02  0.44929994880E+02  0.60518650282E+02  0.47000000000E+01 0. -1.
         -5    1    3    3    0  503  0.10878232992E+02  0.25665594453E+02  0.10709374448E+03  0.11076199167E+03  0.47000000000E+01 0.  1.
          5    1    3    3  503    0 -0.36314865773E+02 -0.65305721749E+02  0.22078850130E+03  0.23313785424E+03  0.47000000000E+01 0. -1.
         -5    1    4    4    0  502  0.39930146900E+02  0.20681877594E+01  0.22242162775E+03  0.22603575939E+03  0.47000000000E+01 0.  1.
<mgrwt>
<rscale>  0 0.10358211E+03</rscale>
<asrwt>0</asrwt>
<pdfrwt beam="1">  1        2 0.94283686E-01 0.10373204E+03</pdfrwt>
<pdfrwt beam="2">  1       -2 0.27092610E-02 0.10373204E+03</pdfrwt>
<totfact> 0.22305968E+04</totfact>
</mgrwt>
</event>
<event>
 8    1  0.3400573E-004  0.1223671E+03  0.7546771E-02  0.1241066E+00
          2   -1    0    0  501    0  0.00000000000E+00  0.00000000000E+00  0.54604127413E+02  0.54604127413E+02  0.00000000000E+00 0. -1.
         -2   -1    0    0    0  501 -0.00000000000E+00 -0.00000000000E+00 -0.32404826807E+03  0.32404826807E+03  0.00000000000E+00 0.  1.
         23    2    1    2    0    0 -0.62914433218E+02  0.41207944173E+02 -0.55502968495E+02  0.13436623727E+03  0.96526605842E+02 0.  0.
         23    2    1    2    0    0  0.62914433218E+02 -0.41207944173E+02 -0.21394117216E+03  0.24428615821E+03  0.90821701041E+02 0.  0.
          5    1    4    4  502    0  0.95430673377E+01 -0.19414092150E+02  0.53859197762E+00  0.22144010241E+02  0.47000000000E+01 0. -1.
         -5    1    3    3    0  503 -0.56102563392E+02 -0.19625025016E+02 -0.37313115565E+02  0.70334897591E+02  0.47000000000E+01 0.  1.
          5    1    3    3  503    0 -0.68118698260E+01  0.60832969190E+02 -0.18189852929E+02  0.64031339675E+02  0.47000000000E+01 0. -1.
         -5    1    4    4    0  502  0.53371365880E+02 -0.21793852023E+02 -0.21447976414E+03  0.22214214797E+03  0.47000000000E+01 0.  1.
<mgrwt>
<rscale>  0 0.12123960E+03</rscale>
<asrwt>0</asrwt>
<pdfrwt beam="1">  1        2 0.84006350E-02 0.12236710E+03</pdfrwt>
<pdfrwt beam="2">  1       -2 0.49853579E-01 0.12236710E+03</pdfrwt>
<totfact> 0.29404475E+03</totfact>
</mgrwt>
</event>
<event>
 8    1  0.3400573E-004  0.9043017E+02  0.7546771E-02  0.1302436E+00
          1   -1    0    0  501    0  0.00000000000E+00  0.00000000000E+00  0.47548011040E+02  0.47548011040E+02  0.00000000000E+00 0. -1.
         -1   -1    0    0    0  501 -0.00000000000E+00 -0.00000000000E+00 -0.21531519678E+03  0.21531519678E+03  0.00000000000E+00 0.  1.
         23    2    1    2    0    0 -0.47458478635E+00 -0.39703667669E+01 -0.23234887471E+02  0.92372148103E+02  0.89312735410E+02 0.  0.
         23    2    1    2    0    0  0.47458478635E+00  0.39703667669E+01 -0.14453229827E+03  0.17049105972E+03  0.90341724345E+02 0.  0.
          5    1    4    4  502    0  0.13642958125E+02 -0.19450782212E+02 -0.14090792672E+03  0.14297411321E+03  0.47000000000E+01 0. -1.
         -5    1    3    3    0  503 -0.33782786726E+02 -0.47549588646E+01 -0.41627347118E+02  0.54026033918E+02  0.47000000000E+01 0.  1.
          5    1    3    3  503    0  0.33308201940E+02  0.78459209779E+00  0.18392459647E+02  0.38346114185E+02  0.47000000000E+01 0. -1.
         -5    1    4    4    0  502 -0.13168373339E+02  0.23421148979E+02 -0.36243715441E+01  0.27516946505E+02  0.47000000000E+01 0.  1.
<mgrwt>
<rscale>  0 0.90172077E+02</rscale>
<asrwt>0</asrwt>
<pdfrwt beam="1">  1        1 0.73150786E-02 0.90430173E+02</pdfrwt>
<pdfrwt beam="2">  1       -1 0.33125415E-01 0.90430173E+02</pdfrwt>
<totfact> 0.77231870E+03</totfact>
</mgrwt>
</event>
<event>
 8    1  0.3400573E-004  0.1325936E+03  0.7546771E-02  0.1233678E+00
          1   -1    0    0  501    0  0.00000000000E+00  0.00000000000E+00  0.29816889950E+02  0.29816889950E+02  0.00000000000E+00 0. -1.
         -1   -1    0    0    0  501 -0.00000000000E+00 -0.00000000000E+00 -0.61428263117E+03  0.61428263117E+03  0.00000000000E+00 0.  1.
         23    2    1    2    0    0 -0.34888705052E+02 -0.49082043330E+02 -0.46351513272E+03  0.48210719191E+03  0.11813042584E+03 0.  0.
         23    2    1    2    0    0  0.34888705052E+02  0.49082043330E+02 -0.12095060850E+03  0.16199232921E+03  0.89365520812E+02 0.  0.
          5    1    4    4  502    0 -0.23116822867E+02  0.43088292276E+02 -0.59248999520E+02  0.76964422786E+02  0.47000000000E+01 0. -1.
         -5    1    3    3    0  503  0.34262950303E+02  0.12978612298E+02 -0.92444584962E+02  0.99551421032E+02  0.47000000000E+01 0.  1.
          5    1    3    3  503    0 -0.69151655355E+02 -0.62060655629E+02 -0.37107054776E+03  0.38255577088E+03  0.47000000000E+01 0. -1.
         -5    1    4    4    0  502  0.58005527919E+02  0.59937510547E+01 -0.61701608978E+02  0.85027906427E+02  0.47000000000E+01 0.  1.
<mgrwt>
<rscale>  0 0.12589472E+03</rscale>
<asrwt>0</asrwt>
<pdfrwt beam="1">  1        1 0.45872145E-02 0.13259361E+03</pdfrwt>
<pdfrwt beam="2">  1       -1 0.94505007E-01 0.13259361E+03</pdfrwt>
<totfact> 0.20784410E+03</totfact>
</mgrwt>
</event>
<event>
 8    1  0.3400573E-004  0.1216656E+03  0.7546771E-02  0.1240480E+00
         -1   -1    0    0    0  501 -0.00000000000E+00  0.00000000000E+00  0.25268736891E+03  0.25268736891E+03  0.00000000000E+00 0.  1.
          1   -1    0    0  501    0  0.00000000000E+00 -0.00000000000E+00 -0.77543558875E+02  0.77543558875E+02  0.00000000000E+00 0. -1.
         23    2    1    2    0    0  0.73219864416E+02 -0.34805582004E+02  0.16956410453E+03  0.20869714835E+03  0.90719000772E+02 0.  0.
         23    2    1    2    0    0 -0.73219864416E+02  0.34805582004E+02  0.55797054997E+01  0.12153377943E+03  0.90370068856E+02 0.  0.
          5    1    3    3  502    0 -0.13492294638E+02 -0.31424741878E+02  0.54264083513E+02  0.64313584694E+02  0.47000000000E+01 0. -1.
         -5    1    4    4    0  503 -0.53467877624E+02 -0.24215574548E+02  0.52475693956E+01  0.59117129268E+02  0.47000000000E+01 0.  1.
          5    1    4    4  503    0 -0.19751986792E+02  0.59021156552E+02  0.33213610410E+00  0.62416650161E+02  0.47000000000E+01 0. -1.
         -5    1    3    3    0  502  0.86712159054E+02 -0.33808401254E+01  0.11530002102E+03  0.14438356366E+03  0.47000000000E+01 0.  1.
<mgrwt>
<rscale>  0 0.12160054E+03</rscale>
<asrwt>0</asrwt>
<pdfrwt beam="1">  1        1 0.11929778E-01 0.12166558E+03</pdfrwt>
<pdfrwt beam="2">  1       -1 0.38874979E-01 0.12166558E+03</pdfrwt>
<totfact> 0.31464394E+03</totfact>
</mgrwt>
</event>
<event>
 8    1  0.3400573E-004  0.2750361E+03  0.7546771E-02  0.1099401E+00
         -1   -1    0    0    0  501 -0.00000000000E+00  0.00000000000E+00  0.55729444535E+03  0.55729444535E+03  0.00000000000E+00 0.  1.
          1   -1    0    0  501    0  0.00000000000E+00 -0.00000000000E+00 -0.21234854396E+03  0.21234854396E+03  0.00000000000E+00 0. -1.
         23    2    1    2    0    0  0.24428035068E+03 -0.63897858151E+02  0.40726106672E+03  0.48763586204E+03  0.90395417342E+02 0.  0.
         23    2    1    2    0    0 -0.24428035068E+03  0.63897858151E+02 -0.62315165323E+02  0.28200712727E+03  0.10903675526E+03 0.  0.
          5    1    4    4  502    0 -0.23469760306E+03  0.29529332182E+02 -0.66536888690E+02  0.24577264677E+03  0.47000000000E+01 0. -1.
         -5    1    3    3    0  503  0.14400252460E+03 -0.68399243726E+02  0.30546654742E+03  0.34459698958E+03  0.47000000000E+01 0.  1.
          5    1    3    3  503    0  0.10027782608E+03  0.45013855742E+01  0.10179451930E+03  0.14303887246E+03  0.47000000000E+01 0. -1.
         -5    1    4    4    0  502 -0.95827476181E+01  0.34368525970E+02  0.42217233669E+01  0.36234480504E+02  0.47000000000E+01 0.  1.
<mgrwt>
<rscale>  0 0.27330895E+03</rscale>
<asrwt>0</asrwt>
<pdfrwt beam="1">  1        1 0.32669007E-01 0.27503607E+03</pdfrwt>
<pdfrwt beam="2">  1       -1 0.85737607E-01 0.27503607E+03</pdfrwt>
<totfact> 0.19284287E+02</totfact>
</mgrwt>
</event>
<event>
 8    1  0.3400573E-004  0.1090545E+03  0.7546771E-02  0.1262938E+00
         -1   -1    0    0    0  501 -0.00000000000E+00  0.00000000000E+00  0.92329216594E+02  0.92329216594E+02  0.00000000000E+00 0.  1.
          1   -1    0    0  501    0  0.00000000000E+00 -0.00000000000E+00 -0.13186525218E+03  0.13186525218E+03  0.00000000000E+00 0. -1.
         23    2    1    2    0    0  0.21682283491E+02  0.58014586705E+02  0.12184569853E+01  0.10777367152E+03  0.88192210245E+02 0.  0.
         23    2    1    2    0    0 -0.21682283491E+02 -0.58014586705E+02 -0.40754492572E+02  0.11642079725E+03  0.89761125664E+02 0.  0.
          5    1    4    4  502    0 -0.50895517095E+02 -0.59280341665E+02 -0.36968941387E+02  0.86563879278E+02  0.47000000000E+01 0. -1.
         -5    1    3    3    0  503  0.30218564284E+02  0.16299649388E+02  0.37915526343E+02  0.51366500128E+02  0.47000000000E+01 0.  1.
          5    1    3    3  503    0 -0.85362807929E+01  0.41714937317E+02 -0.36697069358E+02  0.56407171393E+02  0.47000000000E+01 0. -1.
         -5    1    4    4    0  502  0.29213233604E+02  0.12657549600E+01 -0.37855511849E+01  0.29856917976E+02  0.47000000000E+01 0.  1.
<mgrwt>
<rscale>  0 0.10873110E+03</rscale>
<asrwt>0</asrwt>
<pdfrwt beam="1">  1        1 0.20286962E-01 0.10905445E+03</pdfrwt>
<pdfrwt beam="2">  1       -1 0.14204495E-01 0.10905445E+03</pdfrwt>
<totfact> 0.81597587E+03</totfact>
</mgrwt>
</event>
<event>
 8    1  0.3400573E-004  0.1049738E+03  0.7546771E-02  0.1271054E+00
          1   -1    0    0  501    0  0.00000000000E+00  0.00000000000E+00  0.97514768475E+02  0.97514768475E+02  0.00000000000E+00 0. -1.
         -1   -1    0    0    0  501 -0.00000000000E+00 -0.00000000000E+00 -0.13103477636E+03  0.13103477636E+03  0.00000000000E+00 0.  1.
         23    2    1    2    0    0 -0.47655481462E+01  0.54289395850E+02  0.27931816146E+02  0.10691145803E+03  0.87634608201E+02 0.  0.
         23    2    1    2    0    0  0.47655481462E+01 -0.54289395850E+02 -0.61451824032E+02  0.12163808680E+03  0.89718718971E+02 0.  0.
          5    1    4    4  502    0 -0.28777225253E+02 -0.61507005137E+02 -0.28365613338E+02  0.73742378550E+02  0.47000000000E+01 0. -1.
         -5    1    3    3    0  503 -0.22424564428E+02  0.71897973203E+02  0.10648650405E+02  0.76208027109E+02  0.47000000000E+01 0.  1.
          5    1    3    3  503    0  0.17659016282E+02 -0.17608577352E+02  0.17283165740E+02  0.30703430923E+02  0.47000000000E+01 0. -1.
         -5    1    4    4    0  502  0.33542773399E+02  0.72176092866E+01 -0.33086210694E+02  0.47895708255E+02  0.47000000000E+01 0.  1.
<mgrwt>
<rscale>  0 0.10452706E+03</rscale>
<asrwt>0</asrwt>
<pdfrwt beam="1">  1        1 0.15002272E-01 0.10497379E+03</pdfrwt>
<pdfrwt beam="2">  1       -1 0.20159196E-01 0.10497379E+03</pdfrwt>
<totfact> 0.68871921E+03</totfact>
</mgrwt>
</event>
<event>
 8    1  0.3400573E-004  0.9424383E+02  0.7546771E-02  0.1293620E+00
         -1   -1    0    0    0  501 -0.00000000000E+00  0.00000000000E+00  0.10095001435E+03  0.10095001435E+03  0.00000000000E+00 0.  1.
          1   -1    0    0  501    0  0.00000000000E+00 -0.00000000000E+00 -0.89024428201E+02  0.89024428201E+02  0.00000000000E+00 0. -1.
         23    2    1    2    0    0 -0.15387093872E+02 -0.17250178714E+02 -0.90266084170E+01  0.94675121074E+02  0.91365023764E+02 0.  0.
         23    2    1    2    0    0  0.15387093872E+02  0.17250178714E+02  0.20952194569E+02  0.95299321481E+02  0.90047958855E+02 0.  0.
          5    1    4    4  502    0  0.32671295126E+02  0.39815015643E+02 -0.10364841688E+02  0.52746269433E+02  0.47000000000E+01 0. -1.
         -5    1    3    3    0  503 -0.43267043714E+02 -0.29493376722E+02  0.16029044231E+02  0.54962865657E+02  0.47000000000E+01 0.  1.
          5    1    3    3  503    0  0.27879949842E+02  0.12243198008E+02 -0.25055652648E+02  0.39712255417E+02  0.47000000000E+01 0. -1.
         -5    1    4    4    0  502 -0.17284201254E+02 -0.22564836930E+02  0.31317036257E+02  0.42553052048E+02  0.47000000000E+01 0.  1.
<mgrwt>
<rscale>  0 0.93923126E+02</rscale>
<asrwt>0</asrwt>
<pdfrwt beam="1">  1        1 0.13696066E-01 0.94243827E+02</pdfrwt>
<pdfrwt beam="2">  1       -1 0.15530771E-01 0.94243827E+02</pdfrwt>
<totfact> 0.11567180E+04</totfact>
</mgrwt>
</event>
<event>
 8    1  0.3400573E-004  0.9611165E+02  0.7546771E-02  0.1289599E+00
          1   -1    0    0  501    0  0.00000000000E+00  0.00000000000E+00  0.22119751582E+03  0.22119751582E+03  0.00000000000E+00 0. -1.
         -1   -1    0    0    0  501 -0.00000000000E+00 -0.00000000000E+00 -0.43106141244E+02  0.43106141244E+02  0.00000000000E+00 0.  1.
         23    2    1    2    0    0 -0.24068193710E+02  0.12759549802E+02  0.60974927665E+02  0.11382175455E+03  0.92170309461E+02 0.  0.
         23    2    1    2    0    0  0.24068193710E+02 -0.12759549802E+02  0.11711644691E+03  0.15048190251E+03  0.90479040592E+02 0.  0.
          5    1    3    3  502    0 -0.54954655563E+02 -0.10362026598E+02  0.27358495845E+02  0.62433669267E+02  0.47000000000E+01 0. -1.
         -5    1    3    3    0  502  0.30886461852E+02  0.23121576400E+02  0.33616431821E+02  0.51388085286E+02  0.47000000000E+01 0.  1.
          5    1    4    4  503    0 -0.20739120981E+02  0.17654271956E+02  0.80055378009E+02  0.84692018547E+02  0.47000000000E+01 0. -1.
         -5    1    4    4    0  503  0.44807314691E+02 -0.30413821758E+02  0.37061068899E+02  0.65789883961E+02  0.47000000000E+01 0.  1.
<mgrwt>
<rscale>  0 0.95703892E+02</rscale>
<asrwt>0</asrwt>
<pdfrwt beam="1">  1        1 0.34030386E-01 0.96111654E+02</pdfrwt>
<pdfrwt beam="2">  1       -1 0.66317142E-02 0.96111654E+02</pdfrwt>
<totfact> 0.13446665E+04</totfact>
</mgrwt>
</event>
<event>
 8    1  0.3400573E-004  0.1519911E+03  0.7546771E-02  0.1198163E+00
          1   -1    0    0  501    0  0.00000000000E+00  0.00000000000E+00  0.94874001646E+03  0.94874001646E+03  0.00000000000E+00 0. -1.
         -1   -1    0    0    0  501 -0.00000000000E+00 -0.00000000000E+00 -0.24564079896E+02  0.24564079896E+02  0.00000000000E+00 0.  1.
         23    2    1    2    0    0 -0.10400495967E+03 -0.58462075225E+02  0.51421823280E+03  0.53621049282E+03  0.94161859519E+02 0.  0.
         23    2    1    2    0    0  0.10400495967E+03  0.58462075225E+02  0.40995770376E+03  0.43709360353E+03  0.93544927718E+02 0.  0.
          5    1    3    3  502    0 -0.38920655107E+02 -0.70527536891E+02  0.34806133141E+03  0.35729222113E+03  0.47000000000E+01 0. -1.
         -5    1    3    3    0  502 -0.65084304565E+02  0.12065461665E+02  0.16615690139E+03  0.17891827169E+03  0.47000000000E+01 0.  1.
          5    1    4    4  503    0  0.58333867925E+02 -0.49848564627E+01  0.27371183058E+03  0.27994275332E+03  0.47000000000E+01 0. -1.
         -5    1    4    4    0  503  0.45671091747E+02  0.63446931688E+02  0.13624587318E+03  0.15715085021E+03  0.47000000000E+01 0.  1.
<mgrwt>
<rscale>  0 0.15189568E+03</rscale>
<asrwt>0</asrwt>
<pdfrwt beam="1">  1        1 0.14595997E+00 0.15199112E+03</pdfrwt>
<pdfrwt beam="2">  1       -1 0.37790899E-02 0.15199112E+03</pdfrwt>
<totfact> 0.45926931E+03</totfact>
</mgrwt>
</event>
<event>
 8    1  0.3400573E-004  0.1077745E+03  0.7546771E-02  0.1264801E+00
         -4   -1    0    0    0  501 -0.00000000000E+00  0.00000000000E+00  0.25793311677E+03  0.25793311677E+03  0.00000000000E+00 0.  1.
          4   -1    0    0  501    0  0.00000000000E+00 -0.00000000000E+00 -0.45663449736E+02  0.45663449736E+02  0.00000000000E+00 0. -1.
         23    2    1    2    0    0 -0.33965251383E+02  0.48202438103E+02  0.87587937038E+02  0.13879100852E+03  0.90078765477E+02 0.  0.
         23    2    1    2    0    0  0.33965251383E+02 -0.48202438103E+02  0.12468173000E+03  0.16480555799E+03  0.90212110101E+02 0.  0.
          5    1    4    4  502    0 -0.12235753041E+02 -0.57267441768E+02  0.83388056990E+02  0.10200456650E+03  0.47000000000E+01 0. -1.
         -5    1    3    3    0  503 -0.34438654496E+01  0.61864942818E+02  0.84491257209E+02  0.10488085575E+03  0.47000000000E+01 0.  1.
          5    1    3    3  503    0 -0.30521385934E+02 -0.13662504714E+02  0.30966798293E+01  0.33910152762E+02  0.47000000000E+01 0. -1.
         -5    1    4    4    0  502  0.46201004425E+02  0.90650036645E+01  0.41293673010E+02  0.62800991489E+02  0.47000000000E+01 0.  1.
<mgrwt>
<rscale>  0 0.10774657E+03</rscale>
<asrwt>0</asrwt>
<pdfrwt beam="1">  1        4 0.70251463E-02 0.10777448E+03</pdfrwt>
<pdfrwt beam="2">  1       -4 0.39682017E-01 0.10777448E+03</pdfrwt>
<totfact> 0.13243231E+03</totfact>
</mgrwt>
</event>
<event>
 8    1  0.3400573E-004  0.1113428E+03  0.7546771E-02  0.1259944E+00
         -2   -1    0    0    0  501 -0.00000000000E+00  0.00000000000E+00  0.43433172369E+03  0.43433172369E+03  0.00000000000E+00 0.  1.
          2   -1    0    0  501    0  0.00000000000E+00 -0.00000000000E+00 -0.59296850270E+02  0.59296850270E+02  0.00000000000E+00 0. -1.
         23    2    1    2    0    0  0.27251798257E+01 -0.64620450279E+02  0.53203631843E+01  0.10751197155E+03  0.85716326116E+02 0.  0.
         23    2    1    2    0    0 -0.27251798257E+01  0.64620450279E+02  0.36971451024E+03  0.38611660241E+03  0.90631023269E+02 0.  0.
          5    1    4    4  502    0 -0.27432554318E+02 -0.49421674993E+01  0.45459412598E+02  0.53531469715E+02  0.47000000000E+01 0. -1.
         -5    1    4    4    0  502  0.24707374492E+02  0.69562617779E+02  0.32425509764E+03  0.33258513270E+03  0.47000000000E+01 0.  1.
          5    1    3    3  503    0 -0.30074627314E+02 -0.32638401957E+02  0.31417858247E+02  0.54579486139E+02  0.47000000000E+01 0. -1.
         -5    1    3    3    0  503  0.32799807139E+02 -0.31982048323E+02 -0.26097495063E+02  0.52932485412E+02  0.47000000000E+01 0.  1.
<mgrwt>
<rscale>  0 0.11033863E+03</rscale>
<asrwt>0</asrwt>
<pdfrwt beam="1">  1        2 0.91225926E-02 0.11134277E+03</pdfrwt>
<pdfrwt beam="2">  1       -2 0.66820263E-01 0.11134277E+03</pdfrwt>
<totfact> 0.14561606E+03</totfact>
</mgrwt>
</event>
<event>
 8    1  0.3400573E-004  0.1196373E+03  0.7546771E-02  0.1244810E+00
         -3   -1    0    0    0  501 -0.00000000000E+00  0.00000000000E+00  0.17959708384E+03  0.17959708384E+03  0.00000000000E+00 0.  1.
          3   -1    0    0  501    0  0.00000000000E+00 -0.00000000000E+00 -0.95587032226E+02  0.95587032226E+02  0.00000000000E+00 0. -1.
         23    2    1    2    0    0 -0.42198018226E+02  0.70583208999E+02  0.10074320987E+03  0.15438226245E+03  0.83198716873E+02 0.  0.
         23    2    1    2    0    0  0.42198018226E+02 -0.70583208999E+02 -0.16733158257E+02  0.12080185362E+03  0.86893193732E+02 0.  0.
          5    1    3    3  502    0  0.12431536737E+02  0.24291766295E+02 -0.34131875512E+01  0.27899334484E+02  0.47000000000E+01 0. -1.
         -5    1    3    3    0  502 -0.54629554963E+02  0.46291442704E+02  0.10415639742E+03  0.12648292797E+03  0.47000000000E+01 0.  1.
          5    1    4    4  503    0  0.51951097441E+02 -0.73893095086E+01 -0.20605871622E+02  0.56570401851E+02  0.47000000000E+01 0. -1.
         -5    1    4    4    0  503 -0.97530792150E+01 -0.63193899490E+02  0.38727133654E+01  0.64231451764E+02  0.47000000000E+01 0.  1.
<mgrwt>
<rscale>  0 0.11896779E+03</rscale>
<asrwt>0</asrwt>
<pdfrwt beam="1">  1        3 0.14705697E-01 0.11963732E+03</pdfrwt>
<pdfrwt beam="2">  1       -3 0.27630321E-01 0.11963732E+03</pdfrwt>
<totfact> 0.10839305E+03</totfact>
</mgrwt>
</event>
<event>
 8    1  0.3400573E-004  0.1003597E+03  0.7546771E-02  0.1281216E+00
         -2   -1    0    0    0  501 -0.00000000000E+00  0.00000000000E+00  0.14153435461E+02  0.14153435461E+02  0.00000000000E+00 0.  1.
          2   -1    0    0  501    0  0.00000000000E+00 -0.00000000000E+00 -0.71112643766E+03  0.71112643766E+03  0.00000000000E+00 0. -1.
         23    2    1    2    0    0  0.23753054490E+02  0.19717719136E+02 -0.40634183278E+03  0.41780867068E+03  0.92181365709E+02 0.  0.
         23    2    1    2    0    0 -0.23753054490E+02 -0.19717719136E+02 -0.29063116942E+03  0.30747120245E+03  0.95493809469E+02 0.  0.
          5    1    4    4  502    0 -0.22109571177E+02  0.34090716634E+02 -0.77923646986E+02  0.88006788703E+02  0.47000000000E+01 0. -1.
         -5    1    4    4    0  502 -0.16434833130E+01 -0.53808435770E+02 -0.21270752244E+03  0.21946441374E+03  0.47000000000E+01 0.  1.
          5    1    3    3  503    0  0.44411619472E+02  0.44211627324E+02 -0.30541434793E+03  0.31181256206E+03  0.47000000000E+01 0. -1.
         -5    1    3    3    0  503 -0.20658564982E+02 -0.24493908188E+02 -0.10092748484E+03  0.10599610862E+03  0.47000000000E+01 0.  1.
<mgrwt>
<rscale>  0 0.99563625E+02</rscale>
<asrwt>0</asrwt>
<pdfrwt beam="1">  1        2 0.10940402E+00 0.10035967E+03</pdfrwt>
<pdfrwt beam="2">  1       -2 0.21774525E-02 0.10035967E+03</pdfrwt>
<totfact> 0.25706776E+04</totfact>
</mgrwt>
</event>
<event>
 8    1  0.3400573E-004  0.1017303E+03  0.7546771E-02  0.1277440E+00
          1   -1    0    0  501    0  0.00000000000E+00  0.00000000000E+00  0.30572688240E+03  0.30572688240E+03  0.00000000000E+00 0. -1.
         -1   -1    0    0    0  501 -0.00000000000E+00 -0.00000000000E+00 -0.33928843154E+02  0.33928843154E+02  0.00000000000E+00 0.  1.
         23    2    1    2    0    0  0.73385570121E+01  0.43592489612E+02  0.11516798296E+03  0.15366431086E+03  0.91623668138E+02 0.  0.
         23    2    1    2    0    0 -0.73385570121E+01 -0.43592489612E+02  0.15663005629E+03  0.18599141470E+03  0.90031506921E+02 0.  0.
          5    1    3    3  502    0  0.33416428631E+02  0.59808785211E+02  0.64395086238E+02  0.94141200451E+02  0.47000000000E+01 0. -1.
         -5    1    4    4    0  503 -0.39545826580E+02 -0.50225682602E+02  0.80292018216E+02  0.10273942662E+03  0.47000000000E+01 0.  1.
          5    1    4    4  503    0  0.32207269568E+02  0.66331929895E+01  0.76338038072E+02  0.83251988078E+02  0.47000000000E+01 0. -1.
         -5    1    3    3    0  502 -0.26077871619E+02 -0.16216295599E+02  0.50772896718E+02  0.59523110405E+02  0.47000000000E+01 0.  1.
<mgrwt>
<rscale>  0 0.10137051E+03</rscale>
<asrwt>0</asrwt>
<pdfrwt beam="1">  1        1 0.47034903E-01 0.10173031E+03</pdfrwt>
<pdfrwt beam="2">  1       -1 0.52198222E-02 0.10173031E+03</pdfrwt>
<totfact> 0.12951235E+04</totfact>
</mgrwt>
</event>
<event>
 8    1  0.3400573E-004  0.1204769E+03  0.7546771E-02  0.1255943E+00
          3   -1    0    0  501    0  0.00000000000E+00  0.00000000000E+00  0.72368710092E+03  0.72368710092E+03  0.00000000000E+00 0. -1.
         -3   -1    0    0    0  501 -0.00000000000E+00 -0.00000000000E+00 -0.60584428562E+02  0.60584428562E+02  0.00000000000E+00 0.  1.
         23    2    1    2    0    0 -0.86218086457E+01  0.61004228771E+00  0.58170398824E+01  0.12061729588E+03  0.12016649440E+03 0.  0.
         23    2    1    2    0    0  0.86218086457E+01 -0.61004228771E+00  0.65728563248E+03  0.66365423360E+03  0.91311726426E+02 0.  0.
          5    1    4    4  502    0  0.18554543238E+02  0.42312932980E+02  0.28804146357E+03  0.29176125533E+03  0.47000000000E+01 0. -1.
         -5    1    3    3    0  503  0.51869610823E+00 -0.58559127227E+02 -0.71346058213E+01  0.59181357094E+02  0.47000000000E+01 0.  1.
          5    1    3    3  503    0 -0.91405047539E+01  0.59169169515E+02  0.12951645704E+02  0.61435938787E+02  0.47000000000E+01 0. -1.
         -5    1    4    4    0  502 -0.99327345920E+01 -0.42922975268E+02  0.36924416891E+03  0.37189297828E+03  0.47000000000E+01 0.  1.
<mgrwt>
<rscale>  0 0.11253661E+03</rscale>
<asrwt>0</asrwt>
<pdfrwt beam="1">  1        3 0.11133647E+00 0.12047694E+03</pdfrwt>
<pdfrwt beam="2">  1       -3 0.93206819E-02 0.12047694E+03</pdfrwt>
<totfact> 0.13563413E+02</totfact>
</mgrwt>
</event>
<event>
 8    1  0.3400573E-004  0.1220868E+03  0.7546771E-02  0.1243060E+00
          1   -1    0    0  501    0  0.00000000000E+00  0.00000000000E+00  0.12662034337E+03  0.12662034337E+03  0.00000000000E+00 0. -1.
         -1   -1    0    0    0  501 -0.00000000000E+00 -0.00000000000E+00 -0.11996726035E+03  0.11996726035E+03  0.00000000000E+00 0.  1.
         23    2    1    2    0    0  0.68460016441E+02  0.25789256083E+02  0.38803221484E+02  0.12810497747E+03  0.97741166732E+02 0.  0.
         23    2    1    2    0    0 -0.68460016441E+02 -0.25789256083E+02 -0.32150138459E+02  0.11848262626E+03  0.87479378948E+02 0.  0.
          5    1    3    3  502    0  0.22986310189E+02 -0.34757925212E+01  0.64005715229E+02  0.68258868814E+02  0.47000000000E+01 0. -1.
         -5    1    3    3    0  502  0.45473706252E+02  0.29265048604E+02 -0.25202493745E+02  0.59846108654E+02  0.47000000000E+01 0.  1.
          5    1    4    4  503    0  0.15526934555E+02 -0.19964114495E+02 -0.21435742165E+02  0.33484811578E+02  0.47000000000E+01 0. -1.
         -5    1    4    4    0  503 -0.83986950996E+02 -0.58251415877E+01 -0.10714396294E+02  0.84997814678E+02  0.47000000000E+01 0.  1.
<mgrwt>
<rscale>  0 0.12002269E+03</rscale>
<asrwt>0</asrwt>
<pdfrwt beam="1">  1        1 0.19480053E-01 0.12208683E+03</pdfrwt>
<pdfrwt beam="2">  1       -1 0.18456502E-01 0.12208683E+03</pdfrwt>
<totfact> 0.57422848E+03</totfact>
</mgrwt>
</event>
<event>
 8    1  0.3400573E-004  0.9387948E+02  0.7546771E-02  0.1297319E+00
         -2   -1    0    0    0  501 -0.00000000000E+00  0.00000000000E+00  0.12745791158E+02  0.12745791158E+02  0.00000000000E+00 0.  1.
          2   -1    0    0  501    0  0.00000000000E+00 -0.00000000000E+00 -0.81077648563E+03  0.81077648563E+03  0.00000000000E+00 0. -1.
         23    2    1    2    0    0 -0.97795426691E+01  0.16761512121E+02 -0.57307188411E+03  0.57976046060E+03  0.85640058257E+02 0.  0.
         23    2    1    2    0    0  0.97795426691E+01 -0.16761512121E+02 -0.22495881036E+03  0.24376181618E+03  0.91851885810E+02 0.  0.
          5    1    4    4  502    0 -0.19229276956E+02  0.30789257494E+02 -0.69346502215E+02  0.78414098469E+02  0.47000000000E+01 0. -1.
         -5    1    4    4    0  502  0.29008819625E+02 -0.47550769615E+02 -0.15561230815E+03  0.16534771771E+03  0.47000000000E+01 0.  1.
          5    1    3    3  503    0 -0.33083330035E+02  0.35448038530E+02 -0.46478404994E+03  0.46733004744E+03  0.47000000000E+01 0. -1.
         -5    1    3    3    0  503  0.23303787365E+02 -0.18686526409E+02 -0.10828783417E+03  0.11243041316E+03  0.47000000000E+01 0.  1.
<mgrwt>
<rscale>  0 0.92324186E+02</rscale>
<asrwt>0</asrwt>
<pdfrwt beam="1">  1        2 0.12473489E+00 0.93879479E+02</pdfrwt>
<pdfrwt beam="2">  1       -2 0.19608903E-02 0.93879479E+02</pdfrwt>
<totfact> 0.25368993E+04</totfact>
</mgrwt>
</event>
<event>
 8    1  0.3400573E-004  0.1027747E+03  0.7546771E-02  0.1284032E+00
          2   -1    0    0  501    0  0.00000000000E+00  0.00000000000E+00  0.63955905005E+03  0.63955905005E+03  0.00000000000E+00 0. -1.
         -2   -1    0    0    0  501 -0.00000000000E+00 -0.00000000000E+00 -0.16151848061E+02  0.16151848061E+02  0.00000000000E+00 0.  1.
         23    2    1    2    0    0 -0.16657398530E+02 -0.31490851838E+02  0.45774316254E+03  0.46913904644E+03  0.96402797508E+02 0.  0.
         23    2    1    2    0    0  0.16657398530E+02  0.31490851838E+02  0.16566403945E+03  0.18657185167E+03  0.78072653306E+02 0.  0.
          5    1    3    3  502    0 -0.38134784423E+02 -0.55838620751E+02  0.25982973086E+03  0.26852521742E+03  0.47000000000E+01 0. -1.
         -5    1    4    4    0  503 -0.21867274415E+02  0.39958404558E+02  0.80884102778E+02  0.92947188593E+02  0.47000000000E+01 0.  1.
          5    1    4    4  503    0  0.38524672945E+02 -0.84675527199E+01  0.84779936670E+02  0.93624663078E+02  0.47000000000E+01 0. -1.
         -5    1    3    3    0  502  0.21477385893E+02  0.24347768913E+02  0.19791343167E+03  0.20061382901E+03  0.47000000000E+01 0.  1.
<mgrwt>
<rscale>  0 0.98244328E+02</rscale>
<asrwt>0</asrwt>
<pdfrwt beam="1">  1        2 0.98393680E-01 0.10277471E+03</pdfrwt>
<pdfrwt beam="2">  1       -2 0.24849002E-02 0.10277471E+03</pdfrwt>
<totfact> 0.24070328E+04</totfact>
</mgrwt>
</event>
<event>
 8    1  0.3400573E-004  0.1273003E+03  0.7546771E-02  0.1235340E+00
          2   -1    0    0  501    0  0.00000000000E+00  0.00000000000E+00  0.37516095132E+03  0.37516095132E+03  0.00000000000E+00 0. -1.
         -2   -1    0    0    0  501 -0.00000000000E+00 -0.00000000000E+00 -0.48627912228E+02  0.48627912228E+02  0.00000000000E+00 0.  1.
         23    2    1    2    0    0 -0.86099472804E+02  0.16201641397E+02  0.79318175740E+02  0.14998912595E+03  0.92356659199E+02 0.  0.
         23    2    1    2    0    0  0.86099472804E+02 -0.16201641397E+02  0.24721486335E+03  0.27379973760E+03  0.78584319348E+02 0.  0.
          5    1    4    4  502    0  0.88929496022E+02  0.60168107969E+01  0.22433156366E+03  0.24143611521E+03  0.47000000000E+01 0. -1.
         -5    1    3    3    0  503 -0.90961723582E+02 -0.14435684705E+02  0.42284812386E+02  0.10145205522E+03  0.47000000000E+01 0.  1.
          5    1    3    3  503    0  0.48622507786E+01  0.30637326102E+02  0.37033363354E+02  0.48537070726E+02  0.47000000000E+01 0. -1.
         -5    1    4    4    0  502 -0.28300232185E+01 -0.22218452194E+02  0.22883299692E+02  0.32363622388E+02  0.47000000000E+01 0.  1.
<mgrwt>
<rscale>  0 0.12482674E+03</rscale>
<asrwt>0</asrwt>
<pdfrwt beam="1">  1        2 0.57717068E-01 0.12730029E+03</pdfrwt>
<pdfrwt beam="2">  1       -2 0.74812175E-02 0.12730029E+03</pdfrwt>
<totfact> 0.85204427E+03</totfact>
</mgrwt>
</event>
<event>
 8    1  0.3400573E-004  0.1196149E+03  0.7546771E-02  0.1244011E+00
          1   -1    0    0  501    0  0.00000000000E+00  0.00000000000E+00  0.11399630416E+03  0.11399630416E+03  0.00000000000E+00 0. -1.
         -1   -1    0    0    0  501 -0.00000000000E+00 -0.00000000000E+00 -0.12483347663E+03  0.12483347663E+03  0.00000000000E+00 0.  1.
         23    2    1    2    0    0 -0.76846583770E+02  0.97363442689E+00 -0.37760252032E+01  0.11900667445E+03  0.90785377657E+02 0.  0.
         23    2    1    2    0    0  0.76846583770E+02 -0.97363442689E+00 -0.70611472617E+01  0.11982310634E+03  0.91658996340E+02 0.  0.
          5    1    4    4  502    0 -0.11955406644E+01 -0.22521435732E+02  0.23732431517E+02  0.33075106812E+02  0.47000000000E+01 0. -1.
         -5    1    4    4    0  502  0.78042124434E+02  0.21547801305E+02 -0.30793578779E+02  0.86747999523E+02  0.47000000000E+01 0.  1.
          5    1    3    3  503    0 -0.78733457497E+02 -0.28418733646E+02  0.12918631788E+02  0.84826663254E+02  0.47000000000E+01 0. -1.
         -5    1    3    3    0  503  0.18868737271E+01  0.29392368073E+02 -0.16694656992E+02  0.34180011197E+02  0.47000000000E+01 0.  1.
<mgrwt>
<rscale>  0 0.11944749E+03</rscale>
<asrwt>0</asrwt>
<pdfrwt beam="1">  1        1 0.17537893E-01 0.11961487E+03</pdfrwt>
<pdfrwt beam="2">  1       -1 0.19205150E-01 0.11961487E+03</pdfrwt>
<totfact> 0.61523375E+03</totfact>
</mgrwt>
</event>
<event>
 8    1  0.3400573E-004  0.1109356E+03  0.7546771E-02  0.1259356E+00
          2   -1    0    0  501    0  0.00000000000E+00  0.00000000000E+00  0.82853784545E+02  0.82853784545E+02  0.00000000000E+00 0. -1.
         -2   -1    0    0    0  501 -0.00000000000E+00 -0.00000000000E+00 -0.14746765087E+03  0.14746765087E+03  0.00000000000E+00 0.  1.
         23    2    1    2    0    0 -0.47329352892E+02 -0.41842333289E+02 -0.26089249215E+02  0.11288696168E+03  0.89844135545E+02 0.  0.
         23    2    1    2    0    0  0.47329352892E+02  0.41842333289E+02 -0.38524617107E+02  0.11743447374E+03  0.91191342780E+02 0.  0.
          5    1    3    3  502    0 -0.34388551301E+02 -0.24515220368E+02  0.30379870010E+02  0.52235954975E+02  0.47000000000E+01 0. -1.
         -5    1    3    3    0  502 -0.12940801591E+02 -0.17327112920E+02 -0.56469119225E+02  0.60651006702E+02  0.47000000000E+01 0.  1.
          5    1    4    4  503    0 -0.17317643233E+02  0.41414727839E+02 -0.23544667648E+02  0.50906991894E+02  0.47000000000E+01 0. -1.
         -5    1    4    4    0  503  0.64646996124E+02  0.42760544993E+00 -0.14979949459E+02  0.66527481841E+02  0.47000000000E+01 0.  1.
<mgrwt>
<rscale>  0 0.11065838E+03</rscale>
<asrwt>0</asrwt>
<pdfrwt beam="1">  1        2 0.12746736E-01 0.11093561E+03</pdfrwt>
<pdfrwt beam="2">  1       -2 0.22687331E-01 0.11093561E+03</pdfrwt>
<totfact> 0.74413204E+03</totfact>
</mgrwt>
</event>
<event>
 8    1  0.3400573E-004  0.1074795E+03  0.7546771E-02  0.1265943E+00
         -1   -1    0    0    0  501 -0.00000000000E+00  0.00000000000E+00  0.43014972570E+02  0.43014972570E+02  0.00000000000E+00 0.  1.
          1   -1    0    0  501    0  0.00000000000E+00 -0.00000000000E+00 -0.29862829827E+03  0.29862829827E+03  0.00000000000E+00 0. -1.
         23    2    1    2    0    0  0.49713697848E+02 -0.23718599365E+02 -0.71419192095E+02  0.12904473129E+03  0.92292025466E+02 0.  0.
         23    2    1    2    0    0 -0.49713697848E+02  0.23718599365E+02 -0.18419413361E+03  0.21259853955E+03  0.90755916916E+02 0.  0.
          5    1    4    4  502    0 -0.67821142242E+02 -0.72401034738E+01 -0.13724541488E+03  0.15333140689E+03  0.47000000000E+01 0. -1.
         -5    1    3    3    0  503  0.69631825651E+01  0.24908777776E+02  0.70371303077E+01  0.27212944065E+02  0.47000000000E+01 0.  1.
          5    1    3    3  503    0  0.42750515283E+02 -0.48627377141E+02 -0.78456322403E+02  0.10183178723E+03  0.47000000000E+01 0. -1.
         -5    1    4    4    0  502  0.18107444394E+02  0.30958702839E+02 -0.46948718724E+02  0.59267132660E+02  0.47000000000E+01 0.  1.
<mgrwt>
<rscale>  0 0.10714894E+03</rscale>
<asrwt>0</asrwt>
<pdfrwt beam="1">  1        1 0.45942816E-01 0.10747949E+03</pdfrwt>
<pdfrwt beam="2">  1       -1 0.66176880E-02 0.10747949E+03</pdfrwt>
<totfact> 0.94313962E+03</totfact>
</mgrwt>
</event>
<event>
 8    1  0.3400573E-004  0.9377630E+02  0.7546771E-02  0.1299617E+00
         -1   -1    0    0    0  501 -0.00000000000E+00  0.00000000000E+00  0.11818707537E+02  0.11818707537E+02  0.00000000000E+00 0.  1.
          1   -1    0    0  501    0  0.00000000000E+00 -0.00000000000E+00 -0.79296596966E+03  0.79296596966E+03  0.00000000000E+00 0. -1.
         23    2    1    2    0    0 -0.77428049479E+01 -0.13351375468E+02 -0.56500771127E+03  0.57273703267E+03  0.92497484001E+02 0.  0.
         23    2    1    2    0    0  0.77428049479E+01  0.13351375468E+02 -0.21613955085E+03  0.23204764452E+03  0.83015622809E+02 0.  0.
          5    1    4    4  502    0 -0.20915882436E+02  0.22886840107E+02 -0.18768417555E+03  0.19028589370E+03  0.47000000000E+01 0. -1.
         -5    1    4    4    0  502  0.28658687384E+02 -0.95354646388E+01 -0.28455375305E+02  0.41761750827E+02  0.47000000000E+01 0.  1.
          5    1    3    3  503    0 -0.42123508706E+02  0.18889058010E+02 -0.27621348963E+03  0.28008421653E+03  0.47000000000E+01 0. -1.
         -5    1    3    3    0  503  0.34380703759E+02 -0.32240433478E+02 -0.28879422164E+03  0.29265281614E+03  0.47000000000E+01 0.  1.
<mgrwt>
<rscale>  0 0.91349153E+02</rscale>
<asrwt>0</asrwt>
<pdfrwt beam="1">  1        1 0.12199474E+00 0.93776302E+02</pdfrwt>
<pdfrwt beam="2">  1       -1 0.18182630E-02 0.93776302E+02</pdfrwt>
<totfact> 0.16990636E+04</totfact>
</mgrwt>
</event>
<event>
 8    1  0.3400573E-004  0.1758331E+03  0.7546771E-02  0.1171973E+00
         -2   -1    0    0    0  501 -0.00000000000E+00  0.00000000000E+00  0.11731527395E+04  0.11731527395E+04  0.00000000000E+00 0.  1.
          2   -1    0    0  501    0  0.00000000000E+00 -0.00000000000E+00 -0.27536507508E+02  0.27536507508E+02  0.00000000000E+00 0. -1.
         23    2    1    2    0    0  0.14007886026E+03  0.54559256944E+02  0.70003801326E+03  0.72178286140E+03  0.91205698201E+02 0.  0.
         23    2    1    2    0    0 -0.14007886026E+03 -0.54559256944E+02  0.44557821874E+03  0.47890638562E+03  0.90623272757E+02 0.  0.
          5    1    3    3  502    0  0.10268827017E+03  0.79813228875E+02  0.53771908193E+03  0.55324400892E+03  0.47000000000E+01 0. -1.
         -5    1    4    4    0  503 -0.12400630925E+03 -0.70803599098E+02  0.31005460202E+03  0.34138930945E+03  0.47000000000E+01 0.  1.
          5    1    4    4  503    0 -0.16072551010E+02  0.16244342154E+02  0.13552361672E+03  0.13751707617E+03  0.47000000000E+01 0. -1.
         -5    1    3    3    0  502  0.37390590087E+02 -0.25253971931E+02  0.16231893133E+03  0.16853885248E+03  0.47000000000E+01 0.  1.
<mgrwt>
<rscale>  0 0.17575770E+03</rscale>
<asrwt>0</asrwt>
<pdfrwt beam="1">  1        2 0.42363867E-02 0.17583310E+03</pdfrwt>
<pdfrwt beam="2">  1       -2 0.18048500E+00 0.17583310E+03</pdfrwt>
<totfact> 0.37535961E+02</totfact>
</mgrwt>
</event>
<event>
 8    1  0.3400573E-004  0.9850208E+02  0.7546771E-02  0.1286045E+00
         -1   -1    0    0    0  501 -0.00000000000E+00  0.00000000000E+00  0.74237710665E+01  0.74237710665E+01  0.00000000000E+00 0.  1.
          1   -1    0    0  501    0  0.00000000000E+00 -0.00000000000E+00 -0.12460821706E+04  0.12460821706E+04  0.00000000000E+00 0. -1.
         23    2    1    2    0    0  0.14180860135E+02 -0.25262668548E+02 -0.62579185413E+03  0.63349672824E+03  0.94145423563E+02 0.  0.
         23    2    1    2    0    0 -0.14180860135E+02  0.25262668548E+02 -0.61286654541E+03  0.62000921343E+03  0.89256501409E+02 0.  0.
          5    1    3    3  502    0  0.53426024241E+02 -0.60285393066E+01 -0.31052264119E+03  0.31517786097E+03  0.47000000000E+01 0. -1.
         -5    1    4    4    0  503 -0.28199141356E+02  0.53696185955E+02 -0.44156917530E+03  0.44573972062E+03  0.47000000000E+01 0.  1.
          5    1    4    4  503    0  0.14018281221E+02 -0.28433517407E+02 -0.17129737011E+03  0.17426949281E+03  0.47000000000E+01 0. -1.
         -5    1    3    3    0  502 -0.39245164106E+02 -0.19234129241E+02 -0.31526921294E+03  0.31831886727E+03  0.47000000000E+01 0.  1.
<mgrwt>
<rscale>  0 0.97315390E+02</rscale>
<asrwt>0</asrwt>
<pdfrwt beam="1">  1        1 0.19170473E+00 0.98502081E+02</pdfrwt>
<pdfrwt beam="2">  1       -1 0.11421199E-02 0.98502081E+02</pdfrwt>
<totfact> 0.15526273E+04</totfact>
</mgrwt>
</event>
<event>
 8    1  0.3400573E-004  0.9464510E+02  0.7546771E-02  0.1293939E+00
          1   -1    0    0  501    0  0.00000000000E+00  0.00000000000E+00  0.27343672883E+03  0.27343672883E+03  0.00000000000E+00 0. -1.
         -1   -1    0    0    0  501 -0.00000000000E+00 -0.00000000000E+00 -0.22120773458E+03  0.22120773458E+03  0.00000000000E+00 0.  1.
         23    2    1    2    0    0 -0.17194585850E+02  0.19155056579E+02 -0.20292841985E+03  0.22249927834E+03  0.87540935010E+02 0.  0.
         23    2    1    2    0    0  0.17194585850E+02 -0.19155056579E+02  0.25515741410E+03  0.27214518508E+03  0.91077581309E+02 0.  0.
          5    1    4    4  502    0  0.13834153536E+01 -0.44247573236E+02  0.22581264591E+03  0.23015908113E+03  0.47000000000E+01 0. -1.
         -5    1    4    4    0  502  0.15811170496E+02  0.25092516657E+02  0.29344768196E+02  0.41986103952E+02  0.47000000000E+01 0.  1.
          5    1    3    3  503    0  0.20002222972E+02  0.99118933741E+01 -0.86137321727E+01  0.24384850544E+02  0.47000000000E+01 0. -1.
         -5    1    3    3    0  503 -0.37196808822E+02  0.92431632052E+01 -0.19431468768E+03  0.19811442779E+03  0.47000000000E+01 0.  1.
<mgrwt>
<rscale>  0 0.93783853E+02</rscale>
<asrwt>0</asrwt>
<pdfrwt beam="1">  1        1 0.42067189E-01 0.94645104E+02</pdfrwt>
<pdfrwt beam="2">  1       -1 0.34031959E-01 0.94645104E+02</pdfrwt>
<totfact> 0.80337541E+02</totfact>
</mgrwt>
</event>
<event>
 8    1  0.3400573E-004  0.1217242E+03  0.7546771E-02  0.1248375E+00
          2   -1    0    0  501    0  0.00000000000E+00  0.00000000000E+00  0.46288615714E+03  0.46288615714E+03  0.00000000000E+00 0. -1.
         -2   -1    0    0    0  501 -0.00000000000E+00 -0.00000000000E+00 -0.33539841353E+02  0.33539841353E+02  0.00000000000E+00 0.  1.
         23    2    1    2    0    0  0.78580475292E+02 -0.16917367899E+02  0.12276757834E+03  0.17288336930E+03  0.91409477938E+02 0.  0.
         23    2    1    2    0    0 -0.78580475292E+02  0.16917367899E+02  0.30657873745E+03  0.32354262919E+03  0.65024781528E+02 0.  0.
          5    1    3    3  502    0  0.50512230857E+02  0.30856670579E+02  0.91527358835E+02  0.10910071952E+03  0.47000000000E+01 0. -1.
         -5    1    3    3    0  502  0.28068244435E+02 -0.47774038478E+02  0.31240219500E+02  0.63782649777E+02  0.47000000000E+01 0.  1.
          5    1    4    4  503    0 -0.36315220574E+02  0.37620872529E+02  0.20294975240E+03  0.20963019175E+03  0.47000000000E+01 0.  1.
         -5    1    4    4    0  503 -0.42265254718E+02 -0.20703504630E+02  0.10362898505E+03  0.11391243744E+03  0.47000000000E+01 0. -1.
<mgrwt>
<rscale>  0 0.11685611E+03</rscale>
<asrwt>0</asrwt>
<pdfrwt beam="1">  1        2 0.71213250E-01 0.12172420E+03</pdfrwt>
<pdfrwt beam="2">  1       -2 0.51599759E-02 0.12172420E+03</pdfrwt>
<totfact> 0.11912598E+04</totfact>
</mgrwt>
</event>
<event>
 8    1  0.3400573E-004  0.9196901E+02  0.7546771E-02  0.1298249E+00
          2   -1    0    0  501    0  0.00000000000E+00  0.00000000000E+00  0.94927700509E+03  0.94927700509E+03  0.00000000000E+00 0. -1.
         -2   -1    0    0    0  501 -0.00000000000E+00 -0.00000000000E+00 -0.96452107001E+01  0.96452107001E+01  0.00000000000E+00 0.  1.
         23    2    1    2    0    0 -0.74707016611E+01  0.21424190563E+01  0.33642262228E+03  0.34876708378E+03  0.91640038220E+02 0.  0.
         23    2    1    2    0    0  0.74707016611E+01 -0.21424190563E+01  0.60320917211E+03  0.61015513201E+03  0.91474468876E+02 0.  0.
          5    1    3    3  502    0 -0.76086250672E+01 -0.31237303171E+02  0.28764783909E+03  0.28947716597E+03  0.47000000000E+01 0. -1.
         -5    1    4    4    0  503 -0.14971148081E+02 -0.41130889724E+02  0.22633580507E+03  0.23057725825E+03  0.47000000000E+01 0. -1.
          5    1    4    4  503    0  0.22441849742E+02  0.38988470668E+02  0.37687336704E+03  0.37957787376E+03  0.47000000000E+01 0.  1.
         -5    1    3    3    0  502  0.13792340616E+00  0.33379722227E+02  0.48774783186E+02  0.59289917807E+02  0.47000000000E+01 0.  1.
<mgrwt>
<rscale>  0 0.91927734E+02</rscale>
<asrwt>0</asrwt>
<pdfrwt beam="1">  1        2 0.14604254E+00 0.91969005E+02</pdfrwt>
<pdfrwt beam="2">  1       -2 0.14838793E-02 0.91969005E+02</pdfrwt>
<totfact> 0.30882349E+04</totfact>
</mgrwt>
</event>
<event>
 8    1  0.3400573E-004  0.3305503E+03  0.7546771E-02  0.1070964E+00
         -2   -1    0    0    0  501 -0.00000000000E+00  0.00000000000E+00  0.18157571751E+03  0.18157571751E+03  0.00000000000E+00 0.  1.
          2   -1    0    0  501    0  0.00000000000E+00 -0.00000000000E+00 -0.92283116051E+03  0.92283116051E+03  0.00000000000E+00 0. -1.
         23    2    1    2    0    0  0.26484143005E+03 -0.17708841642E+03 -0.44551250791E+02  0.33353906730E+03  0.88103377729E+02 0.  0.
         23    2    1    2    0    0 -0.26484143005E+03  0.17708841642E+03 -0.69670419221E+03  0.77086781072E+03  0.85668896677E+02 0.  0.
          5    1    4    4  502    0 -0.21617866860E+03  0.99097408101E+02 -0.50438430095E+03  0.55765502427E+03  0.47000000000E+01 0. -1.
         -5    1    4    4    0  502 -0.48662761451E+02  0.77991008317E+02 -0.19231989126E+03  0.21321278645E+03  0.47000000000E+01 0.  1.
          5    1    3    3  503    0  0.67571773687E+02 -0.58651058538E+02 -0.51401739093E+02  0.10329627316E+03  0.47000000000E+01 0. -1.
         -5    1    3    3    0  503  0.19726965636E+03 -0.11843735788E+03  0.68504883022E+01  0.23024279414E+03  0.47000000000E+01 0.  1.
<mgrwt>
<rscale>  0 0.33039004E+03</rscale>
<asrwt>0</asrwt>
<pdfrwt beam="1">  1        2 0.14197402E+00 0.33055029E+03</pdfrwt>
<pdfrwt beam="2">  1       -2 0.27934726E-01 0.33055029E+03</pdfrwt>
<totfact> 0.34245636E+02</totfact>
</mgrwt>
</event>
<event>
 8    1  0.3400573E-004  0.1899485E+03  0.7546771E-02  0.1159301E+00
          3   -1    0    0  501    0  0.00000000000E+00  0.00000000000E+00  0.51766226574E+03  0.51766226574E+03  0.00000000000E+00 0. -1.
         -3   -1    0    0    0  501 -0.00000000000E+00 -0.00000000000E+00 -0.75294420740E+02  0.75294420740E+02  0.00000000000E+00 0.  1.
         23    2    1    2    0    0  0.15656732688E+03  0.40278156056E+02  0.30886249920E+03  0.36078412521E+03  0.92916542624E+02 0.  0.
         23    2    1    2    0    0 -0.15656732688E+03 -0.40278156056E+02  0.13350534580E+03  0.23217256127E+03  0.99723433295E+02 0.  0.
          5    1    4    4  502    0 -0.14532598617E+03 -0.66770110905E+02  0.10488018934E+03  0.19131083107E+03  0.47000000000E+01 0.  1.
         -5    1    4    4    0  502 -0.11241340702E+02  0.26491954850E+02  0.28625156465E+02  0.40861730203E+02  0.47000000000E+01 0. -1.
          5    1    3    3  503    0  0.14428848715E+03  0.63638145240E+02  0.28003301528E+03  0.32141804663E+03  0.47000000000E+01 0. -1.
         -5    1    3    3    0  503  0.12278839728E+02 -0.23359989185E+02  0.28829483915E+02  0.39366078577E+02  0.47000000000E+01 0.  1.
<mgrwt>
<rscale>  0 0.18907151E+03</rscale>
<asrwt>0</asrwt>
<pdfrwt beam="1">  1        3 0.79640347E-01 0.18994847E+03</pdfrwt>
<pdfrwt beam="2">  1       -3 0.11583757E-01 0.18994847E+03</pdfrwt>
<totfact> 0.21118588E+02</totfact>
</mgrwt>
</event>
<event>
 8    1  0.3400573E-004  0.1106616E+03  0.7546771E-02  0.1261873E+00
          2   -1    0    0  501    0  0.00000000000E+00  0.00000000000E+00  0.64618167312E+02  0.64618167312E+02  0.00000000000E+00 0. -1.
         -2   -1    0    0    0  501 -0.00000000000E+00 -0.00000000000E+00 -0.18911255598E+03  0.18911255598E+03  0.00000000000E+00 0.  1.
         23    2    1    2    0    0  0.47951907115E+02 -0.16086968675E+02 -0.36593679449E+02  0.11655506195E+03  0.98426668817E+02 0.  0.
         23    2    1    2    0    0 -0.47951907115E+02  0.16086968675E+02 -0.87900709218E+02  0.13717566134E+03  0.92371269479E+02 0.  0.
          5    1    4    4  502    0 -0.30404178967E+02  0.52258656594E+02 -0.70836662919E+02  0.93248614473E+02  0.47000000000E+01 0. -1.
         -5    1    4    4    0  502 -0.17547728149E+02 -0.36171687920E+02 -0.17064046299E+02  0.43927046864E+02  0.47000000000E+01 0.  1.
          5    1    3    3  503    0 -0.23525292181E+02  0.18351535909E+02 -0.33028914638E+01  0.30384491677E+02  0.47000000000E+01 0. -1.
         -5    1    3    3    0  503  0.71477199296E+02 -0.34438504584E+02 -0.33290787985E+02  0.86170570277E+02  0.47000000000E+01 0.  1.
<mgrwt>
<rscale>  0 0.10929924E+03</rscale>
<asrwt>0</asrwt>
<pdfrwt beam="1">  1        2 0.99412564E-02 0.11066158E+03</pdfrwt>
<pdfrwt beam="2">  1       -2 0.29094240E-01 0.11066158E+03</pdfrwt>
<totfact> 0.64992590E+03</totfact>
</mgrwt>
</event>
<event>
 8    1  0.3400573E-004  0.1021516E+03  0.7546771E-02  0.1276624E+00
          1   -1    0    0  501    0  0.00000000000E+00  0.00000000000E+00  0.34209152480E+03  0.34209152480E+03  0.00000000000E+00 0. -1.
         -1   -1    0    0    0  501 -0.00000000000E+00 -0.00000000000E+00 -0.33828976270E+02  0.33828976270E+02  0.00000000000E+00 0.  1.
         23    2    1    2    0    0  0.21415259177E+02 -0.36927843140E+02  0.92328801252E+02  0.13769369083E+03  0.92804450486E+02 0.  0.
         23    2    1    2    0    0 -0.21415259177E+02  0.36927843140E+02  0.21593374728E+03  0.23822681024E+03  0.91117237546E+02 0.  0.
          5    1    3    3  502    0 -0.34629662231E+02 -0.23350288769E+02  0.53410616585E+02  0.67964942844E+02  0.47000000000E+01 0. -1.
         -5    1    4    4    0  503  0.28279113397E+02  0.10513874492E+02  0.26094113141E+02  0.40165190800E+02  0.47000000000E+01 0.  1.
          5    1    4    4  503    0 -0.49694372574E+02  0.26413968647E+02  0.18983963414E+03  0.19806161944E+03  0.47000000000E+01 0. -1.
         -5    1    3    3    0  502  0.56044921408E+02 -0.13577554370E+02  0.38918184667E+02  0.69728747989E+02  0.47000000000E+01 0.  1.
<mgrwt>
<rscale>  0 0.10176682E+03</rscale>
<asrwt>0</asrwt>
<pdfrwt beam="1">  1        1 0.52629463E-01 0.10215158E+03</pdfrwt>
<pdfrwt beam="2">  1       -1 0.52044581E-02 0.10215158E+03</pdfrwt>
<totfact> 0.11332609E+04</totfact>
</mgrwt>
</event>
<event>
 8    1  0.3400573E-004  0.9855181E+02  0.7546771E-02  0.1284031E+00
         -1   -1    0    0    0  501 -0.00000000000E+00  0.00000000000E+00  0.49083007051E+03  0.49083007051E+03  0.00000000000E+00 0.  1.
          1   -1    0    0  501    0  0.00000000000E+00 -0.00000000000E+00 -0.21030480094E+02  0.21030480094E+02  0.00000000000E+00 0. -1.
         23    2    1    2    0    0  0.20732226993E+02  0.34835557492E+02  0.30432768895E+03  0.31988717005E+03  0.89828269489E+02 0.  0.
         23    2    1    2    0    0 -0.20732226993E+02 -0.34835557492E+02  0.16547190146E+03  0.19197338055E+03  0.88484390513E+02 0.  0.
          5    1    3    3  502    0  0.20675860891E+02  0.58896652105E+02  0.13515349359E+03  0.14894584144E+03  0.47000000000E+01 0. -1.
         -5    1    3    3    0  502  0.56366101620E-01 -0.24061094613E+02  0.16917419537E+03  0.17094132862E+03  0.47000000000E+01 0.  1.
          5    1    4    4  503    0 -0.18307266921E+02 -0.62285365671E+02  0.13894715462E+03  0.15343736369E+03  0.47000000000E+01 0. -1.
         -5    1    4    4    0  503 -0.24249600717E+01  0.27449808180E+02  0.26524746842E+02  0.38536016861E+02  0.47000000000E+01 0.  1.
<mgrwt>
<rscale>  0 0.98244538E+02</rscale>
<asrwt>0</asrwt>
<pdfrwt beam="1">  1        1 0.32354589E-02 0.98551810E+02</pdfrwt>
<pdfrwt beam="2">  1       -1 0.75512310E-01 0.98551810E+02</pdfrwt>
<totfact> 0.52368144E+03</totfact>
</mgrwt>
</event>
<event>
 8    1  0.3400573E-004  0.1045320E+03  0.7546771E-02  0.1271092E+00
          2   -1    0    0  501    0  0.00000000000E+00  0.00000000000E+00  0.41677761076E+03  0.41677761076E+03  0.00000000000E+00 0. -1.
         -2   -1    0    0    0  501 -0.00000000000E+00 -0.00000000000E+00 -0.26438881530E+02  0.26438881530E+02  0.00000000000E+00 0.  1.
         23    2    1    2    0    0 -0.19615065629E+02 -0.46885774401E+02  0.21660313612E+03  0.24050749128E+03  0.91344995176E+02 0.  0.
         23    2    1    2    0    0  0.19615065629E+02  0.46885774401E+02  0.17373559311E+03  0.20270900101E+03  0.91235169408E+02 0.  0.
          5    1    3    3  502    0  0.25660645510E+02 -0.38875568919E+02  0.16367863263E+03  0.17024266024E+03  0.47000000000E+01 0. -1.
         -5    1    3    3    0  502 -0.45275711139E+02 -0.80102054815E+01  0.52924503492E+02  0.70264831039E+02  0.47000000000E+01 0.  1.
          5    1    4    4  503    0  0.29107477681E+02  0.64662959909E+02  0.81289198951E+02  0.10797484664E+03  0.47000000000E+01 0. -1.
         -5    1    4    4    0  503 -0.94924120512E+01 -0.17777185508E+02  0.92446394157E+02  0.94734154368E+02  0.47000000000E+01 0.  1.
<mgrwt>
<rscale>  0 0.10450798E+03</rscale>
<asrwt>0</asrwt>
<pdfrwt beam="1">  1        2 0.64119628E-01 0.10453198E+03</pdfrwt>
<pdfrwt beam="2">  1       -2 0.40675205E-02 0.10453198E+03</pdfrwt>
<totfact> 0.18745078E+04</totfact>
</mgrwt>
</event>
<event>
 8    1  0.3400573E-004  0.9468930E+02  0.7546771E-02  0.1293175E+00
         -1   -1    0    0    0  501 -0.00000000000E+00  0.00000000000E+00  0.18841145770E+02  0.18841145770E+02  0.00000000000E+00 0.  1.
          1   -1    0    0  501    0  0.00000000000E+00 -0.00000000000E+00 -0.56072682655E+03  0.56072682655E+03  0.00000000000E+00 0. -1.
         23    2    1    2    0    0 -0.16002991661E+02 -0.12283581044E+02 -0.39365498020E+03  0.40488307895E+03  0.92515307263E+02 0.  0.
         23    2    1    2    0    0  0.16002991661E+02  0.12283581044E+02 -0.14823070058E+03  0.17468489337E+03  0.90196947134E+02 0.  0.
          5    1    3    3  502    0 -0.28501604559E+02 -0.46293931774E+02 -0.28704955834E+03  0.29219002126E+03  0.47000000000E+01 0. -1.
         -5    1    3    3    0  502  0.12498612898E+02  0.34010350730E+02 -0.10660542186E+03  0.11269305769E+03  0.47000000000E+01 0.  1.
          5    1    4    4  503    0  0.38297105981E+02 -0.26620370670E+02 -0.84286788926E+02  0.96445141135E+02  0.47000000000E+01 0. -1.
         -5    1    4    4    0  503 -0.22294114320E+02  0.38903951714E+02 -0.63943911654E+02  0.78239752235E+02  0.47000000000E+01 0.  1.
<mgrwt>
<rscale>  0 0.94118204E+02</rscale>
<asrwt>0</asrwt>
<pdfrwt beam="1">  1        1 0.86265664E-01 0.94689303E+02</pdfrwt>
<pdfrwt beam="2">  1       -1 0.28986379E-02 0.94689303E+02</pdfrwt>
<totfact> 0.14111768E+04</totfact>
</mgrwt>
</event>
<event>
 8    1  0.3400573E-004  0.1174530E+03  0.7546771E-02  0.1248995E+00
          1   -1    0    0  501    0  0.00000000000E+00  0.00000000000E+00  0.53970356970E+02  0.53970356970E+02  0.00000000000E+00 0. -1.
         -1   -1    0    0    0  501 -0.00000000000E+00 -0.00000000000E+00 -0.24813632519E+03  0.24813632519E+03  0.00000000000E+00 0.  1.
         23    2    1    2    0    0  0.76199566057E+01  0.74498597991E+02 -0.10354928537E+03  0.15376051061E+03  0.85508685406E+02 0.  0.
         23    2    1    2    0    0 -0.76199566057E+01 -0.74498597991E+02 -0.90616682853E+02  0.14834617156E+03  0.90482587071E+02 0.  0.
          5    1    3    3  502    0  0.33714885395E+02  0.90228861660E+01 -0.10138900129E+02  0.36646872551E+02  0.47000000000E+01 0. -1.
         -5    1    4    4    0  503 -0.37394384803E+02 -0.69748755261E+02 -0.86859728265E+02  0.11760072818E+03  0.47000000000E+01 0.  1.
          5    1    4    4  503    0  0.29774428197E+02 -0.47498427308E+01 -0.37569545879E+01  0.30745443373E+02  0.47000000000E+01 0. -1.
         -5    1    3    3    0  502 -0.26094928789E+02  0.65475711825E+02 -0.93410385240E+02  0.11711363805E+03  0.47000000000E+01 0.  1.
<mgrwt>
<rscale>  0 0.11649444E+03</rscale>
<asrwt>0</asrwt>
<pdfrwt beam="1">  1        1 0.83031320E-02 0.11745298E+03</pdfrwt>
<pdfrwt beam="2">  1       -1 0.38174818E-01 0.11745298E+03</pdfrwt>
<totfact> 0.52294928E+03</totfact>
</mgrwt>
</event>
<event>
 8    1  0.3400573E-004  0.1032749E+03  0.7546771E-02  0.1274517E+00
          2   -1    0    0  501    0  0.00000000000E+00  0.00000000000E+00  0.38149008384E+03  0.38149008384E+03  0.00000000000E+00 0.  1.
         -2   -1    0    0    0  501 -0.00000000000E+00 -0.00000000000E+00 -0.28815544995E+02  0.28815544995E+02  0.00000000000E+00 0. -1.
         23    2    1    2    0    0 -0.83065151488E+01  0.33356441700E+02  0.22256560586E+03  0.24535924267E+03  0.97386131739E+02 0.  0.
         23    2    1    2    0    0  0.83065151488E+01 -0.33356441700E+02  0.13010893298E+03  0.16494638616E+03  0.95379900762E+02 0.  0.
          5    1    3    3  502    0 -0.40495035771E+02 -0.15257243741E+02  0.11420481887E+03  0.12221891041E+03  0.47000000000E+01 0. -1.
         -5    1    4    4    0  503  0.51481053069E+02 -0.20951108824E+02  0.79461790640E+02  0.97085086176E+02  0.47000000000E+01 0.  1.
          5    1    4    4  503    0 -0.43174537921E+02 -0.12405332876E+02  0.50647142344E+02  0.67861299988E+02  0.47000000000E+01 0. -1.
         -5    1    3    3    0  502  0.32188520622E+02  0.48613685441E+02  0.10836078699E+03  0.12314033226E+03  0.47000000000E+01 0.  1.
<mgrwt>
<rscale>  0 0.10279923E+03</rscale>
<asrwt>0</asrwt>
<pdfrwt beam="1">  1        2 0.58690778E-01 0.10327492E+03</pdfrwt>
<pdfrwt beam="2">  1       -2 0.44331611E-02 0.10327492E+03</pdfrwt>
<totfact> 0.18101955E+04</totfact>
</mgrwt>
</event>
<event>
 8    1  0.3400573E-004  0.1007447E+03  0.7546771E-02  0.1279611E+00
         -2   -1    0    0    0  501 -0.00000000000E+00  0.00000000000E+00  0.38344516786E+02  0.38344516786E+02  0.00000000000E+00 0.  1.
          2   -1    0    0  501    0  0.00000000000E+00 -0.00000000000E+00 -0.88331216677E+03  0.88331216677E+03  0.00000000000E+00 0. -1.
         23    2    1    2    0    0 -0.40311934819E+02  0.66193241553E+01 -0.36519612105E+02  0.10715954682E+03  0.92090275625E+02 0.  0.
         23    2    1    2    0    0  0.40311934819E+02 -0.66193241553E+01 -0.80844803788E+03  0.81449713674E+03  0.90268977306E+02 0.  0.
          5    1    4    4  502    0  0.55611246116E+02  0.24435567300E+02 -0.60619444133E+03  0.60924830599E+03  0.47000000000E+01 0. -1.
         -5    1    4    4    0  502 -0.15299311297E+02 -0.31054891456E+02 -0.20225359654E+03  0.20524883075E+03  0.47000000000E+01 0.  1.
          5    1    3    3  503    0  0.59493617229E+01  0.23061457709E+02 -0.50383835612E+02  0.55927154652E+02  0.47000000000E+01 0. -1.
         -5    1    3    3    0  503 -0.46261296542E+02 -0.16442133554E+02  0.13864223507E+02  0.51232392165E+02  0.47000000000E+01 0.  1.
<mgrwt>
<rscale>  0 0.10032654E+03</rscale>
<asrwt>0</asrwt>
<pdfrwt beam="1">  1        2 0.13589418E+00 0.10074466E+03</pdfrwt>
<pdfrwt beam="2">  1       -2 0.58991564E-02 0.10074466E+03</pdfrwt>
<totfact> 0.45578371E+03</totfact>
</mgrwt>
</event>
<event>
 8    1  0.3400573E-004  0.9474916E+02  0.7546771E-02  0.1291783E+00
          3   -1    0    0  501    0  0.00000000000E+00  0.00000000000E+00  0.81504940688E+02  0.81504940688E+02  0.00000000000E+00 0. -1.
         -3   -1    0    0    0  501 -0.00000000000E+00 -0.00000000000E+00 -0.14666883202E+03  0.14666883202E+03  0.00000000000E+00 0.  1.
         23    2    1    2    0    0  0.18720171317E+02  0.15040518108E+02 -0.89569054650E+02  0.13033198346E+03  0.91581375636E+02 0.  0.
         23    2    1    2    0    0 -0.18720171317E+02 -0.15040518108E+02  0.24405163320E+02  0.97841789244E+02  0.91655560260E+02 0.  0.
          5    1    4    4  502    0 -0.37041296498E+02 -0.36633093808E+02  0.39371289132E+02  0.65469302854E+02  0.47000000000E+01 0. -1.
         -5    1    3    3    0  503 -0.73809280874E+01  0.19096340748E+02 -0.99523112804E+02  0.10171572303E+03  0.47000000000E+01 0.  1.
          5    1    3    3  503    0  0.26101099404E+02 -0.40558226394E+01  0.99540581543E+01  0.28616260432E+02  0.47000000000E+01 0. -1.
         -5    1    4    4    0  502  0.18321125182E+02  0.21592575699E+02 -0.14966125812E+02  0.32372486390E+02  0.47000000000E+01 0.  1.
<mgrwt>
<rscale>  0 0.94731217E+02</rscale>
<asrwt>0</asrwt>
<pdfrwt beam="1">  1        3 0.12539222E-01 0.94749162E+02</pdfrwt>
<pdfrwt beam="2">  1       -3 0.22564436E-01 0.94749162E+02</pdfrwt>
<totfact> 0.19552515E+03</totfact>
</mgrwt>
</event>
<event>
 8    1  0.3400573E-004  0.9573107E+02  0.7546771E-02  0.1290000E+00
          2   -1    0    0  501    0  0.00000000000E+00  0.00000000000E+00  0.56438526137E+03  0.56438526137E+03  0.00000000000E+00 0. -1.
         -2   -1    0    0    0  501 -0.00000000000E+00 -0.00000000000E+00 -0.16154019630E+02  0.16154019630E+02  0.00000000000E+00 0.  1.
         23    2    1    2    0    0 -0.23236134561E+02 -0.90460563231E+01  0.29234219389E+03  0.30761728783E+03  0.92426664753E+02 0.  0.
         23    2    1    2    0    0  0.23236134561E+02  0.90460563231E+01  0.25588904784E+03  0.27292199317E+03  0.91572159873E+02 0.  0.
          5    1    3    3  502    0  0.15129280610E+02 -0.41677706177E+02  0.15363338660E+03  0.15997260329E+03  0.47000000000E+01 0. -1.
         -5    1    4    4    0  503 -0.51788978290E+01  0.44587750039E+02  0.16648172835E+03  0.17249099777E+03  0.47000000000E+01 0.  1.
          5    1    4    4  503    0  0.28415032390E+02 -0.35541693716E+02  0.89407319490E+02  0.10043099540E+03  0.47000000000E+01 0. -1.
         -5    1    3    3    0  502 -0.38365415171E+02  0.32631649854E+02  0.13870880729E+03  0.14764468454E+03  0.47000000000E+01 0.  1.
<mgrwt>
<rscale>  0 0.95524212E+02</rscale>
<asrwt>0</asrwt>
<pdfrwt beam="1">  1        2 0.86828487E-01 0.95731068E+02</pdfrwt>
<pdfrwt beam="2">  1       -2 0.24852342E-02 0.95731068E+02</pdfrwt>
<totfact> 0.27500687E+04</totfact>
</mgrwt>
</event>
<event>
 8    1  0.3400573E-004  0.1030178E+03  0.7546771E-02  0.1274423E+00
          1   -1    0    0  501    0  0.00000000000E+00  0.00000000000E+00  0.65747924577E+02  0.65747924577E+02  0.00000000000E+00 0. -1.
         -1   -1    0    0    0  501 -0.00000000000E+00 -0.00000000000E+00 -0.31871655351E+03  0.31871655351E+03  0.00000000000E+00 0.  1.
         23    2    1    2    0    0 -0.52008254571E+02  0.99831321565E+00 -0.26220493572E+03  0.28171632252E+03  0.88920205147E+02 0.  0.
         23    2    1    2    0    0  0.52008254571E+02 -0.99831321565E+00  0.92363067876E+01  0.10274815557E+03  0.88125018793E+02 0.  0.
          5    1    3    3  502    0 -0.10653197748E+02  0.17425609740E+02 -0.62361973694E+01  0.21866015977E+02  0.47000000000E+01 0. -1.
         -5    1    4    4    0  503  0.32124217836E+02 -0.28657112662E+02 -0.28385671243E+02  0.51778681034E+02  0.47000000000E+01 0.  1.
          5    1    4    4  503    0  0.19884036734E+02  0.27658799446E+02  0.37621978030E+02  0.50969474537E+02  0.47000000000E+01 0. -1.
         -5    1    3    3    0  502 -0.41355056822E+02 -0.16427296524E+02 -0.25596873835E+03  0.25985030654E+03  0.47000000000E+01 0.  1.
<mgrwt>
<rscale>  0 0.10284593E+03</rscale>
<asrwt>0</asrwt>
<pdfrwt beam="1">  1        1 0.10115065E-01 0.10301776E+03</pdfrwt>
<pdfrwt beam="2">  1       -1 0.49033316E-01 0.10301776E+03</pdfrwt>
<totfact> 0.25655934E+03</totfact>
</mgrwt>
</event>
<event>
 8    1  0.3400573E-004  0.9403664E+02  0.7546771E-02  0.1293719E+00
         -1   -1    0    0    0  501 -0.00000000000E+00  0.00000000000E+00  0.97501774561E+02  0.97501774561E+02  0.00000000000E+00 0.  1.
          1   -1    0    0  501    0  0.00000000000E+00 -0.00000000000E+00 -0.90336362018E+02  0.90336362018E+02  0.00000000000E+00 0. -1.
         23    2    1    2    0    0 -0.19589203049E+02 -0.40696482700E+01 -0.12901865661E+01  0.94045490788E+02  0.91883572215E+02 0.  0.
         23    2    1    2    0    0  0.19589203049E+02  0.40696482700E+01  0.84555991088E+01  0.93792645791E+02  0.91242886490E+02 0.  0.
          5    1    4    4  502    0 -0.14466956087E+02  0.32413127107E+02  0.27689077093E+02  0.45262331110E+02  0.47000000000E+01 0. -1.
         -5    1    4    4    0  502  0.34056159136E+02 -0.28343478837E+02 -0.19233477984E+02  0.48530314681E+02  0.47000000000E+01 0.  1.
          5    1    3    3  503    0 -0.22521327226E+02 -0.45026334909E+02  0.92274072481E+01  0.51398599785E+02  0.47000000000E+01 0. -1.
         -5    1    3    3    0  503  0.29321241766E+01  0.40956686639E+02 -0.10517593814E+02  0.42646891003E+02  0.47000000000E+01 0.  1.
<mgrwt>
<rscale>  0 0.93879769E+02</rscale>
<asrwt>0</asrwt>
<pdfrwt beam="1">  1        1 0.13897902E-01 0.94036640E+02</pdfrwt>
<pdfrwt beam="2">  1       -1 0.15000273E-01 0.94036640E+02</pdfrwt>
<totfact> 0.11978837E+04</totfact>
</mgrwt>
</event>
<event>
 8    1  0.3400573E-004  0.9083928E+02  0.7546771E-02  0.1300836E+00
          2   -1    0    0  501    0  0.00000000000E+00  0.00000000000E+00  0.24468742134E+03  0.24468742134E+03  0.00000000000E+00 0. -1.
         -2   -1    0    0    0  501 -0.00000000000E+00 -0.00000000000E+00 -0.58680128166E+02  0.58680128166E+02  0.00000000000E+00 0.  1.
         23    2    1    2    0    0 -0.59599333822E+01 -0.45496449543E+01 -0.59195291843E+01  0.91031951917E+02  0.90529306685E+02 0.  0.
         23    2    1    2    0    0  0.59599333822E+01  0.45496449543E+01  0.19192682236E+03  0.21233559759E+03  0.90522266805E+02 0.  0.
          5    1    4    4  502    0 -0.19403411543E+02  0.24506422050E+02  0.17028623191E+03  0.17319511506E+03  0.47000000000E+01 0. -1.
         -5    1    3    3    0  503 -0.39452806953E+02  0.23765951848E+02 -0.74666303548E+01  0.46895468999E+02  0.47000000000E+01 0.  1.
          5    1    3    3  503    0  0.33492873571E+02 -0.28315596802E+02  0.15471011706E+01  0.44136482918E+02  0.47000000000E+01 0. -1.
         -5    1    4    4    0  502  0.25363344925E+02 -0.19956777096E+02  0.21640590446E+02  0.39140482530E+02  0.47000000000E+01 0.  1.
<mgrwt>
<rscale>  0 0.90837530E+02</rscale>
<asrwt>0</asrwt>
<pdfrwt beam="1">  1        2 0.37644218E-01 0.90839284E+02</pdfrwt>
<pdfrwt beam="2">  1       -2 0.90277122E-02 0.90839284E+02</pdfrwt>
<totfact> 0.97484883E+03</totfact>
</mgrwt>
</event>
<event>
 8    1  0.3400573E-004  0.1382557E+03  0.7546771E-02  0.1215888E+00
          1   -1    0    0  501    0  0.00000000000E+00  0.00000000000E+00  0.45080480022E+02  0.45080480022E+02  0.00000000000E+00 0. -1.
         -1   -1    0    0    0  501 -0.00000000000E+00 -0.00000000000E+00 -0.46587606775E+03  0.46587606775E+03  0.00000000000E+00 0.  1.
         23    2    1    2    0    0 -0.10257300806E+03 -0.33914495313E+01 -0.28815261926E+03  0.31936116430E+03  0.91798133788E+02 0.  0.
         23    2    1    2    0    0  0.10257300806E+03  0.33914495313E+01 -0.13264296847E+03  0.19159538347E+03  0.92638598710E+02 0.  0.
          5    1    3    3  502    0 -0.47275732761E+02 -0.34086839058E+02 -0.65268219960E+02  0.87629550049E+02  0.47000000000E+01 0. -1.
         -5    1    4    4    0  503  0.32585612819E+02  0.43178918252E+02 -0.74452756007E+02  0.92149574178E+02  0.47000000000E+01 0.  1.
          5    1    4    4  503    0  0.69987395236E+02 -0.39787468720E+02 -0.58190212459E+02  0.99445809289E+02  0.47000000000E+01 0. -1.
         -5    1    3    3    0  502 -0.55297275294E+02  0.30695389527E+02 -0.22288439930E+03  0.23173161425E+03  0.47000000000E+01 0.  1.
<mgrwt>
<rscale>  0 0.13811503E+03</rscale>
<asrwt>0</asrwt>
<pdfrwt beam="1">  1        1 0.69354588E-02 0.13825568E+03</pdfrwt>
<pdfrwt beam="2">  1       -1 0.71673237E-01 0.13825568E+03</pdfrwt>
<totfact> 0.21008940E+03</totfact>
</mgrwt>
</event>
<event>
 8    1  0.3400573E-004  0.9205761E+02  0.7546771E-02  0.1298102E+00
         -1   -1    0    0    0  501 -0.00000000000E+00  0.00000000000E+00  0.39013782012E+02  0.39013782012E+02  0.00000000000E+00 0.  1.
          1   -1    0    0  501    0  0.00000000000E+00 -0.00000000000E+00 -0.22767260841E+03  0.22767260841E+03  0.00000000000E+00 0. -1.
         23    2    1    2    0    0 -0.99167197019E+01 -0.17855010712E+01 -0.12362291427E+03  0.15397315135E+03  0.91233639970E+02 0.  0.
         23    2    1    2    0    0  0.99167197019E+01  0.17855010712E+01 -0.65035912131E+02  0.11271323907E+03  0.91504508362E+02 0.  0.
          5    1    4    4  502    0  0.30778819184E+02  0.80410849265E+01 -0.79765428740E+02  0.86003537016E+02  0.47000000000E+01 0. -1.
         -5    1    4    4    0  502 -0.20862099482E+02 -0.62555838553E+01  0.14729516608E+02  0.26709702052E+02  0.47000000000E+01 0.  1.
          5    1    3    3  503    0  0.95164435486E+01  0.26431337043E+02 -0.11480356753E+03  0.11828409611E+03  0.47000000000E+01 0. -1.
         -5    1    3    3    0  503 -0.19433163251E+02 -0.28216838114E+02 -0.88193467369E+01  0.35689055240E+02  0.47000000000E+01 0.  1.
<mgrwt>
<rscale>  0 0.91990232E+02</rscale>
<asrwt>0</asrwt>
<pdfrwt beam="1">  1        1 0.35026554E-01 0.92057615E+02</pdfrwt>
<pdfrwt beam="2">  1       -1 0.60021205E-02 0.92057615E+02</pdfrwt>
<totfact> 0.14979471E+04</totfact>
</mgrwt>
</event>
<event>
 8    1  0.3400573E-004  0.1366618E+03  0.7546771E-02  0.1218193E+00
         -2   -1    0    0    0  501 -0.00000000000E+00  0.00000000000E+00  0.65746584870E+02  0.65746584870E+02  0.00000000000E+00 0.  1.
          2   -1    0    0  501    0  0.00000000000E+00 -0.00000000000E+00 -0.28388684728E+03  0.28388684728E+03  0.00000000000E+00 0. -1.
         23    2    1    2    0    0 -0.24778364966E+02  0.97408443266E+02 -0.12256330534E+03  0.18357071870E+03  0.92596289109E+02 0.  0.
         23    2    1    2    0    0  0.24778364966E+02 -0.97408443266E+02 -0.95576957072E+02  0.16606271346E+03  0.91320851330E+02 0.  0.
          5    1    4    4  502    0 -0.15531753153E+02 -0.89858403210E+02 -0.81661406197E+02  0.12250078875E+03  0.47000000000E+01 0. -1.
         -5    1    4    4    0  502  0.40310118119E+02 -0.75500400562E+01 -0.13915550875E+02  0.43561924702E+02  0.47000000000E+01 0.  1.
          5    1    3    3  503    0 -0.37188566637E+02  0.61522777971E+02 -0.12601480441E+03  0.14515461628E+03  0.47000000000E+01 0. -1.
         -5    1    3    3    0  503  0.12410201670E+02  0.35885665295E+02  0.34514990645E+01  0.38416102418E+02  0.47000000000E+01 0.  1.
<mgrwt>
<rscale>  0 0.13644604E+03</rscale>
<asrwt>0</asrwt>
<pdfrwt beam="1">  1        2 0.43674899E-01 0.13666179E+03</pdfrwt>
<pdfrwt beam="2">  1       -2 0.10114859E-01 0.13666179E+03</pdfrwt>
<totfact> 0.72024122E+03</totfact>
</mgrwt>
</event>
<event>
 8    1  0.3400573E-004  0.1092409E+03  0.7546771E-02  0.1262097E+00
          1   -1    0    0  501    0  0.00000000000E+00  0.00000000000E+00  0.18812994052E+03  0.18812994052E+03  0.00000000000E+00 0. -1.
         -1   -1    0    0    0  501 -0.00000000000E+00 -0.00000000000E+00 -0.72919112392E+02  0.72919112392E+02  0.00000000000E+00 0.  1.
         23    2    1    2    0    0  0.24317875867E+02 -0.54074713448E+02  0.10119528169E+02  0.10946491205E+03  0.91458889117E+02 0.  0.
         23    2    1    2    0    0 -0.24317875867E+02  0.54074713448E+02  0.10509129996E+03  0.15158414086E+03  0.91750404429E+02 0.  0.
          5    1    3    3  502    0  0.36818863932E+02  0.13885564594E+02  0.60096759444E+01  0.40082962095E+02  0.47000000000E+01 0. -1.
         -5    1    3    3    0  502 -0.12500988065E+02 -0.67960278043E+02  0.41098522245E+01  0.69381949955E+02  0.47000000000E+01 0.  1.
          5    1    4    4  503    0 -0.22203329526E+01  0.76673689232E+02  0.80224534022E+02  0.11109388083E+03  0.47000000000E+01 0. -1.
         -5    1    4    4    0  503 -0.22097542915E+02 -0.22598975784E+02  0.24866765939E+02  0.40490260034E+02  0.47000000000E+01 0.  1.
<mgrwt>
<rscale>  0 0.10917965E+03</rscale>
<asrwt>0</asrwt>
<pdfrwt beam="1">  1        1 0.28943068E-01 0.10924088E+03</pdfrwt>
<pdfrwt beam="2">  1       -1 0.11218325E-01 0.10924088E+03</pdfrwt>
<totfact> 0.75293432E+03</totfact>
</mgrwt>
</event>
<event>
 8    1  0.3400573E-004  0.1009624E+03  0.7546771E-02  0.1280316E+00
         -1   -1    0    0    0  501 -0.00000000000E+00  0.00000000000E+00  0.12276534198E+02  0.12276534198E+02  0.00000000000E+00 0.  1.
          1   -1    0    0  501    0  0.00000000000E+00 -0.00000000000E+00 -0.93588871991E+03  0.93588871991E+03  0.00000000000E+00 0. -1.
         23    2    1    2    0    0  0.42692903621E+02 -0.65451128115E+01 -0.27296056517E+03  0.28972699671E+03  0.86998505532E+02 0.  0.
         23    2    1    2    0    0 -0.42692903621E+02  0.65451128115E+01 -0.65065162054E+03  0.65843825739E+03  0.91257246103E+02 0.  0.
          5    1    4    4  502    0 -0.68124588931E+02  0.20156831273E+02 -0.49070744322E+03  0.49584588563E+03  0.47000000000E+01 0. -1.
         -5    1    4    4    0  502  0.25431685311E+02 -0.13611718462E+02 -0.15994417732E+03  0.16259237177E+03  0.47000000000E+01 0.  1.
          5    1    3    3  503    0 -0.14242795336E+02  0.16945648666E+02 -0.15430776204E+03  0.15595828819E+03  0.47000000000E+01 0. -1.
         -5    1    3    3    0  503  0.56935698957E+02 -0.23490761478E+02 -0.11865280312E+03  0.13376870852E+03  0.47000000000E+01 0.  1.
<mgrwt>
<rscale>  0 0.99990390E+02</rscale>
<asrwt>0</asrwt>
<pdfrwt beam="1">  1        1 0.14398289E+00 0.10096241E+03</pdfrwt>
<pdfrwt beam="2">  1       -1 0.18886974E-02 0.10096241E+03</pdfrwt>
<totfact> 0.12544493E+04</totfact>
</mgrwt>
</event>
<event>
 8    1  0.3400573E-004  0.9899427E+02  0.7546771E-02  0.1285507E+00
         -3   -1    0    0    0  501 -0.00000000000E+00  0.00000000000E+00  0.23058727165E+03  0.23058727165E+03  0.00000000000E+00 0.  1.
          3   -1    0    0  501    0  0.00000000000E+00 -0.00000000000E+00 -0.61801621441E+02  0.61801621441E+02  0.00000000000E+00 0. -1.
         23    2    1    2    0    0 -0.37130874803E+02  0.10785977122E+02  0.17254260742E+03  0.19892415011E+03  0.91130823297E+02 0.  0.
         23    2    1    2    0    0  0.37130874803E+02 -0.10785977122E+02 -0.37569572109E+01  0.93464742982E+02  0.85008848287E+02 0.  0.
          5    1    4    4  502    0  0.49306079140E+02 -0.30521401900E+02 -0.23405051865E+02  0.62709902463E+02  0.47000000000E+01 0. -1.
         -5    1    3    3    0  503 -0.32465838798E+02 -0.30154923125E+02  0.13778982777E+03  0.14481531934E+03  0.47000000000E+01 0.  1.
          5    1    3    3  503    0 -0.46650360053E+01  0.40940900247E+02  0.34752779645E+02  0.54108830767E+02  0.47000000000E+01 0. -1.
         -5    1    4    4    0  502 -0.12175204337E+02  0.19735424778E+02  0.19648094654E+02  0.30754840519E+02  0.47000000000E+01 0.  1.
<mgrwt>
<rscale>  0 0.97562231E+02</rscale>
<asrwt>0</asrwt>
<pdfrwt beam="1">  1        3 0.95079419E-02 0.98994273E+02</pdfrwt>
<pdfrwt beam="2">  1       -3 0.35474964E-01 0.98994273E+02</pdfrwt>
<totfact> 0.13653069E+03</totfact>
</mgrwt>
</event>
<event>
 8    1  0.3400573E-004  0.1406623E+03  0.7546771E-02  0.1215792E+00
          4   -1    0    0  501    0  0.00000000000E+00  0.00000000000E+00  0.26455974888E+03  0.26455974888E+03  0.00000000000E+00 0. -1.
         -4   -1    0    0    0  501 -0.00000000000E+00 -0.00000000000E+00 -0.91205666432E+02  0.91205666432E+02  0.00000000000E+00 0.  1.
         23    2    1    2    0    0  0.13921707855E+00  0.91879310937E+02  0.27877505125E+01  0.14068989941E+03  0.10650844606E+03 0.  0.
         23    2    1    2    0    0 -0.13921707855E+00 -0.91879310937E+02  0.17056633194E+03  0.21507551591E+03  0.93395807140E+02 0.  0.
          5    1    3    3  502    0 -0.20402304863E+02 -0.74575229353E+01  0.28302774584E+02  0.35986188200E+02  0.47000000000E+01 0. -1.
         -5    1    3    3    0  502  0.20541521941E+02  0.99336833873E+02 -0.25515024071E+02  0.10470371121E+03  0.47000000000E+01 0.  1.
          5    1    4    4  503    0 -0.23032384879E+02 -0.10237377988E+03  0.13053017492E+03  0.16754431690E+03  0.47000000000E+01 0. -1.
         -5    1    4    4    0  503  0.22893167800E+02  0.10494468942E+02  0.40036157018E+02  0.47531199008E+02  0.47000000000E+01 0.  1.
<mgrwt>
<rscale>  0 0.13818549E+03</rscale>
<asrwt>0</asrwt>
<pdfrwt beam="1">  1        4 0.40701500E-01 0.14066228E+03</pdfrwt>
<pdfrwt beam="2">  1       -4 0.14031641E-01 0.14066228E+03</pdfrwt>
<totfact> 0.41634928E+02</totfact>
</mgrwt>
</event>
<event>
 8    1  0.3400573E-004  0.1109764E+03  0.7546771E-02  0.1259479E+00
         -4   -1    0    0    0  501 -0.00000000000E+00  0.00000000000E+00  0.66338473464E+02  0.66338473464E+02  0.00000000000E+00 0.  1.
          4   -1    0    0  501    0  0.00000000000E+00 -0.00000000000E+00 -0.20920629503E+03  0.20920629503E+03  0.00000000000E+00 0. -1.
         23    2    1    2    0    0  0.54751035161E+02 -0.26787232059E+02 -0.22326550933E+02  0.11169739605E+03  0.90898854530E+02 0.  0.
         23    2    1    2    0    0 -0.54751035161E+02  0.26787232059E+02 -0.12054127063E+03  0.16384737245E+03  0.92739052609E+02 0.  0.
          5    1    4    4  502    0 -0.32763660730E+02  0.55050962580E+02 -0.10791868032E+03  0.12558900234E+03  0.47000000000E+01 0. -1.
         -5    1    3    3    0  503  0.35606619134E+02 -0.59997355853E+02 -0.21169742943E+02  0.73059989405E+02  0.47000000000E+01 0.  1.
          5    1    3    3  503    0  0.19144416027E+02  0.33210123794E+02 -0.11568079899E+01  0.38637406644E+02  0.47000000000E+01 0. -1.
         -5    1    4    4    0  502 -0.21987374431E+02 -0.28263730521E+02 -0.12622590312E+02  0.38258370110E+02  0.47000000000E+01 0.  1.
<mgrwt>
<rscale>  0 0.11059113E+03</rscale>
<asrwt>0</asrwt>
<pdfrwt beam="1">  1        4 0.32185583E-01 0.11097641E+03</pdfrwt>
<pdfrwt beam="2">  1       -4 0.10205919E-01 0.11097641E+03</pdfrwt>
<totfact> 0.10753945E+03</totfact>
</mgrwt>
</event>
<event>
 7    1  0.3400573E-004  0.2551196E+03  0.7546771E-02  0.1156242E+00
          1   -1    0    0  501    0  0.00000000000E+00  0.00000000000E+00  0.60255550466E+02  0.60255550466E+02  0.00000000000E+00 0. -1.
         -1   -1    0    0    0  501 -0.00000000000E+00 -0.00000000000E+00 -0.48277804340E+03  0.48277804340E+03  0.00000000000E+00 0.  1.
         23    2    1    2    0    0  0.52505440739E+02 -0.10351431712E+02 -0.13815879636E+03  0.16100125187E+03  0.63004576386E+02 0.  0.
          5    1    1    2  502    0 -0.17420380069E+02  0.79603104403E+02  0.56049965214E+01  0.81814606632E+02  0.47000000000E+01 0. -1.
         -5    1    1    2    0  502 -0.35085060671E+02 -0.69251672691E+02 -0.28996869310E+03  0.30021773537E+03  0.47000000000E+01 0.  1.
          5    1    3    3  503    0  0.11284590030E+02  0.17507032320E+02 -0.10266920325E+02  0.23692568576E+02  0.47000000000E+01 0. -1.
         -5    1    3    3    0  503  0.41220850709E+02 -0.27858464032E+02 -0.12789187603E+03  0.13730868329E+03  0.47000000000E+01 0.  1.
<mgrwt>
<rscale>  0 0.19248134E+03</rscale>
<asrwt>0</asrwt>
<pdfrwt beam="1">  1        1 0.92700845E-02 0.25511958E+03</pdfrwt>
<pdfrwt beam="2">  1       -1 0.74273546E-01 0.25511958E+03</pdfrwt>
<totfact> 0.13482214E+03</totfact>
</mgrwt>
</event>
<event>
 8    1  0.3400573E-004  0.9410136E+02  0.7546771E-02  0.1293753E+00
          3   -1    0    0  501    0  0.00000000000E+00  0.00000000000E+00  0.10606700493E+03  0.10606700493E+03  0.00000000000E+00 0. -1.
         -3   -1    0    0    0  501 -0.00000000000E+00 -0.00000000000E+00 -0.10261969322E+03  0.10261969322E+03  0.00000000000E+00 0.  1.
         23    2    1    2    0    0  0.11287958043E+02 -0.12316019702E+02 -0.44295797187E+02  0.10400568931E+03  0.92606497732E+02 0.  0.
         23    2    1    2    0    0 -0.11287958043E+02  0.12316019702E+02  0.47743108893E+02  0.10468100884E+03  0.91649368937E+02 0.  0.
          5    1    3    3  502    0 -0.70717737870E+01  0.29867937382E+02  0.10058640721E+02  0.32640004919E+02  0.47000000000E+01 0. -1.
         -5    1    4    4    0  503 -0.70416163122E+01  0.37263585253E+02 -0.11650700575E+02  0.39949818148E+02  0.47000000000E+01 0.  1.
          5    1    4    4  503    0 -0.42463417308E+01 -0.24947565551E+02  0.59393809468E+02  0.64731190690E+02  0.47000000000E+01 0. -1.
         -5    1    3    3    0  502  0.18359731830E+02 -0.42183957084E+02 -0.54354437909E+02  0.71365684390E+02  0.47000000000E+01 0.  1.
<mgrwt>
<rscale>  0 0.93865028E+02</rscale>
<asrwt>0</asrwt>
<pdfrwt beam="1">  1        3 0.16318001E-01 0.94101359E+02</pdfrwt>
<pdfrwt beam="2">  1       -3 0.15787645E-01 0.94101359E+02</pdfrwt>
<totfact> 0.23263157E+03</totfact>
</mgrwt>
</event>
<event>
 8    1  0.3400573E-004  0.1116976E+03  0.7546771E-02  0.1266043E+00
          1   -1    0    0  501    0  0.00000000000E+00  0.00000000000E+00  0.16627951192E+03  0.16627951192E+03  0.00000000000E+00 0. -1.
         -1   -1    0    0    0  501 -0.00000000000E+00 -0.00000000000E+00 -0.68933952233E+02  0.68933952233E+02  0.00000000000E+00 0.  1.
         23    2    1    2    0    0  0.20731800503E+02 -0.95034575709E+01  0.84253428476E+02  0.13991070174E+03  0.10934459746E+03 0.  0.
         23    2    1    2    0    0 -0.20731800503E+02  0.95034575709E+01  0.13092131213E+02  0.95302762412E+02  0.91602889506E+02 0.  0.
          5    1    4    4  502    0 -0.70224945138E+01 -0.40500470622E+02 -0.93935422389E+00  0.41383280877E+02  0.47000000000E+01 0. -1.
         -5    1    3    3    0  503 -0.11498123857E+02  0.21722529402E+02 -0.16185858737E+02  0.29801797914E+02  0.47000000000E+01 0.  1.
          5    1    3    3  503    0  0.32229924360E+02 -0.31225986973E+02  0.10043928721E+03  0.11010890383E+03  0.47000000000E+01 0. -1.
         -5    1    4    4    0  502 -0.13709305990E+02  0.50003928193E+02  0.14031485437E+02  0.53919481535E+02  0.47000000000E+01 0.  1.
<mgrwt>
<rscale>  0 0.10709646E+03</rscale>
<asrwt>0</asrwt>
<pdfrwt beam="1">  1        1 0.25581463E-01 0.11169765E+03</pdfrwt>
<pdfrwt beam="2">  1       -1 0.10605223E-01 0.11169765E+03</pdfrwt>
<totfact> 0.95792871E+03</totfact>
</mgrwt>
</event>
<event>
 8    1  0.3400573E-004  0.9302802E+02  0.7546771E-02  0.1296020E+00
          3   -1    0    0  501    0  0.00000000000E+00  0.00000000000E+00  0.15532511908E+02  0.15532511908E+02  0.00000000000E+00 0. -1.
         -3   -1    0    0    0  501 -0.00000000000E+00 -0.00000000000E+00 -0.71980731766E+03  0.71980731766E+03  0.00000000000E+00 0.  1.
         23    2    1    2    0    0 -0.12635477788E+02 -0.12613516261E+02 -0.52792131802E+03  0.53595386085E+03  0.90702077419E+02 0.  0.
         23    2    1    2    0    0  0.12635477788E+02  0.12613516261E+02 -0.17635348773E+03  0.19938596872E+03  0.91298717380E+02 0.  0.
          5    1    4    4  502    0 -0.19680339353E+02 -0.29111158239E+02 -0.42000888729E+02  0.54963078017E+02  0.47000000000E+01 0. -1.
         -5    1    3    3    0  503  0.37911404604E+02 -0.16203255858E+02 -0.24633836621E+03  0.24980892852E+03  0.47000000000E+01 0.  1.
          5    1    3    3  503    0 -0.50546882392E+02  0.35897395969E+01 -0.28158295181E+03  0.28614493233E+03  0.47000000000E+01 0. -1.
         -5    1    4    4    0  502  0.32315817141E+02  0.41724674500E+02 -0.13435259900E+03  0.14442289070E+03  0.47000000000E+01 0.  1.
<mgrwt>
<rscale>  0 0.92881300E+02</rscale>
<asrwt>0</asrwt>
<pdfrwt beam="1">  1        3 0.23896177E-02 0.93028017E+02</pdfrwt>
<pdfrwt beam="2">  1       -3 0.11073956E+00 0.93028017E+02</pdfrwt>
<totfact> 0.11187739E+03</totfact>
</mgrwt>
</event>
<event>
 8    1  0.3400573E-004  0.1063630E+03  0.7546771E-02  0.1267705E+00
          3   -1    0    0  501    0  0.00000000000E+00  0.00000000000E+00  0.11194840501E+03  0.11194840501E+03  0.00000000000E+00 0. -1.
         -3   -1    0    0    0  501 -0.00000000000E+00 -0.00000000000E+00 -0.12241243882E+03  0.12241243882E+03  0.00000000000E+00 0.  1.
         23    2    1    2    0    0 -0.45985448279E+02 -0.28209370785E+02 -0.54738463013E+02  0.11962184185E+03  0.91666000568E+02 0.  0.
         23    2    1    2    0    0  0.45985448279E+02  0.28209370785E+02  0.44274429201E+02  0.11473900198E+03  0.91073505706E+02 0.  0.
          5    1    4    4  502    0 -0.85376669655E+00  0.52609635199E+02  0.22615107669E+02  0.57463342474E+02  0.47000000000E+01 0. -1.
         -5    1    3    3    0  503 -0.12061303408E+02 -0.58768814114E+02 -0.26694619949E+02  0.65832676434E+02  0.47000000000E+01 0.  1.
          5    1    3    3  503    0 -0.33924144872E+02  0.30559443329E+02 -0.28043843064E+02  0.53789165412E+02  0.47000000000E+01 0. -1.
         -5    1    4    4    0  502  0.46839214976E+02 -0.24400264414E+02  0.21659321532E+02  0.57275659510E+02  0.47000000000E+01 0.  1.
<mgrwt>
<rscale>  0 0.10623521E+03</rscale>
<asrwt>0</asrwt>
<pdfrwt beam="1">  1        3 0.17222832E-01 0.10636299E+03</pdfrwt>
<pdfrwt beam="2">  1       -3 0.18832683E-01 0.10636299E+03</pdfrwt>
<totfact> 0.16029116E+03</totfact>
</mgrwt>
</event>
<event>
 8    1  0.3400573E-004  0.9529550E+02  0.7546771E-02  0.1291800E+00
          3   -1    0    0  501    0  0.00000000000E+00  0.00000000000E+00  0.65596459207E+02  0.65596459207E+02  0.00000000000E+00 0. -1.
         -3   -1    0    0    0  501 -0.00000000000E+00 -0.00000000000E+00 -0.27364581331E+03  0.27364581331E+03  0.00000000000E+00 0.  1.
         23    2    1    2    0    0 -0.77092527763E+01  0.27766546811E+02 -0.22406555960E+03  0.24261023587E+03  0.88453026233E+02 0.  0.
         23    2    1    2    0    0  0.77092527763E+01 -0.27766546811E+02  0.16016205500E+02  0.96632036645E+02  0.90834013273E+02 0.  0.
          5    1    3    3  502    0 -0.16936223151E+02 -0.22897638689E+02 -0.29433445626E+02  0.41225662318E+02  0.47000000000E+01 0. -1.
         -5    1    4    4    0  503  0.14537494599E+02  0.30074516096E+02  0.17863506163E+02  0.38170801931E+02  0.47000000000E+01 0.  1.
          5    1    4    4  503    0 -0.68282418223E+01 -0.57841062907E+02 -0.18473006625E+01  0.58461234714E+02  0.47000000000E+01 0. -1.
         -5    1    3    3    0  502  0.92269703746E+01  0.50664185500E+02 -0.19463211398E+03  0.20138457356E+03  0.47000000000E+01 0.  1.
<mgrwt>
<rscale>  0 0.94723688E+02</rscale>
<asrwt>0</asrwt>
<pdfrwt beam="1">  1        3 0.10091763E-01 0.95295497E+02</pdfrwt>
<pdfrwt beam="2">  1       -3 0.42099356E-01 0.95295497E+02</pdfrwt>
<totfact> 0.88803315E+02</totfact>
</mgrwt>
</event>
<event>
 8    1  0.3400573E-004  0.1093498E+03  0.7546771E-02  0.1261927E+00
         -1   -1    0    0    0  501 -0.00000000000E+00  0.00000000000E+00  0.11252173171E+03  0.11252173171E+03  0.00000000000E+00 0.  1.
          1   -1    0    0  501    0  0.00000000000E+00 -0.00000000000E+00 -0.11723363098E+03  0.11723363098E+03  0.00000000000E+00 0. -1.
         23    2    1    2    0    0  0.50565485833E+02  0.33933740195E+02  0.33265536469E+02  0.11429778361E+03  0.90824117617E+02 0.  0.
         23    2    1    2    0    0 -0.50565485833E+02 -0.33933740195E+02 -0.37977435744E+02  0.11545757908E+03  0.90442245987E+02 0.  0.
          5    1    3    3  502    0  0.47894993598E+02 -0.20159002130E+02  0.34368562570E+01  0.52289748131E+02  0.47000000000E+01 0. -1.
         -5    1    4    4    0  503 -0.56575869808E+02  0.32614210156E+01  0.62044178339E+01  0.57201841860E+02  0.47000000000E+01 0.  1.
          5    1    4    4  503    0  0.60103839749E+01 -0.37195161210E+02 -0.44181853577E+02  0.58255737216E+02  0.47000000000E+01 0. -1.
         -5    1    3    3    0  502  0.26704922349E+01  0.54092742325E+02  0.29828680212E+02  0.62008035481E+02  0.47000000000E+01 0.  1.
<mgrwt>
<rscale>  0 0.10927051E+03</rscale>
<asrwt>0</asrwt>
<pdfrwt beam="1">  1        1 0.18035943E-01 0.10934984E+03</pdfrwt>
<pdfrwt beam="2">  1       -1 0.17311036E-01 0.10934984E+03</pdfrwt>
<totfact> 0.69526408E+03</totfact>
</mgrwt>
</event>
<event>
 8    1  0.3400573E-004  0.4448885E+03  0.7546771E-02  0.1029271E+00
         -2   -1    0    0    0  501 -0.00000000000E+00  0.00000000000E+00  0.14265804858E+03  0.14265804858E+03  0.00000000000E+00 0.  1.
          2   -1    0    0  501    0  0.00000000000E+00 -0.00000000000E+00 -0.20295021647E+04  0.20295021647E+04  0.00000000000E+00 0. -1.
         23    2    1    2    0    0  0.40466015720E+03  0.16043356276E+03 -0.33213830839E+03  0.55505293772E+03  0.90989762519E+02 0.  0.
         23    2    1    2    0    0 -0.40466015720E+03 -0.16043356276E+03 -0.15547058077E+04  0.16171072756E+04  0.91853259234E+02 0.  0.
          5    1    4    4  502    0 -0.36395630261E+03 -0.11110717422E+03 -0.13131173988E+04  0.13671533884E+04  0.47000000000E+01 0. -1.
         -5    1    3    3    0  503  0.37923367109E+03  0.17184050795E+03 -0.30852575638E+03  0.51822540444E+03  0.47000000000E+01 0.  1.
          5    1    3    3  503    0  0.25426486108E+02 -0.11406945192E+02 -0.23612552014E+02  0.36827533273E+02  0.47000000000E+01 0. -1.
         -5    1    4    4    0  502 -0.40703854591E+02 -0.49326388535E+02 -0.24158840894E+03  0.24995388719E+03  0.47000000000E+01 0.  1.
<mgrwt>
<rscale>  0 0.44484414E+03</rscale>
<asrwt>0</asrwt>
<pdfrwt beam="1">  1        2 0.31223108E+00 0.44488852E+03</pdfrwt>
<pdfrwt beam="2">  1       -2 0.21947393E-01 0.44488852E+03</pdfrwt>
<totfact> 0.12440793E+02</totfact>
</mgrwt>
</event>
<event>
 8    1  0.3400573E-004  0.1260982E+03  0.7546771E-02  0.1238031E+00
          2   -1    0    0  501    0  0.00000000000E+00  0.00000000000E+00  0.34119703222E+03  0.34119703222E+03  0.00000000000E+00 0. -1.
         -2   -1    0    0    0  501 -0.00000000000E+00 -0.00000000000E+00 -0.64592707455E+02  0.64592707455E+02  0.00000000000E+00 0.  1.
         23    2    1    2    0    0  0.19491294126E+02  0.65887332181E+02  0.26132781528E+03  0.29016027383E+03  0.10573413064E+03 0.  0.
         23    2    1    2    0    0 -0.19491294126E+02 -0.65887332181E+02  0.15276509486E+02  0.11562946584E+03  0.91737399901E+02 0.  0.
          5    1    3    3  502    0 -0.27140012093E+02 -0.15901294631E+02  0.63277933511E+02  0.70821030046E+02  0.47000000000E+01 0. -1.
         -5    1    3    3    0  502  0.46631306219E+02  0.81788626812E+02  0.19804988177E+03  0.21933924378E+03  0.47000000000E+01 0.  1.
          5    1    4    4  503    0  0.35312541546E+02 -0.19979813975E+02 -0.50530459959E+01  0.41155702287E+02  0.47000000000E+01 0.  1.
         -5    1    4    4    0  503 -0.54803835672E+02 -0.45907518206E+02  0.20329555482E+02  0.74473763556E+02  0.47000000000E+01 0. -1.
<mgrwt>
<rscale>  0 0.12312405E+03</rscale>
<asrwt>0</asrwt>
<pdfrwt beam="1">  1        2 0.52491850E-01 0.12609821E+03</pdfrwt>
<pdfrwt beam="2">  1       -2 0.99373398E-02 0.12609821E+03</pdfrwt>
<totfact> 0.60636771E+03</totfact>
</mgrwt>
</event>
<event>
 8    1  0.3400573E-004  0.9823228E+02  0.7546771E-02  0.1290193E+00
          1   -1    0    0  501    0  0.00000000000E+00  0.00000000000E+00  0.15586247885E+03  0.15586247885E+03  0.00000000000E+00 0. -1.
         -1   -1    0    0    0  501 -0.00000000000E+00 -0.00000000000E+00 -0.56778542856E+02  0.56778542856E+02  0.00000000000E+00 0.  1.
         23    2    1    2    0    0 -0.14815159294E+02  0.27228458981E+02  0.29894261943E+02  0.92487816844E+02  0.81850176811E+02 0.  0.
         23    2    1    2    0    0  0.14815159294E+02 -0.27228458981E+02  0.69189674051E+02  0.12015320486E+03  0.93213216445E+02 0.  0.
          5    1    3    3  502    0  0.25846592386E+02  0.17908345273E+02  0.38193731295E+02  0.49695133349E+02  0.47000000000E+01 0. -1.
         -5    1    3    3    0  502 -0.40661751679E+02  0.93201137074E+01 -0.82994693514E+01  0.42792683495E+02  0.47000000000E+01 0.  1.
          5    1    4    4  503    0 -0.34238924574E+01 -0.58621283093E+02  0.28573810614E+02  0.65473128259E+02  0.47000000000E+01 0. -1.
         -5    1    4    4    0  503  0.18239051751E+02  0.31392824113E+02  0.40615863437E+02  0.54680076602E+02  0.47000000000E+01 0.  1.
<mgrwt>
<rscale>  0 0.95438062E+02</rscale>
<asrwt>0</asrwt>
<pdfrwt beam="1">  1        1 0.23978843E-01 0.98232284E+02</pdfrwt>
<pdfrwt beam="2">  1       -1 0.87351605E-02 0.98232284E+02</pdfrwt>
<totfact> 0.13762256E+04</totfact>
</mgrwt>
</event>
<event>
 8    1  0.3400573E-004  0.9558843E+02  0.7546771E-02  0.1292052E+00
          2   -1    0    0  501    0  0.00000000000E+00  0.00000000000E+00  0.12397811670E+03  0.12397811670E+03  0.00000000000E+00 0. -1.
         -2   -1    0    0    0  501 -0.00000000000E+00 -0.00000000000E+00 -0.71949822962E+02  0.71949822962E+02  0.00000000000E+00 0.  1.
         23    2    1    2    0    0 -0.20800605520E+01  0.25792038120E+02  0.39107464138E+02  0.10327895120E+03  0.92019520358E+02 0.  0.
         23    2    1    2    0    0  0.20800605520E+01 -0.25792038120E+02  0.12920829595E+02  0.92648988460E+02  0.88018926049E+02 0.  0.
          5    1    4    4  502    0 -0.14542321809E+02 -0.55347835433E+02  0.10086334744E+02  0.58298251769E+02  0.47000000000E+01 0.  1.
         -5    1    3    3    0  503 -0.40612534373E+02 -0.53666545497E+01  0.21643982773E+01  0.41291083168E+02  0.47000000000E+01 0.  1.
          5    1    3    3  503    0  0.38532473821E+02  0.31158692670E+02  0.36943065861E+02  0.61987868030E+02  0.47000000000E+01 0. -1.
         -5    1    4    4    0  502  0.16622382361E+02  0.29555797313E+02  0.28344948511E+01  0.34350736691E+02  0.47000000000E+01 0. -1.
<mgrwt>
<rscale>  0 0.94612373E+02</rscale>
<asrwt>0</asrwt>
<pdfrwt beam="1">  1        2 0.19073556E-01 0.95588430E+02</pdfrwt>
<pdfrwt beam="2">  1       -2 0.11069204E-01 0.95588430E+02</pdfrwt>
<totfact> 0.14904880E+04</totfact>
</mgrwt>
</event>
<event>
 8    1  0.3400573E-004  0.1031580E+03  0.7546771E-02  0.1273854E+00
         -2   -1    0    0    0  501 -0.00000000000E+00  0.00000000000E+00  0.40101113303E+02  0.40101113303E+02  0.00000000000E+00 0.  1.
          2   -1    0    0  501    0  0.00000000000E+00 -0.00000000000E+00 -0.26755179176E+03  0.26755179176E+03  0.00000000000E+00 0. -1.
         23    2    1    2    0    0 -0.28712743448E+02  0.39053713218E+02 -0.12866467054E+03  0.16491262870E+03  0.91060219129E+02 0.  0.
         23    2    1    2    0    0  0.28712743448E+02 -0.39053713218E+02 -0.98786007920E+02  0.14274027636E+03  0.90920278175E+02 0.  0.
          5    1    4    4  502    0  0.19469407358E+02 -0.11752846332E+02 -0.10927089960E+03  0.11171126496E+03  0.47000000000E+01 0. -1.
         -5    1    4    4    0  502  0.92433360901E+01 -0.27300866886E+02  0.10484891684E+02  0.31029011400E+02  0.47000000000E+01 0.  1.
          5    1    3    3  503    0  0.63861779898E+01 -0.26717734032E+02 -0.43139910977E+02  0.51359152059E+02  0.47000000000E+01 0. -1.
         -5    1    3    3    0  503 -0.35098921438E+02  0.65771447250E+02 -0.85524759564E+02  0.11355347664E+03  0.47000000000E+01 0.  1.
<mgrwt>
<rscale>  0 0.10312713E+03</rscale>
<asrwt>0</asrwt>
<pdfrwt beam="1">  1        2 0.41161814E-01 0.10315802E+03</pdfrwt>
<pdfrwt beam="2">  1       -2 0.61694021E-02 0.10315802E+03</pdfrwt>
<totfact> 0.16036879E+04</totfact>
</mgrwt>
</event>
<event>
 8    1  0.3400573E-004  0.1421231E+03  0.7546771E-02  0.1211785E+00
          2   -1    0    0  501    0  0.00000000000E+00  0.00000000000E+00  0.53831994281E+03  0.53831994281E+03  0.00000000000E+00 0. -1.
         -2   -1    0    0    0  501 -0.00000000000E+00 -0.00000000000E+00 -0.41033695830E+02  0.41033695830E+02  0.00000000000E+00 0.  1.
         23    2    1    2    0    0  0.81442376309E+02  0.60972397333E+02  0.34172378199E+03  0.36864372253E+03  0.93661929787E+02 0.  0.
         23    2    1    2    0    0 -0.81442376309E+02 -0.60972397333E+02  0.15556246499E+03  0.21070991611E+03  0.99239580492E+02 0.  0.
          5    1    3    3  502    0  0.27097437793E+02 -0.40099518582E+01  0.21086028191E+03  0.21268403639E+03  0.47000000000E+01 0. -1.
         -5    1    4    4    0  503 -0.36349775919E+02 -0.11078416521E+02 -0.30036727306E+01  0.38407675949E+02  0.47000000000E+01 0.  1.
          5    1    4    4  503    0 -0.45092600390E+02 -0.49893980811E+02  0.15856613772E+03  0.17230224016E+03  0.47000000000E+01 0. -1.
         -5    1    3    3    0  502  0.54344938516E+02  0.64982349191E+02  0.13086350008E+03  0.15595968614E+03  0.47000000000E+01 0.  1.
<mgrwt>
<rscale>  0 0.14115402E+03</rscale>
<asrwt>0</asrwt>
<pdfrwt beam="1">  1        2 0.82818448E-01 0.14212314E+03</pdfrwt>
<pdfrwt beam="2">  1       -2 0.63128767E-02 0.14212314E+03</pdfrwt>
<totfact> 0.75226587E+03</totfact>
</mgrwt>
</event>
<event>
 7    1  0.3479784E-004  0.3061167E+03  0.7546771E-02  0.1127873E+00
          1   -1    0    0  501    0  0.00000000000E+00  0.00000000000E+00  0.64429614294E+03  0.64429614294E+03  0.00000000000E+00 0. -1.
         -1   -1    0    0    0  501 -0.00000000000E+00 -0.00000000000E+00 -0.67478102131E+02  0.67478102131E+02  0.00000000000E+00 0.  1.
         23    2    1    2    0    0  0.43219600569E+02 -0.46006069011E+01  0.23269536256E+03  0.25120086063E+03  0.84057368295E+02 0.  0.
          5    1    3    3  502    0  0.68424852494E+00  0.24928747261E+02  0.15898759350E+03  0.16100017244E+03  0.47000000000E+01 0. -1.
         -5    1    3    3    0  502  0.42535352044E+02 -0.29529354162E+02  0.73707769056E+02  0.90200688189E+02  0.47000000000E+01 0.  1.
          5    1    1    2  503    0 -0.90990646189E+02 -0.90563886187E+02  0.32865678451E+03  0.35287177158E+03  0.47000000000E+01 0. -1.
         -5    1    1    2    0  503  0.47771045620E+02  0.95164493088E+02  0.15465893739E+02  0.10770161286E+03  0.47000000000E+01 0.  1.
<mgrwt>
<rscale>  0 0.22825583E+03</rscale>
<asrwt>0</asrwt>
<pdfrwt beam="1">  1        1 0.99122480E-01 0.30611668E+03</pdfrwt>
<pdfrwt beam="2">  1       -1 0.10381247E-01 0.30611668E+03</pdfrwt>
<totfact> 0.18289269E+03</totfact>
</mgrwt>
</event>
<event>
 8    1  0.3400573E-004  0.1726806E+03  0.7546771E-02  0.1175564E+00
          4   -1    0    0  501    0  0.00000000000E+00  0.00000000000E+00  0.57488788672E+02  0.57488788672E+02  0.00000000000E+00 0. -1.
         -4   -1    0    0    0  501 -0.00000000000E+00 -0.00000000000E+00 -0.51324058077E+03  0.51324058077E+03  0.00000000000E+00 0.  1.
         23    2    1    2    0    0 -0.13981833826E+03  0.40610919868E+02 -0.22360799954E+03  0.28252279679E+03  0.92844917594E+02 0.  0.
         23    2    1    2    0    0  0.13981833826E+03 -0.40610919868E+02 -0.23214379255E+03  0.28820657265E+03  0.89296548472E+02 0.  0.
          5    1    4    4  502    0  0.12624346650E+03 -0.62338070368E+02 -0.21493779080E+03  0.25698986705E+03  0.47000000000E+01 0. -1.
         -5    1    4    4    0  502  0.13574871758E+02  0.21727150500E+02 -0.17206001758E+02  0.31216705601E+02  0.47000000000E+01 0.  1.
          5    1    3    3  503    0 -0.13270467703E+03  0.62010347957E+02 -0.17174859906E+03  0.22577751402E+03  0.47000000000E+01 0. -1.
         -5    1    3    3    0  503 -0.71136612315E+01 -0.21399428089E+02 -0.51859400475E+02  0.56745282767E+02  0.47000000000E+01 0.  1.
<mgrwt>
<rscale>  0 0.17220827E+03</rscale>
<asrwt>0</asrwt>
<pdfrwt beam="1">  1        4 0.88444291E-02 0.17268061E+03</pdfrwt>
<pdfrwt beam="2">  1       -4 0.78960089E-01 0.17268061E+03</pdfrwt>
<totfact> 0.23746950E+02</totfact>
</mgrwt>
</event>
<event>
 8    1  0.3400573E-004  0.1109790E+03  0.7546771E-02  0.1259253E+00
          1   -1    0    0  501    0  0.00000000000E+00  0.00000000000E+00  0.39721125236E+03  0.39721125236E+03  0.00000000000E+00 0. -1.
         -1   -1    0    0    0  501 -0.00000000000E+00 -0.00000000000E+00 -0.34652075836E+02  0.34652075836E+02  0.00000000000E+00 0.  1.
         23    2    1    2    0    0  0.10504968357E+02 -0.62266412773E+02  0.25331477190E+03  0.27613706068E+03  0.89976897556E+02 0.  0.
         23    2    1    2    0    0 -0.10504968357E+02  0.62266412773E+02  0.10924440462E+03  0.15572626752E+03  0.91262642606E+02 0.  0.
          5    1    4    4  502    0  0.27225373548E+02  0.22874965774E+01  0.68396752938E+02  0.73801486556E+02  0.47000000000E+01 0. -1.
         -5    1    3    3    0  503 -0.25590518738E+02  0.65519390643E+01  0.33359910793E+02  0.42810935553E+02  0.47000000000E+01 0.  1.
          5    1    3    3  503    0  0.36095487096E+02 -0.68818351838E+02  0.21995486111E+03  0.23332612512E+03  0.47000000000E+01 0. -1.
         -5    1    4    4    0  502 -0.37730341906E+02  0.59978916196E+02  0.40847651687E+02  0.81924780968E+02  0.47000000000E+01 0.  1.
<mgrwt>
<rscale>  0 0.11071430E+03</rscale>
<asrwt>0</asrwt>
<pdfrwt beam="1">  1        1 0.61109420E-01 0.11097896E+03</pdfrwt>
<pdfrwt beam="2">  1       -1 0.53310889E-02 0.11097896E+03</pdfrwt>
<totfact> 0.91483122E+03</totfact>
</mgrwt>
</event>
<event>
 8    1  0.3400573E-004  0.9838411E+02  0.7546771E-02  0.1286429E+00
         -2   -1    0    0    0  501 -0.00000000000E+00  0.00000000000E+00  0.13158377390E+03  0.13158377390E+03  0.00000000000E+00 0.  1.
          2   -1    0    0  501    0  0.00000000000E+00 -0.00000000000E+00 -0.12931255906E+03  0.12931255906E+03  0.00000000000E+00 0. -1.
         23    2    1    2    0    0 -0.55086057202E+01  0.26652616825E+02  0.89486141536E+02  0.12942056981E+03  0.89449469771E+02 0.  0.
         23    2    1    2    0    0  0.55086057202E+01 -0.26652616825E+02 -0.87214926697E+02  0.13147576315E+03  0.94544836644E+02 0.  0.
          5    1    3    3  502    0  0.39786274568E+02  0.25617179266E+02  0.39753499317E+02  0.61980789165E+02  0.47000000000E+01 0. -1.
         -5    1    3    3    0  502 -0.45294880289E+02  0.10354375590E+01  0.49732642219E+02  0.67439780645E+02  0.47000000000E+01 0.  1.
          5    1    4    4  503    0  0.70685077065E+01 -0.52738055959E+02 -0.90124621424E+02  0.10476547014E+03  0.47000000000E+01 0. -1.
         -5    1    4    4    0  503 -0.15599019863E+01  0.26085439134E+02  0.29096947273E+01  0.26710293005E+02  0.47000000000E+01 0.  1.
<mgrwt>
<rscale>  0 0.97139203E+02</rscale>
<asrwt>0</asrwt>
<pdfrwt beam="1">  1        2 0.19894240E-01 0.98384109E+02</pdfrwt>
<pdfrwt beam="2">  1       -2 0.20243658E-01 0.98384109E+02</pdfrwt>
<totfact> 0.53531319E+03</totfact>
</mgrwt>
</event>
<event>
 8    1  0.3400573E-004  0.1362308E+03  0.7546771E-02  0.1221678E+00
         -2   -1    0    0    0  501 -0.00000000000E+00  0.00000000000E+00  0.39582819933E+03  0.39582819933E+03  0.00000000000E+00 0.  1.
          2   -1    0    0  501    0  0.00000000000E+00 -0.00000000000E+00 -0.84562277448E+02  0.84562277448E+02  0.00000000000E+00 0. -1.
         23    2    1    2    0    0  0.88575399607E+02  0.10292110432E+02 -0.13575681781E+02  0.12813929918E+03  0.91015668462E+02 0.  0.
         23    2    1    2    0    0 -0.88575399607E+02 -0.10292110432E+02  0.32484160366E+03  0.35225117760E+03  0.10299172635E+03 0.  0.
          5    1    4    4  502    0 -0.36987588353E+02 -0.42363103325E+02  0.68420316997E+02  0.88691284766E+02  0.47000000000E+01 0. -1.
         -5    1    4    4    0  502 -0.51587811254E+02  0.32070992893E+02  0.25642128667E+03  0.26355989283E+03  0.47000000000E+01 0.  1.
          5    1    3    3  503    0  0.59583582778E+02  0.49338817598E+02 -0.27943697080E+00  0.77502840875E+02  0.47000000000E+01 0. -1.
         -5    1    3    3    0  503  0.28991816829E+02 -0.39046707166E+02 -0.13296244810E+02  0.50636458304E+02  0.47000000000E+01 0.  1.
<mgrwt>
<rscale>  0 0.13397206E+03</rscale>
<asrwt>0</asrwt>
<pdfrwt beam="1">  1        2 0.13009581E-01 0.13623078E+03</pdfrwt>
<pdfrwt beam="2">  1       -2 0.60896645E-01 0.13623078E+03</pdfrwt>
<totfact> 0.11591176E+03</totfact>
</mgrwt>
</event>
<event>
 8    1  0.3400573E-004  0.1318252E+03  0.7546771E-02  0.1226313E+00
         -1   -1    0    0    0  501 -0.00000000000E+00  0.00000000000E+00  0.41709662949E+02  0.41709662949E+02  0.00000000000E+00 0.  1.
          1   -1    0    0  501    0  0.00000000000E+00 -0.00000000000E+00 -0.11146487953E+04  0.11146487953E+04  0.00000000000E+00 0. -1.
         23    2    1    2    0    0 -0.93670801696E+02 -0.20736503748E+02 -0.71591289760E+02  0.14637064865E+03  0.84230827726E+02 0.  0.
         23    2    1    2    0    0  0.93670801696E+02  0.20736503748E+02 -0.10013478426E+04  0.10099878096E+04  0.90408251800E+02 0.  0.
          5    1    4    4  502    0  0.89379051029E+02 -0.14687313129E+02 -0.82734451845E+03  0.83230125203E+03  0.47000000000E+01 0. -1.
         -5    1    3    3    0  503 -0.72520859585E+02  0.11917762784E+02 -0.11362527226E+02  0.74515133830E+02  0.47000000000E+01 0.  1.
          5    1    3    3  503    0 -0.21149942111E+02 -0.32654266532E+02 -0.60228762534E+02  0.71855514823E+02  0.47000000000E+01 0. -1.
         -5    1    4    4    0  502  0.42917506668E+01  0.35423816877E+02 -0.17400332415E+03  0.17768655757E+03  0.47000000000E+01 0.  1.
<mgrwt>
<rscale>  0 0.13077329E+03</rscale>
<asrwt>0</asrwt>
<pdfrwt beam="1">  1        1 0.17148442E+00 0.13182516E+03</pdfrwt>
<pdfrwt beam="2">  1       -1 0.64168716E-02 0.13182516E+03</pdfrwt>
<totfact> 0.15852148E+03</totfact>
</mgrwt>
</event>
<event>
 8    1  0.3400573E-004  0.1004498E+03  0.7546771E-02  0.1283163E+00
          1   -1    0    0  501    0  0.00000000000E+00  0.00000000000E+00  0.30517267328E+03  0.30517267328E+03  0.00000000000E+00 0. -1.
         -1   -1    0    0    0  501 -0.00000000000E+00 -0.00000000000E+00 -0.49054271676E+02  0.49054271676E+02  0.00000000000E+00 0.  1.
         23    2    1    2    0    0  0.78689155805E+01 -0.12106933337E+02  0.23897694478E+03  0.25922989343E+03  0.99406538240E+02 0.  0.
         23    2    1    2    0    0 -0.78689155805E+01  0.12106933337E+02  0.17141456821E+02  0.94997051521E+02  0.92315289029E+02 0.  0.
          5    1    4    4  502    0  0.27100051814E+02  0.17355961167E+02 -0.24092529715E+02  0.40474463362E+02  0.47000000000E+01 0. -1.
         -5    1    4    4    0  502 -0.34968967395E+02 -0.52490278305E+01  0.41233986537E+02  0.54522588159E+02  0.47000000000E+01 0.  1.
          5    1    3    3  503    0  0.36166639850E+02 -0.36213697072E+01  0.22165070323E+03  0.22466033117E+03  0.47000000000E+01 0. -1.
         -5    1    3    3    0  503 -0.28297724269E+02 -0.84855636296E+01  0.17326241545E+02  0.34569562263E+02  0.47000000000E+01 0.  1.
<mgrwt>
<rscale>  0 0.98648913E+02</rscale>
<asrwt>0</asrwt>
<pdfrwt beam="1">  1        1 0.46949641E-01 0.10044978E+03</pdfrwt>
<pdfrwt beam="2">  1       -1 0.75468112E-02 0.10044978E+03</pdfrwt>
<totfact> 0.75115109E+03</totfact>
</mgrwt>
</event>
<event>
 8    1  0.3400573E-004  0.2616054E+03  0.7546771E-02  0.1106290E+00
         -2   -1    0    0    0  501 -0.00000000000E+00  0.00000000000E+00  0.88849923417E+02  0.88849923417E+02  0.00000000000E+00 0.  1.
          2   -1    0    0  501    0  0.00000000000E+00 -0.00000000000E+00 -0.87599070636E+03  0.87599070636E+03  0.00000000000E+00 0. -1.
         23    2    1    2    0    0 -0.55629508906E+02  0.23855127580E+03 -0.22477638023E+03  0.34490838627E+03  0.91847810895E+02 0.  0.
         23    2    1    2    0    0  0.55629508906E+02 -0.23855127580E+03 -0.56236440271E+03  0.61993224350E+03  0.89782579845E+02 0.  0.
          5    1    3    3  502    0 -0.31011360272E+02  0.46556169263E+02 -0.99645142892E+02  0.11436968945E+03  0.47000000000E+01 0. -1.
         -5    1    4    4    0  503  0.35374238057E+02 -0.39751207451E+02 -0.66513324905E+02  0.85308895209E+02  0.47000000000E+01 0.  1.
          5    1    4    4  503    0  0.20255270849E+02 -0.19880006835E+03 -0.49585107781E+03  0.53462334829E+03  0.47000000000E+01 0. -1.
         -5    1    3    3    0  502 -0.24618148634E+02  0.19199510654E+03 -0.12513123733E+03  0.23053869683E+03  0.47000000000E+01 0.  1.
<mgrwt>
<rscale>  0 0.26142571E+03</rscale>
<asrwt>0</asrwt>
<pdfrwt beam="1">  1        2 0.13476780E+00 0.26160538E+03</pdfrwt>
<pdfrwt beam="2">  1       -2 0.13669219E-01 0.26160538E+03</pdfrwt>
<totfact> 0.12591808E+03</totfact>
</mgrwt>
</event>
<event>
 8    1  0.3400573E-004  0.1939268E+03  0.7546771E-02  0.1154982E+00
          1   -1    0    0  501    0  0.00000000000E+00  0.00000000000E+00  0.70148553466E+03  0.70148553466E+03  0.00000000000E+00 0. -1.
         -1   -1    0    0    0  501 -0.00000000000E+00 -0.00000000000E+00 -0.14635138835E+03  0.14635138835E+03  0.00000000000E+00 0.  1.
         23    2    1    2    0    0 -0.17047775979E+03  0.16475841608E+02 -0.59906623925E+02  0.20296893389E+03  0.90958587250E+02 0.  0.
         23    2    1    2    0    0  0.17047775979E+03 -0.16475841608E+02  0.61504077024E+03  0.64486798913E+03  0.90804484490E+02 0.  0.
          5    1    4    4  502    0  0.10292850040E+02 -0.22723552648E+02  0.16848984215E+03  0.17039137160E+03  0.47000000000E+01 0. -1.
         -5    1    4    4    0  502  0.16018490975E+03  0.62477110400E+01  0.44655092809E+03  0.47447661752E+03  0.47000000000E+01 0.  1.
          5    1    3    3  503    0 -0.32198316703E+02  0.34624577270E+02 -0.39803346860E+02  0.61983783128E+02  0.47000000000E+01 0. -1.
         -5    1    3    3    0  503 -0.13827944308E+03 -0.18148735662E+02 -0.20103277065E+02  0.14098515076E+03  0.47000000000E+01 0.  1.
<mgrwt>
<rscale>  0 0.19390869E+03</rscale>
<asrwt>0</asrwt>
<pdfrwt beam="1">  1        1 0.10792085E+00 0.19392675E+03</pdfrwt>
<pdfrwt beam="2">  1       -1 0.22515599E-01 0.19392675E+03</pdfrwt>
<totfact> 0.47160685E+02</totfact>
</mgrwt>
</event>
<event>
 8    1  0.3400573E-004  0.1013327E+03  0.7546771E-02  0.1278516E+00
          1   -1    0    0  501    0  0.00000000000E+00  0.00000000000E+00  0.46075330407E+03  0.46075330407E+03  0.00000000000E+00 0. -1.
         -1   -1    0    0    0  501 -0.00000000000E+00 -0.00000000000E+00 -0.22194197688E+02  0.22194197688E+02  0.00000000000E+00 0.  1.
         23    2    1    2    0    0 -0.62775195100E+01 -0.38555206949E+02  0.24652750627E+03  0.26581978734E+03  0.91424486638E+02 0.  0.
         23    2    1    2    0    0  0.62775195100E+01  0.38555206949E+02  0.19203160011E+03  0.21712771442E+03  0.93500789806E+02 0.  0.
          5    1    4    4  502    0 -0.37702141443E+02  0.14821580048E+02  0.13560986039E+03  0.14160951571E+03  0.47000000000E+01 0. -1.
         -5    1    4    4    0  502  0.43979660953E+02  0.23733626901E+02  0.56421739717E+02  0.75518198708E+02  0.47000000000E+01 0.  1.
          5    1    3    3  503    0 -0.26688826512E+02 -0.62151002861E+02  0.17271448508E+03  0.18554628526E+03  0.47000000000E+01 0.  1.
         -5    1    3    3    0  503  0.20411307002E+02  0.23595795911E+02  0.73813021189E+02  0.80273502074E+02  0.47000000000E+01 0. -1.
<mgrwt>
<rscale>  0 0.10085109E+03</rscale>
<asrwt>0</asrwt>
<pdfrwt beam="1">  1        1 0.70885117E-01 0.10133266E+03</pdfrwt>
<pdfrwt beam="2">  1       -1 0.34144923E-02 0.10133266E+03</pdfrwt>
<totfact> 0.14443889E+04</totfact>
</mgrwt>
</event>
<event>
 8    1  0.3400573E-004  0.1097025E+03  0.7546771E-02  0.1263038E+00
          1   -1    0    0  501    0  0.00000000000E+00  0.00000000000E+00  0.47883894616E+03  0.47883894616E+03  0.00000000000E+00 0. -1.
         -1   -1    0    0    0  501 -0.00000000000E+00 -0.00000000000E+00 -0.37028032350E+02  0.37028032350E+02  0.00000000000E+00 0.  1.
         23    2    1    2    0    0 -0.54771328908E+02 -0.77619405449E+01  0.71908945626E+02  0.13116990965E+03  0.94733851099E+02 0.  0.
         23    2    1    2    0    0  0.54771328908E+02  0.77619405449E+01  0.36990196819E+03  0.38469706887E+03  0.90023455473E+02 0.  0.
          5    1    3    3  502    0 -0.54014590263E+02  0.28673216774E+02  0.71793034036E+02  0.94424885796E+02  0.47000000000E+01 0. -1.
         -5    1    3    3    0  502 -0.75673864503E+00 -0.36435157319E+02  0.11591159005E+00  0.36745023850E+02  0.47000000000E+01 0.  1.
          5    1    4    4  503    0  0.29770995625E+02  0.48051438302E+02  0.23051329509E+03  0.23738938923E+03  0.47000000000E+01 0. -1.
         -5    1    4    4    0  503  0.25000333283E+02 -0.40289497758E+02  0.13938867309E+03  0.14730767964E+03  0.47000000000E+01 0.  1.
<mgrwt>
<rscale>  0 0.10867804E+03</rscale>
<asrwt>0</asrwt>
<pdfrwt beam="1">  1        1 0.73667526E-01 0.10970255E+03</pdfrwt>
<pdfrwt beam="2">  1       -1 0.56966207E-02 0.10970255E+03</pdfrwt>
<totfact> 0.65422601E+03</totfact>
</mgrwt>
</event>
<event>
 8    1  0.3400573E-004  0.1084255E+03  0.7546771E-02  0.1264363E+00
         -1   -1    0    0    0  501 -0.00000000000E+00  0.00000000000E+00  0.11470306369E+03  0.11470306369E+03  0.00000000000E+00 0.  1.
          1   -1    0    0  501    0  0.00000000000E+00 -0.00000000000E+00 -0.11229972733E+03  0.11229972733E+03  0.00000000000E+00 0. -1.
         23    2    1    2    0    0  0.53375077951E+02  0.11609194713E+02 -0.35107303519E+02  0.11227211131E+03  0.91590566484E+02 0.  0.
         23    2    1    2    0    0 -0.53375077951E+02 -0.11609194713E+02  0.37510639877E+02  0.11473067971E+03  0.93661136092E+02 0.  0.
          5    1    4    4  502    0 -0.74830219904E+02 -0.28999736289E+02  0.26851982709E+02  0.84756507073E+02  0.47000000000E+01 0. -1.
         -5    1    3    3    0  503  0.74402456559E+02 -0.10542139571E+02 -0.20157831825E+02  0.77944149445E+02  0.47000000000E+01 0.  1.
          5    1    3    3  503    0 -0.21027378608E+02  0.22151334284E+02 -0.14949471693E+02  0.34327961862E+02  0.47000000000E+01 0. -1.
         -5    1    4    4    0  502  0.21455141953E+02  0.17390541576E+02  0.10658657168E+02  0.29974172635E+02  0.47000000000E+01 0.  1.
<mgrwt>
<rscale>  0 0.10797681E+03</rscale>
<asrwt>0</asrwt>
<pdfrwt beam="1">  1        1 0.17276881E-01 0.10842546E+03</pdfrwt>
<pdfrwt beam="2">  1       -1 0.17646625E-01 0.10842546E+03</pdfrwt>
<totfact> 0.71199082E+03</totfact>
</mgrwt>
</event>
<event>
 8    1  0.3400573E-004  0.9344692E+02  0.7546771E-02  0.1296482E+00
         -1   -1    0    0    0  501 -0.00000000000E+00  0.00000000000E+00  0.11380793874E+03  0.11380793874E+03  0.00000000000E+00 0.  1.
          1   -1    0    0  501    0  0.00000000000E+00 -0.00000000000E+00 -0.77570881904E+02  0.77570881904E+02  0.00000000000E+00 0. -1.
         23    2    1    2    0    0  0.18667395735E+01 -0.46447954723E+00  0.38143453982E+02  0.10093190434E+03  0.93427114768E+02 0.  0.
         23    2    1    2    0    0 -0.18667395735E+01  0.46447954723E+00 -0.19063971503E+01  0.90446916301E+02  0.90406359624E+02 0.  0.
          5    1    4    4  502    0 -0.40328850352E+02  0.27440672786E+01 -0.22506932051E+02  0.46503742498E+02  0.47000000000E+01 0. -1.
         -5    1    4    4    0  502  0.38462110778E+02 -0.22795877314E+01  0.20600534900E+02  0.43943173804E+02  0.47000000000E+01 0.  1.
          5    1    3    3  503    0  0.17023720575E+02 -0.38912984282E+02  0.41024173141E+02  0.59237658545E+02  0.47000000000E+01 0. -1.
         -5    1    3    3    0  503 -0.15156981002E+02  0.38448504735E+02 -0.28807191597E+01  0.41694245794E+02  0.47000000000E+01 0.  1.
<mgrwt>
<rscale>  0 0.92682566E+02</rscale>
<asrwt>0</asrwt>
<pdfrwt beam="1">  1        1 0.11933982E-01 0.93446917E+02</pdfrwt>
<pdfrwt beam="2">  1       -1 0.17508914E-01 0.93446917E+02</pdfrwt>
<totfact> 0.11449731E+04</totfact>
</mgrwt>
</event>
<event>
 8    1  0.3400573E-004  0.9286078E+02  0.7546771E-02  0.1298270E+00
         -1   -1    0    0    0  501 -0.00000000000E+00  0.00000000000E+00  0.22768797244E+03  0.22768797244E+03  0.00000000000E+00 0.  1.
          1   -1    0    0  501    0  0.00000000000E+00 -0.00000000000E+00 -0.53677085433E+02  0.53677085433E+02  0.00000000000E+00 0. -1.
         23    2    1    2    0    0  0.88786818911E+01  0.16440408586E+02  0.16566598814E+03  0.18813007274E+03  0.87169872196E+02 0.  0.
         23    2    1    2    0    0 -0.88786818911E+01 -0.16440408586E+02  0.83448988698E+01  0.93234985128E+02  0.90961569292E+02 0.  0.
          5    1    4    4  502    0  0.29356621328E+02  0.23051212386E+02  0.15839007283E+01  0.37653264796E+02  0.47000000000E+01 0. -1.
         -5    1    3    3    0  503 -0.24473359165E+02  0.39469358662E+01  0.14396701475E+03  0.14616126350E+03  0.47000000000E+01 0.  1.
          5    1    3    3  503    0  0.33352041056E+02  0.12493472719E+02  0.21698973380E+02  0.41968809239E+02  0.47000000000E+01 0. -1.
         -5    1    4    4    0  502 -0.38235303219E+02 -0.39491620972E+02  0.67609981415E+01  0.55581720332E+02  0.47000000000E+01 0.  1.
<mgrwt>
<rscale>  0 0.91918827E+02</rscale>
<asrwt>0</asrwt>
<pdfrwt beam="1">  1        1 0.82580133E-02 0.92860784E+02</pdfrwt>
<pdfrwt beam="2">  1       -1 0.35028918E-01 0.92860784E+02</pdfrwt>
<totfact> 0.59959625E+03</totfact>
</mgrwt>
</event>
<event>
 8    1  0.3400573E-004  0.3212530E+03  0.7546771E-02  0.1075146E+00
         -2   -1    0    0    0  501 -0.00000000000E+00  0.00000000000E+00  0.82855987646E+02  0.82855987646E+02  0.00000000000E+00 0.  1.
          2   -1    0    0  501    0  0.00000000000E+00 -0.00000000000E+00 -0.13303812965E+04  0.13303812965E+04  0.00000000000E+00 0. -1.
         23    2    1    2    0    0  0.92201206432E+01 -0.30715245107E+03 -0.44224540042E+03  0.54624292265E+03  0.91502445462E+02 0.  0.
         23    2    1    2    0    0 -0.92201206432E+01  0.30715245107E+03 -0.80527990845E+03  0.86699436151E+03  0.93679523493E+02 0.  0.
          5    1    4    4  502    0  0.21806588214E+02  0.60623784317E+02 -0.25745437544E+03  0.26543476778E+03  0.47000000000E+01 0. -1.
         -5    1    3    3    0  503 -0.14589513027E+02 -0.10053401682E+03 -0.21685632414E+03  0.23951763557E+03  0.47000000000E+01 0.  1.
          5    1    3    3  503    0  0.23809633670E+02 -0.20661843425E+03 -0.22538907628E+03  0.30672528708E+03  0.47000000000E+01 0. -1.
         -5    1    4    4    0  502 -0.31026708857E+02  0.24652866675E+03 -0.54782553301E+03  0.60155959373E+03  0.47000000000E+01 0.  1.
<mgrwt>
<rscale>  0 0.32109587E+03</rscale>
<asrwt>0</asrwt>
<pdfrwt beam="1">  1        2 0.20467405E+00 0.32125300E+03</pdfrwt>
<pdfrwt beam="2">  1       -2 0.12747075E-01 0.32125300E+03</pdfrwt>
<totfact> 0.75510483E+02</totfact>
</mgrwt>
</event>
<event>
 8    1  0.3400573E-004  0.9172601E+02  0.7546771E-02  0.1299612E+00
         -1   -1    0    0    0  501 -0.00000000000E+00  0.00000000000E+00  0.78694775605E+02  0.78694775605E+02  0.00000000000E+00 0.  1.
          1   -1    0    0  501    0  0.00000000000E+00 -0.00000000000E+00 -0.12145496547E+03  0.12145496547E+03  0.00000000000E+00 0. -1.
         23    2    1    2    0    0 -0.44862542899E+01  0.60701446858E+01  0.15398560940E+02  0.91539885886E+02  0.89919196476E+02 0.  0.
         23    2    1    2    0    0  0.44862542899E+01 -0.60701446858E+01 -0.58158750809E+02  0.10860985519E+03  0.91414917905E+02 0.  0.
          5    1    4    4  502    0  0.28745645911E+02  0.23605572585E+02 -0.59091684075E+02  0.69981800082E+02  0.47000000000E+01 0. -1.
         -5    1    4    4    0  502 -0.24259391621E+02 -0.29675717271E+02  0.93293326554E+00  0.38628055113E+02  0.47000000000E+01 0.  1.
          5    1    3    3  503    0  0.22889146941E+02 -0.24575279687E+02 -0.17987881455E+02  0.38386342605E+02  0.47000000000E+01 0. -1.
         -5    1    3    3    0  503 -0.27375401230E+02  0.30645424373E+02  0.33386442394E+02  0.53153543281E+02  0.47000000000E+01 0.  1.
<mgrwt>
<rscale>  0 0.91351073E+02</rscale>
<asrwt>0</asrwt>
<pdfrwt beam="1">  1        1 0.18685379E-01 0.91726007E+02</pdfrwt>
<pdfrwt beam="2">  1       -1 0.12106889E-01 0.91726007E+02</pdfrwt>
<totfact> 0.11399885E+04</totfact>
</mgrwt>
</event>
<event>
 8    1  0.3400573E-004  0.9429969E+02  0.7546771E-02  0.1293636E+00
          4   -1    0    0  501    0  0.00000000000E+00  0.00000000000E+00  0.86341623614E+01  0.86341623614E+01  0.00000000000E+00 0. -1.
         -4   -1    0    0    0  501 -0.00000000000E+00 -0.00000000000E+00 -0.10223730979E+04  0.10223730979E+04  0.00000000000E+00 0.  1.
         23    2    1    2    0    0  0.17355736577E+02 -0.51258382359E+01 -0.55126165535E+03  0.55901396891E+03  0.90992906131E+02 0.  0.
         23    2    1    2    0    0 -0.17355736577E+02  0.51258382359E+01 -0.46247728020E+03  0.47199329136E+03  0.92546942584E+02 0.  0.
          5    1    3    3  502    0  0.48081415927E+02  0.11465652227E+02 -0.42624095350E+03  0.42912320397E+03  0.47000000000E+01 0. -1.
         -5    1    4    4    0  503 -0.36550633494E+02  0.33061420910E+02 -0.37166465860E+03  0.37494761609E+03  0.47000000000E+01 0.  1.
          5    1    4    4  503    0  0.19194896917E+02 -0.27935582674E+02 -0.90812621600E+02  0.97045675271E+02  0.47000000000E+01 0. -1.
         -5    1    3    3    0  502 -0.30725679349E+02 -0.16591490462E+02 -0.12502070185E+03  0.12989076494E+03  0.47000000000E+01 0.  1.
<mgrwt>
<rscale>  0 0.93916193E+02</rscale>
<asrwt>0</asrwt>
<pdfrwt beam="1">  1        4 0.13283326E-02 0.94299695E+02</pdfrwt>
<pdfrwt beam="2">  1       -4 0.15728818E+00 0.94299695E+02</pdfrwt>
<totfact> 0.82533248E+02</totfact>
</mgrwt>
</event>
<event>
 8    1  0.3400573E-004  0.2476014E+03  0.7546771E-02  0.1114863E+00
          2   -1    0    0  501    0  0.00000000000E+00  0.00000000000E+00  0.66198305531E+03  0.66198305531E+03  0.00000000000E+00 0. -1.
         -2   -1    0    0    0  501 -0.00000000000E+00 -0.00000000000E+00 -0.16116025198E+03  0.16116025198E+03  0.00000000000E+00 0.  1.
         23    2    1    2    0    0 -0.20538044460E+03 -0.10418589546E+03 -0.18101126758E+02  0.24826219348E+03  0.90943048578E+02 0.  0.
         23    2    1    2    0    0  0.20538044460E+03  0.10418589546E+03  0.51892393009E+03  0.57488111382E+03  0.90390386484E+02 0.  0.
          5    1    3    3  502    0 -0.64076684163E+02  0.10918919472E+02 -0.81547578842E+01  0.65678263771E+02  0.47000000000E+01 0. -1.
         -5    1    3    3    0  502 -0.14130376044E+03 -0.11510481493E+03 -0.99463688740E+01  0.18258392971E+03  0.47000000000E+01 0.  1.
          5    1    4    4  503    0  0.18503300555E+03  0.11905245482E+03  0.48272815257E+03  0.53052734089E+03  0.47000000000E+01 0. -1.
         -5    1    4    4    0  503  0.20347439052E+02 -0.14866559362E+02  0.36195777511E+02  0.44353772927E+02  0.47000000000E+01 0.  1.
<mgrwt>
<rscale>  0 0.24755080E+03</rscale>
<asrwt>0</asrwt>
<pdfrwt beam="1">  1        2 0.10184355E+00 0.24760143E+03</pdfrwt>
<pdfrwt beam="2">  1       -2 0.24793885E-01 0.24760143E+03</pdfrwt>
<totfact> 0.65076480E+02</totfact>
</mgrwt>
</event>
<event>
 8    1  0.3400573E-004  0.9460350E+02  0.7546771E-02  0.1293480E+00
         -2   -1    0    0    0  501 -0.00000000000E+00  0.00000000000E+00  0.92132526808E+02  0.92132526808E+02  0.00000000000E+00 0.  1.
          2   -1    0    0  501    0  0.00000000000E+00 -0.00000000000E+00 -0.95865750636E+02  0.95865750636E+02  0.00000000000E+00 0. -1.
         23    2    1    2    0    0  0.71809218676E+01 -0.39463699698E+00  0.87890824506E+01  0.92569610096E+02  0.91870361738E+02 0.  0.
         23    2    1    2    0    0 -0.71809218676E+01  0.39463699698E+00 -0.12522306279E+02  0.95428667348E+02  0.94329746210E+02 0.  0.
          5    1    4    4  502    0 -0.49238959075E+02  0.11634319415E+02 -0.71585699036E+01  0.51314399559E+02  0.47000000000E+01 0. -1.
         -5    1    4    4    0  502  0.42058037208E+02 -0.11239682418E+02 -0.53637363753E+01  0.44114267789E+02  0.47000000000E+01 0.  1.
          5    1    3    3  503    0 -0.32008577153E+02 -0.23826493660E+02 -0.12350290942E+02  0.42034158703E+02  0.47000000000E+01 0. -1.
         -5    1    3    3    0  503  0.39189499021E+02  0.23431856663E+02  0.21139373392E+02  0.50535451394E+02  0.47000000000E+01 0.  1.
<mgrwt>
<rscale>  0 0.93984431E+02</rscale>
<asrwt>0</asrwt>
<pdfrwt beam="1">  1        2 0.14748577E-01 0.94603501E+02</pdfrwt>
<pdfrwt beam="2">  1       -2 0.14174235E-01 0.94603501E+02</pdfrwt>
<totfact> 0.13483580E+04</totfact>
</mgrwt>
</event>
<event>
 8    1  0.3400573E-004  0.1122447E+03  0.7546771E-02  0.1258733E+00
          1   -1    0    0  501    0  0.00000000000E+00  0.00000000000E+00  0.18869693233E+03  0.18869693233E+03  0.00000000000E+00 0. -1.
         -1   -1    0    0    0  501 -0.00000000000E+00 -0.00000000000E+00 -0.66339436158E+02  0.66339436158E+02  0.00000000000E+00 0.  1.
         23    2    1    2    0    0  0.12198852885E+02 -0.61516452877E+02  0.84397947132E+02  0.13654673363E+03  0.87114355864E+02 0.  0.
         23    2    1    2    0    0 -0.12198852885E+02  0.61516452877E+02  0.37959549042E+02  0.11848963486E+03  0.93090172524E+02 0.  0.
          5    1    3    3  502    0  0.70111961242E+01 -0.20663779537E+02  0.91772231745E+02  0.94447769562E+02  0.47000000000E+01 0. -1.
         -5    1    3    3    0  502  0.51876567608E+01 -0.40852673340E+02 -0.73742846127E+01  0.42098964064E+02  0.47000000000E+01 0.  1.
          5    1    4    4  503    0 -0.46321000652E+02  0.13462680335E+02  0.34061026354E+02  0.59237845838E+02  0.47000000000E+01 0. -1.
         -5    1    4    4    0  503  0.34122147767E+02  0.48053772542E+02  0.38985226874E+01  0.59251789027E+02  0.47000000000E+01 0.  1.
<mgrwt>
<rscale>  0 0.11099803E+03</rscale>
<asrwt>0</asrwt>
<pdfrwt beam="1">  1        1 0.29030297E-01 0.11224467E+03</pdfrwt>
<pdfrwt beam="2">  1       -1 0.10206067E-01 0.11224467E+03</pdfrwt>
<totfact> 0.86824174E+03</totfact>
</mgrwt>
</event>
<event>
 8    1  0.3400573E-004  0.1118297E+03  0.7546771E-02  0.1265812E+00
          2   -1    0    0  501    0  0.00000000000E+00  0.00000000000E+00  0.30038319197E+03  0.30038319197E+03  0.00000000000E+00 0. -1.
         -2   -1    0    0    0  501 -0.00000000000E+00 -0.00000000000E+00 -0.19455036427E+03  0.19455036427E+03  0.00000000000E+00 0.  1.
         23    2    1    2    0    0  0.45650120106E+01 -0.64368236899E+02 -0.17155268345E+03  0.19585398052E+03  0.69024265504E+02 0.  0.
         23    2    1    2    0    0 -0.45650120106E+01  0.64368236899E+02  0.27738551115E+03  0.29907957572E+03  0.91333244566E+02 0.  0.
          5    1    3    3  502    0 -0.21434530137E+02 -0.34541776004E+02 -0.13743218538E+03  0.14339549836E+03  0.47000000000E+01 0.  1.
         -5    1    4    4    0  503 -0.32840923656E+02  0.14832219697E+02  0.36565454897E+02  0.51552337479E+02  0.47000000000E+01 0.  1.
          5    1    4    4  503    0  0.28275911645E+02  0.49536017202E+02  0.24082005625E+03  0.24752723824E+03  0.47000000000E+01 0. -1.
         -5    1    3    3    0  502  0.25999542147E+02 -0.29826460895E+02 -0.34120498070E+02  0.52458482154E+02  0.47000000000E+01 0. -1.
<mgrwt>
<rscale>  0 0.10721728E+03</rscale>
<asrwt>0</asrwt>
<pdfrwt beam="1">  1        2 0.46212799E-01 0.11182965E+03</pdfrwt>
<pdfrwt beam="2">  1       -2 0.29930825E-01 0.11182965E+03</pdfrwt>
<totfact> 0.11028216E+03</totfact>
</mgrwt>
</event>
<event>
 8    1  0.3400573E-004  0.2141249E+03  0.7546771E-02  0.1138574E+00
         -3   -1    0    0    0  501 -0.00000000000E+00  0.00000000000E+00  0.40236424818E+02  0.40236424818E+02  0.00000000000E+00 0.  1.
          3   -1    0    0  501    0  0.00000000000E+00 -0.00000000000E+00 -0.12895273458E+04  0.12895273458E+04  0.00000000000E+00 0. -1.
         23    2    1    2    0    0  0.15291668653E+03  0.11697489331E+03 -0.85466831452E+03  0.88079107880E+03  0.90930511777E+02 0.  0.
         23    2    1    2    0    0 -0.15291668653E+03 -0.11697489331E+03 -0.39462260649E+03  0.44897269185E+03  0.93716795647E+02 0.  0.
          5    1    4    4  502    0 -0.14110710441E+03 -0.94356943357E+02 -0.38588413288E+03  0.42159589855E+03  0.47000000000E+01 0. -1.
         -5    1    4    4    0  502 -0.11809582120E+02 -0.22617949950E+02 -0.87384736187E+01  0.27376793292E+02  0.47000000000E+01 0.  1.
          5    1    3    3  503    0  0.18864477840E+02 -0.15135323068E+02 -0.10207200873E+03  0.10500348325E+03  0.47000000000E+01 0. -1.
         -5    1    3    3    0  503  0.13405220869E+03  0.13211021637E+03 -0.75259630579E+03  0.77578759555E+03  0.47000000000E+01 0.  1.
<mgrwt>
<rscale>  0 0.21382309E+03</rscale>
<asrwt>0</asrwt>
<pdfrwt beam="1">  1        3 0.19838882E+00 0.21412491E+03</pdfrwt>
<pdfrwt beam="2">  1       -3 0.61902193E-02 0.21412491E+03</pdfrwt>
<totfact> 0.65476593E+01</totfact>
</mgrwt>
</event>
<event>
 8    1  0.3400573E-004  0.9255403E+02  0.7546771E-02  0.1296998E+00
          1   -1    0    0  501    0  0.00000000000E+00  0.00000000000E+00  0.30536017790E+02  0.30536017790E+02  0.00000000000E+00 0. -1.
         -1   -1    0    0    0  501 -0.00000000000E+00 -0.00000000000E+00 -0.28304903999E+03  0.28304903999E+03  0.00000000000E+00 0.  1.
         23    2    1    2    0    0 -0.11540138565E+02  0.32526306498E+01 -0.10872717680E+03  0.14278601675E+03  0.91774142326E+02 0.  0.
         23    2    1    2    0    0  0.11540138565E+02 -0.32526306498E+01 -0.14378584539E+03  0.17079904103E+03  0.91401250953E+02 0.  0.
          5    1    3    3  502    0  0.29345040238E+02 -0.27075849785E+02 -0.36524733769E+02  0.54317393209E+02  0.47000000000E+01 0. -1.
         -5    1    3    3    0  502 -0.40885178803E+02  0.30328480434E+02 -0.72202443032E+02  0.88468623540E+02  0.47000000000E+01 0.  1.
          5    1    4    4  503    0 -0.25116065354E+02 -0.29706863509E+02 -0.10118015271E+03  0.10850266255E+03  0.47000000000E+01 0. -1.
         -5    1    4    4    0  503  0.36656203919E+02  0.26454232859E+02 -0.42605692681E+02  0.62296378472E+02  0.47000000000E+01 0.  1.
<mgrwt>
<rscale>  0 0.92461452E+02</rscale>
<asrwt>0</asrwt>
<pdfrwt beam="1">  1        1 0.46978492E-02 0.92554025E+02</pdfrwt>
<pdfrwt beam="2">  1       -1 0.43546003E-01 0.92554025E+02</pdfrwt>
<totfact> 0.87612290E+03</totfact>
</mgrwt>
</event>
<event>
 8    1  0.3400573E-004  0.1107460E+03  0.7546771E-02  0.1260181E+00
          2   -1    0    0  501    0  0.00000000000E+00  0.00000000000E+00  0.69661219217E+03  0.69661219217E+03  0.00000000000E+00 0. -1.
         -2   -1    0    0    0  501 -0.00000000000E+00 -0.00000000000E+00 -0.18022536611E+02  0.18022536611E+02  0.00000000000E+00 0.  1.
         23    2    1    2    0    0 -0.11257611928E+02  0.59157796488E+02  0.26311615438E+03  0.28465460111E+03  0.90397746260E+02 0.  0.
         23    2    1    2    0    0  0.11257611928E+02 -0.59157796488E+02  0.41547350119E+03  0.42998012767E+03  0.92942462269E+02 0.  0.
          5    1    4    4  502    0  0.43621050776E+02 -0.55970080852E+02  0.20564629236E+03  0.21759580323E+03  0.47000000000E+01 0. -1.
         -5    1    4    4    0  502 -0.32363438849E+02 -0.31877156366E+01  0.20982720883E+03  0.21238432444E+03  0.47000000000E+01 0.  1.
          5    1    3    3  503    0 -0.36830974941E+02  0.44933712547E+02  0.24025293816E+03  0.24722282162E+03  0.47000000000E+01 0. -1.
         -5    1    3    3    0  503  0.25573363013E+02  0.14224083942E+02  0.22863216219E+02  0.37431779488E+02  0.47000000000E+01 0.  1.
<mgrwt>
<rscale>  0 0.11021044E+03</rscale>
<asrwt>0</asrwt>
<pdfrwt beam="1">  1        2 0.10717109E+00 0.11074602E+03</pdfrwt>
<pdfrwt beam="2">  1       -2 0.27726985E-02 0.11074602E+03</pdfrwt>
<totfact> 0.18717402E+04</totfact>
</mgrwt>
</event>
<event>
 8    1  0.3400573E-004  0.1394406E+03  0.7546771E-02  0.1214321E+00
          1   -1    0    0  501    0  0.00000000000E+00  0.00000000000E+00  0.16418910228E+03  0.16418910228E+03  0.00000000000E+00 0. -1.
         -1   -1    0    0    0  501 -0.00000000000E+00 -0.00000000000E+00 -0.13405957183E+03  0.13405957183E+03  0.00000000000E+00 0.  1.
         23    2    1    2    0    0 -0.19395052484E+02  0.10308106218E+03 -0.36855073005E+02  0.14355341419E+03  0.90815267872E+02 0.  0.
         23    2    1    2    0    0  0.19395052484E+02 -0.10308106218E+03  0.66984603452E+02  0.15469525992E+03  0.91879338810E+02 0.  0.
          5    1    4    4  502    0  0.10340042623E+02 -0.60794876646E+02  0.87055981966E+02  0.10678842402E+03  0.47000000000E+01 0. -1.
         -5    1    3    3    0  503  0.21818811131E+02  0.92758779342E+02 -0.19276642226E+02  0.97334118374E+02  0.47000000000E+01 0.  1.
          5    1    3    3  503    0 -0.41213863615E+02  0.10322282836E+02 -0.17578430779E+02  0.46219295815E+02  0.47000000000E+01 0. -1.
         -5    1    4    4    0  502  0.90550098617E+01 -0.42286185531E+02 -0.20071378514E+02  0.47906835899E+02  0.47000000000E+01 0.  1.
<mgrwt>
<rscale>  0 0.13926558E+03</rscale>
<asrwt>0</asrwt>
<pdfrwt beam="1">  1        1 0.25259862E-01 0.13944062E+03</pdfrwt>
<pdfrwt beam="2">  1       -1 0.20624550E-01 0.13944062E+03</pdfrwt>
<totfact> 0.34911908E+03</totfact>
</mgrwt>
</event>
<event>
 8    1  0.3400573E-004  0.1448860E+03  0.7546771E-02  0.1207198E+00
         -2   -1    0    0    0  501 -0.00000000000E+00  0.00000000000E+00  0.36349877822E+02  0.36349877822E+02  0.00000000000E+00 0.  1.
          2   -1    0    0  501    0  0.00000000000E+00 -0.00000000000E+00 -0.61017530652E+03  0.61017530652E+03  0.00000000000E+00 0. -1.
         23    2    1    2    0    0  0.39473769087E+02 -0.10441279516E+03 -0.20716509582E+03  0.25227685260E+03  0.90917672619E+02 0.  0.
         23    2    1    2    0    0 -0.39473769087E+02  0.10441279516E+03 -0.36666033288E+03  0.39424833174E+03  0.92367402970E+02 0.  0.
          5    1    4    4  502    0 -0.66834171578E+02  0.92902936217E+02 -0.30017529546E+03  0.32128656999E+03  0.47000000000E+01 0. -1.
         -5    1    4    4    0  502  0.27360402491E+02  0.11509858944E+02 -0.66485037416E+02  0.72961761750E+02  0.47000000000E+01 0.  1.
          5    1    3    3  503    0 -0.18467423809E+02 -0.77448356946E+02 -0.10958740843E+03  0.13553886462E+03  0.47000000000E+01 0. -1.
         -5    1    3    3    0  503  0.57941192896E+02 -0.26964438215E+02 -0.97577687388E+02  0.11673798798E+03  0.47000000000E+01 0.  1.
<mgrwt>
<rscale>  0 0.14465546E+03</rscale>
<asrwt>0</asrwt>
<pdfrwt beam="1">  1        2 0.93873123E-01 0.14488598E+03</pdfrwt>
<pdfrwt beam="2">  1       -2 0.55922890E-02 0.14488598E+03</pdfrwt>
<totfact> 0.78580559E+03</totfact>
</mgrwt>
</event>
<event>
 8    1  0.3400573E-004  0.9277183E+02  0.7546771E-02  0.1297332E+00
          3   -1    0    0  501    0  0.00000000000E+00  0.00000000000E+00  0.13059274476E+03  0.13059274476E+03  0.00000000000E+00 0. -1.
         -3   -1    0    0    0  501 -0.00000000000E+00 -0.00000000000E+00 -0.71981601962E+02  0.71981601962E+02  0.00000000000E+00 0.  1.
         23    2    1    2    0    0 -0.36550619234E+01  0.13477749687E+02  0.61411545594E+02  0.10976025638E+03  0.89893974962E+02 0.  0.
         23    2    1    2    0    0  0.36550619234E+01 -0.13477749687E+02 -0.28004027971E+01  0.92814090340E+02  0.91714796492E+02 0.  0.
          5    1    4    4  502    0 -0.19095812467E+02 -0.29069715235E+02  0.32457004627E+02  0.47804241935E+02  0.47000000000E+01 0. -1.
         -5    1    3    3    0  503  0.26792645142E+02  0.36980819886E+02  0.52981826973E+02  0.70104142977E+02  0.47000000000E+01 0.  1.
          5    1    3    3  503    0 -0.30447707065E+02 -0.23503070199E+02  0.84297186214E+01  0.39656113405E+02  0.47000000000E+01 0. -1.
         -5    1    4    4    0  502  0.22750874390E+02  0.15591965548E+02 -0.35257407424E+02  0.45009848405E+02  0.47000000000E+01 0.  1.
<mgrwt>
<rscale>  0 0.92318608E+02</rscale>
<asrwt>0</asrwt>
<pdfrwt beam="1">  1        3 0.20091191E-01 0.92771834E+02</pdfrwt>
<pdfrwt beam="2">  1       -3 0.11074093E-01 0.92771834E+02</pdfrwt>
<totfact> 0.29347504E+03</totfact>
</mgrwt>
</event>
<event>
 8    1  0.3400573E-004  0.1453201E+03  0.7546771E-02  0.1207227E+00
         -2   -1    0    0    0  501 -0.00000000000E+00  0.00000000000E+00  0.40627736423E+02  0.40627736423E+02  0.00000000000E+00 0.  1.
          2   -1    0    0  501    0  0.00000000000E+00 -0.00000000000E+00 -0.56506617622E+03  0.56506617622E+03  0.00000000000E+00 0. -1.
         23    2    1    2    0    0 -0.67343064076E+02 -0.90246965891E+02 -0.16550647635E+03  0.21846001116E+03  0.87480167081E+02 0.  0.
         23    2    1    2    0    0  0.67343064076E+02  0.90246965891E+02 -0.35893196345E+03  0.38723390148E+03  0.91860420958E+02 0.  0.
          5    1    3    3  502    0 -0.31229099352E+02  0.44955438252E-01 -0.89612097524E+02  0.95014086797E+02  0.47000000000E+01 0. -1.
         -5    1    4    4    0  503  0.77480862595E+02  0.30230119370E+02 -0.18469729971E+03  0.20261373770E+03  0.47000000000E+01 0.  1.
          5    1    4    4  503    0 -0.10137798519E+02  0.60016846521E+02 -0.17423466374E+03  0.18462016378E+03  0.47000000000E+01 0. -1.
         -5    1    3    3    0  502 -0.36113964724E+02 -0.90291921329E+02 -0.75894378825E+02  0.12344592437E+03  0.47000000000E+01 0.  1.
<mgrwt>
<rscale>  0 0.14463316E+03</rscale>
<asrwt>0</asrwt>
<pdfrwt beam="1">  1        2 0.86933253E-01 0.14532013E+03</pdfrwt>
<pdfrwt beam="2">  1       -2 0.62504214E-02 0.14532013E+03</pdfrwt>
<totfact> 0.72432697E+03</totfact>
</mgrwt>
</event>
<event>
 8    1  0.3400573E-004  0.1108205E+03  0.7546771E-02  0.1259238E+00
         -1   -1    0    0    0  501 -0.00000000000E+00  0.00000000000E+00  0.30344893389E+03  0.30344893389E+03  0.00000000000E+00 0.  1.
          1   -1    0    0  501    0  0.00000000000E+00 -0.00000000000E+00 -0.41438425204E+02  0.41438425204E+02  0.00000000000E+00 0. -1.
         23    2    1    2    0    0  0.11528535509E+02  0.61843478956E+02  0.15899400559E+03  0.19358112863E+03  0.90758121014E+02 0.  0.
         23    2    1    2    0    0 -0.11528535509E+02 -0.61843478956E+02  0.10301650310E+03  0.15130623046E+03  0.91234053100E+02 0.  0.
          5    1    3    3  502    0 -0.24687951576E+02 -0.68575387154E+01  0.15396347143E+02  0.30259846259E+02  0.47000000000E+01 0. -1.
         -5    1    4    4    0  503 -0.28257177779E+02 -0.47386650873E+02  0.11357794931E+03  0.12635665138E+03  0.47000000000E+01 0.  1.
          5    1    4    4  503    0  0.16728642270E+02 -0.14456828083E+02 -0.10561446213E+02  0.24949579085E+02  0.47000000000E+01 0. -1.
         -5    1    3    3    0  502  0.36216487085E+02  0.68701017671E+02  0.14359765844E+03  0.16332128237E+03  0.47000000000E+01 0.  1.
<mgrwt>
<rscale>  0 0.11072246E+03</rscale>
<asrwt>0</asrwt>
<pdfrwt beam="1">  1        1 0.63751425E-02 0.11082047E+03</pdfrwt>
<pdfrwt beam="2">  1       -1 0.46684450E-01 0.11082047E+03</pdfrwt>
<totfact> 0.52053512E+03</totfact>
</mgrwt>
</event>
<event>
 8    1  0.3400573E-004  0.9873970E+02  0.7546771E-02  0.1284979E+00
          1   -1    0    0  501    0  0.00000000000E+00  0.00000000000E+00  0.90358337480E+03  0.90358337480E+03  0.00000000000E+00 0. -1.
         -1   -1    0    0    0  501 -0.00000000000E+00 -0.00000000000E+00 -0.11063847849E+02  0.11063847849E+02  0.00000000000E+00 0.  1.
         23    2    1    2    0    0 -0.39394193611E+02  0.87752299411E+00  0.32555360544E+03  0.33914754018E+03  0.86505673008E+02 0.  0.
         23    2    1    2    0    0  0.39394193611E+02 -0.87752299411E+00  0.56696592152E+03  0.57549968247E+03  0.90536488898E+02 0.  0.
          5    1    3    3  502    0  0.12007659702E+02 -0.31088427538E+02  0.13630132298E+03  0.14039520954E+03  0.47000000000E+01 0. -1.
         -5    1    3    3    0  502 -0.51401853312E+02  0.31965950532E+02  0.18925228246E+03  0.19875233064E+03  0.47000000000E+01 0.  1.
          5    1    4    4  503    0  0.68096833574E+02 -0.79346149009E+01  0.40619075619E+03  0.41196256780E+03  0.47000000000E+01 0. -1.
         -5    1    4    4    0  503 -0.28702639963E+02  0.70570919068E+01  0.16077516533E+03  0.16353711466E+03  0.47000000000E+01 0.  1.
<mgrwt>
<rscale>  0 0.97805956E+02</rscale>
<asrwt>0</asrwt>
<pdfrwt beam="1">  1        1 0.13901277E+00 0.98739700E+02</pdfrwt>
<pdfrwt beam="2">  1       -1 0.17021312E-02 0.98739700E+02</pdfrwt>
<totfact> 0.15362188E+04</totfact>
</mgrwt>
</event>
<event>
 8    1  0.3400573E-004  0.9956680E+02  0.7546771E-02  0.1283112E+00
         -1   -1    0    0    0  501 -0.00000000000E+00  0.00000000000E+00  0.18056407892E+02  0.18056407892E+02  0.00000000000E+00 0.  1.
          1   -1    0    0  501    0  0.00000000000E+00 -0.00000000000E+00 -0.56676267440E+03  0.56676267440E+03  0.00000000000E+00 0. -1.
         23    2    1    2    0    0 -0.16894176342E+02  0.33152938349E+02 -0.34444466713E+03  0.35758275545E+03  0.88536815894E+02 0.  0.
         23    2    1    2    0    0  0.16894176342E+02 -0.33152938349E+02 -0.20426159938E+03  0.22723632684E+03  0.92352675860E+02 0.  0.
          5    1    3    3  502    0 -0.19314354661E+02 -0.25382487870E+02 -0.72277670414E+02  0.79142066102E+02  0.47000000000E+01 0. -1.
         -5    1    3    3    0  502  0.24201783187E+01  0.58535426219E+02 -0.27216699671E+03  0.27844068935E+03  0.47000000000E+01 0.  1.
          5    1    4    4  503    0  0.49065939687E+02 -0.23785082241E+02 -0.17195331047E+03  0.18045284025E+03  0.47000000000E+01 0. -1.
         -5    1    4    4    0  503 -0.32171763345E+02 -0.93678561079E+01 -0.32308288916E+02  0.46783486589E+02  0.47000000000E+01 0.  1.
<mgrwt>
<rscale>  0 0.98672626E+02</rscale>
<asrwt>0</asrwt>
<pdfrwt beam="1">  1        1 0.87194244E-01 0.99566798E+02</pdfrwt>
<pdfrwt beam="2">  1       -1 0.27779093E-02 0.99566798E+02</pdfrwt>
<totfact> 0.14858179E+04</totfact>
</mgrwt>
</event>
<event>
 8    1  0.3400573E-004  0.9510715E+02  0.7546771E-02  0.1291755E+00
          1   -1    0    0  501    0  0.00000000000E+00  0.00000000000E+00  0.64768176026E+02  0.64768176026E+02  0.00000000000E+00 0. -1.
         -1   -1    0    0    0  501 -0.00000000000E+00 -0.00000000000E+00 -0.16994015945E+03  0.16994015945E+03  0.00000000000E+00 0.  1.
         23    2    1    2    0    0  0.54517004561E+01  0.28903453880E+02 -0.10415144347E+03  0.14104217056E+03  0.90444679303E+02 0.  0.
         23    2    1    2    0    0 -0.54517004561E+01 -0.28903453880E+02 -0.10205399515E+01  0.93666164919E+02  0.88922315899E+02 0.  0.
          5    1    4    4  502    0 -0.35079583102E+02 -0.23416699980E+02  0.28581664729E+02  0.51165618801E+02  0.47000000000E+01 0. -1.
         -5    1    4    4    0  502  0.29627882646E+02 -0.54867538995E+01 -0.29602204680E+02  0.42500546118E+02  0.47000000000E+01 0.  1.
          5    1    3    3  503    0  0.11140105698E+02 -0.27224973232E+02 -0.10453528755E+02  0.31570039371E+02  0.47000000000E+01 0. -1.
         -5    1    3    3    0  503 -0.56884052417E+01  0.56128427112E+02 -0.93697914717E+02  0.10947213119E+03  0.47000000000E+01 0.  1.
<mgrwt>
<rscale>  0 0.94743435E+02</rscale>
<asrwt>0</asrwt>
<pdfrwt beam="1">  1        1 0.99643347E-02 0.95107154E+02</pdfrwt>
<pdfrwt beam="2">  1       -1 0.26144640E-01 0.95107154E+02</pdfrwt>
<totfact> 0.76363115E+03</totfact>
</mgrwt>
</event>
<event>
 8    1  0.3400573E-004  0.1227069E+03  0.7546771E-02  0.1238891E+00
          1   -1    0    0  501    0  0.00000000000E+00  0.00000000000E+00  0.15434200718E+04  0.15434200718E+04  0.00000000000E+00 0. -1.
         -1   -1    0    0    0  501 -0.00000000000E+00 -0.00000000000E+00 -0.11757347788E+02  0.11757347788E+02  0.00000000000E+00 0.  1.
         23    2    1    2    0    0 -0.48430785994E+02 -0.65484447344E+02  0.44067431485E+03  0.45731007657E+03  0.91131226729E+02 0.  0.
         23    2    1    2    0    0  0.48430785994E+02  0.65484447344E+02  0.10909884092E+04  0.10978673430E+04  0.91778211316E+02 0.  0.
          5    1    3    3  502    0 -0.31463156692E+02  0.58145817149E+01  0.26408995103E+03  0.26606264643E+03  0.47000000000E+01 0. -1.
         -5    1    4    4    0  503 -0.26337185417E+02  0.27372927522E+02  0.38261414541E+03  0.38452385981E+03  0.47000000000E+01 0.  1.
          5    1    4    4  503    0  0.74767971411E+02  0.38111519822E+02  0.70837426377E+03  0.71334348323E+03  0.47000000000E+01 0. -1.
         -5    1    3    3    0  502 -0.16967629302E+02 -0.71299029059E+02  0.17658436382E+03  0.19124743014E+03  0.47000000000E+01 0.  1.
<mgrwt>
<rscale>  0 0.12258598E+03</rscale>
<asrwt>0</asrwt>
<pdfrwt beam="1">  1        1 0.23744908E+00 0.12270694E+03</pdfrwt>
<pdfrwt beam="2">  1       -1 0.18088240E-02 0.12270694E+03</pdfrwt>
<totfact> 0.52140568E+03</totfact>
</mgrwt>
</event>
<event>
 8    1  0.3400573E-004  0.1491597E+03  0.7546771E-02  0.1201752E+00
          2   -1    0    0  501    0  0.00000000000E+00  0.00000000000E+00  0.68585505771E+03  0.68585505771E+03  0.00000000000E+00 0. -1.
         -2   -1    0    0    0  501 -0.00000000000E+00 -0.00000000000E+00 -0.45407693198E+02  0.45407693198E+02  0.00000000000E+00 0.  1.
         23    2    1    2    0    0  0.88213456312E+02 -0.78036464025E+02  0.12414895265E+03  0.19406591102E+03  0.91527655836E+02 0.  0.
         23    2    1    2    0    0 -0.88213456312E+02  0.78036464025E+02  0.51629841187E+03  0.53719683990E+03  0.90250158484E+02 0.  0.
          5    1    3    3  502    0  0.53709848759E+02 -0.88273924976E+02  0.11856512903E+03  0.15734298048E+03  0.47000000000E+01 0. -1.
         -5    1    4    4    0  503 -0.28947137854E+02  0.66681028944E+02  0.16010872335E+03  0.17590107931E+03  0.47000000000E+01 0.  1.
          5    1    4    4  503    0 -0.59266318458E+02  0.11355435082E+02  0.35618968851E+03  0.36129576058E+03  0.47000000000E+01 0. -1.
         -5    1    3    3    0  502  0.34503607553E+02  0.10237460951E+02  0.55838236173E+01  0.36722930535E+02  0.47000000000E+01 0.  1.
<mgrwt>
<rscale>  0 0.14896420E+03</rscale>
<asrwt>0</asrwt>
<pdfrwt beam="1">  1        2 0.10551616E+00 0.14915970E+03</pdfrwt>
<pdfrwt beam="2">  1       -2 0.69857995E-02 0.14915970E+03</pdfrwt>
<totfact> 0.48941440E+03</totfact>
</mgrwt>
</event>
<event>
 8    1  0.3400573E-004  0.1122956E+03  0.7546771E-02  0.1262296E+00
          2   -1    0    0  501    0  0.00000000000E+00  0.00000000000E+00  0.32591404730E+03  0.32591404730E+03  0.00000000000E+00 0. -1.
         -2   -1    0    0    0  501 -0.00000000000E+00 -0.00000000000E+00 -0.52457149502E+02  0.52457149502E+02  0.00000000000E+00 0.  1.
         23    2    1    2    0    0  0.17573830185E+02 -0.36129592651E+02  0.31572235962E+02  0.11664947354E+03  0.10486232221E+03 0.  0.
         23    2    1    2    0    0 -0.17573830185E+02  0.36129592651E+02  0.24188466183E+03  0.26172172326E+03  0.91519854811E+02 0.  0.
          5    1    4    4  502    0 -0.39517004941E+02 -0.16094313448E+02  0.11195870040E+03  0.11990605156E+03  0.47000000000E+01 0. -1.
         -5    1    3    3    0  503  0.41376949078E+02 -0.61731251674E+02  0.95671869507E+01  0.75076097491E+02  0.47000000000E+01 0.  1.
          5    1    3    3  503    0 -0.23803118894E+02  0.25601659023E+02  0.22005049011E+02  0.41573376045E+02  0.47000000000E+01 0. -1.
         -5    1    4    4    0  502  0.21943174756E+02  0.52223906099E+02  0.12992596143E+03  0.14181567170E+03  0.47000000000E+01 0.  1.
<mgrwt>
<rscale>  0 0.10907319E+03</rscale>
<asrwt>0</asrwt>
<pdfrwt beam="1">  1        2 0.50140622E-01 0.11229556E+03</pdfrwt>
<pdfrwt beam="2">  1       -2 0.80703309E-02 0.11229556E+03</pdfrwt>
<totfact> 0.87215079E+03</totfact>
</mgrwt>
</event>
<event>
 8    1  0.3400573E-004  0.1100754E+03  0.7546771E-02  0.1260908E+00
         -3   -1    0    0    0  501 -0.00000000000E+00  0.00000000000E+00  0.16005565128E+03  0.16005565128E+03  0.00000000000E+00 0.  1.
          3   -1    0    0  501    0  0.00000000000E+00 -0.00000000000E+00 -0.90749562798E+02  0.90749562798E+02  0.00000000000E+00 0. -1.
         23    2    1    2    0    0 -0.64472827934E+02  0.82588577232E+01  0.87032136655E+02  0.14032531525E+03  0.88834942538E+02 0.  0.
         23    2    1    2    0    0  0.64472827934E+02 -0.82588577232E+01 -0.17726048172E+02  0.11047989883E+03  0.87559356950E+02 0.  0.
          5    1    4    4  502    0  0.74915450229E+02  0.18056473430E+02 -0.89427275923E+00  0.77209135726E+02  0.47000000000E+01 0. -1.
         -5    1    4    4    0  502 -0.10442622295E+02 -0.26315331154E+02 -0.16831775413E+02  0.33270763106E+02  0.47000000000E+01 0.  1.
          5    1    3    3  503    0 -0.47560271892E+02  0.33076746479E+02  0.11970076283E+02  0.59341581933E+02  0.47000000000E+01 0. -1.
         -5    1    3    3    0  503 -0.16912556042E+02 -0.24817888756E+02  0.75062060372E+02  0.80983733314E+02  0.47000000000E+01 0.  1.
<mgrwt>
<rscale>  0 0.10981782E+03</rscale>
<asrwt>0</asrwt>
<pdfrwt beam="1">  1        3 0.13961471E-01 0.11007543E+03</pdfrwt>
<pdfrwt beam="2">  1       -3 0.24623946E-01 0.11007543E+03</pdfrwt>
<totfact> 0.14374095E+03</totfact>
</mgrwt>
</event>
<event>
 8    1  0.3400573E-004  0.9223700E+02  0.7546771E-02  0.1298515E+00
          1   -1    0    0  501    0  0.00000000000E+00  0.00000000000E+00  0.29849613317E+02  0.29849613317E+02  0.00000000000E+00 0. -1.
         -1   -1    0    0    0  501 -0.00000000000E+00 -0.00000000000E+00 -0.50143282203E+03  0.50143282203E+03  0.00000000000E+00 0.  1.
         23    2    1    2    0    0  0.14571701447E+01 -0.10046468937E+02 -0.41116288270E+03  0.42101784433E+03  0.89989189668E+02 0.  0.
         23    2    1    2    0    0 -0.14571701447E+01  0.10046468937E+02 -0.60420326019E+02  0.11026459102E+03  0.91676656530E+02 0.  0.
          5    1    3    3  502    0  0.13242893070E+02 -0.36311485347E+02 -0.36019527978E+03  0.36229356572E+03  0.47000000000E+01 0. -1.
         -5    1    4    4    0  503  0.13039318884E+02  0.36026441834E+02 -0.68898127758E+02  0.78974491811E+02  0.47000000000E+01 0.  1.
          5    1    4    4  503    0 -0.14496489029E+02 -0.25979972897E+02  0.84778017395E+01  0.31290099204E+02  0.47000000000E+01 0. -1.
         -5    1    3    3    0  502 -0.11785722926E+02  0.26265016410E+02 -0.50967602920E+02  0.58724278619E+02  0.47000000000E+01 0.  1.
<mgrwt>
<rscale>  0 0.91814855E+02</rscale>
<asrwt>0</asrwt>
<pdfrwt beam="1">  1        1 0.45922483E-02 0.92237000E+02</pdfrwt>
<pdfrwt beam="2">  1       -1 0.77143510E-01 0.92237000E+02</pdfrwt>
<totfact> 0.30979200E+03</totfact>
</mgrwt>
</event>
<event>
 8    1  0.3400573E-004  0.1083051E+03  0.7546771E-02  0.1271113E+00
          2   -1    0    0  501    0  0.00000000000E+00  0.00000000000E+00  0.52291330636E+03  0.52291330636E+03  0.00000000000E+00 0. -1.
         -2   -1    0    0    0  501 -0.00000000000E+00 -0.00000000000E+00 -0.19687783550E+02  0.19687783550E+02  0.00000000000E+00 0.  1.
         23    2    1    2    0    0 -0.21833123148E+02  0.26688741364E+02  0.25723689451E+03  0.27382535564E+03  0.87295654603E+02 0.  0.
         23    2    1    2    0    0  0.21833123148E+02 -0.26688741364E+02  0.24598862830E+03  0.26877573427E+03  0.10266944968E+03 0.  0.
          5    1    4    4  502    0 -0.32709184110E+02 -0.28905966978E+02  0.56661637119E+02  0.71680379275E+02  0.47000000000E+01 0. -1.
         -5    1    3    3    0  503  0.31622562425E+02  0.15857260821E+01  0.61672033329E+02  0.69484031809E+02  0.47000000000E+01 0.  1.
          5    1    3    3  503    0 -0.53455685573E+02  0.25103015282E+02  0.19556486118E+03  0.20434132383E+03  0.47000000000E+01 0. -1.
         -5    1    4    4    0  502  0.54542307258E+02  0.22172256142E+01  0.18932699118E+03  0.19709535499E+03  0.47000000000E+01 0.  1.
<mgrwt>
<rscale>  0 0.10449742E+03</rscale>
<asrwt>0</asrwt>
<pdfrwt beam="1">  1        2 0.80448190E-01 0.10830508E+03</pdfrwt>
<pdfrwt beam="2">  1       -2 0.30288902E-02 0.10830508E+03</pdfrwt>
<totfact> 0.22713675E+04</totfact>
</mgrwt>
</event>
<event>
 8    1  0.3400573E-004  0.1106086E+03  0.7546771E-02  0.1260786E+00
          1   -1    0    0  501    0  0.00000000000E+00  0.00000000000E+00  0.26356343097E+02  0.26356343097E+02  0.00000000000E+00 0. -1.
         -1   -1    0    0    0  501 -0.00000000000E+00 -0.00000000000E+00 -0.90947625256E+03  0.90947625256E+03  0.00000000000E+00 0.  1.
         23    2    1    2    0    0 -0.57584843193E+02  0.15347558785E+02 -0.11267707876E+03  0.15789361410E+03  0.93181047273E+02 0.  0.
         23    2    1    2    0    0  0.57584843193E+02 -0.15347558785E+02 -0.77044283070E+03  0.77793898155E+03  0.89751556589E+02 0.  0.
          5    1    4    4  502    0 -0.20525324388E+02 -0.19951765896E+02 -0.18174429793E+03  0.18404467320E+03  0.47000000000E+01 0. -1.
         -5    1    4    4    0  502  0.78110167581E+02  0.46042071115E+01 -0.58869853277E+03  0.59389430835E+03  0.47000000000E+01 0.  1.
          5    1    3    3  503    0 -0.78054181797E+02  0.25675166608E+02 -0.10468178759E+03  0.13316169167E+03  0.47000000000E+01 0. -1.
         -5    1    3    3    0  503  0.20469338604E+02 -0.10327607824E+02 -0.79952911691E+01  0.24731922431E+02  0.47000000000E+01 0.  1.
<mgrwt>
<rscale>  0 0.10988320E+03</rscale>
<asrwt>0</asrwt>
<pdfrwt beam="1">  1        1 0.40548223E-02 0.11060863E+03</pdfrwt>
<pdfrwt beam="2">  1       -1 0.13991941E+00 0.11060863E+03</pdfrwt>
<totfact> 0.98562365E+02</totfact>
</mgrwt>
</event>
<event>
 8    1  0.3400573E-004  0.1134888E+03  0.7546771E-02  0.1256476E+00
         -1   -1    0    0    0  501 -0.00000000000E+00  0.00000000000E+00  0.61914008841E+02  0.61914008841E+02  0.00000000000E+00 0.  1.
          1   -1    0    0  501    0  0.00000000000E+00 -0.00000000000E+00 -0.42270254287E+03  0.42270254287E+03  0.00000000000E+00 0. -1.
         23    2    1    2    0    0  0.42464975176E+02 -0.39089339049E+02 -0.35847792229E+03  0.37601345409E+03  0.97716151919E+02 0.  0.
         23    2    1    2    0    0 -0.42464975176E+02  0.39089339049E+02 -0.23106117390E+01  0.10860309762E+03  0.91967621159E+02 0.  0.
          5    1    4    4  502    0 -0.71656214831E+01  0.41038641445E+02  0.36720789799E+02  0.55731702166E+02  0.47000000000E+01 0.  1.
         -5    1    3    3    0  503  0.29955412817E+02  0.24015346312E+02 -0.65933002434E+02  0.76441575242E+02  0.47000000000E+01 0.  1.
          5    1    3    3  503    0  0.12509562359E+02 -0.63104685361E+02 -0.29254491985E+03  0.29957187885E+03  0.47000000000E+01 0. -1.
         -5    1    4    4    0  502 -0.35299353692E+02 -0.19493023963E+01 -0.39031401538E+02  0.52871395451E+02  0.47000000000E+01 0. -1.
<mgrwt>
<rscale>  0 0.11224076E+03</rscale>
<asrwt>0</asrwt>
<pdfrwt beam="1">  1        1 0.65031161E-01 0.11348875E+03</pdfrwt>
<pdfrwt beam="2">  1       -1 0.95252320E-02 0.11348875E+03</pdfrwt>
<totfact> 0.35607229E+03</totfact>
</mgrwt>
</event>
<event>
 8    1  0.3400573E-004  0.1175625E+03  0.7546771E-02  0.1247909E+00
         -2   -1    0    0    0  501 -0.00000000000E+00  0.00000000000E+00  0.93795028658E+01  0.93795028658E+01  0.00000000000E+00 0.  1.
          2   -1    0    0  501    0  0.00000000000E+00 -0.00000000000E+00 -0.15656168617E+04  0.15656168617E+04  0.00000000000E+00 0. -1.
         23    2    1    2    0    0 -0.19813336125E+02 -0.70958811912E+02 -0.98491152071E+03  0.99170042720E+03  0.89394140735E+02 0.  0.
         23    2    1    2    0    0  0.19813336125E+02  0.70958811912E+02 -0.57132583817E+03  0.58329593741E+03  0.91614496495E+02 0.  0.
          5    1    4    4  502    0  0.43868473328E+02  0.66950726423E+02 -0.52145320377E+03  0.52758163012E+03  0.47000000000E+01 0. -1.
         -5    1    4    4    0  502 -0.24055137202E+02  0.40080854888E+01 -0.49872634399E+02  0.55714307291E+02  0.47000000000E+01 0.  1.
          5    1    3    3  503    0  0.30768635638E+02 -0.37376187799E+01 -0.23996678343E+03  0.24200583853E+03  0.47000000000E+01 0. -1.
         -5    1    3    3    0  503 -0.50581971763E+02 -0.67221193132E+02 -0.74494473728E+03  0.74969458867E+03  0.47000000000E+01 0.  1.
<mgrwt>
<rscale>  0 0.11712962E+03</rscale>
<asrwt>0</asrwt>
<pdfrwt beam="1">  1        2 0.24086424E+00 0.11756248E+03</pdfrwt>
<pdfrwt beam="2">  1       -2 0.14429998E-02 0.11756248E+03</pdfrwt>
<totfact> 0.15122037E+04</totfact>
</mgrwt>
</event>
<event>
 8    1  0.3400573E-004  0.1120391E+03  0.7546771E-02  0.1257576E+00
         -1   -1    0    0    0  501 -0.00000000000E+00  0.00000000000E+00  0.81816112241E+02  0.81816112241E+02  0.00000000000E+00 0.  1.
          1   -1    0    0  501    0  0.00000000000E+00 -0.00000000000E+00 -0.17165138012E+03  0.17165138012E+03  0.00000000000E+00 0. -1.
         23    2    1    2    0    0  0.40435035242E+02  0.48419232242E+02 -0.14835289414E+01  0.11204892957E+03  0.92592373521E+02 0.  0.
         23    2    1    2    0    0 -0.40435035242E+02 -0.48419232242E+02 -0.88351738935E+02  0.14141856279E+03  0.90629829536E+02 0.  0.
          5    1    3    3  502    0  0.89258715068E+01 -0.19074110370E+02 -0.25725343813E+02  0.33576423020E+02  0.47000000000E+01 0. -1.
         -5    1    3    3    0  502  0.31509163735E+02  0.67493342612E+02  0.24241814871E+02  0.78472506552E+02  0.47000000000E+01 0.  1.
          5    1    4    4  503    0 -0.69303217792E+02 -0.29698385812E+02 -0.57044229691E+02  0.94662897997E+02  0.47000000000E+01 0. -1.
         -5    1    4    4    0  503  0.28868182550E+02 -0.18720846430E+02 -0.31307509244E+02  0.46755664789E+02  0.47000000000E+01 0.  1.
<mgrwt>
<rscale>  0 0.11163281E+03</rscale>
<asrwt>0</asrwt>
<pdfrwt beam="1">  1        1 0.26407904E-01 0.11203911E+03</pdfrwt>
<pdfrwt beam="2">  1       -1 0.12587094E-01 0.11203911E+03</pdfrwt>
<totfact> 0.70841759E+03</totfact>
</mgrwt>
</event>
<event>
 8    1  0.9212307E-004  0.1793065E+03  0.7546771E-02  0.1177154E+00
          2   -1    0    0  501    0  0.00000000000E+00  0.00000000000E+00  0.47282936995E+03  0.47282936995E+03  0.00000000000E+00 0. -1.
         -2   -1    0    0    0  501 -0.00000000000E+00 -0.00000000000E+00 -0.10966095835E+03  0.10966095835E+03  0.00000000000E+00 0.  1.
         23    2    1    2    0    0  0.11240413561E+03  0.73985036146E+02  0.37494994816E+03  0.40279715629E+03  0.59578605317E+02 0.  0.
         23    2    1    2    0    0 -0.11240413561E+03 -0.73985036146E+02 -0.11781536558E+02  0.17969317201E+03  0.11850044805E+03 0.  0.
          5    1    3    3  502    0  0.90577913080E+02  0.68063383162E+02  0.35361788672E+03  0.37135519692E+03  0.47000000000E+01 0. -1.
         -5    1    4    4    0  503  0.22662104803E+02 -0.27079707364E+02 -0.83871418694E+01  0.36596662331E+02  0.47000000000E+01 0.  1.
          5    1    4    4  503    0 -0.13506624041E+03 -0.46905328781E+02 -0.33943946890E+01  0.14309650968E+03  0.47000000000E+01 0. -1.
         -5    1    3    3    0  502  0.21826222531E+02  0.59216529838E+01  0.21332061440E+02  0.31441959375E+02  0.47000000000E+01 0. -1.
<mgrwt>
<rscale>  0 0.17066701E+03</rscale>
<asrwt>0</asrwt>
<pdfrwt beam="1">  1        2 0.72742979E-01 0.17930653E+03</pdfrwt>
<pdfrwt beam="2">  1       -2 0.16870917E-01 0.17930653E+03</pdfrwt>
<totfact> 0.18445683E+03</totfact>
</mgrwt>
</event>
<event>
 8    1  0.3400573E-004  0.2054777E+03  0.7546771E-02  0.1148635E+00
          2   -1    0    0  501    0  0.00000000000E+00  0.00000000000E+00  0.18650898110E+04  0.18650898110E+04  0.00000000000E+00 0. -1.
         -2   -1    0    0    0  501 -0.00000000000E+00 -0.00000000000E+00 -0.21974064128E+02  0.21974064128E+02  0.00000000000E+00 0.  1.
         23    2    1    2    0    0  0.16552126310E+03  0.15322860434E+02  0.67655098941E+03  0.70254101125E+03  0.90612099711E+02 0.  0.
         23    2    1    2    0    0 -0.16552126310E+03 -0.15322860434E+02  0.11665647575E+04  0.11845228639E+04  0.12078494579E+03 0.  0.
          5    1    4    4  502    0  0.24837249154E+01 -0.33385651100E+02  0.27547709438E+03  0.27754367245E+03  0.47000000000E+01 0.  1.
         -5    1    4    4    0  502 -0.16800498801E+03  0.18062790666E+02  0.89108766311E+03  0.90697919147E+03  0.47000000000E+01 0.  1.
          5    1    3    3  503    0  0.12414952585E+03  0.10471035600E+02  0.61847247472E+03  0.63091444693E+03  0.47000000000E+01 0. -1.
         -5    1    3    3    0  503  0.41371737243E+02  0.48518248341E+01  0.58078514696E+02  0.71626564318E+02  0.47000000000E+01 0.  1.
<mgrwt>
<rscale>  0 0.20131378E+03</rscale>
<asrwt>0</asrwt>
<pdfrwt beam="1">  1        2 0.28693677E+00 0.20547769E+03</pdfrwt>
<pdfrwt beam="2">  1       -2 0.33806267E-02 0.20547769E+03</pdfrwt>
<totfact> 0.30984328E+03</totfact>
</mgrwt>
</event>
<event>
 8    1  0.3400573E-004  0.9599836E+02  0.7546771E-02  0.1290471E+00
         -1   -1    0    0    0  501 -0.00000000000E+00  0.00000000000E+00  0.30778251171E+03  0.30778251171E+03  0.00000000000E+00 0.  1.
          1   -1    0    0  501    0  0.00000000000E+00 -0.00000000000E+00 -0.48704105501E+03  0.48704105501E+03  0.00000000000E+00 0. -1.
         23    2    1    2    0    0 -0.26255336880E+02  0.74320716000E+01  0.29564699870E+03  0.31084213611E+03  0.92038618749E+02 0.  0.
         23    2    1    2    0    0  0.26255336880E+02 -0.74320716000E+01 -0.47490554200E+03  0.48398143061E+03  0.89208592349E+02 0.  0.
          5    1    3    3  502    0 -0.22237160371E+02 -0.25950934202E+02  0.39450486405E+02  0.52405850484E+02  0.47000000000E+01 0. -1.
         -5    1    3    3    0  502 -0.40181765089E+01  0.33383005802E+02  0.25619651229E+03  0.25843628563E+03  0.47000000000E+01 0.  1.
          5    1    4    4  503    0  0.51882826726E+02  0.12764619929E+02 -0.19856845718E+03  0.20568491782E+03  0.47000000000E+01 0. -1.
         -5    1    4    4    0  503 -0.25627489847E+02 -0.20196691529E+02 -0.27633708482E+03  0.27829651279E+03  0.47000000000E+01 0.  1.
<mgrwt>
<rscale>  0 0.95313615E+02</rscale>
<asrwt>0</asrwt>
<pdfrwt beam="1">  1        1 0.74929392E-01 0.95998363E+02</pdfrwt>
<pdfrwt beam="2">  1       -1 0.47351156E-01 0.95998363E+02</pdfrwt>
<totfact> 0.22105222E+02</totfact>
</mgrwt>
</event>
<event>
 8    1  0.3400573E-004  0.1973119E+03  0.7546771E-02  0.1152887E+00
          1   -1    0    0  501    0  0.00000000000E+00  0.00000000000E+00  0.51401174094E+03  0.51401174094E+03  0.00000000000E+00 0. -1.
         -1   -1    0    0    0  501 -0.00000000000E+00 -0.00000000000E+00 -0.88256603257E+02  0.88256603257E+02  0.00000000000E+00 0.  1.
         23    2    1    2    0    0 -0.17488120286E+03 -0.17271054029E+02  0.94637171482E+02  0.21883367889E+03  0.89723243199E+02 0.  0.
         23    2    1    2    0    0  0.17488120286E+03  0.17271054029E+02  0.33111796620E+03  0.38343466531E+03  0.80630705039E+02 0.  0.
          5    1    3    3  502    0 -0.35788344468E+02  0.30330688793E+02  0.71287248523E+01  0.47682963419E+02  0.47000000000E+01 0. -1.
         -5    1    4    4    0  503  0.12190982005E+02  0.17557481418E+02  0.11408176871E+02  0.24680390911E+02  0.47000000000E+01 0.  1.
          5    1    4    4  503    0  0.16269022086E+03 -0.28642738906E+00  0.31970978933E+03  0.35875427439E+03  0.47000000000E+01 0. -1.
         -5    1    3    3    0  502 -0.13909285839E+03 -0.47601742821E+02  0.87508446630E+02  0.17115071547E+03  0.47000000000E+01 0.  1.
<mgrwt>
<rscale>  0 0.19631310E+03</rscale>
<asrwt>0</asrwt>
<pdfrwt beam="1">  1        1 0.79078728E-01 0.19731190E+03</pdfrwt>
<pdfrwt beam="2">  1       -1 0.13577939E-01 0.19731190E+03</pdfrwt>
<totfact> 0.16300317E+03</totfact>
</mgrwt>
</event>
<event>
 8    1  0.3400573E-004  0.9313934E+02  0.7546771E-02  0.1295528E+00
          2   -1    0    0  501    0  0.00000000000E+00  0.00000000000E+00  0.23929424413E+02  0.23929424413E+02  0.00000000000E+00 0. -1.
         -2   -1    0    0    0  501 -0.00000000000E+00 -0.00000000000E+00 -0.40788302429E+03  0.40788302429E+03  0.00000000000E+00 0.  1.
         23    2    1    2    0    0 -0.17730830203E+02  0.13064710706E+02 -0.11925163087E+03  0.15120227705E+03  0.90311173800E+02 0.  0.
         23    2    1    2    0    0  0.17730830203E+02 -0.13064710706E+02 -0.26470196901E+03  0.28061017166E+03  0.90497884153E+02 0.  0.
          5    1    3    3  502    0  0.22983980103E+02  0.27639463716E+02 -0.94359447733E+02  0.10108411682E+03  0.47000000000E+01 0. -1.
         -5    1    4    4    0  503 -0.78445708975E+01 -0.27533374634E+02 -0.24052609251E+03  0.24226950941E+03  0.47000000000E+01 0.  1.
          5    1    4    4  503    0  0.25575401101E+02  0.14468663928E+02 -0.24175876500E+02  0.38340662251E+02  0.47000000000E+01 0. -1.
         -5    1    3    3    0  502 -0.40714810307E+02 -0.14574753010E+02 -0.24892183141E+02  0.50118160233E+02  0.47000000000E+01 0.  1.
<mgrwt>
<rscale>  0 0.93093952E+02</rscale>
<asrwt>0</asrwt>
<pdfrwt beam="1">  1        2 0.36814497E-02 0.93139337E+02</pdfrwt>
<pdfrwt beam="2">  1       -2 0.62751237E-01 0.93139337E+02</pdfrwt>
<totfact> 0.52213043E+03</totfact>
</mgrwt>
</event>
<event>
 8    1  0.3400573E-004  0.9106408E+02  0.7546771E-02  0.1301073E+00
          3   -1    0    0  501    0  0.00000000000E+00  0.00000000000E+00  0.57648244782E+02  0.57648244782E+02  0.00000000000E+00 0. -1.
         -3   -1    0    0    0  501 -0.00000000000E+00 -0.00000000000E+00 -0.16864492612E+03  0.16864492612E+03  0.00000000000E+00 0.  1.
         23    2    1    2    0    0 -0.85303673833E+01 -0.52315478937E+01 -0.10032615411E+02  0.90328432934E+02  0.89210067612E+02 0.  0.
         23    2    1    2    0    0  0.85303673833E+01  0.52315478937E+01 -0.10096406593E+03  0.13596473797E+03  0.90512601890E+02 0.  0.
          5    1    4    4  502    0  0.21695438177E+01 -0.40651845026E+02 -0.28814864214E+02  0.50096564992E+02  0.47000000000E+01 0. -1.
         -5    1    4    4    0  502  0.63608235656E+01  0.45883392919E+02 -0.72149201715E+02  0.85868172977E+02  0.47000000000E+01 0.  1.
          5    1    3    3  503    0 -0.20804266964E+02 -0.27189378576E+02 -0.38711656413E+02  0.51891831472E+02  0.47000000000E+01 0. -1.
         -5    1    3    3    0  503  0.12273899580E+02  0.21957830682E+02  0.28679041003E+02  0.38436601463E+02  0.47000000000E+01 0.  1.
<mgrwt>
<rscale>  0 0.90738711E+02</rscale>
<asrwt>0</asrwt>
<pdfrwt beam="1">  1        3 0.88689609E-02 0.91064084E+02</pdfrwt>
<pdfrwt beam="2">  1       -3 0.25945373E-01 0.91064084E+02</pdfrwt>
<totfact> 0.26730632E+03</totfact>
</mgrwt>
</event>
<event>
 8    1  0.3400573E-004  0.9352102E+02  0.7546771E-02  0.1297461E+00
         -3   -1    0    0    0  501 -0.00000000000E+00  0.00000000000E+00  0.40095573463E+03  0.40095573463E+03  0.00000000000E+00 0.  1.
          3   -1    0    0  501    0  0.00000000000E+00 -0.00000000000E+00 -0.21413516957E+02  0.21413516957E+02  0.00000000000E+00 0. -1.
         23    2    1    2    0    0 -0.17016963236E+02  0.63299490325E+01  0.15562342319E+03  0.18156219581E+03  0.91741679778E+02 0.  0.
         23    2    1    2    0    0  0.17016963236E+02 -0.63299490325E+01  0.22391879448E+03  0.24080705578E+03  0.86710819960E+02 0.  0.
          5    1    3    3  502    0  0.30710660696E+02  0.17795245786E+02  0.30360486743E+02  0.46943206199E+02  0.47000000000E+01 0. -1.
         -5    1    3    3    0  502 -0.47727623932E+02 -0.11465296754E+02  0.12526293645E+03  0.13461898961E+03  0.47000000000E+01 0.  1.
          5    1    4    4  503    0  0.47645002016E+02 -0.18009176966E+02  0.17002493802E+03  0.17755265760E+03  0.47000000000E+01 0. -1.
         -5    1    4    4    0  503 -0.30628038780E+02  0.11679227933E+02  0.53893856457E+02  0.63254398175E+02  0.47000000000E+01 0.  1.
<mgrwt>
<rscale>  0 0.92263441E+02</rscale>
<asrwt>0</asrwt>
<pdfrwt beam="1">  1        3 0.32943875E-02 0.93521020E+02</pdfrwt>
<pdfrwt beam="2">  1       -3 0.61685492E-01 0.93521020E+02</pdfrwt>
<totfact> 0.24388258E+03</totfact>
</mgrwt>
</event>
<event>
 8    1  0.3400573E-004  0.9984319E+02  0.7546771E-02  0.1284012E+00
          1   -1    0    0  501    0  0.00000000000E+00  0.00000000000E+00  0.11206225052E+04  0.11206225052E+04  0.00000000000E+00 0. -1.
         -1   -1    0    0    0  501 -0.00000000000E+00 -0.00000000000E+00 -0.83732105481E+01  0.83732105481E+01  0.00000000000E+00 0.  1.
         23    2    1    2    0    0 -0.19359866835E+02  0.89610785230E+00  0.60287017448E+03  0.61108191769E+03  0.97944144266E+02 0.  0.
         23    2    1    2    0    0  0.19359866835E+02 -0.89610785230E+00  0.50937912019E+03  0.51791379808E+03  0.91607896493E+02 0.  0.
          5    1    3    3  502    0  0.36458610049E+02 -0.17531061965E+02  0.26276217575E+03  0.26589964156E+03  0.47000000000E+01 0. -1.
         -5    1    3    3    0  502 -0.55818476884E+02  0.18427169817E+02  0.34010799873E+03  0.34518227612E+03  0.47000000000E+01 0.  1.
          5    1    4    4  503    0  0.17992785637E+02 -0.43166723441E+02  0.34178984230E+03  0.34500651102E+03  0.47000000000E+01 0. -1.
         -5    1    4    4    0  503  0.13670811978E+01  0.42270615589E+02  0.16758927789E+03  0.17290728706E+03  0.47000000000E+01 0.  1.
<mgrwt>
<rscale>  0 0.98253724E+02</rscale>
<asrwt>0</asrwt>
<pdfrwt beam="1">  1        1 0.17240334E+00 0.99843191E+02</pdfrwt>
<pdfrwt beam="2">  1       -1 0.12881871E-02 0.99843191E+02</pdfrwt>
<totfact> 0.15942363E+04</totfact>
</mgrwt>
</event>
<event>
 8    1  0.3400573E-004  0.1472151E+03  0.7546771E-02  0.1204675E+00
          2   -1    0    0  501    0  0.00000000000E+00  0.00000000000E+00  0.48376446724E+03  0.48376446724E+03  0.00000000000E+00 0. -1.
         -2   -1    0    0    0  501 -0.00000000000E+00 -0.00000000000E+00 -0.48772832364E+02  0.48772832364E+02  0.00000000000E+00 0.  1.
         23    2    1    2    0    0  0.19720901661E+01 -0.11415702229E+03  0.30152075643E+03  0.33553994339E+03  0.92933159729E+02 0.  0.
         23    2    1    2    0    0 -0.19720901661E+01  0.11415702229E+03  0.13347087845E+03  0.19699735621E+03  0.89206323118E+02 0.  0.
          5    1    3    3  502    0 -0.39558525467E+02 -0.48055997527E+02  0.18465897090E+03  0.19492378349E+03  0.47000000000E+01 0. -1.
         -5    1    4    4    0  503  0.51459669652E+01  0.46785120853E+02  0.64924410326E-01  0.47301402985E+02  0.47000000000E+01 0.  1.
          5    1    4    4  503    0 -0.71180571312E+01  0.67371901433E+02  0.13340595404E+03  0.14969595323E+03  0.47000000000E+01 0. -1.
         -5    1    3    3    0  502  0.41530615633E+02 -0.66101024759E+02  0.11686178552E+03  0.14061615990E+03  0.47000000000E+01 0.  1.
<mgrwt>
<rscale>  0 0.14663068E+03</rscale>
<asrwt>0</asrwt>
<pdfrwt beam="1">  1        2 0.74425300E-01 0.14721510E+03</pdfrwt>
<pdfrwt beam="2">  1       -2 0.75035130E-02 0.14721510E+03</pdfrwt>
<totfact> 0.65103738E+03</totfact>
</mgrwt>
</event>
<event>
 8    1  0.3400573E-004  0.1441681E+03  0.7546771E-02  0.1207867E+00
         -1   -1    0    0    0  501 -0.00000000000E+00  0.00000000000E+00  0.51841319163E+03  0.51841319163E+03  0.00000000000E+00 0.  1.
          1   -1    0    0  501    0  0.00000000000E+00 -0.00000000000E+00 -0.40844876972E+02  0.40844876972E+02  0.00000000000E+00 0. -1.
         23    2    1    2    0    0 -0.10829815510E+03  0.21989550965E+02  0.27767589867E+03  0.31287113357E+03  0.92587314277E+02 0.  0.
         23    2    1    2    0    0  0.10829815510E+03 -0.21989550965E+02  0.19989241598E+03  0.24638693504E+03  0.92398663612E+02 0.  0.
          5    1    4    4  502    0  0.50129464745E+01 -0.36090663492E+02  0.75933234209E+02  0.84354085148E+02  0.47000000000E+01 0. -1.
         -5    1    3    3    0  503 -0.80665997487E+02  0.12214678966E+02  0.27016064925E+03  0.28225000963E+03  0.47000000000E+01 0.  1.
          5    1    3    3  503    0 -0.27632157616E+02  0.97748719986E+01  0.75152494195E+01  0.30621123934E+02  0.47000000000E+01 0. -1.
         -5    1    4    4    0  502  0.10328520863E+03  0.14101112528E+02  0.12395918178E+03  0.16203284989E+03  0.47000000000E+01 0.  1.
<mgrwt>
<rscale>  0 0.14413782E+03</rscale>
<asrwt>0</asrwt>
<pdfrwt beam="1">  1        1 0.62838276E-02 0.14416810E+03</pdfrwt>
<pdfrwt beam="2">  1       -1 0.79755871E-01 0.14416810E+03</pdfrwt>
<totfact> 0.19393744E+03</totfact>
</mgrwt>
</event>
<event>
 8    1  0.3400573E-004  0.1057110E+03  0.7546771E-02  0.1269329E+00
         -3   -1    0    0    0  501 -0.00000000000E+00  0.00000000000E+00  0.36179731518E+03  0.36179731518E+03  0.00000000000E+00 0.  1.
          3   -1    0    0  501    0  0.00000000000E+00 -0.00000000000E+00 -0.42129911699E+02  0.42129911699E+02  0.00000000000E+00 0. -1.
         23    2    1    2    0    0 -0.29311616596E+02  0.43449239083E+02  0.53177199566E+02  0.11723603826E+03  0.90385103136E+02 0.  0.
         23    2    1    2    0    0  0.29311616596E+02 -0.43449239083E+02  0.26649020392E+03  0.28669118862E+03  0.91803058798E+02 0.  0.
          5    1    4    4  502    0  0.19866645811E+02  0.20206331626E+02  0.15697473663E+03  0.15958113107E+03  0.47000000000E+01 0. -1.
         -5    1    3    3    0  503 -0.20985553419E+01  0.38673970281E+02  0.73093532221E+02  0.82854295992E+02  0.47000000000E+01 0.  1.
          5    1    3    3  503    0 -0.27213061254E+02  0.47752688019E+01 -0.19916332655E+02  0.34381742268E+02  0.47000000000E+01 0. -1.
         -5    1    4    4    0  502  0.94449707855E+01 -0.63655570709E+02  0.10951546729E+03  0.12711005755E+03  0.47000000000E+01 0.  1.
<mgrwt>
<rscale>  0 0.10540236E+03</rscale>
<asrwt>0</asrwt>
<pdfrwt beam="1">  1        3 0.64815251E-02 0.10571097E+03</pdfrwt>
<pdfrwt beam="2">  1       -3 0.55661123E-01 0.10571097E+03</pdfrwt>
<totfact> 0.10670065E+03</totfact>
</mgrwt>
</event>
<event>
 8    1  0.3400573E-004  0.9550763E+02  0.7546771E-02  0.1293441E+00
          1   -1    0    0  501    0  0.00000000000E+00  0.00000000000E+00  0.23547904383E+02  0.23547904383E+02  0.00000000000E+00 0. -1.
         -1   -1    0    0    0  501 -0.00000000000E+00 -0.00000000000E+00 -0.44912731217E+03  0.44912731217E+03  0.00000000000E+00 0.  1.
         23    2    1    2    0    0  0.36202576166E+01 -0.23146121565E+02 -0.32119688040E+03  0.33509572204E+03  0.92589728034E+02 0.  0.
         23    2    1    2    0    0 -0.36202576166E+01  0.23146121565E+02 -0.10438252739E+03  0.13757949452E+03  0.86507549267E+02 0.  0.
          5    1    3    3  502    0 -0.36899454290E+02 -0.36086637820E+02 -0.15296198773E+03  0.16150317287E+03  0.47000000000E+01 0. -1.
         -5    1    3    3    0  502  0.40519711907E+02  0.12940516255E+02 -0.16823489268E+03  0.17359254917E+03  0.47000000000E+01 0.  1.
          5    1    4    4  503    0 -0.36955443089E+02  0.15897122466E+02 -0.17501697469E+02  0.44122813724E+02  0.47000000000E+01 0. -1.
         -5    1    4    4    0  503  0.33335185472E+02  0.72489990983E+01 -0.86880829918E+02  0.93456680797E+02  0.47000000000E+01 0.  1.
<mgrwt>
<rscale>  0 0.94001383E+02</rscale>
<asrwt>0</asrwt>
<pdfrwt beam="1">  1        1 0.36227547E-02 0.95507628E+02</pdfrwt>
<pdfrwt beam="2">  1       -1 0.69096507E-01 0.95507628E+02</pdfrwt>
<totfact> 0.53314952E+03</totfact>
</mgrwt>
</event>
<event>
 8    1  0.3400573E-004  0.9638629E+02  0.7546771E-02  0.1288190E+00
         -1   -1    0    0    0  501 -0.00000000000E+00  0.00000000000E+00  0.47531174845E+02  0.47531174845E+02  0.00000000000E+00 0.  1.
          1   -1    0    0  501    0  0.00000000000E+00 -0.00000000000E+00 -0.20602268044E+03  0.20602268044E+03  0.00000000000E+00 0. -1.
         23    2    1    2    0    0 -0.24524349994E+02  0.18457789766E+02 -0.50087620992E+02  0.10862360246E+03  0.91368394362E+02 0.  0.
         23    2    1    2    0    0  0.24524349994E+02 -0.18457789766E+02 -0.10840388460E+03  0.14493025283E+03  0.91166014734E+02 0.  0.
          5    1    3    3  502    0  0.28106482300E+01 -0.26338480237E+02 -0.49029866926E+02  0.55925245958E+02  0.47000000000E+01 0. -1.
         -5    1    3    3    0  502 -0.27334998224E+02  0.44796270003E+02 -0.10577540666E+01  0.52698356499E+02  0.47000000000E+01 0.  1.
          5    1    4    4  503    0 -0.14422445288E+01 -0.22248948886E+02  0.90289461389E+01  0.24509338306E+02  0.47000000000E+01 0. -1.
         -5    1    4    4    0  503  0.25966594523E+02  0.37911591203E+01 -0.11743283074E+03  0.12042091452E+03  0.47000000000E+01 0.  1.
<mgrwt>
<rscale>  0 0.96338300E+02</rscale>
<asrwt>0</asrwt>
<pdfrwt beam="1">  1        1 0.31695796E-01 0.96386292E+02</pdfrwt>
<pdfrwt beam="2">  1       -1 0.73124886E-02 0.96386292E+02</pdfrwt>
<totfact> 0.12692906E+04</totfact>
</mgrwt>
</event>
<event>
 8    1  0.3400573E-004  0.1100348E+03  0.7546771E-02  0.1260737E+00
         -3   -1    0    0    0  501 -0.00000000000E+00  0.00000000000E+00  0.28161747694E+03  0.28161747694E+03  0.00000000000E+00 0.  1.
          3   -1    0    0  501    0  0.00000000000E+00 -0.00000000000E+00 -0.60873691370E+02  0.60873691370E+02  0.00000000000E+00 0. -1.
         23    2    1    2    0    0 -0.38722551967E+02 -0.46555382265E+02  0.16882222491E+02  0.11082936946E+03  0.91275955482E+02 0.  0.
         23    2    1    2    0    0  0.38722551967E+02  0.46555382265E+02  0.20386156308E+03  0.23166179885E+03  0.91873894542E+02 0.  0.
          5    1    4    4  502    0  0.62788556689E+02  0.14170804634E+02  0.89825529539E+02  0.11060709883E+03  0.47000000000E+01 0. -1.
         -5    1    3    3    0  503 -0.50445624066E+02  0.71619954373E+00 -0.14496828843E+02  0.52702200862E+02  0.47000000000E+01 0.  1.
          5    1    3    3  503    0  0.11723072100E+02 -0.47271581809E+02  0.31379051334E+02  0.58127168594E+02  0.47000000000E+01 0. -1.
         -5    1    4    4    0  502 -0.24066004723E+02  0.32384577631E+02  0.11403603354E+03  0.12105470002E+03  0.47000000000E+01 0.  1.
<mgrwt>
<rscale>  0 0.10990988E+03</rscale>
<asrwt>0</asrwt>
<pdfrwt beam="1">  1        3 0.93651834E-02 0.11003478E+03</pdfrwt>
<pdfrwt beam="2">  1       -3 0.43325765E-01 0.11003478E+03</pdfrwt>
<totfact> 0.97384136E+02</totfact>
</mgrwt>
</event>
<event>
 8    1  0.3400573E-004  0.1232046E+03  0.7546771E-02  0.1240516E+00
         -1   -1    0    0    0  501 -0.00000000000E+00  0.00000000000E+00  0.87474560015E+02  0.87474560015E+02  0.00000000000E+00 0.  1.
          1   -1    0    0  501    0  0.00000000000E+00 -0.00000000000E+00 -0.17312054762E+03  0.17312054762E+03  0.00000000000E+00 0. -1.
         23    2    1    2    0    0 -0.66956112929E+02 -0.96612286324E+01 -0.70533623693E+02  0.13646707175E+03  0.95246045606E+02 0.  0.
         23    2    1    2    0    0  0.66956112929E+02  0.96612286324E+01 -0.15112363911E+02  0.12412803588E+03  0.10297050720E+03 0.  0.
          5    1    4    4  502    0 -0.22857006648E+02  0.19645626008E+02 -0.14170497970E+02  0.33634601036E+02  0.47000000000E+01 0. -1.
         -5    1    4    4    0  502  0.89813119577E+02 -0.99843973757E+01 -0.94186594104E+00  0.90493434848E+02  0.47000000000E+01 0.  1.
          5    1    3    3  503    0 -0.79431245173E+02  0.96147633803E+01 -0.78031144200E+02  0.11186025143E+03  0.47000000000E+01 0. -1.
         -5    1    3    3    0  503  0.12475132244E+02 -0.19275992013E+02  0.74975205071E+01  0.24606820321E+02  0.47000000000E+01 0.  1.
<mgrwt>
<rscale>  0 0.12157801E+03</rscale>
<asrwt>0</asrwt>
<pdfrwt beam="1">  1        1 0.26633930E-01 0.12320465E+03</pdfrwt>
<pdfrwt beam="2">  1       -1 0.13457625E-01 0.12320465E+03</pdfrwt>
<totfact> 0.63644329E+03</totfact>
</mgrwt>
</event>
<event>
 8    1  0.3400573E-004  0.1707212E+03  0.7546771E-02  0.1177236E+00
         -1   -1    0    0    0  501 -0.00000000000E+00  0.00000000000E+00  0.70724687375E+03  0.70724687375E+03  0.00000000000E+00 0.  1.
          1   -1    0    0  501    0  0.00000000000E+00 -0.00000000000E+00 -0.41169542821E+02  0.41169542821E+02  0.00000000000E+00 0. -1.
         23    2    1    2    0    0  0.13803363242E+03 -0.44390492509E+02  0.35084727733E+03  0.39017885601E+03  0.90121740784E+02 0.  0.
         23    2    1    2    0    0 -0.13803363242E+03  0.44390492509E+02  0.31523005360E+03  0.35823756056E+03  0.89108717868E+02 0.  0.
          5    1    4    4  502    0 -0.23743761334E+02  0.36068248932E+01  0.48524855282E+01  0.24948186385E+02  0.47000000000E+01 0. -1.
         -5    1    3    3    0  503  0.82801702839E+02 -0.70686409099E+02  0.21146782319E+03  0.23789371717E+03  0.47000000000E+01 0.  1.
          5    1    3    3  503    0  0.55231929584E+02  0.26295916590E+02  0.13937945415E+03  0.15228513885E+03  0.47000000000E+01 0. -1.
         -5    1    4    4    0  502 -0.11428987109E+03  0.40783667615E+02  0.31037756807E+03  0.33328937418E+03  0.47000000000E+01 0.  1.
<mgrwt>
<rscale>  0 0.17058790E+03</rscale>
<asrwt>0</asrwt>
<pdfrwt beam="1">  1        1 0.63337763E-02 0.17072120E+03</pdfrwt>
<pdfrwt beam="2">  1       -1 0.10880720E+00 0.17072120E+03</pdfrwt>
<totfact> 0.98743770E+02</totfact>
</mgrwt>
</event>
<event>
 8    1  0.3400573E-004  0.1231109E+03  0.7546771E-02  0.1238355E+00
         -1   -1    0    0    0  501 -0.00000000000E+00  0.00000000000E+00  0.18839435054E+03  0.18839435054E+03  0.00000000000E+00 0.  1.
          1   -1    0    0  501    0  0.00000000000E+00 -0.00000000000E+00 -0.86826834573E+02  0.86826834573E+02  0.00000000000E+00 0. -1.
         23    2    1    2    0    0 -0.49285510053E+02  0.66075977944E+02  0.89643102242E+02  0.15228974971E+03  0.91439519488E+02 0.  0.
         23    2    1    2    0    0  0.49285510053E+02 -0.66075977944E+02  0.11924413725E+02  0.12293143540E+03  0.90414876019E+02 0.  0.
          5    1    3    3  502    0  0.73011010528E+01  0.59395492231E+02  0.22506030565E+02  0.64107269367E+02  0.47000000000E+01 0. -1.
         -5    1    4    4    0  503 -0.15063543505E+02 -0.13878053617E+02  0.31308146153E+02  0.37706773007E+02  0.47000000000E+01 0.  1.
          5    1    4    4  503    0  0.64349053558E+02 -0.52197924327E+02 -0.19383732428E+02  0.85224662397E+02  0.47000000000E+01 0. -1.
         -5    1    3    3    0  502 -0.56586611106E+02  0.66804857137E+01  0.67137071677E+02  0.88182480341E+02  0.47000000000E+01 0.  1.
<mgrwt>
<rscale>  0 0.12292063E+03</rscale>
<asrwt>0</asrwt>
<pdfrwt beam="1">  1        1 0.13357975E-01 0.12311085E+03</pdfrwt>
<pdfrwt beam="2">  1       -1 0.28983746E-01 0.12311085E+03</pdfrwt>
<totfact> 0.44781991E+03</totfact>
</mgrwt>
</event>
<event>
 8    1  0.3400573E-004  0.1029390E+03  0.7546771E-02  0.1278511E+00
          1   -1    0    0  501    0  0.00000000000E+00  0.00000000000E+00  0.39943987424E+03  0.39943987424E+03  0.00000000000E+00 0. -1.
         -1   -1    0    0    0  501 -0.00000000000E+00 -0.00000000000E+00 -0.24504040974E+02  0.24504040974E+02  0.00000000000E+00 0.  1.
         23    2    1    2    0    0 -0.18931703455E+02  0.17339405844E+02  0.18909680513E+03  0.21529988214E+03  0.99686373953E+02 0.  0.
         23    2    1    2    0    0  0.18931703455E+02 -0.17339405844E+02  0.18583902814E+03  0.20864403307E+03  0.91307851604E+02 0.  0.
          5    1    4    4  502    0 -0.10703720652E+02 -0.35881697593E+02  0.28209308089E+02  0.47116036769E+02  0.47000000000E+01 0. -1.
         -5    1    4    4    0  502  0.29635424107E+02  0.18542291749E+02  0.15762972005E+03  0.16152799630E+03  0.47000000000E+01 0.  1.
          5    1    3    3  503    0 -0.56449127756E+02  0.22575612032E+02  0.14294668617E+03  0.15540916115E+03  0.47000000000E+01 0. -1.
         -5    1    3    3    0  503  0.37517424301E+02 -0.52362061876E+01  0.46150118959E+02  0.59890720995E+02  0.47000000000E+01 0.  1.
<mgrwt>
<rscale>  0 0.10085380E+03</rscale>
<asrwt>0</asrwt>
<pdfrwt beam="1">  1        1 0.61452283E-01 0.10293900E+03</pdfrwt>
<pdfrwt beam="2">  1       -1 0.37698528E-02 0.10293900E+03</pdfrwt>
<totfact> 0.14994773E+04</totfact>
</mgrwt>
</event>
<event>
 8    1  0.3400573E-004  0.1087252E+03  0.7546771E-02  0.1263373E+00
          1   -1    0    0  501    0  0.00000000000E+00  0.00000000000E+00  0.45808141542E+02  0.45808141542E+02  0.00000000000E+00 0. -1.
         -1   -1    0    0    0  501 -0.00000000000E+00 -0.00000000000E+00 -0.28242978528E+03  0.28242978528E+03  0.00000000000E+00 0.  1.
         23    2    1    2    0    0  0.65082902037E+01  0.58281179746E+02 -0.16902531346E+03  0.20097441811E+03  0.91553844211E+02 0.  0.
         23    2    1    2    0    0 -0.65082902037E+01 -0.58281179746E+02 -0.67596330271E+02  0.12726350871E+03  0.90485816724E+02 0.  0.
          5    1    3    3  502    0 -0.13151538209E+02  0.16404575238E+02  0.39101824603E+01  0.21896405478E+02  0.47000000000E+01 0. -1.
         -5    1    4    4    0  503  0.13480761541E+02  0.15594015468E+02 -0.40956641842E+02  0.46091656090E+02  0.47000000000E+01 0.  1.
          5    1    4    4  503    0 -0.19989051745E+02 -0.73875195214E+02 -0.26639688429E+02  0.81171852616E+02  0.47000000000E+01 0. -1.
         -5    1    3    3    0  502  0.19659828413E+02  0.41876604509E+02 -0.17293549592E+03  0.17907801263E+03  0.47000000000E+01 0.  1.
<mgrwt>
<rscale>  0 0.10850001E+03</rscale>
<asrwt>0</asrwt>
<pdfrwt beam="1">  1        1 0.70474064E-02 0.10872516E+03</pdfrwt>
<pdfrwt beam="2">  1       -1 0.43450736E-01 0.10872516E+03</pdfrwt>
<totfact> 0.51621785E+03</totfact>
</mgrwt>
</event>
<event>
 8    1  0.3400573E-004  0.9311865E+02  0.7546771E-02  0.1295754E+00
         -3   -1    0    0    0  501 -0.00000000000E+00  0.00000000000E+00  0.10112167778E+03  0.10112167778E+03  0.00000000000E+00 0.  1.
          3   -1    0    0  501    0  0.00000000000E+00 -0.00000000000E+00 -0.12210340928E+03  0.12210340928E+03  0.00000000000E+00 0. -1.
         23    2    1    2    0    0  0.71113253979E+01  0.22716640884E+01 -0.71787501153E+02  0.11757775048E+03  0.92818913366E+02 0.  0.
         23    2    1    2    0    0 -0.71113253979E+01 -0.22716640884E+01  0.50805769662E+02  0.10564733659E+03  0.92327688642E+02 0.  0.
          5    1    4    4  502    0 -0.43206594559E+02  0.87251167553E+01  0.28145497409E+01  0.44417892408E+02  0.47000000000E+01 0. -1.
         -5    1    3    3    0  503  0.36983733974E+02 -0.26573463172E+02 -0.57306351314E+02  0.73348847466E+02  0.47000000000E+01 0.  1.
          5    1    3    3  503    0 -0.29872408576E+02  0.28845127260E+02 -0.14481149839E+02  0.44228903010E+02  0.47000000000E+01 0. -1.
         -5    1    4    4    0  502  0.36095269161E+02 -0.10996780844E+02  0.47991219921E+02  0.61229444177E+02  0.47000000000E+01 0.  1.
<mgrwt>
<rscale>  0 0.92995994E+02</rscale>
<asrwt>0</asrwt>
<pdfrwt beam="1">  1        3 0.18785140E-01 0.93118645E+02</pdfrwt>
<pdfrwt beam="2">  1       -3 0.15557181E-01 0.93118645E+02</pdfrwt>
<totfact> 0.18681263E+03</totfact>
</mgrwt>
</event>
<event>
 8    1  0.3400573E-004  0.9130889E+02  0.7546771E-02  0.1304491E+00
         -1   -1    0    0    0  501 -0.00000000000E+00  0.00000000000E+00  0.10294469071E+02  0.10294469071E+02  0.00000000000E+00 0.  1.
          1   -1    0    0  501    0  0.00000000000E+00 -0.00000000000E+00 -0.74757058789E+03  0.74757058789E+03  0.00000000000E+00 0. -1.
         23    2    1    2    0    0  0.84434138962E-01  0.14772258480E+02 -0.38139804731E+03  0.39045994586E+03  0.82318115150E+02 0.  0.
         23    2    1    2    0    0 -0.84434138962E-01 -0.14772258480E+02 -0.35587807151E+03  0.36740511110E+03  0.90105977215E+02 0.  0.
          5    1    3    3  502    0 -0.24194806009E+02  0.24748016298E+02 -0.33599230863E+03  0.33780286323E+03  0.47000000000E+01 0. -1.
         -5    1    4    4    0  503  0.41557184308E+02 -0.19605281930E+02 -0.13933082308E+03  0.14678737993E+03  0.47000000000E+01 0.  1.
          5    1    4    4  503    0 -0.41641618446E+02  0.48330234496E+01 -0.21654724842E+03  0.22061773116E+03  0.47000000000E+01 0. -1.
         -5    1    3    3    0  502  0.24279240148E+02 -0.99757578175E+01 -0.45405738675E+02  0.52657082627E+02  0.47000000000E+01 0.  1.
<mgrwt>
<rscale>  0 0.89326308E+02</rscale>
<asrwt>0</asrwt>
<pdfrwt beam="1">  1        1 0.11501088E+00 0.91308893E+02</pdfrwt>
<pdfrwt beam="2">  1       -1 0.15837641E-02 0.91308893E+02</pdfrwt>
<totfact> 0.22482990E+04</totfact>
</mgrwt>
</event>
<event>
 8    1  0.3400573E-004  0.1173802E+03  0.7546771E-02  0.1247590E+00
         -2   -1    0    0    0  501 -0.00000000000E+00  0.00000000000E+00  0.95090431871E+02  0.95090431871E+02  0.00000000000E+00 0.  1.
          2   -1    0    0  501    0  0.00000000000E+00 -0.00000000000E+00 -0.14564395966E+03  0.14564395966E+03  0.00000000000E+00 0. -1.
         23    2    1    2    0    0 -0.67649432103E+02 -0.30891592098E+02 -0.15031520498E+02  0.11833869824E+03  0.90815002984E+02 0.  0.
         23    2    1    2    0    0  0.67649432103E+02  0.30891592098E+02 -0.35522007286E+02  0.12239569328E+03  0.90488433551E+02 0.  0.
          5    1    3    3  502    0  0.56510275865E+01 -0.23292445830E+02  0.24487230369E+02  0.34585930617E+02  0.47000000000E+01 0. -1.
         -5    1    3    3    0  502 -0.73300459690E+02 -0.75991462677E+01 -0.39518750868E+02  0.83752767625E+02  0.47000000000E+01 0.  1.
          5    1    4    4  503    0  0.63855010258E+02 -0.13973973737E+02 -0.40203384943E+02  0.76883915340E+02  0.47000000000E+01 0. -1.
         -5    1    4    4    0  503  0.37944218452E+01  0.44865565835E+02  0.46813776572E+01  0.45511777944E+02  0.47000000000E+01 0.  1.
<mgrwt>
<rscale>  0 0.11731698E+03</rscale>
<asrwt>0</asrwt>
<pdfrwt beam="1">  1        2 0.22406763E-01 0.11738016E+03</pdfrwt>
<pdfrwt beam="2">  1       -2 0.14629297E-01 0.11738016E+03</pdfrwt>
<totfact> 0.81247839E+03</totfact>
</mgrwt>
</event>
<event>
 8    1  0.3400573E-004  0.9667225E+02  0.7546771E-02  0.1287666E+00
          3   -1    0    0  501    0  0.00000000000E+00  0.00000000000E+00  0.52529688864E+03  0.52529688864E+03  0.00000000000E+00 0. -1.
         -3   -1    0    0    0  501 -0.00000000000E+00 -0.00000000000E+00 -0.23277962548E+02  0.23277962548E+02  0.00000000000E+00 0.  1.
         23    2    1    2    0    0 -0.25674185461E+02  0.13670397695E+02  0.11659956676E+03  0.15121656714E+03  0.91787513504E+02 0.  0.
         23    2    1    2    0    0  0.25674185461E+02 -0.13670397695E+02  0.38541935933E+03  0.39735828405E+03  0.92192623267E+02 0.  0.
          5    1    3    3  502    0  0.31598698276E+02  0.17431398978E+02  0.61814622260E+02  0.71731924052E+02  0.47000000000E+01 0. -1.
         -5    1    3    3    0  502 -0.57272883737E+02 -0.37610012826E+01  0.54784944501E+02  0.79484643084E+02  0.47000000000E+01 0.  1.
          5    1    4    4  503    0 -0.61621065517E+01  0.29765621342E+02  0.24447941977E+03  0.24640665669E+03  0.47000000000E+01 0. -1.
         -5    1    4    4    0  503  0.31836292013E+02 -0.43436019038E+02  0.14093993956E+03  0.15095162736E+03  0.47000000000E+01 0.  1.
<mgrwt>
<rscale>  0 0.96575537E+02</rscale>
<asrwt>0</asrwt>
<pdfrwt beam="1">  1        3 0.80814897E-01 0.96672247E+02</pdfrwt>
<pdfrwt beam="2">  1       -3 0.35812254E-02 0.96672247E+02</pdfrwt>
<totfact> 0.12241404E+03</totfact>
</mgrwt>
</event>
<event>
 8    1  0.3400573E-004  0.1022555E+03  0.7546771E-02  0.1278365E+00
          1   -1    0    0  501    0  0.00000000000E+00  0.00000000000E+00  0.35218900378E+03  0.35218900378E+03  0.00000000000E+00 0. -1.
         -1   -1    0    0    0  501 -0.00000000000E+00 -0.00000000000E+00 -0.49916334051E+02  0.49916334051E+02  0.00000000000E+00 0.  1.
         23    2    1    2    0    0  0.29149150302E+02  0.14758013400E+02  0.28598490750E+03  0.30371624994E+03  0.96895413928E+02 0.  0.
         23    2    1    2    0    0 -0.29149150302E+02 -0.14758013400E+02  0.16287762233E+02  0.98389087889E+02  0.91365472112E+02 0.  0.
          5    1    3    3  502    0  0.44805503099E+02  0.44849721851E+02  0.22462532678E+03  0.23344733473E+03  0.47000000000E+01 0. -1.
         -5    1    4    4    0  503  0.29920890985E+02 -0.17840828447E+02  0.17002787909E+02  0.39047915100E+02  0.47000000000E+01 0.  1.
          5    1    4    4  503    0 -0.59070041287E+02  0.30828150471E+01 -0.71502567633E+00  0.59341172789E+02  0.47000000000E+01 0. -1.
         -5    1    3    3    0  502 -0.15656352797E+02 -0.30091708451E+02  0.61359580715E+02  0.70268915218E+02  0.47000000000E+01 0.  1.
<mgrwt>
<rscale>  0 0.10092374E+03</rscale>
<asrwt>0</asrwt>
<pdfrwt beam="1">  1        1 0.54182922E-01 0.10225553E+03</pdfrwt>
<pdfrwt beam="2">  1       -1 0.76794362E-02 0.10225553E+03</pdfrwt>
<totfact> 0.61435630E+03</totfact>
</mgrwt>
</event>
<event>
 8    1  0.3400573E-004  0.1620717E+03  0.7546771E-02  0.1186589E+00
         -1   -1    0    0    0  501 -0.00000000000E+00  0.00000000000E+00  0.15196327421E+04  0.15196327421E+04  0.00000000000E+00 0.  1.
          1   -1    0    0  501    0  0.00000000000E+00 -0.00000000000E+00 -0.23428496682E+02  0.23428496682E+02  0.00000000000E+00 0. -1.
         23    2    1    2    0    0  0.13332035055E+02 -0.13319249033E+03  0.11444786325E+04  0.11557911150E+04  0.90020989745E+02 0.  0.
         23    2    1    2    0    0 -0.13332035055E+02  0.13319249033E+03  0.35172561299E+03  0.38727012387E+03  0.91374281772E+02 0.  0.
          5    1    3    3  502    0 -0.24600297591E+02 -0.34370751284E+02  0.15747403011E+03  0.16311555212E+03  0.47000000000E+01 0. -1.
         -5    1    4    4    0  503 -0.32074574566E+02  0.39885155903E+02  0.21203304308E+03  0.21817356704E+03  0.47000000000E+01 0.  1.
          5    1    4    4  503    0  0.18742539511E+02  0.93307334423E+02  0.13969256991E+03  0.16909655683E+03  0.47000000000E+01 0. -1.
         -5    1    3    3    0  502  0.37932332646E+02 -0.98821739042E+02  0.98700460235E+03  0.99267556283E+03  0.47000000000E+01 0.  1.
<mgrwt>
<rscale>  0 0.16188161E+03</rscale>
<asrwt>0</asrwt>
<pdfrwt beam="1">  1        1 0.36043853E-02 0.16207172E+03</pdfrwt>
<pdfrwt beam="2">  1       -1 0.23378958E+00 0.16207172E+03</pdfrwt>
<totfact> 0.26560803E+02</totfact>
</mgrwt>
</event>
<event>
 8    1  0.3400573E-004  0.9401169E+02  0.7546771E-02  0.1299111E+00
          2   -1    0    0  501    0  0.00000000000E+00  0.00000000000E+00  0.45319518317E+02  0.45319518317E+02  0.00000000000E+00 0. -1.
         -2   -1    0    0    0  501 -0.00000000000E+00 -0.00000000000E+00 -0.19109842243E+03  0.19109842243E+03  0.00000000000E+00 0.  1.
         23    2    1    2    0    0 -0.17954926172E+02  0.28989180762E+01 -0.36128743086E+02  0.91983332916E+02  0.82612737260E+02 0.  0.
         23    2    1    2    0    0  0.17954926172E+02 -0.28989180762E+01 -0.10965016103E+03  0.14443460783E+03  0.92235649431E+02 0.  0.
          5    1    4    4  502    0  0.47354787793E+02 -0.27513574390E+02 -0.70964934311E+02  0.89764049621E+02  0.47000000000E+01 0. -1.
         -5    1    3    3    0  503  0.68477191388E+01  0.27853564420E+02 -0.46647015755E+02  0.54961317189E+02  0.47000000000E+01 0.  1.
          5    1    3    3  503    0 -0.24802645311E+02 -0.24954646344E+02  0.10518272669E+02  0.37022015727E+02  0.47000000000E+01 0. -1.
         -5    1    4    4    0  502 -0.29399861621E+02  0.24614656314E+02 -0.38685226715E+02  0.54670558208E+02  0.47000000000E+01 0.  1.
<mgrwt>
<rscale>  0 0.91562474E+02</rscale>
<asrwt>0</asrwt>
<pdfrwt beam="1">  1        2 0.69722335E-02 0.94011691E+02</pdfrwt>
<pdfrwt beam="2">  1       -2 0.29399758E-01 0.94011691E+02</pdfrwt>
<totfact> 0.97565092E+03</totfact>
</mgrwt>
</event>
<event>
 8    1  0.3400573E-004  0.1042326E+03  0.7546771E-02  0.1272309E+00
          3   -1    0    0  501    0  0.00000000000E+00  0.00000000000E+00  0.58202096880E+02  0.58202096880E+02  0.00000000000E+00 0. -1.
         -3   -1    0    0    0  501 -0.00000000000E+00 -0.00000000000E+00 -0.53154989514E+03  0.53154989514E+03  0.00000000000E+00 0.  1.
         23    2    1    2    0    0  0.20650409543E+02 -0.45263572392E+02 -0.47448486786E+03  0.48551321900E+03  0.90066450972E+02 0.  0.
         23    2    1    2    0    0 -0.20650409543E+02  0.45263572392E+02  0.11370695990E+01  0.10423877303E+03  0.91592567792E+02 0.  0.
          5    1    3    3  502    0  0.32160990116E+02 -0.20552748560E+01 -0.57268079060E+02  0.65880773517E+02  0.47000000000E+01 0. -1.
         -5    1    3    3    0  502 -0.11510580573E+02 -0.43208297536E+02 -0.41721678880E+03  0.41963244548E+03  0.47000000000E+01 0.  1.
          5    1    4    4  503    0  0.27737761309E+02  0.47060435513E+02  0.68529378094E+01  0.55255051803E+02  0.47000000000E+01 0. -1.
         -5    1    4    4    0  503 -0.48388170852E+02 -0.17968631209E+01 -0.57158682103E+01  0.48983721223E+02  0.47000000000E+01 0.  1.
<mgrwt>
<rscale>  0 0.10389633E+03</rscale>
<asrwt>0</asrwt>
<pdfrwt beam="1">  1        3 0.89541688E-02 0.10423257E+03</pdfrwt>
<pdfrwt beam="2">  1       -3 0.81776907E-01 0.10423257E+03</pdfrwt>
<totfact> 0.28275208E+02</totfact>
</mgrwt>
</event>
<event>
 8    1  0.3400573E-004  0.1109082E+03  0.7546771E-02  0.1258981E+00
         -1   -1    0    0    0  501 -0.00000000000E+00  0.00000000000E+00  0.63171741007E+02  0.63171741007E+02  0.00000000000E+00 0.  1.
          1   -1    0    0  501    0  0.00000000000E+00 -0.00000000000E+00 -0.19646376310E+03  0.19646376310E+03  0.00000000000E+00 0. -1.
         23    2    1    2    0    0 -0.14569088311E+02 -0.60455046201E+02 -0.53279643541E+02  0.12287804481E+03  0.91614532332E+02 0.  0.
         23    2    1    2    0    0  0.14569088311E+02  0.60455046201E+02 -0.80012378555E+02  0.13675745930E+03  0.91834367247E+02 0.  0.
          5    1    4    4  502    0  0.19738763727E+02 -0.67682658085E+01 -0.63750479140E+02  0.67243154344E+02  0.47000000000E+01 0. -1.
         -5    1    4    4    0  502 -0.51696754153E+01  0.67223312009E+02 -0.16261899415E+02  0.69514304960E+02  0.47000000000E+01 0.  1.
          5    1    3    3  503    0  0.34788239282E+02 -0.36396701058E+01 -0.15733696630E+02  0.38640755692E+02  0.47000000000E+01 0. -1.
         -5    1    3    3    0  503 -0.49357327593E+02 -0.56815376095E+02 -0.37545946911E+02  0.84237289115E+02  0.47000000000E+01 0.  1.
<mgrwt>
<rscale>  0 0.11086265E+03</rscale>
<asrwt>0</asrwt>
<pdfrwt beam="1">  1        1 0.30225194E-01 0.11090817E+03</pdfrwt>
<pdfrwt beam="2">  1       -1 0.97187294E-02 0.11090817E+03</pdfrwt>
<totfact> 0.88883556E+03</totfact>
</mgrwt>
</event>
<event>
 8    1  0.3400573E-004  0.9925413E+02  0.7546771E-02  0.1282911E+00
         -1   -1    0    0    0  501 -0.00000000000E+00  0.00000000000E+00  0.11211003134E+02  0.11211003134E+02  0.00000000000E+00 0.  1.
          1   -1    0    0  501    0  0.00000000000E+00 -0.00000000000E+00 -0.89264129353E+03  0.89264129353E+03  0.00000000000E+00 0. -1.
         23    2    1    2    0    0  0.32503498575E+02  0.16419513934E+02 -0.35234664478E+03  0.36553929540E+03  0.90248216239E+02 0.  0.
         23    2    1    2    0    0 -0.32503498575E+02 -0.16419513934E+02 -0.52908364561E+03  0.53831300126E+03  0.92332580479E+02 0.  0.
          5    1    3    3  502    0 -0.30023159867E+02  0.15813164500E+02 -0.13978086969E+03  0.14391743407E+03  0.47000000000E+01 0. -1.
         -5    1    3    3    0  502  0.62526658442E+02  0.60634943322E+00 -0.21256577509E+03  0.22162186132E+03  0.47000000000E+01 0.  1.
          5    1    4    4  503    0 -0.57545188203E+02  0.46413784431E+01 -0.22113467176E+03  0.22859489088E+03  0.47000000000E+01 0. -1.
         -5    1    4    4    0  503  0.25041689627E+02 -0.21060892377E+02 -0.30794897385E+03  0.30971811039E+03  0.47000000000E+01 0.  1.
<mgrwt>
<rscale>  0 0.98766552E+02</rscale>
<asrwt>0</asrwt>
<pdfrwt beam="1">  1        1 0.13732942E+00 0.99254135E+02</pdfrwt>
<pdfrwt beam="2">  1       -1 0.17247699E-02 0.99254135E+02</pdfrwt>
<totfact> 0.15373126E+04</totfact>
</mgrwt>
</event>
<event>
 8    1  0.3400573E-004  0.9675899E+02  0.7546771E-02  0.1288885E+00
         -1   -1    0    0    0  501 -0.00000000000E+00  0.00000000000E+00  0.16160061149E+03  0.16160061149E+03  0.00000000000E+00 0.  1.
          1   -1    0    0  501    0  0.00000000000E+00 -0.00000000000E+00 -0.69878884781E+02  0.69878884781E+02  0.00000000000E+00 0. -1.
         23    2    1    2    0    0 -0.21088470164E+02  0.12861332521E+02 -0.47625341263E+01  0.96876130825E+02  0.93553009275E+02 0.  0.
         23    2    1    2    0    0  0.21088470164E+02 -0.12861332521E+02  0.96484260831E+02  0.13460336544E+03  0.90546761135E+02 0.  0.
          5    1    3    3  502    0  0.28133283715E+00  0.44525305441E+02  0.22109500106E+02  0.49934977398E+02  0.47000000000E+01 0. -1.
         -5    1    4    4    0  503  0.37129027698E+02 -0.44413380905E+02  0.57206498594E+02  0.81521693939E+02  0.47000000000E+01 0.  1.
          5    1    4    4  503    0 -0.16040557534E+02  0.31552048384E+02  0.39277762237E+02  0.53081671503E+02  0.47000000000E+01 0. -1.
         -5    1    3    3    0  502 -0.21369803001E+02 -0.31663972919E+02 -0.26872034232E+02  0.46941153428E+02  0.47000000000E+01 0.  1.
<mgrwt>
<rscale>  0 0.96024805E+02</rscale>
<asrwt>0</asrwt>
<pdfrwt beam="1">  1        1 0.10750598E-01 0.96758994E+02</pdfrwt>
<pdfrwt beam="2">  1       -1 0.24861632E-01 0.96758994E+02</pdfrwt>
<totfact> 0.75158423E+03</totfact>
</mgrwt>
</event>
<event>
 8    1  0.3400573E-004  0.1182079E+03  0.7546771E-02  0.1246099E+00
         -1   -1    0    0    0  501 -0.00000000000E+00  0.00000000000E+00  0.12684634349E+03  0.12684634349E+03  0.00000000000E+00 0.  1.
          1   -1    0    0  501    0  0.00000000000E+00 -0.00000000000E+00 -0.15602266077E+03  0.15602266077E+03  0.00000000000E+00 0. -1.
         23    2    1    2    0    0 -0.44108604792E+02  0.61699913316E+02  0.62126020488E+02  0.13350627845E+03  0.90619179224E+02 0.  0.
         23    2    1    2    0    0  0.44108604792E+02 -0.61699913316E+02 -0.91302337766E+02  0.14936272581E+03  0.90667847999E+02 0.  0.
          5    1    3    3  502    0  0.23500612595E+02  0.35677289822E+02  0.36915504066E+02  0.56656793430E+02  0.47000000000E+01 0. -1.
         -5    1    4    4    0  503  0.28558137156E+02 -0.46468762882E+02  0.65363673975E+00  0.54748793252E+02  0.47000000000E+01 0.  1.
          5    1    4    4  503    0  0.15550467636E+02 -0.15231150434E+02 -0.91955974506E+02  0.94613932560E+02  0.47000000000E+01 0. -1.
         -5    1    3    3    0  502 -0.67609217386E+02  0.26022623494E+02  0.25210516422E+02  0.76849485017E+02  0.47000000000E+01 0.  1.
<mgrwt>
<rscale>  0 0.11819856E+03</rscale>
<asrwt>0</asrwt>
<pdfrwt beam="1">  1        1 0.24003486E-01 0.11820790E+03</pdfrwt>
<pdfrwt beam="2">  1       -1 0.19514822E-01 0.11820790E+03</pdfrwt>
<totfact> 0.40299517E+03</totfact>
</mgrwt>
</event>
<event>
 8    1  0.3400573E-004  0.9568925E+02  0.7546771E-02  0.1291444E+00
         -1   -1    0    0    0  501 -0.00000000000E+00  0.00000000000E+00  0.66817914400E+02  0.66817914400E+02  0.00000000000E+00 0.  1.
          1   -1    0    0  501    0  0.00000000000E+00 -0.00000000000E+00 -0.13397270069E+03  0.13397270069E+03  0.00000000000E+00 0. -1.
         23    2    1    2    0    0  0.17319685355E+02  0.24427810300E+01 -0.43524538777E+02  0.10222682488E+03  0.90829508249E+02 0.  0.
         23    2    1    2    0    0 -0.17319685355E+02 -0.24427810300E+01 -0.23630247514E+02  0.98563790213E+02  0.94077061304E+02 0.  0.
          5    1    4    4  502    0 -0.40244226950E+02  0.33217504732E+02 -0.73375360633E+01  0.52904913372E+02  0.47000000000E+01 0. -1.
         -5    1    4    4    0  502  0.22924541595E+02 -0.35660285762E+02 -0.16292711451E+02  0.45658876841E+02  0.47000000000E+01 0.  1.
          5    1    3    3  503    0 -0.18679545063E+02 -0.19224123368E+02 -0.52382886524E+02  0.59030069656E+02  0.47000000000E+01 0. -1.
         -5    1    3    3    0  503  0.35999230417E+02  0.21666904398E+02  0.88583477471E+01  0.43196755221E+02  0.47000000000E+01 0.  1.
<mgrwt>
<rscale>  0 0.94881340E+02</rscale>
<asrwt>0</asrwt>
<pdfrwt beam="1">  1        1 0.20611185E-01 0.95689248E+02</pdfrwt>
<pdfrwt beam="2">  1       -1 0.10279679E-01 0.95689248E+02</pdfrwt>
<totfact> 0.12975230E+04</totfact>
</mgrwt>
</event>
<event>
 8    1  0.3400573E-004  0.9901531E+02  0.7546771E-02  0.1283395E+00
          1   -1    0    0  501    0  0.00000000000E+00  0.00000000000E+00  0.25103716756E+02  0.25103716756E+02  0.00000000000E+00 0. -1.
         -1   -1    0    0    0  501 -0.00000000000E+00 -0.00000000000E+00 -0.53185784013E+03  0.53185784013E+03  0.00000000000E+00 0.  1.
         23    2    1    2    0    0 -0.27245296173E+02 -0.20662193551E+02 -0.39887609224E+03  0.41053170735E+03  0.90911569000E+02 0.  0.
         23    2    1    2    0    0  0.27245296173E+02  0.20662193551E+02 -0.10787803113E+03  0.14642984953E+03  0.92923618237E+02 0.  0.
          5    1    3    3  502    0  0.18501104928E+02 -0.10811993490E+02 -0.23225201487E+02  0.31948240497E+02  0.47000000000E+01 0. -1.
         -5    1    4    4    0  503 -0.11017136343E+02  0.43024467159E+02 -0.85725163854E+02  0.96661138961E+02  0.47000000000E+01 0.  1.
          5    1    4    4  503    0  0.38262432516E+02 -0.22362273608E+02 -0.22152867278E+02  0.49768710568E+02  0.47000000000E+01 0. -1.
         -5    1    3    3    0  502 -0.45746401101E+02 -0.98502000609E+01 -0.37565089075E+03  0.37858346686E+03  0.47000000000E+01 0.  1.
<mgrwt>
<rscale>  0 0.98540459E+02</rscale>
<asrwt>0</asrwt>
<pdfrwt beam="1">  1        1 0.38621104E-02 0.99015308E+02</pdfrwt>
<pdfrwt beam="2">  1       -1 0.81824281E-01 0.99015308E+02</pdfrwt>
<totfact> 0.34965863E+03</totfact>
</mgrwt>
</event>
<event>
 8    1  0.3400573E-004  0.1093263E+03  0.7546771E-02  0.1262764E+00
          1   -1    0    0  501    0  0.00000000000E+00  0.00000000000E+00  0.76385728270E+02  0.76385728270E+02  0.00000000000E+00 0. -1.
         -1   -1    0    0    0  501 -0.00000000000E+00 -0.00000000000E+00 -0.15518655779E+03  0.15518655779E+03  0.00000000000E+00 0.  1.
         23    2    1    2    0    0  0.77303666501E+00 -0.57498178753E+02 -0.51366733827E+02  0.12079231150E+03  0.92981734919E+02 0.  0.
         23    2    1    2    0    0 -0.77303666501E+00  0.57498178753E+02 -0.27434095697E+02  0.11077997456E+03  0.90625244890E+02 0.  0.
          5    1    4    4  502    0  0.35313825478E+02 -0.29629232440E+01 -0.16489252299E+02  0.39367888252E+02  0.47000000000E+01 0. -1.
         -5    1    3    3    0  503  0.24215918533E+02  0.13184053106E+01 -0.51702531890E+02  0.57300878761E+02  0.47000000000E+01 0.  1.
          5    1    3    3  503    0 -0.23442881868E+02 -0.58816584064E+02  0.33579806359E+00  0.63491432742E+02  0.47000000000E+01 0. -1.
         -5    1    4    4    0  502 -0.36086862143E+02  0.60461101997E+02 -0.10944843398E+02  0.71412086309E+02  0.47000000000E+01 0.  1.
<mgrwt>
<rscale>  0 0.10882359E+03</rscale>
<asrwt>0</asrwt>
<pdfrwt beam="1">  1        1 0.11751651E-01 0.10932631E+03</pdfrwt>
<pdfrwt beam="2">  1       -1 0.23874855E-01 0.10932631E+03</pdfrwt>
<totfact> 0.72196420E+03</totfact>
</mgrwt>
</event>
<event>
 8    1  0.3400573E-004  0.1161461E+03  0.7546771E-02  0.1249896E+00
         -3   -1    0    0    0  501 -0.00000000000E+00  0.00000000000E+00  0.82915535744E+03  0.82915535744E+03  0.00000000000E+00 0.  1.
          3   -1    0    0  501    0  0.00000000000E+00 -0.00000000000E+00 -0.17481463069E+02  0.17481463069E+02  0.00000000000E+00 0. -1.
         23    2    1    2    0    0 -0.54330254388E+02  0.45975441074E+02  0.28883365368E+03  0.31105131860E+03  0.90898435511E+02 0.  0.
         23    2    1    2    0    0  0.54330254388E+02 -0.45975441074E+02  0.52284024068E+03  0.53558550191E+03  0.91784502232E+02 0.  0.
          5    1    3    3  502    0 -0.33059790281E+01 -0.23925847266E+02  0.10451298058E+03  0.10737052098E+03  0.47000000000E+01 0. -1.
         -5    1    4    4    0  503  0.60971000434E+02 -0.91910187214E+01  0.44309363534E+03  0.44738797190E+03  0.47000000000E+01 0.  1.
          5    1    4    4  503    0 -0.66407460460E+01 -0.36784422352E+02  0.79746605340E+02  0.88197530006E+02  0.47000000000E+01 0. -1.
         -5    1    3    3    0  502 -0.51024275360E+02  0.69901288340E+02  0.18432067310E+03  0.20368079762E+03  0.47000000000E+01 0.  1.
<mgrwt>
<rscale>  0 0.11597095E+03</rscale>
<asrwt>0</asrwt>
<pdfrwt beam="1">  1        3 0.26894565E-02 0.11614608E+03</pdfrwt>
<pdfrwt beam="2">  1       -3 0.12756233E+00 0.11614608E+03</pdfrwt>
<totfact> 0.69734393E+02</totfact>
</mgrwt>
</event>
<event>
 8    1  0.3400573E-004  0.1167351E+03  0.7546771E-02  0.1251370E+00
         -1   -1    0    0    0  501 -0.00000000000E+00  0.00000000000E+00  0.17151886512E+02  0.17151886512E+02  0.00000000000E+00 0.  1.
          1   -1    0    0  501    0  0.00000000000E+00 -0.00000000000E+00 -0.81576930240E+03  0.81576930240E+03  0.00000000000E+00 0. -1.
         23    2    1    2    0    0  0.38016215513E+02  0.50304059360E+02 -0.52591798388E+03  0.53871774866E+03  0.98241314718E+02 0.  0.
         23    2    1    2    0    0 -0.38016215513E+02 -0.50304059360E+02 -0.27269943201E+03  0.29420344026E+03  0.90636377970E+02 0.  0.
          5    1    4    4  502    0  0.11151227099E+02 -0.56246025600E+02 -0.11099702912E+03  0.12502158108E+03  0.47000000000E+01 0. -1.
         -5    1    4    4    0  502 -0.49167442612E+02  0.59419662403E+01 -0.16170240288E+03  0.16918185918E+03  0.47000000000E+01 0.  1.
          5    1    3    3  503    0  0.58537506055E+02  0.32763681263E+01 -0.36623050400E+03  0.37092350460E+03  0.47000000000E+01 0. -1.
         -5    1    3    3    0  503 -0.20521290542E+02  0.47027691233E+02 -0.15968747988E+03  0.16779424406E+03  0.47000000000E+01 0.  1.
<mgrwt>
<rscale>  0 0.11512102E+03</rscale>
<asrwt>0</asrwt>
<pdfrwt beam="1">  1        1 0.12550295E+00 0.11673511E+03</pdfrwt>
<pdfrwt beam="2">  1       -1 0.26387522E-02 0.11673511E+03</pdfrwt>
<totfact> 0.97026795E+03</totfact>
</mgrwt>
</event>
<event>
 8    1  0.3400573E-004  0.9840503E+02  0.7546771E-02  0.1285876E+00
         -1   -1    0    0    0  501 -0.00000000000E+00  0.00000000000E+00  0.28883362430E+03  0.28883362430E+03  0.00000000000E+00 0.  1.
          1   -1    0    0  501    0  0.00000000000E+00 -0.00000000000E+00 -0.32204834186E+02  0.32204834186E+02  0.00000000000E+00 0. -1.
         23    2    1    2    0    0 -0.19045859595E+02  0.25584183396E+02  0.13523016798E+03  0.16724457611E+03  0.93092720979E+02 0.  0.
         23    2    1    2    0    0  0.19045859595E+02 -0.25584183396E+02  0.12139862213E+03  0.15379388237E+03  0.88868653592E+02 0.  0.
          5    1    3    3  502    0 -0.15415466762E+02 -0.29434091844E+02  0.19121055385E+02  0.38622624680E+02  0.47000000000E+01 0. -1.
         -5    1    3    3    0  502 -0.36303928331E+01  0.55018275240E+02  0.11610911260E+03  0.12862195143E+03  0.47000000000E+01 0.  1.
          5    1    4    4  503    0  0.28106732182E+02  0.42289093735E+01  0.45526256669E+00  0.28812659239E+02  0.47000000000E+01 0. -1.
         -5    1    4    4    0  503 -0.90608725866E+01 -0.29813092770E+02  0.12094335956E+03  0.12498122313E+03  0.47000000000E+01 0.  1.
<mgrwt>
<rscale>  0 0.97392997E+02</rscale>
<asrwt>0</asrwt>
<pdfrwt beam="1">  1        1 0.49545901E-02 0.98405030E+02</pdfrwt>
<pdfrwt beam="2">  1       -1 0.44435941E-01 0.98405030E+02</pdfrwt>
<totfact> 0.79106106E+03</totfact>
</mgrwt>
</event>
<event>
 8    1  0.3400573E-004  0.1277912E+03  0.7546771E-02  0.1230888E+00
         -1   -1    0    0    0  501 -0.00000000000E+00  0.00000000000E+00  0.11861200139E+03  0.11861200139E+03  0.00000000000E+00 0.  1.
          1   -1    0    0  501    0  0.00000000000E+00 -0.00000000000E+00 -0.14653273257E+03  0.14653273257E+03  0.00000000000E+00 0. -1.
         23    2    1    2    0    0 -0.57848895247E+02  0.68402221781E+02  0.19248981167E+02  0.12892585486E+03  0.90697266495E+02 0.  0.
         23    2    1    2    0    0  0.57848895247E+02 -0.68402221781E+02 -0.47169712347E+02  0.13621887911E+03  0.91133103954E+02 0.  0.
          5    1    3    3  502    0 -0.42688499323E+02  0.77199583550E+01 -0.26715329607E+02  0.51163508163E+02  0.47000000000E+01 0. -1.
         -5    1    4    4    0  503  0.22636229015E+02 -0.78651910910E+02 -0.54610755592E+02  0.98503535876E+02  0.47000000000E+01 0. -1.
          5    1    4    4  503    0  0.35212666232E+02  0.10249689129E+02  0.74410432457E+01  0.37715343230E+02  0.47000000000E+01 0.  1.
         -5    1    3    3    0  502 -0.15160395923E+02  0.60682263426E+02  0.45964310774E+02  0.77762346698E+02  0.47000000000E+01 0.  1.
<mgrwt>
<rscale>  0 0.12771356E+03</rscale>
<asrwt>0</asrwt>
<pdfrwt beam="1">  1        1 0.22543497E-01 0.12779124E+03</pdfrwt>
<pdfrwt beam="2">  1       -1 0.18248000E-01 0.12779124E+03</pdfrwt>
<totfact> 0.48758095E+03</totfact>
</mgrwt>
</event>
<event>
 7    1  0.3400573E-004  0.2273527E+03  0.7546771E-02  0.1158569E+00
          1   -1    0    0  501    0  0.00000000000E+00  0.00000000000E+00  0.30011789094E+03  0.30011789094E+03  0.00000000000E+00 0. -1.
         -1   -1    0    0    0  501 -0.00000000000E+00 -0.00000000000E+00 -0.10189434202E+03  0.10189434202E+03  0.00000000000E+00 0.  1.
         23    2    1    2    0    0  0.54975412331E+02 -0.31241501075E+02  0.11589700345E+03  0.16021289897E+03  0.90761942670E+02 0.  0.
          5    1    1    2  502    0 -0.41851424313E+02 -0.83167460569E+02  0.85509439470E+02  0.12650028638E+03  0.47000000000E+01 0. -1.
         -5    1    1    2    0  502 -0.13123988018E+02  0.11440896164E+03 -0.31828939959E+01  0.11529904761E+03  0.47000000000E+01 0.  1.
          5    1    3    3  503    0  0.91238223223E+01 -0.37319892096E+02  0.10577317917E+03  0.11263247272E+03  0.47000000000E+01 0. -1.
         -5    1    3    3    0  503  0.45851590008E+02  0.60783910217E+01  0.10123824277E+02  0.47580426246E+02  0.47000000000E+01 0.  1.
<mgrwt>
<rscale>  0 0.18988047E+03</rscale>
<asrwt>0</asrwt>
<pdfrwt beam="1">  1        1 0.46171983E-01 0.22735272E+03</pdfrwt>
<pdfrwt beam="2">  1       -1 0.15676053E-01 0.22735272E+03</pdfrwt>
<totfact> 0.25986808E+03</totfact>
</mgrwt>
</event>
<event>
 8    1  0.3400573E-004  0.1000373E+03  0.7546771E-02  0.1282404E+00
          1   -1    0    0  501    0  0.00000000000E+00  0.00000000000E+00  0.40701879037E+02  0.40701879037E+02  0.00000000000E+00 0. -1.
         -1   -1    0    0    0  501 -0.00000000000E+00 -0.00000000000E+00 -0.46115979739E+03  0.46115979739E+03  0.00000000000E+00 0.  1.
         23    2    1    2    0    0 -0.39388490437E+01 -0.18417679384E+02 -0.38779139483E+03  0.40048674370E+03  0.98248361468E+02 0.  0.
         23    2    1    2    0    0  0.39388490437E+01  0.18417679384E+02 -0.32666523523E+02  0.10137493273E+03  0.94101274064E+02 0.  0.
          5    1    3    3  502    0 -0.16778354213E+01  0.40458860497E+02 -0.16969640953E+03  0.17452419870E+03  0.47000000000E+01 0. -1.
         -5    1    4    4    0  503  0.16530852549E+02 -0.24694765635E+02 -0.45391730462E+02  0.54457320262E+02  0.47000000000E+01 0.  1.
          5    1    4    4  503    0 -0.12592003505E+02  0.43112445019E+02  0.12725206938E+02  0.46917612465E+02  0.47000000000E+01 0. -1.
         -5    1    3    3    0  502 -0.22610136225E+01 -0.58876539880E+02 -0.21809498530E+03  0.22596254500E+03  0.47000000000E+01 0.  1.
<mgrwt>
<rscale>  0 0.99003985E+02</rscale>
<asrwt>0</asrwt>
<pdfrwt beam="1">  1        1 0.62618269E-02 0.10003732E+03</pdfrwt>
<pdfrwt beam="2">  1       -1 0.70947669E-01 0.10003732E+03</pdfrwt>
<totfact> 0.24193088E+03</totfact>
</mgrwt>
</event>
<event>
 8    1  0.3400573E-004  0.1112870E+03  0.7546771E-02  0.1260220E+00
          2   -1    0    0  501    0  0.00000000000E+00  0.00000000000E+00  0.15906245480E+03  0.15906245480E+03  0.00000000000E+00 0. -1.
         -2   -1    0    0    0  501 -0.00000000000E+00 -0.00000000000E+00 -0.11028426984E+03  0.11028426984E+03  0.00000000000E+00 0.  1.
         23    2    1    2    0    0 -0.32017480139E+02 -0.54040027769E+02  0.10102997160E+03  0.15030583791E+03  0.91865913771E+02 0.  0.
         23    2    1    2    0    0  0.32017480139E+02  0.54040027769E+02 -0.52251786645E+02  0.11904088673E+03  0.86573898322E+02 0.  0.
          5    1    3    3  502    0 -0.59313619171E+02 -0.54933341313E+02  0.59966963834E+02  0.10076658255E+03  0.47000000000E+01 0. -1.
         -5    1    4    4    0  503  0.60973422018E+02  0.43717734321E+02 -0.30679172553E+02  0.81192980702E+02  0.47000000000E+01 0.  1.
          5    1    4    4  503    0 -0.28955941879E+02  0.10322293448E+02 -0.21572614092E+02  0.37847906030E+02  0.47000000000E+01 0. -1.
         -5    1    3    3    0  502  0.27296139032E+02  0.89331354461E+00  0.41063007763E+02  0.49539255361E+02  0.47000000000E+01 0.  1.
<mgrwt>
<rscale>  0 0.11018914E+03</rscale>
<asrwt>0</asrwt>
<pdfrwt beam="1">  1        2 0.24471147E-01 0.11128697E+03</pdfrwt>
<pdfrwt beam="2">  1       -2 0.16966811E-01 0.11128697E+03</pdfrwt>
<totfact> 0.57607630E+03</totfact>
</mgrwt>
</event>
<event>
 8    1  0.3400573E-004  0.1049094E+03  0.7546771E-02  0.1271272E+00
          1   -1    0    0  501    0  0.00000000000E+00  0.00000000000E+00  0.69869481837E+02  0.69869481837E+02  0.00000000000E+00 0. -1.
         -1   -1    0    0    0  501 -0.00000000000E+00 -0.00000000000E+00 -0.15697590835E+03  0.15697590835E+03  0.00000000000E+00 0.  1.
         23    2    1    2    0    0 -0.27277894519E+02 -0.34844327671E+02 -0.30004804410E+02  0.10911584760E+03  0.95119762456E+02 0.  0.
         23    2    1    2    0    0  0.27277894519E+02  0.34844327671E+02 -0.57101622102E+02  0.11772954258E+03  0.92959341920E+02 0.  0.
          5    1    3    3  502    0 -0.57100581822E+02 -0.21068357946E+02 -0.41702458519E+02  0.73929271588E+02  0.47000000000E+01 0. -1.
         -5    1    4    4    0  503  0.19135774005E+02 -0.24248437931E+02 -0.47900730654E+02  0.57190336474E+02  0.47000000000E+01 0.  1.
          5    1    4    4  503    0  0.81421205139E+01  0.59092765602E+02 -0.92008914484E+01  0.60539206110E+02  0.47000000000E+01 0. -1.
         -5    1    3    3    0  502  0.29822687303E+02 -0.13775969726E+02  0.11697654110E+02  0.35186576013E+02  0.47000000000E+01 0.  1.
<mgrwt>
<rscale>  0 0.10441724E+03</rscale>
<asrwt>0</asrwt>
<pdfrwt beam="1">  1        1 0.10749151E-01 0.10490939E+03</pdfrwt>
<pdfrwt beam="2">  1       -1 0.24150140E-01 0.10490939E+03</pdfrwt>
<totfact> 0.79352623E+03</totfact>
</mgrwt>
</event>
<event>
 8    1  0.3400573E-004  0.1135973E+03  0.7546771E-02  0.1255145E+00
          4   -1    0    0  501    0  0.00000000000E+00  0.00000000000E+00  0.39618344568E+02  0.39618344568E+02  0.00000000000E+00 0. -1.
         -4   -1    0    0    0  501 -0.00000000000E+00 -0.00000000000E+00 -0.35128850237E+03  0.35128850237E+03  0.00000000000E+00 0.  1.
         23    2    1    2    0    0 -0.38282906337E+02 -0.50456331422E+02 -0.21684684932E+03  0.24479970928E+03  0.94302276264E+02 0.  0.
         23    2    1    2    0    0  0.38282906337E+02  0.50456331422E+02 -0.94823308489E+02  0.14610713766E+03  0.91347761569E+02 0.  0.
          5    1    4    4  502    0  0.52800862050E+02  0.68873709317E+02 -0.69584089462E+02  0.11133532402E+03  0.47000000000E+01 0. -1.
         -5    1    4    4    0  502 -0.14517955713E+02 -0.18417377895E+02 -0.25239219026E+02  0.34771813638E+02  0.47000000000E+01 0.  1.
          5    1    3    3  503    0 -0.67607767810E+02 -0.40905926194E+02 -0.12658036923E+03  0.14929428971E+03  0.47000000000E+01 0. -1.
         -5    1    3    3    0  503  0.29324861473E+02 -0.95504052282E+01 -0.90266480087E+02  0.95505419573E+02  0.47000000000E+01 0.  1.
<mgrwt>
<rscale>  0 0.11298218E+03</rscale>
<asrwt>0</asrwt>
<pdfrwt beam="1">  1        4 0.60951297E-02 0.11359728E+03</pdfrwt>
<pdfrwt beam="2">  1       -4 0.54044387E-01 0.11359728E+03</pdfrwt>
<totfact> 0.90929306E+02</totfact>
</mgrwt>
</event>
<event>
 8    1  0.3400573E-004  0.1058865E+03  0.7546771E-02  0.1271172E+00
         -1   -1    0    0    0  501 -0.00000000000E+00  0.00000000000E+00  0.74379710721E+02  0.74379710721E+02  0.00000000000E+00 0.  1.
          1   -1    0    0  501    0  0.00000000000E+00 -0.00000000000E+00 -0.21471176478E+03  0.21471176478E+03  0.00000000000E+00 0. -1.
         23    2    1    2    0    0  0.31925942583E+02  0.24696595581E+02 -0.15246553177E+03  0.18251209044E+03  0.91846269028E+02 0.  0.
         23    2    1    2    0    0 -0.31925942583E+02 -0.24696595581E+02  0.12133477706E+02  0.10657938507E+03  0.97891554270E+02 0.  0.
          5    1    3    3  502    0 -0.48787711331E-01  0.33407092074E+02 -0.86149757592E+01  0.34818730426E+02  0.47000000000E+01 0.  1.
         -5    1    4    4    0  503 -0.63898553453E+02  0.65665707016E+00  0.13503183148E+02  0.65481923361E+02  0.47000000000E+01 0.  1.
          5    1    4    4  503    0  0.31972610870E+02 -0.25353252651E+02 -0.13697054414E+01  0.41097461708E+02  0.47000000000E+01 0. -1.
         -5    1    3    3    0  502  0.31974730294E+02 -0.87104964934E+01 -0.14385055601E+03  0.14769336001E+03  0.47000000000E+01 0. -1.
<mgrwt>
<rscale>  0 0.10446761E+03</rscale>
<asrwt>0</asrwt>
<pdfrwt beam="1">  1        1 0.33032579E-01 0.10588647E+03</pdfrwt>
<pdfrwt beam="2">  1       -1 0.11443032E-01 0.10588647E+03</pdfrwt>
<totfact> 0.61910580E+03</totfact>
</mgrwt>
</event>
<event>
 8    1  0.3400573E-004  0.9522624E+02  0.7546771E-02  0.1291212E+00
         -2   -1    0    0    0  501 -0.00000000000E+00  0.00000000000E+00  0.14059710293E+02  0.14059710293E+02  0.00000000000E+00 0.  1.
          2   -1    0    0  501    0  0.00000000000E+00 -0.00000000000E+00 -0.81885293684E+03  0.81885293684E+03  0.00000000000E+00 0. -1.
         23    2    1    2    0    0  0.12135603441E+02  0.18134637756E+02 -0.59627337873E+03  0.60367791195E+03  0.91700279363E+02 0.  0.
         23    2    1    2    0    0 -0.12135603441E+02 -0.18134637756E+02 -0.20851984781E+03  0.22923473518E+03  0.92692496588E+02 0.  0.
          5    1    3    3  502    0  0.44393162538E+02  0.28263845200E+02 -0.46678047208E+03  0.46976131912E+03  0.47000000000E+01 0. -1.
         -5    1    3    3    0  502 -0.32257559097E+02 -0.10129207444E+02 -0.12949290665E+03  0.13391659283E+03  0.47000000000E+01 0.  1.
          5    1    4    4  503    0 -0.82236229005E+01  0.30931019793E+02 -0.30443648997E+02  0.44421410641E+02  0.47000000000E+01 0. -1.
         -5    1    4    4    0  503 -0.39119805403E+01 -0.49065657550E+02 -0.17807619882E+03  0.18481332454E+03  0.47000000000E+01 0.  1.
<mgrwt>
<rscale>  0 0.94983932E+02</rscale>
<asrwt>0</asrwt>
<pdfrwt beam="1">  1        2 0.12597738E+00 0.95226241E+02</pdfrwt>
<pdfrwt beam="2">  1       -2 0.21630323E-02 0.95226241E+02</pdfrwt>
<totfact> 0.21789747E+04</totfact>
</mgrwt>
</event>
<event>
 8    1  0.3400573E-004  0.1005930E+03  0.7546771E-02  0.1282481E+00
         -2   -1    0    0    0  501 -0.00000000000E+00  0.00000000000E+00  0.18504504774E+02  0.18504504774E+02  0.00000000000E+00 0.  1.
          2   -1    0    0  501    0  0.00000000000E+00 -0.00000000000E+00 -0.51496861464E+03  0.51496861464E+03  0.00000000000E+00 0. -1.
         23    2    1    2    0    0  0.18147932528E+02  0.26498547016E+02 -0.23937366174E+03  0.25965110300E+03  0.95327985973E+02 0.  0.
         23    2    1    2    0    0 -0.18147932528E+02 -0.26498547016E+02 -0.25709044813E+03  0.27382201641E+03  0.88608564496E+02 0.  0.
          5    1    4    4  502    0  0.21544018716E+02  0.12700922766E+02 -0.27343542998E+02  0.37352610688E+02  0.47000000000E+01 0. -1.
         -5    1    4    4    0  502 -0.39691951243E+02 -0.39199469781E+02 -0.22974690514E+03  0.23646940573E+03  0.47000000000E+01 0.  1.
          5    1    3    3  503    0  0.28007161647E+02  0.53953771831E+02 -0.20712466921E+03  0.21591231830E+03  0.47000000000E+01 0. -1.
         -5    1    3    3    0  503 -0.98592291192E+01 -0.27455224815E+02 -0.32248992523E+02  0.43738784702E+02  0.47000000000E+01 0.  1.
<mgrwt>
<rscale>  0 0.98968199E+02</rscale>
<asrwt>0</asrwt>
<pdfrwt beam="1">  1        2 0.79225943E-01 0.10059297E+03</pdfrwt>
<pdfrwt beam="2">  1       -2 0.28468468E-02 0.10059297E+03</pdfrwt>
<totfact> 0.25097265E+04</totfact>
</mgrwt>
</event>
<event>
 8    1  0.3400573E-004  0.1518627E+03  0.7546771E-02  0.1198554E+00
         -1   -1    0    0    0  501 -0.00000000000E+00  0.00000000000E+00  0.16577053870E+04  0.16577053870E+04  0.00000000000E+00 0.  1.
          1   -1    0    0  501    0  0.00000000000E+00 -0.00000000000E+00 -0.14213513589E+02  0.14213513589E+02  0.00000000000E+00 0. -1.
         23    2    1    2    0    0  0.12201541893E+03 -0.29895773874E+01  0.68328876817E+03  0.69996129095E+03  0.90363532969E+02 0.  0.
         23    2    1    2    0    0 -0.12201541893E+03  0.29895773874E+01  0.96020310529E+03  0.97195760969E+03  0.88401875488E+02 0.  0.
          5    1    4    4  502    0 -0.63404355138E+02  0.40485732493E+02  0.36633074493E+03  0.37400469444E+03  0.47000000000E+01 0. -1.
         -5    1    3    3    0  503  0.12391446172E+03 -0.25463180190E+02  0.61492389195E+03  0.62781896297E+03  0.47000000000E+01 0.  1.
          5    1    3    3  503    0 -0.18990427840E+01  0.22473602803E+02  0.68364876218E+02  0.72142327982E+02  0.47000000000E+01 0. -1.
         -5    1    4    4    0  502 -0.58611063796E+02 -0.37496155106E+02  0.59387236036E+03  0.59795291525E+03  0.47000000000E+01 0.  1.
<mgrwt>
<rscale>  0 0.15157208E+03</rscale>
<asrwt>0</asrwt>
<pdfrwt beam="1">  1        1 0.21866957E-02 0.15186266E+03</pdfrwt>
<pdfrwt beam="2">  1       -1 0.25503145E+00 0.15186266E+03</pdfrwt>
<totfact> 0.39241036E+02</totfact>
</mgrwt>
</event>
<event>
 8    1  0.3400573E-004  0.1101002E+03  0.7546771E-02  0.1262323E+00
         -1   -1    0    0    0  501 -0.00000000000E+00  0.00000000000E+00  0.24694256795E+02  0.24694256795E+02  0.00000000000E+00 0.  1.
          1   -1    0    0  501    0  0.00000000000E+00 -0.00000000000E+00 -0.53576308221E+03  0.53576308221E+03  0.00000000000E+00 0. -1.
         23    2    1    2    0    0  0.55217159194E+02 -0.26315786496E+02 -0.15515949625E+03  0.18790733697E+03  0.86563518413E+02 0.  0.
         23    2    1    2    0    0 -0.55217159194E+02  0.26315786496E+02 -0.35590932916E+03  0.37255000203E+03  0.91545606913E+02 0.  0.
          5    1    4    4  502    0 -0.19345619311E+02  0.46750097997E+02 -0.29154177224E+03  0.29593668175E+03  0.47000000000E+01 0. -1.
         -5    1    4    4    0  502 -0.35871539884E+02 -0.20434311500E+02 -0.64367556923E+02  0.76613320280E+02  0.47000000000E+01 0.  1.
          5    1    3    3  503    0  0.47356724229E+02 -0.12045778784E+01 -0.15395946984E+03  0.16115122926E+03  0.47000000000E+01 0. -1.
         -5    1    3    3    0  503  0.78604349655E+01 -0.25111208618E+02 -0.12000264066E+01  0.26756107704E+02  0.47000000000E+01 0.  1.
<mgrwt>
<rscale>  0 0.10905893E+03</rscale>
<asrwt>0</asrwt>
<pdfrwt beam="1">  1        1 0.82425092E-01 0.11010020E+03</pdfrwt>
<pdfrwt beam="2">  1       -1 0.37991163E-02 0.11010020E+03</pdfrwt>
<totfact> 0.10249994E+04</totfact>
</mgrwt>
</event>
<event>
 8    1  0.3400573E-004  0.3494895E+03  0.7546771E-02  0.1062847E+00
          1   -1    0    0  501    0  0.00000000000E+00  0.00000000000E+00  0.57802521073E+03  0.57802521073E+03  0.00000000000E+00 0. -1.
         -1   -1    0    0    0  501 -0.00000000000E+00 -0.00000000000E+00 -0.35229205431E+03  0.35229205431E+03  0.00000000000E+00 0.  1.
         23    2    1    2    0    0 -0.70115465624E+02  0.32998978690E+03 -0.18155070866E+03  0.39363947084E+03  0.90454050235E+02 0.  0.
         23    2    1    2    0    0  0.70115465624E+02 -0.32998978690E+03  0.40728386508E+03  0.53667779420E+03  0.91287841770E+02 0.  0.
          5    1    3    3  502    0  0.15487174068E+02  0.57890752286E+02 -0.10548022871E+02  0.61029030365E+02  0.47000000000E+01 0. -1.
         -5    1    4    4    0  503  0.59021050635E+02 -0.98321041726E+02  0.16744861135E+03  0.20300650016E+03  0.47000000000E+01 0.  1.
          5    1    4    4  503    0  0.11094414989E+02 -0.23166874518E+03  0.23983525373E+03  0.33367129404E+03  0.47000000000E+01 0. -1.
         -5    1    3    3    0  502 -0.85602639692E+02  0.27209903462E+03 -0.17100268579E+03  0.33261044047E+03  0.47000000000E+01 0.  1.
<mgrwt>
<rscale>  0 0.34943527E+03</rscale>
<asrwt>0</asrwt>
<pdfrwt beam="1">  1        1 0.88926955E-01 0.34948950E+03</pdfrwt>
<pdfrwt beam="2">  1       -1 0.54198778E-01 0.34948950E+03</pdfrwt>
<totfact> 0.13086748E+02</totfact>
</mgrwt>
</event>
<event>
 8    1  0.3400573E-004  0.9430813E+02  0.7546771E-02  0.1293533E+00
         -1   -1    0    0    0  501 -0.00000000000E+00  0.00000000000E+00  0.61590351315E+02  0.61590351315E+02  0.00000000000E+00 0.  1.
          1   -1    0    0  501    0  0.00000000000E+00 -0.00000000000E+00 -0.15925279534E+03  0.15925279534E+03  0.00000000000E+00 0. -1.
         23    2    1    2    0    0 -0.23566201679E+02 -0.70476426871E+01 -0.12484315857E+02  0.93763107248E+02  0.89613765736E+02 0.  0.
         23    2    1    2    0    0  0.23566201679E+02  0.70476426871E+01 -0.85178128170E+02  0.12708003941E+03  0.91043878260E+02 0.  0.
          5    1    3    3  502    0  0.19542771201E+02  0.21922878615E+02 -0.26419491891E+02  0.39782057070E+02  0.47000000000E+01 0. -1.
         -5    1    3    3    0  502 -0.43108972879E+02 -0.28970521302E+02  0.13935176034E+02  0.53981050178E+02  0.47000000000E+01 0.  1.
          5    1    4    4  503    0  0.56352525703E+02  0.15848813264E+02 -0.63672993645E+02  0.86620621994E+02  0.47000000000E+01 0. -1.
         -5    1    4    4    0  503 -0.32786324024E+02 -0.88011705772E+01 -0.21505134525E+02  0.40459417414E+02  0.47000000000E+01 0.  1.
<mgrwt>
<rscale>  0 0.93961252E+02</rscale>
<asrwt>0</asrwt>
<pdfrwt beam="1">  1        1 0.24500430E-01 0.94308127E+02</pdfrwt>
<pdfrwt beam="2">  1       -1 0.94754385E-02 0.94308127E+02</pdfrwt>
<totfact> 0.11809306E+04</totfact>
</mgrwt>
</event>
<event>
 8    1  0.3400573E-004  0.1379263E+03  0.7546771E-02  0.1224626E+00
         -2   -1    0    0    0  501 -0.00000000000E+00  0.00000000000E+00  0.57391216011E+02  0.57391216011E+02  0.00000000000E+00 0.  1.
          2   -1    0    0  501    0  0.00000000000E+00 -0.00000000000E+00 -0.28532163510E+03  0.28532163510E+03  0.00000000000E+00 0. -1.
         23    2    1    2    0    0  0.48229977889E+02 -0.43758377863E+02 -0.79978437401E+02  0.14044209734E+03  0.95323165365E+02 0.  0.
         23    2    1    2    0    0 -0.48229977889E+02  0.43758377863E+02 -0.14795198169E+03  0.20227075377E+03  0.12158430222E+03 0.  0.
          5    1    3    3  502    0  0.24407325724E+02  0.25203926669E+02 -0.50364479152E+02  0.61559940130E+02  0.47000000000E+01 0. -1.
         -5    1    3    3    0  502  0.23822652165E+02 -0.68962304532E+02 -0.29613958248E+02  0.78882157207E+02  0.47000000000E+01 0.  1.
          5    1    4    4  503    0  0.13813520719E+02  0.38515683047E+02 -0.13135515667E+03  0.13766095445E+03  0.47000000000E+01 0. -1.
         -5    1    4    4    0  503 -0.62043498608E+02  0.52426948161E+01 -0.16596825018E+02  0.64609799327E+02  0.47000000000E+01 0.  1.
<mgrwt>
<rscale>  0 0.13192547E+03</rscale>
<asrwt>0</asrwt>
<pdfrwt beam="1">  1        2 0.43895636E-01 0.13792632E+03</pdfrwt>
<pdfrwt beam="2">  1       -2 0.88294179E-02 0.13792632E+03</pdfrwt>
<totfact> 0.88670949E+03</totfact>
</mgrwt>
</event>
<event>
 8    1  0.3400573E-004  0.1521152E+03  0.7546771E-02  0.1203693E+00
          2   -1    0    0  501    0  0.00000000000E+00  0.00000000000E+00  0.31701568583E+03  0.31701568583E+03  0.00000000000E+00 0. -1.
         -2   -1    0    0    0  501 -0.00000000000E+00 -0.00000000000E+00 -0.64708732276E+02  0.64708732276E+02  0.00000000000E+00 0.  1.
         23    2    1    2    0    0  0.93879613325E+02  0.30898099930E+02  0.11134425336E+03  0.17433708174E+03  0.90707226477E+02 0.  0.
         23    2    1    2    0    0 -0.93879613325E+02 -0.30898099930E+02  0.14096270019E+03  0.20738733637E+03  0.11563282433E+03 0.  0.
          5    1    3    3  502    0  0.33201091434E+02  0.42646167882E+02  0.96337942332E+02  0.11056263944E+03  0.47000000000E+01 0. -1.
         -5    1    3    3    0  502  0.60678521891E+02 -0.11748067952E+02  0.15006311026E+02  0.63774442296E+02  0.47000000000E+01 0.  1.
          5    1    4    4  503    0 -0.19698076766E+02 -0.80681392668E+01  0.12641514702E+03  0.12828089685E+03  0.47000000000E+01 0. -1.
         -5    1    4    4    0  503 -0.74181536559E+02 -0.22829960663E+02  0.14547553172E+02  0.79106439519E+02  0.47000000000E+01 0.  1.
<mgrwt>
<rscale>  0 0.14740968E+03</rscale>
<asrwt>0</asrwt>
<pdfrwt beam="1">  1        2 0.48771643E-01 0.15211517E+03</pdfrwt>
<pdfrwt beam="2">  1       -2 0.99551898E-02 0.15211517E+03</pdfrwt>
<totfact> 0.66135122E+03</totfact>
</mgrwt>
</event>
<event>
 8    1  0.3400573E-004  0.9934860E+02  0.7546771E-02  0.1282394E+00
          1   -1    0    0  501    0  0.00000000000E+00  0.00000000000E+00  0.18054136545E+03  0.18054136545E+03  0.00000000000E+00 0. -1.
         -1   -1    0    0    0  501 -0.00000000000E+00 -0.00000000000E+00 -0.12381572680E+03  0.12381572680E+03  0.00000000000E+00 0.  1.
         23    2    1    2    0    0  0.57747303119E+01 -0.36821367707E+02 -0.86052031365E+02  0.13041570338E+03  0.90631909148E+02 0.  0.
         23    2    1    2    0    0 -0.57747303119E+01  0.36821367707E+02  0.14277767002E+03  0.17394138886E+03  0.92092253061E+02 0.  0.
          5    1    3    3  502    0 -0.23363994636E+02 -0.36198123028E+02 -0.43657020418E+01  0.43558348343E+02  0.47000000000E+01 0. -1.
         -5    1    3    3    0  502  0.29138724948E+02 -0.62324467954E+00 -0.81686329324E+02  0.86857355036E+02  0.47000000000E+01 0.  1.
          5    1    4    4  503    0 -0.23354055934E+02  0.60451819652E+02  0.11982019711E+03  0.13630408674E+03  0.47000000000E+01 0. -1.
         -5    1    4    4    0  503  0.17579325622E+02 -0.23630451944E+02  0.22957472905E+02  0.37637302116E+02  0.47000000000E+01 0.  1.
<mgrwt>
<rscale>  0 0.99008820E+02</rscale>
<asrwt>0</asrwt>
<pdfrwt beam="1">  1        1 0.27775595E-01 0.99348597E+02</pdfrwt>
<pdfrwt beam="2">  1       -1 0.19048573E-01 0.99348597E+02</pdfrwt>
<totfact> 0.34567376E+03</totfact>
</mgrwt>
</event>
<event>
 8    1  0.3400573E-004  0.9985507E+02  0.7546771E-02  0.1281496E+00
          4   -1    0    0  501    0  0.00000000000E+00  0.00000000000E+00  0.57982874302E+02  0.57982874302E+02  0.00000000000E+00 0. -1.
         -4   -1    0    0    0  501 -0.00000000000E+00 -0.00000000000E+00 -0.17295329157E+03  0.17295329157E+03  0.00000000000E+00 0.  1.
         23    2    1    2    0    0  0.21116855484E+00 -0.35900792977E+02 -0.75249482730E+02  0.12503407233E+03  0.93177910811E+02 0.  0.
         23    2    1    2    0    0 -0.21116855484E+00  0.35900792977E+02 -0.39720934543E+02  0.10590209355E+03  0.91370614797E+02 0.  0.
          5    1    3    3  502    0  0.91113779703E+01 -0.64565651391E+02 -0.66874693346E+02  0.93520346226E+02  0.47000000000E+01 0. -1.
         -5    1    4    4    0  503 -0.27468707368E+02 -0.42248190849E+01  0.15568128466E+02  0.32199931749E+02  0.47000000000E+01 0.  1.
          5    1    4    4  503    0  0.27257538813E+02  0.40125612062E+02 -0.55289063009E+02  0.73702161799E+02  0.47000000000E+01 0. -1.
         -5    1    3    3    0  502 -0.89002094154E+01  0.28664858414E+02 -0.83747893832E+01  0.31513726101E+02  0.47000000000E+01 0.  1.
<mgrwt>
<rscale>  0 0.99431304E+02</rscale>
<asrwt>0</asrwt>
<pdfrwt beam="1">  1        4 0.89204423E-02 0.99855068E+02</pdfrwt>
<pdfrwt beam="2">  1       -4 0.26608199E-01 0.99855068E+02</pdfrwt>
<totfact> 0.18746625E+03</totfact>
</mgrwt>
</event>
<event>
 8    1  0.3400573E-004  0.1123093E+03  0.7546771E-02  0.1256416E+00
         -2   -1    0    0    0  501 -0.00000000000E+00  0.00000000000E+00  0.15065749505E+03  0.15065749505E+03  0.00000000000E+00 0.  1.
          2   -1    0    0  501    0  0.00000000000E+00 -0.00000000000E+00 -0.97717745276E+02  0.97717745276E+02  0.00000000000E+00 0. -1.
         23    2    1    2    0    0 -0.56148102534E+02  0.35735924700E+02 -0.20720943586E+02  0.11406487904E+03  0.90287171818E+02 0.  0.
         23    2    1    2    0    0  0.56148102534E+02 -0.35735924700E+02  0.73660693356E+02  0.13431036128E+03  0.90463858362E+02 0.  0.
          5    1    4    4  502    0  0.27498942549E+02  0.24188444772E+02  0.27333265065E+01  0.37024772459E+02  0.47000000000E+01 0. -1.
         -5    1    4    4    0  502  0.28649159985E+02 -0.59924369472E+02  0.70927366850E+02  0.97285588823E+02  0.47000000000E+01 0.  1.
          5    1    3    3  503    0 -0.31735909602E+02  0.65690442916E+02 -0.10860378595E+02  0.73908322075E+02  0.47000000000E+01 0. -1.
         -5    1    3    3    0  503 -0.24412192933E+02 -0.29954518216E+02 -0.98605649907E+01  0.40156556965E+02  0.47000000000E+01 0.  1.
<mgrwt>
<rscale>  0 0.11227370E+03</rscale>
<asrwt>0</asrwt>
<pdfrwt beam="1">  1        2 0.15033499E-01 0.11230928E+03</pdfrwt>
<pdfrwt beam="2">  1       -2 0.23178076E-01 0.11230928E+03</pdfrwt>
<totfact> 0.59143251E+03</totfact>
</mgrwt>
</event>
<event>
 8    1  0.3400573E-004  0.1159326E+03  0.7546771E-02  0.1250604E+00
         -1   -1    0    0    0  501 -0.00000000000E+00  0.00000000000E+00  0.51052895654E+03  0.51052895654E+03  0.00000000000E+00 0.  1.
          1   -1    0    0  501    0  0.00000000000E+00 -0.00000000000E+00 -0.28895669505E+02  0.28895669505E+02  0.00000000000E+00 0. -1.
         23    2    1    2    0    0  0.47984644213E+01 -0.72196103256E+02  0.32492222358E+03  0.34449201700E+03  0.88684811655E+02 0.  0.
         23    2    1    2    0    0 -0.47984644213E+01  0.72196103256E+02  0.15671106345E+03  0.19493260904E+03  0.90581797682E+02 0.  0.
          5    1    4    4  502    0 -0.22916121525E+02 -0.12669200993E+02  0.21517544224E+02  0.34216253286E+02  0.47000000000E+01 0. -1.
         -5    1    3    3    0  503 -0.73444265569E+01 -0.21110553717E+02  0.95712789062E+01  0.24764802838E+02  0.47000000000E+01 0.  1.
          5    1    3    3  503    0  0.12142890978E+02 -0.51085549539E+02  0.31535094467E+03  0.31972721417E+03  0.47000000000E+01 0. -1.
         -5    1    4    4    0  502  0.18117657104E+02  0.84865304249E+02  0.13519351923E+03  0.16071635575E+03  0.47000000000E+01 0.  1.
<mgrwt>
<rscale>  0 0.11556180E+03</rscale>
<asrwt>0</asrwt>
<pdfrwt beam="1">  1        1 0.44454880E-02 0.11593259E+03</pdfrwt>
<pdfrwt beam="2">  1       -1 0.78542910E-01 0.11593259E+03</pdfrwt>
<totfact> 0.31693501E+03</totfact>
</mgrwt>
</event>
<event>
 8    1  0.3400573E-004  0.9758897E+02  0.7546771E-02  0.1289022E+00
         -2   -1    0    0    0  501 -0.00000000000E+00  0.00000000000E+00  0.15811537603E+02  0.15811537603E+02  0.00000000000E+00 0.  1.
          2   -1    0    0  501    0  0.00000000000E+00 -0.00000000000E+00 -0.60816571761E+03  0.60816571761E+03  0.00000000000E+00 0. -1.
         23    2    1    2    0    0  0.76573252583E+01 -0.32388756748E+02 -0.37117279293E+03  0.38222363622E+03  0.84958811630E+02 0.  0.
         23    2    1    2    0    0 -0.76573252583E+01  0.32388756748E+02 -0.22118138707E+03  0.24175361900E+03  0.91738433153E+02 0.  0.
          5    1    4    4  502    0 -0.45713868677E+02  0.51876600078E+01 -0.14535955913E+03  0.15253904758E+03  0.47000000000E+01 0. -1.
         -5    1    4    4    0  502  0.38056543418E+02  0.27201096740E+02 -0.75821827937E+02  0.89214571414E+02  0.47000000000E+01 0.  1.
          5    1    3    3  503    0 -0.30901085445E+02 -0.58570535088E+00 -0.23540141782E+03  0.23746818238E+03  0.47000000000E+01 0. -1.
         -5    1    3    3    0  503  0.38558410703E+02 -0.31803051397E+02 -0.13577137512E+03  0.14475545383E+03  0.47000000000E+01 0.  1.
<mgrwt>
<rscale>  0 0.95962800E+02</rscale>
<asrwt>0</asrwt>
<pdfrwt beam="1">  1        2 0.93563942E-01 0.97588966E+02</pdfrwt>
<pdfrwt beam="2">  1       -2 0.24325446E-02 0.97588966E+02</pdfrwt>
<totfact> 0.26149232E+04</totfact>
</mgrwt>
</event>
<event>
 8    1  0.3400573E-004  0.1063351E+03  0.7546771E-02  0.1273697E+00
         -1   -1    0    0    0  501 -0.00000000000E+00  0.00000000000E+00  0.40811407367E+02  0.40811407367E+02  0.00000000000E+00 0.  1.
          1   -1    0    0  501    0  0.00000000000E+00 -0.00000000000E+00 -0.32181469172E+03  0.32181469172E+03  0.00000000000E+00 0. -1.
         23    2    1    2    0    0  0.22142357018E+02  0.11088363204E+02 -0.46611204597E+02  0.10524156910E+03  0.91049149916E+02 0.  0.
         23    2    1    2    0    0 -0.22142357018E+02 -0.11088363204E+02 -0.23439207976E+03  0.25738452999E+03  0.10341137969E+03 0.  0.
          5    1    3    3  502    0 -0.32275871165E+02  0.11636964937E+02 -0.35317342515E+02  0.49462667687E+02  0.47000000000E+01 0. -1.
         -5    1    4    4    0  503  0.31557229000E+02 -0.29130959921E+02 -0.59816204918E+02  0.73787125563E+02  0.47000000000E+01 0.  1.
          5    1    4    4  503    0 -0.53699586018E+02  0.18042596717E+02 -0.17457587484E+03  0.18359740442E+03  0.47000000000E+01 0. -1.
         -5    1    3    3    0  502  0.54418228183E+02 -0.54860173289E+00 -0.11293862082E+02  0.55778901416E+02  0.47000000000E+01 0.  1.
<mgrwt>
<rscale>  0 0.10320496E+03</rscale>
<asrwt>0</asrwt>
<pdfrwt beam="1">  1        1 0.49509949E-01 0.10633508E+03</pdfrwt>
<pdfrwt beam="2">  1       -1 0.62786785E-02 0.10633508E+03</pdfrwt>
<totfact> 0.92934338E+03</totfact>
</mgrwt>
</event>
<event>
 8    1  0.3400573E-004  0.9544262E+02  0.7546771E-02  0.1290520E+00
          1   -1    0    0  501    0  0.00000000000E+00  0.00000000000E+00  0.68196734481E+03  0.68196734481E+03  0.00000000000E+00 0. -1.
         -1   -1    0    0    0  501 -0.00000000000E+00 -0.00000000000E+00 -0.14163781390E+02  0.14163781390E+02  0.00000000000E+00 0.  1.
         23    2    1    2    0    0  0.24702236548E+02 -0.83734503362E+01  0.24563466777E+03  0.26330798599E+03  0.91183278679E+02 0.  0.
         23    2    1    2    0    0 -0.24702236548E+02  0.83734503362E+01  0.42216889564E+03  0.43282314021E+03  0.91809471691E+02 0.  0.
          5    1    3    3  502    0 -0.10319275768E+02 -0.37156661005E+02  0.17489992988E+03  0.17916244133E+03  0.47000000000E+01 0. -1.
         -5    1    4    4    0  503  0.14992414551E+02  0.39478570835E+02  0.24056491209E+03  0.24428855270E+03  0.47000000000E+01 0.  1.
          5    1    4    4  503    0 -0.39694651099E+02 -0.31105120498E+02  0.18160398355E+03  0.18853458751E+03  0.47000000000E+01 0. -1.
         -5    1    3    3    0  502  0.35021512316E+02  0.28783210669E+02  0.70734737890E+02  0.84145544657E+02  0.47000000000E+01 0.  1.
<mgrwt>
<rscale>  0 0.95291715E+02</rscale>
<asrwt>0</asrwt>
<pdfrwt beam="1">  1        1 0.10491803E+00 0.95442623E+02</pdfrwt>
<pdfrwt beam="2">  1       -1 0.21790438E-02 0.95442623E+02</pdfrwt>
<totfact> 0.16315905E+04</totfact>
</mgrwt>
</event>
<event>
 8    1  0.3400573E-004  0.1867862E+03  0.7546771E-02  0.1161408E+00
          2   -1    0    0  501    0  0.00000000000E+00  0.00000000000E+00  0.33971043510E+03  0.33971043510E+03  0.00000000000E+00 0. -1.
         -2   -1    0    0    0  501 -0.00000000000E+00 -0.00000000000E+00 -0.12839233711E+03  0.12839233711E+03  0.00000000000E+00 0.  1.
         23    2    1    2    0    0  0.14940245810E+03  0.65141956431E+02  0.90333285107E+00  0.18678834917E+03  0.91238711091E+02 0.  0.
         23    2    1    2    0    0 -0.14940245810E+03 -0.65141956431E+02  0.21041476514E+03  0.28131442303E+03  0.91098091341E+02 0.  0.
          5    1    3    3  502    0  0.34255427202E+02  0.33794318004E+02  0.38256051016E+02  0.61653107476E+02  0.47000000000E+01 0. -1.
         -5    1    3    3    0  502  0.11514703090E+03  0.31347638427E+02 -0.37352718165E+02  0.12513524169E+03  0.47000000000E+01 0.  1.
          5    1    4    4  503    0 -0.17381616926E+02 -0.41664758463E+02  0.91020981785E+02  0.10171028380E+03  0.47000000000E+01 0. -1.
         -5    1    4    4    0  503 -0.13202084117E+03 -0.23477197968E+02  0.11939378335E+03  0.17960413924E+03  0.47000000000E+01 0.  1.
<mgrwt>
<rscale>  0 0.18676900E+03</rscale>
<asrwt>0</asrwt>
<pdfrwt beam="1">  1        2 0.52263144E-01 0.18678616E+03</pdfrwt>
<pdfrwt beam="2">  1       -2 0.19752667E-01 0.18678616E+03</pdfrwt>
<totfact> 0.20254206E+03</totfact>
</mgrwt>
</event>
<event>
 8    1  0.3400573E-004  0.9518677E+02  0.7546771E-02  0.1292019E+00
         -2   -1    0    0    0  501 -0.00000000000E+00  0.00000000000E+00  0.66701707373E+02  0.66701707373E+02  0.00000000000E+00 0.  1.
          2   -1    0    0  501    0  0.00000000000E+00 -0.00000000000E+00 -0.13339466661E+03  0.13339466661E+03  0.00000000000E+00 0. -1.
         23    2    1    2    0    0 -0.23849014926E+02 -0.69907441597E+01 -0.26444289507E+02  0.98791804927E+02  0.91885114443E+02 0.  0.
         23    2    1    2    0    0  0.23849014926E+02  0.69907441597E+01 -0.40248669728E+02  0.10130456905E+03  0.89582444036E+02 0.  0.
          5    1    4    4  502    0 -0.91134608631E+01  0.34034874236E+02  0.83187877213E+01  0.36506438642E+02  0.47000000000E+01 0. -1.
         -5    1    3    3    0  503 -0.11512423499E+01 -0.47648175817E+02 -0.18392674010E+02  0.51303552264E+02  0.47000000000E+01 0.  1.
          5    1    3    3  503    0 -0.22697772576E+02  0.40657431657E+02 -0.80516154975E+01  0.47488252663E+02  0.47000000000E+01 0. -1.
         -5    1    4    4    0  502  0.32962475789E+02 -0.27044130077E+02 -0.48567457449E+02  0.64798130411E+02  0.47000000000E+01 0.  1.
<mgrwt>
<rscale>  0 0.94626626E+02</rscale>
<asrwt>0</asrwt>
<pdfrwt beam="1">  1        2 0.20522256E-01 0.95186765E+02</pdfrwt>
<pdfrwt beam="2">  1       -2 0.10261801E-01 0.95186765E+02</pdfrwt>
<totfact> 0.15454068E+04</totfact>
</mgrwt>
</event>
<event>
 8    1  0.3400573E-004  0.1090507E+03  0.7546771E-02  0.1264079E+00
          1   -1    0    0  501    0  0.00000000000E+00  0.00000000000E+00  0.52348840639E+03  0.52348840639E+03  0.00000000000E+00 0. -1.
         -1   -1    0    0    0  501 -0.00000000000E+00 -0.00000000000E+00 -0.36257569871E+02  0.36257569871E+02  0.00000000000E+00 0.  1.
         23    2    1    2    0    0  0.46007788701E+02 -0.28006868842E+02  0.65388282463E+02  0.12403599199E+03  0.90599108725E+02 0.  0.
         23    2    1    2    0    0 -0.46007788701E+02  0.28006868842E+02  0.42184255406E+03  0.43570998427E+03  0.94820613049E+02 0.  0.
          5    1    3    3  502    0 -0.14889760845E+02 -0.25282483309E+02 -0.57164587261E+01  0.30260152687E+02  0.47000000000E+01 0. -1.
         -5    1    3    3    0  502  0.60897549546E+02 -0.27243855337E+01  0.71104741190E+02  0.93775839302E+02  0.47000000000E+01 0.  1.
          5    1    4    4  503    0 -0.28751405415E+02  0.59459326627E+02  0.33750776386E+03  0.34394132567E+03  0.47000000000E+01 0. -1.
         -5    1    4    4    0  503 -0.17256383286E+02 -0.31452457784E+02  0.84334790196E+02  0.91768658605E+02  0.47000000000E+01 0.  1.
<mgrwt>
<rscale>  0 0.10812649E+03</rscale>
<asrwt>0</asrwt>
<pdfrwt beam="1">  1        1 0.80536673E-01 0.10905068E+03</pdfrwt>
<pdfrwt beam="2">  1       -1 0.55780880E-02 0.10905068E+03</pdfrwt>
<totfact> 0.60109112E+03</totfact>
</mgrwt>
</event>
<event>
 8    1  0.3400573E-004  0.1442404E+03  0.7546771E-02  0.1207757E+00
         -1   -1    0    0    0  501 -0.00000000000E+00  0.00000000000E+00  0.78657046421E+02  0.78657046421E+02  0.00000000000E+00 0.  1.
          1   -1    0    0  501    0  0.00000000000E+00 -0.00000000000E+00 -0.26458931891E+03  0.26458931891E+03  0.00000000000E+00 0. -1.
         23    2    1    2    0    0  0.85894896269E+02 -0.72120105363E+02 -0.97837105865E+02  0.17429108006E+03  0.90697511001E+02 0.  0.
         23    2    1    2    0    0 -0.85894896269E+02  0.72120105363E+02 -0.88095166619E+02  0.16895528527E+03  0.90586352366E+02 0.  0.
          5    1    3    3  502    0  0.19253453310E+02  0.14670877381E+02 -0.47993270550E+02  0.53957150829E+02  0.47000000000E+01 0. -1.
         -5    1    3    3    0  502  0.66641442959E+02 -0.86790982744E+02 -0.49843835315E+02  0.12033392923E+03  0.47000000000E+01 0.  1.
          5    1    4    4  503    0 -0.35862060888E+02  0.25811143210E+02 -0.90238359514E+02  0.10058505879E+03  0.47000000000E+01 0. -1.
         -5    1    4    4    0  503 -0.50032835381E+02  0.46308962153E+02  0.21431928947E+01  0.68370226471E+02  0.47000000000E+01 0.  1.
<mgrwt>
<rscale>  0 0.14422289E+03</rscale>
<asrwt>0</asrwt>
<pdfrwt beam="1">  1        1 0.40706048E-01 0.14424036E+03</pdfrwt>
<pdfrwt beam="2">  1       -1 0.12101084E-01 0.14424036E+03</pdfrwt>
<totfact> 0.44764144E+03</totfact>
</mgrwt>
</event>
<event>
 8    1  0.3400573E-004  0.9777845E+02  0.7546771E-02  0.1291858E+00
         -1   -1    0    0    0  501 -0.00000000000E+00  0.00000000000E+00  0.43342567745E+02  0.43342567745E+02  0.00000000000E+00 0.  1.
          1   -1    0    0  501    0  0.00000000000E+00 -0.00000000000E+00 -0.19497241797E+03  0.19497241797E+03  0.00000000000E+00 0. -1.
         23    2    1    2    0    0  0.16765712155E+02 -0.33130837580E+02 -0.77917589376E+02  0.12502709786E+03  0.90453761455E+02 0.  0.
         23    2    1    2    0    0 -0.16765712155E+02  0.33130837580E+02 -0.73712260848E+02  0.11328788786E+03  0.77600944795E+02 0.  0.
          5    1    4    4  502    0 -0.39301422862E+02  0.20286942826E+02 -0.74665897399E+02  0.86909424820E+02  0.47000000000E+01 0. -1.
         -5    1    4    4    0  502  0.22535710707E+02  0.12843894754E+02  0.95363655079E+00  0.26378463037E+02  0.47000000000E+01 0.  1.
          5    1    3    3  503    0 -0.27423942645E+02 -0.31903258808E+02 -0.66996128770E+02  0.79249364811E+02  0.47000000000E+01 0. -1.
         -5    1    3    3    0  503  0.44189654800E+02 -0.12275787712E+01 -0.10921460607E+02  0.45777733045E+02  0.47000000000E+01 0.  1.
<mgrwt>
<rscale>  0 0.94698057E+02</rscale>
<asrwt>0</asrwt>
<pdfrwt beam="1">  1        1 0.29995756E-01 0.97778446E+02</pdfrwt>
<pdfrwt beam="2">  1       -1 0.66680875E-02 0.97778446E+02</pdfrwt>
<totfact> 0.15599969E+04</totfact>
</mgrwt>
</event>
<event>
 8    1  0.3400573E-004  0.1184570E+03  0.7546771E-02  0.1245855E+00
         -2   -1    0    0    0  501 -0.00000000000E+00  0.00000000000E+00  0.45869838230E+02  0.45869838230E+02  0.00000000000E+00 0.  1.
          2   -1    0    0  501    0  0.00000000000E+00 -0.00000000000E+00 -0.32580164906E+03  0.32580164906E+03  0.00000000000E+00 0. -1.
         23    2    1    2    0    0 -0.66011950759E+02  0.21148086365E+02 -0.18746735167E+03  0.22175677380E+03  0.96058521659E+02 0.  0.
         23    2    1    2    0    0  0.66011950759E+02 -0.21148086365E+02 -0.92464459156E+02  0.14991471349E+03  0.95498303195E+02 0.  0.
          5    1    3    3  502    0 -0.66440144668E+02  0.53668710318E+02 -0.13850069739E+03  0.16278561505E+03  0.47000000000E+01 0. -1.
         -5    1    4    4    0  503  0.57909009717E+02 -0.19068510448E+01 -0.33068023391E+01  0.58224689171E+02  0.47000000000E+01 0.  1.
          5    1    4    4  503    0  0.81029410420E+01 -0.19241235320E+02 -0.89157656817E+02  0.91690024317E+02  0.47000000000E+01 0. -1.
         -5    1    3    3    0  502  0.42819390908E+00 -0.32520623953E+02 -0.48966654279E+02  0.58971158744E+02  0.47000000000E+01 0.  1.
<mgrwt>
<rscale>  0 0.11834337E+03</rscale>
<asrwt>0</asrwt>
<pdfrwt beam="1">  1        2 0.50123331E-01 0.11845699E+03</pdfrwt>
<pdfrwt beam="2">  1       -2 0.70568981E-02 0.11845699E+03</pdfrwt>
<totfact> 0.10759526E+04</totfact>
</mgrwt>
</event>
<event>
 8    1  0.3400573E-004  0.9484913E+02  0.7546771E-02  0.1291835E+00
          2   -1    0    0  501    0  0.00000000000E+00  0.00000000000E+00  0.48077070067E+03  0.48077070067E+03  0.00000000000E+00 0. -1.
         -2   -1    0    0    0  501 -0.00000000000E+00 -0.00000000000E+00 -0.33617330596E+02  0.33617330596E+02  0.00000000000E+00 0.  1.
         23    2    1    2    0    0 -0.24825686915E+02 -0.55909980481E+01  0.39583671457E+03  0.40704184315E+03  0.91371677729E+02 0.  0.
         23    2    1    2    0    0  0.24825686915E+02  0.55909980481E+01  0.51316655506E+02  0.10734618811E+03  0.90786733497E+02 0.  0.
          5    1    4    4  502    0  0.41680809898E+02  0.33836058465E+02  0.50883409900E+02  0.74117340543E+02  0.47000000000E+01 0. -1.
         -5    1    3    3    0  503 -0.46948690645E+02 -0.33572211346E+02  0.27134640336E+03  0.27745672374E+03  0.47000000000E+01 0.  1.
          5    1    3    3  503    0  0.22123003731E+02  0.27981213298E+02  0.12449031120E+03  0.12958511942E+03  0.47000000000E+01 0. -1.
         -5    1    4    4    0  502 -0.16855122983E+02 -0.28245060417E+02  0.43324560681E+00  0.33228847565E+02  0.47000000000E+01 0.  1.
<mgrwt>
<rscale>  0 0.94707973E+02</rscale>
<asrwt>0</asrwt>
<pdfrwt beam="1">  1        2 0.73964718E-01 0.94849130E+02</pdfrwt>
<pdfrwt beam="2">  1       -2 0.51718974E-02 0.94849130E+02</pdfrwt>
<totfact> 0.11171718E+04</totfact>
</mgrwt>
</event>
<event>
 8    1  0.3400573E-004  0.9334096E+02  0.7546771E-02  0.1295520E+00
          1   -1    0    0  501    0  0.00000000000E+00  0.00000000000E+00  0.61173496646E+03  0.61173496646E+03  0.00000000000E+00 0. -1.
         -1   -1    0    0    0  501 -0.00000000000E+00 -0.00000000000E+00 -0.19211257923E+02  0.19211257923E+02  0.00000000000E+00 0.  1.
         23    2    1    2    0    0 -0.21050497912E+02  0.52408394339E+01  0.45793251347E+03  0.46715573702E+03  0.89787002852E+02 0.  0.
         23    2    1    2    0    0  0.21050497912E+02 -0.52408394339E+01  0.13459119507E+03  0.16379048736E+03  0.90785153521E+02 0.  0.
          5    1    3    3  502    0 -0.14894509779E+00  0.45467265627E+02  0.26499236035E+03  0.26890581153E+03  0.47000000000E+01 0. -1.
         -5    1    4    4    0  503  0.17646282926E+02  0.14520794928E+02 -0.40050550949E+01  0.23672246466E+02  0.47000000000E+01 0.  1.
          5    1    4    4  503    0  0.34042149863E+01 -0.19761634362E+02  0.13859625016E+03  0.14011824090E+03  0.47000000000E+01 0. -1.
         -5    1    3    3    0  502 -0.20901552814E+02 -0.40226426193E+02  0.19294015312E+03  0.19824992550E+03  0.47000000000E+01 0.  1.
<mgrwt>
<rscale>  0 0.93097371E+02</rscale>
<asrwt>0</asrwt>
<pdfrwt beam="1">  1        1 0.94113057E-01 0.93340955E+02</pdfrwt>
<pdfrwt beam="2">  1       -1 0.29555786E-02 0.93340955E+02</pdfrwt>
<totfact> 0.12202884E+04</totfact>
</mgrwt>
</event>
<event>
 8    1  0.3400573E-004  0.1242633E+03  0.7546771E-02  0.1236234E+00
         -1   -1    0    0    0  501 -0.00000000000E+00  0.00000000000E+00  0.94546288620E+02  0.94546288620E+02  0.00000000000E+00 0.  1.
          1   -1    0    0  501    0  0.00000000000E+00 -0.00000000000E+00 -0.16814626726E+03  0.16814626726E+03  0.00000000000E+00 0. -1.
         23    2    1    2    0    0  0.83665968133E+02 -0.26273327877E+01 -0.59118400109E+02  0.13758826302E+03  0.91807667373E+02 0.  0.
         23    2    1    2    0    0 -0.83665968133E+02  0.26273327877E+01 -0.14481578534E+02  0.12510429286E+03  0.91839375403E+02 0.  0.
          5    1    3    3  502    0  0.39095448495E+01 -0.36824734709E+02 -0.17187410786E+02  0.41095531592E+02  0.47000000000E+01 0. -1.
         -5    1    4    4    0  503 -0.95757015055E+02  0.24261710459E+02 -0.91108149283E+01  0.99313309658E+02  0.47000000000E+01 0.  1.
          5    1    4    4  503    0  0.12091046922E+02 -0.21634377671E+02 -0.53707636053E+01  0.25790983203E+02  0.47000000000E+01 0. -1.
         -5    1    3    3    0  502  0.79756423284E+02  0.34197401921E+02 -0.41930989323E+02  0.96492731430E+02  0.47000000000E+01 0.  1.
<mgrwt>
<rscale>  0 0.12425744E+03</rscale>
<asrwt>0</asrwt>
<pdfrwt beam="1">  1        1 0.25868657E-01 0.12426330E+03</pdfrwt>
<pdfrwt beam="2">  1       -1 0.14545583E-01 0.12426330E+03</pdfrwt>
<totfact> 0.58521011E+03</totfact>
</mgrwt>
</event>
<event>
 8    1  0.3400573E-004  0.1069328E+03  0.7546771E-02  0.1266934E+00
          2   -1    0    0  501    0  0.00000000000E+00  0.00000000000E+00  0.30724757249E+02  0.30724757249E+02  0.00000000000E+00 0. -1.
         -2   -1    0    0    0  501 -0.00000000000E+00 -0.00000000000E+00 -0.75436836236E+03  0.75436836236E+03  0.00000000000E+00 0.  1.
         23    2    1    2    0    0  0.36381540820E+02  0.41663398718E+02 -0.64372919702E+03  0.65255031462E+03  0.91516002485E+02 0.  0.
         23    2    1    2    0    0 -0.36381540820E+02 -0.41663398718E+02 -0.79914408098E+02  0.13254280500E+03  0.90121180803E+02 0.  0.
          5    1    3    3  502    0  0.15560355715E+02 -0.20773445323E+02 -0.66162337786E+02  0.71226439205E+02  0.47000000000E+01 0. -1.
         -5    1    4    4    0  503  0.26562616388E+02  0.46498981327E+01 -0.18463119781E+02  0.33017736658E+02  0.47000000000E+01 0.  1.
          5    1    4    4  503    0 -0.62944157207E+02 -0.46313296851E+02 -0.61451288317E+02  0.99525068338E+02  0.47000000000E+01 0. -1.
         -5    1    3    3    0  502  0.20821185105E+02  0.62436844041E+02 -0.57756685923E+03  0.58132387541E+03  0.47000000000E+01 0.  1.
<mgrwt>
<rscale>  0 0.10663378E+03</rscale>
<asrwt>0</asrwt>
<pdfrwt beam="1">  1        2 0.47268856E-02 0.10693285E+03</pdfrwt>
<pdfrwt beam="2">  1       -2 0.11605667E+00 0.10693285E+03</pdfrwt>
<totfact> 0.97760522E+02</totfact>
</mgrwt>
</event>
<event>
 8    1  0.3400573E-004  0.9442126E+02  0.7546771E-02  0.1293028E+00
         -1   -1    0    0    0  501 -0.00000000000E+00  0.00000000000E+00  0.25900407129E+02  0.25900407129E+02  0.00000000000E+00 0.  1.
          1   -1    0    0  501    0  0.00000000000E+00 -0.00000000000E+00 -0.36762810707E+03  0.36762810707E+03  0.00000000000E+00 0. -1.
         23    2    1    2    0    0 -0.13749184985E+02  0.18220681729E+02 -0.11686485613E+03  0.14964601519E+03  0.90639406082E+02 0.  0.
         23    2    1    2    0    0  0.13749184985E+02 -0.18220681729E+02 -0.22486284382E+03  0.24388249901E+03  0.91620638850E+02 0.  0.
          5    1    3    3  502    0  0.12974118877E+02  0.21676523970E+02 -0.11943959443E+03  0.12217244440E+03  0.47000000000E+01 0. -1.
         -5    1    3    3    0  502 -0.26723303862E+02 -0.34558422408E+01  0.25747383042E+01  0.27473570795E+02  0.47000000000E+01 0.  1.
          5    1    4    4  503    0  0.25339257991E+02 -0.51268715894E+02 -0.16063498449E+03  0.17057622187E+03  0.47000000000E+01 0. -1.
         -5    1    4    4    0  503 -0.11590073006E+02  0.33048034165E+02 -0.64227859324E+02  0.73306277138E+02  0.47000000000E+01 0.  1.
<mgrwt>
<rscale>  0 0.94182401E+02</rscale>
<asrwt>0</asrwt>
<pdfrwt beam="1">  1        1 0.56558171E-01 0.94421262E+02</pdfrwt>
<pdfrwt beam="2">  1       -1 0.39846780E-02 0.94421262E+02</pdfrwt>
<totfact> 0.15211747E+04</totfact>
</mgrwt>
</event>
<event>
 8    1  0.3400573E-004  0.1509021E+03  0.7546771E-02  0.1199642E+00
         -1   -1    0    0    0  501 -0.00000000000E+00  0.00000000000E+00  0.13515863938E+03  0.13515863938E+03  0.00000000000E+00 0.  1.
          1   -1    0    0  501    0  0.00000000000E+00 -0.00000000000E+00 -0.18160329256E+03  0.18160329256E+03  0.00000000000E+00 0. -1.
         23    2    1    2    0    0  0.10689220904E+02  0.11954572585E+03  0.20876399262E+02  0.15233930313E+03  0.91465836352E+02 0.  0.
         23    2    1    2    0    0 -0.10689220904E+02 -0.11954572585E+03 -0.67321052444E+02  0.16442262880E+03  0.89984647292E+02 0.  0.
          5    1    4    4  502    0 -0.24515085419E+02 -0.27753865170E+02 -0.60676841862E+02  0.71239283989E+02  0.47000000000E+01 0. -1.
         -5    1    4    4    0  502  0.13825864515E+02 -0.91791860679E+02 -0.66442105816E+01  0.93183344814E+02  0.47000000000E+01 0.  1.
          5    1    3    3  503    0 -0.32858718475E+02  0.66866634599E+02 -0.13220215773E+02  0.75813628771E+02  0.47000000000E+01 0. -1.
         -5    1    3    3    0  503  0.43547939379E+02  0.52679091250E+02  0.34096615035E+02  0.76525674358E+02  0.47000000000E+01 0.  1.
<mgrwt>
<rscale>  0 0.15067830E+03</rscale>
<asrwt>0</asrwt>
<pdfrwt beam="1">  1        1 0.27938968E-01 0.15090208E+03</pdfrwt>
<pdfrwt beam="2">  1       -1 0.20793637E-01 0.15090208E+03</pdfrwt>
<totfact> 0.30481641E+03</totfact>
</mgrwt>
</event>
<event>
 8    1  0.3400573E-004  0.9988289E+02  0.7546771E-02  0.1285354E+00
          2   -1    0    0  501    0  0.00000000000E+00  0.00000000000E+00  0.19969433349E+03  0.19969433349E+03  0.00000000000E+00 0. -1.
         -2   -1    0    0    0  501 -0.00000000000E+00 -0.00000000000E+00 -0.10625401979E+03  0.10625401979E+03  0.00000000000E+00 0.  1.
         23    2    1    2    0    0  0.14188932677E+02  0.28938448756E+02 -0.69623781392E+02  0.11472468396E+03  0.85296673716E+02 0.  0.
         23    2    1    2    0    0 -0.14188932677E+02 -0.28938448756E+02  0.16306409510E+03  0.19122366932E+03  0.94540113037E+02 0.  0.
          5    1    4    4  502    0 -0.28107443273E+02 -0.93500618203E+01  0.16400072803E+03  0.16672066704E+03  0.47000000000E+01 0. -1.
         -5    1    4    4    0  502  0.13918510596E+02 -0.19588386936E+02 -0.93663292916E+00  0.24503002289E+02  0.47000000000E+01 0.  1.
          5    1    3    3  503    0 -0.23215249182E+02 -0.59528753757E+01  0.42072300674E+01  0.24782560494E+02  0.47000000000E+01 0. -1.
         -5    1    3    3    0  503  0.37404181858E+02  0.34891324132E+02 -0.73831011459E+02  0.89942123464E+02  0.47000000000E+01 0.  1.
<mgrwt>
<rscale>  0 0.97632955E+02</rscale>
<asrwt>0</asrwt>
<pdfrwt beam="1">  1        2 0.30722205E-01 0.99882894E+02</pdfrwt>
<pdfrwt beam="2">  1       -2 0.16346772E-01 0.99882894E+02</pdfrwt>
<totfact> 0.47495989E+03</totfact>
</mgrwt>
</event>
<event>
 8    1  0.3400573E-004  0.1024851E+03  0.7546771E-02  0.1276734E+00
          2   -1    0    0  501    0  0.00000000000E+00  0.00000000000E+00  0.16474522666E+03  0.16474522666E+03  0.00000000000E+00 0.  1.
         -2   -1    0    0    0  501 -0.00000000000E+00 -0.00000000000E+00 -0.62357353197E+02  0.62357353197E+02  0.00000000000E+00 0. -1.
         23    2    1    2    0    0  0.39114911145E+02  0.13421437475E+02  0.60465860757E+02  0.11637476537E+03  0.90425961093E+02 0.  0.
         23    2    1    2    0    0 -0.39114911145E+02 -0.13421437475E+02  0.41922012710E+02  0.11072781449E+03  0.93771437522E+02 0.  0.
          5    1    3    3  502    0 -0.29531995429E+01 -0.34756234922E+02  0.18891539961E+02  0.39946182991E+02  0.47000000000E+01 0. -1.
         -5    1    4    4    0  503  0.16217570994E+02  0.19684606345E+02  0.37936412561E+02  0.45953832635E+02  0.47000000000E+01 0.  1.
          5    1    4    4  503    0 -0.55332482140E+02 -0.33106043820E+02  0.39856001493E+01  0.64773981858E+02  0.47000000000E+01 0. -1.
         -5    1    3    3    0  502  0.42068110688E+02  0.48177672397E+02  0.41574320797E+02  0.76428582377E+02  0.47000000000E+01 0.  1.
<mgrwt>
<rscale>  0 0.10171345E+03</rscale>
<asrwt>0</asrwt>
<pdfrwt beam="1">  1        2 0.25345419E-01 0.10248509E+03</pdfrwt>
<pdfrwt beam="2">  1       -2 0.95934390E-02 0.10248509E+03</pdfrwt>
<totfact> 0.13696948E+04</totfact>
</mgrwt>
</event>
<event>
 8    1  0.3400573E-004  0.2119632E+03  0.7546771E-02  0.1140743E+00
         -2   -1    0    0    0  501 -0.00000000000E+00  0.00000000000E+00  0.29015975828E+02  0.29015975828E+02  0.00000000000E+00 0.  1.
          2   -1    0    0  501    0  0.00000000000E+00 -0.00000000000E+00 -0.15282382990E+04  0.15282382990E+04  0.00000000000E+00 0. -1.
         23    2    1    2    0    0  0.28409173296E+02  0.18868023238E+03 -0.80667961067E+03  0.83406259034E+03  0.92309799632E+02 0.  0.
         23    2    1    2    0    0 -0.28409173296E+02 -0.18868023238E+03 -0.69254271248E+03  0.72319168447E+03  0.83567294209E+02 0.  0.
          5    1    4    4  502    0 -0.41547331664E+01 -0.35217828418E+02 -0.46250313374E+02  0.58469981472E+02  0.47000000000E+01 0. -1.
         -5    1    3    3    0  503 -0.19938381506E+02  0.12570782903E+02 -0.47783545963E+02  0.53487577106E+02  0.47000000000E+01 0.  1.
          5    1    3    3  503    0  0.48347554802E+02  0.17610944947E+03 -0.75889606471E+03  0.78057501323E+03  0.47000000000E+01 0. -1.
         -5    1    4    4    0  502 -0.24254440130E+02 -0.15346240396E+03 -0.64629239911E+03  0.66472170300E+03  0.47000000000E+01 0.  1.
<mgrwt>
<rscale>  0 0.21104259E+03</rscale>
<asrwt>0</asrwt>
<pdfrwt beam="1">  1        2 0.23511357E+00 0.21196323E+03</pdfrwt>
<pdfrwt beam="2">  1       -2 0.44639966E-02 0.21196323E+03</pdfrwt>
<totfact> 0.30631699E+03</totfact>
</mgrwt>
</event>
<event>
 8    1  0.3400573E-004  0.1059979E+03  0.7546771E-02  0.1268898E+00
         -1   -1    0    0    0  501 -0.00000000000E+00  0.00000000000E+00  0.13631753053E+02  0.13631753053E+02  0.00000000000E+00 0.  1.
          1   -1    0    0  501    0  0.00000000000E+00 -0.00000000000E+00 -0.81521144893E+03  0.81521144893E+03  0.00000000000E+00 0. -1.
         23    2    1    2    0    0  0.45548977011E+02 -0.21291833007E+02 -0.42116802191E+03  0.43393993929E+03  0.91615046682E+02 0.  0.
         23    2    1    2    0    0 -0.45548977011E+02  0.21291833007E+02 -0.38041167397E+03  0.39490326269E+03  0.93313952493E+02 0.  0.
          5    1    4    4  502    0 -0.11417117016E+02  0.51996525057E+02 -0.26993777771E+03  0.27517718476E+03  0.47000000000E+01 0. -1.
         -5    1    3    3    0  503 -0.14814180577E+02 -0.32524370641E+02 -0.23759624244E+03  0.24031512448E+03  0.47000000000E+01 0.  1.
          5    1    3    3  503    0  0.60363157588E+02  0.11232537634E+02 -0.18357177946E+03  0.19362481481E+03  0.47000000000E+01 0. -1.
         -5    1    4    4    0  502 -0.34131859996E+02 -0.30704692051E+02 -0.11047389627E+03  0.11972607793E+03  0.47000000000E+01 0.  1.
<mgrwt>
<rscale>  0 0.10562274E+03</rscale>
<asrwt>0</asrwt>
<pdfrwt beam="1">  1        1 0.12541716E+00 0.10599785E+03</pdfrwt>
<pdfrwt beam="2">  1       -1 0.20971925E-02 0.10599785E+03</pdfrwt>
<totfact> 0.13428444E+04</totfact>
</mgrwt>
</event>
<event>
 8    1  0.3400573E-004  0.1502312E+03  0.7546771E-02  0.1200894E+00
         -1   -1    0    0    0  501 -0.00000000000E+00  0.00000000000E+00  0.59013012560E+03  0.59013012560E+03  0.00000000000E+00 0.  1.
          1   -1    0    0  501    0  0.00000000000E+00 -0.00000000000E+00 -0.38292714528E+02  0.38292714528E+02  0.00000000000E+00 0. -1.
         23    2    1    2    0    0 -0.11874407909E+03  0.12604844265E+02  0.31402885193E+03  0.34713592968E+03  0.87350989742E+02 0.  0.
         23    2    1    2    0    0  0.11874407909E+03 -0.12604844265E+02  0.23780855914E+03  0.28128691046E+03  0.91161267952E+02 0.  0.
          5    1    4    4  502    0  0.10110550089E+03 -0.44464598699E+02  0.20039021550E+03  0.22886186077E+03  0.47000000000E+01 0. -1.
         -5    1    3    3    0  503 -0.50191750520E+02  0.33038444419E+02  0.22446137734E+03  0.23241288809E+03  0.47000000000E+01 0.  1.
          5    1    3    3  503    0 -0.68552328568E+02 -0.20433600154E+02  0.89567474589E+02  0.11472304159E+03  0.47000000000E+01 0. -1.
         -5    1    4    4    0  502  0.17638578196E+02  0.31859754434E+02  0.37418343649E+02  0.52425049688E+02  0.47000000000E+01 0.  1.
<mgrwt>
<rscale>  0 0.14965765E+03</rscale>
<asrwt>0</asrwt>
<pdfrwt beam="1">  1        1 0.58911873E-02 0.15023121E+03</pdfrwt>
<pdfrwt beam="2">  1       -1 0.90789243E-01 0.15023121E+03</pdfrwt>
<totfact> 0.16178606E+03</totfact>
</mgrwt>
</event>
<event>
 8    1  0.3400573E-004  0.1383443E+03  0.7546771E-02  0.1215589E+00
          1   -1    0    0  501    0  0.00000000000E+00  0.00000000000E+00  0.11806542338E+04  0.11806542338E+04  0.00000000000E+00 0. -1.
         -1   -1    0    0    0  501 -0.00000000000E+00 -0.00000000000E+00 -0.20521091952E+02  0.20521091952E+02  0.00000000000E+00 0.  1.
         23    2    1    2    0    0  0.42291805678E+02 -0.96069733730E+02  0.85555149932E+03  0.86666459650E+03  0.90117502560E+02 0.  0.
         23    2    1    2    0    0 -0.42291805678E+02  0.96069733730E+02  0.30458164249E+03  0.33451072922E+03  0.90052542733E+02 0.  0.
          5    1    4    4  502    0 -0.27653494009E+02  0.27394583598E+02  0.22451099658E+03  0.22790887768E+03  0.47000000000E+01 0. -1.
         -5    1    4    4    0  502 -0.14638311669E+02  0.68675150132E+02  0.80070645915E+02  0.10660185154E+03  0.47000000000E+01 0.  1.
          5    1    3    3  503    0 -0.14466156010E+02 -0.74547408787E+02  0.41367336770E+03  0.42061185310E+03  0.47000000000E+01 0. -1.
         -5    1    3    3    0  503  0.56757961689E+02 -0.21522324943E+02  0.44187813162E+03  0.44605274339E+03  0.47000000000E+01 0.  1.
<mgrwt>
<rscale>  0 0.13833376E+03</rscale>
<asrwt>0</asrwt>
<pdfrwt beam="1">  1        1 0.18163906E+00 0.13834433E+03</pdfrwt>
<pdfrwt beam="2">  1       -1 0.31570920E-02 0.13834433E+03</pdfrwt>
<totfact> 0.40628702E+03</totfact>
</mgrwt>
</event>
<event>
 8    1  0.3400573E-004  0.2205460E+03  0.7546771E-02  0.1134272E+00
         -1   -1    0    0    0  501 -0.00000000000E+00  0.00000000000E+00  0.10963804333E+03  0.10963804333E+03  0.00000000000E+00 0.  1.
          1   -1    0    0  501    0  0.00000000000E+00 -0.00000000000E+00 -0.47933838708E+03  0.47933838708E+03  0.00000000000E+00 0. -1.
         23    2    1    2    0    0 -0.19334901691E+03 -0.99467789777E+01 -0.93827672582E+02  0.23578205633E+03  0.96471577112E+02 0.  0.
         23    2    1    2    0    0  0.19334901691E+03  0.99467789777E+01 -0.27587267117E+03  0.35319437408E+03  0.10563027232E+03 0.  0.
          5    1    3    3  502    0 -0.21151280462E+02  0.28988890857E+02 -0.33043759054E+02  0.49007269570E+02  0.47000000000E+01 0. -1.
         -5    1    4    4    0  503  0.16547824006E+03  0.25974356931E+02 -0.27332392489E+03  0.32060220378E+03  0.47000000000E+01 0.  1.
          5    1    4    4  503    0  0.27870776851E+02 -0.16027577953E+02 -0.25487462802E+01  0.32592170301E+02  0.47000000000E+01 0. -1.
         -5    1    3    3    0  502 -0.17219773645E+03 -0.38935669834E+02 -0.60783913528E+02  0.18677478676E+03  0.47000000000E+01 0.  1.
<mgrwt>
<rscale>  0 0.21947901E+03</rscale>
<asrwt>0</asrwt>
<pdfrwt beam="1">  1        1 0.73744367E-01 0.22054599E+03</pdfrwt>
<pdfrwt beam="2">  1       -1 0.16867391E-01 0.22054599E+03</pdfrwt>
<totfact> 0.12694767E+03</totfact>
</mgrwt>
</event>
<event>
 8    1  0.3400573E-004  0.1079859E+03  0.7546771E-02  0.1269380E+00
         -2   -1    0    0    0  501 -0.00000000000E+00  0.00000000000E+00  0.11896041673E+03  0.11896041673E+03  0.00000000000E+00 0.  1.
          2   -1    0    0  501    0  0.00000000000E+00 -0.00000000000E+00 -0.92809735511E+02  0.92809735511E+02  0.00000000000E+00 0. -1.
         23    2    1    2    0    0  0.16009424291E+01 -0.58610602870E+02  0.34838291744E+02  0.11346653691E+03  0.90681765756E+02 0.  0.
         23    2    1    2    0    0 -0.16009424291E+01  0.58610602870E+02 -0.86876105270E+01  0.98303615333E+02  0.78424233661E+02 0.  0.
          5    1    3    3  502    0 -0.42636982972E+02 -0.17761696683E+02  0.23422098350E+02  0.52000719967E+02  0.47000000000E+01 0. -1.
         -5    1    3    3    0  502  0.44237925401E+02 -0.40848906187E+02  0.11416193394E+02  0.61465816940E+02  0.47000000000E+01 0.  1.
          5    1    4    4  503    0 -0.44316683371E+00  0.37595570116E+02 -0.43290570153E+02  0.57530746157E+02  0.47000000000E+01 0. -1.
         -5    1    4    4    0  503 -0.11577755954E+01  0.21015032754E+02  0.34602959626E+02  0.40772869176E+02  0.47000000000E+01 0.  1.
<mgrwt>
<rscale>  0 0.10537605E+03</rscale>
<asrwt>0</asrwt>
<pdfrwt beam="1">  1        2 0.14278421E-01 0.10798587E+03</pdfrwt>
<pdfrwt beam="2">  1       -2 0.18301603E-01 0.10798587E+03</pdfrwt>
<totfact> 0.93346315E+03</totfact>
</mgrwt>
</event>
<event>
 8    1  0.3400573E-004  0.1088547E+03  0.7546771E-02  0.1264357E+00
         -1   -1    0    0    0  501 -0.00000000000E+00  0.00000000000E+00  0.20036374958E+02  0.20036374958E+02  0.00000000000E+00 0.  1.
          1   -1    0    0  501    0  0.00000000000E+00 -0.00000000000E+00 -0.73969021373E+03  0.73969021373E+03  0.00000000000E+00 0. -1.
         23    2    1    2    0    0  0.24340364686E+02 -0.54009096409E+02 -0.54476145064E+03  0.55553072582E+03  0.91323126237E+02 0.  0.
         23    2    1    2    0    0 -0.24340364686E+02  0.54009096409E+02 -0.17489238814E+03  0.20419586287E+03  0.87173201936E+02 0.  0.
          5    1    4    4  502    0 -0.47200928070E+02  0.18729792738E+02 -0.14116758062E+03  0.15009699719E+03  0.47000000000E+01 0. -1.
         -5    1    4    4    0  502  0.22860563384E+02  0.35279303671E+02 -0.33724807518E+02  0.54098865680E+02  0.47000000000E+01 0.  1.
          5    1    3    3  503    0  0.32286847965E+02 -0.76582538894E+02 -0.45292471932E+03  0.46051082201E+03  0.47000000000E+01 0. -1.
         -5    1    3    3    0  503 -0.79464832796E+01  0.22573442485E+02 -0.91836731314E+02  0.95019903813E+02  0.47000000000E+01 0.  1.
<mgrwt>
<rscale>  0 0.10797989E+03</rscale>
<asrwt>0</asrwt>
<pdfrwt beam="1">  1        1 0.11379847E+00 0.10885472E+03</pdfrwt>
<pdfrwt beam="2">  1       -1 0.30825200E-02 0.10885472E+03</pdfrwt>
<totfact> 0.89132158E+03</totfact>
</mgrwt>
</event>
<event>
 8    1  0.3400573E-004  0.1081504E+03  0.7546771E-02  0.1264648E+00
         -1   -1    0    0    0  501 -0.00000000000E+00  0.00000000000E+00  0.23870468934E+02  0.23870468934E+02  0.00000000000E+00 0.  1.
          1   -1    0    0  501    0  0.00000000000E+00 -0.00000000000E+00 -0.49383670941E+03  0.49383670941E+03  0.00000000000E+00 0. -1.
         23    2    1    2    0    0 -0.74999166723E+01 -0.55474570991E+02 -0.27255735357E+03  0.29323030353E+03  0.92535523720E+02 0.  0.
         23    2    1    2    0    0  0.74999166723E+01  0.55474570991E+02 -0.19740888691E+03  0.22447687481E+03  0.91027039485E+02 0.  0.
          5    1    3    3  502    0 -0.44694079134E+02 -0.39593586424E+02 -0.10582376411E+03  0.12159758158E+03  0.47000000000E+01 0. -1.
         -5    1    4    4    0  503  0.25457477813E+01  0.76813102916E+02 -0.18102659804E+03  0.19672176496E+03  0.47000000000E+01 0.  1.
          5    1    4    4  503    0  0.49541688910E+01 -0.21338531925E+02 -0.16382288863E+02  0.27755109845E+02  0.47000000000E+01 0. -1.
         -5    1    3    3    0  502  0.37194162462E+02 -0.15880984567E+02 -0.16673358946E+03  0.17163272196E+03  0.47000000000E+01 0.  1.
<mgrwt>
<rscale>  0 0.10782695E+03</rscale>
<asrwt>0</asrwt>
<pdfrwt beam="1">  1        1 0.75974876E-01 0.10815036E+03</pdfrwt>
<pdfrwt beam="2">  1       -1 0.36723799E-02 0.10815036E+03</pdfrwt>
<totfact> 0.11956871E+04</totfact>
</mgrwt>
</event>
<event>
 8    1  0.3400573E-004  0.9784413E+02  0.7546771E-02  0.1284921E+00
         -2   -1    0    0    0  501 -0.00000000000E+00  0.00000000000E+00  0.12350317954E+03  0.12350317954E+03  0.00000000000E+00 0.  1.
          2   -1    0    0  501    0  0.00000000000E+00 -0.00000000000E+00 -0.93653511756E+02  0.93653511756E+02  0.00000000000E+00 0. -1.
         23    2    1    2    0    0  0.35698886801E+02 -0.23068971097E+01 -0.30200030075E+02  0.10235494945E+03  0.91020665608E+02 0.  0.
         23    2    1    2    0    0 -0.35698886801E+02  0.23068971097E+01  0.60049697863E+02  0.11480174185E+03  0.91069980922E+02 0.  0.
          5    1    3    3  502    0 -0.20925651121E+02 -0.13303332927E+02 -0.36245382797E+02  0.44166495399E+02  0.47000000000E+01 0. -1.
         -5    1    4    4    0  503  0.29538198806E+02 -0.72280483315E+01  0.26833659817E+02  0.40827505074E+02  0.47000000000E+01 0.  1.
          5    1    4    4  503    0 -0.65237085607E+02  0.95349454413E+01  0.33216038046E+02  0.73974236776E+02  0.47000000000E+01 0. -1.
         -5    1    3    3    0  502  0.56624537922E+02  0.10996435817E+02  0.60453527219E+01  0.58188454053E+02  0.47000000000E+01 0.  1.
<mgrwt>
<rscale>  0 0.97832653E+02</rscale>
<asrwt>0</asrwt>
<pdfrwt beam="1">  1        2 0.14408233E-01 0.97844130E+02</pdfrwt>
<pdfrwt beam="2">  1       -2 0.19000489E-01 0.97844130E+02</pdfrwt>
<totfact> 0.86018878E+03</totfact>
</mgrwt>
</event>
<event>
 8    1  0.3400573E-004  0.1210146E+03  0.7546771E-02  0.1255181E+00
         -2   -1    0    0    0  501 -0.00000000000E+00  0.00000000000E+00  0.13929475762E+02  0.13929475762E+02  0.00000000000E+00 0.  1.
          2   -1    0    0  501    0  0.00000000000E+00 -0.00000000000E+00 -0.89471165559E+03  0.89471165559E+03  0.00000000000E+00 0. -1.
         23    2    1    2    0    0  0.41347105946E+01  0.13765848384E+01 -0.63094073748E+03  0.64244123406E+03  0.12093607483E+03 0.  0.
         23    2    1    2    0    0 -0.41347105946E+01 -0.13765848384E+01 -0.24984144235E+03  0.26619989729E+03  0.91774986705E+02 0.  0.
          5    1    3    3  502    0  0.56165751987E+02  0.26786265331E+02 -0.29702332811E+03  0.30350789635E+03  0.47000000000E+01 0. -1.
         -5    1    3    3    0  502 -0.52031041392E+02 -0.25409680493E+02 -0.33391740937E+03  0.33893333771E+03  0.47000000000E+01 0.  1.
          5    1    4    4  503    0  0.97978166396E+01 -0.41519631174E+02 -0.77033725292E+02  0.88182548252E+02  0.47000000000E+01 0. -1.
         -5    1    4    4    0  503 -0.13932527234E+02  0.40143046336E+02 -0.17280771706E+03  0.17801734904E+03  0.47000000000E+01 0.  1.
<mgrwt>
<rscale>  0 0.11296179E+03</rscale>
<asrwt>0</asrwt>
<pdfrwt beam="1">  1        2 0.13764795E+00 0.12101457E+03</pdfrwt>
<pdfrwt beam="2">  1       -2 0.21429962E-02 0.12101457E+03</pdfrwt>
<totfact> 0.20148733E+04</totfact>
</mgrwt>
</event>
<event>
 8    1  0.3400573E-004  0.9073212E+02  0.7546771E-02  0.1301433E+00
          1   -1    0    0  501    0  0.00000000000E+00  0.00000000000E+00  0.20438363404E+03  0.20438363404E+03  0.00000000000E+00 0. -1.
         -1   -1    0    0    0  501 -0.00000000000E+00 -0.00000000000E+00 -0.40745471055E+02  0.40745471055E+02  0.00000000000E+00 0.  1.
         23    2    1    2    0    0 -0.31277435115E+01 -0.41748982200E+00  0.65260865879E+02  0.11129932624E+03  0.90103287000E+02 0.  0.
         23    2    1    2    0    0  0.31277435115E+01  0.41748982200E+00  0.98377297107E+02  0.13382977886E+03  0.90677230032E+02 0.  0.
          5    1    3    3  502    0  0.33259930177E+02  0.26121361392E+02  0.19117307487E+02  0.46648793360E+02  0.47000000000E+01 0. -1.
         -5    1    4    4    0  503  0.37424538421E+02 -0.25304427542E+02  0.35811728901E+02  0.57840124966E+02  0.47000000000E+01 0.  1.
          5    1    4    4  503    0 -0.34296794909E+02  0.25721917364E+02  0.62565568206E+02  0.75989653893E+02  0.47000000000E+01 0. -1.
         -5    1    3    3    0  502 -0.36387673689E+02 -0.26538851214E+02  0.46143558391E+02  0.64650532877E+02  0.47000000000E+01 0.  1.
<mgrwt>
<rscale>  0 0.90588378E+02</rscale>
<asrwt>0</asrwt>
<pdfrwt beam="1">  1        1 0.31443635E-01 0.90732117E+02</pdfrwt>
<pdfrwt beam="2">  1       -1 0.62685341E-02 0.90732117E+02</pdfrwt>
<totfact> 0.16010936E+04</totfact>
</mgrwt>
</event>
<event>
 7    1  0.7182342E-004  0.4916333E+03  0.7546771E-02  0.1015986E+00
          2   -1    0    0  501    0  0.00000000000E+00  0.00000000000E+00  0.75743266990E+03  0.75743266990E+03  0.00000000000E+00 0. -1.
         -2   -1    0    0    0  501 -0.00000000000E+00 -0.00000000000E+00 -0.79777146615E+02  0.79777146615E+02  0.00000000000E+00 0.  1.
         23    2    1    2    0    0 -0.55988669204E+02  0.14979749465E+03  0.15476159977E+03  0.24070900665E+03  0.91736866301E+02 0.  0.
          5    1    1    2  502    0  0.56504542966E+01 -0.13908473760E+03  0.52658172256E+03  0.54468972122E+03  0.47000000000E+01 0. -1.
         -5    1    3    3    0  503 -0.62179764719E+02  0.41176535875E+02  0.73670512082E+02  0.10493457294E+03  0.47000000000E+01 0.  1.
          5    1    3    3  503    0  0.61910955151E+01  0.10862095877E+03  0.81091087687E+02  0.13577443372E+03  0.47000000000E+01 0. -1.
         -5    1    1    2    0  502  0.50338214907E+02 -0.10712757047E+02 -0.36877990521E+01  0.51811088634E+02  0.47000000000E+01 0.  1.
<mgrwt>
<rscale>  0 0.49163327E+03</rscale>
<asrwt>0</asrwt>
<pdfrwt beam="1">  1        2 0.11652810E+00 0.49163327E+03</pdfrwt>
<pdfrwt beam="2">  1       -2 0.12273408E-01 0.49163327E+03</pdfrwt>
<totfact> 0.18174477E+03</totfact>
</mgrwt>
</event>
<event>
 8    1  0.3400573E-004  0.9641750E+02  0.7546771E-02  0.1288137E+00
          2   -1    0    0  501    0  0.00000000000E+00  0.00000000000E+00  0.87539974396E+02  0.87539974396E+02  0.00000000000E+00 0. -1.
         -2   -1    0    0    0  501 -0.00000000000E+00 -0.00000000000E+00 -0.14840154688E+03  0.14840154688E+03  0.00000000000E+00 0.  1.
         23    2    1    2    0    0 -0.22739339319E+02  0.21459130673E+02  0.32687423859E+02  0.10159961322E+03  0.90974951973E+02 0.  0.
         23    2    1    2    0    0  0.22739339319E+02 -0.21459130673E+02 -0.93548996344E+02  0.13434190806E+03  0.91207245880E+02 0.  0.
          5    1    4    4  502    0 -0.24519999704E+02  0.16263303981E+02 -0.10686884608E+02  0.31654777593E+02  0.47000000000E+01 0. -1.
         -5    1    3    3    0  503  0.22856882660E+02  0.33987821987E+02  0.34918928520E+02  0.54028054724E+02  0.47000000000E+01 0.  1.
          5    1    3    3  503    0 -0.45596221980E+02 -0.12528691313E+02 -0.22315046608E+01  0.47571558498E+02  0.47000000000E+01 0. -1.
         -5    1    4    4    0  502  0.47259339023E+02 -0.37722434654E+02 -0.82862111736E+02  0.10268713046E+03  0.47000000000E+01 0.  1.
<mgrwt>
<rscale>  0 0.96362521E+02</rscale>
<asrwt>0</asrwt>
<pdfrwt beam="1">  1        2 0.13467688E-01 0.96417496E+02</pdfrwt>
<pdfrwt beam="2">  1       -2 0.22831007E-01 0.96417496E+02</pdfrwt>
<totfact> 0.68180378E+03</totfact>
</mgrwt>
</event>
<event>
 8    1  0.3400573E-004  0.1070834E+03  0.7546771E-02  0.1267933E+00
          1   -1    0    0  501    0  0.00000000000E+00  0.00000000000E+00  0.22682272929E+03  0.22682272929E+03  0.00000000000E+00 0. -1.
         -1   -1    0    0    0  501 -0.00000000000E+00 -0.00000000000E+00 -0.60665183573E+02  0.60665183573E+02  0.00000000000E+00 0.  1.
         23    2    1    2    0    0  0.51980119967E+02 -0.25389353056E+01  0.14792825674E+03  0.18261879498E+03  0.93586730217E+02 0.  0.
         23    2    1    2    0    0 -0.51980119967E+02  0.25389353056E+01  0.18229288971E+02  0.10486911788E+03  0.89201153828E+02 0.  0.
          5    1    3    3  502    0  0.57401245784E+02 -0.39185624452E+02  0.92883689419E+02  0.11610291099E+03  0.47000000000E+01 0. -1.
         -5    1    4    4    0  503 -0.74271482428E+02  0.33067881146E+01 -0.18144970610E+01  0.74515571187E+02  0.47000000000E+01 0.  1.
          5    1    4    4  503    0  0.22291362462E+02 -0.76785280898E+00  0.20043786032E+02  0.30353546693E+02  0.47000000000E+01 0. -1.
         -5    1    3    3    0  502 -0.54211258171E+01  0.36646689147E+02  0.55044567323E+02  0.66515883985E+02  0.47000000000E+01 0.  1.
<mgrwt>
<rscale>  0 0.10611771E+03</rscale>
<asrwt>0</asrwt>
<pdfrwt beam="1">  1        1 0.34895804E-01 0.10708340E+03</pdfrwt>
<pdfrwt beam="2">  1       -1 0.93331053E-02 0.10708340E+03</pdfrwt>
<totfact> 0.78944132E+03</totfact>
</mgrwt>
</event>
<event>
 8    1  0.3400573E-004  0.1901796E+03  0.7546771E-02  0.1158299E+00
          1   -1    0    0  501    0  0.00000000000E+00  0.00000000000E+00  0.26459261901E+03  0.26459261901E+03  0.00000000000E+00 0. -1.
         -1   -1    0    0    0  501 -0.00000000000E+00 -0.00000000000E+00 -0.16027001661E+03  0.16027001661E+03  0.00000000000E+00 0.  1.
         23    2    1    2    0    0 -0.70267549221E+02  0.14761205053E+03 -0.29314013311E+02  0.19242551319E+03  0.97166973887E+02 0.  0.
         23    2    1    2    0    0  0.70267549221E+02 -0.14761205053E+03  0.13363661571E+03  0.23243712243E+03  0.97166994872E+02 0.  0.
          5    1    4    4  502    0  0.32122005034E+02  0.54039646098E+00  0.45248084265E+02  0.55691959612E+02  0.47000000000E+01 0. -1.
         -5    1    3    3    0  503 -0.91164172640E+02  0.10462496506E+03 -0.58518496646E+01  0.13897346449E+03  0.47000000000E+01 0.  1.
          5    1    3    3  503    0  0.20896623419E+02  0.42987085464E+02 -0.23462163646E+02  0.53452048697E+02  0.47000000000E+01 0. -1.
         -5    1    4    4    0  502  0.38145544187E+02 -0.14815244699E+03  0.88388531445E+02  0.17674516282E+03  0.47000000000E+01 0.  1.
<mgrwt>
<rscale>  0 0.19017957E+03</rscale>
<asrwt>0</asrwt>
<pdfrwt beam="1">  1        1 0.40706557E-01 0.19017958E+03</pdfrwt>
<pdfrwt beam="2">  1       -1 0.24656926E-01 0.19017958E+03</pdfrwt>
<totfact> 0.14534601E+03</totfact>
</mgrwt>
</event>
<event>
 8    1  0.3400573E-004  0.9198194E+02  0.7546771E-02  0.1298828E+00
          1   -1    0    0  501    0  0.00000000000E+00  0.00000000000E+00  0.21453286208E+03  0.21453286208E+03  0.00000000000E+00 0. -1.
         -1   -1    0    0    0  501 -0.00000000000E+00 -0.00000000000E+00 -0.42013801651E+02  0.42013801651E+02  0.00000000000E+00 0.  1.
         23    2    1    2    0    0  0.13649540467E+02 -0.69377770965E+01  0.12050019950E+03  0.15087434381E+03  0.89489255423E+02 0.  0.
         23    2    1    2    0    0 -0.13649540467E+02  0.69377770965E+01  0.52018860925E+02  0.10567231991E+03  0.90698592037E+02 0.  0.
          5    1    4    4  502    0  0.12565388172E+02  0.17955772725E+02  0.68773791262E+02  0.72334107575E+02  0.47000000000E+01 0. -1.
         -5    1    4    4    0  502 -0.26214928640E+02 -0.11017995628E+02 -0.16754930337E+02  0.33338212337E+02  0.47000000000E+01 0.  1.
          5    1    3    3  503    0  0.30628946115E+02  0.32810769943E+02  0.44887118337E+02  0.63652355471E+02  0.47000000000E+01 0.  1.
         -5    1    3    3    0  503 -0.16979405648E+02 -0.39748547039E+02  0.75613081161E+02  0.87221988344E+02  0.47000000000E+01 0. -1.
<mgrwt>
<rscale>  0 0.91682420E+02</rscale>
<asrwt>0</asrwt>
<pdfrwt beam="1">  1        1 0.33005055E-01 0.91981940E+02</pdfrwt>
<pdfrwt beam="2">  1       -1 0.64636619E-02 0.91981940E+02</pdfrwt>
<totfact> 0.14439651E+04</totfact>
</mgrwt>
</event>
<event>
 8    1  0.3400573E-004  0.1094373E+03  0.7546771E-02  0.1263798E+00
          2   -1    0    0  501    0  0.00000000000E+00  0.00000000000E+00  0.32710394769E+03  0.32710394769E+03  0.00000000000E+00 0. -1.
         -2   -1    0    0    0  501 -0.00000000000E+00 -0.00000000000E+00 -0.44386590687E+02  0.44386590687E+02  0.00000000000E+00 0.  1.
         23    2    1    2    0    0 -0.12973934938E+02 -0.54450057182E+02  0.54023189781E+02  0.11796036076E+03  0.88673614803E+02 0.  0.
         23    2    1    2    0    0  0.12973934938E+02  0.54450057182E+02  0.22869416722E+03  0.25353017761E+03  0.94039338180E+02 0.  0.
          5    1    4    4  502    0  0.30370401242E+02 -0.29419590719E+01  0.15670191033E+03  0.15971410425E+03  0.47000000000E+01 0. -1.
         -5    1    3    3    0  503 -0.20211370546E+02 -0.77246292631E+02  0.36377388945E+02  0.87868615848E+02  0.47000000000E+01 0.  1.
          5    1    3    3  503    0  0.72374356077E+01  0.22796235449E+02  0.17645800837E+02  0.30091744915E+02  0.47000000000E+01 0. -1.
         -5    1    4    4    0  502 -0.17396466304E+02  0.57392016254E+02  0.71992256892E+02  0.93816073366E+02  0.47000000000E+01 0.  1.
<mgrwt>
<rscale>  0 0.10827524E+03</rscale>
<asrwt>0</asrwt>
<pdfrwt beam="1">  1        2 0.50323683E-01 0.10943733E+03</pdfrwt>
<pdfrwt beam="2">  1       -2 0.68287065E-02 0.10943733E+03</pdfrwt>
<totfact> 0.11193270E+04</totfact>
</mgrwt>
</event>
<event>
 8    1  0.3400573E-004  0.1035943E+03  0.7546771E-02  0.1273316E+00
         -3   -1    0    0    0  501 -0.00000000000E+00  0.00000000000E+00  0.49627927191E+02  0.49627927191E+02  0.00000000000E+00 0.  1.
          3   -1    0    0  501    0  0.00000000000E+00 -0.00000000000E+00 -0.32307450863E+03  0.32307450863E+03  0.00000000000E+00 0. -1.
         23    2    1    2    0    0  0.49580528417E+02  0.47113679916E+01 -0.24506413612E+03  0.26606052480E+03  0.90836921221E+02 0.  0.
         23    2    1    2    0    0 -0.49580528417E+02 -0.47113679916E+01 -0.28382445318E+02  0.10664191102E+03  0.89925014306E+02 0.  0.
          5    1    4    4  502    0 -0.34507990051E+02  0.40672354930E+02 -0.68342504312E+01  0.53979985290E+02  0.47000000000E+01 0. -1.
         -5    1    4    4    0  502 -0.15072538367E+02 -0.45383722922E+02 -0.21548194887E+02  0.52661925733E+02  0.47000000000E+01 0.  1.
          5    1    3    3  503    0  0.36324998346E+02  0.28843709965E+02 -0.22929176972E+03  0.23398348397E+03  0.47000000000E+01 0. -1.
         -5    1    3    3    0  503  0.13255530071E+02 -0.24132341973E+02 -0.15772366406E+02  0.32077040834E+02  0.47000000000E+01 0.  1.
<mgrwt>
<rscale>  0 0.10339402E+03</rscale>
<asrwt>0</asrwt>
<pdfrwt beam="1">  1        3 0.49703772E-01 0.10359427E+03</pdfrwt>
<pdfrwt beam="2">  1       -3 0.76350654E-02 0.10359427E+03</pdfrwt>
<totfact> 0.10259669E+03</totfact>
</mgrwt>
</event>
<event>
 8    1  0.3400573E-004  0.9413176E+02  0.7546771E-02  0.1293375E+00
         -2   -1    0    0    0  501 -0.00000000000E+00  0.00000000000E+00  0.15082235863E+03  0.15082235863E+03  0.00000000000E+00 0.  1.
          2   -1    0    0  501    0  0.00000000000E+00 -0.00000000000E+00 -0.92437143742E+02  0.92437143742E+02  0.00000000000E+00 0. -1.
         23    2    1    2    0    0 -0.24825785991E+01  0.22832165148E+02 -0.44547086854E+02  0.10377528444E+03  0.90870213780E+02 0.  0.
         23    2    1    2    0    0  0.24825785991E+01 -0.22832165148E+02  0.10293230174E+03  0.13948421793E+03  0.91287005356E+02 0.  0.
          5    1    3    3  502    0  0.11664245874E+02 -0.32981051342E+02 -0.11000140323E+02  0.36971576468E+02  0.47000000000E+01 0. -1.
         -5    1    3    3    0  502 -0.14146824473E+02  0.55813216490E+02 -0.33546946532E+02  0.66803707976E+02  0.47000000000E+01 0.  1.
          5    1    4    4  503    0 -0.24889514781E+02 -0.29182009747E+02  0.68204073127E+01  0.39238827643E+02  0.47000000000E+01 0. -1.
         -5    1    4    4    0  503  0.27372093380E+02  0.63498445984E+01  0.96111894429E+02  0.10024539028E+03  0.47000000000E+01 0.  1.
<mgrwt>
<rscale>  0 0.94030562E+02</rscale>
<asrwt>0</asrwt>
<pdfrwt beam="1">  1        2 0.14221099E-01 0.94131760E+02</pdfrwt>
<pdfrwt beam="2">  1       -2 0.23203440E-01 0.94131760E+02</pdfrwt>
<totfact> 0.62106968E+03</totfact>
</mgrwt>
</event>
<event>
 8    1  0.3400573E-004  0.1076446E+03  0.7546771E-02  0.1269226E+00
         -1   -1    0    0    0  501 -0.00000000000E+00  0.00000000000E+00  0.68266830875E+03  0.68266830875E+03  0.00000000000E+00 0.  1.
          1   -1    0    0  501    0  0.00000000000E+00 -0.00000000000E+00 -0.24625921263E+02  0.24625921263E+02  0.00000000000E+00 0. -1.
         23    2    1    2    0    0 -0.30515570456E+02  0.10480143209E+02  0.53369297654E+03  0.54282498468E+03  0.93753599047E+02 0.  0.
         23    2    1    2    0    0  0.30515570456E+02 -0.10480143209E+02  0.12434941095E+03  0.16446924534E+03  0.10269529307E+03 0.  0.
          5    1    4    4  502    0 -0.30981033152E+02 -0.21021359866E+02  0.77849994742E+02  0.86512621432E+02  0.47000000000E+01 0. -1.
         -5    1    4    4    0  502  0.61496603608E+02  0.10541216656E+02  0.46499416205E+02  0.77956623910E+02  0.47000000000E+01 0.  1.
          5    1    3    3  503    0 -0.53165325821E+02 -0.23082366894E+02  0.33203738367E+03  0.33709088045E+03  0.47000000000E+01 0. -1.
         -5    1    3    3    0  503  0.22649755365E+02  0.33562510103E+02  0.20165559288E+03  0.20573410423E+03  0.47000000000E+01 0.  1.
<mgrwt>
<rscale>  0 0.10545510E+03</rscale>
<asrwt>0</asrwt>
<pdfrwt beam="1">  1        1 0.37886038E-02 0.10764458E+03</pdfrwt>
<pdfrwt beam="2">  1       -1 0.10502588E+00 0.10764458E+03</pdfrwt>
<totfact> 0.21203123E+03</totfact>
</mgrwt>
</event>
<event>
 8    1  0.3400573E-004  0.1167061E+03  0.7546771E-02  0.1251861E+00
         -3   -1    0    0    0  501 -0.00000000000E+00  0.00000000000E+00  0.94914264706E+02  0.94914264706E+02  0.00000000000E+00 0.  1.
          3   -1    0    0  501    0  0.00000000000E+00 -0.00000000000E+00 -0.13664978425E+03  0.13664978425E+03  0.00000000000E+00 0. -1.
         23    2    1    2    0    0  0.53936683182E+02  0.32595590822E+02 -0.76337337542E+01  0.11695545762E+03  0.98227627695E+02 0.  0.
         23    2    1    2    0    0 -0.53936683182E+02 -0.32595590822E+02 -0.34101785788E+02  0.11460859133E+03  0.89445844397E+02 0.  0.
          5    1    4    4  502    0 -0.15475454729E+02  0.20182507260E+02 -0.41310341417E+02  0.48738666440E+02  0.47000000000E+01 0. -1.
         -5    1    3    3    0  503  0.56156688749E+02 -0.22592236407E+02 -0.97095225533E+01  0.61484531920E+02  0.47000000000E+01 0.  1.
          5    1    3    3  503    0 -0.22200055678E+01  0.55187827229E+02  0.20757887991E+01  0.55470925701E+02  0.47000000000E+01 0. -1.
         -5    1    4    4    0  502 -0.38461228453E+02 -0.52778098082E+02  0.72085556291E+01  0.65869924894E+02  0.47000000000E+01 0.  1.
<mgrwt>
<rscale>  0 0.11483963E+03</rscale>
<asrwt>0</asrwt>
<pdfrwt beam="1">  1        3 0.21023044E-01 0.11670606E+03</pdfrwt>
<pdfrwt beam="2">  1       -3 0.14602195E-01 0.11670606E+03</pdfrwt>
<totfact> 0.17833335E+03</totfact>
</mgrwt>
</event>
<event>
 8    1  0.3400573E-004  0.4406231E+03  0.7546771E-02  0.1030565E+00
         -1   -1    0    0    0  501 -0.00000000000E+00  0.00000000000E+00  0.21731751006E+03  0.21731751006E+03  0.00000000000E+00 0.  1.
          1   -1    0    0  501    0  0.00000000000E+00 -0.00000000000E+00 -0.10239862848E+04  0.10239862848E+04  0.00000000000E+00 0. -1.
         23    2    1    2    0    0  0.29033497727E+03  0.31857984235E+03 -0.18152396345E+03  0.47654978716E+03  0.91439790904E+02 0.  0.
         23    2    1    2    0    0 -0.29033497727E+03 -0.31857984235E+03 -0.62514481126E+03  0.76475400768E+03  0.90857813335E+02 0.  0.
          5    1    3    3  502    0  0.79427458153E+02  0.70679503917E+02 -0.87365575853E+02  0.13769221919E+03  0.47000000000E+01 0. -1.
         -5    1    4    4    0  503 -0.14628879549E+03 -0.98218067847E+02 -0.27529209293E+03  0.32688687182E+03  0.47000000000E+01 0.  1.
          5    1    4    4  503    0 -0.14404618178E+03 -0.22036177450E+03 -0.34985271832E+03  0.43786713586E+03  0.47000000000E+01 0. -1.
         -5    1    3    3    0  502  0.21090751911E+03  0.24790033843E+03 -0.94158387601E+02  0.33885756797E+03  0.47000000000E+01 0.  1.
<mgrwt>
<rscale>  0 0.44059303E+03</rscale>
<asrwt>0</asrwt>
<pdfrwt beam="1">  1        1 0.15753635E+00 0.44062314E+03</pdfrwt>
<pdfrwt beam="2">  1       -1 0.33433463E-01 0.44062314E+03</pdfrwt>
<totfact> 0.12799767E+02</totfact>
</mgrwt>
</event>
<event>
 8    1  0.3400573E-004  0.1106085E+03  0.7546771E-02  0.1260070E+00
          1   -1    0    0  501    0  0.00000000000E+00  0.00000000000E+00  0.10340826284E+03  0.10340826284E+03  0.00000000000E+00 0. -1.
         -1   -1    0    0    0  501 -0.00000000000E+00 -0.00000000000E+00 -0.11793980663E+03  0.11793980663E+03  0.00000000000E+00 0.  1.
         23    2    1    2    0    0  0.15731105337E+02 -0.78353223836E+02 -0.17739631392E+02  0.11069302609E+03  0.74508765548E+02 0.  0.
         23    2    1    2    0    0 -0.15731105337E+02  0.78353223836E+02  0.32080876060E+01  0.11065504338E+03  0.76469284277E+02 0.  0.
          5    1    4    4  502    0  0.11220221015E+02  0.24691348447E+02  0.33398234825E+02  0.43279188269E+02  0.47000000000E+01 0. -1.
         -5    1    4    4    0  502 -0.26951326351E+02  0.53661875389E+02 -0.30190147219E+02  0.67375855107E+02  0.47000000000E+01 0.  1.
          5    1    3    3  503    0  0.27439739753E+02 -0.45726069365E+02  0.21886465371E+02  0.57835284245E+02  0.47000000000E+01 0.  1.
         -5    1    3    3    0  503 -0.11708634417E+02 -0.32627154471E+02 -0.39626096763E+02  0.52857741849E+02  0.47000000000E+01 0.  1.
<mgrwt>
<rscale>  0 0.11027043E+03</rscale>
<asrwt>0</asrwt>
<pdfrwt beam="1">  1        1 0.15908964E-01 0.11060853E+03</pdfrwt>
<pdfrwt beam="2">  1       -1 0.18144586E-01 0.11060853E+03</pdfrwt>
<totfact> 0.75832009E+03</totfact>
</mgrwt>
</event>
<event>
 8    1  0.3400573E-004  0.9157436E+02  0.7546771E-02  0.1299301E+00
         -2   -1    0    0    0  501 -0.00000000000E+00  0.00000000000E+00  0.11703197901E+02  0.11703197901E+02  0.00000000000E+00 0.  1.
          2   -1    0    0  501    0  0.00000000000E+00 -0.00000000000E+00 -0.82255168689E+03  0.82255168689E+03  0.00000000000E+00 0. -1.
         23    2    1    2    0    0  0.68505948278E+01  0.42030206583E+01 -0.25436998608E+03  0.27035153632E+03  0.91220980793E+02 0.  0.
         23    2    1    2    0    0 -0.68505948278E+01 -0.42030206583E+01 -0.55647850291E+03  0.56390334848E+03  0.90851891509E+02 0.  0.
          5    1    4    4  502    0  0.31840176864E+02  0.26226825990E+02 -0.23368755836E+03  0.23734702062E+03  0.47000000000E+01 0. -1.
         -5    1    4    4    0  502 -0.38690771691E+02 -0.30429846649E+02 -0.32279094455E+03  0.32655632786E+03  0.47000000000E+01 0.  1.
          5    1    3    3  503    0  0.13864329785E+02 -0.36157457261E+02 -0.59362229055E+02  0.71032004015E+02  0.47000000000E+01 0. -1.
         -5    1    3    3    0  503 -0.70137349575E+01  0.40360477919E+02 -0.19500775703E+03  0.19931953230E+03  0.47000000000E+01 0.  1.
<mgrwt>
<rscale>  0 0.91482306E+02</rscale>
<asrwt>0</asrwt>
<pdfrwt beam="1">  1        2 0.12654640E+00 0.91574360E+02</pdfrwt>
<pdfrwt beam="2">  1       -2 0.18004921E-02 0.91574360E+02</pdfrwt>
<totfact> 0.28100815E+04</totfact>
</mgrwt>
</event>
<event>
 8    1  0.3400573E-004  0.1106943E+03  0.7546771E-02  0.1260086E+00
          2   -1    0    0  501    0  0.00000000000E+00  0.00000000000E+00  0.21172942580E+03  0.21172942580E+03  0.00000000000E+00 0. -1.
         -2   -1    0    0    0  501 -0.00000000000E+00 -0.00000000000E+00 -0.77996554144E+02  0.77996554144E+02  0.00000000000E+00 0.  1.
         23    2    1    2    0    0  0.51025834251E+02 -0.30051053223E+02 -0.87169757839E+01  0.10932312152E+03  0.91481460811E+02 0.  0.
         23    2    1    2    0    0 -0.51025834251E+02  0.30051053223E+02  0.14244984744E+03  0.18040285842E+03  0.93522888802E+02 0.  0.
          5    1    3    3  502    0 -0.25208589734E+02  0.26739121344E+01 -0.40444458915E+01  0.26097324481E+02  0.47000000000E+01 0. -1.
         -5    1    3    3    0  502  0.76234423985E+02 -0.32724965357E+02 -0.46725298924E+01  0.83225797043E+02  0.47000000000E+01 0.  1.
          5    1    4    4  503    0 -0.59850450131E+02 -0.10536270071E+02  0.11570696369E+03  0.13077951221E+03  0.47000000000E+01 0. -1.
         -5    1    4    4    0  503  0.88246158805E+01  0.40587323294E+02  0.26742883746E+02  0.49623346206E+02  0.47000000000E+01 0.  1.
<mgrwt>
<rscale>  0 0.11026197E+03</rscale>
<asrwt>0</asrwt>
<pdfrwt beam="1">  1        2 0.32573758E-01 0.11069432E+03</pdfrwt>
<pdfrwt beam="2">  1       -2 0.11999470E-01 0.11069432E+03</pdfrwt>
<totfact> 0.73988040E+03</totfact>
</mgrwt>
</event>
<event>
 8    1  0.3400573E-004  0.9951279E+02  0.7546771E-02  0.1281500E+00
          2   -1    0    0  501    0  0.00000000000E+00  0.00000000000E+00  0.56687695779E+03  0.56687695779E+03  0.00000000000E+00 0. -1.
         -2   -1    0    0    0  501 -0.00000000000E+00 -0.00000000000E+00 -0.20399560492E+02  0.20399560492E+02  0.00000000000E+00 0.  1.
         23    2    1    2    0    0  0.39234785327E+02  0.60602934944E+01  0.38524644387E+03  0.39780827615E+03  0.90887328750E+02 0.  0.
         23    2    1    2    0    0 -0.39234785327E+02 -0.60602934944E+01  0.16123095344E+03  0.18946824213E+03  0.91250747361E+02 0.  0.
          5    1    3    3  502    0  0.11092190010E+02  0.34391643056E+02  0.31310172771E+03  0.31521517046E+03  0.47000000000E+01 0. -1.
         -5    1    4    4    0  503 -0.67507000881E+02 -0.12235198889E+02  0.97437992046E+02  0.11926083831E+03  0.47000000000E+01 0.  1.
          5    1    4    4  503    0  0.28272215554E+02  0.61749053949E+01  0.63792961389E+02  0.70207403824E+02  0.47000000000E+01 0. -1.
         -5    1    3    3    0  502  0.28142595317E+02 -0.28331349562E+02  0.72144716153E+02  0.82593105693E+02  0.47000000000E+01 0.  1.
<mgrwt>
<rscale>  0 0.99429396E+02</rscale>
<asrwt>0</asrwt>
<pdfrwt beam="1">  1        2 0.87211828E-01 0.99512785E+02</pdfrwt>
<pdfrwt beam="2">  1       -2 0.31383944E-02 0.99512785E+02</pdfrwt>
<totfact> 0.19569983E+04</totfact>
</mgrwt>
</event>
<event>
 8    1  0.3400573E-004  0.1825215E+03  0.7546771E-02  0.1165677E+00
          2   -1    0    0  501    0  0.00000000000E+00  0.00000000000E+00  0.92453749038E+02  0.92453749038E+02  0.00000000000E+00 0. -1.
         -2   -1    0    0    0  501 -0.00000000000E+00 -0.00000000000E+00 -0.38726095807E+03  0.38726095807E+03  0.00000000000E+00 0.  1.
         23    2    1    2    0    0  0.11742842200E+03  0.10485766194E+03 -0.21389082498E+03  0.28118210941E+03  0.92355455074E+02 0.  0.
         23    2    1    2    0    0 -0.11742842200E+03 -0.10485766194E+03 -0.80916384053E+02  0.19853259770E+03  0.89906437913E+02 0.  0.
          5    1    3    3  502    0  0.81070249877E+02  0.40781774285E+02 -0.55621767101E+02  0.10654299369E+03  0.47000000000E+01 0. -1.
         -5    1    4    4    0  503 -0.84262725950E+02 -0.15719837481E+02 -0.33426521510E+02  0.92123518253E+02  0.47000000000E+01 0.  1.
          5    1    4    4  503    0 -0.33165696054E+02 -0.89137824456E+02 -0.47489862543E+02  0.10640907944E+03  0.47000000000E+01 0. -1.
         -5    1    3    3    0  502  0.36358172128E+02  0.64075887652E+02 -0.15826905788E+03  0.17463911572E+03  0.47000000000E+01 0.  1.
<mgrwt>
<rscale>  0 0.18221399E+03</rscale>
<asrwt>0</asrwt>
<pdfrwt beam="1">  1        2 0.14223654E-01 0.18252149E+03</pdfrwt>
<pdfrwt beam="2">  1       -2 0.59578609E-01 0.18252149E+03</pdfrwt>
<totfact> 0.11016028E+03</totfact>
</mgrwt>
</event>
<event>
 8    1  0.3400573E-004  0.1120641E+03  0.7546771E-02  0.1257392E+00
         -2   -1    0    0    0  501 -0.00000000000E+00  0.00000000000E+00  0.26773281642E+02  0.26773281642E+02  0.00000000000E+00 0.  1.
          2   -1    0    0  501    0  0.00000000000E+00 -0.00000000000E+00 -0.48714293920E+03  0.48714293920E+03  0.00000000000E+00 0. -1.
         23    2    1    2    0    0  0.13524550645E+02 -0.63730876901E+02 -0.17237178318E+03  0.20488362929E+03  0.89558538261E+02 0.  0.
         23    2    1    2    0    0 -0.13524550645E+02  0.63730876901E+02 -0.28799787438E+03  0.30903259155E+03  0.91180199886E+02 0.  0.
          5    1    3    3  502    0 -0.24069413179E+02  0.85683328765E+01 -0.65073325783E+02  0.70066973016E+02  0.47000000000E+01 0. -1.
         -5    1    4    4    0  503 -0.36137976818E+02 -0.55538670917E+01 -0.12704790417E+03  0.13228778765E+03  0.47000000000E+01 0.  1.
          5    1    4    4  503    0  0.22613426174E+02  0.69284743993E+02 -0.16094997021E+03  0.17674480389E+03  0.47000000000E+01 0. -1.
         -5    1    3    3    0  502  0.37593963824E+02 -0.72299209778E+02 -0.10729845740E+03  0.13481665628E+03  0.47000000000E+01 0.  1.
<mgrwt>
<rscale>  0 0.11173380E+03</rscale>
<asrwt>0</asrwt>
<pdfrwt beam="1">  1        2 0.74945062E-01 0.11206412E+03</pdfrwt>
<pdfrwt beam="2">  1       -2 0.41189667E-02 0.11206412E+03</pdfrwt>
<totfact> 0.15662670E+04</totfact>
</mgrwt>
</event>
<event>
 8    1  0.3400573E-004  0.1087096E+03  0.7546771E-02  0.1263683E+00
          1   -1    0    0  501    0  0.00000000000E+00  0.00000000000E+00  0.10881408033E+03  0.10881408033E+03  0.00000000000E+00 0. -1.
         -1   -1    0    0    0  501 -0.00000000000E+00 -0.00000000000E+00 -0.12543764635E+03  0.12543764635E+03  0.00000000000E+00 0.  1.
         23    2    1    2    0    0  0.18006935610E+02  0.52452564132E+02  0.36391650386E+02  0.11463917044E+03  0.93500085390E+02 0.  0.
         23    2    1    2    0    0 -0.18006935610E+02 -0.52452564132E+02 -0.53015216408E+02  0.11961255624E+03  0.91766166019E+02 0.  0.
          5    1    3    3  502    0  0.46457768169E+02  0.55819988884E+02  0.43452003920E+02  0.84760616013E+02  0.47000000000E+01 0. -1.
         -5    1    3    3    0  502 -0.28450832559E+02 -0.33674247527E+01 -0.70603535340E+01  0.29878554430E+02  0.47000000000E+01 0.  1.
          5    1    4    4  503    0  0.17614126079E+02 -0.34263907098E+02 -0.66623499692E+02  0.77104172899E+02  0.47000000000E+01 0. -1.
         -5    1    4    4    0  503 -0.35621061689E+02 -0.18188657034E+02  0.13608283284E+02  0.42508383344E+02  0.47000000000E+01 0.  1.
<mgrwt>
<rscale>  0 0.10833580E+03</rscale>
<asrwt>0</asrwt>
<pdfrwt beam="1">  1        1 0.16740628E-01 0.10870965E+03</pdfrwt>
<pdfrwt beam="2">  1       -1 0.19298100E-01 0.10870965E+03</pdfrwt>
<totfact> 0.64338970E+03</totfact>
</mgrwt>
</event>
<event>
 8    1  0.3400573E-004  0.9323270E+02  0.7546771E-02  0.1297315E+00
         -3   -1    0    0    0  501 -0.00000000000E+00  0.00000000000E+00  0.25205441748E+03  0.25205441748E+03  0.00000000000E+00 0.  1.
          3   -1    0    0  501    0  0.00000000000E+00 -0.00000000000E+00 -0.37954796464E+02  0.37954796464E+02  0.00000000000E+00 0. -1.
         23    2    1    2    0    0  0.86472775076E+01 -0.10502514065E+02  0.16032068074E+03  0.18545904224E+03  0.92234795319E+02 0.  0.
         23    2    1    2    0    0 -0.86472775076E+01  0.10502514065E+02  0.53778940276E+02  0.10455017170E+03  0.88619894916E+02 0.  0.
          5    1    4    4  502    0  0.36047519880E+02  0.14149803873E+02  0.70991229842E+01  0.39650071706E+02  0.47000000000E+01 0. -1.
         -5    1    3    3    0  503 -0.31996462050E+01 -0.40632711992E+02  0.14232602368E+03  0.14812171358E+03  0.47000000000E+01 0.  1.
          5    1    3    3  503    0  0.11846923713E+02  0.30130197927E+02  0.17994657060E+02  0.37337328657E+02  0.47000000000E+01 0. -1.
         -5    1    4    4    0  502 -0.44694797388E+02 -0.36472898083E+01  0.46679817292E+02  0.64900099991E+02  0.47000000000E+01 0.  1.
<mgrwt>
<rscale>  0 0.92325888E+02</rscale>
<asrwt>0</asrwt>
<pdfrwt beam="1">  1        3 0.58391996E-02 0.93232696E+02</pdfrwt>
<pdfrwt beam="2">  1       -3 0.38777602E-01 0.93232696E+02</pdfrwt>
<totfact> 0.24962334E+03</totfact>
</mgrwt>
</event>
<event>
 8    1  0.3400573E-004  0.1001839E+03  0.7546771E-02  0.1281363E+00
         -1   -1    0    0    0  501 -0.00000000000E+00  0.00000000000E+00  0.80628099359E+02  0.80628099359E+02  0.00000000000E+00 0.  1.
          1   -1    0    0  501    0  0.00000000000E+00 -0.00000000000E+00 -0.12183774325E+03  0.12183774325E+03  0.00000000000E+00 0. -1.
         23    2    1    2    0    0  0.18125489710E+02  0.22436185404E+02 -0.13088555013E+02  0.10103524872E+03  0.95942146206E+02 0.  0.
         23    2    1    2    0    0 -0.18125489710E+02 -0.22436185404E+02 -0.28121088881E+02  0.10143059389E+03  0.93088420037E+02 0.  0.
          5    1    4    4  502    0 -0.19666415971E+02 -0.56200195142E+02 -0.30800629833E+02  0.67201180415E+02  0.47000000000E+01 0. -1.
         -5    1    3    3    0  503  0.36352670829E+02 -0.17866356862E+02  0.20171374917E+02  0.45493930913E+02  0.47000000000E+01 0.  1.
          5    1    3    3  503    0 -0.18227181120E+02  0.40302542266E+02 -0.33259929930E+02  0.55541317805E+02  0.47000000000E+01 0. -1.
         -5    1    4    4    0  502  0.15409262609E+01  0.33764009738E+02  0.26795409522E+01  0.34229413478E+02  0.47000000000E+01 0.  1.
<mgrwt>
<rscale>  0 0.99494443E+02</rscale>
<asrwt>0</asrwt>
<pdfrwt beam="1">  1        1 0.18744268E-01 0.10018389E+03</pdfrwt>
<pdfrwt beam="2">  1       -1 0.12404323E-01 0.10018389E+03</pdfrwt>
<totfact> 0.11030903E+04</totfact>
</mgrwt>
</event>
<event>
 8    1  0.3400573E-004  0.1073079E+03  0.7546771E-02  0.1265979E+00
         -1   -1    0    0    0  501 -0.00000000000E+00  0.00000000000E+00  0.83744932569E+02  0.83744932569E+02  0.00000000000E+00 0.  1.
          1   -1    0    0  501    0  0.00000000000E+00 -0.00000000000E+00 -0.16731846490E+03  0.16731846490E+03  0.00000000000E+00 0. -1.
         23    2    1    2    0    0  0.19125605945E+02  0.51384569534E+02 -0.95694441248E+02  0.14377903309E+03  0.92243273373E+02 0.  0.
         23    2    1    2    0    0 -0.19125605945E+02 -0.51384569534E+02  0.12120908921E+02  0.10728436437E+03  0.91415838982E+02 0.  0.
          5    1    3    3  502    0 -0.35652505683E+02  0.21346994418E+02 -0.54918093080E+02  0.69028126729E+02  0.47000000000E+01 0. -1.
         -5    1    3    3    0  502  0.54778111628E+02  0.30037575116E+02 -0.40776348168E+02  0.74750906365E+02  0.47000000000E+01 0.  1.
          5    1    4    4  503    0 -0.43112648977E+02 -0.40782712780E+02 -0.22462060496E+02  0.63628329581E+02  0.47000000000E+01 0. -1.
         -5    1    4    4    0  503  0.23987043031E+02 -0.10601856753E+02  0.34582969417E+02  0.43656034792E+02  0.47000000000E+01 0.  1.
<mgrwt>
<rscale>  0 0.10712984E+03</rscale>
<asrwt>0</asrwt>
<pdfrwt beam="1">  1        1 0.25741302E-01 0.10730789E+03</pdfrwt>
<pdfrwt beam="2">  1       -1 0.12883836E-01 0.10730789E+03</pdfrwt>
<totfact> 0.70322972E+03</totfact>
</mgrwt>
</event>
<event>
 8    1  0.3400573E-004  0.9793436E+02  0.7546771E-02  0.1286351E+00
         -2   -1    0    0    0  501 -0.00000000000E+00  0.00000000000E+00  0.20630104102E+02  0.20630104102E+02  0.00000000000E+00 0.  1.
          2   -1    0    0  501    0  0.00000000000E+00 -0.00000000000E+00 -0.61858979007E+03  0.61858979007E+03  0.00000000000E+00 0. -1.
         23    2    1    2    0    0 -0.18936191722E+02  0.13997844554E+02 -0.13591300644E+03  0.16752159490E+03  0.95061140465E+02 0.  0.
         23    2    1    2    0    0  0.18936191722E+02 -0.13997844554E+02 -0.46204667952E+03  0.47169829927E+03  0.91965387365E+02 0.  0.
          5    1    3    3  502    0  0.21434165588E+02  0.37593258603E+02 -0.97673446566E+02  0.10693394555E+03  0.47000000000E+01 0. -1.
         -5    1    4    4    0  503 -0.11755720644E+02  0.34788526745E+02 -0.19003213057E+03  0.19360459501E+03  0.47000000000E+01 0.  1.
          5    1    4    4  503    0  0.30691912366E+02 -0.48786371299E+02 -0.27201454895E+03  0.27809370426E+03  0.47000000000E+01 0. -1.
         -5    1    3    3    0  502 -0.40370357310E+02 -0.23595414049E+02 -0.38239559879E+02  0.60587649346E+02  0.47000000000E+01 0.  1.
<mgrwt>
<rscale>  0 0.97175076E+02</rscale>
<asrwt>0</asrwt>
<pdfrwt beam="1">  1        2 0.95167666E-01 0.97934363E+02</pdfrwt>
<pdfrwt beam="2">  1       -2 0.31738620E-02 0.97934363E+02</pdfrwt>
<totfact> 0.17433325E+04</totfact>
</mgrwt>
</event>
<event>
 8    1  0.3400573E-004  0.1061231E+03  0.7546771E-02  0.1268210E+00
         -1   -1    0    0    0  501 -0.00000000000E+00  0.00000000000E+00  0.33517132224E+02  0.33517132224E+02  0.00000000000E+00 0.  1.
          1   -1    0    0  501    0  0.00000000000E+00 -0.00000000000E+00 -0.45682993791E+03  0.45682993791E+03  0.00000000000E+00 0. -1.
         23    2    1    2    0    0  0.39186272654E+02 -0.36934303644E+02 -0.85033302907E+02  0.13598813246E+03  0.91446174416E+02 0.  0.
         23    2    1    2    0    0 -0.39186272654E+02  0.36934303644E+02 -0.33827950278E+03  0.35435893768E+03  0.90760828348E+02 0.  0.
          5    1    3    3  502    0  0.38270363553E+02  0.20939830257E+02 -0.55766053050E+02  0.70958014984E+02  0.47000000000E+01 0. -1.
         -5    1    4    4    0  503 -0.48547622864E+02 -0.15794376129E+02 -0.18248902858E+03  0.18955386980E+03  0.47000000000E+01 0.  1.
          5    1    4    4  503    0  0.93613502099E+01  0.52728679773E+02 -0.15579047419E+03  0.16480506788E+03  0.47000000000E+01 0. -1.
         -5    1    3    3    0  502  0.91590910097E+00 -0.57874133901E+02 -0.29267249857E+02  0.65030117472E+02  0.47000000000E+01 0.  1.
<mgrwt>
<rscale>  0 0.10597528E+03</rscale>
<asrwt>0</asrwt>
<pdfrwt beam="1">  1        1 0.70281530E-01 0.10612309E+03</pdfrwt>
<pdfrwt beam="2">  1       -1 0.51564818E-02 0.10612309E+03</pdfrwt>
<totfact> 0.80284569E+03</totfact>
</mgrwt>
</event>
<event>
 8    1  0.3400573E-004  0.9498423E+02  0.7546771E-02  0.1291375E+00
          2   -1    0    0  501    0  0.00000000000E+00  0.00000000000E+00  0.15346990823E+03  0.15346990823E+03  0.00000000000E+00 0. -1.
         -2   -1    0    0    0  501 -0.00000000000E+00 -0.00000000000E+00 -0.58689233016E+02  0.58689233016E+02  0.00000000000E+00 0.  1.
         23    2    1    2    0    0 -0.18420232103E+02  0.10818108345E+02  0.43354131153E+02  0.10414667524E+03  0.92252982915E+02 0.  0.
         23    2    1    2    0    0  0.18420232103E+02 -0.10818108345E+02  0.51426544057E+02  0.10801246600E+03  0.92550888483E+02 0.  0.
          5    1    3    3  502    0 -0.15920772253E+02  0.51112017245E+02  0.28833813423E+02  0.60986786212E+02  0.47000000000E+01 0. -1.
         -5    1    4    4    0  503 -0.28863192973E+02 -0.31553126040E+02  0.26030646829E+02  0.50282882235E+02  0.47000000000E+01 0.  1.
          5    1    4    4  503    0  0.47283425076E+02  0.20735017696E+02  0.25395897228E+02  0.57729583766E+02  0.47000000000E+01 0. -1.
         -5    1    3    3    0  502 -0.24994598506E+01 -0.40293908900E+02  0.14520317729E+02  0.43159889028E+02  0.47000000000E+01 0.  1.
<mgrwt>
<rscale>  0 0.94911581E+02</rscale>
<asrwt>0</asrwt>
<pdfrwt beam="1">  1        2 0.23610755E-01 0.94984227E+02</pdfrwt>
<pdfrwt beam="2">  1       -2 0.90291128E-02 0.94984227E+02</pdfrwt>
<totfact> 0.16139016E+04</totfact>
</mgrwt>
</event>
<event>
 8    1  0.3400573E-004  0.1039640E+03  0.7546771E-02  0.1276062E+00
         -1   -1    0    0    0  501 -0.00000000000E+00  0.00000000000E+00  0.69738323394E+02  0.69738323394E+02  0.00000000000E+00 0.  1.
          1   -1    0    0  501    0  0.00000000000E+00 -0.00000000000E+00 -0.19531741964E+03  0.19531741964E+03  0.00000000000E+00 0. -1.
         23    2    1    2    0    0  0.29242775453E+02  0.26517110501E+02 -0.13239220001E+03  0.16833362228E+03  0.96178046876E+02 0.  0.
         23    2    1    2    0    0 -0.29242775453E+02 -0.26517110501E+02  0.68131037549E+01  0.96722120762E+02  0.88036658253E+02 0.  0.
          5    1    4    4  502    0 -0.42668340813E+02  0.64007778312E+01 -0.23865568858E+02  0.49529916631E+02  0.47000000000E+01 0. -1.
         -5    1    3    3    0  503 -0.17017439536E+02  0.31557053696E+02 -0.10312986142E+02  0.37601709662E+02  0.47000000000E+01 0.  1.
          5    1    3    3  503    0  0.46260214989E+02 -0.50399431956E+01 -0.12207921386E+03  0.13073191261E+03  0.47000000000E+01 0. -1.
         -5    1    4    4    0  502  0.13425565360E+02 -0.32917888332E+02  0.30678672613E+02  0.47192204131E+02  0.47000000000E+01 0.  1.
<mgrwt>
<rscale>  0 0.10204076E+03</rscale>
<asrwt>0</asrwt>
<pdfrwt beam="1">  1        1 0.30048834E-01 0.10396400E+03</pdfrwt>
<pdfrwt beam="2">  1       -1 0.10728973E-01 0.10396400E+03</pdfrwt>
<totfact> 0.76642432E+03</totfact>
</mgrwt>
</event>
<event>
 8    1  0.3400573E-004  0.1051253E+03  0.7546771E-02  0.1270006E+00
          1   -1    0    0  501    0  0.00000000000E+00  0.00000000000E+00  0.57754619676E+02  0.57754619676E+02  0.00000000000E+00 0. -1.
         -1   -1    0    0    0  501 -0.00000000000E+00 -0.00000000000E+00 -0.19256811377E+03  0.19256811377E+03  0.00000000000E+00 0.  1.
         23    2    1    2    0    0 -0.40729017965E+02 -0.85956826688E+01 -0.79288368552E+02  0.13167377628E+03  0.96532892362E+02 0.  0.
         23    2    1    2    0    0  0.40729017965E+02  0.85956826688E+01 -0.55525125542E+02  0.11864895717E+03  0.96238229436E+02 0.  0.
          5    1    3    3  502    0  0.31325549001E+02 -0.87475723290E+01 -0.26800570618E+02  0.42404842027E+02  0.47000000000E+01 0. -1.
         -5    1    4    4    0  503  0.25639508731E+02 -0.48144848192E+01 -0.81335629219E+02  0.85546117694E+02  0.47000000000E+01 0.  1.
          5    1    4    4  503    0  0.15089509234E+02  0.13410167488E+02  0.25810503677E+02  0.33102839471E+02  0.47000000000E+01 0. -1.
         -5    1    3    3    0  502 -0.72054566966E+02  0.15188966022E+00 -0.52487797934E+02  0.89268934255E+02  0.47000000000E+01 0.  1.
<mgrwt>
<rscale>  0 0.10505765E+03</rscale>
<asrwt>0</asrwt>
<pdfrwt beam="1">  1        1 0.88853262E-02 0.10512534E+03</pdfrwt>
<pdfrwt beam="2">  1       -1 0.29625863E-01 0.10512534E+03</pdfrwt>
<totfact> 0.72875679E+03</totfact>
</mgrwt>
</event>
<event>
 8    1  0.3400573E-004  0.1000413E+03  0.7546771E-02  0.1282084E+00
         -2   -1    0    0    0  501 -0.00000000000E+00  0.00000000000E+00  0.53616526280E+03  0.53616526280E+03  0.00000000000E+00 0.  1.
          2   -1    0    0  501    0  0.00000000000E+00 -0.00000000000E+00 -0.58572143933E+02  0.58572143933E+02  0.00000000000E+00 0. -1.
         23    2    1    2    0    0 -0.35952571967E+02  0.57130531201E+01  0.48752744366E+03  0.49768591940E+03  0.93182829106E+02 0.  0.
         23    2    1    2    0    0  0.35952571967E+02 -0.57130531201E+01 -0.99343247923E+01  0.97051487334E+02  0.89415177557E+02 0.  0.
          5    1    4    4  502    0  0.35908779441E+02 -0.36755719535E+02 -0.30099596949E+02  0.59736915688E+02  0.47000000000E+01 0. -1.
         -5    1    3    3    0  503 -0.39167407207E+02 -0.27069047911E+02  0.41664213124E+03  0.41937998840E+03  0.47000000000E+01 0.  1.
          5    1    3    3  503    0  0.32148352397E+01  0.32782101031E+02  0.70885312418E+02  0.78305931003E+02  0.47000000000E+01 0. -1.
         -5    1    4    4    0  502  0.43792526613E-01  0.31042666415E+02  0.20165272156E+02  0.37314571645E+02  0.47000000000E+01 0.  1.
<mgrwt>
<rscale>  0 0.99154700E+02</rscale>
<asrwt>0</asrwt>
<pdfrwt beam="1">  1        2 0.90110994E-02 0.10004132E+03</pdfrwt>
<pdfrwt beam="2">  1       -2 0.82486960E-01 0.10004132E+03</pdfrwt>
<totfact> 0.93645731E+02</totfact>
</mgrwt>
</event>
<event>
 8    1  0.3400573E-004  0.1076725E+03  0.7546771E-02  0.1266656E+00
          1   -1    0    0  501    0  0.00000000000E+00  0.00000000000E+00  0.10905337844E+04  0.10905337844E+04  0.00000000000E+00 0. -1.
         -1   -1    0    0    0  501 -0.00000000000E+00 -0.00000000000E+00 -0.14719243760E+02  0.14719243760E+02  0.00000000000E+00 0.  1.
         23    2    1    2    0    0  0.34769982979E+02  0.32599408355E+02  0.83493102458E+03  0.84140036859E+03  0.92590989313E+02 0.  0.
         23    2    1    2    0    0 -0.34769982979E+02 -0.32599408355E+02  0.24088351608E+03  0.26385265960E+03  0.96548871132E+02 0.  0.
          5    1    4    4  502    0 -0.36625602673E+02 -0.63071600450E+02  0.13448557756E+03  0.15306182452E+03  0.47000000000E+01 0. -1.
         -5    1    4    4    0  502  0.18556196937E+01  0.30472192095E+02  0.10639793853E+03  0.11079083508E+03  0.47000000000E+01 0.  1.
          5    1    3    3  503    0 -0.30540392104E+02  0.11406790446E+01  0.21074786499E+03  0.21300415324E+03  0.47000000000E+01 0. -1.
         -5    1    3    3    0  503  0.65310375083E+02  0.31458729310E+02  0.62418315959E+03  0.62839621535E+03  0.47000000000E+01 0.  1.
<mgrwt>
<rscale>  0 0.10677780E+03</rscale>
<asrwt>0</asrwt>
<pdfrwt beam="1">  1        1 0.16777436E+00 0.10767246E+03</pdfrwt>
<pdfrwt beam="2">  1       -1 0.22644999E-02 0.10767246E+03</pdfrwt>
<totfact> 0.75122925E+03</totfact>
</mgrwt>
</event>
<event>
 8    1  0.3400573E-004  0.1035645E+03  0.7546771E-02  0.1273036E+00
          1   -1    0    0  501    0  0.00000000000E+00  0.00000000000E+00  0.55663805560E+02  0.55663805560E+02  0.00000000000E+00 0. -1.
         -1   -1    0    0    0  501 -0.00000000000E+00 -0.00000000000E+00 -0.19549613939E+03  0.19549613939E+03  0.00000000000E+00 0.  1.
         23    2    1    2    0    0 -0.39719874663E+02  0.29723061766E+02 -0.54298643636E+02  0.11693563973E+03  0.90909143073E+02 0.  0.
         23    2    1    2    0    0  0.39719874663E+02 -0.29723061766E+02 -0.85533690196E+02  0.13422430522E+03  0.90769064719E+02 0.  0.
          5    1    3    3  502    0 -0.23678983750E+02 -0.30352649995E+02 -0.88670701335E+01  0.39783068834E+02  0.47000000000E+01 0. -1.
         -5    1    3    3    0  502 -0.16040890913E+02  0.60075711761E+02 -0.45431573502E+02  0.77152570895E+02  0.47000000000E+01 0.  1.
          5    1    4    4  503    0 -0.54959831086E+01 -0.51342763948E+02 -0.53798627959E+02  0.74717251090E+02  0.47000000000E+01 0. -1.
         -5    1    4    4    0  503  0.45215857771E+02  0.21619702182E+02 -0.31735062237E+02  0.59507054133E+02  0.47000000000E+01 0.  1.
<mgrwt>
<rscale>  0 0.10353373E+03</rscale>
<asrwt>0</asrwt>
<pdfrwt beam="1">  1        1 0.85636625E-02 0.10356448E+03</pdfrwt>
<pdfrwt beam="2">  1       -1 0.30076329E-01 0.10356448E+03</pdfrwt>
<totfact> 0.74528225E+03</totfact>
</mgrwt>
</event>
<event>
 8    1  0.3400573E-004  0.1042493E+03  0.7546771E-02  0.1272395E+00
          1   -1    0    0  501    0  0.00000000000E+00  0.00000000000E+00  0.17795308092E+03  0.17795308092E+03  0.00000000000E+00 0. -1.
         -1   -1    0    0    0  501 -0.00000000000E+00 -0.00000000000E+00 -0.79198880889E+02  0.79198880889E+02  0.00000000000E+00 0.  1.
         23    2    1    2    0    0  0.47560345578E+02  0.10135477198E+02  0.11214195217E+03  0.15204655068E+03  0.90430203836E+02 0.  0.
         23    2    1    2    0    0 -0.47560345578E+02 -0.10135477198E+02 -0.13387752138E+02  0.10510541114E+03  0.92212803738E+02 0.  0.
          5    1    4    4  502    0 -0.67462648292E+02 -0.13963586898E+02 -0.32982827037E+02  0.76525469963E+02  0.47000000000E+01 0. -1.
         -5    1    3    3    0  503  0.53581253552E+02  0.34659871423E+02  0.10869402618E+03  0.12612984875E+03  0.47000000000E+01 0.  1.
          5    1    3    3  503    0 -0.60209079741E+01 -0.24524394225E+02  0.34479259938E+01  0.25916701924E+02  0.47000000000E+01 0. -1.
         -5    1    4    4    0  502  0.19902302714E+02  0.38281097003E+01  0.19595074899E+02  0.28579941173E+02  0.47000000000E+01 0.  1.
<mgrwt>
<rscale>  0 0.10385370E+03</rscale>
<asrwt>0</asrwt>
<pdfrwt beam="1">  1        1 0.27377397E-01 0.10424930E+03</pdfrwt>
<pdfrwt beam="2">  1       -1 0.12184443E-01 0.10424930E+03</pdfrwt>
<totfact> 0.70817795E+03</totfact>
</mgrwt>
</event>
<event>
 8    1  0.3400573E-004  0.9247254E+02  0.7546771E-02  0.1297317E+00
          1   -1    0    0  501    0  0.00000000000E+00  0.00000000000E+00  0.42319919193E+03  0.42319919193E+03  0.00000000000E+00 0. -1.
         -1   -1    0    0    0  501 -0.00000000000E+00 -0.00000000000E+00 -0.48834070759E+02  0.48834070759E+02  0.00000000000E+00 0.  1.
         23    2    1    2    0    0  0.17602420673E+01 -0.42335441580E+01  0.58244463646E+01  0.92068264357E+02  0.91769383664E+02 0.  0.
         23    2    1    2    0    0 -0.17602420673E+01  0.42335441580E+01  0.36854067481E+03  0.37996499833E+03  0.92358809121E+02 0.  0.
          5    1    4    4  502    0 -0.29045052629E+02  0.36628797413E+02  0.23965805696E+03  0.24421989711E+03  0.47000000000E+01 0. -1.
         -5    1    4    4    0  502  0.27284810562E+02 -0.32395253255E+02  0.12888261785E+03  0.13574510122E+03  0.47000000000E+01 0.  1.
          5    1    3    3  503    0 -0.34541434541E+02 -0.25144056293E+02 -0.14375909840E+02  0.45322081271E+02  0.47000000000E+01 0. -1.
         -5    1    3    3    0  503  0.36301676609E+02  0.20910512135E+02  0.20200356205E+02  0.46746183086E+02  0.47000000000E+01 0.  1.
<mgrwt>
<rscale>  0 0.92325015E+02</rscale>
<asrwt>0</asrwt>
<pdfrwt beam="1">  1        1 0.65107566E-01 0.92472542E+02</pdfrwt>
<pdfrwt beam="2">  1       -1 0.75129342E-02 0.92472542E+02</pdfrwt>
<totfact> 0.50194189E+03</totfact>
</mgrwt>
</event>
<event>
 8    1  0.3400573E-004  0.1009613E+03  0.7546771E-02  0.1281876E+00
         -4   -1    0    0    0  501 -0.00000000000E+00  0.00000000000E+00  0.99151205170E+01  0.99151205170E+01  0.00000000000E+00 0.  1.
          4   -1    0    0  501    0  0.00000000000E+00 -0.00000000000E+00 -0.10931130997E+04  0.10931130997E+04  0.00000000000E+00 0. -1.
         23    2    1    2    0    0  0.39238677985E+02  0.15956684113E+02 -0.74926396415E+03  0.75603549404E+03  0.91645461655E+02 0.  0.
         23    2    1    2    0    0 -0.39238677985E+02 -0.15956684113E+02 -0.33393401507E+03  0.34699272622E+03  0.84248062372E+02 0.  0.
          5    1    3    3  502    0 -0.26188468588E+01 -0.34365810308E+02 -0.22320369713E+03  0.22589787004E+03  0.47000000000E+01 0. -1.
         -5    1    3    3    0  502  0.41857524844E+02  0.50322494421E+02 -0.52606026703E+03  0.53013762400E+03  0.47000000000E+01 0.  1.
          5    1    4    4  503    0 -0.52934556871E+02  0.57187124150E+01 -0.29709073465E+03  0.30186050686E+03  0.47000000000E+01 0. -1.
         -5    1    4    4    0  503  0.13695878886E+02 -0.21675396528E+02 -0.36843280414E+02  0.45132219365E+02  0.47000000000E+01 0.  1.
<mgrwt>
<rscale>  0 0.99252448E+02</rscale>
<asrwt>0</asrwt>
<pdfrwt beam="1">  1        4 0.16817126E+00 0.10096128E+03</pdfrwt>
<pdfrwt beam="2">  1       -4 0.15254030E-02 0.10096128E+03</pdfrwt>
<totfact> 0.57152801E+02</totfact>
</mgrwt>
</event>
<event>
 8    1  0.3400573E-004  0.1236308E+03  0.7546771E-02  0.1237399E+00
         -2   -1    0    0    0  501 -0.00000000000E+00  0.00000000000E+00  0.16071214471E+03  0.16071214471E+03  0.00000000000E+00 0.  1.
          2   -1    0    0  501    0  0.00000000000E+00 -0.00000000000E+00 -0.11385382905E+03  0.11385382905E+03  0.00000000000E+00 0. -1.
         23    2    1    2    0    0  0.57547306142E+02 -0.59483638220E+02 -0.32745117430E+02  0.12789378377E+03  0.91839977961E+02 0.  0.
         23    2    1    2    0    0 -0.57547306142E+02  0.59483638220E+02  0.79603433093E+02  0.14667218999E+03  0.91247077187E+02 0.  0.
          5    1    3    3  502    0  0.19769886375E+02 -0.76445416914E+02 -0.34234539516E+02  0.86190741210E+02  0.47000000000E+01 0. -1.
         -5    1    3    3    0  502  0.37777419767E+02  0.16961778694E+02  0.14894220859E+01  0.41703042562E+02  0.47000000000E+01 0.  1.
          5    1    4    4  503    0 -0.58805422671E+02  0.10539263132E+02  0.89609664318E+01  0.60593256409E+02  0.47000000000E+01 0. -1.
         -5    1    4    4    0  503  0.12581165281E+01  0.48944375088E+02  0.70642466661E+02  0.86078933578E+02  0.47000000000E+01 0.  1.
<mgrwt>
<rscale>  0 0.12352071E+03</rscale>
<asrwt>0</asrwt>
<pdfrwt beam="1">  1        2 0.17515974E-01 0.12363081E+03</pdfrwt>
<pdfrwt beam="2">  1       -2 0.24724946E-01 0.12363081E+03</pdfrwt>
<totfact> 0.44630503E+03</totfact>
</mgrwt>
</event>
<event>
 8    1  0.3400573E-004  0.1350941E+03  0.7546771E-02  0.1220319E+00
          1   -1    0    0  501    0  0.00000000000E+00  0.00000000000E+00  0.36406235558E+03  0.36406235558E+03  0.00000000000E+00 0. -1.
         -1   -1    0    0    0  501 -0.00000000000E+00 -0.00000000000E+00 -0.52272635777E+02  0.52272635777E+02  0.00000000000E+00 0.  1.
         23    2    1    2    0    0 -0.76943282606E+02  0.59171610738E+02  0.20000799386E+03  0.24099083287E+03  0.93015244260E+02 0.  0.
         23    2    1    2    0    0  0.76943282606E+02 -0.59171610738E+02  0.11178172594E+03  0.17534415848E+03  0.93962074285E+02 0.  0.
          5    1    3    3  502    0 -0.30773334364E+02 -0.15336897104E+02  0.10966996360E+03  0.11502960244E+03  0.47000000000E+01 0. -1.
         -5    1    3    3    0  502 -0.46169948242E+02  0.74508507842E+02  0.90338030262E+02  0.12596123044E+03  0.47000000000E+01 0.  1.
          5    1    4    4  503    0  0.71765797053E+02 -0.83150016235E+02  0.87486225272E+02  0.14049976669E+03  0.47000000000E+01 0. -1.
         -5    1    4    4    0  503  0.51774855528E+01  0.23978405498E+02  0.24295500664E+02  0.34844391792E+02  0.47000000000E+01 0.  1.
<mgrwt>
<rscale>  0 0.13492961E+03</rscale>
<asrwt>0</asrwt>
<pdfrwt beam="1">  1        1 0.56009592E-01 0.13509411E+03</pdfrwt>
<pdfrwt beam="2">  1       -1 0.80419442E-02 0.13509411E+03</pdfrwt>
<totfact> 0.55994329E+03</totfact>
</mgrwt>
</event>
<event>
 8    1  0.3400573E-004  0.9188788E+02  0.7546771E-02  0.1299471E+00
         -1   -1    0    0    0  501 -0.00000000000E+00  0.00000000000E+00  0.13877105908E+02  0.13877105908E+02  0.00000000000E+00 0.  1.
          1   -1    0    0  501    0  0.00000000000E+00 -0.00000000000E+00 -0.64653455771E+03  0.64653455771E+03  0.00000000000E+00 0. -1.
         23    2    1    2    0    0 -0.20335118713E+01  0.13773677265E+02 -0.40563586448E+03  0.41549906031E+03  0.88910996017E+02 0.  0.
         23    2    1    2    0    0  0.20335118713E+01 -0.13773677265E+02 -0.22702158732E+03  0.24491260331E+03  0.90826938687E+02 0.  0.
          5    1    4    4  502    0  0.29095522460E+02 -0.29250512122E+01 -0.19867092366E+02  0.35663660930E+02  0.47000000000E+01 0. -1.
         -5    1    4    4    0  502 -0.27062010589E+02 -0.10848626052E+02 -0.20715449496E+03  0.20924894238E+03  0.47000000000E+01 0.  1.
          5    1    3    3  503    0 -0.43561149282E+02  0.10961321700E+01 -0.15459072706E+03  0.16068340962E+03  0.47000000000E+01 0. -1.
         -5    1    3    3    0  503  0.41527637411E+02  0.12677545095E+02 -0.25104513742E+03  0.25481565070E+03  0.47000000000E+01 0.  1.
<mgrwt>
<rscale>  0 0.91410838E+02</rscale>
<asrwt>0</asrwt>
<pdfrwt beam="1">  1        1 0.99466868E-01 0.91887878E+02</pdfrwt>
<pdfrwt beam="2">  1       -1 0.21349391E-02 0.91887878E+02</pdfrwt>
<totfact> 0.18025318E+04</totfact>
</mgrwt>
</event>
<event>
 8    1  0.3400573E-004  0.9482146E+02  0.7546771E-02  0.1292893E+00
          2   -1    0    0  501    0  0.00000000000E+00  0.00000000000E+00  0.33857908022E+03  0.33857908022E+03  0.00000000000E+00 0. -1.
         -2   -1    0    0    0  501 -0.00000000000E+00 -0.00000000000E+00 -0.50724668076E+02  0.50724668076E+02  0.00000000000E+00 0.  1.
         23    2    1    2    0    0 -0.10951278253E+02 -0.15386605487E+02  0.69005273618E+01  0.92780234108E+02  0.90575252909E+02 0.  0.
         23    2    1    2    0    0  0.10951278253E+02  0.15386605487E+02  0.28095388479E+03  0.29652351419E+03  0.92921638860E+02 0.  0.
          5    1    3    3  502    0  0.62487494121E+01  0.32076155303E+02 -0.16534878473E+02  0.36924501545E+02  0.47000000000E+01 0. -1.
         -5    1    3    3    0  502 -0.17200027666E+02 -0.47462760790E+02  0.23435405835E+02  0.55855732563E+02  0.47000000000E+01 0.  1.
          5    1    4    4  503    0  0.40538007445E+02  0.39016942264E+02  0.17711208577E+03  0.18589360601E+03  0.47000000000E+01 0. -1.
         -5    1    4    4    0  503 -0.29586729192E+02 -0.23630336777E+02  0.10384179902E+03  0.11062990818E+03  0.47000000000E+01 0.  1.
<mgrwt>
<rscale>  0 0.94241613E+02</rscale>
<asrwt>0</asrwt>
<pdfrwt beam="1">  1        2 0.52089088E-01 0.94821459E+02</pdfrwt>
<pdfrwt beam="2">  1       -2 0.78037953E-02 0.94821459E+02</pdfrwt>
<totfact> 0.87064494E+03</totfact>
</mgrwt>
</event>
<event>
 8    1  0.3400573E-004  0.1391986E+03  0.7546771E-02  0.1218246E+00
          1   -1    0    0  501    0  0.00000000000E+00  0.00000000000E+00  0.17478894729E+03  0.17478894729E+03  0.00000000000E+00 0. -1.
         -1   -1    0    0    0  501 -0.00000000000E+00 -0.00000000000E+00 -0.10594274416E+03  0.10594274416E+03  0.00000000000E+00 0.  1.
         23    2    1    2    0    0  0.11764978365E+02 -0.90675048238E+02  0.10109164876E+02  0.13956517107E+03  0.10495647990E+03 0.  0.
         23    2    1    2    0    0 -0.11764978365E+02  0.90675048238E+02  0.58737038260E+02  0.14116652038E+03  0.90097545599E+02 0.  0.
          5    1    3    3  502    0  0.48899842004E+02 -0.33582835678E+02  0.32391986151E+02  0.67751990133E+02  0.47000000000E+01 0. -1.
         -5    1    4    4    0  503 -0.39545844565E+02  0.16936631674E+02  0.86083583568E+00  0.43284574078E+02  0.47000000000E+01 0.  1.
          5    1    4    4  503    0  0.27780866200E+02  0.73738416564E+02  0.57876202424E+02  0.97881946299E+02  0.47000000000E+01 0. -1.
         -5    1    3    3    0  502 -0.37134863640E+02 -0.57092212560E+02 -0.22282821274E+02  0.71813180939E+02  0.47000000000E+01 0.  1.
<mgrwt>
<rscale>  0 0.13640773E+03</rscale>
<asrwt>0</asrwt>
<pdfrwt beam="1">  1        1 0.26890607E-01 0.13919857E+03</pdfrwt>
<pdfrwt beam="2">  1       -1 0.16298884E-01 0.13919857E+03</pdfrwt>
<totfact> 0.46972079E+03</totfact>
</mgrwt>
</event>
<event>
 8    1  0.3400573E-004  0.1499503E+03  0.7546771E-02  0.1201006E+00
         -1   -1    0    0    0  501 -0.00000000000E+00  0.00000000000E+00  0.51213656096E+02  0.51213656096E+02  0.00000000000E+00 0.  1.
          1   -1    0    0  501    0  0.00000000000E+00 -0.00000000000E+00 -0.52441092067E+03  0.52441092067E+03  0.00000000000E+00 0. -1.
         23    2    1    2    0    0  0.88916586939E+02  0.77467832268E+02 -0.35671922235E+03  0.38695438257E+03  0.92615690515E+02 0.  0.
         23    2    1    2    0    0 -0.88916586939E+02 -0.77467832268E+02 -0.11647804223E+03  0.18867019420E+03  0.90121492373E+02 0.  0.
          5    1    3    3  502    0  0.59671275615E+02 -0.66352663757E+01 -0.12765755420E+03  0.14114966892E+03  0.47000000000E+01 0. -1.
         -5    1    4    4    0  503 -0.41266911831E+02 -0.43152537970E+01  0.15518585305E+01  0.41786094484E+02  0.47000000000E+01 0.  1.
          5    1    4    4  503    0 -0.47649675109E+02 -0.73152578471E+02 -0.11802990076E+03  0.14688409971E+03  0.47000000000E+01 0. -1.
         -5    1    3    3    0  502  0.29245311324E+02  0.84103098644E+02 -0.22906166815E+03  0.24580471365E+03  0.47000000000E+01 0.  1.
<mgrwt>
<rscale>  0 0.14956694E+03</rscale>
<asrwt>0</asrwt>
<pdfrwt beam="1">  1        1 0.80678604E-01 0.14995029E+03</pdfrwt>
<pdfrwt beam="2">  1       -1 0.78790239E-02 0.14995029E+03</pdfrwt>
<totfact> 0.36388613E+03</totfact>
</mgrwt>
</event>
<event>
 8    1  0.3400573E-004  0.9948193E+02  0.7546771E-02  0.1282143E+00
         -2   -1    0    0    0  501 -0.00000000000E+00  0.00000000000E+00  0.25931167410E+02  0.25931167410E+02  0.00000000000E+00 0.  1.
          2   -1    0    0  501    0  0.00000000000E+00 -0.00000000000E+00 -0.37631890956E+03  0.37631890956E+03  0.00000000000E+00 0. -1.
         23    2    1    2    0    0 -0.30564167587E+02 -0.22753124468E+02 -0.17673673701E+03  0.20212180379E+03  0.90363025326E+02 0.  0.
         23    2    1    2    0    0  0.30564167587E+02  0.22753124468E+02 -0.17365100514E+03  0.20012827318E+03  0.91895490233E+02 0.  0.
          5    1    4    4  502    0  0.25753829378E+02  0.54992248503E+02 -0.14173668806E+03  0.15426855112E+03  0.47000000000E+01 0. -1.
         -5    1    3    3    0  503 -0.58145263395E+02  0.13926307412E+00 -0.13399232021E+03  0.14614007980E+03  0.47000000000E+01 0.  1.
          5    1    3    3  503    0  0.27581095808E+02 -0.22892387542E+02 -0.42744416802E+02  0.55981723991E+02  0.47000000000E+01 0. -1.
         -5    1    4    4    0  502  0.48103382089E+01 -0.32239124035E+02 -0.31914317081E+02  0.45859722055E+02  0.47000000000E+01 0.  1.
<mgrwt>
<rscale>  0 0.99126568E+02</rscale>
<asrwt>0</asrwt>
<pdfrwt beam="1">  1        2 0.57895217E-01 0.99481929E+02</pdfrwt>
<pdfrwt beam="2">  1       -2 0.39894104E-02 0.99481929E+02</pdfrwt>
<totfact> 0.21382462E+04</totfact>
</mgrwt>
</event>
<event>
 8    1  0.3400573E-004  0.9735053E+02  0.7546771E-02  0.1288538E+00
          2   -1    0    0  501    0  0.00000000000E+00  0.00000000000E+00  0.56218632610E+02  0.56218632610E+02  0.00000000000E+00 0. -1.
         -2   -1    0    0    0  501 -0.00000000000E+00 -0.00000000000E+00 -0.16123457339E+03  0.16123457339E+03  0.00000000000E+00 0.  1.
         23    2    1    2    0    0 -0.23129457370E+02  0.24842281412E+02 -0.59950284910E+02  0.11432918024E+03  0.91241514944E+02 0.  0.
         23    2    1    2    0    0  0.23129457370E+02 -0.24842281412E+02 -0.45065655868E+02  0.10312402576E+03  0.86322306537E+02 0.  0.
          5    1    4    4  502    0  0.52620352986E+02 -0.18006550503E+01 -0.37079898537E+02  0.64568976936E+02  0.47000000000E+01 0. -1.
         -5    1    3    3    0  503  0.92513722185E+01 -0.29661650511E+02 -0.85196964682E+01  0.32558817959E+02  0.47000000000E+01 0.  1.
          5    1    3    3  503    0 -0.32380829589E+02  0.54503931923E+02 -0.51430588442E+02  0.81770362280E+02  0.47000000000E+01 0. -1.
         -5    1    4    4    0  502 -0.29490895616E+02 -0.23041626361E+02 -0.79857573307E+01  0.38555048823E+02  0.47000000000E+01 0.  1.
<mgrwt>
<rscale>  0 0.96180953E+02</rscale>
<asrwt>0</asrwt>
<pdfrwt beam="1">  1        2 0.86490204E-02 0.97350525E+02</pdfrwt>
<pdfrwt beam="2">  1       -2 0.24805319E-01 0.97350525E+02</pdfrwt>
<totfact> 0.10083863E+04</totfact>
</mgrwt>
</event>
<event>
 8    1  0.3400573E-004  0.9871495E+02  0.7546771E-02  0.1284135E+00
         -1   -1    0    0    0  501 -0.00000000000E+00  0.00000000000E+00  0.11822364952E+04  0.11822364952E+04  0.00000000000E+00 0.  1.
          1   -1    0    0  501    0  0.00000000000E+00 -0.00000000000E+00 -0.84013800916E+01  0.84013800916E+01  0.00000000000E+00 0. -1.
         23    2    1    2    0    0  0.50120771662E+01  0.30915067033E+02  0.47491298390E+03  0.48506389729E+03  0.93615062308E+02 0.  0.
         23    2    1    2    0    0 -0.50120771662E+01 -0.30915067033E+02  0.69892213124E+03  0.70557397804E+03  0.91441952365E+02 0.  0.
          5    1    4    4  502    0  0.12366117493E+02 -0.60486491524E+02  0.43116515180E+03  0.43558812501E+03  0.47000000000E+01 0. -1.
         -5    1    3    3    0  503  0.46496889113E+02  0.28623562222E+02  0.31735454298E+03  0.32205164953E+03  0.47000000000E+01 0.  1.
          5    1    3    3  503    0 -0.41484811947E+02  0.22915048109E+01  0.15755844092E+03  0.16301224776E+03  0.47000000000E+01 0. -1.
         -5    1    4    4    0  502 -0.17378194659E+02  0.29571424491E+02  0.26775697944E+03  0.26998585303E+03  0.47000000000E+01 0.  1.
<mgrwt>
<rscale>  0 0.98196285E+02</rscale>
<asrwt>0</asrwt>
<pdfrwt beam="1">  1        1 0.12925210E-02 0.98714954E+02</pdfrwt>
<pdfrwt beam="2">  1       -1 0.18188241E+00 0.98714954E+02</pdfrwt>
<totfact> 0.23647493E+03</totfact>
</mgrwt>
</event>
<event>
 8    1  0.3400573E-004  0.9829309E+02  0.7546771E-02  0.1284261E+00
         -2   -1    0    0    0  501 -0.00000000000E+00  0.00000000000E+00  0.61164215046E+02  0.61164215046E+02  0.00000000000E+00 0.  1.
          2   -1    0    0  501    0  0.00000000000E+00 -0.00000000000E+00 -0.27076282252E+03  0.27076282252E+03  0.00000000000E+00 0. -1.
         23    2    1    2    0    0 -0.39038266024E+02 -0.11639097436E+02  0.29851270878E+01  0.97719060606E+02  0.88773019655E+02 0.  0.
         23    2    1    2    0    0  0.39038266024E+02  0.11639097436E+02 -0.21258373456E+03  0.23420797696E+03  0.89454331746E+02 0.  0.
          5    1    4    4  502    0  0.67639672717E+02  0.56251329175E+01 -0.15999834392E+03  0.17386295610E+03  0.47000000000E+01 0. -1.
         -5    1    3    3    0  503 -0.16838594993E+02 -0.48273435539E+02  0.14048241447E+02  0.53228807500E+02  0.47000000000E+01 0.  1.
          5    1    3    3  503    0 -0.22199671031E+02  0.36634338103E+02 -0.11063114359E+02  0.44490253107E+02  0.47000000000E+01 0. -1.
         -5    1    4    4    0  502 -0.28601406692E+02  0.60139645183E+01 -0.52585390634E+02  0.60345020856E+02  0.47000000000E+01 0.  1.
<mgrwt>
<rscale>  0 0.98137816E+02</rscale>
<asrwt>0</asrwt>
<pdfrwt beam="1">  1        2 0.41655819E-01 0.98293094E+02</pdfrwt>
<pdfrwt beam="2">  1       -2 0.94098791E-02 0.98293094E+02</pdfrwt>
<totfact> 0.82735697E+03</totfact>
</mgrwt>
</event>
<event>
 8    1  0.3400573E-004  0.1120161E+03  0.7546771E-02  0.1257251E+00
         -2   -1    0    0    0  501 -0.00000000000E+00  0.00000000000E+00  0.23445591623E+03  0.23445591623E+03  0.00000000000E+00 0.  1.
          2   -1    0    0  501    0  0.00000000000E+00 -0.00000000000E+00 -0.86948745175E+02  0.86948745175E+02  0.00000000000E+00 0. -1.
         23    2    1    2    0    0 -0.25195042509E+02 -0.59316267531E+02  0.17414115388E+03  0.20705733973E+03  0.91620907551E+02 0.  0.
         23    2    1    2    0    0  0.25195042509E+02  0.59316267531E+02 -0.26633982822E+02  0.11434732168E+03  0.90624120260E+02 0.  0.
          5    1    4    4  502    0  0.47109467872E+02  0.42360122125E+01 -0.27424134696E+02  0.54876396807E+02  0.47000000000E+01 0. -1.
         -5    1    4    4    0  502 -0.21914425363E+02  0.55080255319E+02  0.79015187322E+00  0.59470924871E+02  0.47000000000E+01 0.  1.
          5    1    3    3  503    0 -0.79990497204E+01  0.20006859212E+02  0.10701004635E+02  0.24512460345E+02  0.47000000000E+01 0. -1.
         -5    1    3    3    0  503 -0.17195992789E+02 -0.79323126744E+02  0.16344014925E+03  0.18254487938E+03  0.47000000000E+01 0.  1.
<mgrwt>
<rscale>  0 0.11181206E+03</rscale>
<asrwt>0</asrwt>
<pdfrwt beam="1">  1        2 0.13376730E-01 0.11201607E+03</pdfrwt>
<pdfrwt beam="2">  1       -2 0.36070141E-01 0.11201607E+03</pdfrwt>
<totfact> 0.30842819E+03</totfact>
</mgrwt>
</event>
<event>
 8    1  0.3400573E-004  0.1240765E+03  0.7546771E-02  0.1236830E+00
         -1   -1    0    0    0  501 -0.00000000000E+00  0.00000000000E+00  0.60497919910E+02  0.60497919910E+02  0.00000000000E+00 0.  1.
          1   -1    0    0  501    0  0.00000000000E+00 -0.00000000000E+00 -0.25539038691E+03  0.25539038691E+03  0.00000000000E+00 0. -1.
         23    2    1    2    0    0 -0.83807592756E+02  0.43443139747E+01 -0.11345325649E+03  0.16812677051E+03  0.91391377528E+02 0.  0.
         23    2    1    2    0    0  0.83807592756E+02 -0.43443139747E+01 -0.81439210506E+02  0.14776153631E+03  0.90324641910E+02 0.  0.
          5    1    3    3  502    0 -0.23613474611E+02 -0.28200092699E+02 -0.87071760586E+02  0.94638379651E+02  0.47000000000E+01 0. -1.
         -5    1    4    4    0  503  0.54711990567E+01  0.27425597160E+02  0.25903635638E+01  0.28476259974E+02  0.47000000000E+01 0.  1.
          5    1    4    4  503    0  0.78336393700E+02 -0.31769911135E+02 -0.84029574069E+02  0.11928527633E+03  0.47000000000E+01 0. -1.
         -5    1    3    3    0  502 -0.60194118146E+02  0.32544406674E+02 -0.26381495908E+02  0.73488390862E+02  0.47000000000E+01 0.  1.
<mgrwt>
<rscale>  0 0.12388010E+03</rscale>
<asrwt>0</asrwt>
<pdfrwt beam="1">  1        1 0.39290828E-01 0.12407647E+03</pdfrwt>
<pdfrwt beam="2">  1       -1 0.93073725E-02 0.12407647E+03</pdfrwt>
<totfact> 0.69246876E+03</totfact>
</mgrwt>
</event>
<event>
 8    1  0.3400573E-004  0.1067233E+03  0.7546771E-02  0.1267435E+00
         -1   -1    0    0    0  501 -0.00000000000E+00  0.00000000000E+00  0.10628629051E+03  0.10628629051E+03  0.00000000000E+00 0.  1.
          1   -1    0    0  501    0  0.00000000000E+00 -0.00000000000E+00 -0.19684843126E+03  0.19684843126E+03  0.00000000000E+00 0. -1.
         23    2    1    2    0    0  0.46043741077E+02  0.27082550196E+02 -0.14821627091E+03  0.18183401609E+03  0.90785768869E+02 0.  0.
         23    2    1    2    0    0 -0.46043741077E+02 -0.27082550196E+02  0.57654130152E+02  0.12130070568E+03  0.92392488096E+02 0.  0.
          5    1    3    3  502    0 -0.56706847199E+01  0.36399747633E+02 -0.17864302266E+02  0.41210697499E+02  0.47000000000E+01 0. -1.
         -5    1    4    4    0  503 -0.69192934623E+02 -0.18293234992E+02  0.63083041123E+02  0.95518923390E+02  0.47000000000E+01 0.  1.
          5    1    4    4  503    0  0.23149193546E+02 -0.87893152043E+01 -0.54289109711E+01  0.25781782287E+02  0.47000000000E+01 0. -1.
         -5    1    3    3    0  502  0.51714425797E+02 -0.93171974361E+01 -0.13035196864E+03  0.14062331859E+03  0.47000000000E+01 0.  1.
<mgrwt>
<rscale>  0 0.10637462E+03</rscale>
<asrwt>0</asrwt>
<pdfrwt beam="1">  1        1 0.30284374E-01 0.10672330E+03</pdfrwt>
<pdfrwt beam="2">  1       -1 0.16351737E-01 0.10672330E+03</pdfrwt>
<totfact> 0.39687487E+03</totfact>
</mgrwt>
</event>
<event>
 8    1  0.3400573E-004  0.9896342E+02  0.7546771E-02  0.1283150E+00
         -1   -1    0    0    0  501 -0.00000000000E+00  0.00000000000E+00  0.39001699781E+02  0.39001699781E+02  0.00000000000E+00 0.  1.
          1   -1    0    0  501    0  0.00000000000E+00 -0.00000000000E+00 -0.25141092335E+03  0.25141092335E+03  0.00000000000E+00 0. -1.
         23    2    1    2    0    0 -0.19352386906E+02 -0.32895793359E+02 -0.88645614040E+02  0.13194751737E+03  0.89974742851E+02 0.  0.
         23    2    1    2    0    0  0.19352386906E+02  0.32895793359E+02 -0.12376360953E+03  0.15846510576E+03  0.91307779522E+02 0.  0.
          5    1    4    4  502    0  0.17668032823E+02  0.60460171223E+02 -0.11092987752E+03  0.12765233807E+03  0.47000000000E+01 0. -1.
         -5    1    3    3    0  503  0.26814838051E+02  0.14818307006E+02 -0.24493453651E+02  0.39504898860E+02  0.47000000000E+01 0.  1.
          5    1    3    3  503    0 -0.46167224957E+02 -0.47714100365E+02 -0.64152160389E+02  0.92442618507E+02  0.47000000000E+01 0. -1.
         -5    1    4    4    0  502  0.16843540828E+01 -0.27564377864E+02 -0.12833732013E+02  0.30812767696E+02  0.47000000000E+01 0.  1.
<mgrwt>
<rscale>  0 0.98654840E+02</rscale>
<asrwt>0</asrwt>
<pdfrwt beam="1">  1        1 0.38678605E-01 0.98963421E+02</pdfrwt>
<pdfrwt beam="2">  1       -1 0.60002613E-02 0.98963421E+02</pdfrwt>
<totfact> 0.13366275E+04</totfact>
</mgrwt>
</event>
<event>
 8    1  0.3400573E-004  0.9593707E+02  0.7546771E-02  0.1289191E+00
         -2   -1    0    0    0  501 -0.00000000000E+00  0.00000000000E+00  0.63938616337E+03  0.63938616337E+03  0.00000000000E+00 0.  1.
          2   -1    0    0  501    0  0.00000000000E+00 -0.00000000000E+00 -0.16109580422E+02  0.16109580422E+02  0.00000000000E+00 0. -1.
         23    2    1    2    0    0 -0.10597329976E+02 -0.29670966592E+02  0.41978613935E+03  0.43060924678E+03  0.90615953123E+02 0.  0.
         23    2    1    2    0    0  0.10597329976E+02  0.29670966592E+02  0.20349044360E+03  0.22488649701E+03  0.90404127350E+02 0.  0.
          5    1    4    4  502    0  0.27618105159E+01 -0.26138581146E+02  0.21406528140E+02  0.34222543282E+02  0.47000000000E+01 0. -1.
         -5    1    4    4    0  502  0.78355194598E+01  0.55809547738E+02  0.18208391546E+03  0.19066395373E+03  0.47000000000E+01 0.  1.
          5    1    3    3  503    0  0.36151009711E+02 -0.29884698309E+02  0.25189092812E+03  0.25626377107E+03  0.47000000000E+01 0. -1.
         -5    1    3    3    0  503 -0.46748339687E+02  0.21373171744E+00  0.16789521123E+03  0.17434547571E+03  0.47000000000E+01 0.  1.
<mgrwt>
<rscale>  0 0.95887014E+02</rscale>
<asrwt>0</asrwt>
<pdfrwt beam="1">  1        2 0.24783975E-02 0.95937066E+02</pdfrwt>
<pdfrwt beam="2">  1       -2 0.98367082E-01 0.95937066E+02</pdfrwt>
<totfact> 0.33466763E+03</totfact>
</mgrwt>
</event>
<event>
 8    1  0.3400573E-004  0.9356188E+02  0.7546771E-02  0.1294563E+00
         -1   -1    0    0    0  501 -0.00000000000E+00  0.00000000000E+00  0.31768516975E+02  0.31768516975E+02  0.00000000000E+00 0.  1.
          1   -1    0    0  501    0  0.00000000000E+00 -0.00000000000E+00 -0.42435699519E+03  0.42435699519E+03  0.00000000000E+00 0. -1.
         23    2    1    2    0    0  0.89194730190E+01  0.15687923009E+02 -0.33174720135E+03  0.34468831102E+03  0.91805001072E+02 0.  0.
         23    2    1    2    0    0 -0.89194730190E+01 -0.15687923009E+02 -0.60841276856E+02  0.11143720114E+03  0.91601969961E+02 0.  0.
          5    1    3    3  502    0 -0.40918233466E+02  0.13052922973E+02 -0.16561271916E+03  0.17115590371E+03  0.47000000000E+01 0. -1.
         -5    1    4    4    0  503  0.23843810823E+02 -0.13765752104E+02  0.12764530849E+02  0.30709062072E+02  0.47000000000E+01 0.  1.
          5    1    4    4  503    0 -0.32763283842E+02 -0.19221709048E+01 -0.73605807705E+02  0.80728139066E+02  0.47000000000E+01 0. -1.
         -5    1    3    3    0  502  0.49837706485E+02  0.26350000360E+01 -0.16613448219E+03  0.17353240731E+03  0.47000000000E+01 0.  1.
<mgrwt>
<rscale>  0 0.93512042E+02</rscale>
<asrwt>0</asrwt>
<pdfrwt beam="1">  1        1 0.65285692E-01 0.93561884E+02</pdfrwt>
<pdfrwt beam="2">  1       -1 0.48874641E-02 0.93561884E+02</pdfrwt>
<totfact> 0.94409271E+03</totfact>
</mgrwt>
</event>
<event>
 8    1  0.3400573E-004  0.1370280E+03  0.7546771E-02  0.1218973E+00
         -1   -1    0    0    0  501 -0.00000000000E+00  0.00000000000E+00  0.32251740274E+03  0.32251740274E+03  0.00000000000E+00 0.  1.
          1   -1    0    0  501    0  0.00000000000E+00 -0.00000000000E+00 -0.56532061628E+02  0.56532061628E+02  0.00000000000E+00 0. -1.
         23    2    1    2    0    0  0.15590083435E+02  0.10133427363E+03  0.14682696179E+03  0.20083533260E+03  0.90911981597E+02 0.  0.
         23    2    1    2    0    0 -0.15590083435E+02 -0.10133427363E+03  0.11915837932E+03  0.17821413177E+03  0.83963514007E+02 0.  0.
          5    1    4    4  502    0  0.29660503631E+02 -0.63818072241E+02  0.45811197800E+02  0.84102602005E+02  0.47000000000E+01 0. -1.
         -5    1    4    4    0  502 -0.45250587067E+02 -0.37516201392E+02  0.73347181522E+02  0.94111529761E+02  0.47000000000E+01 0.  1.
          5    1    3    3  503    0  0.22452186679E+02 -0.45812483328E+01  0.55018327862E+01  0.24030162025E+02  0.47000000000E+01 0. -1.
         -5    1    3    3    0  503 -0.68621032436E+01  0.10591552197E+03  0.14132512900E+03  0.17680517057E+03  0.47000000000E+01 0.  1.
<mgrwt>
<rscale>  0 0.13588683E+03</rscale>
<asrwt>0</asrwt>
<pdfrwt beam="1">  1        1 0.86972405E-02 0.13702800E+03</pdfrwt>
<pdfrwt beam="2">  1       -1 0.49618061E-01 0.13702800E+03</pdfrwt>
<totfact> 0.31156759E+03</totfact>
</mgrwt>
</event>
<event>
 8    1  0.3400573E-004  0.2854301E+03  0.7546771E-02  0.1092805E+00
         -1   -1    0    0    0  501 -0.00000000000E+00  0.00000000000E+00  0.51678476397E+02  0.51678476397E+02  0.00000000000E+00 0.  1.
          1   -1    0    0  501    0  0.00000000000E+00 -0.00000000000E+00 -0.15885093982E+04  0.15885093982E+04  0.00000000000E+00 0. -1.
         23    2    1    2    0    0  0.27022611740E+03  0.27173899375E+01 -0.69121140590E+03  0.74769544588E+03  0.90806020771E+02 0.  0.
         23    2    1    2    0    0 -0.27022611740E+03 -0.27173899375E+01 -0.84561951590E+03  0.89249242872E+03  0.91873994735E+02 0.  0.
          5    1    4    4  502    0 -0.14171609206E+03  0.13221207675E+02 -0.57610888186E+03  0.59344905834E+03  0.47000000000E+01 0. -1.
         -5    1    4    4    0  502 -0.12851002534E+03 -0.15938597613E+02 -0.26951063404E+03  0.29904337038E+03  0.47000000000E+01 0.  1.
          5    1    3    3  503    0  0.10926161722E+03 -0.40754320490E+02 -0.32392816259E+03  0.34431171946E+03  0.47000000000E+01 0. -1.
         -5    1    3    3    0  503  0.16096450018E+03  0.43471710428E+02 -0.36728324331E+03  0.40338372643E+03  0.47000000000E+01 0.  1.
<mgrwt>
<rscale>  0 0.28534462E+03</rscale>
<asrwt>0</asrwt>
<pdfrwt beam="1">  1        1 0.24438606E+00 0.28543015E+03</pdfrwt>
<pdfrwt beam="2">  1       -1 0.79505347E-02 0.28543015E+03</pdfrwt>
<totfact> 0.54350168E+02</totfact>
</mgrwt>
</event>
<event>
 8    1  0.3400573E-004  0.1063116E+03  0.7546771E-02  0.1269213E+00
          2   -1    0    0  501    0  0.00000000000E+00  0.00000000000E+00  0.37974812785E+03  0.37974812785E+03  0.00000000000E+00 0. -1.
         -2   -1    0    0    0  501 -0.00000000000E+00 -0.00000000000E+00 -0.51304345419E+02  0.51304345419E+02  0.00000000000E+00 0.  1.
         23    2    1    2    0    0  0.12322420427E+02  0.38690749340E+02  0.30538078602E+03  0.32226801559E+03  0.94606729522E+02 0.  0.
         23    2    1    2    0    0 -0.12322420427E+02 -0.38690749340E+02  0.23062996411E+02  0.10878445768E+03  0.98251413730E+02 0.  0.
          5    1    4    4  502    0 -0.25849497833E+02 -0.65419230082E+02 -0.31049561690E+00  0.70498642613E+02  0.47000000000E+01 0.  1.
         -5    1    3    3    0  503 -0.19808384418E+02 -0.20976506707E+02  0.49153778502E+02  0.57188896368E+02  0.47000000000E+01 0.  1.
          5    1    3    3  503    0  0.32130804844E+02  0.59667256047E+02  0.25622700752E+03  0.26507911922E+03  0.47000000000E+01 0. -1.
         -5    1    4    4    0  502  0.13527077406E+02  0.26728480742E+02  0.23373492028E+02  0.38285815069E+02  0.47000000000E+01 0. -1.
<mgrwt>
<rscale>  0 0.10546173E+03</rscale>
<asrwt>0</asrwt>
<pdfrwt beam="1">  1        2 0.58422787E-01 0.10631160E+03</pdfrwt>
<pdfrwt beam="2">  1       -2 0.78929765E-02 0.10631160E+03</pdfrwt>
<totfact> 0.76495530E+03</totfact>
</mgrwt>
</event>
<event>
 8    1  0.3400573E-004  0.2780188E+03  0.7546771E-02  0.1096858E+00
         -2   -1    0    0    0  501 -0.00000000000E+00  0.00000000000E+00  0.15890502159E+03  0.15890502159E+03  0.00000000000E+00 0.  1.
          2   -1    0    0  501    0  0.00000000000E+00 -0.00000000000E+00 -0.12199543894E+04  0.12199543894E+04  0.00000000000E+00 0. -1.
         23    2    1    2    0    0  0.24778361940E+03 -0.85455895310E+02 -0.10652774048E+04  0.11008084632E+04  0.90905948636E+02 0.  0.
         23    2    1    2    0    0 -0.24778361940E+03  0.85455895310E+02  0.42280370004E+01  0.27805094772E+03  0.92709336893E+02 0.  0.
          5    1    3    3  502    0  0.18472648313E+03 -0.78836665737E+02 -0.92837042215E+03  0.94985937073E+03  0.47000000000E+01 0. -1.
         -5    1    3    3    0  502  0.63057136268E+02 -0.66192295725E+01 -0.13690698262E+03  0.15094909250E+03  0.47000000000E+01 0.  1.
          5    1    4    4  503    0 -0.36190058539E+02 -0.17925467242E+02 -0.10668116238E+02  0.42035002284E+02  0.47000000000E+01 0. -1.
         -5    1    4    4    0  503 -0.21159356086E+03  0.10338136255E+03  0.14896153239E+02  0.23601594544E+03  0.47000000000E+01 0.  1.
<mgrwt>
<rscale>  0 0.27786964E+03</rscale>
<asrwt>0</asrwt>
<pdfrwt beam="1">  1        2 0.18768530E+00 0.27801880E+03</pdfrwt>
<pdfrwt beam="2">  1       -2 0.24446926E-01 0.27801880E+03</pdfrwt>
<totfact> 0.28986786E+02</totfact>
</mgrwt>
</event>
<event>
 8    1  0.3400573E-004  0.9459191E+02  0.7546771E-02  0.1292915E+00
          2   -1    0    0  501    0  0.00000000000E+00  0.00000000000E+00  0.89566593883E+03  0.89566593883E+03  0.00000000000E+00 0. -1.
         -2   -1    0    0    0  501 -0.00000000000E+00 -0.00000000000E+00 -0.12496063702E+02  0.12496063702E+02  0.00000000000E+00 0.  1.
         23    2    1    2    0    0  0.91529281257E+01 -0.24887349498E+02  0.65360311084E+03  0.66041248913E+03  0.90799080614E+02 0.  0.
         23    2    1    2    0    0 -0.91529281257E+01  0.24887349498E+02  0.22956676428E+03  0.24774951339E+03  0.89307143423E+02 0.  0.
          5    1    3    3  502    0  0.38618941196E+02 -0.44082953413E+02  0.38088261116E+03  0.38539380234E+03  0.47000000000E+01 0. -1.
         -5    1    3    3    0  502 -0.29466013070E+02  0.19195603914E+02  0.27272049968E+03  0.27501868679E+03  0.47000000000E+01 0.  1.
          5    1    4    4  503    0  0.25597068102E+02 -0.21410076764E+02  0.10571158066E+03  0.11095327651E+03  0.47000000000E+01 0. -1.
         -5    1    4    4    0  503 -0.34749996227E+02  0.46297426262E+02  0.12385518362E+03  0.13679623689E+03  0.47000000000E+01 0.  1.
<mgrwt>
<rscale>  0 0.94232067E+02</rscale>
<asrwt>0</asrwt>
<pdfrwt beam="1">  1        2 0.13779471E+00 0.94591909E+02</pdfrwt>
<pdfrwt beam="2">  1       -2 0.19224720E-02 0.94591909E+02</pdfrwt>
<totfact> 0.23049786E+04</totfact>
</mgrwt>
</event>
<event>
 8    1  0.3400573E-004  0.9283537E+02  0.7546771E-02  0.1296392E+00
          2   -1    0    0  501    0  0.00000000000E+00  0.00000000000E+00  0.53158696585E+03  0.53158696585E+03  0.00000000000E+00 0. -1.
         -2   -1    0    0    0  501 -0.00000000000E+00 -0.00000000000E+00 -0.19848137460E+02  0.19848137460E+02  0.00000000000E+00 0.  1.
         23    2    1    2    0    0 -0.14426739831E+02  0.64543529781E+01  0.13709924196E+03  0.16557357309E+03  0.91480142458E+02 0.  0.
         23    2    1    2    0    0  0.14426739831E+02 -0.64543529781E+01  0.37463958643E+03  0.38586153022E+03  0.91019290759E+02 0.  0.
          5    1    3    3  502    0 -0.35866163150E+02 -0.12700985150E+02  0.13007459010E+03  0.13560673166E+03  0.47000000000E+01 0. -1.
         -5    1    3    3    0  502  0.21439423319E+02  0.19155338128E+02  0.70246518589E+01  0.29966841422E+02  0.47000000000E+01 0.  1.
          5    1    4    4  503    0  0.23086551808E+02  0.33807758303E+02  0.10072025834E+03  0.10882377422E+03  0.47000000000E+01 0. -1.
         -5    1    4    4    0  503 -0.86598119763E+01 -0.40262111281E+02  0.27391932809E+03  0.27703775600E+03  0.47000000000E+01 0.  1.
<mgrwt>
<rscale>  0 0.92721639E+02</rscale>
<asrwt>0</asrwt>
<pdfrwt beam="1">  1        2 0.81782599E-01 0.92835370E+02</pdfrwt>
<pdfrwt beam="2">  1       -2 0.30535600E-02 0.92835370E+02</pdfrwt>
<totfact> 0.21715263E+04</totfact>
</mgrwt>
</event>
<event>
 8    1  0.3400573E-004  0.1020656E+03  0.7546771E-02  0.1278250E+00
          1   -1    0    0  501    0  0.00000000000E+00  0.00000000000E+00  0.67403444736E+03  0.67403444736E+03  0.00000000000E+00 0. -1.
         -1   -1    0    0    0  501 -0.00000000000E+00 -0.00000000000E+00 -0.29856323215E+02  0.29856323215E+02  0.00000000000E+00 0.  1.
         23    2    1    2    0    0 -0.23384350857E+02  0.30254475613E+02  0.68889388759E+02  0.11961812834E+03  0.90003264295E+02 0.  0.
         23    2    1    2    0    0  0.23384350857E+02 -0.30254475613E+02  0.57528873539E+03  0.58427264224E+03  0.94632078319E+02 0.  0.
          5    1    3    3  502    0 -0.27950123878E+02  0.54537825920E+01  0.84701858956E+02  0.89484345446E+02  0.47000000000E+01 0. -1.
         -5    1    3    3    0  502  0.45657730210E+01  0.24800693021E+02 -0.15812470197E+02  0.30133782891E+02  0.47000000000E+01 0.  1.
          5    1    4    4  503    0  0.12682836532E+02 -0.60657567110E+02  0.26083867622E+03  0.26814007497E+03  0.47000000000E+01 0. -1.
         -5    1    4    4    0  503  0.10701514325E+02  0.30403091497E+02  0.31445005916E+03  0.31613256727E+03  0.47000000000E+01 0.  1.
<mgrwt>
<rscale>  0 0.10097932E+03</rscale>
<asrwt>0</asrwt>
<pdfrwt beam="1">  1        1 0.10369760E+00 0.10206562E+03</pdfrwt>
<pdfrwt beam="2">  1       -1 0.45932810E-02 0.10206562E+03</pdfrwt>
<totfact> 0.56679337E+03</totfact>
</mgrwt>
</event>
<event>
 8    1  0.3400573E-004  0.1066412E+03  0.7546771E-02  0.1267716E+00
          1   -1    0    0  501    0  0.00000000000E+00  0.00000000000E+00  0.30399532009E+03  0.30399532009E+03  0.00000000000E+00 0. -1.
         -1   -1    0    0    0  501 -0.00000000000E+00 -0.00000000000E+00 -0.38168749544E+02  0.38168749544E+02  0.00000000000E+00 0.  1.
         23    2    1    2    0    0 -0.25704715009E+02  0.48120482281E+02  0.10195270532E+03  0.14753543431E+03  0.91629891762E+02 0.  0.
         23    2    1    2    0    0  0.25704715009E+02 -0.48120482281E+02  0.16387386522E+03  0.19462863533E+03  0.89718163147E+02 0.  0.
          5    1    4    4  502    0 -0.10406635384E+02  0.19847113399E+02  0.16243292675E+02  0.28073840621E+02  0.47000000000E+01 0. -1.
         -5    1    4    4    0  502  0.36111350393E+02 -0.67967595679E+02  0.14763057254E+03  0.16655479470E+03  0.47000000000E+01 0.  1.
          5    1    3    3  503    0  0.19625965328E+02  0.41644636317E+02  0.14139400388E+02  0.48388706248E+02  0.47000000000E+01 0. -1.
         -5    1    3    3    0  503 -0.45330680337E+02  0.64758459636E+01  0.87813304936E+02  0.99146728057E+02  0.47000000000E+01 0.  1.
<mgrwt>
<rscale>  0 0.10622932E+03</rscale>
<asrwt>0</asrwt>
<pdfrwt beam="1">  1        1 0.46768509E-01 0.10664122E+03</pdfrwt>
<pdfrwt beam="2">  1       -1 0.58721155E-02 0.10664122E+03</pdfrwt>
<totfact> 0.11009066E+04</totfact>
</mgrwt>
</event>
<event>
 8    1  0.3400573E-004  0.9376363E+02  0.7546771E-02  0.1294814E+00
          2   -1    0    0  501    0  0.00000000000E+00  0.00000000000E+00  0.30926284284E+02  0.30926284284E+02  0.00000000000E+00 0. -1.
         -2   -1    0    0    0  501 -0.00000000000E+00 -0.00000000000E+00 -0.28756574373E+03  0.28756574373E+03  0.00000000000E+00 0.  1.
         23    2    1    2    0    0 -0.15113260225E+02 -0.16515675360E+02 -0.15328206931E+03  0.17894143256E+03  0.89573798335E+02 0.  0.
         23    2    1    2    0    0  0.15113260225E+02  0.16515675360E+02 -0.10335739014E+03  0.13955059545E+03  0.91051855711E+02 0.  0.
          5    1    3    3  502    0  0.11639051053E+02 -0.40505560021E+02 -0.34234067625E+02  0.54499809984E+02  0.47000000000E+01 0. -1.
         -5    1    3    3    0  502 -0.26752311278E+02  0.23989884661E+02 -0.11904800169E+03  0.12444162258E+03  0.47000000000E+01 0.  1.
          5    1    4    4  503    0  0.40588122148E+02  0.32479614037E+02 -0.30166076790E+02  0.60286011449E+02  0.47000000000E+01 0. -1.
         -5    1    4    4    0  503 -0.25474861923E+02 -0.15963938677E+02 -0.73191313347E+02  0.79264584005E+02  0.47000000000E+01 0.  1.
<mgrwt>
<rscale>  0 0.93402896E+02</rscale>
<asrwt>0</asrwt>
<pdfrwt beam="1">  1        2 0.47578900E-02 0.93763632E+02</pdfrwt>
<pdfrwt beam="2">  1       -2 0.44240883E-01 0.93763632E+02</pdfrwt>
<totfact> 0.74810632E+03</totfact>
</mgrwt>
</event>
<event>
 6    1  0.3400573E-004  0.5374504E+03  0.7546771E-02  0.1004586E+00
         -2   -1    0    0    0  501 -0.00000000000E+00  0.00000000000E+00  0.17428799519E+03  0.17428799519E+03  0.00000000000E+00 0.  1.
          2   -1    0    0  501    0  0.00000000000E+00 -0.00000000000E+00 -0.17326293166E+04  0.17326293166E+04  0.00000000000E+00 0. -1.
          5    1    1    2  502    0  0.13947139260E+03  0.76401411927E+02 -0.45056056910E+03  0.47782461378E+03  0.47000000000E+01 0. -1.
         -5    1    1    2    0  502  0.27874090035E+03  0.22801456556E+03 -0.53866893672E+03  0.64797642320E+03  0.47000000000E+01 0.  1.
          5    1    1    2  503    0 -0.43070806336E+02  0.80387651958E+01 -0.27598742113E+02  0.51995160068E+02  0.47000000000E+01 0. -1.
         -5    1    1    2    0  503 -0.37514148661E+03 -0.31245474269E+03 -0.54151307343E+03  0.72912111470E+03  0.47000000000E+01 0.  1.
<mgrwt>
<rscale>  0 0.53684366E+03</rscale>
<asrwt>0</asrwt>
<pdfrwt beam="1">  1        2 0.26655837E+00 0.53745043E+03</pdfrwt>
<pdfrwt beam="2">  1       -2 0.26813537E-01 0.53745043E+03</pdfrwt>
<totfact> 0.12396033E+02</totfact>
</mgrwt>
</event>
<event>
 8    1  0.3400573E-004  0.9870039E+02  0.7546771E-02  0.1283718E+00
          3   -1    0    0  501    0  0.00000000000E+00  0.00000000000E+00  0.59218711831E+02  0.59218711831E+02  0.00000000000E+00 0. -1.
         -3   -1    0    0    0  501 -0.00000000000E+00 -0.00000000000E+00 -0.16250169571E+03  0.16250169571E+03  0.00000000000E+00 0.  1.
         23    2    1    2    0    0  0.35795836657E+02 -0.73276756802E+01 -0.49373035076E+02  0.10925685863E+03  0.90356669994E+02 0.  0.
         23    2    1    2    0    0 -0.35795836657E+02  0.73276756802E+01 -0.53909948799E+02  0.11246354891E+03  0.91688224437E+02 0.  0.
          5    1    4    4  502    0 -0.52191418838E+02 -0.22036264429E+02 -0.54142079071E+02  0.78504750662E+02  0.47000000000E+01 0. -1.
         -5    1    3    3    0  503  0.39370549122E+02  0.24466202134E+02 -0.59315056717E+02  0.75425467439E+02  0.47000000000E+01 0.  1.
          5    1    3    3  503    0 -0.35747124649E+01 -0.31793877814E+02  0.99420216412E+01  0.33831391192E+02  0.47000000000E+01 0. -1.
         -5    1    4    4    0  502  0.16395582181E+02  0.29363940110E+02  0.23213027244E+00  0.33958798245E+02  0.47000000000E+01 0.  1.
<mgrwt>
<rscale>  0 0.98390003E+02</rscale>
<asrwt>0</asrwt>
<pdfrwt beam="1">  1        3 0.91105711E-02 0.98700391E+02</pdfrwt>
<pdfrwt beam="2">  1       -3 0.25000261E-01 0.98700391E+02</pdfrwt>
<totfact> 0.27802509E+03</totfact>
</mgrwt>
</event>
<event>
 8    1  0.3400573E-004  0.1081527E+03  0.7546771E-02  0.1264657E+00
         -1   -1    0    0    0  501 -0.00000000000E+00  0.00000000000E+00  0.22576220980E+03  0.22576220980E+03  0.00000000000E+00 0.  1.
          1   -1    0    0  501    0  0.00000000000E+00 -0.00000000000E+00 -0.53647959069E+02  0.53647959069E+02  0.00000000000E+00 0. -1.
         23    2    1    2    0    0  0.24653039592E+02 -0.51467276467E+02  0.11550407659E+03  0.15733753742E+03  0.90317529120E+02 0.  0.
         23    2    1    2    0    0 -0.24653039592E+02  0.51467276467E+02  0.56610174141E+02  0.12207263144E+03  0.91871446178E+02 0.  0.
          5    1    4    4  502    0  0.15177140742E+02 -0.14465430401E+02 -0.64260247075E+01  0.22427172611E+02  0.47000000000E+01 0. -1.
         -5    1    3    3    0  503 -0.19201185470E+02 -0.13001357890E+02 -0.42589025029E+01  0.24040571561E+02  0.47000000000E+01 0.  1.
          5    1    3    3  503    0  0.43854225062E+02 -0.38465918577E+02  0.11976297909E+03  0.13329696586E+03  0.47000000000E+01 0. -1.
         -5    1    4    4    0  502 -0.39830180334E+02  0.65932706868E+02  0.63036198848E+02  0.99645458831E+02  0.47000000000E+01 0.  1.
<mgrwt>
<rscale>  0 0.10782202E+03</rscale>
<asrwt>0</asrwt>
<pdfrwt beam="1">  1        1 0.82535323E-02 0.10815274E+03</pdfrwt>
<pdfrwt beam="2">  1       -1 0.34732647E-01 0.10815274E+03</pdfrwt>
<totfact> 0.61626290E+03</totfact>
</mgrwt>
</event>
<event>
 8    1  0.3400573E-004  0.9685036E+02  0.7546771E-02  0.1287441E+00
          2   -1    0    0  501    0  0.00000000000E+00  0.00000000000E+00  0.79207340636E+03  0.79207340636E+03  0.00000000000E+00 0. -1.
         -2   -1    0    0    0  501 -0.00000000000E+00 -0.00000000000E+00 -0.16814684975E+02  0.16814684975E+02  0.00000000000E+00 0.  1.
         23    2    1    2    0    0  0.18060138428E+02 -0.18646652512E+02  0.60844568474E+03  0.61599801737E+03  0.92593411669E+02 0.  0.
         23    2    1    2    0    0 -0.18060138428E+02  0.18646652512E+02  0.16681303665E+03  0.19289007396E+03  0.93306619200E+02 0.  0.
          5    1    4    4  502    0 -0.56027626012E+02  0.67349873644E+01  0.92265377002E+02  0.10825638422E+03  0.47000000000E+01 0. -1.
         -5    1    4    4    0  502  0.37967487584E+02  0.11911665148E+02  0.74547659651E+02  0.84633689743E+02  0.47000000000E+01 0.  1.
          5    1    3    3  503    0 -0.10822223771E+02 -0.46686492986E+02  0.44520227380E+03  0.44779895461E+03  0.47000000000E+01 0. -1.
         -5    1    3    3    0  503  0.28882362199E+02  0.28039840474E+02  0.16324341094E+03  0.16819906276E+03  0.47000000000E+01 0.  1.
<mgrwt>
<rscale>  0 0.96678167E+02</rscale>
<asrwt>0</asrwt>
<pdfrwt beam="1">  1        2 0.12185742E+00 0.96850356E+02</pdfrwt>
<pdfrwt beam="2">  1       -2 0.25868752E-02 0.96850356E+02</pdfrwt>
<totfact> 0.17551241E+04</totfact>
</mgrwt>
</event>
<event>
 8    1  0.3400573E-004  0.1003418E+03  0.7546771E-02  0.1279890E+00
         -1   -1    0    0    0  501 -0.00000000000E+00  0.00000000000E+00  0.23744871514E+03  0.23744871514E+03  0.00000000000E+00 0.  1.
          1   -1    0    0  501    0  0.00000000000E+00 -0.00000000000E+00 -0.51057622436E+02  0.51057622436E+02  0.00000000000E+00 0. -1.
         23    2    1    2    0    0  0.28334763847E+02  0.26633141146E+02  0.15366872255E+03  0.18352809692E+03  0.92500286591E+02 0.  0.
         23    2    1    2    0    0 -0.28334763847E+02 -0.26633141146E+02  0.32722370154E+02  0.10497824066E+03  0.91855835161E+02 0.  0.
          5    1    3    3  502    0 -0.21533562372E+01 -0.24555633556E+02  0.84278997324E+01  0.26471410547E+02  0.47000000000E+01 0. -1.
         -5    1    3    3    0  502  0.30488120085E+02  0.51188774703E+02  0.14524082282E+03  0.15705668637E+03  0.47000000000E+01 0.  1.
          5    1    4    4  503    0  0.21428318202E+02 -0.39621677544E+02  0.29936083991E+01  0.45388344799E+02  0.47000000000E+01 0. -1.
         -5    1    4    4    0  503 -0.49763082049E+02  0.12988536398E+02  0.29728761755E+02  0.59589895857E+02  0.47000000000E+01 0.  1.
<mgrwt>
<rscale>  0 0.10019307E+03</rscale>
<asrwt>0</asrwt>
<pdfrwt beam="1">  1        1 0.78550189E-02 0.10034185E+03</pdfrwt>
<pdfrwt beam="2">  1       -1 0.36530571E-01 0.10034185E+03</pdfrwt>
<totfact> 0.60019481E+03</totfact>
</mgrwt>
</event>
<event>
 8    1  0.3400573E-004  0.9151897E+02  0.7546771E-02  0.1299729E+00
         -2   -1    0    0    0  501 -0.00000000000E+00  0.00000000000E+00  0.11051736355E+03  0.11051736355E+03  0.00000000000E+00 0.  1.
          2   -1    0    0  501    0  0.00000000000E+00 -0.00000000000E+00 -0.50555183683E+03  0.50555183683E+03  0.00000000000E+00 0. -1.
         23    2    1    2    0    0  0.14120486647E+01 -0.13287827940E+02  0.86866493070E+02  0.12555491617E+03  0.89664313428E+02 0.  0.
         23    2    1    2    0    0 -0.14120486647E+01  0.13287827940E+02 -0.48190096635E+03  0.49051428422E+03  0.90538176487E+02 0.  0.
          5    1    4    4  502    0  0.38825820966E+02  0.28286996618E+02 -0.26262987807E+03  0.26702835319E+03  0.47000000000E+01 0.  1.
         -5    1    3    3    0  503  0.24041841403E+02  0.24098793197E+02  0.70903666032E+02  0.78792016273E+02  0.47000000000E+01 0.  1.
          5    1    3    3  503    0 -0.22629792738E+02 -0.37386621137E+02  0.15962827039E+02  0.46762899894E+02  0.47000000000E+01 0. -1.
         -5    1    4    4    0  502 -0.40237869630E+02 -0.14999168678E+02 -0.21927108827E+03  0.22348593103E+03  0.47000000000E+01 0. -1.
<mgrwt>
<rscale>  0 0.91302097E+02</rscale>
<asrwt>0</asrwt>
<pdfrwt beam="1">  1        2 0.77777207E-01 0.91518969E+02</pdfrwt>
<pdfrwt beam="2">  1       -2 0.17002671E-01 0.91518969E+02</pdfrwt>
<totfact> 0.16616894E+03</totfact>
</mgrwt>
</event>
<event>
 8    1  0.3400573E-004  0.2218928E+03  0.7546771E-02  0.1132798E+00
          1   -1    0    0  501    0  0.00000000000E+00  0.00000000000E+00  0.23033828504E+04  0.23033828504E+04  0.00000000000E+00 0. -1.
         -1   -1    0    0    0  501 -0.00000000000E+00 -0.00000000000E+00 -0.22965406488E+02  0.22965406488E+02  0.00000000000E+00 0.  1.
         23    2    1    2    0    0  0.87147421074E+02 -0.18160034672E+03  0.82276374509E+03  0.85215996626E+03  0.93075608649E+02 0.  0.
         23    2    1    2    0    0 -0.87147421074E+02  0.18160034672E+03  0.14576536989E+04  0.14741882907E+04  0.88901358929E+02 0.  0.
          5    1    3    3  502    0  0.32969880026E+02 -0.38450337709E+02  0.38584228139E+03  0.38918093166E+03  0.47000000000E+01 0. -1.
         -5    1    3    3    0  502  0.54177541048E+02 -0.14315000901E+03  0.43692146370E+03  0.46297903459E+03  0.47000000000E+01 0.  1.
          5    1    4    4  503    0 -0.67241113195E+02  0.18547338462E+03  0.13672850366E+04  0.13814529327E+04  0.47000000000E+01 0. -1.
         -5    1    4    4    0  503 -0.19906307879E+02 -0.38730378947E+01  0.90368662230E+02  0.92735358031E+02  0.47000000000E+01 0.  1.
<mgrwt>
<rscale>  0 0.22146199E+03</rscale>
<asrwt>0</asrwt>
<pdfrwt beam="1">  1        1 0.35436641E+00 0.22189283E+03</pdfrwt>
<pdfrwt beam="2">  1       -1 0.35331413E-02 0.22189283E+03</pdfrwt>
<totfact> 0.63729110E+02</totfact>
</mgrwt>
</event>
<event>
 8    1  0.3400573E-004  0.1127916E+03  0.7546771E-02  0.1256249E+00
          1   -1    0    0  501    0  0.00000000000E+00  0.00000000000E+00  0.22615585405E+02  0.22615585405E+02  0.00000000000E+00 0. -1.
         -1   -1    0    0    0  501 -0.00000000000E+00 -0.00000000000E+00 -0.56663258368E+03  0.56663258368E+03  0.00000000000E+00 0.  1.
         23    2    1    2    0    0 -0.20169799319E+01 -0.64461080448E+02 -0.31777719616E+03  0.33720067762E+03  0.92534596184E+02 0.  0.
         23    2    1    2    0    0  0.20169799319E+01  0.64461080448E+02 -0.22623980211E+03  0.25204749146E+03  0.90466517503E+02 0.  0.
          5    1    4    4  502    0 -0.23056069280E+02 -0.68522324995E+01 -0.11426437793E+03  0.11686305441E+03  0.47000000000E+01 0. -1.
         -5    1    4    4    0  502  0.25073049212E+02  0.71313312948E+02 -0.11197542418E+03  0.13518443705E+03  0.47000000000E+01 0.  1.
          5    1    3    3  503    0 -0.24335049658E+02  0.51602408286E+01 -0.25698099589E+02  0.36073605999E+02  0.47000000000E+01 0. -1.
         -5    1    3    3    0  503  0.22318069726E+02 -0.69621321277E+02 -0.29207909657E+03  0.30112707162E+03  0.47000000000E+01 0.  1.
<mgrwt>
<rscale>  0 0.11236664E+03</rscale>
<asrwt>0</asrwt>
<pdfrwt beam="1">  1        1 0.34793206E-02 0.11279162E+03</pdfrwt>
<pdfrwt beam="2">  1       -1 0.87174249E-01 0.11279162E+03</pdfrwt>
<totfact> 0.35707615E+03</totfact>
</mgrwt>
</event>
<event>
 8    1  0.3400573E-004  0.1022576E+03  0.7546771E-02  0.1276310E+00
         -2   -1    0    0    0  501 -0.00000000000E+00  0.00000000000E+00  0.14711787073E+03  0.14711787073E+03  0.00000000000E+00 0.  1.
          2   -1    0    0  501    0  0.00000000000E+00 -0.00000000000E+00 -0.79552754724E+02  0.79552754724E+02  0.00000000000E+00 0. -1.
         23    2    1    2    0    0  0.34312951991E+02  0.32184876745E+02  0.72559030001E+02  0.12429111487E+03  0.89276107861E+02 0.  0.
         23    2    1    2    0    0 -0.34312951991E+02 -0.32184876745E+02 -0.49939139955E+01  0.10237951059E+03  0.90793061659E+02 0.  0.
          5    1    4    4  502    0 -0.25094845045E+02 -0.52032986906E+02 -0.32868443090E+02  0.66630379898E+02  0.47000000000E+01 0. -1.
         -5    1    4    4    0  502 -0.92181069462E+01  0.19848110161E+02  0.27874529095E+02  0.35749130687E+02  0.47000000000E+01 0.  1.
          5    1    3    3  503    0 -0.23136179138E+02  0.29651819902E+02  0.10024054072E+02  0.39205673934E+02  0.47000000000E+01 0. -1.
         -5    1    3    3    0  503  0.57449131129E+02  0.25330568433E+01  0.62534975929E+02  0.85085440934E+02  0.47000000000E+01 0.  1.
<mgrwt>
<rscale>  0 0.10191985E+03</rscale>
<asrwt>0</asrwt>
<pdfrwt beam="1">  1        2 0.12238885E-01 0.10225764E+03</pdfrwt>
<pdfrwt beam="2">  1       -2 0.22633519E-01 0.10225764E+03</pdfrwt>
<totfact> 0.77870101E+03</totfact>
</mgrwt>
</event>
<event>
 8    1  0.3400573E-004  0.1003174E+03  0.7546771E-02  0.1279687E+00
          2   -1    0    0  501    0  0.00000000000E+00  0.00000000000E+00  0.67123352500E+03  0.67123352500E+03  0.00000000000E+00 0. -1.
         -2   -1    0    0    0  501 -0.00000000000E+00 -0.00000000000E+00 -0.15998561679E+02  0.15998561679E+02  0.00000000000E+00 0.  1.
         23    2    1    2    0    0 -0.40117587262E+02  0.89951747233E+00  0.41430167546E+03  0.42624849840E+03  0.91824148040E+02 0.  0.
         23    2    1    2    0    0  0.40117587262E+02 -0.89951747233E+00  0.24093328787E+03  0.26098358828E+03  0.91942124241E+02 0.  0.
          5    1    3    3  502    0  0.14878852121E+01  0.35382651941E+02  0.80533865764E+02  0.88101869422E+02  0.47000000000E+01 0. -1.
         -5    1    4    4    0  503 -0.10807449932E+02  0.34434711480E+02  0.11359658185E+03  0.11928463328E+03  0.47000000000E+01 0.  1.
          5    1    4    4  503    0  0.50925037194E+02 -0.35334228953E+02  0.12733670601E+03  0.14169895500E+03  0.47000000000E+01 0. -1.
         -5    1    3    3    0  502 -0.41605472474E+02 -0.34483134469E+02  0.33376780969E+03  0.33814662898E+03  0.47000000000E+01 0.  1.
<mgrwt>
<rscale>  0 0.10029038E+03</rscale>
<asrwt>0</asrwt>
<pdfrwt beam="1">  1        2 0.10326667E+00 0.10031742E+03</pdfrwt>
<pdfrwt beam="2">  1       -2 0.24613177E-02 0.10031742E+03</pdfrwt>
<totfact> 0.23032188E+04</totfact>
</mgrwt>
</event>
<event>
 8    1  0.3400573E-004  0.9588713E+02  0.7546771E-02  0.1289248E+00
         -2   -1    0    0    0  501 -0.00000000000E+00  0.00000000000E+00  0.34190661332E+03  0.34190661332E+03  0.00000000000E+00 0.  1.
          2   -1    0    0  501    0  0.00000000000E+00 -0.00000000000E+00 -0.92289729068E+02  0.92289729068E+02  0.00000000000E+00 0. -1.
         23    2    1    2    0    0  0.23707442137E+02 -0.14183611964E+02  0.30758175542E+03  0.32215051654E+03  0.91712602081E+02 0.  0.
         23    2    1    2    0    0 -0.23707442137E+02  0.14183611964E+02 -0.57964871163E+02  0.11204582585E+03  0.91821147567E+02 0.  0.
          5    1    4    4  502    0  0.25385585372E+02 -0.23275270589E+01  0.88362306145E+01  0.27386388925E+02  0.47000000000E+01 0. -1.
         -5    1    4    4    0  502 -0.49093027509E+02  0.16511139023E+02 -0.66801101777E+02  0.84659436925E+02  0.47000000000E+01 0.  1.
          5    1    3    3  503    0  0.54067094858E+02 -0.28562029028E+02  0.18125387680E+03  0.19134810713E+03  0.47000000000E+01 0. -1.
         -5    1    3    3    0  503 -0.30359652721E+02  0.14378417064E+02  0.12632787862E+03  0.13080240941E+03  0.47000000000E+01 0.  1.
<mgrwt>
<rscale>  0 0.95861130E+02</rscale>
<asrwt>0</asrwt>
<pdfrwt beam="1">  1        2 0.14198420E-01 0.95887125E+02</pdfrwt>
<pdfrwt beam="2">  1       -2 0.52601017E-01 0.95887125E+02</pdfrwt>
<totfact> 0.13847678E+03</totfact>
</mgrwt>
</event>
<event>
 8    1  0.3400573E-004  0.1436403E+03  0.7546771E-02  0.1210584E+00
          2   -1    0    0  501    0  0.00000000000E+00  0.00000000000E+00  0.36697104567E+03  0.36697104567E+03  0.00000000000E+00 0. -1.
         -2   -1    0    0    0  501 -0.00000000000E+00 -0.00000000000E+00 -0.33781649559E+03  0.33781649559E+03  0.00000000000E+00 0.  1.
         23    2    1    2    0    0  0.90763700227E+02 -0.49468238221E+02 -0.30846626421E+03  0.34027043053E+03  0.99736522227E+02 0.  0.
         23    2    1    2    0    0 -0.90763700227E+02  0.49468238221E+02  0.33762081429E+03  0.36451711073E+03  0.90552492509E+02 0.  0.
          5    1    4    4  502    0 -0.83806763170E+02  0.30320313116E+02  0.33064267600E+03  0.34247564020E+03  0.47000000000E+01 0. -1.
         -5    1    3    3    0  503  0.53623823976E+02 -0.72502613411E+02 -0.14349320484E+03  0.16954212835E+03  0.47000000000E+01 0.  1.
          5    1    3    3  503    0  0.37139876250E+02  0.23034375190E+02 -0.16497305937E+03  0.17072830218E+03  0.47000000000E+01 0. -1.
         -5    1    4    4    0  502 -0.69569370568E+01  0.19147925105E+02  0.69781382971E+01  0.22041470530E+02  0.47000000000E+01 0.  1.
<mgrwt>
<rscale>  0 0.14205991E+03</rscale>
<asrwt>0</asrwt>
<pdfrwt beam="1">  1        2 0.56457084E-01 0.14364028E+03</pdfrwt>
<pdfrwt beam="2">  1       -2 0.51971769E-01 0.14364028E+03</pdfrwt>
<totfact> 0.31564482E+02</totfact>
</mgrwt>
</event>
<event>
 8    1  0.3400573E-004  0.9878900E+02  0.7546771E-02  0.1284036E+00
         -1   -1    0    0    0  501 -0.00000000000E+00  0.00000000000E+00  0.17764198269E+02  0.17764198269E+02  0.00000000000E+00 0.  1.
          1   -1    0    0  501    0  0.00000000000E+00 -0.00000000000E+00 -0.82075717351E+03  0.82075717351E+03  0.00000000000E+00 0. -1.
         23    2    1    2    0    0 -0.36926098207E+02 -0.27838474462E+01 -0.15223643937E+03  0.18030914479E+03  0.89242185591E+02 0.  0.
         23    2    1    2    0    0  0.36926098207E+02  0.27838474462E+01 -0.65075653587E+03  0.65821222699E+03  0.91585917242E+02 0.  0.
          5    1    4    4  502    0  0.62194747029E+02 -0.97425554912E+01 -0.54552701561E+03  0.54916747783E+03  0.47000000000E+01 0. -1.
         -5    1    3    3    0  503 -0.17482756684E+02  0.14205127383E+02  0.26968227339E+01  0.23168842830E+02  0.47000000000E+01 0.  1.
          5    1    3    3  503    0 -0.19443341524E+02 -0.16988974829E+02 -0.15493326210E+03  0.15714030196E+03  0.47000000000E+01 0. -1.
         -5    1    4    4    0  502 -0.25268648821E+02  0.12526402937E+02 -0.10522952027E+03  0.10904474916E+03  0.47000000000E+01 0.  1.
<mgrwt>
<rscale>  0 0.98242268E+02</rscale>
<asrwt>0</asrwt>
<pdfrwt beam="1">  1        1 0.12627033E+00 0.98789001E+02</pdfrwt>
<pdfrwt beam="2">  1       -1 0.27329536E-02 0.98789001E+02</pdfrwt>
<totfact> 0.90388279E+03</totfact>
</mgrwt>
</event>
<event>
 8    1  0.3400573E-004  0.1170417E+03  0.7546771E-02  0.1248406E+00
          2   -1    0    0  501    0  0.00000000000E+00  0.00000000000E+00  0.40854245754E+03  0.40854245754E+03  0.00000000000E+00 0. -1.
         -2   -1    0    0    0  501 -0.00000000000E+00 -0.00000000000E+00 -0.33362812469E+02  0.33362812469E+02  0.00000000000E+00 0.  1.
         23    2    1    2    0    0 -0.44257127883E+02  0.59245869052E+02  0.17722926413E+03  0.21194199122E+03  0.89668440432E+02 0.  0.
         23    2    1    2    0    0  0.44257127883E+02 -0.59245869052E+02  0.19795038094E+03  0.22996327879E+03  0.90719291825E+02 0.  0.
          5    1    3    3  502    0 -0.18708440814E+02  0.27957163967E+02  0.16643666872E+03  0.16986719363E+03  0.47000000000E+01 0. -1.
         -5    1    3    3    0  502 -0.25548687069E+02  0.31288705085E+02  0.10792595407E+02  0.42074797592E+02  0.47000000000E+01 0.  1.
          5    1    4    4  503    0  0.67545643345E+02 -0.19170424269E+02  0.11484065347E+03  0.13468624574E+03  0.47000000000E+01 0. -1.
         -5    1    4    4    0  503 -0.23288515462E+02 -0.40075444782E+02  0.83109727467E+02  0.95277033049E+02  0.47000000000E+01 0.  1.
<mgrwt>
<rscale>  0 0.11683800E+03</rscale>
<asrwt>0</asrwt>
<pdfrwt beam="1">  1        2 0.62852682E-01 0.11704169E+03</pdfrwt>
<pdfrwt beam="2">  1       -2 0.51327407E-02 0.11704169E+03</pdfrwt>
<totfact> 0.13685319E+04</totfact>
</mgrwt>
</event>
<event>
 8    1  0.3400573E-004  0.9174840E+02  0.7546771E-02  0.1299110E+00
          1   -1    0    0  501    0  0.00000000000E+00  0.00000000000E+00  0.36655653688E+03  0.36655653688E+03  0.00000000000E+00 0. -1.
         -1   -1    0    0    0  501 -0.00000000000E+00 -0.00000000000E+00 -0.22797638026E+02  0.22797638026E+02  0.00000000000E+00 0.  1.
         23    2    1    2    0    0 -0.29478341573E+01  0.14365670424E+02  0.17802658461E+03  0.20027789194E+03  0.90568796827E+02 0.  0.
         23    2    1    2    0    0  0.29478341573E+01 -0.14365670424E+02  0.16573231425E+03  0.18907628297E+03  0.89819700418E+02 0.  0.
          5    1    4    4  502    0  0.45010115646E+02 -0.11379472869E+02  0.10591677439E+03  0.11574046833E+03  0.47000000000E+01 0. -1.
         -5    1    3    3    0  503  0.17735561811E+02  0.36483608057E+02  0.34330556361E+02  0.53350547417E+02  0.47000000000E+01 0.  1.
          5    1    3    3  503    0 -0.20683395968E+02 -0.22117937633E+02  0.14369602825E+03  0.14692734452E+03  0.47000000000E+01 0. -1.
         -5    1    4    4    0  502 -0.42062281489E+02 -0.29861975551E+01  0.59815539860E+02  0.73335814638E+02  0.47000000000E+01 0.  1.
<mgrwt>
<rscale>  0 0.91562994E+02</rscale>
<asrwt>0</asrwt>
<pdfrwt beam="1">  1        1 0.56393309E-01 0.91748401E+02</pdfrwt>
<pdfrwt beam="2">  1       -1 0.35073292E-02 0.91748401E+02</pdfrwt>
<totfact> 0.18318849E+04</totfact>
</mgrwt>
</event>
<event>
 8    1  0.3400573E-004  0.9522946E+02  0.7546771E-02  0.1295429E+00
         -2   -1    0    0    0  501 -0.00000000000E+00  0.00000000000E+00  0.11190608694E+02  0.11190608694E+02  0.00000000000E+00 0.  1.
          2   -1    0    0  501    0  0.00000000000E+00 -0.00000000000E+00 -0.93519074670E+03  0.93519074670E+03  0.00000000000E+00 0. -1.
         23    2    1    2    0    0 -0.52730910557E+01 -0.23936088430E+02 -0.66008864179E+03  0.66581420165E+03  0.83610969904E+02 0.  0.
         23    2    1    2    0    0  0.52730910557E+01  0.23936088430E+02 -0.26391149622E+03  0.28056715374E+03  0.92021237241E+02 0.  0.
          5    1    3    3  502    0  0.67709591347E+01  0.30050227593E+02 -0.27095773675E+03  0.27274355569E+03  0.47000000000E+01 0. -1.
         -5    1    3    3    0  502 -0.12044050190E+02 -0.53986316023E+02 -0.38913090504E+03  0.39307064597E+03  0.47000000000E+01 0.  1.
          5    1    4    4  503    0  0.15804052339E+02  0.51178655806E+02 -0.22690961796E+03  0.23319324090E+03  0.47000000000E+01 0. -1.
         -5    1    4    4    0  503 -0.10530961283E+02 -0.27242567376E+02 -0.37001878255E+02  0.47373912834E+02  0.47000000000E+01 0.  1.
<mgrwt>
<rscale>  0 0.93136454E+02</rscale>
<asrwt>0</asrwt>
<pdfrwt beam="1">  1        2 0.14387550E+00 0.95229459E+02</pdfrwt>
<pdfrwt beam="2">  1       -2 0.17216321E-02 0.95229459E+02</pdfrwt>
<totfact> 0.25549435E+04</totfact>
</mgrwt>
</event>
<event>
 8    1  0.3400573E-004  0.9152830E+02  0.7546771E-02  0.1299271E+00
         -1   -1    0    0    0  501 -0.00000000000E+00  0.00000000000E+00  0.45337553787E+02  0.45337553787E+02  0.00000000000E+00 0.  1.
          1   -1    0    0  501    0  0.00000000000E+00 -0.00000000000E+00 -0.19143251302E+03  0.19143251302E+03  0.00000000000E+00 0. -1.
         23    2    1    2    0    0  0.23164338740E+01 -0.28562949501E+01 -0.95506125127E+02  0.13219158221E+03  0.91321794674E+02 0.  0.
         23    2    1    2    0    0 -0.23164338740E+01  0.28562949501E+01 -0.50588834105E+02  0.10457848460E+03  0.91454387638E+02 0.  0.
          5    1    4    4  502    0 -0.39661779717E+02  0.25122144129E+02 -0.32276189502E+02  0.57166610051E+02  0.47000000000E+01 0. -1.
         -5    1    3    3    0  503  0.15798868575E+02 -0.18985478599E+02  0.80648353631E+01  0.26404246161E+02  0.47000000000E+01 0.  1.
          5    1    3    3  503    0 -0.13482434701E+02  0.16129183649E+02 -0.10357096049E+03  0.10578733604E+03  0.47000000000E+01 0. -1.
         -5    1    4    4    0  502  0.37345345843E+02 -0.22265849179E+02 -0.18312644603E+02  0.47411874548E+02  0.47000000000E+01 0.  1.
<mgrwt>
<rscale>  0 0.91495158E+02</rscale>
<asrwt>0</asrwt>
<pdfrwt beam="1">  1        1 0.29451156E-01 0.91528298E+02</pdfrwt>
<pdfrwt beam="2">  1       -1 0.69750083E-02 0.91528298E+02</pdfrwt>
<totfact> 0.14827811E+04</totfact>
</mgrwt>
</event>
<event>
 8    1  0.3400573E-004  0.1647823E+03  0.7546771E-02  0.1183908E+00
         -2   -1    0    0    0  501 -0.00000000000E+00  0.00000000000E+00  0.75965312894E+02  0.75965312894E+02  0.00000000000E+00 0.  1.
          2   -1    0    0  501    0  0.00000000000E+00 -0.00000000000E+00 -0.97573488313E+03  0.97573488313E+03  0.00000000000E+00 0. -1.
         23    2    1    2    0    0  0.69893170894E+02 -0.11551530133E+03 -0.29015653538E+02  0.16549165772E+03  0.91196164643E+02 0.  0.
         23    2    1    2    0    0 -0.69893170894E+02  0.11551530133E+03 -0.87075391670E+03  0.88620853831E+03  0.94468776548E+02 0.  0.
          5    1    4    4  502    0 -0.90118482183E+02  0.75849501697E+02 -0.68964581934E+03  0.69964843591E+03  0.47000000000E+01 0. -1.
         -5    1    3    3    0  503  0.45738299748E+02 -0.11367223508E+03  0.58710347338E+01  0.12275963563E+03  0.47000000000E+01 0.  1.
          5    1    3    3  503    0  0.24154871145E+02 -0.18430662528E+01 -0.34886688272E+02  0.42732022089E+02  0.47000000000E+01 0. -1.
         -5    1    4    4    0  502  0.20225311289E+02  0.39665799632E+02 -0.18110809736E+03  0.18656010240E+03  0.47000000000E+01 0.  1.
<mgrwt>
<rscale>  0 0.16431676E+03</rscale>
<asrwt>0</asrwt>
<pdfrwt beam="1">  1        2 0.15011306E+00 0.16478225E+03</pdfrwt>
<pdfrwt beam="2">  1       -2 0.11686971E-01 0.16478225E+03</pdfrwt>
<totfact> 0.14027627E+03</totfact>
</mgrwt>
</event>
<event>
 8    1  0.3400573E-004  0.9288473E+02  0.7546771E-02  0.1297289E+00
         -2   -1    0    0    0  501 -0.00000000000E+00  0.00000000000E+00  0.21036523278E+02  0.21036523278E+02  0.00000000000E+00 0.  1.
          2   -1    0    0  501    0  0.00000000000E+00 -0.00000000000E+00 -0.50826644196E+03  0.50826644196E+03  0.00000000000E+00 0. -1.
         23    2    1    2    0    0 -0.16858486815E+02  0.52599405978E+01 -0.12408048139E+03  0.15499528547E+03  0.91190444143E+02 0.  0.
         23    2    1    2    0    0  0.16858486815E+02 -0.52599405978E+01 -0.36314943729E+03  0.37430767977E+03  0.88976681074E+02 0.  0.
          5    1    4    4  502    0  0.32220117757E+02 -0.39973502425E+02 -0.23402875192E+03  0.23964048825E+03  0.47000000000E+01 0. -1.
         -5    1    3    3    0  503 -0.59897002520E+01  0.47591870139E+02 -0.74541987831E+02  0.88766325609E+02  0.47000000000E+01 0.  1.
          5    1    3    3  503    0 -0.10868786563E+02 -0.42331929541E+02 -0.49538493557E+02  0.66228959859E+02  0.47000000000E+01 0. -1.
         -5    1    4    4    0  502 -0.15361630942E+02  0.34713561827E+02 -0.12912068537E+03  0.13466719152E+03  0.47000000000E+01 0.  1.
<mgrwt>
<rscale>  0 0.92336797E+02</rscale>
<asrwt>0</asrwt>
<pdfrwt beam="1">  1        2 0.78194835E-01 0.92884728E+02</pdfrwt>
<pdfrwt beam="2">  1       -2 0.32363883E-02 0.92884728E+02</pdfrwt>
<totfact> 0.20950489E+04</totfact>
</mgrwt>
</event>
<event>
 8    1  0.3400573E-004  0.1357065E+03  0.7546771E-02  0.1219934E+00
         -2   -1    0    0    0  501 -0.00000000000E+00  0.00000000000E+00  0.33611949747E+02  0.33611949747E+02  0.00000000000E+00 0.  1.
          2   -1    0    0  501    0  0.00000000000E+00 -0.00000000000E+00 -0.78046543148E+03  0.78046543148E+03  0.00000000000E+00 0. -1.
         23    2    1    2    0    0 -0.14873783985E+02 -0.96504859610E+02 -0.14550191585E+03  0.19760357972E+03  0.91334275173E+02 0.  0.
         23    2    1    2    0    0  0.14873783985E+02  0.96504859610E+02 -0.60135156588E+03  0.61647380151E+03  0.94243433644E+02 0.  0.
          5    1    4    4  502    0 -0.29372884120E+02  0.52650664941E+02 -0.42712779406E+03  0.43138741440E+03  0.47000000000E+01 0. -1.
         -5    1    3    3    0  503 -0.15823912241E+02 -0.71714334988E+02 -0.30160033501E+02  0.79530243695E+02  0.47000000000E+01 0.  1.
          5    1    3    3  503    0  0.95012825619E+00 -0.24790524622E+02 -0.11534188235E+03  0.11807333602E+03  0.47000000000E+01 0. -1.
         -5    1    4    4    0  502  0.44246668104E+02  0.43854194669E+02 -0.17422377182E+03  0.18508638712E+03  0.47000000000E+01 0.  1.
<mgrwt>
<rscale>  0 0.13520268E+03</rscale>
<asrwt>0</asrwt>
<pdfrwt beam="1">  1        2 0.12007159E+00 0.13570646E+03</pdfrwt>
<pdfrwt beam="2">  1       -2 0.51710696E-02 0.13570646E+03</pdfrwt>
<totfact> 0.65822216E+03</totfact>
</mgrwt>
</event>
<event>
 8    1  0.3400573E-004  0.1063631E+03  0.7546771E-02  0.1267919E+00
          1   -1    0    0  501    0  0.00000000000E+00  0.00000000000E+00  0.27126859221E+03  0.27126859221E+03  0.00000000000E+00 0. -1.
         -1   -1    0    0    0  501 -0.00000000000E+00 -0.00000000000E+00 -0.42380202646E+02  0.42380202646E+02  0.00000000000E+00 0.  1.
         23    2    1    2    0    0 -0.28423010478E+02 -0.47139198086E+02  0.13859630983E+03  0.17412901376E+03  0.89899971158E+02 0.  0.
         23    2    1    2    0    0  0.28423010478E+02  0.47139198086E+02  0.90292079739E+02  0.13951978110E+03  0.91011747227E+02 0.  0.
          5    1    3    3  502    0 -0.41587769664E+02 -0.13541733760E+02  0.12929010068E+03  0.13656844903E+03  0.47000000000E+01 0. -1.
         -5    1    3    3    0  502  0.13164759186E+02 -0.33597464327E+02  0.93062091491E+01  0.37560564723E+02  0.47000000000E+01 0.  1.
          5    1    4    4  503    0 -0.74944230410E+01  0.64199537418E+02  0.44091366736E+02  0.78382942035E+02  0.47000000000E+01 0. -1.
         -5    1    4    4    0  503  0.35917433519E+02 -0.17060339332E+02  0.46200713003E+02  0.61136839064E+02  0.47000000000E+01 0.  1.
<mgrwt>
<rscale>  0 0.10612487E+03</rscale>
<asrwt>0</asrwt>
<pdfrwt beam="1">  1        1 0.41733628E-01 0.10636310E+03</pdfrwt>
<pdfrwt beam="2">  1       -1 0.65200314E-02 0.10636310E+03</pdfrwt>
<totfact> 0.10838638E+04</totfact>
</mgrwt>
</event>
<event>
 8    1  0.3400573E-004  0.1315502E+03  0.7546771E-02  0.1239119E+00
          2   -1    0    0  501    0  0.00000000000E+00  0.00000000000E+00  0.71107505836E+03  0.71107505836E+03  0.00000000000E+00 0. -1.
         -2   -1    0    0    0  501 -0.00000000000E+00 -0.00000000000E+00 -0.44284512550E+02  0.44284512550E+02  0.00000000000E+00 0.  1.
         23    2    1    2    0    0  0.59005968280E+01 -0.36593163705E+02  0.59954117853E+03  0.60761680021E+03  0.91513247466E+02 0.  0.
         23    2    1    2    0    0 -0.59005968280E+01  0.36593163705E+02  0.67249367280E+02  0.14774277071E+03  0.12622033206E+03 0.  0.
          5    1    3    3  502    0  0.37312438189E+02  0.11883391529E+02  0.29331364712E+03  0.29595340617E+03  0.47000000000E+01 0. -1.
         -5    1    4    4    0  503  0.30705355993E+02 -0.82734313475E+00 -0.26122175781E+02  0.40595091463E+02  0.47000000000E+01 0.  1.
          5    1    4    4  503    0 -0.36605952821E+02  0.37420506840E+02  0.93371543062E+02  0.10714767925E+03  0.47000000000E+01 0. -1.
         -5    1    3    3    0  502 -0.31411841361E+02 -0.48476555234E+02  0.30622753141E+03  0.31166339403E+03  0.47000000000E+01 0.  1.
<mgrwt>
<rscale>  0 0.12244360E+03</rscale>
<asrwt>0</asrwt>
<pdfrwt beam="1">  1        2 0.10939615E+00 0.13155018E+03</pdfrwt>
<pdfrwt beam="2">  1       -2 0.68130025E-02 0.13155018E+03</pdfrwt>
<totfact> 0.48449482E+03</totfact>
</mgrwt>
</event>
<event>
 8    1  0.3400573E-004  0.1037912E+03  0.7546771E-02  0.1275672E+00
          3   -1    0    0  501    0  0.00000000000E+00  0.00000000000E+00  0.36420274505E+02  0.36420274505E+02  0.00000000000E+00 0. -1.
         -3   -1    0    0    0  501 -0.00000000000E+00 -0.00000000000E+00 -0.40954516201E+03  0.40954516201E+03  0.00000000000E+00 0.  1.
         23    2    1    2    0    0  0.33162188049E+02 -0.75378061563E+01 -0.31642064133E+03  0.33300845187E+03  0.98061498639E+02 0.  0.
         23    2    1    2    0    0 -0.33162188049E+02  0.75378061563E+01 -0.56704246173E+02  0.11295698465E+03  0.91582528952E+02 0.  0.
          5    1    4    4  502    0 -0.41115497049E+02  0.38318910767E+02 -0.11609135413E+02  0.57581985421E+02  0.47000000000E+01 0. -1.
         -5    1    3    3    0  503  0.28409847706E+02 -0.31949323677E+02 -0.29947849356E+03  0.30255137884E+03  0.47000000000E+01 0.  1.
          5    1    3    3  503    0  0.47523403431E+01  0.24411517521E+02 -0.16942147770E+02  0.30457073028E+02  0.47000000000E+01 0. -1.
         -5    1    4    4    0  502  0.79533090000E+01 -0.30781104611E+02 -0.45095110760E+02  0.55374999229E+02  0.47000000000E+01 0.  1.
<mgrwt>
<rscale>  0 0.10223182E+03</rscale>
<asrwt>0</asrwt>
<pdfrwt beam="1">  1        3 0.56031191E-02 0.10379117E+03</pdfrwt>
<pdfrwt beam="2">  1       -3 0.63006948E-01 0.10379117E+03</pdfrwt>
<totfact> 0.10405300E+03</totfact>
</mgrwt>
</event>
<event>
 8    1  0.3400573E-004  0.9514869E+02  0.7546771E-02  0.1292539E+00
          1   -1    0    0  501    0  0.00000000000E+00  0.00000000000E+00  0.63335045538E+03  0.63335045538E+03  0.00000000000E+00 0. -1.
         -1   -1    0    0    0  501 -0.00000000000E+00 -0.00000000000E+00 -0.17798653513E+02  0.17798653513E+02  0.00000000000E+00 0.  1.
         23    2    1    2    0    0 -0.11428952287E+02  0.38901971904E+01  0.46487310325E+03  0.47451056340E+03  0.94379648606E+02 0.  0.
         23    2    1    2    0    0  0.11428952287E+02 -0.38901971904E+01  0.15067869862E+03  0.17663854550E+03  0.91385726194E+02 0.  0.
          5    1    3    3  502    0 -0.46665656812E+02 -0.13526780946E+02  0.16602928849E+03  0.17305626821E+03  0.47000000000E+01 0. -1.
         -5    1    4    4    0  503  0.41059887145E+02 -0.11874102818E+02  0.31028040235E+02  0.53025823246E+02  0.47000000000E+01 0.  1.
          5    1    4    4  503    0 -0.29630934858E+02  0.79839056275E+01  0.11965065839E+03  0.12361272225E+03  0.47000000000E+01 0. -1.
         -5    1    3    3    0  502  0.35236704525E+02  0.17416978137E+02  0.29884381475E+03  0.30145429519E+03  0.47000000000E+01 0.  1.
<mgrwt>
<rscale>  0 0.94397605E+02</rscale>
<asrwt>0</asrwt>
<pdfrwt beam="1">  1        1 0.97438514E-01 0.95148687E+02</pdfrwt>
<pdfrwt beam="2">  1       -1 0.27382549E-02 0.95148687E+02</pdfrwt>
<totfact> 0.13015343E+04</totfact>
</mgrwt>
</event>
<event>
 8    1  0.3400573E-004  0.1445072E+03  0.7546771E-02  0.1208085E+00
          1   -1    0    0  501    0  0.00000000000E+00  0.00000000000E+00  0.34709938840E+03  0.34709938840E+03  0.00000000000E+00 0. -1.
         -1   -1    0    0    0  501 -0.00000000000E+00 -0.00000000000E+00 -0.64805275679E+02  0.64805275679E+02  0.00000000000E+00 0.  1.
         23    2    1    2    0    0 -0.10929369129E+03 -0.12561700209E+02  0.80023040045E+02  0.16331681836E+03  0.90364755034E+02 0.  0.
         23    2    1    2    0    0  0.10929369129E+03  0.12561700209E+02  0.20227107268E+03  0.24858784572E+03  0.93698574858E+02 0.  0.
          5    1    3    3  502    0 -0.27405454223E+02 -0.39016859622E+02  0.56301861001E+02  0.73928098907E+02  0.47000000000E+01 0. -1.
         -5    1    3    3    0  502 -0.81888237069E+02  0.26455159413E+02  0.23721179045E+02  0.89388719451E+02  0.47000000000E+01 0.  1.
          5    1    4    4  503    0  0.11418105422E+03  0.36231527069E+02  0.16823285523E+03  0.20657787944E+03  0.47000000000E+01 0. -1.
         -5    1    4    4    0  503 -0.48873629246E+01 -0.23669826860E+02  0.34038217444E+02  0.42009966278E+02  0.47000000000E+01 0.  1.
<mgrwt>
<rscale>  0 0.14396945E+03</rscale>
<asrwt>0</asrwt>
<pdfrwt beam="1">  1        1 0.53399905E-01 0.14450720E+03</pdfrwt>
<pdfrwt beam="2">  1       -1 0.99700426E-02 0.14450720E+03</pdfrwt>
<totfact> 0.43044254E+03</totfact>
</mgrwt>
</event>
<event>
 8    1  0.3400573E-004  0.1006049E+03  0.7546771E-02  0.1288053E+00
          1   -1    0    0  501    0  0.00000000000E+00  0.00000000000E+00  0.13731217071E+02  0.13731217071E+02  0.00000000000E+00 0. -1.
         -1   -1    0    0    0  501 -0.00000000000E+00 -0.00000000000E+00 -0.63033665489E+03  0.63033665489E+03  0.00000000000E+00 0.  1.
         23    2    1    2    0    0  0.43269132673E+02  0.17280099209E+02 -0.25541970621E+03  0.26913256425E+03  0.70868125041E+02 0.  0.
         23    2    1    2    0    0 -0.43269132673E+02 -0.17280099209E+02 -0.36118573161E+03  0.37493530772E+03  0.89165759023E+02 0.  0.
          5    1    3    3  502    0  0.52966580326E+02 -0.11161123544E+02 -0.15866812428E+03  0.16771312701E+03  0.47000000000E+01 0. -1.
         -5    1    3    3    0  502 -0.96974476537E+01  0.28441222753E+02 -0.96751581935E+02  0.10141943724E+03  0.47000000000E+01 0.  1.
          5    1    4    4  503    0 -0.19096189117E+02 -0.41783237730E+02 -0.86443231494E+02  0.98005232845E+02  0.47000000000E+01 0. -1.
         -5    1    4    4    0  503 -0.24172943556E+02  0.24503138520E+02 -0.27474250012E+03  0.27693007487E+03  0.47000000000E+01 0.  1.
<mgrwt>
<rscale>  0 0.96400447E+02</rscale>
<asrwt>0</asrwt>
<pdfrwt beam="1">  1        1 0.21124948E-02 0.10060493E+03</pdfrwt>
<pdfrwt beam="2">  1       -1 0.96974878E-01 0.10060493E+03</pdfrwt>
<totfact> 0.56144808E+03</totfact>
</mgrwt>
</event>
<event>
 8    1  0.3400573E-004  0.9823355E+02  0.7546771E-02  0.1284772E+00
          2   -1    0    0  501    0  0.00000000000E+00  0.00000000000E+00  0.83324373197E+03  0.83324373197E+03  0.00000000000E+00 0. -1.
         -2   -1    0    0    0  501 -0.00000000000E+00 -0.00000000000E+00 -0.11627880852E+02  0.11627880852E+02  0.00000000000E+00 0.  1.
         23    2    1    2    0    0  0.26958789084E+02  0.20443765345E+02  0.46924659277E+03  0.47941860021E+03  0.92223129169E+02 0.  0.
         23    2    1    2    0    0 -0.26958789084E+02 -0.20443765345E+02  0.35236925835E+03  0.36545301261E+03  0.90813470067E+02 0.  0.
          5    1    3    3  502    0 -0.18530125061E+02  0.37105478912E+02  0.31288449969E+03  0.31565643071E+03  0.47000000000E+01 0. -1.
         -5    1    3    3    0  502  0.45488914145E+02 -0.16661713567E+02  0.15636209307E+03  0.16376216950E+03  0.47000000000E+01 0.  1.
          5    1    4    4  503    0 -0.50392584718E+02 -0.41030908596E+02  0.22580148046E+03  0.23501350309E+03  0.47000000000E+01 0. -1.
         -5    1    4    4    0  503  0.23433795634E+02  0.20587143251E+02  0.12656777789E+03  0.13043950952E+03  0.47000000000E+01 0.  1.
<mgrwt>
<rscale>  0 0.97901315E+02</rscale>
<asrwt>0</asrwt>
<pdfrwt beam="1">  1        2 0.12819130E+00 0.98233545E+02</pdfrwt>
<pdfrwt beam="2">  1       -2 0.17889054E-02 0.98233545E+02</pdfrwt>
<totfact> 0.28102387E+04</totfact>
</mgrwt>
</event>
<event>
 8    1  0.3400573E-004  0.1119592E+03  0.7546771E-02  0.1258525E+00
         -1   -1    0    0    0  501 -0.00000000000E+00  0.00000000000E+00  0.15836077073E+02  0.15836077073E+02  0.00000000000E+00 0.  1.
          1   -1    0    0  501    0  0.00000000000E+00 -0.00000000000E+00 -0.76889186100E+03  0.76889186100E+03  0.00000000000E+00 0. -1.
         23    2    1    2    0    0 -0.51817318760E+02 -0.25652435679E+02 -0.38400739956E+03  0.39907060874E+03  0.91937945700E+02 0.  0.
         23    2    1    2    0    0  0.51817318760E+02  0.25652435679E+02 -0.36904838437E+03  0.38565732934E+03  0.95873790414E+02 0.  0.
          5    1    4    4  502    0  0.59525422988E+01 -0.28480582701E+02 -0.44252249758E+02  0.53168862688E+02  0.47000000000E+01 0. -1.
         -5    1    3    3    0  503 -0.73868319901E+02 -0.18305463679E+02 -0.34577011673E+03  0.35407722648E+03  0.47000000000E+01 0.  1.
          5    1    3    3  503    0  0.22051001141E+02 -0.73469720002E+01 -0.38237282831E+02  0.44993382260E+02  0.47000000000E+01 0. -1.
         -5    1    4    4    0  502  0.45864776461E+02  0.54133018380E+02 -0.32479613461E+03  0.33248846665E+03  0.47000000000E+01 0.  1.
<mgrwt>
<rscale>  0 0.11111180E+03</rscale>
<asrwt>0</asrwt>
<pdfrwt beam="1">  1        1 0.11829107E+00 0.11195921E+03</pdfrwt>
<pdfrwt beam="2">  1       -1 0.24363194E-02 0.11195921E+03</pdfrwt>
<totfact> 0.11857490E+04</totfact>
</mgrwt>
</event>
<event>
 8    1  0.3400573E-004  0.2919724E+03  0.7546771E-02  0.1089364E+00
          2   -1    0    0  501    0  0.00000000000E+00  0.00000000000E+00  0.28754249728E+04  0.28754249728E+04  0.00000000000E+00 0. -1.
         -2   -1    0    0    0  501 -0.00000000000E+00 -0.00000000000E+00 -0.30342335051E+02  0.30342335051E+02  0.00000000000E+00 0.  1.
         23    2    1    2    0    0  0.86772083870E+02 -0.26373378402E+03  0.16466556739E+04  0.16722864292E+04  0.89342540493E+02 0.  0.
         23    2    1    2    0    0 -0.86772083870E+02  0.26373378402E+03  0.11984269638E+04  0.12334808786E+04  0.90349249753E+02 0.  0.
          5    1    3    3  502    0  0.69000948694E+02 -0.23422788596E+03  0.15585752077E+04  0.15775939280E+04  0.47000000000E+01 0. -1.
         -5    1    3    3    0  502  0.17771135176E+02 -0.29505898064E+02  0.88080466213E+02  0.94692501257E+02  0.47000000000E+01 0.  1.
          5    1    4    4  503    0 -0.29785762330E+02  0.58998674027E+02  0.47079266086E+03  0.47543228192E+03  0.47000000000E+01 0. -1.
         -5    1    4    4    0  503 -0.56986321540E+02  0.20473511000E+03  0.72763430297E+03  0.75804859671E+03  0.47000000000E+01 0.  1.
<mgrwt>
<rscale>  0 0.29189490E+03</rscale>
<asrwt>0</asrwt>
<pdfrwt beam="1">  1        2 0.44237286E+00 0.29197241E+03</pdfrwt>
<pdfrwt beam="2">  1       -2 0.46680538E-02 0.29197241E+03</pdfrwt>
<totfact> 0.53359639E+02</totfact>
</mgrwt>
</event>
<event>
 8    1  0.3400573E-004  0.1159648E+03  0.7546771E-02  0.1249916E+00
          1   -1    0    0  501    0  0.00000000000E+00  0.00000000000E+00  0.14796967122E+03  0.14796967122E+03  0.00000000000E+00 0. -1.
         -1   -1    0    0    0  501 -0.00000000000E+00 -0.00000000000E+00 -0.97073133410E+02  0.97073133410E+02  0.00000000000E+00 0.  1.
         23    2    1    2    0    0 -0.44225554754E+02  0.56689683376E+02 -0.55353725150E+01  0.11609682655E+03  0.90984684924E+02 0.  0.
         23    2    1    2    0    0  0.44225554754E+02 -0.56689683376E+02  0.56431910328E+02  0.12894597809E+03  0.90955400428E+02 0.  0.
          5    1    4    4  502    0 -0.40241000149E+01 -0.49803813359E+02 -0.49460418616E+01  0.50429817927E+02  0.47000000000E+01 0. -1.
         -5    1    3    3    0  503 -0.21106067679E+02  0.10017302390E+02 -0.44771035194E+02  0.50718320481E+02  0.47000000000E+01 0.  1.
          5    1    3    3  503    0 -0.23119487076E+02  0.46672380986E+02  0.39235662679E+02  0.65378506066E+02  0.47000000000E+01 0. -1.
         -5    1    4    4    0  502  0.48249654769E+02 -0.68858700163E+01  0.61377952190E+02  0.78516160160E+02  0.47000000000E+01 0.  1.
<mgrwt>
<rscale>  0 0.11595905E+03</rscale>
<asrwt>0</asrwt>
<pdfrwt beam="1">  1        1 0.22764565E-01 0.11596479E+03</pdfrwt>
<pdfrwt beam="2">  1       -1 0.14934328E-01 0.11596479E+03</pdfrwt>
<totfact> 0.65594900E+03</totfact>
</mgrwt>
</event>
<event>
 8    1  0.3400573E-004  0.1079918E+03  0.7546771E-02  0.1264473E+00
          1   -1    0    0  501    0  0.00000000000E+00  0.00000000000E+00  0.54068199199E+02  0.54068199199E+02  0.00000000000E+00 0. -1.
         -1   -1    0    0    0  501 -0.00000000000E+00 -0.00000000000E+00 -0.43559323071E+03  0.43559323071E+03  0.00000000000E+00 0.  1.
         23    2    1    2    0    0 -0.47112998774E+02 -0.16229575253E+02 -0.36482006103E+03  0.38038525125E+03  0.95478943590E+02 0.  0.
         23    2    1    2    0    0  0.47112998774E+02  0.16229575253E+02 -0.16704970474E+02  0.10927617866E+03  0.95808107259E+02 0.  0.
          5    1    4    4  502    0  0.19201071993E+02 -0.15217164688E+02  0.34676151109E+02  0.42717311743E+02  0.47000000000E+01 0. -1.
         -5    1    4    4    0  502  0.27911926781E+02  0.31446739941E+02 -0.51381121583E+02  0.66558866913E+02  0.47000000000E+01 0.  1.
          5    1    3    3  503    0 -0.21677513061E+02  0.36787726201E+02 -0.96064849644E+02  0.10523210873E+03  0.47000000000E+01 0. -1.
         -5    1    3    3    0  503 -0.25435485714E+02 -0.53017301454E+02 -0.26875521139E+03  0.27515314251E+03  0.47000000000E+01 0.  1.
<mgrwt>
<rscale>  0 0.10791874E+03</rscale>
<asrwt>0</asrwt>
<pdfrwt beam="1">  1        1 0.83181847E-02 0.10799179E+03</pdfrwt>
<pdfrwt beam="2">  1       -1 0.67014341E-01 0.10799179E+03</pdfrwt>
<totfact> 0.18575893E+03</totfact>
</mgrwt>
</event>
<event>
 8    1  0.3400573E-004  0.9896330E+02  0.7546771E-02  0.1284425E+00
         -1   -1    0    0    0  501 -0.00000000000E+00  0.00000000000E+00  0.68710915460E+02  0.68710915460E+02  0.00000000000E+00 0.  1.
          1   -1    0    0  501    0  0.00000000000E+00 -0.00000000000E+00 -0.29988106053E+03  0.29988106053E+03  0.00000000000E+00 0. -1.
         23    2    1    2    0    0  0.21742146669E+02  0.16468677731E+02  0.21006857391E+02  0.97691671691E+02  0.91424484534E+02 0.  0.
         23    2    1    2    0    0 -0.21742146669E+02 -0.16468677731E+02 -0.25217700246E+03  0.27090030430E+03  0.95130415806E+02 0.  0.
          5    1    3    3  502    0 -0.22463042349E+02  0.39153520973E+02  0.76122907749E+01  0.46017642780E+02  0.47000000000E+01 0. -1.
         -5    1    4    4    0  503  0.26999542136E+02 -0.23873600387E+02 -0.44787554941E+02  0.57679625073E+02  0.47000000000E+01 0.  1.
          5    1    4    4  503    0 -0.48741688805E+02  0.74049226564E+01 -0.20738944752E+03  0.21322067923E+03  0.47000000000E+01 0. -1.
         -5    1    3    3    0  502  0.44205189018E+02 -0.22684843243E+02  0.13394566616E+02  0.51674028911E+02  0.47000000000E+01 0.  1.
<mgrwt>
<rscale>  0 0.98061822E+02</rscale>
<asrwt>0</asrwt>
<pdfrwt beam="1">  1        1 0.46135547E-01 0.98963298E+02</pdfrwt>
<pdfrwt beam="2">  1       -1 0.10570910E-01 0.98963298E+02</pdfrwt>
<totfact> 0.46171205E+03</totfact>
</mgrwt>
</event>
<event>
 8    1  0.3400573E-004  0.9757563E+02  0.7546771E-02  0.1288809E+00
         -2   -1    0    0    0  501 -0.00000000000E+00  0.00000000000E+00  0.41708900568E+02  0.41708900568E+02  0.00000000000E+00 0.  1.
          2   -1    0    0  501    0  0.00000000000E+00 -0.00000000000E+00 -0.45340912255E+03  0.45340912255E+03  0.00000000000E+00 0. -1.
         23    2    1    2    0    0  0.10691119519E+02  0.12405657006E+02 -0.23183817225E+02  0.94535946107E+02  0.90174028206E+02 0.  0.
         23    2    1    2    0    0 -0.10691119519E+02 -0.12405657006E+02 -0.38851640475E+03  0.40058207701E+03  0.96191492838E+02 0.  0.
          5    1    3    3  502    0 -0.33460964198E+02  0.19420626417E+02 -0.29851669223E+02  0.49091842610E+02  0.47000000000E+01 0. -1.
         -5    1    3    3    0  502  0.44152083717E+02 -0.70149694104E+01  0.66678519977E+01  0.45444103497E+02  0.47000000000E+01 0.  1.
          5    1    4    4  503    0 -0.39386519634E+02  0.12195438953E+02 -0.31560415461E+03  0.31832074872E+03  0.47000000000E+01 0. -1.
         -5    1    4    4    0  503  0.28695400115E+02 -0.24601095959E+02 -0.72912250144E+02  0.82261328285E+02  0.47000000000E+01 0.  1.
<mgrwt>
<rscale>  0 0.96059001E+02</rscale>
<asrwt>0</asrwt>
<pdfrwt beam="1">  1        2 0.69755247E-01 0.97575630E+02</pdfrwt>
<pdfrwt beam="2">  1       -2 0.64167541E-02 0.97575630E+02</pdfrwt>
<totfact> 0.86287360E+03</totfact>
</mgrwt>
</event>
<event>
 8    1  0.3400573E-004  0.9450602E+02  0.7546771E-02  0.1293088E+00
         -1   -1    0    0    0  501 -0.00000000000E+00  0.00000000000E+00  0.10648051721E+03  0.10648051721E+03  0.00000000000E+00 0.  1.
          1   -1    0    0  501    0  0.00000000000E+00 -0.00000000000E+00 -0.98967482199E+02  0.98967482199E+02  0.00000000000E+00 0. -1.
         23    2    1    2    0    0 -0.15174049572E+02 -0.14401507885E+02 -0.37933935109E+02  0.10183501858E+03  0.92161447285E+02 0.  0.
         23    2    1    2    0    0  0.15174049572E+02  0.14401507885E+02  0.45446970117E+02  0.10361298083E+03  0.90733497088E+02 0.  0.
          5    1    4    4  502    0  0.51787346177E+02  0.20108923384E+02  0.27910158438E+02  0.62348736697E+02  0.47000000000E+01 0. -1.
         -5    1    4    4    0  502 -0.36613296605E+02 -0.57074154991E+01  0.17536811679E+02  0.41264244133E+02  0.47000000000E+01 0.  1.
          5    1    3    3  503    0 -0.15820546240E+02 -0.35551274419E+02 -0.59505780950E+02  0.71254549066E+02  0.47000000000E+01 0. -1.
         -5    1    3    3    0  503  0.64649666854E+00  0.21149766535E+02  0.21571845841E+02  0.30580469509E+02  0.47000000000E+01 0.  1.
<mgrwt>
<rscale>  0 0.94156083E+02</rscale>
<asrwt>0</asrwt>
<pdfrwt beam="1">  1        1 0.15225767E-01 0.94506019E+02</pdfrwt>
<pdfrwt beam="2">  1       -1 0.16381618E-01 0.94506019E+02</pdfrwt>
<totfact> 0.92943304E+03</totfact>
</mgrwt>
</event>
<event>
 8    1  0.3400573E-004  0.9652283E+02  0.7546771E-02  0.1287920E+00
          2   -1    0    0  501    0  0.00000000000E+00  0.00000000000E+00  0.20604958914E+03  0.20604958914E+03  0.00000000000E+00 0. -1.
         -2   -1    0    0    0  501 -0.00000000000E+00 -0.00000000000E+00 -0.11111916054E+03  0.11111916054E+03  0.00000000000E+00 0.  1.
         23    2    1    2    0    0  0.31441259034E+02  0.75531741715E+01  0.16967786278E+03  0.19508747938E+03  0.90680451499E+02 0.  0.
         23    2    1    2    0    0 -0.31441259034E+02 -0.75531741715E+01 -0.74747434182E+02  0.12208127030E+03  0.90945337604E+02 0.  0.
          5    1    4    4  502    0 -0.35605027057E-01  0.38109138919E+02 -0.17281374093E+02  0.42107524594E+02  0.47000000000E+01 0. -1.
         -5    1    4    4    0  502 -0.31405654007E+02 -0.45662313090E+02 -0.57466060089E+02  0.79973745707E+02  0.47000000000E+01 0.  1.
          5    1    3    3  503    0  0.22180148496E+02  0.48354669901E+02  0.82536774036E+02  0.98308403287E+02  0.47000000000E+01 0. -1.
         -5    1    3    3    0  503  0.92611105377E+01 -0.40801495730E+02  0.87141088742E+02  0.96779076093E+02  0.47000000000E+01 0.  1.
<mgrwt>
<rscale>  0 0.96460390E+02</rscale>
<asrwt>0</asrwt>
<pdfrwt beam="1">  1        2 0.31699937E-01 0.96522835E+02</pdfrwt>
<pdfrwt beam="2">  1       -2 0.17095255E-01 0.96522835E+02</pdfrwt>
<totfact> 0.42582299E+03</totfact>
</mgrwt>
</event>
<event>
 8    1  0.3400573E-004  0.9806227E+02  0.7546771E-02  0.1290272E+00
          1   -1    0    0  501    0  0.00000000000E+00  0.00000000000E+00  0.38363642645E+02  0.38363642645E+02  0.00000000000E+00 0. -1.
         -1   -1    0    0    0  501 -0.00000000000E+00 -0.00000000000E+00 -0.23282579244E+03  0.23282579244E+03  0.00000000000E+00 0.  1.
         23    2    1    2    0    0 -0.26594729423E+02 -0.19868293774E+02 -0.12684867277E+03  0.16033338567E+03  0.92272314620E+02 0.  0.
         23    2    1    2    0    0  0.26594729423E+02  0.19868293774E+02 -0.67613477022E+02  0.11085604941E+03  0.81335433153E+02 0.  0.
          5    1    3    3  502    0 -0.31731440408E+02  0.27987572738E+01 -0.94198781837E+00  0.32213268907E+02  0.47000000000E+01 0. -1.
         -5    1    4    4    0  503  0.78828500193E+01 -0.28327910554E+02 -0.61570884376E+01  0.30407393489E+02  0.47000000000E+01 0.  1.
          5    1    4    4  503    0  0.18711879403E+02  0.48196204327E+02 -0.61456388585E+02  0.80448655926E+02  0.47000000000E+01 0. -1.
         -5    1    3    3    0  502  0.51367109853E+01 -0.22667051048E+02 -0.12590668495E+03  0.12812011676E+03  0.47000000000E+01 0.  1.
<mgrwt>
<rscale>  0 0.95402753E+02</rscale>
<asrwt>0</asrwt>
<pdfrwt beam="1">  1        1 0.59020988E-02 0.98062270E+02</pdfrwt>
<pdfrwt beam="2">  1       -1 0.35819353E-01 0.98062270E+02</pdfrwt>
<totfact> 0.90813279E+03</totfact>
</mgrwt>
</event>
<event>
 7    1  0.3400573E-004  0.1371976E+03  0.7546771E-02  0.1236539E+00
         -2   -1    0    0    0  501 -0.00000000000E+00  0.00000000000E+00  0.25310833275E+03  0.25310833275E+03  0.00000000000E+00 0.  1.
          2   -1    0    0  501    0  0.00000000000E+00 -0.00000000000E+00 -0.76497079258E+02  0.76497079258E+02  0.00000000000E+00 0. -1.
         23    2    1    2    0    0  0.28086439155E+01 -0.12765766267E+02 -0.16003318193E+02  0.93123783429E+02  0.90802420551E+02 0.  0.
          5    1    1    2  502    0 -0.63937554388E+02 -0.11042422856E+02  0.60207989832E+02  0.88639934585E+02  0.47000000000E+01 0. -1.
         -5    1    1    2    0  502  0.61128910472E+02  0.23808189122E+02  0.13240658185E+03  0.14784169399E+03  0.47000000000E+01 0.  1.
          5    1    3    3  503    0 -0.32595431670E+02 -0.34664179927E+02  0.12163174362E+01  0.47829247996E+02  0.47000000000E+01 0. -1.
         -5    1    3    3    0  503  0.35404075585E+02  0.21898413661E+02 -0.17219635629E+02  0.45294535433E+02  0.47000000000E+01 0.  1.
<mgrwt>
<rscale>  0 0.12406455E+03</rscale>
<asrwt>0</asrwt>
<pdfrwt beam="1">  1        2 0.11768782E-01 0.13719762E+03</pdfrwt>
<pdfrwt beam="2">  1       -2 0.38939743E-01 0.13719762E+03</pdfrwt>
<totfact> 0.31532966E+03</totfact>
</mgrwt>
</event>
<event>
 8    1  0.3400573E-004  0.1808438E+03  0.7546771E-02  0.1167576E+00
          1   -1    0    0  501    0  0.00000000000E+00  0.00000000000E+00  0.22338008513E+03  0.22338008513E+03  0.00000000000E+00 0. -1.
         -1   -1    0    0    0  501 -0.00000000000E+00 -0.00000000000E+00 -0.29764466001E+03  0.29764466001E+03  0.00000000000E+00 0.  1.
         23    2    1    2    0    0  0.12867838653E+02  0.15238704368E+03 -0.22390412689E+03  0.28629838556E+03  0.91903836594E+02 0.  0.
         23    2    1    2    0    0 -0.12867838653E+02 -0.15238704368E+03  0.14963955201E+03  0.23472635958E+03  0.96525001965E+02 0.  0.
          5    1    4    4  502    0  0.87983628158E+01 -0.11634851940E+03  0.15278112454E+03  0.19229807896E+03  0.47000000000E+01 0. -1.
         -5    1    3    3    0  503  0.42678878953E+02  0.13793988625E+03 -0.18973909299E+03  0.23847832677E+03  0.47000000000E+01 0.  1.
          5    1    3    3  503    0 -0.29811040300E+02  0.14447157431E+02 -0.34165033895E+02  0.47820058790E+02  0.47000000000E+01 0. -1.
         -5    1    4    4    0  502 -0.21666201469E+02 -0.36038524284E+02 -0.31415725369E+01  0.42428280624E+02  0.47000000000E+01 0.  1.
<mgrwt>
<rscale>  0 0.18023476E+03</rscale>
<asrwt>0</asrwt>
<pdfrwt beam="1">  1        1 0.34366167E-01 0.18084377E+03</pdfrwt>
<pdfrwt beam="2">  1       -1 0.45791486E-01 0.18084377E+03</pdfrwt>
<totfact> 0.61761631E+02</totfact>
</mgrwt>
</event>
<event>
 8    1  0.3400573E-004  0.1058500E+03  0.7546771E-02  0.1268964E+00
         -1   -1    0    0    0  501 -0.00000000000E+00  0.00000000000E+00  0.83218710894E+02  0.83218710894E+02  0.00000000000E+00 0.  1.
          1   -1    0    0  501    0  0.00000000000E+00 -0.00000000000E+00 -0.15112839427E+03  0.15112839427E+03  0.00000000000E+00 0. -1.
         23    2    1    2    0    0  0.29728466415E+02  0.46070968160E+02 -0.74034056854E+02  0.12832004855E+03  0.89323442965E+02 0.  0.
         23    2    1    2    0    0 -0.29728466415E+02 -0.46070968160E+02  0.61243734753E+01  0.10602705662E+03  0.90542326906E+02 0.  0.
          5    1    3    3  502    0  0.40879617100E+02 -0.13916756071E+02 -0.27107127989E+02  0.51202593505E+02  0.47000000000E+01 0. -1.
         -5    1    4    4    0  503 -0.56306214451E+02 -0.47531710340E+02  0.18771860614E+02  0.76184814922E+02  0.47000000000E+01 0.  1.
          5    1    4    4  503    0  0.26577748036E+02  0.14607421802E+01 -0.12647487139E+02  0.29842241694E+02  0.47000000000E+01 0. -1.
         -5    1    3    3    0  502 -0.11151150685E+02  0.59987724231E+02 -0.46926928864E+02  0.77117455046E+02  0.47000000000E+01 0.  1.
<mgrwt>
<rscale>  0 0.10558889E+03</rscale>
<asrwt>0</asrwt>
<pdfrwt beam="1">  1        1 0.23250522E-01 0.10585003E+03</pdfrwt>
<pdfrwt beam="2">  1       -1 0.12802879E-01 0.10585003E+03</pdfrwt>
<totfact> 0.80531558E+03</totfact>
</mgrwt>
</event>
<event>
 8    1  0.3400573E-004  0.1149222E+03  0.7546771E-02  0.1255038E+00
          1   -1    0    0  501    0  0.00000000000E+00  0.00000000000E+00  0.10441767181E+03  0.10441767181E+03  0.00000000000E+00 0. -1.
         -1   -1    0    0    0  501 -0.00000000000E+00 -0.00000000000E+00 -0.15495637059E+03  0.15495637059E+03  0.00000000000E+00 0.  1.
         23    2    1    2    0    0 -0.48766274239E+02 -0.49718457790E+02  0.38214609943E+02  0.11416984166E+03  0.82001962064E+02 0.  0.
         23    2    1    2    0    0  0.48766274239E+02  0.49718457790E+02 -0.88753308716E+02  0.14520420075E+03  0.91416823169E+02 0.  0.
          5    1    3    3  502    0 -0.24300692639E+02 -0.68112076481E+02  0.40675980075E+02  0.83104777121E+02  0.47000000000E+01 0. -1.
         -5    1    4    4    0  503  0.40820028465E+02 -0.32207589437E+01 -0.81035343795E+02  0.90914602546E+02  0.47000000000E+01 0.  1.
          5    1    4    4  503    0  0.79462457738E+01  0.52939216734E+02 -0.77179649207E+01  0.54289598201E+02  0.47000000000E+01 0. -1.
         -5    1    3    3    0  502 -0.24465581600E+02  0.18393618691E+02 -0.24613701320E+01  0.31065064534E+02  0.47000000000E+01 0.  1.
<mgrwt>
<rscale>  0 0.11304210E+03</rscale>
<asrwt>0</asrwt>
<pdfrwt beam="1">  1        1 0.16064257E-01 0.11492219E+03</pdfrwt>
<pdfrwt beam="2">  1       -1 0.23839442E-01 0.11492219E+03</pdfrwt>
<totfact> 0.48468861E+03</totfact>
</mgrwt>
</event>
<event>
 8    1  0.3400573E-004  0.1231377E+03  0.7546771E-02  0.1238442E+00
         -2   -1    0    0    0  501 -0.00000000000E+00  0.00000000000E+00  0.19485356267E+02  0.19485356267E+02  0.00000000000E+00 0.  1.
          2   -1    0    0  501    0  0.00000000000E+00 -0.00000000000E+00 -0.86047827068E+03  0.86047827068E+03  0.00000000000E+00 0. -1.
         23    2    1    2    0    0  0.47967455957E+02 -0.64249915022E+02 -0.27723586078E+03  0.30291518731E+03  0.92026951438E+02 0.  0.
         23    2    1    2    0    0 -0.47967455957E+02  0.64249915022E+02 -0.56375705364E+03  0.57704843964E+03  0.93455645907E+02 0.  0.
          5    1    3    3  502    0 -0.11122415471E+02  0.16994126055E+02 -0.36823515838E+02  0.42315124542E+02  0.47000000000E+01 0. -1.
         -5    1    3    3    0  502  0.59089871428E+02 -0.81244041077E+02 -0.24041234494E+03  0.26060006277E+03  0.47000000000E+01 0.  1.
          5    1    4    4  503    0 -0.72066897842E+02  0.61317534793E+02 -0.49488459065E+03  0.50387133863E+03  0.47000000000E+01 0. -1.
         -5    1    4    4    0  503  0.24099441885E+02  0.29323802289E+01 -0.68872462992E+02  0.73177101005E+02  0.47000000000E+01 0.  1.
<mgrwt>
<rscale>  0 0.12286659E+03</rscale>
<asrwt>0</asrwt>
<pdfrwt beam="1">  1        2 0.13238126E+00 0.12313767E+03</pdfrwt>
<pdfrwt beam="2">  1       -2 0.29977474E-02 0.12313767E+03</pdfrwt>
<totfact> 0.13004330E+04</totfact>
</mgrwt>
</event>
<event>
 8    1  0.3400573E-004  0.1259911E+03  0.7546771E-02  0.1234449E+00
         -3   -1    0    0    0  501 -0.00000000000E+00  0.00000000000E+00  0.34590977293E+03  0.34590977293E+03  0.00000000000E+00 0.  1.
          3   -1    0    0  501    0  0.00000000000E+00 -0.00000000000E+00 -0.78142666416E+02  0.78142666416E+02  0.00000000000E+00 0. -1.
         23    2    1    2    0    0  0.84087946524E+02  0.62189038098E+01 -0.48488670674E+01  0.12373058625E+03  0.90422834207E+02 0.  0.
         23    2    1    2    0    0 -0.84087946524E+02 -0.62189038098E+01  0.27261597358E+03  0.30032185310E+03  0.93617780803E+02 0.  0.
          5    1    3    3  502    0  0.85703314743E+02  0.33788065496E+02  0.86245400850E+01  0.92645368041E+02  0.47000000000E+01 0. -1.
         -5    1    3    3    0  502 -0.16153682187E+01 -0.27569161687E+02 -0.13473407152E+02  0.31085218205E+02  0.47000000000E+01 0.  1.
          5    1    4    4  503    0 -0.15650889849E+01  0.27862476094E+02  0.12137465975E+03  0.12463011316E+03  0.47000000000E+01 0. -1.
         -5    1    4    4    0  503 -0.82522857539E+02 -0.34081379904E+02  0.15124131383E+03  0.17569173994E+03  0.47000000000E+01 0.  1.
<mgrwt>
<rscale>  0 0.12539800E+03</rscale>
<asrwt>0</asrwt>
<pdfrwt beam="1">  1        3 0.12021949E-01 0.12599106E+03</pdfrwt>
<pdfrwt beam="2">  1       -3 0.53216887E-01 0.12599106E+03</pdfrwt>
<totfact> 0.43820297E+02</totfact>
</mgrwt>
</event>
<event>
 8    1  0.3400573E-004  0.1250270E+03  0.7546771E-02  0.1235031E+00
          2   -1    0    0  501    0  0.00000000000E+00  0.00000000000E+00  0.94428084797E+02  0.94428084797E+02  0.00000000000E+00 0. -1.
         -2   -1    0    0    0  501 -0.00000000000E+00 -0.00000000000E+00 -0.27466851770E+03  0.27466851770E+03  0.00000000000E+00 0.  1.
         23    2    1    2    0    0 -0.47917014587E+02 -0.69420430565E+02 -0.20645009518E+03  0.24135198133E+03  0.92270800492E+02 0.  0.
         23    2    1    2    0    0  0.47917014587E+02  0.69420430565E+02  0.26209662282E+02  0.12774462117E+03  0.92284914114E+02 0.  0.
          5    1    3    3  502    0 -0.35072872796E+02 -0.10960576894E+02 -0.16321493429E+03  0.16736620156E+03  0.47000000000E+01 0. -1.
         -5    1    3    3    0  502 -0.12844141791E+02 -0.58459853670E+02 -0.43235160896E+02  0.73985779763E+02  0.47000000000E+01 0.  1.
          5    1    4    4  503    0  0.65888841627E+02  0.20619695159E+02 -0.26406224976E+00  0.69200224048E+02  0.47000000000E+01 0. -1.
         -5    1    4    4    0  503 -0.17971827040E+02  0.48800735406E+02  0.26473724532E+02  0.58544397118E+02  0.47000000000E+01 0.  1.
<mgrwt>
<rscale>  0 0.12502436E+03</rscale>
<asrwt>0</asrwt>
<pdfrwt beam="1">  1        2 0.14527398E-01 0.12502696E+03</pdfrwt>
<pdfrwt beam="2">  1       -2 0.42256695E-01 0.12502696E+03</pdfrwt>
<totfact> 0.20917865E+03</totfact>
</mgrwt>
</event>
<event>
 8    1  0.3400573E-004  0.9936948E+02  0.7546771E-02  0.1281691E+00
          1   -1    0    0  501    0  0.00000000000E+00  0.00000000000E+00  0.88333307562E+02  0.88333307562E+02  0.00000000000E+00 0. -1.
         -1   -1    0    0    0  501 -0.00000000000E+00 -0.00000000000E+00 -0.19003608676E+03  0.19003608676E+03  0.00000000000E+00 0.  1.
         23    2    1    2    0    0  0.36652384278E+02 -0.73890868149E+01 -0.14025981024E+03  0.17189272273E+03  0.92066812058E+02 0.  0.
         23    2    1    2    0    0 -0.36652384278E+02  0.73890868149E+01  0.38557031042E+02  0.10647667159E+03  0.91938245974E+02 0.  0.
          5    1    3    3  502    0  0.16727524387E+02 -0.35859594240E+02 -0.16272350106E+02  0.43041839518E+02  0.47000000000E+01 0. -1.
         -5    1    3    3    0  502  0.19924859891E+02  0.28470507425E+02 -0.12398746013E+03  0.12885088321E+03  0.47000000000E+01 0.  1.
          5    1    4    4  503    0 -0.24381381570E+02 -0.95883914074E+01  0.66273036258E+02  0.71418445460E+02  0.47000000000E+01 0. -1.
         -5    1    4    4    0  503 -0.12271002708E+02  0.16977478222E+02 -0.27716005216E+02  0.35058226130E+02  0.47000000000E+01 0.  1.
<mgrwt>
<rscale>  0 0.99339691E+02</rscale>
<asrwt>0</asrwt>
<pdfrwt beam="1">  1        1 0.13589740E-01 0.99369481E+02</pdfrwt>
<pdfrwt beam="2">  1       -1 0.29236321E-01 0.99369481E+02</pdfrwt>
<totfact> 0.42559965E+03</totfact>
</mgrwt>
</event>
<event>
 8    1  0.3400573E-004  0.9125610E+02  0.7546771E-02  0.1299977E+00
          4   -1    0    0  501    0  0.00000000000E+00  0.00000000000E+00  0.61139122184E+03  0.61139122184E+03  0.00000000000E+00 0. -1.
         -4   -1    0    0    0  501 -0.00000000000E+00 -0.00000000000E+00 -0.16244386056E+02  0.16244386056E+02  0.00000000000E+00 0.  1.
         23    2    1    2    0    0 -0.52284976272E+01  0.63462139441E-01  0.17030740444E+03  0.19310572623E+03  0.90872813768E+02 0.  0.
         23    2    1    2    0    0  0.52284976272E+01 -0.63462139441E-01  0.42483943134E+03  0.43452988166E+03  0.91106171136E+02 0.  0.
          5    1    3    3  502    0  0.18100631915E+02  0.25962384301E+02  0.14808284448E+03  0.15150015545E+03  0.47000000000E+01 0. -1.
         -5    1    4    4    0  503  0.62759597445E+01  0.39246995398E+02  0.31940183187E+03  0.32189957211E+03  0.47000000000E+01 0.  1.
          5    1    4    4  503    0 -0.10474621173E+01 -0.39310457538E+02  0.10543759947E+03  0.11263030955E+03  0.47000000000E+01 0. -1.
         -5    1    3    3    0  502 -0.23329129543E+02 -0.25898922162E+02  0.22224559966E+02  0.41605570781E+02  0.47000000000E+01 0.  1.
<mgrwt>
<rscale>  0 0.91197800E+02</rscale>
<asrwt>0</asrwt>
<pdfrwt beam="1">  1        4 0.94060170E-01 0.91256099E+02</pdfrwt>
<pdfrwt beam="2">  1       -4 0.24991368E-02 0.91256099E+02</pdfrwt>
<totfact> 0.10699612E+03</totfact>
</mgrwt>
</event>
<event>
 8    1  0.3400573E-004  0.1042175E+03  0.7546771E-02  0.1272406E+00
         -1   -1    0    0    0  501 -0.00000000000E+00  0.00000000000E+00  0.16090780975E+03  0.16090780975E+03  0.00000000000E+00 0.  1.
          1   -1    0    0  501    0  0.00000000000E+00 -0.00000000000E+00 -0.66562166459E+02  0.66562166459E+02  0.00000000000E+00 0. -1.
         23    2    1    2    0    0  0.50013895346E+02  0.12290406095E+02  0.46078956945E+02  0.11394975956E+03  0.90602613770E+02 0.  0.
         23    2    1    2    0    0 -0.50013895346E+02 -0.12290406095E+02  0.48266686343E+02  0.11352021664E+03  0.88908507839E+02 0.  0.
          5    1    4    4  502    0 -0.29029505510E+02 -0.45849071681E+02  0.50085153785E+01  0.54699403932E+02  0.47000000000E+01 0. -1.
         -5    1    3    3    0  503  0.25894855943E+02  0.42785081286E+02  0.54259849149E+02  0.73941382017E+02  0.47000000000E+01 0.  1.
          5    1    3    3  503    0  0.24119039403E+02 -0.30494675190E+02 -0.81808922039E+01  0.40008377547E+02  0.47000000000E+01 0. -1.
         -5    1    4    4    0  502 -0.20984389836E+02  0.33558665586E+02  0.43258170965E+02  0.58820812710E+02  0.47000000000E+01 0.  1.
<mgrwt>
<rscale>  0 0.10384815E+03</rscale>
<asrwt>0</asrwt>
<pdfrwt beam="1">  1        1 0.10240333E-01 0.10421745E+03</pdfrwt>
<pdfrwt beam="2">  1       -1 0.24755048E-01 0.10421745E+03</pdfrwt>
<totfact> 0.81181807E+03</totfact>
</mgrwt>
</event>
<event>
 8    1  0.3400573E-004  0.1049390E+03  0.7546771E-02  0.1270866E+00
         -1   -1    0    0    0  501 -0.00000000000E+00  0.00000000000E+00  0.88503603906E+02  0.88503603906E+02  0.00000000000E+00 0.  1.
          1   -1    0    0  501    0  0.00000000000E+00 -0.00000000000E+00 -0.25896358670E+03  0.25896358670E+03  0.00000000000E+00 0. -1.
         23    2    1    2    0    0  0.31809219888E+02  0.32754249866E+02  0.40929480186E+02  0.11146361059E+03  0.93081935860E+02 0.  0.
         23    2    1    2    0    0 -0.31809219888E+02 -0.32754249866E+02 -0.21138946298E+03  0.23600358001E+03  0.94485540515E+02 0.  0.
          5    1    3    3  502    0  0.33492607761E+02 -0.20622623442E+02 -0.61856621394E+01  0.40092390654E+02  0.47000000000E+01 0. -1.
         -5    1    4    4    0  503  0.18311661349E+02 -0.13649728043E+02 -0.15960312371E+03  0.16129748639E+03  0.47000000000E+01 0.  1.
          5    1    4    4  503    0 -0.50120881237E+02 -0.19104521823E+02 -0.51786339271E+02  0.74706093628E+02  0.47000000000E+01 0. -1.
         -5    1    3    3    0  502 -0.16833878733E+01  0.53376873309E+02  0.47115142325E+02  0.71371219937E+02  0.47000000000E+01 0.  1.
<mgrwt>
<rscale>  0 0.10462203E+03</rscale>
<asrwt>0</asrwt>
<pdfrwt beam="1">  1        1 0.39840551E-01 0.10493896E+03</pdfrwt>
<pdfrwt beam="2">  1       -1 0.13615939E-01 0.10493896E+03</pdfrwt>
<totfact> 0.37632197E+03</totfact>
</mgrwt>
</event>
<event>
 8    1  0.3400573E-004  0.9289872E+02  0.7546771E-02  0.1296309E+00
          2   -1    0    0  501    0  0.00000000000E+00  0.00000000000E+00  0.60120949645E+03  0.60120949645E+03  0.00000000000E+00 0. -1.
         -2   -1    0    0    0  501 -0.00000000000E+00 -0.00000000000E+00 -0.15924329271E+02  0.15924329271E+02  0.00000000000E+00 0.  1.
         23    2    1    2    0    0  0.17103211933E+02  0.36732284651E+01  0.19391415725E+03  0.21501830852E+03  0.91236835501E+02 0.  0.
         23    2    1    2    0    0 -0.17103211933E+02 -0.36732284651E+01  0.39137100993E+03  0.40211551719E+03  0.90662060931E+02 0.  0.
          5    1    3    3  502    0 -0.36543717818E+01  0.25287669044E+02  0.17961313544E+03  0.18148220040E+03  0.47000000000E+01 0. -1.
         -5    1    4    4    0  503  0.12261838839E+02 -0.41399175431E+02  0.15860255631E+03  0.16444179909E+03  0.47000000000E+01 0.  1.
          5    1    4    4  503    0 -0.29365050772E+02  0.37725946966E+02  0.23276845362E+03  0.23767371811E+03  0.47000000000E+01 0. -1.
         -5    1    3    3    0  502  0.20757583715E+02 -0.21614440579E+02  0.14301021806E+02  0.33536108121E+02  0.47000000000E+01 0.  1.
<mgrwt>
<rscale>  0 0.92757293E+02</rscale>
<asrwt>0</asrwt>
<pdfrwt beam="1">  1        2 0.92493751E-01 0.92898722E+02</pdfrwt>
<pdfrwt beam="2">  1       -2 0.24498973E-02 0.92898722E+02</pdfrwt>
<totfact> 0.26088084E+04</totfact>
</mgrwt>
</event>
<event>
 8    1  0.3400573E-004  0.1736634E+03  0.7546771E-02  0.1174729E+00
          1   -1    0    0  501    0  0.00000000000E+00  0.00000000000E+00  0.12475791086E+04  0.12475791086E+04  0.00000000000E+00 0. -1.
         -1   -1    0    0    0  501 -0.00000000000E+00 -0.00000000000E+00 -0.23865236634E+02  0.23865236634E+02  0.00000000000E+00 0.  1.
         23    2    1    2    0    0 -0.83923774003E+02  0.12019876492E+03  0.58031533814E+03  0.60502055655E+03  0.88278192309E+02 0.  0.
         23    2    1    2    0    0  0.83923774003E+02 -0.12019876492E+03  0.64339853381E+03  0.66642378867E+03  0.93102362283E+02 0.  0.
          5    1    4    4  502    0  0.59212872235E+02 -0.50792849348E+02  0.48990751676E+03  0.49610235109E+03  0.47000000000E+01 0. -1.
         -5    1    4    4    0  502  0.24710901768E+02 -0.69405915568E+02  0.15349101705E+03  0.17032143758E+03  0.47000000000E+01 0.  1.
          5    1    3    3  503    0 -0.36578576103E+02  0.11768462030E+03  0.42986002700E+03  0.44720173847E+03  0.47000000000E+01 0. -1.
         -5    1    3    3    0  503 -0.47345197900E+02  0.25141446124E+01  0.15045531115E+03  0.15781881808E+03  0.47000000000E+01 0.  1.
<mgrwt>
<rscale>  0 0.17302549E+03</rscale>
<asrwt>0</asrwt>
<pdfrwt beam="1">  1        1 0.19193520E+00 0.17366345E+03</pdfrwt>
<pdfrwt beam="2">  1       -1 0.36715758E-02 0.17366345E+03</pdfrwt>
<totfact> 0.29455178E+03</totfact>
</mgrwt>
</event>
<event>
 8    1  0.3400573E-004  0.9462477E+02  0.7546771E-02  0.1292908E+00
         -2   -1    0    0    0  501 -0.00000000000E+00  0.00000000000E+00  0.17148262493E+03  0.17148262493E+03  0.00000000000E+00 0.  1.
          2   -1    0    0  501    0  0.00000000000E+00 -0.00000000000E+00 -0.60346461364E+02  0.60346461364E+02  0.00000000000E+00 0. -1.
         23    2    1    2    0    0 -0.93110240563E+00  0.14640590918E+02  0.99899164129E+02  0.13653943252E+03  0.91912783575E+02 0.  0.
         23    2    1    2    0    0  0.93110240563E+00 -0.14640590918E+02  0.11236999441E+02  0.95289653779E+02  0.93480661673E+02 0.  0.
          5    1    4    4  502    0 -0.21350852205E+02 -0.43146349201E+02 -0.14667246218E+02  0.50543886385E+02  0.47000000000E+01 0. -1.
         -5    1    3    3    0  503 -0.39800637554E+02  0.19910661798E+02  0.81459172628E+02  0.92941981947E+02  0.47000000000E+01 0.  1.
          5    1    3    3  503    0  0.38869535149E+02 -0.52700708801E+01  0.18439991501E+02  0.43597450571E+02  0.47000000000E+01 0. -1.
         -5    1    4    4    0  502  0.22281954610E+02  0.28505758283E+02  0.25904245659E+02  0.44745767394E+02  0.47000000000E+01 0.  1.
<mgrwt>
<rscale>  0 0.94235225E+02</rscale>
<asrwt>0</asrwt>
<pdfrwt beam="1">  1        2 0.92840711E-02 0.94624775E+02</pdfrwt>
<pdfrwt beam="2">  1       -2 0.26381942E-01 0.94624775E+02</pdfrwt>
<totfact> 0.82823458E+03</totfact>
</mgrwt>
</event>
<event>
 8    1  0.3400573E-004  0.1498200E+03  0.7546771E-02  0.1202134E+00
         -1   -1    0    0    0  501 -0.00000000000E+00  0.00000000000E+00  0.30146379610E+02  0.30146379610E+02  0.00000000000E+00 0.  1.
          1   -1    0    0  501    0  0.00000000000E+00 -0.00000000000E+00 -0.73043808024E+03  0.73043808024E+03  0.00000000000E+00 0. -1.
         23    2    1    2    0    0 -0.11562922972E+03 -0.26618905817E+02 -0.39670312678E+03  0.42405117335E+03  0.91473175905E+02 0.  0.
         23    2    1    2    0    0  0.11562922972E+03  0.26618905817E+02 -0.30358857386E+03  0.33653328651E+03  0.83725419310E+02 0.  0.
          5    1    4    4  502    0  0.11254548125E+03 -0.39955930762E+01 -0.21713249803E+03  0.24464476658E+03  0.47000000000E+01 0. -1.
         -5    1    4    4    0  502  0.30837484682E+01  0.30614498893E+02 -0.86456075830E+02  0.91888519930E+02  0.47000000000E+01 0.  1.
          5    1    3    3  503    0 -0.78477609149E+02 -0.58917381612E+02 -0.22840872402E+03  0.24864156572E+03  0.47000000000E+01 0. -1.
         -5    1    3    3    0  503 -0.37151620571E+02  0.32298475795E+02 -0.16829440275E+03  0.17540960763E+03  0.47000000000E+01 0.  1.
<mgrwt>
<rscale>  0 0.14865631E+03</rscale>
<asrwt>0</asrwt>
<pdfrwt beam="1">  1        1 0.11237508E+00 0.14981998E+03</pdfrwt>
<pdfrwt beam="2">  1       -1 0.46379050E-02 0.14981998E+03</pdfrwt>
<totfact> 0.50811002E+03</totfact>
</mgrwt>
</event>
<event>
 8    1  0.3400573E-004  0.2217706E+03  0.7546771E-02  0.1133058E+00
         -2   -1    0    0    0  501 -0.00000000000E+00  0.00000000000E+00  0.51858189165E+02  0.51858189165E+02  0.00000000000E+00 0.  1.
          2   -1    0    0  501    0  0.00000000000E+00 -0.00000000000E+00 -0.93903101183E+03  0.93903101183E+03  0.00000000000E+00 0. -1.
         23    2    1    2    0    0 -0.19728762557E+03  0.31901491200E+02 -0.41899149557E+03  0.47283905213E+03  0.89904301946E+02 0.  0.
         23    2    1    2    0    0  0.19728762557E+03 -0.31901491200E+02 -0.46818132709E+03  0.51805014887E+03  0.96135786049E+02 0.  0.
          5    1    3    3  502    0 -0.11468300138E+02  0.29558418272E+02 -0.80794698806E+02  0.86920051507E+02  0.47000000000E+01 0. -1.
         -5    1    4    4    0  503  0.13165665286E+03 -0.37252610188E+02 -0.20354356992E+03  0.24530247872E+03  0.47000000000E+01 0.  1.
          5    1    4    4  503    0  0.65630972719E+02  0.53511189885E+01 -0.26463775717E+03  0.27274767015E+03  0.47000000000E+01 0. -1.
         -5    1    3    3    0  502 -0.18581932544E+03  0.23430729272E+01 -0.33819679677E+03  0.38591900062E+03  0.47000000000E+01 0.  1.
<mgrwt>
<rscale>  0 0.22111033E+03</rscale>
<asrwt>0</asrwt>
<pdfrwt beam="1">  1        2 0.14446631E+00 0.22177061E+03</pdfrwt>
<pdfrwt beam="2">  1       -2 0.79781829E-02 0.22177061E+03</pdfrwt>
<totfact> 0.27101143E+03</totfact>
</mgrwt>
</event>
<event>
 8    1  0.3400573E-004  0.9899101E+02  0.7546771E-02  0.1284134E+00
         -1   -1    0    0    0  501 -0.00000000000E+00  0.00000000000E+00  0.19065478595E+03  0.19065478595E+03  0.00000000000E+00 0.  1.
          1   -1    0    0  501    0  0.00000000000E+00 -0.00000000000E+00 -0.12819774472E+03  0.12819774472E+03  0.00000000000E+00 0. -1.
         23    2    1    2    0    0 -0.29307361479E+02 -0.24834013077E+01  0.15571458933E+03  0.18285183198E+03  0.91228670992E+02 0.  0.
         23    2    1    2    0    0  0.29307361479E+02  0.24834013077E+01 -0.93257548099E+02  0.13600069869E+03  0.94520532407E+02 0.  0.
          5    1    4    4  502    0  0.52364202086E+02  0.28134576544E+02 -0.77515461864E+02  0.97797243752E+02  0.47000000000E+01 0. -1.
         -5    1    4    4    0  502 -0.23056840607E+02 -0.25651175236E+02 -0.15742086235E+02  0.38203454933E+02  0.47000000000E+01 0.  1.
          5    1    3    3  503    0 -0.50175442692E+02  0.62218204188E+01  0.39411131617E+02  0.64277627476E+02  0.47000000000E+01 0. -1.
         -5    1    3    3    0  503  0.20868081212E+02 -0.87052217265E+01  0.11630345771E+03  0.11857420451E+03  0.47000000000E+01 0.  1.
<mgrwt>
<rscale>  0 0.98196953E+02</rscale>
<asrwt>0</asrwt>
<pdfrwt beam="1">  1        1 0.19722730E-01 0.98991009E+02</pdfrwt>
<pdfrwt beam="2">  1       -1 0.29331505E-01 0.98991009E+02</pdfrwt>
<totfact> 0.26320876E+03</totfact>
</mgrwt>
</event>
<event>
 8    1  0.3400573E-004  0.9276926E+02  0.7546771E-02  0.1297748E+00
         -2   -1    0    0    0  501 -0.00000000000E+00  0.00000000000E+00  0.36291606993E+03  0.36291606993E+03  0.00000000000E+00 0. -1.
          2   -1    0    0  501    0  0.00000000000E+00 -0.00000000000E+00 -0.23826305025E+02  0.23826305025E+02  0.00000000000E+00 0.  1.
         23    2    1    2    0    0 -0.15676802022E+02  0.12180985302E+02  0.13760908765E+03  0.16595901911E+03  0.90620066735E+02 0.  0.
         23    2    1    2    0    0  0.15676802022E+02 -0.12180985302E+02  0.20148067726E+03  0.22078335585E+03  0.88072063602E+02 0.  0.
          5    1    3    3  502    0  0.31564641460E+01  0.49845779719E+02  0.80397198962E+02  0.94764785773E+02  0.47000000000E+01 0. -1.
         -5    1    3    3    0  502 -0.18833266168E+02 -0.37664794417E+02  0.57211888689E+02  0.71194233336E+02  0.47000000000E+01 0.  1.
          5    1    4    4  503    0  0.35872674737E+02 -0.26684739523E+02  0.18546635643E+03  0.19083706004E+03  0.47000000000E+01 0. -1.
         -5    1    4    4    0  503 -0.20195872715E+02  0.14503754221E+02  0.16014320825E+02  0.29946295809E+02  0.47000000000E+01 0.  1.
<mgrwt>
<rscale>  0 0.92141073E+02</rscale>
<asrwt>0</asrwt>
<pdfrwt beam="1">  1        2 0.36655856E-02 0.92769257E+02</pdfrwt>
<pdfrwt beam="2">  1       -2 0.55833238E-01 0.92769257E+02</pdfrwt>
<totfact> 0.66561621E+03</totfact>
</mgrwt>
</event>
<event>
 8    1  0.3400573E-004  0.1156956E+03  0.7546771E-02  0.1250755E+00
         -1   -1    0    0    0  501 -0.00000000000E+00  0.00000000000E+00  0.65896839347E+02  0.65896839347E+02  0.00000000000E+00 0.  1.
          1   -1    0    0  501    0  0.00000000000E+00 -0.00000000000E+00 -0.22245791922E+03  0.22245791922E+03  0.00000000000E+00 0. -1.
         23    2    1    2    0    0  0.67582957532E+02 -0.15405226451E+02 -0.34387771437E+02  0.12069796001E+03  0.92632076391E+02 0.  0.
         23    2    1    2    0    0 -0.67582957532E+02  0.15405226451E+02 -0.12217330844E+03  0.16765679855E+03  0.91529818398E+02 0.  0.
          5    1    3    3  502    0 -0.17635868671E+02 -0.21390578098E+02 -0.18550229166E+02  0.33686521003E+02  0.47000000000E+01 0. -1.
         -5    1    3    3    0  502  0.85218826203E+02  0.59853516462E+01 -0.15837542271E+02  0.87011439012E+02  0.47000000000E+01 0.  1.
          5    1    4    4  503    0 -0.81677346723E+02  0.30830603476E+02 -0.11620943124E+03  0.14542502188E+03  0.47000000000E+01 0. -1.
         -5    1    4    4    0  503  0.14094389191E+02 -0.15425377024E+02 -0.59638771959E+01  0.22231776677E+02  0.47000000000E+01 0.  1.
<mgrwt>
<rscale>  0 0.11547484E+03</rscale>
<asrwt>0</asrwt>
<pdfrwt beam="1">  1        1 0.34224295E-01 0.11569563E+03</pdfrwt>
<pdfrwt beam="2">  1       -1 0.10137975E-01 0.11569563E+03</pdfrwt>
<totfact> 0.71740704E+03</totfact>
</mgrwt>
</event>
<event>
 8    1  0.3400573E-004  0.1167439E+03  0.7546771E-02  0.1248765E+00
         -2   -1    0    0    0  501 -0.00000000000E+00  0.00000000000E+00  0.16114371901E+02  0.16114371901E+02  0.00000000000E+00 0.  1.
          2   -1    0    0  501    0  0.00000000000E+00 -0.00000000000E+00 -0.84535131382E+03  0.84535131382E+03  0.00000000000E+00 0. -1.
         23    2    1    2    0    0 -0.22369209712E+02  0.68778129767E+02 -0.39012311897E+03  0.40721638841E+03  0.91642382962E+02 0.  0.
         23    2    1    2    0    0  0.22369209712E+02 -0.68778129767E+02 -0.43911382294E+03  0.45424929731E+03  0.91053072040E+02 0.  0.
          5    1    4    4  502    0  0.41212441558E+02 -0.58595817978E+02 -0.41689801153E+03  0.42303425067E+03  0.47000000000E+01 0. -1.
         -5    1    4    4    0  502 -0.18843231846E+02 -0.10182311789E+02 -0.22215811412E+02  0.31215046635E+02  0.47000000000E+01 0.  1.
          5    1    3    3  503    0  0.25497482650E+01 -0.20725280952E+02 -0.10961460894E+03  0.11168478401E+03  0.47000000000E+01 0. -1.
         -5    1    3    3    0  503 -0.24918957977E+02  0.89503410719E+02 -0.28050851004E+03  0.29553160440E+03  0.47000000000E+01 0.  1.
<mgrwt>
<rscale>  0 0.11662822E+03</rscale>
<asrwt>0</asrwt>
<pdfrwt beam="1">  1        2 0.13005402E+00 0.11674390E+03</pdfrwt>
<pdfrwt beam="2">  1       -2 0.24791347E-02 0.11674390E+03</pdfrwt>
<totfact> 0.17484157E+04</totfact>
</mgrwt>
</event>
<event>
 8    1  0.3400573E-004  0.9158297E+02  0.7546771E-02  0.1299631E+00
          1   -1    0    0  501    0  0.00000000000E+00  0.00000000000E+00  0.20310545145E+03  0.20310545145E+03  0.00000000000E+00 0. -1.
         -1   -1    0    0    0  501 -0.00000000000E+00 -0.00000000000E+00 -0.42006284357E+02  0.42006284357E+02  0.00000000000E+00 0.  1.
         23    2    1    2    0    0  0.12015120967E+02  0.24953644256E+01  0.59951952135E+02  0.10866320965E+03  0.89793466309E+02 0.  0.
         23    2    1    2    0    0 -0.12015120967E+02 -0.24953644256E+01  0.10114721496E+03  0.13644852615E+03  0.90757100111E+02 0.  0.
          5    1    4    4  502    0  0.35435759747E+02 -0.18644541706E+02  0.35487833374E+02  0.53710225487E+02  0.47000000000E+01 0. -1.
         -5    1    4    4    0  502 -0.47450880714E+02  0.16149177280E+02  0.65659381583E+02  0.82738300667E+02  0.47000000000E+01 0.  1.
          5    1    3    3  503    0  0.24148833535E+02 -0.29798259930E+02  0.62793664046E+02  0.73730839547E+02  0.47000000000E+01 0. -1.
         -5    1    3    3    0  503 -0.12133712568E+02  0.32293624355E+02 -0.28417119107E+01  0.34932370107E+02  0.47000000000E+01 0.  1.
<mgrwt>
<rscale>  0 0.91343322E+02</rscale>
<asrwt>0</asrwt>
<pdfrwt beam="1">  1        1 0.31246992E-01 0.91582974E+02</pdfrwt>
<pdfrwt beam="2">  1       -1 0.64625054E-02 0.91582974E+02</pdfrwt>
<totfact> 0.15439008E+04</totfact>
</mgrwt>
</event>
<event>
 8    1  0.3400573E-004  0.1273275E+03  0.7546771E-02  0.1233353E+00
         -4   -1    0    0    0  501 -0.00000000000E+00  0.00000000000E+00  0.90578339659E+02  0.90578339659E+02  0.00000000000E+00 0.  1.
          4   -1    0    0  501    0  0.00000000000E+00 -0.00000000000E+00 -0.44341299605E+03  0.44341299605E+03  0.00000000000E+00 0. -1.
         23    2    1    2    0    0  0.75821941510E+02 -0.23624869558E+02  0.31028823526E+02  0.13105377365E+03  0.99524883437E+02 0.  0.
         23    2    1    2    0    0 -0.75821941510E+02  0.23624869558E+02 -0.38386347991E+03  0.40293756205E+03  0.93275969180E+02 0.  0.
          5    1    3    3  502    0 -0.17335619331E+02 -0.23470282128E+02 -0.69193671277E+01  0.30353673290E+02  0.47000000000E+01 0. -1.
         -5    1    4    4    0  503 -0.21585260842E+02  0.37656330451E+02 -0.59840286606E+02  0.74073427150E+02  0.47000000000E+01 0.  1.
          5    1    4    4  503    0 -0.54236680667E+02 -0.14031460893E+02 -0.32402319331E+03  0.32886413490E+03  0.47000000000E+01 0. -1.
         -5    1    3    3    0  502  0.93157560841E+02 -0.15458742997E+00  0.37948190653E+02  0.10070010036E+03  0.47000000000E+01 0.  1.
<mgrwt>
<rscale>  0 0.12610443E+03</rscale>
<asrwt>0</asrwt>
<pdfrwt beam="1">  1        4 0.68217384E-01 0.12732754E+03</pdfrwt>
<pdfrwt beam="2">  1       -4 0.13935129E-01 0.12732754E+03</pdfrwt>
<totfact> 0.14314353E+02</totfact>
</mgrwt>
</event>
<event>
 8    1  0.3400573E-004  0.9039978E+02  0.7546771E-02  0.1302274E+00
         -2   -1    0    0    0  501 -0.00000000000E+00  0.00000000000E+00  0.50239089790E+02  0.50239089790E+02  0.00000000000E+00 0.  1.
          2   -1    0    0  501    0  0.00000000000E+00 -0.00000000000E+00 -0.28024780938E+03  0.28024780938E+03  0.00000000000E+00 0. -1.
         23    2    1    2    0    0  0.36828328962E+01 -0.25534606628E+01 -0.72097193641E+01  0.90046647441E+02  0.89645609165E+02 0.  0.
         23    2    1    2    0    0 -0.36828328962E+01  0.25534606628E+01 -0.22279900023E+03  0.24044025173E+03  0.90288630125E+02 0.  0.
          5    1    4    4  502    0  0.36432046201E+02 -0.22267464152E+02 -0.10936451335E+03  0.11749817331E+03  0.47000000000E+01 0. -1.
         -5    1    3    3    0  503 -0.39393071083E+02 -0.76846229663E+01  0.12312861322E+02  0.42244100575E+02  0.47000000000E+01 0.  1.
          5    1    3    3  503    0  0.43075903979E+02  0.51311623035E+01 -0.19522580686E+02  0.47802546866E+02  0.47000000000E+01 0. -1.
         -5    1    4    4    0  502 -0.40114879098E+02  0.24820924814E+02 -0.11343448688E+03  0.12294207842E+03  0.47000000000E+01 0.  1.
<mgrwt>
<rscale>  0 0.90238794E+02</rscale>
<asrwt>0</asrwt>
<pdfrwt beam="1">  1        2 0.43115048E-01 0.90399780E+02</pdfrwt>
<pdfrwt beam="2">  1       -2 0.77290907E-02 0.90399780E+02</pdfrwt>
<totfact> 0.10724224E+04</totfact>
</mgrwt>
</event>
<event>
 8    1  0.3400573E-004  0.1808700E+03  0.7546771E-02  0.1167218E+00
         -1   -1    0    0    0  501 -0.00000000000E+00  0.00000000000E+00  0.16358968448E+03  0.16358968448E+03  0.00000000000E+00 0.  1.
          1   -1    0    0  501    0  0.00000000000E+00 -0.00000000000E+00 -0.19906521370E+03  0.19906521370E+03  0.00000000000E+00 0. -1.
         23    2    1    2    0    0 -0.75411515843E+02 -0.13627083140E+03 -0.11312860478E+02  0.18122347428E+03  0.91963746156E+02 0.  0.
         23    2    1    2    0    0  0.75411515843E+02  0.13627083140E+03 -0.24162668742E+02  0.18143142389E+03  0.89871523881E+02 0.  0.
          5    1    3    3  502    0 -0.41882962242E+02 -0.89882353279E+01 -0.23267085292E+02  0.48973647592E+02  0.47000000000E+01 0. -1.
         -5    1    3    3    0  502 -0.33528553602E+02 -0.12728259607E+03  0.11954224814E+02  0.13224982669E+03  0.47000000000E+01 0.  1.
          5    1    4    4  503    0 -0.15321684359E+02  0.48810349706E+02  0.61154530582E+01  0.51736766580E+02  0.47000000000E+01 0. -1.
         -5    1    4    4    0  503  0.90733200202E+02  0.87460481690E+02 -0.30278121800E+02  0.12969465732E+03  0.47000000000E+01 0.  1.
<mgrwt>
<rscale>  0 0.18060576E+03</rscale>
<asrwt>0</asrwt>
<pdfrwt beam="1">  1        1 0.30625417E-01 0.18087003E+03</pdfrwt>
<pdfrwt beam="2">  1       -1 0.25167644E-01 0.18087003E+03</pdfrwt>
<totfact> 0.20024925E+03</totfact>
</mgrwt>
</event>
<event>
 8    1  0.3400573E-004  0.1148130E+03  0.7546771E-02  0.1252332E+00
         -3   -1    0    0    0  501 -0.00000000000E+00  0.00000000000E+00  0.74897721307E+02  0.74897721307E+02  0.00000000000E+00 0.  1.
          3   -1    0    0  501    0  0.00000000000E+00 -0.00000000000E+00 -0.24267766805E+03  0.24267766805E+03  0.00000000000E+00 0. -1.
         23    2    1    2    0    0 -0.24916793719E+02  0.63506111641E+02 -0.16829383953E+03  0.20372734665E+03  0.92347942713E+02 0.  0.
         23    2    1    2    0    0  0.24916793719E+02 -0.63506111641E+02  0.51389278699E+00  0.11384804271E+03  0.91144061343E+02 0.  0.
          5    1    4    4  502    0  0.51945511188E+02 -0.20556523146E+02 -0.19119776203E+02  0.59233120959E+02  0.47000000000E+01 0. -1.
         -5    1    3    3    0  503  0.30310890605E+01 -0.23050558662E+02 -0.36140786579E+02  0.43229182390E+02  0.47000000000E+01 0.  1.
          5    1    3    3  503    0 -0.27947882779E+02  0.86556670303E+02 -0.13215305295E+03  0.16049816426E+03  0.47000000000E+01 0. -1.
         -5    1    4    4    0  502 -0.27028717469E+02 -0.42949588495E+02  0.19633668990E+02  0.54614921751E+02  0.47000000000E+01 0.  1.
<mgrwt>
<rscale>  0 0.11457067E+03</rscale>
<asrwt>0</asrwt>
<pdfrwt beam="1">  1        3 0.37335026E-01 0.11481296E+03</pdfrwt>
<pdfrwt beam="2">  1       -3 0.11522726E-01 0.11481296E+03</pdfrwt>
<totfact> 0.92715814E+02</totfact>
</mgrwt>
</event>
<event>
 8    1  0.3400573E-004  0.1013436E+03  0.7546771E-02  0.1278335E+00
         -1   -1    0    0    0  501 -0.00000000000E+00  0.00000000000E+00  0.92960661324E+02  0.92960661324E+02  0.00000000000E+00 0.  1.
          1   -1    0    0  501    0  0.00000000000E+00 -0.00000000000E+00 -0.10881049555E+03  0.10881049555E+03  0.00000000000E+00 0. -1.
         23    2    1    2    0    0  0.32320724607E+02  0.27162540615E+02 -0.53095876471E+01  0.10148260878E+03  0.92130859713E+02 0.  0.
         23    2    1    2    0    0 -0.32320724607E+02 -0.27162540615E+02 -0.10540246578E+02  0.10028854810E+03  0.90356312616E+02 0.  0.
          5    1    3    3  502    0  0.60672486383E+02  0.21851299174E+01 -0.13876871204E+02  0.62454647153E+02  0.47000000000E+01 0. -1.
         -5    1    4    4    0  503 -0.59858331280E+02  0.10182301822E+01 -0.61131011673E+01  0.60361549204E+02  0.47000000000E+01 0.  1.
          5    1    4    4  503    0  0.27537606674E+02 -0.28180770797E+02 -0.44271454110E+01  0.39926998892E+02  0.47000000000E+01 0. -1.
         -5    1    3    3    0  502 -0.28351761776E+02  0.24977410698E+02  0.85672835565E+01  0.39027961624E+02  0.47000000000E+01 0.  1.
<mgrwt>
<rscale>  0 0.10093857E+03</rscale>
<asrwt>0</asrwt>
<pdfrwt beam="1">  1        1 0.16740076E-01 0.10134361E+03</pdfrwt>
<pdfrwt beam="2">  1       -1 0.14301640E-01 0.10134361E+03</pdfrwt>
<totfact> 0.10236069E+04</totfact>
</mgrwt>
</event>
<event>
 8    1  0.3400573E-004  0.1032924E+03  0.7546771E-02  0.1274039E+00
         -1   -1    0    0    0  501 -0.00000000000E+00  0.00000000000E+00  0.41877977154E+03  0.41877977154E+03  0.00000000000E+00 0.  1.
          1   -1    0    0  501    0  0.00000000000E+00 -0.00000000000E+00 -0.30509619587E+03  0.30509619587E+03  0.00000000000E+00 0. -1.
         23    2    1    2    0    0  0.26936802765E+02  0.39510620201E+02  0.40351744761E+03  0.41652809556E+03  0.91556777017E+02 0.  0.
         23    2    1    2    0    0 -0.26936802765E+02 -0.39510620201E+02 -0.28983387195E+03  0.30734787185E+03  0.90401109226E+02 0.  0.
          5    1    3    3  502    0  0.56640920017E+02  0.91355105835E+01  0.18069627450E+03  0.18964410087E+03  0.47000000000E+01 0. -1.
         -5    1    3    3    0  502 -0.29704117252E+02  0.30375109618E+02  0.22282117311E+03  0.22688399470E+03  0.47000000000E+01 0.  1.
          5    1    4    4  503    0 -0.52721910747E+02 -0.16401561271E+02 -0.24107044683E+03  0.24735735570E+03  0.47000000000E+01 0. -1.
         -5    1    4    4    0  503  0.25785107982E+02 -0.23109058930E+02 -0.48763425118E+02  0.59990516147E+02  0.47000000000E+01 0.  1.
<mgrwt>
<rscale>  0 0.10303572E+03</rscale>
<asrwt>0</asrwt>
<pdfrwt beam="1">  1        1 0.46937876E-01 0.10329242E+03</pdfrwt>
<pdfrwt beam="2">  1       -1 0.64427657E-01 0.10329242E+03</pdfrwt>
<totfact> 0.22360780E+02</totfact>
</mgrwt>
</event>
<event>
 8    1  0.3400573E-004  0.1172513E+03  0.7546771E-02  0.1257332E+00
         -2   -1    0    0    0  501 -0.00000000000E+00  0.00000000000E+00  0.58540089112E+02  0.58540089112E+02  0.00000000000E+00 0.  1.
          2   -1    0    0  501    0  0.00000000000E+00 -0.00000000000E+00 -0.19797600584E+03  0.19797600584E+03  0.00000000000E+00 0. -1.
         23    2    1    2    0    0  0.89506710361E+01 -0.31083720493E+02 -0.90046485470E+02  0.14783856864E+03  0.11270120071E+03 0.  0.
         23    2    1    2    0    0 -0.89506710361E+01  0.31083720493E+02 -0.49389431256E+02  0.10867752631E+03  0.91242405784E+02 0.  0.
          5    1    4    4  502    0  0.23785245911E+02 -0.15716850013E+02  0.53997977283E+01  0.29393963885E+02  0.47000000000E+01 0. -1.
         -5    1    4    4    0  502 -0.32735916947E+02  0.46800570506E+02 -0.54789228984E+02  0.79283562424E+02  0.47000000000E+01 0.  1.
          5    1    3    3  503    0  0.35475491464E+02  0.23286796238E+01 -0.97851299687E+02  0.10421564227E+03  0.47000000000E+01 0. -1.
         -5    1    3    3    0  503 -0.26524820427E+02 -0.33412400116E+02  0.78048142167E+01  0.43622926371E+02  0.47000000000E+01 0.  1.
<mgrwt>
<rscale>  0 0.11176720E+03</rscale>
<asrwt>0</asrwt>
<pdfrwt beam="1">  1        2 0.30457847E-01 0.11725132E+03</pdfrwt>
<pdfrwt beam="2">  1       -2 0.90061676E-02 0.11725132E+03</pdfrwt>
<totfact> 0.12534220E+04</totfact>
</mgrwt>
</event>
<event>
 8    1  0.3400573E-004  0.1366282E+03  0.7546771E-02  0.1219876E+00
          1   -1    0    0  501    0  0.00000000000E+00  0.00000000000E+00  0.11277547398E+03  0.11277547398E+03  0.00000000000E+00 0. -1.
         -1   -1    0    0    0  501 -0.00000000000E+00 -0.00000000000E+00 -0.16568117898E+03  0.16568117898E+03  0.00000000000E+00 0.  1.
         23    2    1    2    0    0 -0.49302309386E+02  0.86064042702E+02 -0.53924271444E+02  0.14182462168E+03  0.85840894148E+02 0.  0.
         23    2    1    2    0    0  0.49302309386E+02 -0.86064042702E+02  0.10185664411E+01  0.13663203128E+03  0.93965617849E+02 0.  0.
          5    1    3    3  502    0  0.10712572922E+02  0.66999960411E+02 -0.29012848963E+02  0.73943149234E+02  0.47000000000E+01 0. -1.
         -5    1    4    4    0  503  0.32465438044E+02 -0.51611498435E+02 -0.45455243374E+02  0.76197247905E+02  0.47000000000E+01 0.  1.
          5    1    4    4  503    0  0.16836871342E+02 -0.34452544267E+02  0.46473809815E+02  0.60434783377E+02  0.47000000000E+01 0. -1.
         -5    1    3    3    0  502 -0.60014882307E+02  0.19064082291E+02 -0.24911422480E+02  0.67881472450E+02  0.47000000000E+01 0.  1.
<mgrwt>
<rscale>  0 0.13524356E+03</rscale>
<asrwt>0</asrwt>
<pdfrwt beam="1">  1        1 0.17350073E-01 0.13662823E+03</pdfrwt>
<pdfrwt beam="2">  1       -1 0.25489412E-01 0.13662823E+03</pdfrwt>
<totfact> 0.39780217E+03</totfact>
</mgrwt>
</event>
<event>
 8    1  0.3400573E-004  0.1016375E+03  0.7546771E-02  0.1277086E+00
         -1   -1    0    0    0  501 -0.00000000000E+00  0.00000000000E+00  0.52592584136E+03  0.52592584136E+03  0.00000000000E+00 0.  1.
          1   -1    0    0  501    0  0.00000000000E+00 -0.00000000000E+00 -0.23143488325E+02  0.23143488325E+02  0.00000000000E+00 0. -1.
         23    2    1    2    0    0 -0.11330081761E+02 -0.41527441967E+02  0.14388870678E+03  0.17616508457E+03  0.92072134183E+02 0.  0.
         23    2    1    2    0    0  0.11330081761E+02  0.41527441967E+02  0.35889364626E+03  0.37290424512E+03  0.91651664003E+02 0.  0.
          5    1    4    4  502    0  0.35438152147E-01  0.69834654355E+02  0.23277974422E+03  0.24307484347E+03  0.47000000000E+01 0. -1.
         -5    1    3    3    0  503 -0.49090979627E+02 -0.38379222882E+02  0.10074690106E+03  0.11855343565E+03  0.47000000000E+01 0.  1.
          5    1    3    3  503    0  0.37760897865E+02 -0.31482190850E+01  0.43141805716E+02  0.57611648921E+02  0.47000000000E+01 0. -1.
         -5    1    4    4    0  502  0.11294643609E+02 -0.28307212389E+02  0.12611390203E+03  0.12982940165E+03  0.47000000000E+01 0.  1.
<mgrwt>
<rscale>  0 0.10154216E+03</rscale>
<asrwt>0</asrwt>
<pdfrwt beam="1">  1        1 0.35605371E-02 0.10163748E+03</pdfrwt>
<pdfrwt beam="2">  1       -1 0.80911659E-01 0.10163748E+03</pdfrwt>
<totfact> 0.40054844E+03</totfact>
</mgrwt>
</event>
<event>
 8    1  0.3400573E-004  0.9987385E+02  0.7546771E-02  0.1285761E+00
         -2   -1    0    0    0  501 -0.00000000000E+00  0.00000000000E+00  0.76009944126E+02  0.76009944126E+02  0.00000000000E+00 0.  1.
          2   -1    0    0  501    0  0.00000000000E+00 -0.00000000000E+00 -0.12009055250E+03  0.12009055250E+03  0.00000000000E+00 0. -1.
         23    2    1    2    0    0  0.49106393663E+01  0.22324378623E+02 -0.12601803972E+02  0.91383250376E+02  0.87576256634E+02 0.  0.
         23    2    1    2    0    0 -0.49106393663E+01 -0.22324378623E+02 -0.31478804405E+02  0.10471724625E+03  0.97222910244E+02 0.  0.
          5    1    4    4  502    0 -0.37077029752E+01 -0.55022301667E+02  0.48998000290E+01  0.55563466257E+02  0.47000000000E+01 0. -1.
         -5    1    3    3    0  503 -0.13061589638E+02  0.50212494101E+02  0.69970520595E+01  0.52563755814E+02  0.47000000000E+01 0.  1.
          5    1    3    3  503    0  0.17972229005E+02 -0.27888115478E+02 -0.19598856032E+02  0.38819494562E+02  0.47000000000E+01 0. -1.
         -5    1    4    4    0  502 -0.12029363911E+01  0.32697923045E+02 -0.36378604434E+02  0.49153779997E+02  0.47000000000E+01 0.  1.
<mgrwt>
<rscale>  0 0.97445820E+02</rscale>
<asrwt>0</asrwt>
<pdfrwt beam="1">  1        2 0.18475470E-01 0.99873853E+02</pdfrwt>
<pdfrwt beam="2">  1       -2 0.11693838E-01 0.99873853E+02</pdfrwt>
<totfact> 0.14232028E+04</totfact>
</mgrwt>
</event>
<event>
 8    1  0.3400573E-004  0.9782231E+02  0.7546771E-02  0.1285574E+00
         -1   -1    0    0    0  501 -0.00000000000E+00  0.00000000000E+00  0.12669056197E+04  0.12669056197E+04  0.00000000000E+00 0.  1.
          1   -1    0    0  501    0  0.00000000000E+00 -0.00000000000E+00 -0.76475252528E+01  0.76475252528E+01  0.00000000000E+00 0. -1.
         23    2    1    2    0    0  0.36664629026E+02 -0.14668008631E+00  0.72466910866E+03  0.73108779293E+03  0.89441195119E+02 0.  0.
         23    2    1    2    0    0 -0.36664629026E+02  0.14668008631E+00  0.53458898577E+03  0.54346535201E+03  0.90691171513E+02 0.  0.
          5    1    4    4  502    0  0.17125123886E+02  0.29042916792E+02  0.25399610398E+03  0.25626718814E+03  0.47000000000E+01 0. -1.
         -5    1    4    4    0  502 -0.53789752912E+02 -0.28896236705E+02  0.28059288179E+03  0.28719816387E+03  0.47000000000E+01 0.  1.
          5    1    3    3  503    0 -0.13551468255E+02  0.32532947912E+02  0.32234458237E+03  0.32429948316E+03  0.47000000000E+01 0. -1.
         -5    1    3    3    0  503  0.50216097282E+02 -0.32679627998E+02  0.40232452629E+03  0.40678830977E+03  0.47000000000E+01 0.  1.
<mgrwt>
<rscale>  0 0.97531591E+02</rscale>
<asrwt>0</asrwt>
<pdfrwt beam="1">  1        1 0.11765434E-02 0.97822314E+02</pdfrwt>
<pdfrwt beam="2">  1       -1 0.19490839E+00 0.97822314E+02</pdfrwt>
<totfact> 0.22036958E+03</totfact>
</mgrwt>
</event>
<event>
 8    1  0.3400573E-004  0.1143387E+03  0.7546771E-02  0.1254550E+00
          2   -1    0    0  501    0  0.00000000000E+00  0.00000000000E+00  0.92066119097E+03  0.92066119097E+03  0.00000000000E+00 0. -1.
         -2   -1    0    0    0  501 -0.00000000000E+00 -0.00000000000E+00 -0.34469339535E+02  0.34469339535E+02  0.00000000000E+00 0.  1.
         23    2    1    2    0    0 -0.24461154371E+02  0.58166819104E+02  0.81691510923E+03  0.82487794419E+03  0.95349883061E+02 0.  0.
         23    2    1    2    0    0  0.24461154371E+02 -0.58166819104E+02  0.69276742197E+02  0.13025258631E+03  0.90469565673E+02 0.  0.
          5    1    3    3  502    0 -0.57382183000E+02  0.39826376761E+02  0.64667568134E+03  0.65045398150E+03  0.47000000000E+01 0. -1.
         -5    1    4    4    0  503 -0.26788881581E+02  0.59907752923E+01  0.14151384005E+02  0.31239161869E+02  0.47000000000E+01 0.  1.
          5    1    4    4  503    0  0.51250035952E+02 -0.64157594396E+02  0.55125358191E+02  0.99013424441E+02  0.47000000000E+01 0. -1.
         -5    1    3    3    0  502  0.32921028629E+02  0.18340442342E+02  0.17023942789E+03  0.17442396269E+03  0.47000000000E+01 0.  1.
<mgrwt>
<rscale>  0 0.11331577E+03</rscale>
<asrwt>0</asrwt>
<pdfrwt beam="1">  1        2 0.14164016E+00 0.11433865E+03</pdfrwt>
<pdfrwt beam="2">  1       -2 0.53029760E-02 0.11433865E+03</pdfrwt>
<totfact> 0.50976932E+03</totfact>
</mgrwt>
</event>
<event>
 8    1  0.3400573E-004  0.1027395E+03  0.7546771E-02  0.1276401E+00
         -1   -1    0    0    0  501 -0.00000000000E+00  0.00000000000E+00  0.35102280393E+03  0.35102280393E+03  0.00000000000E+00 0.  1.
          1   -1    0    0  501    0  0.00000000000E+00 -0.00000000000E+00 -0.38381687131E+02  0.38381687131E+02  0.00000000000E+00 0. -1.
         23    2    1    2    0    0 -0.31071661390E+02 -0.22071120553E+02  0.62480199808E+02  0.12024633220E+03  0.95408713101E+02 0.  0.
         23    2    1    2    0    0  0.31071661390E+02  0.22071120553E+02  0.25016091699E+03  0.26915815886E+03  0.91722666705E+02 0.  0.
          5    1    4    4  502    0 -0.24040686021E+02 -0.16695651886E+02  0.10404151096E+03  0.10818237092E+03  0.47000000000E+01 0. -1.
         -5    1    4    4    0  502  0.55112347411E+02  0.38766772439E+02  0.14611940603E+03  0.16097578793E+03  0.47000000000E+01 0.  1.
          5    1    3    3  503    0 -0.52549195384E+02  0.10275910658E+02  0.60723742696E+02  0.81095469679E+02  0.47000000000E+01 0. -1.
         -5    1    3    3    0  503  0.21477533993E+02 -0.32347031212E+02  0.17564571119E+01  0.39150862522E+02  0.47000000000E+01 0.  1.
<mgrwt>
<rscale>  0 0.10187525E+03</rscale>
<asrwt>0</asrwt>
<pdfrwt beam="1">  1        1 0.59048752E-02 0.10273950E+03</pdfrwt>
<pdfrwt beam="2">  1       -1 0.54003506E-01 0.10273950E+03</pdfrwt>
<totfact> 0.44052752E+03</totfact>
</mgrwt>
</event>
<event>
 8    1  0.3400573E-004  0.1372698E+03  0.7546771E-02  0.1217162E+00
         -2   -1    0    0    0  501 -0.00000000000E+00  0.00000000000E+00  0.46723953147E+02  0.46723953147E+02  0.00000000000E+00 0.  1.
          2   -1    0    0  501    0  0.00000000000E+00 -0.00000000000E+00 -0.49252709101E+03  0.49252709101E+03  0.00000000000E+00 0. -1.
         23    2    1    2    0    0  0.34068312281E+02  0.96566805048E+02 -0.10773861959E+03  0.17450100603E+03  0.91417685472E+02 0.  0.
         23    2    1    2    0    0 -0.34068312281E+02 -0.96566805048E+02 -0.33806451827E+03  0.36475003812E+03  0.90934999068E+02 0.  0.
          5    1    4    4  502    0 -0.48423197978E+02 -0.76419287400E+02 -0.32287365897E+03  0.33534191990E+03  0.47000000000E+01 0. -1.
         -5    1    4    4    0  502  0.14354885696E+02 -0.20147517648E+02 -0.15190859306E+02  0.29408118219E+02  0.47000000000E+01 0.  1.
          5    1    3    3  503    0 -0.18463024996E+02  0.30844532161E+02 -0.76452513906E+02  0.84612914728E+02  0.47000000000E+01 0. -1.
         -5    1    3    3    0  503  0.52531337278E+02  0.65722272887E+02 -0.31286105679E+02  0.89888091304E+02  0.47000000000E+01 0.  1.
<mgrwt>
<rscale>  0 0.13718946E+03</rscale>
<asrwt>0</asrwt>
<pdfrwt beam="1">  1        2 0.75773398E-01 0.13726977E+03</pdfrwt>
<pdfrwt beam="2">  1       -2 0.71883006E-02 0.13726977E+03</pdfrwt>
<totfact> 0.67915097E+03</totfact>
</mgrwt>
</event>
<event>
 8    1  0.3400573E-004  0.1149543E+03  0.7546771E-02  0.1251976E+00
          1   -1    0    0  501    0  0.00000000000E+00  0.00000000000E+00  0.24115733327E+03  0.24115733327E+03  0.00000000000E+00 0. -1.
         -1   -1    0    0    0  501 -0.00000000000E+00 -0.00000000000E+00 -0.78268020483E+02  0.78268020483E+02  0.00000000000E+00 0.  1.
         23    2    1    2    0    0  0.41009453302E+02 -0.48872151701E+02  0.16936464050E+03  0.20428884278E+03  0.94759101733E+02 0.  0.
         23    2    1    2    0    0 -0.41009453302E+02  0.48872151701E+02 -0.64753277128E+01  0.11513651097E+03  0.95625434995E+02 0.  0.
          5    1    3    3  502    0 -0.25711180427E+02 -0.38412990789E+02  0.72558623669E+02  0.86159541138E+02  0.47000000000E+01 0. -1.
         -5    1    4    4    0  503 -0.99379820649E+01 -0.28083077173E+02  0.69148745071E+01  0.30940720749E+02  0.47000000000E+01 0.  1.
          5    1    4    4  503    0 -0.31071471237E+02  0.76955228874E+02 -0.13390202220E+02  0.84195790224E+02  0.47000000000E+01 0. -1.
         -5    1    3    3    0  502  0.66720633729E+02 -0.10459160912E+02  0.96806016834E+02  0.11812930165E+03  0.47000000000E+01 0.  1.
<mgrwt>
<rscale>  0 0.11477394E+03</rscale>
<asrwt>0</asrwt>
<pdfrwt beam="1">  1        1 0.37101128E-01 0.11495428E+03</pdfrwt>
<pdfrwt beam="2">  1       -1 0.12041234E-01 0.11495428E+03</pdfrwt>
<totfact> 0.49910558E+03</totfact>
</mgrwt>
</event>
<event>
 8    1  0.3400573E-004  0.1141024E+03  0.7546771E-02  0.1253583E+00
         -1   -1    0    0    0  501 -0.00000000000E+00  0.00000000000E+00  0.70201755675E+02  0.70201755675E+02  0.00000000000E+00 0.  1.
          1   -1    0    0  501    0  0.00000000000E+00 -0.00000000000E+00 -0.26484338440E+03  0.26484338440E+03  0.00000000000E+00 0. -1.
         23    2    1    2    0    0  0.15539858501E+02 -0.65886770007E+02 -0.49922291511E+01  0.11421151720E+03  0.91852025803E+02 0.  0.
         23    2    1    2    0    0 -0.15539858501E+02  0.65886770007E+02 -0.18964939957E+03  0.22083362288E+03  0.90653409042E+02 0.  0.
          5    1    4    4  502    0 -0.34018797363E+02  0.81337187979E+02 -0.15483967098E+03  0.17824261677E+03  0.47000000000E+01 0. -1.
         -5    1    3    3    0  503  0.51887413018E+01 -0.38363019675E+02  0.42799650728E+02  0.57901160760E+02  0.47000000000E+01 0.  1.
          5    1    3    3  503    0  0.10351117199E+02 -0.27523750332E+02 -0.47791879879E+02  0.56310356436E+02  0.47000000000E+01 0. -1.
         -5    1    4    4    0  502  0.18478938862E+02 -0.15450417971E+02 -0.34809728590E+02  0.42591006110E+02  0.47000000000E+01 0.  1.
<mgrwt>
<rscale>  0 0.11386093E+03</rscale>
<asrwt>0</asrwt>
<pdfrwt beam="1">  1        1 0.40745137E-01 0.11410236E+03</pdfrwt>
<pdfrwt beam="2">  1       -1 0.10800270E-01 0.11410236E+03</pdfrwt>
<totfact> 0.52515251E+03</totfact>
</mgrwt>
</event>
<event>
 8    1  0.3400573E-004  0.1444113E+03  0.7546771E-02  0.1217988E+00
         -2   -1    0    0    0  501 -0.00000000000E+00  0.00000000000E+00  0.23564445502E+02  0.23564445502E+02  0.00000000000E+00 0.  1.
          2   -1    0    0  501    0  0.00000000000E+00 -0.00000000000E+00 -0.12169308162E+04  0.12169308162E+04  0.00000000000E+00 0. -1.
         23    2    1    2    0    0  0.62940709630E+01 -0.69756505133E+02 -0.16166832179E+03  0.19873930297E+03  0.91951503170E+02 0.  0.
         23    2    1    2    0    0 -0.62940709630E+01  0.69756505133E+02 -0.10316980489E+04  0.10417559587E+04  0.12628946158E+03 0.  0.
          5    1    4    4  502    0  0.27930364962E+02  0.95968536290E+02 -0.66110245796E+03  0.66863189810E+03  0.47000000000E+01 0. -1.
         -5    1    3    3    0  503  0.14384786115E+02 -0.31091039858E+02 -0.24930141992E+01  0.34668140285E+02  0.47000000000E+01 0.  1.
          5    1    3    3  503    0 -0.80907151518E+01 -0.38665465275E+02 -0.15917530759E+03  0.16407116268E+03  0.47000000000E+01 0. -1.
         -5    1    4    4    0  502 -0.34224435925E+02 -0.26212031157E+02 -0.37059559096E+03  0.37312406064E+03  0.47000000000E+01 0.  1.
<mgrwt>
<rscale>  0 0.13659327E+03</rscale>
<asrwt>0</asrwt>
<pdfrwt beam="1">  1        2 0.18722018E+00 0.14441126E+03</pdfrwt>
<pdfrwt beam="2">  1       -2 0.36252982E-02 0.14441126E+03</pdfrwt>
<totfact> 0.61037609E+03</totfact>
</mgrwt>
</event>
<event>
 8    1  0.3400573E-004  0.1266042E+03  0.7546771E-02  0.1237200E+00
         -1   -1    0    0    0  501 -0.00000000000E+00  0.00000000000E+00  0.18933652784E+03  0.18933652784E+03  0.00000000000E+00 0.  1.
          1   -1    0    0  501    0  0.00000000000E+00 -0.00000000000E+00 -0.35579187123E+03  0.35579187123E+03  0.00000000000E+00 0. -1.
         23    2    1    2    0    0 -0.25124708905E+02 -0.65166524158E+02  0.15705236426E+03  0.20172771867E+03  0.10559687729E+03 0.  0.
         23    2    1    2    0    0  0.25124708905E+02  0.65166524158E+02 -0.32350770766E+03  0.34340068040E+03  0.91590739237E+02 0.  0.
          5    1    4    4  502    0  0.17577256462E+01  0.60413268020E+02 -0.30943274516E+03  0.31531502712E+03  0.47000000000E+01 0. -1.
         -5    1    4    4    0  502  0.23366983259E+02  0.47532561386E+01 -0.14074962501E+02  0.28085653277E+02  0.47000000000E+01 0.  1.
          5    1    3    3  503    0 -0.51070584156E+02 -0.40015528844E+02  0.34013302791E+02  0.73406007121E+02  0.47000000000E+01 0. -1.
         -5    1    3    3    0  503  0.25945875251E+02 -0.25150995314E+02  0.12303906147E+03  0.12832171155E+03  0.47000000000E+01 0.  1.
<mgrwt>
<rscale>  0 0.12364651E+03</rscale>
<asrwt>0</asrwt>
<pdfrwt beam="1">  1        1 0.54737210E-01 0.12660422E+03</pdfrwt>
<pdfrwt beam="2">  1       -1 0.29128697E-01 0.12660422E+03</pdfrwt>
<totfact> 0.75733590E+02</totfact>
</mgrwt>
</event>
<event>
 8    1  0.3400573E-004  0.1224766E+03  0.7546771E-02  0.1239958E+00
         -1   -1    0    0    0  501 -0.00000000000E+00  0.00000000000E+00  0.76259774830E+02  0.76259774830E+02  0.00000000000E+00 0.  1.
          1   -1    0    0  501    0  0.00000000000E+00 -0.00000000000E+00 -0.21775570636E+03  0.21775570636E+03  0.00000000000E+00 0. -1.
         23    2    1    2    0    0  0.56315851416E+02  0.53980450774E+02 -0.21937790230E+02  0.12442585168E+03  0.94420134180E+02 0.  0.
         23    2    1    2    0    0 -0.56315851416E+02 -0.53980450774E+02 -0.11955814130E+03  0.16958962952E+03  0.91548506823E+02 0.  0.
          5    1    3    3  502    0 -0.41612248510E+01  0.44037839604E+02 -0.40559620421E+02  0.60198172048E+02  0.47000000000E+01 0. -1.
         -5    1    4    4    0  503 -0.56349543490E+02 -0.25221905298E+02 -0.18806407609E+02  0.64708473368E+02  0.47000000000E+01 0.  1.
          5    1    4    4  503    0  0.33692074944E-01 -0.28758545476E+02 -0.10075173369E+03  0.10488115615E+03  0.47000000000E+01 0. -1.
         -5    1    3    3    0  502  0.60477076267E+02  0.99426111697E+01  0.18621830190E+02  0.64227679627E+02  0.47000000000E+01 0.  1.
<mgrwt>
<rscale>  0 0.12192292E+03</rscale>
<asrwt>0</asrwt>
<pdfrwt beam="1">  1        1 0.33500878E-01 0.12247663E+03</pdfrwt>
<pdfrwt beam="2">  1       -1 0.11732273E-01 0.12247663E+03</pdfrwt>
<totfact> 0.59152588E+03</totfact>
</mgrwt>
</event>
<event>
 8    1  0.3400573E-004  0.9640754E+02  0.7546771E-02  0.1288212E+00
          1   -1    0    0  501    0  0.00000000000E+00  0.00000000000E+00  0.34517278979E+03  0.34517278979E+03  0.00000000000E+00 0. -1.
         -1   -1    0    0    0  501 -0.00000000000E+00 -0.00000000000E+00 -0.43534661646E+02  0.43534661646E+02  0.00000000000E+00 0.  1.
         23    2    1    2    0    0 -0.20717015573E+02  0.20711314305E+02  0.27102664594E+03  0.28755668569E+03  0.91516399642E+02 0.  0.
         23    2    1    2    0    0  0.20717015573E+02 -0.20711314305E+02  0.30611482207E+02  0.10115076575E+03  0.91849122443E+02 0.  0.
          5    1    3    3  502    0 -0.32695816147E+02 -0.19426787215E+02  0.52477199610E+02  0.64979711710E+02  0.47000000000E+01 0. -1.
         -5    1    4    4    0  503 -0.30334802057E+02  0.87229416996E+01 -0.47527274760E+01  0.32264041071E+02  0.47000000000E+01 0.  1.
          5    1    4    4  503    0  0.51051817630E+02 -0.29434256005E+02  0.35364209683E+02  0.68886724675E+02  0.47000000000E+01 0. -1.
         -5    1    3    3    0  502  0.11978800574E+02  0.40138101520E+02  0.21854944633E+03  0.22257697398E+03  0.47000000000E+01 0.  1.
<mgrwt>
<rscale>  0 0.96328212E+02</rscale>
<asrwt>0</asrwt>
<pdfrwt beam="1">  1        1 0.53103504E-01 0.96407544E+02</pdfrwt>
<pdfrwt beam="2">  1       -1 0.66976405E-02 0.96407544E+02</pdfrwt>
<totfact> 0.76873304E+03</totfact>
</mgrwt>
</event>
<event>
 8    1  0.3400573E-004  0.1021650E+03  0.7546771E-02  0.1276224E+00
         -1   -1    0    0    0  501 -0.00000000000E+00  0.00000000000E+00  0.29324548297E+02  0.29324548297E+02  0.00000000000E+00 0.  1.
          1   -1    0    0  501    0  0.00000000000E+00 -0.00000000000E+00 -0.59904664402E+03  0.59904664402E+03  0.00000000000E+00 0. -1.
         23    2    1    2    0    0 -0.45093834884E+02 -0.33699286446E+01 -0.82885240598E+02  0.13092992975E+03  0.90707623888E+02 0.  0.
         23    2    1    2    0    0  0.45093834884E+02  0.33699286446E+01 -0.48683685513E+03  0.49744126257E+03  0.91612640142E+02 0.  0.
          5    1    4    4  502    0  0.40163395622E+02 -0.39385036809E+02 -0.32741288380E+03  0.33224323311E+03  0.47000000000E+01 0. -1.
         -5    1    4    4    0  502  0.49304392621E+01  0.42754965454E+02 -0.15942397133E+03  0.16519802946E+03  0.47000000000E+01 0.  1.
          5    1    3    3  503    0 -0.28528828139E+01  0.40143436864E+02 -0.34043375398E+02  0.52921412227E+02  0.47000000000E+01 0. -1.
         -5    1    3    3    0  503 -0.42240952070E+02 -0.43513365509E+02 -0.48841865199E+02  0.78008517521E+02  0.47000000000E+01 0.  1.
<mgrwt>
<rscale>  0 0.10196170E+03</rscale>
<asrwt>0</asrwt>
<pdfrwt beam="1">  1        1 0.92161023E-01 0.10216499E+03</pdfrwt>
<pdfrwt beam="2">  1       -1 0.45114689E-02 0.10216499E+03</pdfrwt>
<totfact> 0.68393772E+03</totfact>
</mgrwt>
</event>
<event>
 8    1  0.3400573E-004  0.1019325E+03  0.7546771E-02  0.1276457E+00
         -1   -1    0    0    0  501 -0.00000000000E+00  0.00000000000E+00  0.51507256023E+02  0.51507256023E+02  0.00000000000E+00 0.  1.
          1   -1    0    0  501    0  0.00000000000E+00 -0.00000000000E+00 -0.31509598918E+03  0.31509598918E+03  0.00000000000E+00 0. -1.
         23    2    1    2    0    0 -0.30525617386E+02  0.32179053331E+02 -0.21380441392E+02  0.10381987412E+03  0.91400974816E+02 0.  0.
         23    2    1    2    0    0  0.30525617386E+02 -0.32179053331E+02 -0.24220829176E+03  0.26278337108E+03  0.91776569609E+02 0.  0.
          5    1    3    3  502    0 -0.41525318981E+02 -0.21195567510E+02 -0.84557610028E+01  0.47615061616E+02  0.47000000000E+01 0. -1.
         -5    1    3    3    0  502  0.10999701595E+02  0.53374620841E+02 -0.12924680389E+02  0.56204812501E+02  0.47000000000E+01 0.  1.
          5    1    4    4  503    0  0.58743520249E+02 -0.62753041420E+01 -0.18070248023E+03  0.19017270302E+03  0.47000000000E+01 0. -1.
         -5    1    4    4    0  503 -0.28217902863E+02 -0.25903749189E+02 -0.61505811533E+02  0.72610668061E+02  0.47000000000E+01 0.  1.
<mgrwt>
<rscale>  0 0.10184793E+03</rscale>
<asrwt>0</asrwt>
<pdfrwt beam="1">  1        1 0.48476306E-01 0.10193254E+03</pdfrwt>
<pdfrwt beam="2">  1       -1 0.79241932E-02 0.10193254E+03</pdfrwt>
<totfact> 0.67217058E+03</totfact>
</mgrwt>
</event>
<event>
 7    1  0.3400573E-004  0.2965621E+03  0.7546771E-02  0.1086972E+00
          1   -1    0    0  501    0  0.00000000000E+00  0.00000000000E+00  0.56184844276E+02  0.56184844276E+02  0.00000000000E+00 0. -1.
         -1   -1    0    0    0  501 -0.00000000000E+00 -0.00000000000E+00 -0.39133803768E+03  0.39133803768E+03  0.00000000000E+00 0.  1.
         23    2    1    2    0    0  0.31533252392E+01  0.40088384425E+02 -0.25579021243E+02  0.10042405521E+03  0.88395036693E+02 0.  0.
          5    1    3    3  502    0 -0.17735199328E+02  0.51357327871E+02  0.11894499028E+02  0.55818290267E+02  0.47000000000E+01 0. -1.
         -5    1    1    2    0  503  0.45459082989E+01  0.39752274221E+02 -0.17059392635E+02  0.43749531027E+02  0.47000000000E+01 0.  1.
          5    1    1    2  503    0 -0.76992335381E+01 -0.79840658647E+02 -0.29251477952E+03  0.30334929571E+03  0.47000000000E+01 0. -1.
         -5    1    3    3    0  502  0.20888524567E+02 -0.11268943446E+02 -0.37473520271E+02  0.44605764947E+02  0.47000000000E+01 0.  1.
<mgrwt>
<rscale>  0 0.29656208E+03</rscale>
<asrwt>0</asrwt>
<pdfrwt beam="1">  1        1 0.86438220E-02 0.29656208E+03</pdfrwt>
<pdfrwt beam="2">  1       -1 0.60205853E-01 0.29656208E+03</pdfrwt>
<totfact> 0.22577277E+03</totfact>
</mgrwt>
</event>
<event>
 8    1  0.3400573E-004  0.1104491E+03  0.7546771E-02  0.1260666E+00
         -2   -1    0    0    0  501 -0.00000000000E+00  0.00000000000E+00  0.30173498526E+02  0.30173498526E+02  0.00000000000E+00 0.  1.
          2   -1    0    0  501    0  0.00000000000E+00 -0.00000000000E+00 -0.39946116513E+03  0.39946116513E+03  0.00000000000E+00 0. -1.
         23    2    1    2    0    0 -0.40594832934E+02 -0.42691812912E+02 -0.16626747326E+03  0.19851519831E+03  0.91065251032E+02 0.  0.
         23    2    1    2    0    0  0.40594832934E+02  0.42691812912E+02 -0.20302019335E+03  0.23111946535E+03  0.93426318591E+02 0.  0.
          5    1    4    4  502    0 -0.28537511521E+02  0.26276840639E+02 -0.66013183545E+02  0.76711748249E+02  0.47000000000E+01 0. -1.
         -5    1    3    3    0  503  0.25603364500E+02 -0.24621867966E+02 -0.33809607648E+02  0.49264066267E+02  0.47000000000E+01 0.  1.
          5    1    3    3  503    0 -0.66198197434E+02 -0.18069944946E+02 -0.13245786561E+03  0.14925113204E+03  0.47000000000E+01 0. -1.
         -5    1    4    4    0  502  0.69132344455E+02  0.16414972273E+02 -0.13700700980E+03  0.15440771710E+03  0.47000000000E+01 0.  1.
<mgrwt>
<rscale>  0 0.10994826E+03</rscale>
<asrwt>0</asrwt>
<pdfrwt beam="1">  1        2 0.61455568E-01 0.11044912E+03</pdfrwt>
<pdfrwt beam="2">  1       -2 0.46420764E-02 0.11044912E+03</pdfrwt>
<totfact> 0.16203891E+04</totfact>
</mgrwt>
</event>
<event>
 8    1  0.3400573E-004  0.1120684E+03  0.7546771E-02  0.1277857E+00
          1   -1    0    0  501    0  0.00000000000E+00  0.00000000000E+00  0.43169848074E+03  0.43169848074E+03  0.00000000000E+00 0. -1.
         -1   -1    0    0    0  501 -0.00000000000E+00 -0.00000000000E+00 -0.71571855594E+02  0.71571855594E+02  0.00000000000E+00 0.  1.
         23    2    1    2    0    0  0.73326899606E+01 -0.11537597752E+01 -0.42246099519E+02  0.85582481225E+02  0.74057603691E+02 0.  0.
         23    2    1    2    0    0 -0.73326899606E+01  0.11537597752E+01  0.40237272466E+03  0.41768785511E+03  0.11182233787E+03 0.  0.
          5    1    4    4  502    0 -0.43243270863E+02  0.27123217744E+02  0.31955835171E+03  0.32364375409E+03  0.47000000000E+01 0. -1.
         -5    1    3    3    0  503  0.23362743189E+02  0.19955775911E+02  0.47292766320E+01  0.31440528287E+02  0.47000000000E+01 0.  1.
          5    1    3    3  503    0 -0.16030053228E+02 -0.21109535687E+02 -0.46975376151E+02  0.54141952938E+02  0.47000000000E+01 0. -1.
         -5    1    4    4    0  502  0.35910580903E+02 -0.25969457968E+02  0.82814372951E+02  0.94044101013E+02  0.47000000000E+01 0.  1.
<mgrwt>
<rscale>  0 0.10116903E+03</rscale>
<asrwt>0</asrwt>
<pdfrwt beam="1">  1        1 0.66415149E-01 0.11206844E+03</pdfrwt>
<pdfrwt beam="2">  1       -1 0.11011055E-01 0.11206844E+03</pdfrwt>
<totfact> 0.27797246E+03</totfact>
</mgrwt>
</event>
<event>
 8    1  0.3400573E-004  0.1010846E+03  0.7546771E-02  0.1281437E+00
          2   -1    0    0  501    0  0.00000000000E+00  0.00000000000E+00  0.61770559991E+03  0.61770559991E+03  0.00000000000E+00 0. -1.
         -2   -1    0    0    0  501 -0.00000000000E+00 -0.00000000000E+00 -0.15906632454E+02  0.15906632454E+02  0.00000000000E+00 0.  1.
         23    2    1    2    0    0  0.23148202664E+02 -0.98598496848E+01  0.24199896393E+03  0.25988219713E+03  0.91335655247E+02 0.  0.
         23    2    1    2    0    0 -0.23148202664E+02  0.98598496848E+01  0.35980000353E+03  0.37373003524E+03  0.97903221481E+02 0.  0.
          5    1    4    4  502    0 -0.10907985658E+02 -0.40070813559E+02  0.92684725880E+02  0.10167203481E+03  0.47000000000E+01 0. -1.
         -5    1    3    3    0  503  0.42636151258E+02  0.12815950397E+02  0.57275909820E+02  0.72696009687E+02  0.47000000000E+01 0.  1.
          5    1    3    3  503    0 -0.19487948594E+02 -0.22675800081E+02  0.18472305411E+03  0.18718618744E+03  0.47000000000E+01 0. -1.
         -5    1    4    4    0  502 -0.12240217006E+02  0.49930663244E+02  0.26711527765E+03  0.27205800043E+03  0.47000000000E+01 0.  1.
<mgrwt>
<rscale>  0 0.99459122E+02</rscale>
<asrwt>0</asrwt>
<pdfrwt beam="1">  1        2 0.95031612E-01 0.10108460E+03</pdfrwt>
<pdfrwt beam="2">  1       -2 0.24471747E-02 0.10108460E+03</pdfrwt>
<totfact> 0.25561305E+04</totfact>
</mgrwt>
</event>
<event>
 8    1  0.3400573E-004  0.1008895E+03  0.7546771E-02  0.1281583E+00
         -1   -1    0    0    0  501 -0.00000000000E+00  0.00000000000E+00  0.20637922682E+02  0.20637922682E+02  0.00000000000E+00 0.  1.
          1   -1    0    0  501    0  0.00000000000E+00 -0.00000000000E+00 -0.48175114550E+03  0.48175114550E+03  0.00000000000E+00 0. -1.
         23    2    1    2    0    0  0.15762550681E+02 -0.33819418808E+02 -0.17700631343E+03  0.20090038712E+03  0.87392902795E+02 0.  0.
         23    2    1    2    0    0 -0.15762550681E+02  0.33819418808E+02 -0.28410690939E+03  0.30148868106E+03  0.93736213671E+02 0.  0.
          5    1    4    4  502    0 -0.32415947666E+02  0.60582096447E+02 -0.18642888655E+03  0.19874305979E+03  0.47000000000E+01 0. -1.
         -5    1    3    3    0  503 -0.84656360356E+01 -0.58752591885E+02 -0.12006177200E+03  0.13401661518E+03  0.47000000000E+01 0.  1.
          5    1    3    3  503    0  0.24228186717E+02  0.24933173077E+02 -0.56944541422E+02  0.66883771941E+02  0.47000000000E+01 0. -1.
         -5    1    4    4    0  502  0.16653396984E+02 -0.26762677639E+02 -0.97678022840E+02  0.10274562128E+03  0.47000000000E+01 0.  1.
<mgrwt>
<rscale>  0 0.99390251E+02</rscale>
<asrwt>0</asrwt>
<pdfrwt beam="1">  1        1 0.74115559E-01 0.10088949E+03</pdfrwt>
<pdfrwt beam="2">  1       -1 0.31750651E-02 0.10088949E+03</pdfrwt>
<totfact> 0.15154601E+04</totfact>
</mgrwt>
</event>
<event>
 8    1  0.3400573E-004  0.1429827E+03  0.7546771E-02  0.1209531E+00
         -2   -1    0    0    0  501 -0.00000000000E+00  0.00000000000E+00  0.42310303861E+02  0.42310303861E+02  0.00000000000E+00 0.  1.
          2   -1    0    0  501    0  0.00000000000E+00 -0.00000000000E+00 -0.51013740102E+03  0.51013740102E+03  0.00000000000E+00 0. -1.
         23    2    1    2    0    0  0.62485186361E+02  0.90821992530E+02 -0.16813761035E+03  0.22039672942E+03  0.90285267245E+02 0.  0.
         23    2    1    2    0    0 -0.62485186361E+02 -0.90821992530E+02 -0.29968948681E+03  0.33205097546E+03  0.91055087507E+02 0.  0.
          5    1    4    4  502    0 -0.42811933004E+02 -0.77754993599E+02 -0.29422480483E+03  0.30735814031E+03  0.47000000000E+01 0. -1.
         -5    1    4    4    0  502 -0.19673253357E+02 -0.13066998931E+02 -0.54646819754E+01  0.24692835151E+02  0.47000000000E+01 0.  1.
          5    1    3    3  503    0  0.39379151482E+02  0.18404175963E+02 -0.12597227486E+03  0.13334367363E+03  0.47000000000E+01 0. -1.
         -5    1    3    3    0  503  0.23106034879E+02  0.72417816567E+02 -0.42165335487E+02  0.87053055781E+02  0.47000000000E+01 0.  1.
<mgrwt>
<rscale>  0 0.14286032E+03</rscale>
<asrwt>0</asrwt>
<pdfrwt beam="1">  1        2 0.78482674E-01 0.14298273E+03</pdfrwt>
<pdfrwt beam="2">  1       -2 0.65092777E-02 0.14298273E+03</pdfrwt>
<totfact> 0.76233742E+03</totfact>
</mgrwt>
</event>
<event>
 8    1  0.3400573E-004  0.9455583E+02  0.7546771E-02  0.1294133E+00
          1   -1    0    0  501    0  0.00000000000E+00  0.00000000000E+00  0.68174388840E+03  0.68174388840E+03  0.00000000000E+00 0. -1.
         -1   -1    0    0    0  501 -0.00000000000E+00 -0.00000000000E+00 -0.15310171105E+02  0.15310171105E+02  0.00000000000E+00 0.  1.
         23    2    1    2    0    0 -0.10526579541E+02  0.10222982847E+02  0.18294517973E+03  0.20440614120E+03  0.89986740810E+02 0.  0.
         23    2    1    2    0    0  0.10526579541E+02 -0.10222982847E+02  0.48348853756E+03  0.49264791830E+03  0.93410316304E+02 0.  0.
          5    1    4    4  502    0  0.31777371061E+02 -0.39908343140E+02  0.18726595001E+03  0.19414711741E+03  0.47000000000E+01 0. -1.
         -5    1    3    3    0  503  0.23991556528E+02  0.38518431744E+02  0.79813885376E+02  0.91932642012E+02  0.47000000000E+01 0.  1.
          5    1    3    3  503    0 -0.34518136068E+02 -0.28295448897E+02  0.10313129435E+03  0.11247349919E+03  0.47000000000E+01 0.  1.
         -5    1    4    4    0  502 -0.21250791520E+02  0.29685360293E+02  0.29622258755E+03  0.29850080089E+03  0.47000000000E+01 0.  1.
<mgrwt>
<rscale>  0 0.93699121E+02</rscale>
<asrwt>0</asrwt>
<pdfrwt beam="1">  1        1 0.10488365E+00 0.94555832E+02</pdfrwt>
<pdfrwt beam="2">  1       -1 0.23554115E-02 0.94555832E+02</pdfrwt>
<totfact> 0.14589506E+04</totfact>
</mgrwt>
</event>
<event>
 8    1  0.3400573E-004  0.1043586E+03  0.7546771E-02  0.1273547E+00
          1   -1    0    0  501    0  0.00000000000E+00  0.00000000000E+00  0.25818827715E+03  0.25818827715E+03  0.00000000000E+00 0. -1.
         -1   -1    0    0    0  501 -0.00000000000E+00 -0.00000000000E+00 -0.41728492188E+02  0.41728492188E+02  0.00000000000E+00 0.  1.
         23    2    1    2    0    0 -0.44400778459E+02 -0.23396281722E+02  0.13633390531E+03  0.17169057846E+03  0.91498119478E+02 0.  0.
         23    2    1    2    0    0  0.44400778459E+02  0.23396281722E+02  0.80125879652E+02  0.12822619088E+03  0.86619768594E+02 0.  0.
          5    1    4    4  502    0  0.19211012735E+02  0.35319040501E+02  0.89679994689E+02  0.98392525528E+02  0.47000000000E+01 0. -1.
         -5    1    3    3    0  503 -0.32069351452E+02 -0.52596709965E+02  0.49605155924E+02  0.79231424927E+02  0.47000000000E+01 0.  1.
          5    1    3    3  503    0 -0.12331427007E+02  0.29200428244E+02  0.86728749385E+02  0.92459153530E+02  0.47000000000E+01 0. -1.
         -5    1    4    4    0  502  0.25189765724E+02 -0.11922758780E+02 -0.95541150375E+01  0.29833665352E+02  0.47000000000E+01 0.  1.
<mgrwt>
<rscale>  0 0.10327958E+03</rscale>
<asrwt>0</asrwt>
<pdfrwt beam="1">  1        1 0.39721272E-01 0.10435862E+03</pdfrwt>
<pdfrwt beam="2">  1       -1 0.64197682E-02 0.10435862E+03</pdfrwt>
<totfact> 0.11763302E+04</totfact>
</mgrwt>
</event>
<event>
 8    1  0.3400573E-004  0.1004739E+03  0.7546771E-02  0.1281619E+00
          1   -1    0    0  501    0  0.00000000000E+00  0.00000000000E+00  0.46517981686E+03  0.46517981686E+03  0.00000000000E+00 0. -1.
         -1   -1    0    0    0  501 -0.00000000000E+00 -0.00000000000E+00 -0.39097091421E+02  0.39097091421E+02  0.00000000000E+00 0.  1.
         23    2    1    2    0    0  0.21461704390E+01  0.40762679900E+02  0.38811286238E+03  0.40090722875E+03  0.91808550802E+02 0.  0.
         23    2    1    2    0    0 -0.21461704390E+01 -0.40762679900E+02  0.37969863056E+02  0.10336967953E+03  0.87048136250E+02 0.  0.
          5    1    3    3  502    0  0.43769594653E+02  0.22036641730E+02  0.13560088424E+03  0.14426046167E+03  0.47000000000E+01 0. -1.
         -5    1    4    4    0  503  0.83959911359E+01 -0.66659142702E+02  0.22129525325E+02  0.70892452801E+02  0.47000000000E+01 0.  1.
          5    1    4    4  503    0 -0.10542161575E+02  0.25896462803E+02  0.15840337730E+02  0.32477226725E+02  0.47000000000E+01 0. -1.
         -5    1    3    3    0  502 -0.41623424214E+02  0.18726038170E+02  0.25251197814E+03  0.25664676708E+03  0.47000000000E+01 0.  1.
<mgrwt>
<rscale>  0 0.99373387E+02</rscale>
<asrwt>0</asrwt>
<pdfrwt beam="1">  1        1 0.71566122E-01 0.10047394E+03</pdfrwt>
<pdfrwt beam="2">  1       -1 0.60149375E-02 0.10047394E+03</pdfrwt>
<totfact> 0.62282160E+03</totfact>
</mgrwt>
</event>
<event>
 8    1  0.3400573E-004  0.9619670E+02  0.7546771E-02  0.1290767E+00
         -1   -1    0    0    0  501 -0.00000000000E+00  0.00000000000E+00  0.12660099417E+02  0.12660099417E+02  0.00000000000E+00 0.  1.
          1   -1    0    0  501    0  0.00000000000E+00 -0.00000000000E+00 -0.10608283798E+04  0.10608283798E+04  0.00000000000E+00 0. -1.
         23    2    1    2    0    0 -0.33620910357E+02  0.73734768384E+01 -0.84402428781E+03  0.84948855424E+03  0.89828011285E+02 0.  0.
         23    2    1    2    0    0  0.33620910357E+02 -0.73734768384E+01 -0.20414399261E+03  0.22399992500E+03  0.85536325088E+02 0.  0.
          5    1    4    4  502    0 -0.24824994727E+02  0.71640780786E+01 -0.10202372692E+03  0.10534958582E+03  0.47000000000E+01 0. -1.
         -5    1    3    3    0  503  0.22021174609E+02  0.28270957795E+02 -0.28048007517E+03  0.28279911908E+03  0.47000000000E+01 0.  1.
          5    1    3    3  503    0 -0.55642084966E+02 -0.20897480956E+02 -0.56354421263E+03  0.56668943516E+03  0.47000000000E+01 0. -1.
         -5    1    4    4    0  502  0.58445905084E+02 -0.14537554917E+02 -0.10212026569E+03  0.11865033919E+03  0.47000000000E+01 0.  1.
<mgrwt>
<rscale>  0 0.95182070E+02</rscale>
<asrwt>0</asrwt>
<pdfrwt beam="1">  1        1 0.16320435E+00 0.96196702E+02</pdfrwt>
<pdfrwt beam="2">  1       -1 0.19477077E-02 0.96196702E+02</pdfrwt>
<totfact> 0.97166510E+03</totfact>
</mgrwt>
</event>
<event>
 8    1  0.3400573E-004  0.1279620E+03  0.7546771E-02  0.1240034E+00
          1   -1    0    0  501    0  0.00000000000E+00  0.00000000000E+00  0.38297454597E+03  0.38297454597E+03  0.00000000000E+00 0. -1.
         -1   -1    0    0    0  501 -0.00000000000E+00 -0.00000000000E+00 -0.52180210427E+02  0.52180210427E+02  0.00000000000E+00 0.  1.
         23    2    1    2    0    0 -0.47775870435E+02  0.18209322541E+02  0.53784727110E+02  0.13880588282E+03  0.11730372122E+03 0.  0.
         23    2    1    2    0    0  0.47775870435E+02 -0.18209322541E+02  0.27700960843E+03  0.29634887358E+03  0.92055518485E+02 0.  0.
          5    1    3    3  502    0 -0.29960191681E+02  0.60641368847E+02  0.61937503963E+02  0.91833180814E+02  0.47000000000E+01 0. -1.
         -5    1    3    3    0  502 -0.17815678754E+02 -0.42432046306E+02 -0.81527768537E+01  0.46972702005E+02  0.47000000000E+01 0.  1.
          5    1    4    4  503    0 -0.70735220872E+00  0.31337042847E+02  0.52420004495E+02  0.61257305465E+02  0.47000000000E+01 0.  1.
         -5    1    4    4    0  503  0.48483222644E+02 -0.49546365388E+02  0.22458960393E+03  0.23509156811E+03  0.47000000000E+01 0. -1.
<mgrwt>
<rscale>  0 0.12187625E+03</rscale>
<asrwt>0</asrwt>
<pdfrwt beam="1">  1        1 0.58919159E-01 0.12796201E+03</pdfrwt>
<pdfrwt beam="2">  1       -1 0.80277249E-02 0.12796201E+03</pdfrwt>
<totfact> 0.52528530E+03</totfact>
</mgrwt>
</event>
<event>
 8    1  0.3400573E-004  0.1181041E+03  0.7546771E-02  0.1247434E+00
         -2   -1    0    0    0  501 -0.00000000000E+00  0.00000000000E+00  0.24973972092E+02  0.24973972092E+02  0.00000000000E+00 0.  1.
          2   -1    0    0  501    0  0.00000000000E+00 -0.00000000000E+00 -0.66146231386E+03  0.66146231386E+03  0.00000000000E+00 0. -1.
         23    2    1    2    0    0  0.39437987612E+02  0.56199124637E+02 -0.17768387392E+03  0.21335449575E+03  0.96098310750E+02 0.  0.
         23    2    1    2    0    0 -0.39437987612E+02 -0.56199124637E+02 -0.45880446785E+03  0.47308179020E+03  0.92688424441E+02 0.  0.
          5    1    3    3  502    0 -0.31583974117E+02  0.21002719757E+02 -0.66995744867E+02  0.77130937298E+02  0.47000000000E+01 0. -1.
         -5    1    3    3    0  502  0.71021961729E+02  0.35196404880E+02 -0.11068812906E+03  0.13622355846E+03  0.47000000000E+01 0.  1.
          5    1    4    4  503    0 -0.54785422433E+02 -0.73336985354E+02 -0.37611402922E+03  0.38712221443E+03  0.47000000000E+01 0. -1.
         -5    1    4    4    0  503  0.15347434821E+02  0.17137860717E+02 -0.82690438626E+02  0.85959575765E+02  0.47000000000E+01 0.  1.
<mgrwt>
<rscale>  0 0.11740862E+03</rscale>
<asrwt>0</asrwt>
<pdfrwt beam="1">  1        2 0.10176344E+00 0.11810411E+03</pdfrwt>
<pdfrwt beam="2">  1       -2 0.38421494E-02 0.11810411E+03</pdfrwt>
<totfact> 0.12381080E+04</totfact>
</mgrwt>
</event>
<event>
 8    1  0.3400573E-004  0.1180988E+03  0.7546771E-02  0.1250187E+00
         -2   -1    0    0    0  501 -0.00000000000E+00  0.00000000000E+00  0.25991756830E+02  0.25991756830E+02  0.00000000000E+00 0.  1.
          2   -1    0    0  501    0  0.00000000000E+00 -0.00000000000E+00 -0.11305966422E+04  0.11305966422E+04  0.00000000000E+00 0. -1.
         23    2    1    2    0    0 -0.53676429399E+02  0.27792744823E+02 -0.12900654744E+03  0.17490004657E+03  0.10145807642E+03 0.  0.
         23    2    1    2    0    0  0.53676429399E+02 -0.27792744823E+02 -0.97559833794E+03  0.98168835246E+03  0.90919242401E+02 0.  0.
          5    1    4    4  502    0  0.54183417860E+02 -0.56755760133E+02 -0.77084680646E+03  0.77484446704E+03  0.47000000000E+01 0. -1.
         -5    1    4    4    0  502 -0.50698846038E+00  0.28963015310E+02 -0.20475153148E+03  0.20684388542E+03  0.47000000000E+01 0.  1.
          5    1    3    3  503    0 -0.14988429000E+02 -0.36487397406E+02 -0.64961298783E+02  0.76144885008E+02  0.47000000000E+01 0. -1.
         -5    1    3    3    0  503 -0.38688000399E+02  0.64280142230E+02 -0.64045248654E+02  0.98755161562E+02  0.47000000000E+01 0.  1.
<mgrwt>
<rscale>  0 0.11580261E+03</rscale>
<asrwt>0</asrwt>
<pdfrwt beam="1">  1        2 0.17393796E+00 0.11809884E+03</pdfrwt>
<pdfrwt beam="2">  1       -2 0.39987315E-02 0.11809884E+03</pdfrwt>
<totfact> 0.58514870E+03</totfact>
</mgrwt>
</event>
<event>
 8    1  0.3400573E-004  0.1294792E+03  0.7546771E-02  0.1228589E+00
         -1   -1    0    0    0  501 -0.00000000000E+00  0.00000000000E+00  0.47951366913E+02  0.47951366913E+02  0.00000000000E+00 0.  1.
          1   -1    0    0  501    0  0.00000000000E+00 -0.00000000000E+00 -0.35790452736E+03  0.35790452736E+03  0.00000000000E+00 0. -1.
         23    2    1    2    0    0 -0.69277263544E+02 -0.60440586666E+02 -0.19088972606E+03  0.23065937799E+03  0.91172678921E+02 0.  0.
         23    2    1    2    0    0  0.69277263544E+02  0.60440586666E+02 -0.11906343439E+03  0.17519651628E+03  0.89807094079E+02 0.  0.
          5    1    4    4  502    0  0.76765616948E+02  0.10794647088E+02 -0.79110845270E+02  0.11086072429E+03  0.47000000000E+01 0.  1.
         -5    1    3    3    0  503 -0.49272044648E+02 -0.44489982468E+02 -0.40222007092E+02  0.77762412374E+02  0.47000000000E+01 0.  1.
          5    1    3    3  503    0 -0.20005218896E+02 -0.15950604198E+02 -0.15066771897E+03  0.15289696562E+03  0.47000000000E+01 0. -1.
         -5    1    4    4    0  502 -0.74883534038E+01  0.49645939578E+02 -0.39952589120E+02  0.64335791988E+02  0.47000000000E+01 0. -1.
<mgrwt>
<rscale>  0 0.12923905E+03</rscale>
<asrwt>0</asrwt>
<pdfrwt beam="1">  1        1 0.55062233E-01 0.12947919E+03</pdfrwt>
<pdfrwt beam="2">  1       -1 0.73771336E-02 0.12947919E+03</pdfrwt>
<totfact> 0.64961625E+03</totfact>
</mgrwt>
</event>
<event>
 8    1  0.3400573E-004  0.9369624E+02  0.7546771E-02  0.1298057E+00
          3   -1    0    0  501    0  0.00000000000E+00  0.00000000000E+00  0.47380048689E+03  0.47380048689E+03  0.00000000000E+00 0. -1.
         -3   -1    0    0    0  501 -0.00000000000E+00 -0.00000000000E+00 -0.37254963518E+02  0.37254963518E+02  0.00000000000E+00 0.  1.
         23    2    1    2    0    0  0.70786475488E+01  0.15712932603E+02  0.34768076002E+02  0.99939007434E+02  0.92097679645E+02 0.  0.
         23    2    1    2    0    0 -0.70786475488E+01 -0.15712932603E+02  0.40177744737E+03  0.41111644297E+03  0.85408482991E+02 0.  0.
          5    1    4    4  502    0 -0.31256546167E+02 -0.24601201840E+02  0.35703670399E+03  0.35927634045E+03  0.47000000000E+01 0. -1.
         -5    1    3    3    0  503  0.31603623606E+02  0.43576897057E+02  0.96936682931E+01  0.54898016241E+02  0.47000000000E+01 0.  1.
          5    1    3    3  503    0 -0.24524976057E+02 -0.27863964454E+02  0.25074407709E+02  0.45040991193E+02  0.47000000000E+01 0. -1.
         -5    1    4    4    0  502  0.24177898618E+02  0.88882692366E+01  0.44740743373E+02  0.51840102519E+02  0.47000000000E+01 0.  1.
<mgrwt>
<rscale>  0 0.92009652E+02</rscale>
<asrwt>0</asrwt>
<pdfrwt beam="1">  1        3 0.72892378E-01 0.93696244E+02</pdfrwt>
<pdfrwt beam="2">  1       -3 0.57315332E-02 0.93696244E+02</pdfrwt>
<totfact> 0.72793157E+02</totfact>
</mgrwt>
</event>
<event>
 8    1  0.3400573E-004  0.1041261E+03  0.7546771E-02  0.1276005E+00
          1   -1    0    0  501    0  0.00000000000E+00  0.00000000000E+00  0.52519450915E+02  0.52519450915E+02  0.00000000000E+00 0. -1.
         -1   -1    0    0    0  501 -0.00000000000E+00 -0.00000000000E+00 -0.22246299329E+03  0.22246299329E+03  0.00000000000E+00 0.  1.
         23    2    1    2    0    0 -0.19410786472E+02  0.65206492232E+01 -0.30316504181E+02  0.10080451778E+03  0.93931692631E+02 0.  0.
         23    2    1    2    0    0  0.19410786472E+02 -0.65206492232E+01 -0.13962703820E+03  0.17417792643E+03  0.10209281445E+03 0.  0.
          5    1    4    4  502    0  0.54337266758E+02  0.11675949019E+02 -0.45309044305E+02  0.71860043418E+02  0.47000000000E+01 0. -1.
         -5    1    3    3    0  503 -0.44300520837E+02  0.21125191046E+02 -0.46168207295E+02  0.67545563940E+02  0.47000000000E+01 0.  1.
          5    1    3    3  503    0  0.24889734365E+02 -0.14604541823E+02  0.15851703114E+02  0.33258953836E+02  0.47000000000E+01 0. -1.
         -5    1    4    4    0  502 -0.34926480287E+02 -0.18196598242E+02 -0.94317993891E+02  0.10231788301E+03  0.47000000000E+01 0.  1.
<mgrwt>
<rscale>  0 0.10206882E+03</rscale>
<asrwt>0</asrwt>
<pdfrwt beam="1">  1        1 0.80799154E-02 0.10412608E+03</pdfrwt>
<pdfrwt beam="2">  1       -1 0.34225076E-01 0.10412608E+03</pdfrwt>
<totfact> 0.64801813E+03</totfact>
</mgrwt>
</event>
<event>
 8    1  0.3400573E-004  0.1994679E+03  0.7546771E-02  0.1150356E+00
         -1   -1    0    0    0  501 -0.00000000000E+00  0.00000000000E+00  0.17711457083E+03  0.17711457083E+03  0.00000000000E+00 0.  1.
          1   -1    0    0  501    0  0.00000000000E+00 -0.00000000000E+00 -0.31500482770E+03  0.31500482770E+03  0.00000000000E+00 0. -1.
         23    2    1    2    0    0 -0.10335176705E+03 -0.14378070649E+03  0.63585159292E+02  0.20860611676E+03  0.90105272635E+02 0.  0.
         23    2    1    2    0    0  0.10335176705E+03  0.14378070649E+03 -0.20147541616E+03  0.28351328177E+03  0.91831140217E+02 0.  0.
          5    1    3    3  502    0 -0.57589870025E+02 -0.33147116453E+02 -0.10935541634E+02  0.67505559249E+02  0.47000000000E+01 0. -1.
         -5    1    4    4    0  503  0.24651542797E+02  0.87117201654E+02 -0.49835199351E+02  0.10345405976E+03  0.47000000000E+01 0.  1.
          5    1    4    4  503    0  0.78700224254E+02  0.56663504831E+02 -0.15164021681E+03  0.18005922201E+03  0.47000000000E+01 0. -1.
         -5    1    3    3    0  502 -0.45761897026E+02 -0.11063359003E+03  0.74520700926E+02  0.14110055751E+03  0.47000000000E+01 0.  1.
<mgrwt>
<rscale>  0 0.19927043E+03</rscale>
<asrwt>0</asrwt>
<pdfrwt beam="1">  1        1 0.48462281E-01 0.19946789E+03</pdfrwt>
<pdfrwt beam="2">  1       -1 0.27248395E-01 0.19946789E+03</pdfrwt>
<totfact> 0.99027374E+02</totfact>
</mgrwt>
</event>
<event>
 8    1  0.3400573E-004  0.1119922E+03  0.7546771E-02  0.1261739E+00
          2   -1    0    0  501    0  0.00000000000E+00  0.00000000000E+00  0.11454348271E+04  0.11454348271E+04  0.00000000000E+00 0. -1.
         -2   -1    0    0    0  501 -0.00000000000E+00 -0.00000000000E+00 -0.11688549117E+02  0.11688549117E+02  0.00000000000E+00 0.  1.
         23    2    1    2    0    0  0.61862565068E+02  0.16609426040E+02  0.36896312954E+03  0.38558532107E+03  0.91866200960E+02 0.  0.
         23    2    1    2    0    0 -0.61862565068E+02 -0.16609426040E+02  0.76478314848E+03  0.77153805518E+03  0.79213991176E+02 0.  0.
          5    1    3    3  502    0 -0.23778945820E+02  0.90235319488E+01  0.81983618589E+02  0.85966656967E+02  0.47000000000E+01 0. -1.
         -5    1    3    3    0  502  0.85641510888E+02  0.75858940916E+01  0.28697951095E+03  0.29961866411E+03  0.47000000000E+01 0.  1.
          5    1    4    4  503    0 -0.26136848998E+02 -0.46556252200E+02  0.34330741059E+03  0.34746609570E+03  0.47000000000E+01 0. -1.
         -5    1    4    4    0  503 -0.35725716070E+02  0.29946826160E+02  0.42147573789E+03  0.42407195948E+03  0.47000000000E+01 0.  1.
<mgrwt>
<rscale>  0 0.10937132E+03</rscale>
<asrwt>0</asrwt>
<pdfrwt beam="1">  1        2 0.17622065E+00 0.11199218E+03</pdfrwt>
<pdfrwt beam="2">  1       -2 0.17982392E-02 0.11199218E+03</pdfrwt>
<totfact> 0.18364438E+04</totfact>
</mgrwt>
</event>
<event>
 8    1  0.3400573E-004  0.1001470E+03  0.7546771E-02  0.1281721E+00
         -2   -1    0    0    0  501 -0.00000000000E+00  0.00000000000E+00  0.21250934615E+03  0.21250934615E+03  0.00000000000E+00 0.  1.
          2   -1    0    0  501    0  0.00000000000E+00 -0.00000000000E+00 -0.15384299391E+03  0.15384299391E+03  0.00000000000E+00 0. -1.
         23    2    1    2    0    0  0.30735847331E+02  0.29580007404E+02  0.18306461966E+03  0.20866739750E+03  0.90607718528E+02 0.  0.
         23    2    1    2    0    0 -0.30735847331E+02 -0.29580007404E+02 -0.12439826743E+03  0.15768494256E+03  0.87005419503E+02 0.  0.
          5    1    3    3  502    0  0.31474242943E+02 -0.20614893739E+02  0.32683704498E+02  0.50059128563E+02  0.47000000000E+01 0. -1.
         -5    1    3    3    0  502 -0.73839561158E+00  0.50194901143E+02  0.15038091517E+03  0.15860826894E+03  0.47000000000E+01 0.  1.
          5    1    4    4  503    0  0.11077924756E+02 -0.28453052866E+02 -0.10829886878E+03  0.11261896649E+03  0.47000000000E+01 0. -1.
         -5    1    4    4    0  503 -0.41813772087E+02 -0.11269545381E+01 -0.16099398650E+02  0.45065976075E+02  0.47000000000E+01 0.  1.
<mgrwt>
<rscale>  0 0.99325215E+02</rscale>
<asrwt>0</asrwt>
<pdfrwt beam="1">  1        2 0.23668153E-01 0.10014703E+03</pdfrwt>
<pdfrwt beam="2">  1       -2 0.32693746E-01 0.10014703E+03</pdfrwt>
<totfact> 0.19161140E+03</totfact>
</mgrwt>
</event>
<event>
 8    1  0.3400573E-004  0.2071866E+03  0.7546771E-02  0.1145769E+00
          1   -1    0    0  501    0  0.00000000000E+00  0.00000000000E+00  0.66318567674E+03  0.66318567674E+03  0.00000000000E+00 0. -1.
         -1   -1    0    0    0  501 -0.00000000000E+00 -0.00000000000E+00 -0.64072891336E+02  0.64072891336E+02  0.00000000000E+00 0.  1.
         23    2    1    2    0    0 -0.80697021262E+02  0.15527067020E+03  0.23789481040E+03  0.31546829325E+03  0.11092931518E+03 0.  0.
         23    2    1    2    0    0  0.80697021262E+02 -0.15527067020E+03  0.36121797500E+03  0.41179027482E+03  0.92042461455E+02 0.  0.
          5    1    3    3  502    0 -0.49305507685E+02  0.13087935877E+03  0.23723483543E+03  0.27543219997E+03  0.47000000000E+01 0. -1.
         -5    1    4    4    0  503 -0.18200792604E+02 -0.12389187953E+02  0.58930743526E+02  0.63084731608E+02  0.47000000000E+01 0.  1.
          5    1    4    4  503    0  0.98897813866E+02 -0.14288148224E+03  0.30228723148E+03  0.34870554322E+03  0.47000000000E+01 0. -1.
         -5    1    3    3    0  502 -0.31391513577E+02  0.24391311428E+02  0.65997496676E+00  0.40036093276E+02  0.47000000000E+01 0.  1.
<mgrwt>
<rscale>  0 0.20477805E+03</rscale>
<asrwt>0</asrwt>
<pdfrwt beam="1">  1        1 0.10202856E+00 0.20718664E+03</pdfrwt>
<pdfrwt beam="2">  1       -1 0.98573684E-02 0.20718664E+03</pdfrwt>
<totfact> 0.18917972E+03</totfact>
</mgrwt>
</event>
<event>
 8    1  0.3400573E-004  0.1033597E+03  0.7546771E-02  0.1274246E+00
          1   -1    0    0  501    0  0.00000000000E+00  0.00000000000E+00  0.22043717387E+02  0.22043717387E+02  0.00000000000E+00 0. -1.
         -1   -1    0    0    0  501 -0.00000000000E+00 -0.00000000000E+00 -0.65115497202E+03  0.65115497202E+03  0.00000000000E+00 0.  1.
         23    2    1    2    0    0  0.16536248626E+02 -0.42283209193E+02 -0.13844057996E+03  0.17175981753E+03  0.90963308208E+02 0.  0.
         23    2    1    2    0    0 -0.16536248626E+02  0.42283209193E+02 -0.49067067467E+03  0.50143887188E+03  0.92854261868E+02 0.  0.
          5    1    3    3  502    0 -0.37426814597E+02 -0.18515211546E+02 -0.49293814314E+02  0.64773062603E+02  0.47000000000E+01 0. -1.
         -5    1    4    4    0  503  0.36391276980E+02  0.12951617552E+02 -0.26096106905E+03  0.26384624120E+03  0.47000000000E+01 0.  1.
          5    1    4    4  503    0 -0.52927525606E+02  0.29331591641E+02 -0.22970960563E+03  0.23759263068E+03  0.47000000000E+01 0. -1.
         -5    1    3    3    0  502  0.53963063223E+02 -0.23767997648E+02 -0.89146765645E+02  0.10698675493E+03  0.47000000000E+01 0.  1.
<mgrwt>
<rscale>  0 0.10293324E+03</rscale>
<asrwt>0</asrwt>
<pdfrwt beam="1">  1        1 0.33913415E-02 0.10335972E+03</pdfrwt>
<pdfrwt beam="2">  1       -1 0.10017768E+00 0.10335972E+03</pdfrwt>
<totfact> 0.27324136E+03</totfact>
</mgrwt>
</event>
<event>
 8    1  0.3400573E-004  0.1031122E+03  0.7546771E-02  0.1275784E+00
          1   -1    0    0  501    0  0.00000000000E+00  0.00000000000E+00  0.28734647147E+02  0.28734647147E+02  0.00000000000E+00 0. -1.
         -1   -1    0    0    0  501 -0.00000000000E+00 -0.00000000000E+00 -0.51120969285E+03  0.51120969285E+03  0.00000000000E+00 0.  1.
         23    2    1    2    0    0 -0.38780091509E+02 -0.31069675524E+01 -0.38648501616E+03  0.39906775784E+03  0.91492397950E+02 0.  0.
         23    2    1    2    0    0  0.38780091509E+02  0.31069675524E+01 -0.95990029536E+02  0.14087658216E+03  0.95491239832E+02 0.  0.
          5    1    4    4  502    0  0.63664618914E+02 -0.15330439678E+02 -0.40455375055E+02  0.77116363069E+02  0.47000000000E+01 0. -1.
         -5    1    3    3    0  503 -0.26078228629E+02  0.43410627094E+02 -0.18844791792E+03  0.19519032845E+03  0.47000000000E+01 0.  1.
          5    1    3    3  503    0 -0.12701862880E+02 -0.46517594647E+02 -0.19803709824E+03  0.20387742938E+03  0.47000000000E+01 0. -1.
         -5    1    4    4    0  502 -0.24884527405E+02  0.18437407231E+02 -0.55534654481E+02  0.63760219086E+02  0.47000000000E+01 0.  1.
<mgrwt>
<rscale>  0 0.10217658E+03</rscale>
<asrwt>0</asrwt>
<pdfrwt beam="1">  1        1 0.44207151E-02 0.10311220E+03</pdfrwt>
<pdfrwt beam="2">  1       -1 0.78647642E-01 0.10311220E+03</pdfrwt>
<totfact> 0.31611522E+03</totfact>
</mgrwt>
</event>
<event>
 8    1  0.3400573E-004  0.1046342E+03  0.7546771E-02  0.1271439E+00
         -2   -1    0    0    0  501 -0.00000000000E+00  0.00000000000E+00  0.82059551256E+02  0.82059551256E+02  0.00000000000E+00 0.  1.
          2   -1    0    0  501    0  0.00000000000E+00 -0.00000000000E+00 -0.20049594689E+03  0.20049594689E+03  0.00000000000E+00 0. -1.
         23    2    1    2    0    0 -0.46822069985E+02 -0.47472524440E+01  0.23645162335E+02  0.10610301366E+03  0.92108160132E+02 0.  0.
         23    2    1    2    0    0  0.46822069985E+02  0.47472524440E+01 -0.14208155797E+03  0.17645248448E+03  0.93453023075E+02 0.  0.
          5    1    4    4  502    0  0.74029382626E+02  0.26867742423E+01 -0.83917397430E+02  0.11203476175E+03  0.47000000000E+01 0. -1.
         -5    1    3    3    0  503 -0.66546208444E+02 -0.26111586200E+02  0.26780761888E+02  0.76482102478E+02  0.47000000000E+01 0.  1.
          5    1    3    3  503    0  0.19724138459E+02  0.21364333756E+02 -0.31355995535E+01  0.29620911184E+02  0.47000000000E+01 0. -1.
         -5    1    4    4    0  502 -0.27207312641E+02  0.20604782017E+01 -0.58164160537E+02  0.64417722736E+02  0.47000000000E+01 0.  1.
<mgrwt>
<rscale>  0 0.10433303E+03</rscale>
<asrwt>0</asrwt>
<pdfrwt beam="1">  1        2 0.30845530E-01 0.10463417E+03</pdfrwt>
<pdfrwt beam="2">  1       -2 0.12624546E-01 0.10463417E+03</pdfrwt>
<totfact> 0.72031957E+03</totfact>
</mgrwt>
</event>
<event>
 8    1  0.3400573E-004  0.9072952E+02  0.7546771E-02  0.1303935E+00
          2   -1    0    0  501    0  0.00000000000E+00  0.00000000000E+00  0.17540696560E+03  0.17540696560E+03  0.00000000000E+00 0. -1.
         -2   -1    0    0    0  501 -0.00000000000E+00 -0.00000000000E+00 -0.45021015069E+02  0.45021015069E+02  0.00000000000E+00 0.  1.
         23    2    1    2    0    0 -0.43931844208E+01  0.36889328560E+01  0.52551190963E+02  0.10088679103E+03  0.85927926998E+02 0.  0.
         23    2    1    2    0    0  0.43931844208E+01 -0.36889328560E+01  0.77834759567E+02  0.11954118964E+03  0.90547986879E+02 0.  0.
          5    1    4    4  502    0 -0.18765778008E+02 -0.20010824112E+02 -0.80564462531E+01  0.28975573025E+02  0.47000000000E+01 0. -1.
         -5    1    4    4    0  502  0.23158962429E+02  0.16321891256E+02  0.85891205820E+02  0.90565616611E+02  0.47000000000E+01 0.  1.
          5    1    3    3  503    0 -0.89960662403E+01 -0.38803943535E+02  0.38638611887E+02  0.55692975951E+02  0.47000000000E+01 0. -1.
         -5    1    3    3    0  503  0.46028818195E+01  0.42492876391E+02  0.13912579076E+02  0.45193815081E+02  0.47000000000E+01 0.  1.
<mgrwt>
<rscale>  0 0.89554305E+02</rscale>
<asrwt>0</asrwt>
<pdfrwt beam="1">  1        2 0.26985687E-01 0.90729522E+02</pdfrwt>
<pdfrwt beam="2">  1       -2 0.69263101E-02 0.90729522E+02</pdfrwt>
<totfact> 0.20823630E+04</totfact>
</mgrwt>
</event>
<event>
 8    1  0.3400573E-004  0.9255633E+02  0.7546771E-02  0.1297871E+00
         -2   -1    0    0    0  501 -0.00000000000E+00  0.00000000000E+00  0.86788241517E+02  0.86788241517E+02  0.00000000000E+00 0. -1.
          2   -1    0    0  501    0  0.00000000000E+00 -0.00000000000E+00 -0.24037039594E+03  0.24037039594E+03  0.00000000000E+00 0.  1.
         23    2    1    2    0    0 -0.40319961485E+00 -0.27591175345E+01  0.49342103777E+02  0.10488716624E+03  0.92514318554E+02 0.  0.
         23    2    1    2    0    0  0.40319961485E+00  0.27591175345E+01 -0.20292425820E+03  0.22227147122E+03  0.90656367955E+02 0.  0.
          5    1    3    3  502    0 -0.29250433610E+02  0.33298248369E+02  0.33808008773E+02  0.55941332377E+02  0.47000000000E+01 0. -1.
         -5    1    3    3    0  502  0.28847233996E+02 -0.36057365904E+02  0.15534095004E+02  0.48945833864E+02  0.47000000000E+01 0.  1.
          5    1    4    4  503    0 -0.26489667857E+01  0.35536008864E+02 -0.31940894558E+02  0.48084672154E+02  0.47000000000E+01 0. -1.
         -5    1    4    4    0  503  0.30521664006E+01 -0.32776891329E+02 -0.17098336365E+03  0.17418679907E+03  0.47000000000E+01 0.  1.
<mgrwt>
<rscale>  0 0.92088524E+02</rscale>
<asrwt>0</asrwt>
<pdfrwt beam="1">  1        2 0.36980061E-01 0.92556331E+02</pdfrwt>
<pdfrwt beam="2">  1       -2 0.13352037E-01 0.92556331E+02</pdfrwt>
<totfact> 0.53833792E+03</totfact>
</mgrwt>
</event>
<event>
 8    1  0.3400573E-004  0.1018919E+03  0.7546771E-02  0.1276427E+00
          3   -1    0    0  501    0  0.00000000000E+00  0.00000000000E+00  0.79898465116E+02  0.79898465116E+02  0.00000000000E+00 0. -1.
         -3   -1    0    0    0  501 -0.00000000000E+00 -0.00000000000E+00 -0.17182495070E+03  0.17182495070E+03  0.00000000000E+00 0.  1.
         23    2    1    2    0    0 -0.46567080208E+02  0.90612060727E+00 -0.10823444838E+03  0.14864940370E+03  0.90623591802E+02 0.  0.
         23    2    1    2    0    0  0.46567080208E+02 -0.90612060727E+00  0.16307962803E+02  0.10307401211E+03  0.90493029055E+02 0.  0.
          5    1    4    4  502    0  0.57392414687E+02  0.19115735798E+02  0.37744322554E+02  0.71456451800E+02  0.47000000000E+01 0.  1.
         -5    1    4    4    0  502 -0.10825334479E+02 -0.20021856405E+02 -0.21436359751E+02  0.31617560309E+02  0.47000000000E+01 0. -1.
          5    1    3    3  503    0 -0.64841712612E+02 -0.25160159836E+02 -0.73618719610E+02  0.10138681973E+03  0.47000000000E+01 0. -1.
         -5    1    3    3    0  503  0.18274632403E+02  0.26066280444E+02 -0.34615728773E+02  0.47262583976E+02  0.47000000000E+01 0.  1.
<mgrwt>
<rscale>  0 0.10186281E+03</rscale>
<asrwt>0</asrwt>
<pdfrwt beam="1">  1        3 0.12292072E-01 0.10189185E+03</pdfrwt>
<pdfrwt beam="2">  1       -3 0.26434608E-01 0.10189185E+03</pdfrwt>
<totfact> 0.15443407E+03</totfact>
</mgrwt>
</event>
<event>
 8    1  0.3400573E-004  0.1170140E+03  0.7546771E-02  0.1248137E+00
          2   -1    0    0  501    0  0.00000000000E+00  0.00000000000E+00  0.61433355726E+03  0.61433355726E+03  0.00000000000E+00 0. -1.
         -2   -1    0    0    0  501 -0.00000000000E+00 -0.00000000000E+00 -0.34864657374E+02  0.34864657374E+02  0.00000000000E+00 0.  1.
         23    2    1    2    0    0  0.75246799575E+02 -0.13719479910E+01  0.94728304799E+02  0.15055143209E+03  0.89600886648E+02 0.  0.
         23    2    1    2    0    0 -0.75246799575E+02  0.13719479910E+01  0.48474059509E+03  0.49864678254E+03  0.89505341315E+02 0.  0.
          5    1    4    4  502    0 -0.25517301711E+02  0.22638640576E+02  0.51089813943E+02  0.61610874223E+02  0.47000000000E+01 0.  1.
         -5    1    3    3    0  503  0.33122152041E+02 -0.35950857289E+02  0.80052876471E+02  0.93915356183E+02  0.47000000000E+01 0.  1.
          5    1    3    3  503    0  0.42124647534E+02  0.34578909298E+02  0.14675428327E+02  0.56636075911E+02  0.47000000000E+01 0. -1.
         -5    1    4    4    0  502 -0.49729497864E+02 -0.21266692585E+02  0.43365078114E+03  0.43703590832E+03  0.47000000000E+01 0. -1.
<mgrwt>
<rscale>  0 0.11699573E+03</rscale>
<asrwt>0</asrwt>
<pdfrwt beam="1">  1        2 0.94512847E-01 0.11701402E+03</pdfrwt>
<pdfrwt beam="2">  1       -2 0.53637939E-02 0.11701402E+03</pdfrwt>
<totfact> 0.81955911E+03</totfact>
</mgrwt>
</event>
<event>
 8    1  0.3400573E-004  0.1101498E+03  0.7546771E-02  0.1260382E+00
          2   -1    0    0  501    0  0.00000000000E+00  0.00000000000E+00  0.37835181107E+02  0.37835181107E+02  0.00000000000E+00 0. -1.
         -2   -1    0    0    0  501 -0.00000000000E+00 -0.00000000000E+00 -0.36259132147E+03  0.36259132147E+03  0.00000000000E+00 0.  1.
         23    2    1    2    0    0 -0.55316346949E+02 -0.29394337799E+02 -0.23077557816E+03  0.25563245844E+03  0.90369580044E+02 0.  0.
         23    2    1    2    0    0  0.55316346949E+02  0.29394337799E+02 -0.93980562202E+02  0.14479404414E+03  0.90603773718E+02 0.  0.
          5    1    3    3  502    0  0.11907372826E+00 -0.48583216111E+02 -0.13094901655E+03  0.13975005546E+03  0.47000000000E+01 0. -1.
         -5    1    4    4    0  503  0.50445161536E+02  0.41018771017E+01 -0.10479065593E+03  0.11646764052E+03  0.47000000000E+01 0.  1.
          5    1    4    4  503    0  0.48711854129E+01  0.25292460698E+02  0.10810093729E+02  0.28326403618E+02  0.47000000000E+01 0. -1.
         -5    1    3    3    0  502 -0.55435420677E+02  0.19188878312E+02 -0.99826561610E+02  0.11588240298E+03  0.47000000000E+01 0.  1.
<mgrwt>
<rscale>  0 0.11010159E+03</rscale>
<asrwt>0</asrwt>
<pdfrwt beam="1">  1        2 0.58207972E-02 0.11014976E+03</pdfrwt>
<pdfrwt beam="2">  1       -2 0.55783280E-01 0.11014976E+03</pdfrwt>
<totfact> 0.37107220E+03</totfact>
</mgrwt>
</event>
<event>
 8    1  0.3400573E-004  0.9771177E+02  0.7546771E-02  0.1285806E+00
         -2   -1    0    0    0  501 -0.00000000000E+00  0.00000000000E+00  0.26331499121E+03  0.26331499121E+03  0.00000000000E+00 0.  1.
          2   -1    0    0  501    0  0.00000000000E+00 -0.00000000000E+00 -0.46455084566E+02  0.46455084566E+02  0.00000000000E+00 0. -1.
         23    2    1    2    0    0  0.31174358058E+02  0.84793850956E+01  0.18297015290E+03  0.20742629197E+03  0.92216317310E+02 0.  0.
         23    2    1    2    0    0 -0.31174358058E+02 -0.84793850956E+01  0.33889753750E+02  0.10234378381E+03  0.91005461939E+02 0.  0.
          5    1    3    3  502    0  0.13504989976E+02  0.27024734897E+02  0.95063901495E+01  0.32018471297E+02  0.47000000000E+01 0. -1.
         -5    1    3    3    0  502  0.17669368083E+02 -0.18545349801E+02  0.17346376275E+03  0.17540782068E+03  0.47000000000E+01 0.  1.
          5    1    4    4  503    0 -0.31328333344E+02 -0.32170889014E+02 -0.15194810094E+02  0.47638249589E+02  0.47000000000E+01 0. -1.
         -5    1    4    4    0  503  0.15397528620E+00  0.23691503919E+02  0.49084563844E+02  0.54705534218E+02  0.47000000000E+01 0.  1.
<mgrwt>
<rscale>  0 0.97425028E+02</rscale>
<asrwt>0</asrwt>
<pdfrwt beam="1">  1        2 0.71469363E-02 0.97711769E+02</pdfrwt>
<pdfrwt beam="2">  1       -2 0.40509998E-01 0.97711769E+02</pdfrwt>
<totfact> 0.52807589E+03</totfact>
</mgrwt>
</event>
<event>
 7    1  0.3400573E-004  0.1775056E+03  0.7546771E-02  0.1178043E+00
          2   -1    0    0  501    0  0.00000000000E+00  0.00000000000E+00  0.14485642324E+03  0.14485642324E+03  0.00000000000E+00 0. -1.
         -2   -1    0    0    0  501 -0.00000000000E+00 -0.00000000000E+00 -0.23503526858E+03  0.23503526858E+03  0.00000000000E+00 0.  1.
         23    2    1    2    0    0 -0.22044656066E+02  0.11566184693E+03 -0.13054266757E+03  0.19785463803E+03  0.90782377346E+02 0.  0.
          5    1    3    3  502    0  0.12319569950E+02  0.10801855243E+03 -0.75867118852E+02  0.13265628216E+03  0.47000000000E+01 0. -1.
         -5    1    3    3    0  502 -0.34364226016E+02  0.76432944968E+01 -0.54675548717E+02  0.65198355868E+02  0.47000000000E+01 0.  1.
          5    1    1    2  503    0  0.13595181241E+02 -0.69160043415E+02  0.89286366096E+02  0.11385115603E+03  0.47000000000E+01 0. -1.
         -5    1    1    2    0  503  0.84494748253E+01 -0.46501803512E+02 -0.48922543867E+02  0.68185897758E+02  0.47000000000E+01 0.  1.
<mgrwt>
<rscale>  0 0.16981287E+03</rscale>
<asrwt>0</asrwt>
<pdfrwt beam="1">  1        2 0.22285604E-01 0.17750564E+03</pdfrwt>
<pdfrwt beam="2">  1       -2 0.36159272E-01 0.17750564E+03</pdfrwt>
<totfact> 0.17432057E+03</totfact>
</mgrwt>
</event>
<event>
 8    1  0.3400573E-004  0.9981086E+02  0.7546771E-02  0.1282023E+00
          3   -1    0    0  501    0  0.00000000000E+00  0.00000000000E+00  0.76851199021E+02  0.76851199021E+02  0.00000000000E+00 0. -1.
         -3   -1    0    0    0  501 -0.00000000000E+00 -0.00000000000E+00 -0.12661369273E+03  0.12661369273E+03  0.00000000000E+00 0.  1.
         23    2    1    2    0    0 -0.33692779558E+02 -0.16630304118E+02 -0.29167003408E+02  0.10398520130E+03  0.92468576240E+02 0.  0.
         23    2    1    2    0    0  0.33692779558E+02  0.16630304118E+02 -0.20595490298E+02  0.99479690449E+02  0.89778974052E+02 0.  0.
          5    1    3    3  502    0  0.15266190126E+02 -0.40869831597E+02 -0.20644349462E+02  0.48494111606E+02  0.47000000000E+01 0. -1.
         -5    1    3    3    0  502 -0.48958969684E+02  0.24239527479E+02 -0.85226539457E+01  0.55491089692E+02  0.47000000000E+01 0.  1.
          5    1    4    4  503    0 -0.63022258735E+01  0.23688578496E+02  0.26977543032E+02  0.36752477878E+02  0.47000000000E+01 0. -1.
         -5    1    4    4    0  503  0.39995005431E+02 -0.70582743784E+01 -0.47573033330E+02  0.62727212571E+02  0.47000000000E+01 0.  1.
<mgrwt>
<rscale>  0 0.99183347E+02</rscale>
<asrwt>0</asrwt>
<pdfrwt beam="1">  1        3 0.11823261E-01 0.99810861E+02</pdfrwt>
<pdfrwt beam="2">  1       -3 0.19479030E-01 0.99810861E+02</pdfrwt>
<totfact> 0.28209721E+03</totfact>
</mgrwt>
</event>
<event>
 8    1  0.3400573E-004  0.1029566E+03  0.7546771E-02  0.1277994E+00
         -1   -1    0    0    0  501 -0.00000000000E+00  0.00000000000E+00  0.40905793900E+02  0.40905793900E+02  0.00000000000E+00 0.  1.
          1   -1    0    0  501    0  0.00000000000E+00 -0.00000000000E+00 -0.39952580661E+03  0.39952580661E+03  0.00000000000E+00 0. -1.
         23    2    1    2    0    0  0.24881669931E+01  0.32273902206E+02 -0.36840260645E+02  0.10258211358E+03  0.90100441083E+02 0.  0.
         23    2    1    2    0    0 -0.24881669931E+01 -0.32273902206E+02 -0.32177975206E+03  0.33784948693E+03  0.97735721422E+02 0.  0.
          5    1    4    4  502    0  0.42800952438E+02 -0.19975542550E+02 -0.22787362356E+03  0.23276473561E+03  0.47000000000E+01 0. -1.
         -5    1    4    4    0  502 -0.45289119431E+02 -0.12298359656E+02 -0.93906128500E+02  0.10508475132E+03  0.47000000000E+01 0.  1.
          5    1    3    3  503    0 -0.26304360483E+02  0.17098713354E+02 -0.56117757263E+02  0.64463773230E+02  0.47000000000E+01 0. -1.
         -5    1    3    3    0  503  0.28792527476E+02  0.15175188852E+02  0.19277496618E+02  0.38118340349E+02  0.47000000000E+01 0.  1.
<mgrwt>
<rscale>  0 0.10110265E+03</rscale>
<asrwt>0</asrwt>
<pdfrwt beam="1">  1        1 0.61465510E-01 0.10295663E+03</pdfrwt>
<pdfrwt beam="2">  1       -1 0.62931990E-02 0.10295663E+03</pdfrwt>
<totfact> 0.70675502E+03</totfact>
</mgrwt>
</event>
<event>
 8    1  0.3400573E-004  0.9617442E+02  0.7546771E-02  0.1290046E+00
         -1   -1    0    0    0  501 -0.00000000000E+00  0.00000000000E+00  0.26167201593E+03  0.26167201593E+03  0.00000000000E+00 0.  1.
          1   -1    0    0  501    0  0.00000000000E+00 -0.00000000000E+00 -0.34550704146E+02  0.34550704146E+02  0.00000000000E+00 0. -1.
         23    2    1    2    0    0 -0.15310331547E+02 -0.16114872066E+02  0.12559229133E+03  0.15818641760E+03  0.93570421180E+02 0.  0.
         23    2    1    2    0    0  0.15310331547E+02  0.16114872066E+02  0.10152902046E+03  0.13803630247E+03  0.90839327670E+02 0.  0.
          5    1    3    3  502    0  0.31078098332E+02 -0.20508043916E+02  0.19669422632E+02  0.42372210798E+02  0.47000000000E+01 0. -1.
         -5    1    3    3    0  502 -0.46388429879E+02  0.43931718497E+01  0.10592286869E+03  0.11581420681E+03  0.47000000000E+01 0.  1.
          5    1    4    4  503    0  0.22829507250E+02 -0.19818871598E+02  0.67193859565E+00  0.30602541956E+02  0.47000000000E+01 0. -1.
         -5    1    4    4    0  503 -0.75191757038E+01  0.35933743664E+02  0.10085708186E+03  0.10743376052E+03  0.47000000000E+01 0.  1.
<mgrwt>
<rscale>  0 0.95503682E+02</rscale>
<asrwt>0</asrwt>
<pdfrwt beam="1">  1        1 0.53154931E-02 0.96174420E+02</pdfrwt>
<pdfrwt beam="2">  1       -1 0.40257232E-01 0.96174420E+02</pdfrwt>
<totfact> 0.85362236E+03</totfact>
</mgrwt>
</event>
<event>
 8    1  0.3400573E-004  0.9313424E+02  0.7546771E-02  0.1298044E+00
          1   -1    0    0  501    0  0.00000000000E+00  0.00000000000E+00  0.12591383869E+03  0.12591383869E+03  0.00000000000E+00 0. -1.
         -1   -1    0    0    0  501 -0.00000000000E+00 -0.00000000000E+00 -0.65704542492E+02  0.65704542492E+02  0.00000000000E+00 0.  1.
         23    2    1    2    0    0  0.94714490525E+01 -0.68253501269E+01  0.28803798986E+02  0.97486645119E+02  0.92399639550E+02 0.  0.
         23    2    1    2    0    0 -0.94714490525E+01  0.68253501269E+01  0.31405497210E+02  0.94131736062E+02  0.87966952474E+02 0.  0.
          5    1    3    3  502    0  0.38744452394E+02  0.10256028081E+02  0.44300459412E+02  0.59924447493E+02  0.47000000000E+01 0. -1.
         -5    1    4    4    0  503 -0.37244454224E+02 -0.11958020738E+02  0.43023629704E+02  0.58337520888E+02  0.47000000000E+01 0.  1.
          5    1    4    4  503    0  0.27773005171E+02  0.18783370864E+02 -0.11618132494E+02  0.35794215174E+02  0.47000000000E+01 0. -1.
         -5    1    3    3    0  502 -0.29273003341E+02 -0.17081378208E+02 -0.15496660425E+02  0.37562197625E+02  0.47000000000E+01 0.  1.
<mgrwt>
<rscale>  0 0.92015240E+02</rscale>
<asrwt>0</asrwt>
<pdfrwt beam="1">  1        1 0.19371360E-01 0.93134243E+02</pdfrwt>
<pdfrwt beam="2">  1       -1 0.10108391E-01 0.93134243E+02</pdfrwt>
<totfact> 0.14350484E+04</totfact>
</mgrwt>
</event>
<event>
 8    1  0.3400573E-004  0.1251778E+03  0.7546771E-02  0.1243714E+00
          2   -1    0    0  501    0  0.00000000000E+00  0.00000000000E+00  0.35063201120E+02  0.35063201120E+02  0.00000000000E+00 0. -1.
         -2   -1    0    0    0  501 -0.00000000000E+00 -0.00000000000E+00 -0.41498273305E+03  0.41498273305E+03  0.00000000000E+00 0.  1.
         23    2    1    2    0    0 -0.18535227368E+02  0.44835888461E+02 -0.24326860804E+03  0.26472741337E+03  0.92450939325E+02 0.  0.
         23    2    1    2    0    0  0.18535227368E+02 -0.44835888461E+02 -0.13665092389E+03  0.18531852080E+03  0.11539353364E+03 0.  0.
          5    1    3    3  502    0 -0.48911678479E+02 -0.98130617672E+00 -0.10918780785E+03  0.11973881007E+03  0.47000000000E+01 0. -1.
         -5    1    4    4    0  503 -0.18123856714E+02 -0.17413001499E+02 -0.13692919446E+03  0.13929601968E+03  0.47000000000E+01 0.  1.
          5    1    4    4  503    0  0.36659084082E+02 -0.27422886962E+02  0.27827057111E+00  0.46022501122E+02  0.47000000000E+01 0. -1.
         -5    1    3    3    0  502  0.30376451111E+02  0.45817194638E+02 -0.13408080020E+03  0.14498860330E+03  0.47000000000E+01 0.  1.
<mgrwt>
<rscale>  0 0.11962686E+03</rscale>
<asrwt>0</asrwt>
<pdfrwt beam="1">  1        2 0.53943386E-02 0.12517779E+03</pdfrwt>
<pdfrwt beam="2">  1       -2 0.63843498E-01 0.12517779E+03</pdfrwt>
<totfact> 0.31346486E+03</totfact>
</mgrwt>
</event>
<event>
 8    1  0.3400573E-004  0.9381130E+02  0.7546771E-02  0.1295026E+00
          1   -1    0    0  501    0  0.00000000000E+00  0.00000000000E+00  0.77569509027E+02  0.77569509027E+02  0.00000000000E+00 0. -1.
         -1   -1    0    0    0  501 -0.00000000000E+00 -0.00000000000E+00 -0.54379697255E+03  0.54379697255E+03  0.00000000000E+00 0.  1.
         23    2    1    2    0    0  0.38314333744E+00 -0.21880393382E+02 -0.50974730430E+03  0.51795208661E+03  0.89180442725E+02 0.  0.
         23    2    1    2    0    0 -0.38314333744E+00  0.21880393382E+02  0.43519840779E+02  0.10341439497E+03  0.91223144717E+02 0.  0.
          5    1    4    4  502    0  0.16383461311E+02  0.34394590947E+02  0.63437939016E+02  0.74147608171E+02  0.47000000000E+01 0. -1.
         -5    1    3    3    0  503 -0.12927061888E+02 -0.50665110506E+02 -0.20867272072E+03  0.21517540920E+03  0.47000000000E+01 0.  1.
          5    1    3    3  503    0  0.13310205226E+02  0.28784717124E+02 -0.30107458358E+03  0.30277667741E+03  0.47000000000E+01 0. -1.
         -5    1    4    4    0  502 -0.16766604649E+02 -0.12514197565E+02 -0.19918098237E+02  0.29266786798E+02  0.47000000000E+01 0.  1.
<mgrwt>
<rscale>  0 0.93311038E+02</rscale>
<asrwt>0</asrwt>
<pdfrwt beam="1">  1        1 0.11933771E-01 0.93811303E+02</pdfrwt>
<pdfrwt beam="2">  1       -1 0.83661072E-01 0.93811303E+02</pdfrwt>
<totfact> 0.73893096E+02</totfact>
</mgrwt>
</event>
<event>
 8    1  0.3400573E-004  0.1157197E+03  0.7546771E-02  0.1256447E+00
          2   -1    0    0  501    0  0.00000000000E+00  0.00000000000E+00  0.61398275680E+03  0.61398275680E+03  0.00000000000E+00 0. -1.
         -2   -1    0    0    0  501 -0.00000000000E+00 -0.00000000000E+00 -0.20426463189E+02  0.20426463189E+02  0.00000000000E+00 0.  1.
         23    2    1    2    0    0  0.16341499350E+02  0.44146035376E+02  0.24239883942E+03  0.26860426133E+03  0.10571251020E+03 0.  0.
         23    2    1    2    0    0 -0.16341499350E+02 -0.44146035376E+02  0.35115745419E+03  0.36580495865E+03  0.91026331926E+02 0.  0.
          5    1    3    3  502    0  0.18174380787E+01  0.59983532269E+02  0.23885559195E+03  0.24632379306E+03  0.47000000000E+01 0. -1.
         -5    1    4    4    0  503  0.27115713691E+02 -0.51188355114E+02  0.19183448193E+03  0.20044467587E+03  0.47000000000E+01 0.  1.
          5    1    4    4  503    0 -0.43457213041E+02  0.70423197379E+01  0.15932297225E+03  0.16536028278E+03  0.47000000000E+01 0. -1.
         -5    1    3    3    0  502  0.14524061271E+02 -0.15837496893E+02  0.35432474748E+01  0.22280468270E+02  0.47000000000E+01 0.  1.
<mgrwt>
<rscale>  0 0.11225689E+03</rscale>
<asrwt>0</asrwt>
<pdfrwt beam="1">  1        2 0.94458872E-01 0.11571971E+03</pdfrwt>
<pdfrwt beam="2">  1       -2 0.31425333E-02 0.11571971E+03</pdfrwt>
<totfact> 0.18101103E+04</totfact>
</mgrwt>
</event>
<event>
 7    1  0.8135348E-004  0.3105636E+03  0.7546771E-02  0.1092322E+00
          2   -1    0    0  501    0  0.00000000000E+00  0.00000000000E+00  0.46144567531E+03  0.46144567531E+03  0.00000000000E+00 0. -1.
         -2   -1    0    0    0  501 -0.00000000000E+00 -0.00000000000E+00 -0.33672717574E+03  0.33672717574E+03  0.00000000000E+00 0.  1.
         23    2    1    2    0    0 -0.91125076371E+02  0.18306612894E+03  0.34921413876E+03  0.41496530723E+03  0.91807975594E+02 0.  0.
          5    1    1    2  502    0  0.38382975427E+02 -0.80441632762E+02  0.37560884758E+02  0.96835009929E+02  0.47000000000E+01 0. -1.
         -5    1    1    2    0  502  0.52742100943E+02 -0.10262449618E+03 -0.26205652394E+03  0.28637253389E+03  0.47000000000E+01 0.  1.
          5    1    3    3  503    0 -0.10320875464E+03  0.13800015092E+03  0.23458974369E+03  0.29111943688E+03  0.47000000000E+01 0. -1.
         -5    1    3    3    0  503  0.12083678265E+02  0.45065978020E+02  0.11462439507E+03  0.12384587034E+03  0.47000000000E+01 0.  1.
<mgrwt>
<rscale>  0 0.28625312E+03</rscale>
<asrwt>0</asrwt>
<pdfrwt beam="1">  1        2 0.70991642E-01 0.31056357E+03</pdfrwt>
<pdfrwt beam="2">  1       -2 0.51804181E-01 0.31056357E+03</pdfrwt>
<totfact> 0.24495603E+02</totfact>
</mgrwt>
</event>
<event>
 8    1  0.3400573E-004  0.2829858E+03  0.7546771E-02  0.1094208E+00
          1   -1    0    0  501    0  0.00000000000E+00  0.00000000000E+00  0.31270750760E+03  0.31270750760E+03  0.00000000000E+00 0. -1.
         -1   -1    0    0    0  501 -0.00000000000E+00 -0.00000000000E+00 -0.25624219327E+03  0.25624219327E+03  0.00000000000E+00 0.  1.
         23    2    1    2    0    0  0.10038389957E+01 -0.26742507941E+03  0.97822666756E+01  0.28315486584E+03  0.92540826215E+02 0.  0.
         23    2    1    2    0    0 -0.10038389957E+01  0.26742507941E+03  0.46683047657E+02  0.28579483504E+03  0.89343158692E+02 0.  0.
          5    1    3    3  502    0 -0.37133191614E+02 -0.94412723530E+02  0.27009176000E+02  0.10509149286E+03  0.47000000000E+01 0. -1.
         -5    1    4    4    0  503  0.29586075631E+02  0.47046684844E+02  0.28170701044E+02  0.62485236843E+02  0.47000000000E+01 0.  1.
          5    1    4    4  503    0 -0.30589914626E+02  0.22037839457E+03  0.18512346613E+02  0.22330959819E+03  0.47000000000E+01 0. -1.
         -5    1    3    3    0  502  0.38137030610E+02 -0.17301235588E+03 -0.17226909324E+02  0.17806337298E+03  0.47000000000E+01 0.  1.
<mgrwt>
<rscale>  0 0.28272811E+03</rscale>
<asrwt>0</asrwt>
<pdfrwt beam="1">  1        1 0.48108847E-01 0.28298584E+03</pdfrwt>
<pdfrwt beam="2">  1       -1 0.39421876E-01 0.28298584E+03</pdfrwt>
<totfact> 0.52890283E+02</totfact>
</mgrwt>
</event>
<event>
 8    1  0.3400573E-004  0.1140229E+03  0.7546771E-02  0.1253579E+00
          4   -1    0    0  501    0  0.00000000000E+00  0.00000000000E+00  0.89385988528E+02  0.89385988528E+02  0.00000000000E+00 0. -1.
         -4   -1    0    0    0  501 -0.00000000000E+00 -0.00000000000E+00 -0.17616733411E+03  0.17616733411E+03  0.00000000000E+00 0.  1.
         23    2    1    2    0    0  0.68416514726E+02  0.15425859640E+02 -0.99463877436E+02  0.15082729630E+03  0.89090031782E+02 0.  0.
         23    2    1    2    0    0 -0.68416514726E+02 -0.15425859640E+02  0.12682531854E+02  0.11472602633E+03  0.89902379675E+02 0.  0.
          5    1    3    3  502    0 -0.19420477417E+02  0.11651296466E+02 -0.96666782743E+01  0.25068751890E+02  0.47000000000E+01 0. -1.
         -5    1    3    3    0  502  0.87836992143E+02  0.37745631733E+01 -0.89797199162E+02  0.12575854441E+03  0.47000000000E+01 0.  1.
          5    1    4    4  503    0 -0.41534419383E+02 -0.34412936634E+02  0.43455183263E+02  0.69424787747E+02  0.47000000000E+01 0. -1.
         -5    1    4    4    0  503 -0.26882095342E+02  0.18987076994E+02 -0.30772651409E+02  0.45301238587E+02  0.47000000000E+01 0.  1.
<mgrwt>
<rscale>  0 0.11386268E+03</rscale>
<asrwt>0</asrwt>
<pdfrwt beam="1">  1        4 0.13751691E-01 0.11402287E+03</pdfrwt>
<pdfrwt beam="2">  1       -4 0.27102667E-01 0.11402287E+03</pdfrwt>
<totfact> 0.89946343E+02</totfact>
</mgrwt>
</event>
<event>
 8    1  0.3400573E-004  0.1360743E+03  0.7546771E-02  0.1218931E+00
          2   -1    0    0  501    0  0.00000000000E+00  0.00000000000E+00  0.34360032100E+03  0.34360032100E+03  0.00000000000E+00 0. -1.
         -2   -1    0    0    0  501 -0.00000000000E+00 -0.00000000000E+00 -0.59482492383E+02  0.59482492383E+02  0.00000000000E+00 0.  1.
         23    2    1    2    0    0  0.88429411672E+01  0.10017050958E+03  0.79194035171E+02  0.15744179197E+03  0.91672755242E+02 0.  0.
         23    2    1    2    0    0 -0.88429411672E+01 -0.10017050958E+03  0.20492379345E+03  0.24564102142E+03  0.90738204102E+02 0.  0.
          5    1    4    4  502    0 -0.40145874962E+02 -0.13986521517E+02  0.78494039536E+02  0.89390817779E+02  0.47000000000E+01 0. -1.
         -5    1    3    3    0  503  0.27673618878E+02  0.17169769277E+02 -0.96789549717E+01  0.34298721962E+02  0.47000000000E+01 0.  1.
          5    1    3    3  503    0 -0.18830677711E+02  0.83000740302E+02  0.88872990142E+02  0.12314307001E+03  0.47000000000E+01 0. -1.
         -5    1    4    4    0  502  0.31302933794E+02 -0.86183988063E+02  0.12642975391E+03  0.15625020364E+03  0.47000000000E+01 0.  1.
<mgrwt>
<rscale>  0 0.13591709E+03</rscale>
<asrwt>0</asrwt>
<pdfrwt beam="1">  1        2 0.52861587E-01 0.13607433E+03</pdfrwt>
<pdfrwt beam="2">  1       -2 0.91511529E-02 0.13607433E+03</pdfrwt>
<totfact> 0.68799635E+03</totfact>
</mgrwt>
</event>
<event>
 8    1  0.3400573E-004  0.1423486E+03  0.7546771E-02  0.1210221E+00
         -1   -1    0    0    0  501 -0.00000000000E+00  0.00000000000E+00  0.16809143129E+03  0.16809143129E+03  0.00000000000E+00 0.  1.
          1   -1    0    0  501    0  0.00000000000E+00 -0.00000000000E+00 -0.12250405178E+03  0.12250405178E+03  0.00000000000E+00 0. -1.
         23    2    1    2    0    0  0.94661719266E+02 -0.54917794446E+02  0.41376410622E+02  0.14824014847E+03  0.91029275633E+02 0.  0.
         23    2    1    2    0    0 -0.94661719266E+02  0.54917794446E+02  0.42109688909E+01  0.14235533460E+03  0.90942310217E+02 0.  0.
          5    1    3    3  502    0 -0.62424280739E+01 -0.36509686971E+02  0.23225875481E+02  0.43971086441E+02  0.47000000000E+01 0. -1.
         -5    1    4    4    0  503 -0.10545076045E+02  0.43543995720E+02  0.29275256133E+02  0.53725308875E+02  0.47000000000E+01 0.  1.
          5    1    4    4  503    0 -0.84116643221E+02  0.11373798726E+02 -0.25064287242E+02  0.88630025720E+02  0.47000000000E+01 0. -1.
         -5    1    3    3    0  502  0.10090414734E+03 -0.18408107476E+02  0.18150535141E+02  0.10426906203E+03  0.47000000000E+01 0.  1.
<mgrwt>
<rscale>  0 0.14233474E+03</rscale>
<asrwt>0</asrwt>
<pdfrwt beam="1">  1        1 0.18846777E-01 0.14234864E+03</pdfrwt>
<pdfrwt beam="2">  1       -1 0.25860220E-01 0.14234864E+03</pdfrwt>
<totfact> 0.35016828E+03</totfact>
</mgrwt>
</event>
<event>
 8    1  0.3400573E-004  0.9324562E+02  0.7546771E-02  0.1296431E+00
         -1   -1    0    0    0  501 -0.00000000000E+00  0.00000000000E+00  0.82964518744E+02  0.82964518744E+02  0.00000000000E+00 0.  1.
          1   -1    0    0  501    0  0.00000000000E+00 -0.00000000000E+00 -0.11632828519E+03  0.11632828519E+03  0.00000000000E+00 0. -1.
         23    2    1    2    0    0 -0.44274838056E+01  0.14609869107E+02 -0.50985082103E+02  0.10439677176E+03  0.89811783571E+02 0.  0.
         23    2    1    2    0    0  0.44274838056E+01 -0.14609869107E+02  0.17621315662E+02  0.94896032171E+02  0.91987473429E+02 0.  0.
          5    1    3    3  502    0  0.41401169286E+02  0.29142864559E+01 -0.13605861202E+02  0.43929026200E+02  0.47000000000E+01 0. -1.
         -5    1    4    4    0  503 -0.27087887061E+02 -0.39512130056E+02 -0.52746988375E+01  0.48423904168E+02  0.47000000000E+01 0.  1.
          5    1    4    4  503    0  0.31515370866E+02  0.24902260949E+02  0.22896014499E+02  0.46472128003E+02  0.47000000000E+01 0. -1.
         -5    1    3    3    0  502 -0.45828653092E+02  0.11695582652E+02 -0.37379220901E+02  0.60467745559E+02  0.47000000000E+01 0.  1.
<mgrwt>
<rscale>  0 0.92704522E+02</rscale>
<asrwt>0</asrwt>
<pdfrwt beam="1">  1        1 0.17896659E-01 0.93245623E+02</pdfrwt>
<pdfrwt beam="2">  1       -1 0.12763772E-01 0.93245623E+02</pdfrwt>
<totfact> 0.11120287E+04</totfact>
</mgrwt>
</event>
<event>
 8    1  0.3400573E-004  0.9376997E+02  0.7546771E-02  0.1294568E+00
         -1   -1    0    0    0  501 -0.00000000000E+00  0.00000000000E+00  0.12868827905E+02  0.12868827905E+02  0.00000000000E+00 0.  1.
          1   -1    0    0  501    0  0.00000000000E+00 -0.00000000000E+00 -0.80119500729E+03  0.80119500729E+03  0.00000000000E+00 0. -1.
         23    2    1    2    0    0 -0.13701667530E+02 -0.53843145586E+01 -0.55338216150E+03  0.56109842391E+03  0.91558167940E+02 0.  0.
         23    2    1    2    0    0  0.13701667530E+02  0.53843145586E+01 -0.23494401788E+03  0.25296541128E+03  0.92607133788E+02 0.  0.
          5    1    4    4  502    0  0.23729473464E+02 -0.27887823611E+02 -0.20029194921E+03  0.20366583792E+03  0.47000000000E+01 0. -1.
         -5    1    4    4    0  502 -0.10027805934E+02  0.33272138169E+02 -0.34652068671E+02  0.49299573359E+02  0.47000000000E+01 0.  1.
          5    1    3    3  503    0 -0.30238115828E+02 -0.41927149368E+02 -0.33807204352E+03  0.34203366225E+03  0.47000000000E+01 0. -1.
         -5    1    3    3    0  503  0.16536448298E+02  0.36542834809E+02 -0.21531011798E+03  0.21906476167E+03  0.47000000000E+01 0.  1.
<mgrwt>
<rscale>  0 0.93509940E+02</rscale>
<asrwt>0</asrwt>
<pdfrwt beam="1">  1        1 0.12326077E+00 0.93769973E+02</pdfrwt>
<pdfrwt beam="2">  1       -1 0.19798196E-02 0.93769973E+02</pdfrwt>
<totfact> 0.14819161E+04</totfact>
</mgrwt>
</event>
<event>
 8    1  0.3400573E-004  0.1345934E+03  0.7546771E-02  0.1221696E+00
         -4   -1    0    0    0  501 -0.00000000000E+00  0.00000000000E+00  0.21113911063E+03  0.21113911063E+03  0.00000000000E+00 0.  1.
          4   -1    0    0  501    0  0.00000000000E+00 -0.00000000000E+00 -0.91608739228E+02  0.91608739228E+02  0.00000000000E+00 0. -1.
         23    2    1    2    0    0 -0.94554560056E+02  0.27552533772E+02  0.17240343773E+02  0.13569310121E+03  0.91737022610E+02 0.  0.
         23    2    1    2    0    0  0.94554560056E+02 -0.27552533772E+02  0.10229002763E+03  0.16705474865E+03  0.88001888329E+02 0.  0.
          5    1    3    3  502    0 -0.44994668853E+02 -0.33138662082E+02  0.60721002663E+01  0.56406130442E+02  0.47000000000E+01 0. -1.
         -5    1    4    4    0  503  0.54641159535E+02  0.24496956769E+02  0.74413244159E+02  0.95630424618E+02  0.47000000000E+01 0.  1.
          5    1    4    4  503    0  0.39913400520E+02 -0.52049490541E+02  0.27876783468E+02  0.71424324030E+02  0.47000000000E+01 0. -1.
         -5    1    3    3    0  502 -0.49559891203E+02  0.60691195854E+02  0.11168243507E+02  0.79286970766E+02  0.47000000000E+01 0.  1.
<mgrwt>
<rscale>  0 0.13395957E+03</rscale>
<asrwt>0</asrwt>
<pdfrwt beam="1">  1        4 0.14093652E-01 0.13459342E+03</pdfrwt>
<pdfrwt beam="2">  1       -4 0.32482940E-01 0.13459342E+03</pdfrwt>
<totfact> 0.63480303E+02</totfact>
</mgrwt>
</event>
<event>
 8    1  0.3400573E-004  0.1187043E+03  0.7546771E-02  0.1246140E+00
          1   -1    0    0  501    0  0.00000000000E+00  0.00000000000E+00  0.40159324767E+02  0.40159324767E+02  0.00000000000E+00 0. -1.
         -1   -1    0    0    0  501 -0.00000000000E+00 -0.00000000000E+00 -0.49828513288E+03  0.49828513288E+03  0.00000000000E+00 0.  1.
         23    2    1    2    0    0  0.16818647865E+02 -0.73079862686E+02 -0.37995971767E+03  0.39807045434E+03  0.92017206643E+02 0.  0.
         23    2    1    2    0    0 -0.16818647865E+02  0.73079862686E+02 -0.78166090441E+02  0.14037400331E+03  0.89282640324E+02 0.  0.
          5    1    4    4  502    0 -0.15821286001E+02  0.93176937196E+02 -0.55498281879E+02  0.10970143120E+03  0.47000000000E+01 0. -1.
         -5    1    4    4    0  502 -0.99736186416E+00 -0.20097074510E+02 -0.22667808562E+02  0.30672572105E+02  0.47000000000E+01 0.  1.
          5    1    3    3  503    0 -0.30956132326E+02 -0.78211765960E+01 -0.61331846800E+02  0.69304677792E+02  0.47000000000E+01 0. -1.
         -5    1    3    3    0  503  0.47774780191E+02 -0.65258686090E+02 -0.31862787087E+03  0.32876577654E+03  0.47000000000E+01 0.  1.
<mgrwt>
<rscale>  0 0.11817396E+03</rscale>
<asrwt>0</asrwt>
<pdfrwt beam="1">  1        1 0.61783573E-02 0.11870425E+03</pdfrwt>
<pdfrwt beam="2">  1       -1 0.76659256E-01 0.11870425E+03</pdfrwt>
<totfact> 0.21312136E+03</totfact>
</mgrwt>
</event>
<event>
 8    1  0.3400573E-004  0.1141437E+03  0.7546771E-02  0.1257301E+00
          3   -1    0    0  501    0  0.00000000000E+00  0.00000000000E+00  0.54462070235E+02  0.54462070235E+02  0.00000000000E+00 0. -1.
         -3   -1    0    0    0  501 -0.00000000000E+00 -0.00000000000E+00 -0.33468418677E+03  0.33468418677E+03  0.00000000000E+00 0.  1.
         23    2    1    2    0    0  0.27114674823E+02 -0.44106842307E+02 -0.24987494778E+03  0.27103729125E+03  0.91340596639E+02 0.  0.
         23    2    1    2    0    0 -0.27114674823E+02  0.44106842307E+02 -0.30347168754E+02  0.11810896575E+03  0.10172589646E+03 0.  0.
          5    1    3    3  502    0 -0.20145022712E+02 -0.21795336255E+02 -0.22111806851E+02  0.37307916382E+02  0.47000000000E+01 0. -1.
         -5    1    3    3    0  502  0.47259697535E+02 -0.22311506052E+02 -0.22776314093E+03  0.23372937487E+03  0.47000000000E+01 0.  1.
          5    1    4    4  503    0 -0.59257156026E+02  0.41529551816E+02 -0.41643091964E+02  0.83620280571E+02  0.47000000000E+01 0. -1.
         -5    1    4    4    0  503  0.32142481203E+02  0.25772904907E+01  0.11295923210E+02  0.34488685178E+02  0.47000000000E+01 0.  1.
<mgrwt>
<rscale>  0 0.11178407E+03</rscale>
<asrwt>0</asrwt>
<pdfrwt beam="1">  1        3 0.83787800E-02 0.11414367E+03</pdfrwt>
<pdfrwt beam="2">  1       -3 0.51489875E-01 0.11414367E+03</pdfrwt>
<totfact> 0.83619089E+02</totfact>
</mgrwt>
</event>
<event>
 8    1  0.3400573E-004  0.9725085E+02  0.7546771E-02  0.1286747E+00
          3   -1    0    0  501    0  0.00000000000E+00  0.00000000000E+00  0.77555352979E+02  0.77555352979E+02  0.00000000000E+00 0. -1.
         -3   -1    0    0    0  501 -0.00000000000E+00 -0.00000000000E+00 -0.12219006205E+03  0.12219006205E+03  0.00000000000E+00 0.  1.
         23    2    1    2    0    0  0.11021814891E+02 -0.27803222245E+02 -0.11293820970E+02  0.97904429407E+02  0.92537707638E+02 0.  0.
         23    2    1    2    0    0 -0.11021814891E+02  0.27803222245E+02 -0.33340888103E+02  0.10184098562E+03  0.91462954044E+02 0.  0.
          5    1    3    3  502    0 -0.20242555461E+02  0.26297050921E+02 -0.10891663182E+02  0.35242222768E+02  0.47000000000E+01 0. -1.
         -5    1    4    4    0  503 -0.21751920078E+02 -0.28967153147E+02 -0.22404388646E+02  0.42851938336E+02  0.47000000000E+01 0.  1.
          5    1    4    4  503    0  0.10730105187E+02  0.56770375392E+02 -0.10936499457E+02  0.58989047287E+02  0.47000000000E+01 0. -1.
         -5    1    3    3    0  502  0.31264370352E+02 -0.54100273166E+02 -0.40215778753E+00  0.62662206640E+02  0.47000000000E+01 0.  1.
<mgrwt>
<rscale>  0 0.96994307E+02</rscale>
<asrwt>0</asrwt>
<pdfrwt beam="1">  1        3 0.11931593E-01 0.97250845E+02</pdfrwt>
<pdfrwt beam="2">  1       -3 0.18798471E-01 0.97250845E+02</pdfrwt>
<totfact> 0.29402364E+03</totfact>
</mgrwt>
</event>
<event>
 8    1  0.3400573E-004  0.1088385E+03  0.7546771E-02  0.1265367E+00
         -1   -1    0    0    0  501 -0.00000000000E+00  0.00000000000E+00  0.43362122992E+02  0.43362122992E+02  0.00000000000E+00 0.  1.
          1   -1    0    0  501    0  0.00000000000E+00 -0.00000000000E+00 -0.27369252336E+03  0.27369252336E+03  0.00000000000E+00 0. -1.
         23    2    1    2    0    0 -0.41937482444E+02 -0.14846915172E+02 -0.82107651791E+02  0.13633596029E+03  0.99330983394E+02 0.  0.
         23    2    1    2    0    0  0.41937482444E+02  0.14846915172E+02 -0.14822274857E+03  0.18071868606E+03  0.93327793139E+02 0.  0.
          5    1    3    3  502    0 -0.57460347438E+01 -0.25658962323E+02 -0.92987794186E+02  0.96748225463E+02  0.47000000000E+01 0. -1.
         -5    1    4    4    0  503 -0.10442002905E+02 -0.24527744481E+02 -0.12260919173E+02  0.29716423287E+02  0.47000000000E+01 0.  1.
          5    1    4    4  503    0  0.52379485349E+02  0.39374659653E+02 -0.13596182940E+03  0.15100226277E+03  0.47000000000E+01 0. -1.
         -5    1    3    3    0  502 -0.36191447700E+02  0.10812047152E+02  0.10880142395E+02  0.39587734827E+02  0.47000000000E+01 0.  1.
<mgrwt>
<rscale>  0 0.10744977E+03</rscale>
<asrwt>0</asrwt>
<pdfrwt beam="1">  1        1 0.42106542E-01 0.10883854E+03</pdfrwt>
<pdfrwt beam="2">  1       -1 0.66710959E-02 0.10883854E+03</pdfrwt>
<totfact> 0.10382713E+04</totfact>
</mgrwt>
</event>
<event>
 8    1  0.3400573E-004  0.1150560E+03  0.7546771E-02  0.1252328E+00
         -2   -1    0    0    0  501 -0.00000000000E+00  0.00000000000E+00  0.12748965530E+02  0.12748965530E+02  0.00000000000E+00 0. -1.
          2   -1    0    0  501    0  0.00000000000E+00 -0.00000000000E+00 -0.10471335675E+04  0.10471335675E+04  0.00000000000E+00 0.  1.
         23    2    1    2    0    0 -0.12360414342E+02  0.68754362944E+02 -0.59650634196E+03  0.60714061304E+03  0.88994189400E+02 0.  0.
         23    2    1    2    0    0  0.12360414342E+02 -0.68754362944E+02 -0.43787826004E+03  0.45274192001E+03  0.91421732945E+02 0.  0.
          5    1    4    4  502    0  0.39884419815E+02  0.27111237935E+00 -0.13513975563E+03  0.14098114767E+03  0.47000000000E+01 0.  1.
         -5    1    4    4    0  502 -0.27524005473E+02 -0.69025475324E+02 -0.30273850441E+03  0.31176077234E+03  0.47000000000E+01 0. -1.
          5    1    3    3  503    0 -0.29721765219E+02 -0.46138929103E+00 -0.75953752538E+02  0.81698584641E+02  0.47000000000E+01 0. -1.
         -5    1    3    3    0  503  0.17361350877E+02  0.69215752235E+02 -0.52055258942E+03  0.52544202840E+03  0.47000000000E+01 0.  1.
<mgrwt>
<rscale>  0 0.11457311E+03</rscale>
<asrwt>0</asrwt>
<pdfrwt beam="1">  1        2 0.16109743E+00 0.11505597E+03</pdfrwt>
<pdfrwt beam="2">  1       -2 0.19613798E-02 0.11505597E+03</pdfrwt>
<totfact> 0.18463995E+04</totfact>
</mgrwt>
</event>
<event>
 8    1  0.3400573E-004  0.9476271E+02  0.7546771E-02  0.1292210E+00
          2   -1    0    0  501    0  0.00000000000E+00  0.00000000000E+00  0.18052725951E+03  0.18052725951E+03  0.00000000000E+00 0. -1.
         -2   -1    0    0    0  501 -0.00000000000E+00 -0.00000000000E+00 -0.56588676340E+02  0.56588676340E+02  0.00000000000E+00 0.  1.
         23    2    1    2    0    0  0.95103707404E+01  0.17757884018E+02  0.19622844241E+02  0.96773069579E+02  0.92596875667E+02 0.  0.
         23    2    1    2    0    0 -0.95103707404E+01 -0.17757884018E+02  0.10431573893E+03  0.14034286627E+03  0.91698184978E+02 0.  0.
          5    1    3    3  502    0  0.43474755708E+02 -0.62015966241E+01  0.30351556623E+02  0.53589375570E+02  0.47000000000E+01 0. -1.
         -5    1    4    4    0  503  0.35331986626E+02 -0.23475714925E+02  0.26531708050E+02  0.50254154079E+02  0.47000000000E+01 0.  1.
          5    1    4    4  503    0 -0.44842357367E+02  0.57178309072E+01  0.77784030876E+02  0.90088712188E+02  0.47000000000E+01 0. -1.
         -5    1    3    3    0  502 -0.33964384968E+02  0.23959480642E+02 -0.10728712382E+02  0.43183694009E+02  0.47000000000E+01 0.  1.
<mgrwt>
<rscale>  0 0.94542453E+02</rscale>
<asrwt>0</asrwt>
<pdfrwt beam="1">  1        2 0.27773424E-01 0.94762709E+02</pdfrwt>
<pdfrwt beam="2">  1       -2 0.87059503E-02 0.94762709E+02</pdfrwt>
<totfact> 0.14303682E+04</totfact>
</mgrwt>
</event>
<event>
 8    1  0.3400573E-004  0.1011904E+03  0.7546771E-02  0.1279342E+00
         -1   -1    0    0    0  501 -0.00000000000E+00  0.00000000000E+00  0.76697544671E+02  0.76697544671E+02  0.00000000000E+00 0.  1.
          1   -1    0    0  501    0  0.00000000000E+00 -0.00000000000E+00 -0.13524945660E+03  0.13524945660E+03  0.00000000000E+00 0. -1.
         23    2    1    2    0    0 -0.25259929074E+02  0.25470302637E+02 -0.82097905123E+01  0.10152289731E+03  0.94618696275E+02 0.  0.
         23    2    1    2    0    0  0.25259929074E+02 -0.25470302637E+02 -0.50342121417E+02  0.11042410396E+03  0.91500564006E+02 0.  0.
          5    1    4    4  502    0  0.27823206977E+02  0.29753189125E+02 -0.11147815522E+02  0.42494080770E+02  0.47000000000E+01 0. -1.
         -5    1    4    4    0  502 -0.25632779025E+01 -0.55223491763E+02 -0.39194305895E+02  0.67930023191E+02  0.47000000000E+01 0.  1.
          5    1    3    3  503    0 -0.42380362576E+01  0.22758284864E+02 -0.49514103250E+02  0.54860157692E+02  0.47000000000E+01 0. -1.
         -5    1    3    3    0  503 -0.21021892817E+02  0.27120177733E+01  0.41304312738E+02  0.46662739619E+02  0.47000000000E+01 0.  1.
<mgrwt>
<rscale>  0 0.10045508E+03</rscale>
<asrwt>0</asrwt>
<pdfrwt beam="1">  1        1 0.20807609E-01 0.10119040E+03</pdfrwt>
<pdfrwt beam="2">  1       -1 0.11799622E-01 0.10119040E+03</pdfrwt>
<totfact> 0.10449162E+04</totfact>
</mgrwt>
</event>
<event>
 8    1  0.3400573E-004  0.9879523E+02  0.7546771E-02  0.1284993E+00
          2   -1    0    0  501    0  0.00000000000E+00  0.00000000000E+00  0.13348111134E+02  0.13348111134E+02  0.00000000000E+00 0. -1.
         -2   -1    0    0    0  501 -0.00000000000E+00 -0.00000000000E+00 -0.78438077750E+03  0.78438077750E+03  0.00000000000E+00 0.  1.
         23    2    1    2    0    0 -0.31139868774E+02  0.15457150267E+02 -0.24965320406E+03  0.26707170926E+03  0.88272083156E+02 0.  0.
         23    2    1    2    0    0  0.31139868774E+02 -0.15457150267E+02 -0.52137946230E+03  0.53065717937E+03  0.92476393703E+02 0.  0.
          5    1    4    4  502    0 -0.23656070532E+02  0.20555506229E+02 -0.13079954110E+03  0.13458361141E+03  0.47000000000E+01 0. -1.
         -5    1    3    3    0  503 -0.48735799401E+01  0.27832208843E+02 -0.18598322692E+02  0.34152177639E+02  0.47000000000E+01 0.  1.
          5    1    3    3  503    0 -0.26266288834E+02 -0.12375058575E+02 -0.23105488137E+03  0.23291953162E+03  0.47000000000E+01 0. -1.
         -5    1    4    4    0  502  0.54795939307E+02 -0.36012656497E+02 -0.39057992120E+03  0.39607356796E+03  0.47000000000E+01 0.  1.
<mgrwt>
<rscale>  0 0.97799308E+02</rscale>
<asrwt>0</asrwt>
<pdfrwt beam="1">  1        2 0.20535548E-02 0.98795234E+02</pdfrwt>
<pdfrwt beam="2">  1       -2 0.12067401E+00 0.98795234E+02</pdfrwt>
<totfact> 0.26825204E+03</totfact>
</mgrwt>
</event>
<event>
 8    1  0.3400573E-004  0.9678122E+02  0.7546771E-02  0.1292566E+00
          2   -1    0    0  501    0  0.00000000000E+00  0.00000000000E+00  0.31484813169E+02  0.31484813169E+02  0.00000000000E+00 0. -1.
         -2   -1    0    0    0  501 -0.00000000000E+00 -0.00000000000E+00 -0.27004306101E+03  0.27004306101E+03  0.00000000000E+00 0.  1.
         23    2    1    2    0    0 -0.16551134568E+02  0.17859738903E+01 -0.11789355908E+03  0.14684571004E+03  0.85951390485E+02 0.  0.
         23    2    1    2    0    0  0.16551134568E+02 -0.17859738903E+01 -0.12066468876E+03  0.15468216414E+03  0.95338738355E+02 0.  0.
          5    1    4    4  502    0  0.18130380478E+01  0.24402069268E+02  0.49791394399E+01  0.25409248731E+02  0.47000000000E+01 0. -1.
         -5    1    4    4    0  502  0.14738096520E+02 -0.26188043158E+02 -0.12564382820E+03  0.12927291541E+03  0.47000000000E+01 0.  1.
          5    1    3    3  503    0  0.28152717111E+02 -0.22109554263E+02 -0.57049209290E+02  0.67513777490E+02  0.47000000000E+01 0. -1.
         -5    1    3    3    0  503 -0.44703851679E+02  0.23895528153E+02 -0.60844349794E+02  0.79331932552E+02  0.47000000000E+01 0.  1.
<mgrwt>
<rscale>  0 0.94385596E+02</rscale>
<asrwt>0</asrwt>
<pdfrwt beam="1">  1        2 0.48438175E-02 0.96781221E+02</pdfrwt>
<pdfrwt beam="2">  1       -2 0.41545085E-01 0.96781221E+02</pdfrwt>
<totfact> 0.82647069E+03</totfact>
</mgrwt>
</event>
<event>
 8    1  0.3400573E-004  0.1344343E+03  0.7546771E-02  0.1230029E+00
         -2   -1    0    0    0  501 -0.00000000000E+00  0.00000000000E+00  0.19889309475E+03  0.19889309475E+03  0.00000000000E+00 0.  1.
          2   -1    0    0  501    0  0.00000000000E+00 -0.00000000000E+00 -0.83407739954E+02  0.83407739954E+02  0.00000000000E+00 0. -1.
         23    2    1    2    0    0  0.50979860837E+02 -0.39282589021E+02  0.20760990712E+02  0.13602790025E+03  0.11802755144E+03 0.  0.
         23    2    1    2    0    0 -0.50979860837E+02  0.39282589021E+02  0.94724364081E+02  0.14627293445E+03  0.90999990066E+02 0.  0.
          5    1    4    4  502    0 -0.18587496458E+02  0.25436465593E+02 -0.11806328406E+02  0.33970401776E+02  0.47000000000E+01 0. -1.
         -5    1    4    4    0  502 -0.32392364379E+02  0.13846123428E+02  0.10653069249E+03  0.11230253268E+03  0.47000000000E+01 0.  1.
          5    1    3    3  503    0  0.18948555652E+02 -0.42033029399E+02 -0.43790004789E+02  0.63761099749E+02  0.47000000000E+01 0. -1.
         -5    1    3    3    0  503  0.32031305185E+02  0.27504403772E+01  0.64550995501E+02  0.72266800498E+02  0.47000000000E+01 0. -1.
<mgrwt>
<rscale>  0 0.12828063E+03</rscale>
<asrwt>0</asrwt>
<pdfrwt beam="1">  1        2 0.12831960E-01 0.13443426E+03</pdfrwt>
<pdfrwt beam="2">  1       -2 0.30598938E-01 0.13443426E+03</pdfrwt>
<totfact> 0.44265858E+03</totfact>
</mgrwt>
</event>
<event>
 8    1  0.3400573E-004  0.9179767E+02  0.7546771E-02  0.1298837E+00
          3   -1    0    0  501    0  0.00000000000E+00  0.00000000000E+00  0.14468718478E+02  0.14468718478E+02  0.00000000000E+00 0. -1.
         -3   -1    0    0    0  501 -0.00000000000E+00 -0.00000000000E+00 -0.58920717507E+03  0.58920717507E+03  0.00000000000E+00 0.  1.
         23    2    1    2    0    0 -0.53938433006E+01  0.47684283097E+01 -0.32556744320E+03  0.33813304346E+03  0.91038253247E+02 0.  0.
         23    2    1    2    0    0  0.53938433006E+01 -0.47684283097E+01 -0.24917101339E+03  0.26554285009E+03  0.91514916074E+02 0.  0.
          5    1    3    3  502    0 -0.45741957600E+02  0.35381964261E+00 -0.11925862359E+03  0.12781690488E+03  0.47000000000E+01 0. -1.
         -5    1    4    4    0  503  0.38116366968E+02  0.25190182604E+02 -0.14822267414E+03  0.15517555819E+03  0.47000000000E+01 0.  1.
          5    1    4    4  503    0 -0.32722523668E+02 -0.29958610914E+02 -0.10094833925E+03  0.11036729190E+03  0.47000000000E+01 0. -1.
         -5    1    3    3    0  502  0.40348114299E+02  0.44146086671E+01 -0.20630881961E+03  0.21031613858E+03  0.47000000000E+01 0.  1.
<mgrwt>
<rscale>  0 0.91678637E+02</rscale>
<asrwt>0</asrwt>
<pdfrwt beam="1">  1        3 0.22259566E-02 0.91797665E+02</pdfrwt>
<pdfrwt beam="2">  1       -3 0.90647261E-01 0.91797665E+02</pdfrwt>
<totfact> 0.19502953E+03</totfact>
</mgrwt>
</event>
<event>
 8    1  0.3400573E-004  0.9923841E+02  0.7546771E-02  0.1284440E+00
         -3   -1    0    0    0  501 -0.00000000000E+00  0.00000000000E+00  0.34245987395E+03  0.34245987395E+03  0.00000000000E+00 0.  1.
          3   -1    0    0  501    0  0.00000000000E+00 -0.00000000000E+00 -0.28176416404E+02  0.28176416404E+02  0.00000000000E+00 0. -1.
         23    2    1    2    0    0  0.39136598509E+01 -0.27686442929E+02  0.13057613793E+03  0.16400728743E+03  0.95217680489E+02 0.  0.
         23    2    1    2    0    0 -0.39136598509E+01  0.27686442929E+02  0.18370731962E+03  0.20662900293E+03  0.90362103303E+02 0.  0.
          5    1    4    4  502    0 -0.40956822806E+02  0.14051425330E+02  0.46210666639E+02  0.63501335414E+02  0.47000000000E+01 0. -1.
         -5    1    4    4    0  502  0.37043162956E+02  0.13635017598E+02  0.13749665298E+03  0.14312766751E+03  0.47000000000E+01 0.  1.
          5    1    3    3  503    0  0.19263513339E+02 -0.54379389235E+02  0.11595326444E+03  0.12959726253E+03  0.47000000000E+01 0. -1.
         -5    1    3    3    0  503 -0.15349853488E+02  0.26692946307E+02  0.14622873485E+02  0.34410024900E+02  0.47000000000E+01 0.  1.
<mgrwt>
<rscale>  0 0.98055180E+02</rscale>
<asrwt>0</asrwt>
<pdfrwt beam="1">  1        3 0.43348335E-02 0.99238413E+02</pdfrwt>
<pdfrwt beam="2">  1       -3 0.52686131E-01 0.99238413E+02</pdfrwt>
<totfact> 0.22204603E+03</totfact>
</mgrwt>
</event>
<event>
 8    1  0.3400573E-004  0.1432994E+03  0.7546771E-02  0.1212268E+00
         -1   -1    0    0    0  501 -0.00000000000E+00  0.00000000000E+00  0.38518430548E+02  0.38518430548E+02  0.00000000000E+00 0.  1.
          1   -1    0    0  501    0  0.00000000000E+00 -0.00000000000E+00 -0.59692911320E+03  0.59692911320E+03  0.00000000000E+00 0. -1.
         23    2    1    2    0    0  0.26363380166E+01 -0.10993141892E+03 -0.14130725001E+03  0.19441466516E+03  0.75745996459E+02 0.  0.
         23    2    1    2    0    0 -0.26363380166E+01  0.10993141892E+03 -0.41710343264E+03  0.44103287859E+03  0.91885033239E+02 0.  0.
          5    1    3    3  502    0  0.41422519875E+01 -0.24691858525E+02 -0.92762746798E+02  0.96197002669E+02  0.47000000000E+01 0. -1.
         -5    1    4    4    0  503  0.36186188206E+02  0.21107737756E+02 -0.82604822094E+02  0.92739546275E+02  0.47000000000E+01 0.  1.
          5    1    4    4  503    0 -0.38822526223E+02  0.88823681161E+02 -0.33449861055E+03  0.34829333232E+03  0.47000000000E+01 0. -1.
         -5    1    3    3    0  502 -0.15059139709E+01 -0.85239560392E+02 -0.48544503214E+02  0.98217662490E+02  0.47000000000E+01 0.  1.
<mgrwt>
<rscale>  0 0.14079110E+03</rscale>
<asrwt>0</asrwt>
<pdfrwt beam="1">  1        1 0.91835250E-01 0.14329943E+03</pdfrwt>
<pdfrwt beam="2">  1       -1 0.59259123E-02 0.14329943E+03</pdfrwt>
<totfact> 0.46810940E+03</totfact>
</mgrwt>
</event>
<event>
 8    1  0.3400573E-004  0.1037629E+03  0.7546771E-02  0.1275430E+00
          1   -1    0    0  501    0  0.00000000000E+00  0.00000000000E+00  0.51434843361E+03  0.51434843361E+03  0.00000000000E+00 0. -1.
         -1   -1    0    0    0  501 -0.00000000000E+00 -0.00000000000E+00 -0.21179125187E+02  0.21179125187E+02  0.00000000000E+00 0.  1.
         23    2    1    2    0    0 -0.40782720483E+02 -0.29340856175E+02  0.18537738331E+03  0.21244179091E+03  0.90788898849E+02 0.  0.
         23    2    1    2    0    0  0.40782720483E+02  0.29340856175E+02  0.30779192512E+03  0.32308576789E+03  0.84406327431E+02 0.  0.
          5    1    4    4  502    0  0.60432097241E+02  0.51090096772E+01  0.14462794829E+03  0.15689956591E+03  0.47000000000E+01 0. -1.
         -5    1    4    4    0  502 -0.19649376757E+02  0.24231846498E+02  0.16316397683E+03  0.16618620197E+03  0.47000000000E+01 0.  1.
          5    1    3    3  503    0 -0.63083798269E+00 -0.39145268305E+02  0.15751324081E+03  0.16237383107E+03  0.47000000000E+01 0. -1.
         -5    1    3    3    0  503 -0.40151882501E+02  0.98044121291E+01  0.27864142497E+02  0.50067959841E+02  0.47000000000E+01 0.  1.
<mgrwt>
<rscale>  0 0.10235035E+03</rscale>
<asrwt>0</asrwt>
<pdfrwt beam="1">  1        1 0.79130519E-01 0.10376290E+03</pdfrwt>
<pdfrwt beam="2">  1       -1 0.32583274E-02 0.10376290E+03</pdfrwt>
<totfact> 0.13448596E+04</totfact>
</mgrwt>
</event>
<event>
 8    1  0.3400573E-004  0.1684211E+03  0.7546771E-02  0.1179978E+00
         -1   -1    0    0    0  501 -0.00000000000E+00  0.00000000000E+00  0.12994305122E+04  0.12994305122E+04  0.00000000000E+00 0.  1.
          1   -1    0    0  501    0  0.00000000000E+00 -0.00000000000E+00 -0.27908666505E+02  0.27908666505E+02  0.00000000000E+00 0. -1.
         23    2    1    2    0    0  0.11407501891E+03  0.80130117767E+02  0.94871093205E+03  0.96323404725E+03  0.91287740032E+02 0.  0.
         23    2    1    2    0    0 -0.11407501891E+03 -0.80130117767E+02  0.32281091365E+03  0.36410513146E+03  0.94507751369E+02 0.  0.
          5    1    3    3  502    0  0.20954604397E+02 -0.14714574232E+02  0.73474842300E+02  0.77950346961E+02  0.47000000000E+01 0. -1.
         -5    1    4    4    0  503  0.99452080678E+01 -0.19733306807E+02  0.95793419086E+02  0.98421439236E+02  0.47000000000E+01 0.  1.
          5    1    4    4  503    0 -0.12402022698E+03 -0.60396810960E+02  0.22701749456E+03  0.26568369222E+03  0.47000000000E+01 0. -1.
         -5    1    3    3    0  502  0.93120414516E+02  0.94844692000E+02  0.87523608975E+03  0.88528370029E+03  0.47000000000E+01 0.  1.
<mgrwt>
<rscale>  0 0.16797291E+03</rscale>
<asrwt>0</asrwt>
<pdfrwt beam="1">  1        1 0.42936420E-02 0.16842108E+03</pdfrwt>
<pdfrwt beam="2">  1       -1 0.19991234E+00 0.16842108E+03</pdfrwt>
<totfact> 0.34460890E+02</totfact>
</mgrwt>
</event>
<event>
 8    1  0.3400573E-004  0.1448765E+03  0.7546771E-02  0.1207777E+00
         -1   -1    0    0    0  501 -0.00000000000E+00  0.00000000000E+00  0.36425135088E+03  0.36425135088E+03  0.00000000000E+00 0.  1.
          1   -1    0    0  501    0  0.00000000000E+00 -0.00000000000E+00 -0.56608136349E+02  0.56608136349E+02  0.00000000000E+00 0. -1.
         23    2    1    2    0    0 -0.10744125726E+03  0.23648544845E+02  0.16065789383E+03  0.21633344261E+03  0.94267290757E+02 0.  0.
         23    2    1    2    0    0  0.10744125726E+03 -0.23648544845E+02  0.14698532070E+03  0.20452604461E+03  0.90129578882E+02 0.  0.
          5    1    4    4  502    0  0.11824124132E+03 -0.31719171171E+01  0.11814893081E+03  0.16724925129E+03  0.47000000000E+01 0. -1.
         -5    1    3    3    0  503 -0.87981303486E+02  0.48546549284E+01  0.16633712352E+03  0.18829340429E+03  0.47000000000E+01 0.  1.
          5    1    3    3  503    0 -0.19459953776E+02  0.18793889916E+02 -0.56792296916E+01  0.28040038321E+02  0.47000000000E+01 0. -1.
         -5    1    4    4    0  502 -0.10799984053E+02 -0.20476627728E+02  0.28836389889E+02  0.37276793323E+02  0.47000000000E+01 0.  1.
<mgrwt>
<rscale>  0 0.14420748E+03</rscale>
<asrwt>0</asrwt>
<pdfrwt beam="1">  1        1 0.87089443E-02 0.14487650E+03</pdfrwt>
<pdfrwt beam="2">  1       -1 0.56038668E-01 0.14487650E+03</pdfrwt>
<totfact> 0.24910178E+03</totfact>
</mgrwt>
</event>
<event>
 8    1  0.3400573E-004  0.1103986E+03  0.7546771E-02  0.1259965E+00
         -1   -1    0    0    0  501 -0.00000000000E+00  0.00000000000E+00  0.11859856011E+02  0.11859856011E+02  0.00000000000E+00 0.  1.
          1   -1    0    0  501    0  0.00000000000E+00 -0.00000000000E+00 -0.11469688453E+04  0.11469688453E+04  0.00000000000E+00 0. -1.
         23    2    1    2    0    0  0.16423899598E+01  0.61973010608E+02 -0.37926874278E+03  0.39500965780E+03  0.91348229414E+02 0.  0.
         23    2    1    2    0    0 -0.16423899598E+01 -0.61973010608E+02 -0.75584024647E+03  0.76381904347E+03  0.91003854298E+02 0.  0.
          5    1    3    3  502    0  0.27783861857E+02  0.87743484468E+01 -0.26071640229E+03  0.26238152487E+03  0.47000000000E+01 0. -1.
         -5    1    3    3    0  502 -0.26141471897E+02  0.53198662162E+02 -0.11855234049E+03  0.13262813293E+03  0.47000000000E+01 0.  1.
          5    1    4    4  503    0 -0.39799509536E+02 -0.57949854778E+02 -0.43689238837E+03  0.44253727035E+03  0.47000000000E+01 0. -1.
         -5    1    4    4    0  503  0.38157119576E+02 -0.40231558308E+01 -0.31894785810E+03  0.32128177312E+03  0.47000000000E+01 0.  1.
<mgrwt>
<rscale>  0 0.11032733E+03</rscale>
<asrwt>0</asrwt>
<pdfrwt beam="1">  1        1 0.17645671E+00 0.11039860E+03</pdfrwt>
<pdfrwt beam="2">  1       -1 0.18245936E-02 0.11039860E+03</pdfrwt>
<totfact> 0.93707727E+03</totfact>
</mgrwt>
</event>
<event>
 8    1  0.3400573E-004  0.1182502E+03  0.7546771E-02  0.1246262E+00
         -2   -1    0    0    0  501 -0.00000000000E+00  0.00000000000E+00  0.16750761378E+03  0.16750761378E+03  0.00000000000E+00 0.  1.
          2   -1    0    0  501    0  0.00000000000E+00 -0.00000000000E+00 -0.11386336004E+03  0.11386336004E+03  0.00000000000E+00 0. -1.
         23    2    1    2    0    0  0.75238807895E+02  0.19301385972E+01 -0.46402303701E+02  0.12647609409E+03  0.90434644571E+02 0.  0.
         23    2    1    2    0    0 -0.75238807895E+02 -0.19301385972E+01  0.10004655743E+03  0.15489487973E+03  0.91205846660E+02 0.  0.
          5    1    4    4  502    0 -0.24392195159E+02 -0.18492595176E+02 -0.99252814333E+01  0.32520093366E+02  0.47000000000E+01 0. -1.
         -5    1    4    4    0  502 -0.50846612736E+02  0.16562456579E+02  0.10997183887E+03  0.12237478637E+03  0.47000000000E+01 0.  1.
          5    1    3    3  503    0  0.28086048776E+02 -0.30395308343E+02  0.13260740932E+02  0.43710847111E+02  0.47000000000E+01 0. -1.
         -5    1    3    3    0  503  0.47152759119E+02  0.32325446940E+02 -0.59663044633E+02  0.82765246977E+02  0.47000000000E+01 0.  1.
<mgrwt>
<rscale>  0 0.11810147E+03</rscale>
<asrwt>0</asrwt>
<pdfrwt beam="1">  1        2 0.17517440E-01 0.11825020E+03</pdfrwt>
<pdfrwt beam="2">  1       -2 0.25770402E-01 0.11825020E+03</pdfrwt>
<totfact> 0.41396750E+03</totfact>
</mgrwt>
</event>
<event>
 8    1  0.3400573E-004  0.9944786E+02  0.7546771E-02  0.1281582E+00
         -2   -1    0    0    0  501 -0.00000000000E+00  0.00000000000E+00  0.30028914389E+02  0.30028914389E+02  0.00000000000E+00 0.  1.
          2   -1    0    0  501    0  0.00000000000E+00 -0.00000000000E+00 -0.51004786495E+03  0.51004786495E+03  0.00000000000E+00 0. -1.
         23    2    1    2    0    0  0.39880247715E+02 -0.19636279723E+01 -0.40125268878E+03  0.41339278782E+03  0.91080111868E+02 0.  0.
         23    2    1    2    0    0 -0.39880247715E+02  0.19636279723E+01 -0.78766261781E+02  0.12668399152E+03  0.90831821071E+02 0.  0.
          5    1    3    3  502    0  0.57145162696E+02  0.17816226648E+02 -0.35465407621E+03  0.35970069686E+03  0.47000000000E+01 0. -1.
         -5    1    4    4    0  503 -0.19814137818E+02  0.34057218671E+02 -0.79151308338E+02  0.88541028979E+02  0.47000000000E+01 0. -1.
          5    1    4    4  503    0 -0.20066109896E+02 -0.32093590698E+02  0.38504655731E+00  0.38142962538E+02  0.47000000000E+01 0.  1.
         -5    1    3    3    0  502 -0.17264914981E+02 -0.19779854620E+02 -0.46598612566E+02  0.53692090956E+02  0.47000000000E+01 0.  1.
<mgrwt>
<rscale>  0 0.99390974E+02</rscale>
<asrwt>0</asrwt>
<pdfrwt beam="1">  1        2 0.78468904E-01 0.99447860E+02</pdfrwt>
<pdfrwt beam="2">  1       -2 0.46198329E-02 0.99447860E+02</pdfrwt>
<totfact> 0.12442525E+04</totfact>
</mgrwt>
</event>
<event>
 8    1  0.3400573E-004  0.1441059E+03  0.7546771E-02  0.1208304E+00
         -2   -1    0    0    0  501 -0.00000000000E+00  0.00000000000E+00  0.21954817447E+03  0.21954817447E+03  0.00000000000E+00 0.  1.
          2   -1    0    0  501    0  0.00000000000E+00 -0.00000000000E+00 -0.13600687757E+03  0.13600687757E+03  0.00000000000E+00 0. -1.
         23    2    1    2    0    0 -0.33976212254E+02  0.10537853448E+03 -0.57395814008E+02  0.15398674670E+03  0.90325080497E+02 0.  0.
         23    2    1    2    0    0  0.33976212254E+02 -0.10537853448E+03  0.14093711091E+03  0.20156830534E+03  0.92236077318E+02 0.  0.
          5    1    4    4  502    0  0.63516775544E+02 -0.71806412202E+02  0.75242707863E+02  0.12195940593E+03  0.47000000000E+01 0.  1.
         -5    1    4    4    0  502 -0.29540563289E+02 -0.33572122273E+02  0.65694403046E+02  0.79608899408E+02  0.47000000000E+01 0. -1.
          5    1    3    3  503    0 -0.34229209462E+02  0.72138610775E+02 -0.80305476187E+02  0.11334318440E+03  0.47000000000E+01 0. -1.
         -5    1    3    3    0  503  0.25299720740E+00  0.33239923700E+02  0.22909662179E+02  0.40643562299E+02  0.47000000000E+01 0.  1.
<mgrwt>
<rscale>  0 0.14380104E+03</rscale>
<asrwt>0</asrwt>
<pdfrwt beam="1">  1        2 0.20924135E-01 0.14410591E+03</pdfrwt>
<pdfrwt beam="2">  1       -2 0.33776642E-01 0.14410591E+03</pdfrwt>
<totfact> 0.21058164E+03</totfact>
</mgrwt>
</event>
<event>
 8    1  0.3400573E-004  0.1383110E+03  0.7546771E-02  0.1216297E+00
          2   -1    0    0  501    0  0.00000000000E+00  0.00000000000E+00  0.51838434797E+03  0.51838434797E+03  0.00000000000E+00 0. -1.
         -2   -1    0    0    0  501 -0.00000000000E+00 -0.00000000000E+00 -0.88752710220E+02  0.88752710220E+02  0.00000000000E+00 0.  1.
         23    2    1    2    0    0  0.10273141816E+03  0.63777794143E+01  0.44737675014E+03  0.46769234568E+03  0.89418976137E+02 0.  0.
         23    2    1    2    0    0 -0.10273141816E+03 -0.63777794143E+01 -0.17745112393E+02  0.13944471251E+03  0.92387869792E+02 0.  0.
          5    1    4    4  502    0 -0.87883382484E+02 -0.40457169797E+02  0.24217211470E+01  0.96892859583E+02  0.47000000000E+01 0. -1.
         -5    1    4    4    0  502 -0.14848035677E+02  0.34079390382E+02 -0.20166833540E+02  0.42551852925E+02  0.47000000000E+01 0.  1.
          5    1    3    3  503    0  0.11197991657E+03 -0.13219695923E+02  0.34681647249E+03  0.36471635234E+03  0.47000000000E+01 0. -1.
         -5    1    3    3    0  503 -0.92484984118E+01  0.19597475338E+02  0.10056027765E+03  0.10297599334E+03  0.47000000000E+01 0.  1.
<mgrwt>
<rscale>  0 0.13781707E+03</rscale>
<asrwt>0</asrwt>
<pdfrwt beam="1">  1        2 0.79751436E-01 0.13831102E+03</pdfrwt>
<pdfrwt beam="2">  1       -2 0.13654263E-01 0.13831102E+03</pdfrwt>
<totfact> 0.23418430E+03</totfact>
</mgrwt>
</event>
<event>
 7    1  0.3400573E-004  0.1938081E+03  0.7546771E-02  0.1164465E+00
          2   -1    0    0  501    0  0.00000000000E+00  0.00000000000E+00  0.14710463785E+04  0.14710463785E+04  0.00000000000E+00 0. -1.
         -2   -1    0    0    0  501 -0.00000000000E+00 -0.00000000000E+00 -0.33420570401E+02  0.33420570401E+02  0.00000000000E+00 0.  1.
         23    2    1    2    0    0  0.11684463655E+03  0.48799760815E+02  0.11313807962E+04  0.11420478903E+04  0.90646522030E+02 0.  0.
          5    1    3    3  502    0  0.10819504488E+03  0.24343665926E+02  0.10626993478E+04  0.10684805921E+04  0.47000000000E+01 0. -1.
         -5    1    3    3    0  502  0.86495916670E+01  0.24456094889E+02  0.68681448387E+02  0.73567298209E+02  0.47000000000E+01 0.  1.
          5    1    1    2  503    0 -0.24002130308E+02 -0.83173604262E+02  0.19513655582E+03  0.21352825603E+03  0.47000000000E+01 0. -1.
         -5    1    1    2    0  503 -0.92842506238E+02  0.34373843446E+02  0.11110845602E+03  0.14889080253E+03  0.47000000000E+01 0.  1.
<mgrwt>
<rscale>  0 0.18349313E+03</rscale>
<asrwt>0</asrwt>
<pdfrwt beam="1">  1        2 0.22631478E+00 0.19380807E+03</pdfrwt>
<pdfrwt beam="2">  1       -2 0.51416274E-02 0.19380807E+03</pdfrwt>
<totfact> 0.26511520E+03</totfact>
</mgrwt>
</event>
<event>
 8    1  0.3400573E-004  0.9595974E+02  0.7546771E-02  0.1289985E+00
         -2   -1    0    0    0  501 -0.00000000000E+00  0.00000000000E+00  0.25625061641E+02  0.25625061641E+02  0.00000000000E+00 0.  1.
          2   -1    0    0  501    0  0.00000000000E+00 -0.00000000000E+00 -0.38759529959E+03  0.38759529959E+03  0.00000000000E+00 0. -1.
         23    2    1    2    0    0 -0.12811211443E+02 -0.19271076347E+02 -0.11778077140E+03  0.15085274295E+03  0.91371431093E+02 0.  0.
         23    2    1    2    0    0  0.12811211443E+02  0.19271076347E+02 -0.24418946654E+03  0.26236761828E+03  0.93127708175E+02 0.  0.
          5    1    4    4  502    0  0.34993397497E+02  0.46181995275E+02 -0.12082672036E+03  0.13408393233E+03  0.47000000000E+01 0. -1.
         -5    1    4    4    0  502 -0.22182186054E+02 -0.26910918928E+02 -0.12336274618E+03  0.12828368595E+03  0.47000000000E+01 0.  1.
          5    1    3    3  503    0  0.49223511333E-01  0.36513471534E+02 -0.46362524822E+02  0.59201433549E+02  0.47000000000E+01 0. -1.
         -5    1    3    3    0  503 -0.12860434954E+02 -0.55784547881E+02 -0.71418246582E+02  0.91651309398E+02  0.47000000000E+01 0.  1.
<mgrwt>
<rscale>  0 0.95531001E+02</rscale>
<asrwt>0</asrwt>
<pdfrwt beam="1">  1        2 0.59630044E-01 0.95959739E+02</pdfrwt>
<pdfrwt beam="2">  1       -2 0.39423173E-02 0.95959739E+02</pdfrwt>
<totfact> 0.21017087E+04</totfact>
</mgrwt>
</event>
<event>
 8    1  0.3400573E-004  0.1103449E+03  0.7546771E-02  0.1265728E+00
         -2   -1    0    0    0  501 -0.00000000000E+00  0.00000000000E+00  0.18622427596E+03  0.18622427596E+03  0.00000000000E+00 0.  1.
          2   -1    0    0  501    0  0.00000000000E+00 -0.00000000000E+00 -0.92715198980E+02  0.92715198980E+02  0.00000000000E+00 0. -1.
         23    2    1    2    0    0  0.31255968186E+02 -0.28022433482E+02 -0.39479533227E+02  0.10613330686E+03  0.89126050934E+02 0.  0.
         23    2    1    2    0    0 -0.31255968186E+02  0.28022433482E+02  0.13298861021E+03  0.17280616809E+03  0.10204807180E+03 0.  0.
          5    1    4    4  502    0  0.33589111678E+02  0.22824035147E+02  0.75529988173E+02  0.85883840838E+02  0.47000000000E+01 0. -1.
         -5    1    3    3    0  503 -0.27631107210E+02 -0.16164921908E+02  0.28760085047E+01  0.32482983404E+02  0.47000000000E+01 0.  1.
          5    1    3    3  503    0  0.58887075395E+02 -0.11857511574E+02 -0.42355541731E+02  0.73650323453E+02  0.47000000000E+01 0. -1.
         -5    1    4    4    0  502 -0.64845079864E+02  0.51983983347E+01  0.57458622036E+02  0.86922327247E+02  0.47000000000E+01 0.  1.
<mgrwt>
<rscale>  0 0.10726112E+03</rscale>
<asrwt>0</asrwt>
<pdfrwt beam="1">  1        2 0.14263877E-01 0.11034492E+03</pdfrwt>
<pdfrwt beam="2">  1       -2 0.28649889E-01 0.11034492E+03</pdfrwt>
<totfact> 0.43370541E+03</totfact>
</mgrwt>
</event>
<event>
 8    1  0.3400573E-004  0.9296346E+02  0.7546771E-02  0.1296734E+00
         -2   -1    0    0    0  501 -0.00000000000E+00  0.00000000000E+00  0.45109365644E+03  0.45109365644E+03  0.00000000000E+00 0.  1.
          2   -1    0    0  501    0  0.00000000000E+00 -0.00000000000E+00 -0.18842019823E+02  0.18842019823E+02  0.00000000000E+00 0. -1.
         23    2    1    2    0    0  0.19429951152E+02  0.43214526309E+01  0.21960753225E+03  0.23847363001E+03  0.90807521898E+02 0.  0.
         23    2    1    2    0    0 -0.19429951152E+02 -0.43214526309E+01  0.21264410436E+03  0.23146204625E+03  0.89224244354E+02 0.  0.
          5    1    3    3  502    0  0.54687603888E+02  0.92271051229E+01  0.11265488487E+03  0.12565463212E+03  0.47000000000E+01 0. -1.
         -5    1    3    3    0  502 -0.35257652736E+02 -0.49056524920E+01  0.10695264738E+03  0.11281899789E+03  0.47000000000E+01 0.  1.
          5    1    4    4  503    0  0.17601997940E+02  0.14073910227E+02  0.10902146225E+02  0.25472574916E+02  0.47000000000E+01 0. -1.
         -5    1    4    4    0  503 -0.37031949091E+02 -0.18395362858E+02  0.20174195814E+03  0.20598947134E+03  0.47000000000E+01 0.  1.
<mgrwt>
<rscale>  0 0.92574539E+02</rscale>
<asrwt>0</asrwt>
<pdfrwt beam="1">  1        2 0.28987726E-02 0.92963455E+02</pdfrwt>
<pdfrwt beam="2">  1       -2 0.69399016E-01 0.92963455E+02</pdfrwt>
<totfact> 0.58081273E+03</totfact>
</mgrwt>
</event>
<event>
 8    1  0.3400573E-004  0.1404590E+03  0.7546771E-02  0.1212823E+00
          1   -1    0    0  501    0  0.00000000000E+00  0.00000000000E+00  0.73687688468E+02  0.73687688468E+02  0.00000000000E+00 0. -1.
         -1   -1    0    0    0  501 -0.00000000000E+00 -0.00000000000E+00 -0.26861133645E+03  0.26861133645E+03  0.00000000000E+00 0.  1.
         23    2    1    2    0    0 -0.67341900366E+02 -0.83328772803E+02 -0.11038978453E+03  0.17864669794E+03  0.90830183506E+02 0.  0.
         23    2    1    2    0    0  0.67341900366E+02  0.83328772803E+02 -0.84533863451E+02  0.16365232697E+03  0.90318847045E+02 0.  0.
          5    1    3    3  502    0 -0.85634700943E+01 -0.53686250568E+02 -0.56652891476E+01  0.54861024610E+02  0.47000000000E+01 0. -1.
         -5    1    3    3    0  502 -0.58778430272E+02 -0.29642522235E+02 -0.10472449538E+03  0.12378567333E+03  0.47000000000E+01 0.  1.
          5    1    4    4  503    0  0.69196194937E+02  0.57613531130E+02 -0.17728179993E+02  0.91890210191E+02  0.47000000000E+01 0. -1.
         -5    1    4    4    0  503 -0.18542945706E+01  0.25715241673E+02 -0.66805683458E+02  0.71762116781E+02  0.47000000000E+01 0.  1.
<mgrwt>
<rscale>  0 0.14037642E+03</rscale>
<asrwt>0</asrwt>
<pdfrwt beam="1">  1        1 0.11336568E-01 0.14045903E+03</pdfrwt>
<pdfrwt beam="2">  1       -1 0.41324821E-01 0.14045903E+03</pdfrwt>
<totfact> 0.30462884E+03</totfact>
</mgrwt>
</event>
<event>
 8    1  0.3400573E-004  0.1153016E+03  0.7546771E-02  0.1258258E+00
         -1   -1    0    0    0  501 -0.00000000000E+00  0.00000000000E+00  0.31182822027E+02  0.31182822027E+02  0.00000000000E+00 0.  1.
          1   -1    0    0  501    0  0.00000000000E+00 -0.00000000000E+00 -0.41042420911E+03  0.41042420911E+03  0.00000000000E+00 0. -1.
         23    2    1    2    0    0 -0.12159423214E+02 -0.39259100997E+02 -0.10953722135E+03  0.14829015346E+03  0.91117716005E+02 0.  0.
         23    2    1    2    0    0  0.12159423214E+02  0.39259100997E+02 -0.26970416574E+03  0.29331687768E+03  0.10772801460E+03 0.  0.
          5    1    4    4  502    0  0.10155603024E+02  0.63929184985E+02 -0.85216026881E+02  0.10711647027E+03  0.47000000000E+01 0. -1.
         -5    1    3    3    0  503  0.15227831446E+02 -0.31856965542E+02 -0.60477579828E+00  0.35625957641E+02  0.47000000000E+01 0.  1.
          5    1    3    3  503    0 -0.27387254661E+02 -0.74021354555E+01 -0.10893244555E+03  0.11266419582E+03  0.47000000000E+01 0. -1.
         -5    1    4    4    0  502  0.20038201908E+01 -0.24670083988E+02 -0.18448813886E+03  0.18620040741E+03  0.47000000000E+01 0.  1.
<mgrwt>
<rscale>  0 0.11125784E+03</rscale>
<asrwt>0</asrwt>
<pdfrwt beam="1">  1        1 0.63142181E-01 0.11530158E+03</pdfrwt>
<pdfrwt beam="2">  1       -1 0.47973576E-02 0.11530158E+03</pdfrwt>
<totfact> 0.10286071E+04</totfact>
</mgrwt>
</event>
<event>
 8    1  0.3400573E-004  0.9533680E+02  0.7546771E-02  0.1290740E+00
          2   -1    0    0  501    0  0.00000000000E+00  0.00000000000E+00  0.45610503295E+02  0.45610503295E+02  0.00000000000E+00 0. -1.
         -2   -1    0    0    0  501 -0.00000000000E+00 -0.00000000000E+00 -0.28773006962E+03  0.28773006962E+03  0.00000000000E+00 0.  1.
         23    2    1    2    0    0  0.19193688464E+02 -0.10961941877E+02 -0.21434103761E+03  0.23458726781E+03  0.92739117803E+02 0.  0.
         23    2    1    2    0    0 -0.19193688464E+02  0.10961941877E+02 -0.27778528714E+02  0.98753305099E+02  0.92152084968E+02 0.  0.
          5    1    3    3  502    0 -0.77146630684E+01 -0.46506581962E+02 -0.13975072070E+03  0.14756263798E+03  0.47000000000E+01 0. -1.
         -5    1    4    4    0  503 -0.30156233084E+02  0.45744728727E+02 -0.28577212785E+02  0.61973588654E+02  0.47000000000E+01 0.  1.
          5    1    4    4  503    0  0.10962544620E+02 -0.34782786849E+02  0.79868407074E+00  0.36779716445E+02  0.47000000000E+01 0. -1.
         -5    1    3    3    0  502  0.26908351532E+02  0.35544640084E+02 -0.74590316907E+02  0.87024629831E+02  0.47000000000E+01 0.  1.
<mgrwt>
<rscale>  0 0.95193745E+02</rscale>
<asrwt>0</asrwt>
<pdfrwt beam="1">  1        2 0.70170007E-02 0.95336802E+02</pdfrwt>
<pdfrwt beam="2">  1       -2 0.44266163E-01 0.95336802E+02</pdfrwt>
<totfact> 0.45568138E+03</totfact>
</mgrwt>
</event>
<event>
 8    1  0.3400573E-004  0.2479094E+03  0.7546771E-02  0.1114703E+00
          1   -1    0    0  501    0  0.00000000000E+00  0.00000000000E+00  0.51872589628E+03  0.51872589628E+03  0.00000000000E+00 0. -1.
         -1   -1    0    0    0  501 -0.00000000000E+00 -0.00000000000E+00 -0.12286691674E+03  0.12286691674E+03  0.00000000000E+00 0.  1.
         23    2    1    2    0    0 -0.22960963505E+03 -0.15882957171E+02  0.13606666936E+03  0.28279539101E+03  0.92120800192E+02 0.  0.
         23    2    1    2    0    0  0.22960963505E+03  0.15882957171E+02  0.25979231017E+03  0.35879742201E+03  0.90943349300E+02 0.  0.
          5    1    4    4  502    0  0.20583222824E+03  0.13978277735E+01  0.25857808184E+03  0.33053528482E+03  0.47000000000E+01 0. -1.
         -5    1    4    4    0  502  0.23777406806E+02  0.14485129397E+02  0.12142283350E+01  0.28262137189E+02  0.47000000000E+01 0.  1.
          5    1    3    3  503    0 -0.81103122833E+02 -0.49891058785E+02  0.57169031086E+02  0.11116304420E+03  0.47000000000E+01 0. -1.
         -5    1    3    3    0  503 -0.14850651221E+03  0.34008101614E+02  0.78897638278E+02  0.17163234681E+03  0.47000000000E+01 0.  1.
<mgrwt>
<rscale>  0 0.24780060E+03</rscale>
<asrwt>0</asrwt>
<pdfrwt beam="1">  1        1 0.79803983E-01 0.24790945E+03</pdfrwt>
<pdfrwt beam="2">  1       -1 0.18902603E-01 0.24790945E+03</pdfrwt>
<totfact> 0.95220167E+02</totfact>
</mgrwt>
</event>
<event>
 8    1  0.3400573E-004  0.9800193E+02  0.7546771E-02  0.1286658E+00
          2   -1    0    0  501    0  0.00000000000E+00  0.00000000000E+00  0.80505997290E+02  0.80505997290E+02  0.00000000000E+00 0. -1.
         -2   -1    0    0    0  501 -0.00000000000E+00 -0.00000000000E+00 -0.11922588048E+03  0.11922588048E+03  0.00000000000E+00 0.  1.
         23    2    1    2    0    0  0.16308301351E+01  0.25335112515E+02 -0.28555925829E+00  0.98002345508E+02  0.94656487617E+02 0.  0.
         23    2    1    2    0    0 -0.16308301351E+01 -0.25335112515E+02 -0.38434323927E+02  0.10172953226E+03  0.90703764775E+02 0.  0.
          5    1    4    4  502    0  0.41109512428E+02 -0.45212825438E+01 -0.20380484998E+01  0.41673464574E+02  0.47000000000E+01 0. -1.
         -5    1    4    4    0  502 -0.42740342563E+02 -0.20813829971E+02 -0.36396275428E+02  0.60056067683E+02  0.47000000000E+01 0.  1.
          5    1    3    3  503    0 -0.21022518227E+02 -0.29946566776E+02  0.72738315114E+01  0.37599757434E+02  0.47000000000E+01 0. -1.
         -5    1    3    3    0  503  0.22653348362E+02  0.55281679291E+02 -0.75593907697E+01  0.60402588074E+02  0.47000000000E+01 0.  1.
<mgrwt>
<rscale>  0 0.97034647E+02</rscale>
<asrwt>0</asrwt>
<pdfrwt beam="1">  1        2 0.12385538E-01 0.98001929E+02</pdfrwt>
<pdfrwt beam="2">  1       -2 0.18342443E-01 0.98001929E+02</pdfrwt>
<totfact> 0.10897715E+04</totfact>
</mgrwt>
</event>
<event>
 8    1  0.3400573E-004  0.9985460E+02  0.7546771E-02  0.1282001E+00
         -1   -1    0    0    0  501 -0.00000000000E+00  0.00000000000E+00  0.38355851705E+02  0.38355851705E+02  0.00000000000E+00 0.  1.
          1   -1    0    0  501    0  0.00000000000E+00 -0.00000000000E+00 -0.46168866467E+03  0.46168866467E+03  0.00000000000E+00 0. -1.
         23    2    1    2    0    0  0.39253668497E+02  0.69102635574E+01 -0.45197609397E+02  0.10960731869E+03  0.91555110081E+02 0.  0.
         23    2    1    2    0    0 -0.39253668497E+02 -0.69102635574E+01 -0.37813520356E+03  0.39043719768E+03  0.88692564103E+02 0.  0.
          5    1    3    3  502    0  0.12313422379E+02  0.44925144559E+02 -0.41616496930E+02  0.62641135056E+02  0.47000000000E+01 0. -1.
         -5    1    4    4    0  503  0.26288669298E+02 -0.13343160435E+02 -0.14990351286E+03  0.15284726767E+03  0.47000000000E+01 0.  1.
          5    1    4    4  503    0 -0.65542337795E+02  0.64328968773E+01 -0.22823169070E+03  0.23758993002E+03  0.47000000000E+01 0. -1.
         -5    1    3    3    0  502  0.26940246118E+02 -0.38014881002E+02 -0.35811124665E+01  0.46966183632E+02  0.47000000000E+01 0.  1.
<mgrwt>
<rscale>  0 0.99193584E+02</rscale>
<asrwt>0</asrwt>
<pdfrwt beam="1">  1        1 0.71029028E-01 0.99854596E+02</pdfrwt>
<pdfrwt beam="2">  1       -1 0.59009001E-02 0.99854596E+02</pdfrwt>
<totfact> 0.64658243E+03</totfact>
</mgrwt>
</event>
<event>
 8    1  0.3400573E-004  0.2208720E+03  0.7546771E-02  0.1133238E+00
         -2   -1    0    0    0  501 -0.00000000000E+00  0.00000000000E+00  0.24257877548E+02  0.24257877548E+02  0.00000000000E+00 0.  1.
          2   -1    0    0  501    0  0.00000000000E+00 -0.00000000000E+00 -0.21522835909E+04  0.21522835909E+04  0.00000000000E+00 0. -1.
         23    2    1    2    0    0 -0.79205977843E+01 -0.20137956905E+03 -0.13429510538E+04  0.13609930046E+04  0.90376760563E+02 0.  0.
         23    2    1    2    0    0  0.79205977843E+01  0.20137956905E+03 -0.78507465948E+03  0.81554846381E+03  0.90336090126E+02 0.  0.
          5    1    3    3  502    0  0.35279213516E+01 -0.10906531818E+03 -0.98823397234E+03  0.99425155969E+03  0.47000000000E+01 0. -1.
         -5    1    3    3    0  502 -0.11448519136E+02 -0.92314250869E+02 -0.35471708149E+03  0.36674144490E+03  0.47000000000E+01 0.  1.
          5    1    4    4  503    0  0.41356651196E+02  0.12057004129E+03 -0.37103615124E+03  0.39234859880E+03  0.47000000000E+01 0. -1.
         -5    1    4    4    0  503 -0.33436053412E+02  0.80809527760E+02 -0.41403850824E+03  0.42319986501E+03  0.47000000000E+01 0.  1.
<mgrwt>
<rscale>  0 0.22086781E+03</rscale>
<asrwt>0</asrwt>
<pdfrwt beam="1">  1        2 0.33112057E+00 0.22087197E+03</pdfrwt>
<pdfrwt beam="2">  1       -2 0.37319810E-02 0.22087197E+03</pdfrwt>
<totfact> 0.18908094E+03</totfact>
</mgrwt>
</event>
<event>
 8    1  0.3400573E-004  0.1068046E+03  0.7546771E-02  0.1268132E+00
         -1   -1    0    0    0  501 -0.00000000000E+00  0.00000000000E+00  0.26100184920E+03  0.26100184920E+03  0.00000000000E+00 0.  1.
          1   -1    0    0  501    0  0.00000000000E+00 -0.00000000000E+00 -0.43950724133E+02  0.43950724133E+02  0.00000000000E+00 0. -1.
         23    2    1    2    0    0  0.11404261191E+02  0.49601155815E+02  0.81785060264E+02  0.13452142795E+03  0.93898278283E+02 0.  0.
         23    2    1    2    0    0 -0.11404261191E+02 -0.49601155815E+02  0.13526606480E+03  0.17043114538E+03  0.90330145561E+02 0.  0.
          5    1    3    3  502    0  0.94647526146E+01 -0.21527245989E+02 -0.25071734891E+01  0.24111818281E+02  0.47000000000E+01 0. -1.
         -5    1    3    3    0  502  0.19395085769E+01  0.71128401804E+02  0.84292233753E+02  0.11040960967E+03  0.47000000000E+01 0.  1.
          5    1    4    4  503    0 -0.24665725041E+02 -0.67320862394E+02  0.12778527891E+03  0.14660035475E+03  0.47000000000E+01 0. -1.
         -5    1    4    4    0  503  0.13261463849E+02  0.17719706579E+02  0.74807858896E+01  0.23830790633E+02  0.47000000000E+01 0.  1.
<mgrwt>
<rscale>  0 0.10601512E+03</rscale>
<asrwt>0</asrwt>
<pdfrwt beam="1">  1        1 0.67616500E-02 0.10680458E+03</pdfrwt>
<pdfrwt beam="2">  1       -1 0.40154130E-01 0.10680458E+03</pdfrwt>
<totfact> 0.62587052E+03</totfact>
</mgrwt>
</event>
<event>
 8    1  0.3400573E-004  0.2251650E+03  0.7546771E-02  0.1132958E+00
          1   -1    0    0  501    0  0.00000000000E+00  0.00000000000E+00  0.18210136114E+03  0.18210136114E+03  0.00000000000E+00 0. -1.
         -1   -1    0    0    0  501 -0.00000000000E+00 -0.00000000000E+00 -0.32939238436E+03  0.32939238436E+03  0.00000000000E+00 0.  1.
         23    2    1    2    0    0 -0.70077716755E+00  0.18937454145E+03 -0.18906329781E+03  0.28248679257E+03  0.90502206368E+02 0.  0.
         23    2    1    2    0    0  0.70077716755E+00 -0.18937454145E+03  0.41772274595E+02  0.22900695293E+03  0.12180333955E+03 0.  0.
          5    1    4    4  502    0  0.50901741096E+02 -0.15639054296E+03  0.36445218432E+02  0.16852101685E+03  0.47000000000E+01 0. -1.
         -5    1    3    3    0  503 -0.23856142651E+02  0.79147924497E+02 -0.13279602818E+03  0.15649404013E+03  0.47000000000E+01 0.  1.
          5    1    3    3  503    0  0.23155365483E+02  0.11022661696E+03 -0.56267269627E+02  0.12599275244E+03  0.47000000000E+01 0. -1.
         -5    1    4    4    0  502 -0.50200963928E+02 -0.32983998489E+02  0.53270561624E+01  0.60485936076E+02  0.47000000000E+01 0.  1.
<mgrwt>
<rscale>  0 0.22124507E+03</rscale>
<asrwt>0</asrwt>
<pdfrwt beam="1">  1        1 0.28015594E-01 0.22516497E+03</pdfrwt>
<pdfrwt beam="2">  1       -1 0.50675751E-01 0.22516497E+03</pdfrwt>
<totfact> 0.66375258E+02</totfact>
</mgrwt>
</event>
<event>
 8    1  0.3400573E-004  0.1110587E+03  0.7546771E-02  0.1259271E+00
         -1   -1    0    0    0  501 -0.00000000000E+00  0.00000000000E+00  0.76881460297E+02  0.76881460297E+02  0.00000000000E+00 0.  1.
          1   -1    0    0  501    0  0.00000000000E+00 -0.00000000000E+00 -0.15854990616E+03  0.15854990616E+03  0.00000000000E+00 0. -1.
         23    2    1    2    0    0  0.35590471223E+02 -0.52223180489E+02 -0.37449292236E+02  0.11720277247E+03  0.91324137906E+02 0.  0.
         23    2    1    2    0    0 -0.35590471223E+02  0.52223180489E+02 -0.44219153627E+02  0.11822859398E+03  0.89603150978E+02 0.  0.
          5    1    4    4  502    0 -0.26760467175E+00  0.54498619941E+02 -0.58209641592E+02  0.79878805462E+02  0.47000000000E+01 0. -1.
         -5    1    3    3    0  503  0.10112597213E+02 -0.35945165075E+02  0.26690424409E+02  0.46138793545E+02  0.47000000000E+01 0.  1.
          5    1    3    3  503    0  0.25477874010E+02 -0.16278015414E+02 -0.64139716645E+02  0.71063978929E+02  0.47000000000E+01 0. -1.
         -5    1    4    4    0  502 -0.35322866551E+02 -0.22754394513E+01  0.13990487965E+02  0.38349788521E+02  0.47000000000E+01 0.  1.
<mgrwt>
<rscale>  0 0.11070433E+03</rscale>
<asrwt>0</asrwt>
<pdfrwt beam="1">  1        1 0.24392293E-01 0.11105872E+03</pdfrwt>
<pdfrwt beam="2">  1       -1 0.11827917E-01 0.11105872E+03</pdfrwt>
<totfact> 0.86000387E+03</totfact>
</mgrwt>
</event>
<event>
 8    1  0.3400573E-004  0.1016180E+03  0.7546771E-02  0.1277259E+00
         -1   -1    0    0    0  501 -0.00000000000E+00  0.00000000000E+00  0.16821050842E+02  0.16821050842E+02  0.00000000000E+00 0.  1.
          1   -1    0    0  501    0  0.00000000000E+00 -0.00000000000E+00 -0.63705535728E+03  0.63705535728E+03  0.00000000000E+00 0. -1.
         23    2    1    2    0    0 -0.32458116270E+02  0.30892116749E+02 -0.24372368327E+03  0.26405957155E+03  0.91205105970E+02 0.  0.
         23    2    1    2    0    0  0.32458116270E+02 -0.30892116749E+02 -0.37651062317E+03  0.38981683657E+03  0.90493450161E+02 0.  0.
          5    1    4    4  502    0  0.21971548344E+02 -0.61280805811E+02 -0.29360852068E+03  0.30077589583E+03  0.47000000000E+01 0. -1.
         -5    1    4    4    0  502  0.10486567926E+02  0.30388689062E+02 -0.82902102490E+02  0.89040940736E+02  0.47000000000E+01 0.  1.
          5    1    3    3  503    0  0.21090119481E+02 -0.18465633138E+02 -0.76310449273E+02  0.81431857495E+02  0.47000000000E+01 0. -1.
         -5    1    3    3    0  503 -0.53548235751E+02  0.49357749887E+02 -0.16741323399E+03  0.18262771406E+03  0.47000000000E+01 0.  1.
<mgrwt>
<rscale>  0 0.10145809E+03</rscale>
<asrwt>0</asrwt>
<pdfrwt beam="1">  1        1 0.98008532E-01 0.10161803E+03</pdfrwt>
<pdfrwt beam="2">  1       -1 0.25878536E-02 0.10161803E+03</pdfrwt>
<totfact> 0.14082772E+04</totfact>
</mgrwt>
</event>
<event>
 7    1  0.3400573E-004  0.1181780E+03  0.7546771E-02  0.1264596E+00
          1   -1    0    0  501    0  0.00000000000E+00  0.00000000000E+00  0.54734642673E+02  0.54734642673E+02  0.00000000000E+00 0. -1.
         -1   -1    0    0    0  501 -0.00000000000E+00 -0.00000000000E+00 -0.25127338226E+03  0.25127338226E+03  0.00000000000E+00 0.  1.
         23    2    1    2    0    0  0.24718252144E+01 -0.74179715583E+02 -0.32409360040E+02  0.12254141354E+03  0.91963532397E+02 0.  0.
          5    1    1    2  502    0  0.18431319863E+01  0.49352223874E+02 -0.69255807460E+02  0.85190938508E+02  0.47000000000E+01 0. -1.
         -5    1    1    2    0  502 -0.43149572008E+01  0.24827491709E+02 -0.94873572086E+02  0.98275672882E+02  0.47000000000E+01 0.  1.
          5    1    3    3  503    0 -0.42898237330E+02 -0.21934124896E+02 -0.83020990778E+01  0.49115979580E+02  0.47000000000E+01 0. -1.
         -5    1    3    3    0  503  0.45370062544E+02 -0.52245590687E+02 -0.24107260962E+02  0.73425433963E+02  0.47000000000E+01 0.  1.
<mgrwt>
<rscale>  0 0.10785394E+03</rscale>
<asrwt>0</asrwt>
<pdfrwt beam="1">  1        1 0.84207141E-02 0.11817797E+03</pdfrwt>
<pdfrwt beam="2">  1       -1 0.38657444E-01 0.11817797E+03</pdfrwt>
<totfact> 0.50239771E+03</totfact>
</mgrwt>
</event>
<event>
 8    1  0.3400573E-004  0.9789127E+02  0.7546771E-02  0.1285535E+00
          1   -1    0    0  501    0  0.00000000000E+00  0.00000000000E+00  0.31687115118E+03  0.31687115118E+03  0.00000000000E+00 0. -1.
         -1   -1    0    0    0  501 -0.00000000000E+00 -0.00000000000E+00 -0.43381059184E+02  0.43381059184E+02  0.00000000000E+00 0.  1.
         23    2    1    2    0    0  0.33784217160E+02  0.12418419221E+01  0.23678543315E+03  0.25570589181E+03  0.90417068360E+02 0.  0.
         23    2    1    2    0    0 -0.33784217160E+02 -0.12418419221E+01  0.36704658840E+02  0.10454631855E+03  0.91868303795E+02 0.  0.
          5    1    3    3  502    0  0.54797229518E+02  0.28188425937E+02  0.16038099727E+03  0.17187634510E+03  0.47000000000E+01 0. -1.
         -5    1    4    4    0  503 -0.42545117160E+02 -0.36661079056E+02  0.37596504979E+02  0.67747390343E+02  0.47000000000E+01 0.  1.
          5    1    4    4  503    0  0.87608999998E+01  0.35419237134E+02 -0.89184613807E+00  0.36798928211E+02  0.47000000000E+01 0. -1.
         -5    1    3    3    0  502 -0.21013012358E+02 -0.26946584015E+02  0.76404435880E+02  0.83829546704E+02  0.47000000000E+01 0.  1.
<mgrwt>
<rscale>  0 0.97549321E+02</rscale>
<asrwt>0</asrwt>
<pdfrwt beam="1">  1        1 0.48749406E-01 0.97891270E+02</pdfrwt>
<pdfrwt beam="2">  1       -1 0.66740093E-02 0.97891270E+02</pdfrwt>
<totfact> 0.85946695E+03</totfact>
</mgrwt>
</event>
<event>
 8    1  0.3400573E-004  0.1129433E+03  0.7546771E-02  0.1260073E+00
         -1   -1    0    0    0  501 -0.00000000000E+00  0.00000000000E+00  0.46120115126E+03  0.46120115126E+03  0.00000000000E+00 0.  1.
          1   -1    0    0  501    0  0.00000000000E+00 -0.00000000000E+00 -0.26660430514E+02  0.26660430514E+02  0.00000000000E+00 0. -1.
         23    2    1    2    0    0 -0.73037029233E-01 -0.64055673625E+02  0.26470074759E+03  0.28389638352E+03  0.80171916158E+02 0.  0.
         23    2    1    2    0    0  0.73037029233E-01  0.64055673625E+02  0.16983997316E+03  0.20396519826E+03  0.93021776813E+02 0.  0.
          5    1    3    3  502    0  0.35964691510E+02 -0.53252332351E+02  0.15645563335E+03  0.16920320666E+03  0.47000000000E+01 0. -1.
         -5    1    4    4    0  503  0.22378944223E+02  0.40298488468E+01  0.90236391567E+00  0.23237062786E+02  0.47000000000E+01 0. -1.
          5    1    4    4  503    0 -0.22305907194E+02  0.60025824778E+02  0.16893760924E+03  0.18072813548E+03  0.47000000000E+01 0.  1.
         -5    1    3    3    0  502 -0.36037728539E+02 -0.10803341274E+02  0.10824511424E+03  0.11469317686E+03  0.47000000000E+01 0.  1.
<mgrwt>
<rscale>  0 0.11026872E+03</rscale>
<asrwt>0</asrwt>
<pdfrwt beam="1">  1        1 0.41016050E-02 0.11294328E+03</pdfrwt>
<pdfrwt beam="2">  1       -1 0.70954017E-01 0.11294328E+03</pdfrwt>
<totfact> 0.43272631E+03</totfact>
</mgrwt>
</event>
<event>
 8    1  0.3400573E-004  0.1281138E+03  0.7546771E-02  0.1231466E+00
         -2   -1    0    0    0  501 -0.00000000000E+00  0.00000000000E+00  0.23202703372E+03  0.23202703372E+03  0.00000000000E+00 0.  1.
          2   -1    0    0  501    0  0.00000000000E+00 -0.00000000000E+00 -0.96323761568E+02  0.96323761568E+02  0.00000000000E+00 0. -1.
         23    2    1    2    0    0 -0.65983592118E+01  0.90709057179E+02 -0.18922886749E+02  0.12950371879E+03  0.90230073362E+02 0.  0.
         23    2    1    2    0    0  0.65983592118E+01 -0.90709057179E+02  0.15462615890E+03  0.19884707650E+03  0.85786009445E+02 0.  0.
          5    1    4    4  502    0 -0.22814432551E+02 -0.83352821187E+02  0.78787363890E+02  0.11703730107E+03  0.47000000000E+01 0.  1.
         -5    1    4    4    0  502  0.29412791763E+02 -0.73562359924E+01  0.75838795010E+02  0.81809775429E+02  0.47000000000E+01 0. -1.
          5    1    3    3  503    0  0.17040570277E+02  0.99095422972E+02 -0.24007667599E+02  0.10348305172E+03  0.47000000000E+01 0. -1.
         -5    1    3    3    0  503 -0.23638929489E+02 -0.83863657924E+01  0.50847808496E+01  0.26020667072E+02  0.47000000000E+01 0.  1.
<mgrwt>
<rscale>  0 0.12733415E+03</rscale>
<asrwt>0</asrwt>
<pdfrwt beam="1">  1        2 0.14819040E-01 0.12811377E+03</pdfrwt>
<pdfrwt beam="2">  1       -2 0.35696467E-01 0.12811377E+03</pdfrwt>
<totfact> 0.28098390E+03</totfact>
</mgrwt>
</event>
<event>
 8    1  0.3400573E-004  0.1012190E+03  0.7546771E-02  0.1278287E+00
         -1   -1    0    0    0  501 -0.00000000000E+00  0.00000000000E+00  0.28168527624E+03  0.28168527624E+03  0.00000000000E+00 0.  1.
          1   -1    0    0  501    0  0.00000000000E+00 -0.00000000000E+00 -0.45409228662E+02  0.45409228662E+02  0.00000000000E+00 0. -1.
         23    2    1    2    0    0  0.39193681931E+02 -0.14775410574E+02  0.19209373977E+03  0.21665285306E+03  0.91016462368E+02 0.  0.
         23    2    1    2    0    0 -0.39193681931E+02  0.14775410574E+02  0.44182307817E+02  0.11044165185E+03  0.92145670964E+02 0.  0.
          5    1    4    4  502    0  0.20338842590E+01 -0.29335571316E+02  0.39820825379E+02  0.49724245228E+02  0.47000000000E+01 0. -1.
         -5    1    3    3    0  503 -0.21769982863E+02 -0.90754865072E+00  0.11568686127E+03  0.11781466661E+03  0.47000000000E+01 0.  1.
          5    1    3    3  503    0  0.60963664794E+02 -0.13867861923E+02  0.76406878498E+02  0.98838186453E+02  0.47000000000E+01 0. -1.
         -5    1    4    4    0  502 -0.41227566189E+02  0.44110981890E+02  0.43614824374E+01  0.60717406617E+02  0.47000000000E+01 0.  1.
<mgrwt>
<rscale>  0 0.10096127E+03</rscale>
<asrwt>0</asrwt>
<pdfrwt beam="1">  1        1 0.69860353E-02 0.10121898E+03</pdfrwt>
<pdfrwt beam="2">  1       -1 0.43336196E-01 0.10121898E+03</pdfrwt>
<totfact> 0.52187253E+03</totfact>
</mgrwt>
</event>
<event>
 8    1  0.3400573E-004  0.1084403E+03  0.7546771E-02  0.1267501E+00
          1   -1    0    0  501    0  0.00000000000E+00  0.00000000000E+00  0.58794765124E+02  0.58794765124E+02  0.00000000000E+00 0. -1.
         -1   -1    0    0    0  501 -0.00000000000E+00 -0.00000000000E+00 -0.18640152364E+03  0.18640152364E+03  0.00000000000E+00 0.  1.
         23    2    1    2    0    0  0.30249691115E+02 -0.28827069810E+02 -0.75956217467E+02  0.13239581627E+03  0.10006628517E+03 0.  0.
         23    2    1    2    0    0 -0.30249691115E+02  0.28827069810E+02 -0.51650541049E+02  0.11280047249E+03  0.91159883927E+02 0.  0.
          5    1    3    3  502    0  0.36357900989E+02 -0.63185085791E+02 -0.54763436155E+02  0.91298280215E+02  0.47000000000E+01 0. -1.
         -5    1    4    4    0  503 -0.36790387240E+02 -0.97424119756E+00  0.14473495749E+02  0.39825291190E+02  0.47000000000E+01 0. -1.
          5    1    4    4  503    0  0.65406961249E+01  0.29801311007E+02 -0.66124036799E+02  0.72975181302E+02  0.47000000000E+01 0.  1.
         -5    1    3    3    0  502 -0.61082098737E+01  0.34358015982E+02 -0.21192781312E+02  0.41097536055E+02  0.47000000000E+01 0.  1.
<mgrwt>
<rscale>  0 0.10634013E+03</rscale>
<asrwt>0</asrwt>
<pdfrwt beam="1">  1        1 0.90453487E-02 0.10844033E+03</pdfrwt>
<pdfrwt beam="2">  1       -1 0.28677157E-01 0.10844033E+03</pdfrwt>
<totfact> 0.75330661E+03</totfact>
</mgrwt>
</event>
<event>
 8    1  0.3400573E-004  0.9379142E+02  0.7546771E-02  0.1296561E+00
         -2   -1    0    0    0  501 -0.00000000000E+00  0.00000000000E+00  0.16584474775E+03  0.16584474775E+03  0.00000000000E+00 0.  1.
          2   -1    0    0  501    0  0.00000000000E+00 -0.00000000000E+00 -0.16807651453E+03  0.16807651453E+03  0.00000000000E+00 0. -1.
         23    2    1    2    0    0  0.17037988806E+02  0.48871222388E+01  0.13848592329E+03  0.16725782696E+03  0.92101317595E+02 0.  0.
         23    2    1    2    0    0 -0.17037988806E+02 -0.48871222388E+01 -0.14071769007E+03  0.16666343533E+03  0.87527454834E+02 0.  0.
          5    1    4    4  502    0 -0.19948178936E+02 -0.24794367602E+02 -0.14234918422E+03  0.14593858557E+03  0.47000000000E+01 0. -1.
         -5    1    4    4    0  502  0.29101901304E+01  0.19907245363E+02  0.16314941511E+01  0.20724849763E+02  0.47000000000E+01 0.  1.
          5    1    3    3  503    0 -0.26093286431E+02  0.26016924039E+01  0.52973818388E+01  0.27162118004E+02  0.47000000000E+01 0. -1.
         -5    1    3    3    0  503  0.43131275237E+02  0.22854298349E+01  0.13318854145E+03  0.14009570896E+03  0.47000000000E+01 0.  1.
<mgrwt>
<rscale>  0 0.92648894E+02</rscale>
<asrwt>0</asrwt>
<pdfrwt beam="1">  1        2 0.25857925E-01 0.93791416E+02</pdfrwt>
<pdfrwt beam="2">  1       -2 0.25514576E-01 0.93791416E+02</pdfrwt>
<totfact> 0.26912318E+03</totfact>
</mgrwt>
</event>
<event>
 8    1  0.3400573E-004  0.2789188E+03  0.7546771E-02  0.1096341E+00
          1   -1    0    0  501    0  0.00000000000E+00  0.00000000000E+00  0.80775928740E+03  0.80775928740E+03  0.00000000000E+00 0. -1.
         -1   -1    0    0    0  501 -0.00000000000E+00 -0.00000000000E+00 -0.10642403388E+03  0.10642403388E+03  0.00000000000E+00 0.  1.
         23    2    1    2    0    0  0.95238217294E+02  0.24479637018E+03  0.20846593397E+03  0.34786551926E+03  0.92502934972E+02 0.  0.
         23    2    1    2    0    0 -0.95238217294E+02 -0.24479637018E+03  0.49286931956E+03  0.56631780202E+03  0.93808879284E+02 0.  0.
          5    1    3    3  502    0  0.47783008051E+02  0.33376083778E+02  0.67583713663E+02  0.89369050455E+02  0.47000000000E+01 0. -1.
         -5    1    3    3    0  502  0.47455209243E+02  0.21142028640E+03  0.14088222030E+03  0.25849646881E+03  0.47000000000E+01 0.  1.
          5    1    4    4  503    0 -0.92840832197E+02 -0.22145081265E+03  0.36982796861E+03  0.44097017917E+03  0.47000000000E+01 0. -1.
         -5    1    4    4    0  503 -0.23973850968E+01 -0.23345557533E+02  0.12304135095E+03  0.12534762285E+03  0.47000000000E+01 0.  1.
<mgrwt>
<rscale>  0 0.27880959E+03</rscale>
<asrwt>0</asrwt>
<pdfrwt beam="1">  1        1 0.12427066E+00 0.27891878E+03</pdfrwt>
<pdfrwt beam="2">  1       -1 0.16372929E-01 0.27891878E+03</pdfrwt>
<totfact> 0.63599684E+02</totfact>
</mgrwt>
</event>
<event>
 8    1  0.3400573E-004  0.1075429E+03  0.7546771E-02  0.1265257E+00
         -3   -1    0    0    0  501 -0.00000000000E+00  0.00000000000E+00  0.39352401342E+02  0.39352401342E+02  0.00000000000E+00 0.  1.
          3   -1    0    0  501    0  0.00000000000E+00 -0.00000000000E+00 -0.34411248605E+03  0.34411248605E+03  0.00000000000E+00 0. -1.
         23    2    1    2    0    0  0.40267794096E+01 -0.56540619969E+02 -0.78937444232E+02  0.13340390523E+03  0.91391603394E+02 0.  0.
         23    2    1    2    0    0 -0.40267794096E+01  0.56540619969E+02 -0.22582264047E+03  0.25006098215E+03  0.91222657202E+02 0.  0.
          5    1    3    3  502    0 -0.37656652212E+02 -0.20672488578E+01 -0.20557566214E+02  0.43208801213E+02  0.47000000000E+01 0. -1.
         -5    1    3    3    0  502  0.41683431621E+02 -0.54473371111E+02 -0.58379878019E+02  0.90195104021E+02  0.47000000000E+01 0.  1.
          5    1    4    4  503    0 -0.82559142971E+01  0.79994468264E+02 -0.19373597695E+03  0.20981657189E+03  0.47000000000E+01 0. -1.
         -5    1    4    4    0  503  0.42291348874E+01 -0.23453848295E+02 -0.32086663520E+02  0.40244410265E+02  0.47000000000E+01 0.  1.
<mgrwt>
<rscale>  0 0.10750703E+03</rscale>
<asrwt>0</asrwt>
<pdfrwt beam="1">  1        3 0.52940383E-01 0.10754293E+03</pdfrwt>
<pdfrwt beam="2">  1       -3 0.60542156E-02 0.10754293E+03</pdfrwt>
<totfact> 0.13205820E+03</totfact>
</mgrwt>
</event>
<event>
 8    1  0.3400573E-004  0.1181424E+03  0.7546771E-02  0.1247693E+00
          1   -1    0    0  501    0  0.00000000000E+00  0.00000000000E+00  0.16288670224E+03  0.16288670224E+03  0.00000000000E+00 0. -1.
         -1   -1    0    0    0  501 -0.00000000000E+00 -0.00000000000E+00 -0.15865074455E+03  0.15865074455E+03  0.00000000000E+00 0.  1.
         23    2    1    2    0    0  0.22463898786E+02  0.66751363937E+02 -0.10878688146E+03  0.15803885459E+03  0.90450664164E+02 0.  0.
         23    2    1    2    0    0 -0.22463898786E+02 -0.66751363937E+02  0.11302283916E+03  0.16349859220E+03  0.94853867303E+02 0.  0.
          5    1    3    3  502    0  0.37189650701E+02 -0.65824585094E+01 -0.24557645619E+02  0.45294225213E+02  0.47000000000E+01 0. -1.
         -5    1    4    4    0  503  0.32469215645E+02 -0.34347678116E+02  0.22227107945E+02  0.52441846689E+02  0.47000000000E+01 0.  1.
          5    1    4    4  503    0 -0.54933114431E+02 -0.32403685821E+02  0.90795731213E+02  0.11105674551E+03  0.47000000000E+01 0. -1.
         -5    1    3    3    0  502 -0.14725751915E+02  0.73333822446E+02 -0.84229235841E+02  0.11274462938E+03  0.47000000000E+01 0.  1.
<mgrwt>
<rscale>  0 0.11725619E+03</rscale>
<asrwt>0</asrwt>
<pdfrwt beam="1">  1        1 0.25059493E-01 0.11814240E+03</pdfrwt>
<pdfrwt beam="2">  1       -1 0.24407807E-01 0.11814240E+03</pdfrwt>
<totfact> 0.26613167E+03</totfact>
</mgrwt>
</event>
<event>
 8    1  0.3400573E-004  0.1081907E+03  0.7546771E-02  0.1264588E+00
         -1   -1    0    0    0  501 -0.00000000000E+00  0.00000000000E+00  0.54501358641E+02  0.54501358641E+02  0.00000000000E+00 0.  1.
          1   -1    0    0  501    0  0.00000000000E+00 -0.00000000000E+00 -0.24318919829E+03  0.24318919829E+03  0.00000000000E+00 0. -1.
         23    2    1    2    0    0  0.52134657353E+02 -0.13868713718E+01 -0.14701337554E+03  0.18175099847E+03  0.93276722430E+02 0.  0.
         23    2    1    2    0    0 -0.52134657353E+02  0.13868713718E+01 -0.41674464111E+02  0.11593955846E+03  0.94790687034E+02 0.  0.
          5    1    4    4  502    0 -0.22908945967E+02  0.28243496022E+02 -0.61286142227E+02  0.71418457712E+02  0.47000000000E+01 0. -1.
         -5    1    3    3    0  503 -0.17432774988E+02 -0.26940165685E+02 -0.39999967777E+02  0.51495257966E+02  0.47000000000E+01 0.  1.
          5    1    3    3  503    0  0.69567432341E+02  0.25553294313E+02 -0.10701340776E+03  0.13025574050E+03  0.47000000000E+01 0. -1.
         -5    1    4    4    0  502 -0.29225711386E+02 -0.26856624650E+02  0.19611678116E+02  0.44521100752E+02  0.47000000000E+01 0.  1.
<mgrwt>
<rscale>  0 0.10785815E+03</rscale>
<asrwt>0</asrwt>
<pdfrwt beam="1">  1        1 0.37413722E-01 0.10819067E+03</pdfrwt>
<pdfrwt beam="2">  1       -1 0.83848246E-02 0.10819067E+03</pdfrwt>
<totfact> 0.85235434E+03</totfact>
</mgrwt>
</event>
<event>
 8    1  0.3400573E-004  0.1025496E+03  0.7546771E-02  0.1275213E+00
         -1   -1    0    0    0  501 -0.00000000000E+00  0.00000000000E+00  0.17626367812E+03  0.17626367812E+03  0.00000000000E+00 0.  1.
          1   -1    0    0  501    0  0.00000000000E+00 -0.00000000000E+00 -0.64831995259E+02  0.64831995259E+02  0.00000000000E+00 0. -1.
         23    2    1    2    0    0  0.46138029857E+02  0.10713964004E+02  0.20884330360E+02  0.10429202888E+03  0.90538197513E+02 0.  0.
         23    2    1    2    0    0 -0.46138029857E+02 -0.10713964004E+02  0.90547352496E+02  0.13680364450E+03  0.90955523637E+02 0.  0.
          5    1    4    4  502    0 -0.29011898683E+02  0.38217545050E+02  0.57958488983E+02  0.75389306006E+02  0.47000000000E+01 0.  1.
         -5    1    3    3    0  503  0.55258066463E+02  0.30913564648E+02  0.39665744239E+02  0.74863633725E+02  0.47000000000E+01 0.  1.
          5    1    3    3  503    0 -0.91200366059E+01 -0.20199600644E+02 -0.18781413879E+02  0.29428395152E+02  0.47000000000E+01 0. -1.
         -5    1    4    4    0  502 -0.17126131174E+02 -0.48931509054E+02  0.32588863513E+02  0.61414338492E+02  0.47000000000E+01 0. -1.
<mgrwt>
<rscale>  0 0.10245695E+03</rscale>
<asrwt>0</asrwt>
<pdfrwt beam="1">  1        1 0.99741531E-02 0.10254957E+03</pdfrwt>
<pdfrwt beam="2">  1       -1 0.27117489E-01 0.10254957E+03</pdfrwt>
<totfact> 0.72288023E+03</totfact>
</mgrwt>
</event>
<event>
 8    1  0.3400573E-004  0.1053645E+03  0.7546771E-02  0.1271254E+00
          1   -1    0    0  501    0  0.00000000000E+00  0.00000000000E+00  0.82970243800E+02  0.82970243800E+02  0.00000000000E+00 0. -1.
         -1   -1    0    0    0  501 -0.00000000000E+00 -0.00000000000E+00 -0.13542011733E+03  0.13542011733E+03  0.00000000000E+00 0.  1.
         23    2    1    2    0    0  0.45321956404E+02  0.22365758827E+02 -0.22680300340E+01  0.10168603115E+03  0.88207698476E+02 0.  0.
         23    2    1    2    0    0 -0.45321956404E+02 -0.22365758827E+02 -0.50181843493E+02  0.11670432998E+03  0.92452021714E+02 0.  0.
          5    1    4    4  502    0 -0.45809574032E+02  0.10807791696E+02  0.95124630411E+01  0.48248340774E+02  0.47000000000E+01 0. -1.
         -5    1    3    3    0  503  0.25581544402E+02  0.56280368474E+02  0.12079103074E+01  0.62011646784E+02  0.47000000000E+01 0.  1.
          5    1    3    3  503    0  0.19740412002E+02 -0.33914609647E+02 -0.34759403414E+01  0.39674384365E+02  0.47000000000E+01 0. -1.
         -5    1    4    4    0  502  0.48761762831E+00 -0.33173550523E+02 -0.59694306534E+02  0.68455989204E+02  0.47000000000E+01 0.  1.
<mgrwt>
<rscale>  0 0.10442612E+03</rscale>
<asrwt>0</asrwt>
<pdfrwt beam="1">  1        1 0.12764653E-01 0.10536453E+03</pdfrwt>
<pdfrwt beam="2">  1       -1 0.20833864E-01 0.10536453E+03</pdfrwt>
<totfact> 0.80514352E+03</totfact>
</mgrwt>
</event>
<event>
 8    1  0.3400573E-004  0.1038972E+03  0.7546771E-02  0.1275707E+00
          2   -1    0    0  501    0  0.00000000000E+00  0.00000000000E+00  0.30099929134E+03  0.30099929134E+03  0.00000000000E+00 0.  1.
         -2   -1    0    0    0  501 -0.00000000000E+00 -0.00000000000E+00 -0.34210719385E+02  0.34210719385E+02  0.00000000000E+00 0. -1.
         23    2    1    2    0    0 -0.34492643502E+02 -0.47411613998E+01  0.11586834371E+03  0.15562811444E+03  0.97889814908E+02 0.  0.
         23    2    1    2    0    0  0.34492643502E+02  0.47411613998E+01  0.15092022824E+03  0.17958189628E+03  0.90887408991E+02 0.  0.
          5    1    4    4  502    0 -0.12817219748E+02  0.33743644801E+02  0.89788355198E+02  0.96886291165E+02  0.47000000000E+01 0. -1.
         -5    1    4    4    0  502  0.47309863250E+02 -0.29002483401E+02  0.61131873045E+02  0.82695605120E+02  0.47000000000E+01 0.  1.
          5    1    3    3  503    0 -0.12459353585E+02  0.15747820834E+02 -0.12218473394E+02  0.23971033454E+02  0.47000000000E+01 0. -1.
         -5    1    3    3    0  503 -0.22033289917E+02 -0.20488982234E+02  0.12808681711E+03  0.13165708099E+03  0.47000000000E+01 0.  1.
<mgrwt>
<rscale>  0 0.10221449E+03</rscale>
<asrwt>0</asrwt>
<pdfrwt beam="1">  1        2 0.46307582E-01 0.10389724E+03</pdfrwt>
<pdfrwt beam="2">  1       -2 0.52631878E-02 0.10389724E+03</pdfrwt>
<totfact> 0.17999777E+04</totfact>
</mgrwt>
</event>
<event>
 8    1  0.3400573E-004  0.9576656E+02  0.7546771E-02  0.1292003E+00
         -1   -1    0    0    0  501 -0.00000000000E+00  0.00000000000E+00  0.42330837071E+03  0.42330837071E+03  0.00000000000E+00 0.  1.
          1   -1    0    0  501    0  0.00000000000E+00 -0.00000000000E+00 -0.27693571607E+02  0.27693571607E+02  0.00000000000E+00 0. -1.
         23    2    1    2    0    0 -0.14150730854E+02  0.24341389200E+02  0.31485937756E+03  0.32910129480E+03  0.91534082120E+02 0.  0.
         23    2    1    2    0    0  0.14150730854E+02 -0.24341389200E+02  0.80755421547E+02  0.12190064752E+03  0.86865317273E+02 0.  0.
          5    1    3    3  502    0  0.35013181030E+02  0.61867482170E+01  0.70011827833E+02  0.78663490488E+02  0.47000000000E+01 0. -1.
         -5    1    4    4    0  503 -0.34025359491E+02 -0.67832836123E+01  0.52678581399E+02  0.63252359349E+02  0.47000000000E+01 0.  1.
          5    1    4    4  503    0  0.48176090345E+02 -0.17558105588E+02  0.28076840148E+02  0.58648288172E+02  0.47000000000E+01 0. -1.
         -5    1    3    3    0  502 -0.49163911884E+02  0.18154640983E+02  0.24484754972E+03  0.25043780431E+03  0.47000000000E+01 0.  1.
<mgrwt>
<rscale>  0 0.94633589E+02</rscale>
<asrwt>0</asrwt>
<pdfrwt beam="1">  1        1 0.42605498E-02 0.95766563E+02</pdfrwt>
<pdfrwt beam="2">  1       -1 0.65124360E-01 0.95766563E+02</pdfrwt>
<totfact> 0.47942600E+03</totfact>
</mgrwt>
</event>
<event>
 8    1  0.3400573E-004  0.1434304E+03  0.7546771E-02  0.1208969E+00
         -1   -1    0    0    0  501 -0.00000000000E+00  0.00000000000E+00  0.33150891168E+03  0.33150891168E+03  0.00000000000E+00 0.  1.
          1   -1    0    0  501    0  0.00000000000E+00 -0.00000000000E+00 -0.13289667462E+03  0.13289667462E+03  0.00000000000E+00 0. -1.
         23    2    1    2    0    0  0.92657279429E+02  0.59409730335E+02  0.26903662595E+03  0.30461861491E+03  0.91087358922E+02 0.  0.
         23    2    1    2    0    0 -0.92657279429E+02 -0.59409730335E+02 -0.70424388899E+02  0.15978697139E+03  0.91964091815E+02 0.  0.
          5    1    3    3  502    0  0.51793367878E+02 -0.17251544522E+02  0.86232601599E+02  0.10216809836E+03  0.47000000000E+01 0. -1.
         -5    1    3    3    0  502  0.40863911551E+02  0.76661274857E+02  0.18280402436E+03  0.20245051655E+03  0.47000000000E+01 0.  1.
          5    1    4    4  503    0 -0.68609280648E+02 -0.44324742155E+02  0.20153009031E+01  0.81841722831E+02  0.47000000000E+01 0. -1.
         -5    1    4    4    0  503 -0.24047998781E+02 -0.15084988180E+02 -0.72439689802E+02  0.77945248556E+02  0.47000000000E+01 0.  1.
<mgrwt>
<rscale>  0 0.14329006E+03</rscale>
<asrwt>0</asrwt>
<pdfrwt beam="1">  1        1 0.20445642E-01 0.14343041E+03</pdfrwt>
<pdfrwt beam="2">  1       -1 0.51001371E-01 0.14343041E+03</pdfrwt>
<totfact> 0.97309216E+02</totfact>
</mgrwt>
</event>
<event>
 8    1  0.3400573E-004  0.1125240E+03  0.7546771E-02  0.1258051E+00
         -1   -1    0    0    0  501 -0.00000000000E+00  0.00000000000E+00  0.53163589285E+02  0.53163589285E+02  0.00000000000E+00 0.  1.
          1   -1    0    0  501    0  0.00000000000E+00 -0.00000000000E+00 -0.23617810811E+03  0.23617810811E+03  0.00000000000E+00 0. -1.
         23    2    1    2    0    0  0.42052493960E+02 -0.42987135619E+02 -0.63860395960E+02  0.12545343555E+03  0.89688952735E+02 0.  0.
         23    2    1    2    0    0 -0.42052493960E+02  0.42987135619E+02 -0.11915412286E+03  0.16388826184E+03  0.95107051773E+02 0.  0.
          5    1    4    4  502    0 -0.35412997026E+01  0.47781096140E+02 -0.11698992277E+02  0.49543217217E+02  0.47000000000E+01 0. -1.
         -5    1    3    3    0  503  0.48037941265E+01 -0.62738180801E+02 -0.24827414115E+02  0.67805945608E+02  0.47000000000E+01 0.  1.
          5    1    3    3  503    0  0.37248699834E+02  0.19751045182E+02 -0.39032981845E+02  0.57647489944E+02  0.47000000000E+01 0. -1.
         -5    1    4    4    0  502 -0.38511194258E+02 -0.47939605210E+01 -0.10745513059E+03  0.11434504462E+03  0.47000000000E+01 0.  1.
<mgrwt>
<rscale>  0 0.11137128E+03</rscale>
<asrwt>0</asrwt>
<pdfrwt beam="1">  1        1 0.36335093E-01 0.11252403E+03</pdfrwt>
<pdfrwt beam="2">  1       -1 0.81790138E-02 0.11252403E+03</pdfrwt>
<totfact> 0.92004267E+03</totfact>
</mgrwt>
</event>
<event>
 8    1  0.3400573E-004  0.9239246E+02  0.7546771E-02  0.1299471E+00
          1   -1    0    0  501    0  0.00000000000E+00  0.00000000000E+00  0.13900455205E+03  0.13900455205E+03  0.00000000000E+00 0. -1.
         -1   -1    0    0    0  501 -0.00000000000E+00 -0.00000000000E+00 -0.67559561020E+02  0.67559561020E+02  0.00000000000E+00 0.  1.
         23    2    1    2    0    0 -0.11703955836E+02 -0.63109124882E+01 -0.19774622960E+01  0.88550458132E+02  0.87524071430E+02 0.  0.
         23    2    1    2    0    0  0.11703955836E+02  0.63109124882E+01  0.73422453323E+02  0.11801365493E+03  0.91430607021E+02 0.  0.
          5    1    4    4  502    0  0.17649026774E+02 -0.40646990821E+02  0.39985691509E+02  0.59871625452E+02  0.47000000000E+01 0. -1.
         -5    1    4    4    0  502 -0.59450709376E+01  0.46957903309E+02  0.33436761814E+02  0.58142029482E+02  0.47000000000E+01 0.  1.
          5    1    3    3  503    0  0.29996962528E+02  0.22317774732E+02  0.56027473437E+00  0.37686930595E+02  0.47000000000E+01 0.  1.
         -5    1    3    3    0  503 -0.41700918364E+02 -0.28628687220E+02 -0.25377370304E+01  0.50863527538E+02  0.47000000000E+01 0. -1.
<mgrwt>
<rscale>  0 0.91410905E+02</rscale>
<asrwt>0</asrwt>
<pdfrwt beam="1">  1        1 0.21385316E-01 0.92392457E+02</pdfrwt>
<pdfrwt beam="2">  1       -1 0.10393779E-01 0.92392457E+02</pdfrwt>
<totfact> 0.12143144E+04</totfact>
</mgrwt>
</event>
<event>
 8    1  0.3400573E-004  0.9920739E+02  0.7546771E-02  0.1282375E+00
         -2   -1    0    0    0  501 -0.00000000000E+00  0.00000000000E+00  0.23796103549E+02  0.23796103549E+02  0.00000000000E+00 0.  1.
          2   -1    0    0  501    0  0.00000000000E+00 -0.00000000000E+00 -0.41053669086E+03  0.41053669086E+03  0.00000000000E+00 0. -1.
         23    2    1    2    0    0  0.17674483556E+02 -0.30326875732E+02 -0.19722148316E+03  0.22076779723E+03  0.92790086298E+02 0.  0.
         23    2    1    2    0    0 -0.17674483556E+02  0.30326875732E+02 -0.18951910415E+03  0.21356499718E+03  0.91980489340E+02 0.  0.
          5    1    3    3  502    0 -0.86602825265E+01 -0.57243502152E+02 -0.14510411743E+03  0.15629815715E+03  0.47000000000E+01 0. -1.
         -5    1    4    4    0  503 -0.36327946178E+02 -0.21702923068E+02 -0.91947403001E+02  0.10132695328E+03  0.47000000000E+01 0. -1.
          5    1    4    4  503    0  0.18653462623E+02  0.52029798799E+02 -0.97571701153E+02  0.11223804389E+03  0.47000000000E+01 0.  1.
         -5    1    3    3    0  502  0.26334766082E+02  0.26916626420E+02 -0.52117365727E+02  0.64469640086E+02  0.47000000000E+01 0.  1.
<mgrwt>
<rscale>  0 0.99017647E+02</rscale>
<asrwt>0</asrwt>
<pdfrwt beam="1">  1        2 0.63159491E-01 0.99207393E+02</pdfrwt>
<pdfrwt beam="2">  1       -2 0.36609390E-02 0.99207393E+02</pdfrwt>
<totfact> 0.22128242E+04</totfact>
</mgrwt>
</event>
<event>
 8    1  0.3479061E-004  0.9948775E+02  0.7546771E-02  0.1282984E+00
          1   -1    0    0  501    0  0.00000000000E+00  0.00000000000E+00  0.47836805137E+03  0.47836805137E+03  0.00000000000E+00 0. -1.
         -1   -1    0    0    0  501 -0.00000000000E+00 -0.00000000000E+00 -0.54354492412E+02  0.54354492412E+02  0.00000000000E+00 0.  1.
         23    2    1    2    0    0 -0.15368419803E+02  0.39550381371E+02  0.42472228048E+03  0.43621878419E+03  0.89985505237E+02 0.  0.
         23    2    1    2    0    0  0.15368419803E+02 -0.39550381371E+02 -0.70872152294E+00  0.96503759588E+02  0.86672096632E+02 0.  0.
          5    1    3    3  502    0 -0.38111438095E+02  0.33112934826E+02  0.39362040809E+03  0.39687285600E+03  0.47000000000E+01 0. -1.
         -5    1    3    3    0  502  0.22743018291E+02  0.64374465456E+01  0.31101872389E+02  0.39345928190E+02  0.47000000000E+01 0.  1.
          5    1    4    4  503    0 -0.12966068367E+02  0.23465331733E+02 -0.12905203216E+01  0.27248782816E+02  0.47000000000E+01 0. -1.
         -5    1    4    4    0  503  0.28334488170E+02 -0.63015713105E+02  0.58179879871E+00  0.69254976773E+02  0.47000000000E+01 0.  1.
<mgrwt>
<rscale>  0 0.98732545E+02</rscale>
<asrwt>0</asrwt>
<pdfrwt beam="1">  1        1 0.73595082E-01 0.99487749E+02</pdfrwt>
<pdfrwt beam="2">  1       -1 0.83622299E-02 0.99487749E+02</pdfrwt>
<totfact> 0.36785804E+03</totfact>
</mgrwt>
</event>
<event>
 8    1  0.3400573E-004  0.9475675E+02  0.7546771E-02  0.1296671E+00
         -1   -1    0    0    0  501 -0.00000000000E+00  0.00000000000E+00  0.24709240332E+02  0.24709240332E+02  0.00000000000E+00 0.  1.
          1   -1    0    0  501    0  0.00000000000E+00 -0.00000000000E+00 -0.33360133510E+03  0.33360133510E+03  0.00000000000E+00 0. -1.
         23    2    1    2    0    0 -0.22946486161E+02  0.15254518781E+02 -0.14965816729E+03  0.17713386984E+03  0.90662005475E+02 0.  0.
         23    2    1    2    0    0  0.22946486161E+02 -0.15254518781E+02 -0.15923392747E+03  0.18117670559E+03  0.81916502732E+02 0.  0.
          5    1    4    4  502    0  0.37533311976E+02  0.14465404085E+02 -0.13193285460E+03  0.13800857056E+03  0.47000000000E+01 0.  1.
         -5    1    4    4    0  502 -0.14586825816E+02 -0.29719922866E+02 -0.27301072872E+02  0.43168135036E+02  0.47000000000E+01 0. -1.
          5    1    3    3  503    0  0.25214432950E+02 -0.10160543084E+02 -0.98425479523E+02  0.10221873255E+03  0.47000000000E+01 0. -1.
         -5    1    3    3    0  503 -0.48160919110E+02  0.25415061865E+02 -0.51232687772E+02  0.74915137292E+02  0.47000000000E+01 0.  1.
<mgrwt>
<rscale>  0 0.92601803E+02</rscale>
<asrwt>0</asrwt>
<pdfrwt beam="1">  1        1 0.51323278E-01 0.94756745E+02</pdfrwt>
<pdfrwt beam="2">  1       -1 0.38014219E-02 0.94756745E+02</pdfrwt>
<totfact> 0.18365532E+04</totfact>
</mgrwt>
</event>
<event>
 8    1  0.4009426E-004  0.1342967E+03  0.7546771E-02  0.1224286E+00
         -1   -1    0    0    0  501 -0.00000000000E+00  0.00000000000E+00  0.68864533450E+02  0.68864533450E+02  0.00000000000E+00 0.  1.
          1   -1    0    0  501    0  0.00000000000E+00 -0.00000000000E+00 -0.72404048207E+03  0.72404048207E+03  0.00000000000E+00 0. -1.
         23    2    1    2    0    0 -0.75137317596E+02 -0.64102307410E+02 -0.65327834129E+03  0.66693943268E+03  0.90999413985E+02 0.  0.
         23    2    1    2    0    0  0.75137317596E+02  0.64102307410E+02 -0.18976073260E+01  0.12596558284E+03  0.78160123060E+02 0.  0.
          5    1    3    3  502    0 -0.94475756264E+02 -0.52406579375E+02 -0.47388767835E+03  0.48606968613E+03  0.47000000000E+01 0. -1.
         -5    1    3    3    0  502  0.19338438668E+02 -0.11695728034E+02 -0.17939066295E+03  0.18086974655E+03  0.47000000000E+01 0.  1.
          5    1    4    4  503    0 -0.90432499611E+01  0.30362614698E+02 -0.12822198724E+02  0.34498804636E+02  0.47000000000E+01 0. -1.
         -5    1    4    4    0  503  0.84180567557E+02  0.33739692712E+02  0.10924591398E+02  0.91466778208E+02  0.47000000000E+01 0.  1.
<mgrwt>
<rscale>  0 0.13215992E+03</rscale>
<asrwt>0</asrwt>
<pdfrwt beam="1">  1        1 0.11139084E+00 0.13429674E+03</pdfrwt>
<pdfrwt beam="2">  1       -1 0.10594544E-01 0.13429674E+03</pdfrwt>
<totfact> 0.14828987E+03</totfact>
</mgrwt>
</event>
<event>
 8    1  0.3400573E-004  0.1170127E+03  0.7546771E-02  0.1250627E+00
          1   -1    0    0  501    0  0.00000000000E+00  0.00000000000E+00  0.15174124067E+03  0.15174124067E+03  0.00000000000E+00 0. -1.
         -1   -1    0    0    0  501 -0.00000000000E+00 -0.00000000000E+00 -0.13262535649E+03  0.13262535649E+03  0.00000000000E+00 0.  1.
         23    2    1    2    0    0  0.18642113869E+02  0.70576854383E+02 -0.74704208632E+02  0.13882613868E+03  0.91451392606E+02 0.  0.
         23    2    1    2    0    0 -0.18642113869E+02 -0.70576854383E+02  0.93820092810E+02  0.14554045848E+03  0.83971390689E+02 0.  0.
          5    1    3    3  502    0  0.71046918868E+01  0.33787646170E+02  0.17340895768E+02  0.38921438136E+02  0.47000000000E+01 0. -1.
         -5    1    3    3    0  502  0.11537421983E+02  0.36789208213E+02 -0.92045104400E+02  0.99904700545E+02  0.47000000000E+01 0.  1.
          5    1    4    4  503    0  0.30312615494E+02 -0.41890593822E+02  0.59887847749E+02  0.79261092705E+02  0.47000000000E+01 0. -1.
         -5    1    4    4    0  503 -0.48954729364E+02 -0.28686260561E+02  0.33932245061E+02  0.66279365770E+02  0.47000000000E+01 0.  1.
<mgrwt>
<rscale>  0 0.11554844E+03</rscale>
<asrwt>0</asrwt>
<pdfrwt beam="1">  1        1 0.23344806E-01 0.11701273E+03</pdfrwt>
<pdfrwt beam="2">  1       -1 0.20403901E-01 0.11701273E+03</pdfrwt>
<totfact> 0.38836699E+03</totfact>
</mgrwt>
</event>
<event>
 8    1  0.3400573E-004  0.9323111E+02  0.7546771E-02  0.1296349E+00
          2   -1    0    0  501    0  0.00000000000E+00  0.00000000000E+00  0.70311622131E+03  0.70311622131E+03  0.00000000000E+00 0. -1.
         -2   -1    0    0    0  501 -0.00000000000E+00 -0.00000000000E+00 -0.12132249059E+02  0.12132249059E+02  0.00000000000E+00 0.  1.
         23    2    1    2    0    0 -0.19678275098E+02  0.37242924396E+01  0.36606168481E+03  0.37774753156E+03  0.91054575100E+02 0.  0.
         23    2    1    2    0    0  0.19678275098E+02 -0.37242924396E+01  0.32492228744E+03  0.33750093881E+03  0.89057767536E+02 0.  0.
          5    1    4    4  502    0  0.40483426644E+02 -0.12593499673E+02  0.30186082149E+03  0.30485988522E+03  0.47000000000E+01 0. -1.
         -5    1    4    4    0  502 -0.20805151546E+02  0.88692072331E+01  0.23061465956E+02  0.32641053595E+02  0.47000000000E+01 0.  1.
          5    1    3    3  503    0  0.32406483442E+02 -0.15335580660E+01  0.73177467075E+02  0.80184559966E+02  0.47000000000E+01 0. -1.
         -5    1    3    3    0  503 -0.52084758539E+02  0.52578505055E+01  0.29288421774E+03  0.29756297159E+03  0.47000000000E+01 0.  1.
<mgrwt>
<rscale>  0 0.92739950E+02</rscale>
<asrwt>0</asrwt>
<pdfrwt beam="1">  1        2 0.10817169E+00 0.93231113E+02</pdfrwt>
<pdfrwt beam="2">  1       -2 0.18665004E-02 0.93231113E+02</pdfrwt>
<totfact> 0.32278009E+04</totfact>
</mgrwt>
</event>
<event>
 8    1  0.3400573E-004  0.1078827E+03  0.7546771E-02  0.1264578E+00
          1   -1    0    0  501    0  0.00000000000E+00  0.00000000000E+00  0.63874293273E+03  0.63874293273E+03  0.00000000000E+00 0. -1.
         -1   -1    0    0    0  501 -0.00000000000E+00 -0.00000000000E+00 -0.18892093750E+02  0.18892093750E+02  0.00000000000E+00 0.  1.
         23    2    1    2    0    0  0.53598813107E+02  0.29360467385E+02  0.37237672649E+03  0.38766814227E+03  0.88810428916E+02 0.  0.
         23    2    1    2    0    0 -0.53598813107E+02 -0.29360467385E+02  0.24747411249E+03  0.26996688422E+03  0.88903388061E+02 0.  0.
          5    1    3    3  502    0  0.21525342774E+02 -0.31490716818E+02  0.11718066914E+03  0.12332236151E+03  0.47000000000E+01 0. -1.
         -5    1    3    3    0  502  0.32073470333E+02  0.60851184204E+02  0.25519605735E+03  0.26434578076E+03  0.47000000000E+01 0.  1.
          5    1    4    4  503    0 -0.72846880559E+02 -0.16504973569E+02  0.12879872136E+03  0.14896403185E+03  0.47000000000E+01 0. -1.
         -5    1    4    4    0  503  0.19248067452E+02 -0.12855493816E+02  0.11867539113E+03  0.12100285237E+03  0.47000000000E+01 0.  1.
<mgrwt>
<rscale>  0 0.10786357E+03</rscale>
<asrwt>0</asrwt>
<pdfrwt beam="1">  1        1 0.98268127E-01 0.10788272E+03</pdfrwt>
<pdfrwt beam="2">  1       -1 0.29064765E-02 0.10788272E+03</pdfrwt>
<totfact> 0.11925394E+04</totfact>
</mgrwt>
</event>
<event>
 8    1  0.3400573E-004  0.8954770E+02  0.7546771E-02  0.1304122E+00
         -2   -1    0    0    0  501 -0.00000000000E+00  0.00000000000E+00  0.39610578291E+02  0.39610578291E+02  0.00000000000E+00 0.  1.
          2   -1    0    0  501    0  0.00000000000E+00 -0.00000000000E+00 -0.22665096507E+03  0.22665096507E+03  0.00000000000E+00 0. -1.
         23    2    1    2    0    0 -0.84343365837E+01  0.59563271097E+01 -0.49311097279E+02  0.10198084455E+03  0.88667313450E+02 0.  0.
         23    2    1    2    0    0  0.84343365837E+01 -0.59563271097E+01 -0.13772928950E+03  0.16428069881E+03  0.88950407245E+02 0.  0.
          5    1    3    3  502    0  0.78888204744E+01  0.39501644222E+02 -0.74698897670E+00  0.40561821671E+02  0.47000000000E+01 0. -1.
         -5    1    4    4    0  503  0.11264749250E+02 -0.40938842183E+02 -0.11377102475E+03  0.12152703176E+03  0.47000000000E+01 0.  1.
          5    1    4    4  503    0 -0.28304126659E+01  0.34982515074E+02 -0.23958264752E+02  0.42753667055E+02  0.47000000000E+01 0. -1.
         -5    1    3    3    0  502 -0.16323157058E+02 -0.33545317112E+02 -0.48564108302E+02  0.61419022881E+02  0.47000000000E+01 0.  1.
<mgrwt>
<rscale>  0 0.89477319E+02</rscale>
<asrwt>0</asrwt>
<pdfrwt beam="1">  1        2 0.34869379E-01 0.89547701E+02</pdfrwt>
<pdfrwt beam="2">  1       -2 0.60939351E-02 0.89547701E+02</pdfrwt>
<totfact> 0.19183352E+04</totfact>
</mgrwt>
</event>
<event>
 8    1  0.3400573E-004  0.9754690E+02  0.7546771E-02  0.1287498E+00
         -1   -1    0    0    0  501 -0.00000000000E+00  0.00000000000E+00  0.11225770659E+03  0.11225770659E+03  0.00000000000E+00 0.  1.
          1   -1    0    0  501    0  0.00000000000E+00 -0.00000000000E+00 -0.83020757689E+02  0.83020757689E+02  0.00000000000E+00 0. -1.
         23    2    1    2    0    0 -0.13915791766E+02 -0.11447314649E+02  0.26834501013E+01  0.97583798779E+02  0.95868173063E+02 0.  0.
         23    2    1    2    0    0  0.13915791766E+02  0.11447314649E+02  0.26553498802E+02  0.97694665502E+02  0.92273880897E+02 0.  0.
          5    1    3    3  502    0  0.40153052269E+02 -0.12796968449E+02 -0.52112747239E+01  0.42723265234E+02  0.47000000000E+01 0. -1.
         -5    1    4    4    0  503 -0.24623805241E+02  0.38973853773E+02  0.15162472842E+02  0.48757395799E+02  0.47000000000E+01 0.  1.
          5    1    4    4  503    0  0.38539597007E+02 -0.27526539124E+02  0.11391025961E+02  0.48937269703E+02  0.47000000000E+01 0. -1.
         -5    1    3    3    0  502 -0.54068844036E+02  0.13496538002E+01  0.78947248251E+01  0.54860533545E+02  0.47000000000E+01 0.  1.
<mgrwt>
<rscale>  0 0.96652137E+02</rscale>
<asrwt>0</asrwt>
<pdfrwt beam="1">  1        1 0.12772424E-01 0.97546896E+02</pdfrwt>
<pdfrwt beam="2">  1       -1 0.17270416E-01 0.97546896E+02</pdfrwt>
<totfact> 0.10757300E+04</totfact>
</mgrwt>
</event>
<event>
 8    1  0.3400573E-004  0.1310094E+03  0.7546771E-02  0.1232650E+00
         -1   -1    0    0    0  501 -0.00000000000E+00  0.00000000000E+00  0.10801271088E+03  0.10801271088E+03  0.00000000000E+00 0.  1.
          1   -1    0    0  501    0  0.00000000000E+00 -0.00000000000E+00 -0.14577855701E+03  0.14577855701E+03  0.00000000000E+00 0. -1.
         23    2    1    2    0    0 -0.65484913515E+02 -0.11773195477E+02 -0.47313325665E+02  0.13929107571E+03  0.11285641744E+03 0.  0.
         23    2    1    2    0    0  0.65484913515E+02  0.11773195477E+02  0.95474795299E+01  0.11450019217E+03  0.92694431401E+02 0.  0.
          5    1    4    4  502    0  0.53690950122E+02  0.44566253265E+02 -0.15113473760E+02  0.71549815822E+02  0.47000000000E+01 0. -1.
         -5    1    3    3    0  503 -0.87914883599E+02  0.19947996933E+02 -0.22775228025E+02  0.93100753764E+02  0.47000000000E+01 0.  1.
          5    1    3    3  503    0  0.22429970083E+02 -0.31721192410E+02 -0.24538097640E+02  0.46190321948E+02  0.47000000000E+01 0. -1.
         -5    1    4    4    0  502  0.11793963394E+02 -0.32793057788E+02  0.24660953290E+02  0.42950376352E+02  0.47000000000E+01 0.  1.
<mgrwt>
<rscale>  0 0.12656089E+03</rscale>
<asrwt>0</asrwt>
<pdfrwt beam="1">  1        1 0.22427470E-01 0.13100936E+03</pdfrwt>
<pdfrwt beam="2">  1       -1 0.16617340E-01 0.13100936E+03</pdfrwt>
<totfact> 0.57012309E+03</totfact>
</mgrwt>
</event>
<event>
 8    1  0.3400573E-004  0.9907671E+02  0.7546771E-02  0.1282805E+00
          1   -1    0    0  501    0  0.00000000000E+00  0.00000000000E+00  0.72586309219E+02  0.72586309219E+02  0.00000000000E+00 0. -1.
         -1   -1    0    0    0  501 -0.00000000000E+00 -0.00000000000E+00 -0.19478108723E+03  0.19478108723E+03  0.00000000000E+00 0.  1.
         23    2    1    2    0    0  0.15153317986E+02 -0.32552474117E+02  0.13909015572E+02  0.99021211340E+02  0.91227479216E+02 0.  0.
         23    2    1    2    0    0 -0.15153317986E+02  0.32552474117E+02 -0.13610379359E+03  0.16834618511E+03  0.92341262696E+02 0.  0.
          5    1    4    4  502    0 -0.19552113174E+02  0.71901638013E+01 -0.14023830114E+03  0.14185504817E+03  0.47000000000E+01 0. -1.
         -5    1    4    4    0  502  0.43987951880E+01  0.25362310315E+02  0.41345075548E+01  0.26491136940E+02  0.47000000000E+01 0.  1.
          5    1    3    3  503    0  0.81143333483E+01  0.26673056111E+02  0.25508615135E+02  0.38079834218E+02  0.47000000000E+01 0. -1.
         -5    1    3    3    0  503  0.70389846376E+01 -0.59225530228E+02 -0.11599599562E+02  0.60941377122E+02  0.47000000000E+01 0.  1.
<mgrwt>
<rscale>  0 0.98816382E+02</rscale>
<asrwt>0</asrwt>
<pdfrwt beam="1">  1        1 0.11167125E-01 0.99076715E+02</pdfrwt>
<pdfrwt beam="2">  1       -1 0.29966321E-01 0.99076715E+02</pdfrwt>
<totfact> 0.52693253E+03</totfact>
</mgrwt>
</event>
<event>
 8    1  0.3400573E-004  0.9723334E+02  0.7546771E-02  0.1287057E+00
          1   -1    0    0  501    0  0.00000000000E+00  0.00000000000E+00  0.40268141008E+03  0.40268141008E+03  0.00000000000E+00 0. -1.
         -1   -1    0    0    0  501 -0.00000000000E+00 -0.00000000000E+00 -0.73788545429E+02  0.73788545429E+02  0.00000000000E+00 0.  1.
         23    2    1    2    0    0  0.28445822757E+02  0.66533022252E+01 -0.33381929149E+02  0.10137350281E+03  0.91152633615E+02 0.  0.
         23    2    1    2    0    0 -0.28445822757E+02 -0.66533022252E+01  0.36227479380E+03  0.37509645270E+03  0.92740990633E+02 0.  0.
          5    1    3    3  502    0 -0.12547357558E+02 -0.24208436920E+02  0.14321122878E+02  0.31155563874E+02  0.47000000000E+01 0. -1.
         -5    1    3    3    0  502  0.40993180315E+02  0.30861739145E+02 -0.47703052027E+02  0.70217938934E+02  0.47000000000E+01 0.  1.
          5    1    4    4  503    0  0.30071159255E+01  0.30238045400E+02  0.26004434950E+03  0.26185594483E+03  0.47000000000E+01 0. -1.
         -5    1    4    4    0  503 -0.31452938682E+02 -0.36891347625E+02  0.10223044430E+03  0.11324050787E+03  0.47000000000E+01 0.  1.
<mgrwt>
<rscale>  0 0.96852666E+02</rscale>
<asrwt>0</asrwt>
<pdfrwt beam="1">  1        1 0.61950985E-01 0.97233341E+02</pdfrwt>
<pdfrwt beam="2">  1       -1 0.11352084E-01 0.97233341E+02</pdfrwt>
<totfact> 0.28769346E+03</totfact>
</mgrwt>
</event>
<event>
 8    1  0.3400573E-004  0.1017233E+03  0.7546771E-02  0.1276983E+00
          2   -1    0    0  501    0  0.00000000000E+00  0.00000000000E+00  0.13320425487E+03  0.13320425487E+03  0.00000000000E+00 0. -1.
         -2   -1    0    0    0  501 -0.00000000000E+00 -0.00000000000E+00 -0.77292750425E+02  0.77292750425E+02  0.00000000000E+00 0.  1.
         23    2    1    2    0    0  0.13852905148E+02  0.43401237373E+02  0.26704523522E+02  0.10466373210E+03  0.90364787694E+02 0.  0.
         23    2    1    2    0    0 -0.13852905148E+02 -0.43401237373E+02  0.29206980918E+02  0.10583327319E+03  0.90950885605E+02 0.  0.
          5    1    4    4  502    0 -0.46118895730E+02 -0.48767024650E+02  0.27670635020E+02  0.72752520774E+02  0.47000000000E+01 0. -1.
         -5    1    4    4    0  502  0.32265990583E+02  0.53657872779E+01  0.15363458983E+01  0.33080752411E+02  0.47000000000E+01 0.  1.
          5    1    3    3  503    0 -0.35963986075E+02  0.22662759362E+02 -0.30268897228E+01  0.42874946271E+02  0.47000000000E+01 0. -1.
         -5    1    3    3    0  503  0.49816891223E+02  0.20738478011E+02  0.29731413245E+02  0.61788785834E+02  0.47000000000E+01 0.  1.
<mgrwt>
<rscale>  0 0.10159214E+03</rscale>
<asrwt>0</asrwt>
<pdfrwt beam="1">  1        2 0.20492962E-01 0.10172332E+03</pdfrwt>
<pdfrwt beam="2">  1       -2 0.11891192E-01 0.10172332E+03</pdfrwt>
<totfact> 0.12357958E+04</totfact>
</mgrwt>
</event>
<event>
 8    1  0.3400573E-004  0.9511989E+02  0.7546771E-02  0.1291825E+00
         -3   -1    0    0    0  501 -0.00000000000E+00  0.00000000000E+00  0.53041296101E+02  0.53041296101E+02  0.00000000000E+00 0.  1.
          3   -1    0    0  501    0  0.00000000000E+00 -0.00000000000E+00 -0.21882635849E+03  0.21882635849E+03  0.00000000000E+00 0. -1.
         23    2    1    2    0    0 -0.84729919298E+01 -0.17598880462E+02 -0.17727749803E+02  0.96757772095E+02  0.93092863110E+02 0.  0.
         23    2    1    2    0    0  0.84729919298E+01  0.17598880462E+02 -0.14805731259E+03  0.17510988250E+03  0.91438454449E+02 0.  0.
          5    1    3    3  502    0 -0.45021955634E+02 -0.76324604238E+01 -0.32048643488E+02  0.55986038355E+02  0.47000000000E+01 0. -1.
         -5    1    3    3    0  502  0.36548963704E+02 -0.99664200381E+01  0.14320893685E+02  0.40771733740E+02  0.47000000000E+01 0.  1.
          5    1    4    4  503    0 -0.38566727810E+02 -0.73981732737E+01 -0.71777097751E+02  0.81952225249E+02  0.47000000000E+01 0. -1.
         -5    1    4    4    0  503  0.47039719739E+02  0.24997053736E+02 -0.76280214836E+02  0.93157657248E+02  0.47000000000E+01 0.  1.
<mgrwt>
<rscale>  0 0.94712648E+02</rscale>
<asrwt>0</asrwt>
<pdfrwt beam="1">  1        3 0.33665594E-01 0.95119889E+02</pdfrwt>
<pdfrwt beam="2">  1       -3 0.81601994E-02 0.95119889E+02</pdfrwt>
<totfact> 0.19160224E+03</totfact>
</mgrwt>
</event>
<event>
 8    1  0.3400573E-004  0.1370677E+03  0.7546771E-02  0.1219517E+00
          1   -1    0    0  501    0  0.00000000000E+00  0.00000000000E+00  0.31704699098E+03  0.31704699098E+03  0.00000000000E+00 0. -1.
         -1   -1    0    0    0  501 -0.00000000000E+00 -0.00000000000E+00 -0.92857450284E+02  0.92857450284E+02  0.00000000000E+00 0.  1.
         23    2    1    2    0    0 -0.71093135353E+02  0.66192608673E+02 -0.14342767223E+02  0.13781605754E+03  0.96704991630E+02 0.  0.
         23    2    1    2    0    0  0.71093135353E+02 -0.66192608673E+02  0.23853230792E+03  0.27208838372E+03  0.87742414491E+02 0.  0.
          5    1    3    3  502    0  0.35580535381E+01  0.61759141334E+02 -0.39092928401E+01  0.62162881641E+02  0.47000000000E+01 0. -1.
         -5    1    3    3    0  502 -0.74651188891E+02  0.44334673389E+01 -0.10433474383E+02  0.75653175897E+02  0.47000000000E+01 0.  1.
          5    1    4    4  503    0  0.51405789180E+02 -0.86939505448E+02  0.19714396299E+03  0.22156007066E+03  0.47000000000E+01 0. -1.
         -5    1    4    4    0  503  0.19687346173E+02  0.20746896775E+02  0.41388344927E+02  0.50528313062E+02  0.47000000000E+01 0.  1.
<mgrwt>
<rscale>  0 0.13549866E+03</rscale>
<asrwt>0</asrwt>
<pdfrwt beam="1">  1        1 0.48776460E-01 0.13706769E+03</pdfrwt>
<pdfrwt beam="2">  1       -1 0.14285762E-01 0.13706769E+03</pdfrwt>
<totfact> 0.27581031E+03</totfact>
</mgrwt>
</event>
<event>
 8    1  0.3400573E-004  0.9649764E+02  0.7546771E-02  0.1289177E+00
         -1   -1    0    0    0  501 -0.00000000000E+00  0.00000000000E+00  0.39364322632E+02  0.39364322632E+02  0.00000000000E+00 0.  1.
          1   -1    0    0  501    0  0.00000000000E+00 -0.00000000000E+00 -0.32734069429E+03  0.32734069429E+03  0.00000000000E+00 0. -1.
         23    2    1    2    0    0  0.17877296979E+02 -0.16513140493E+02 -0.24487375681E+03  0.26320135195E+03  0.93378334433E+02 0.  0.
         23    2    1    2    0    0 -0.17877296979E+02  0.16513140493E+02 -0.43102614849E+02  0.10350366497E+03  0.90900449385E+02 0.  0.
          5    1    3    3  502    0 -0.18641981917E+02  0.25026351618E+02 -0.14998247688E+03  0.15326667980E+03  0.47000000000E+01 0. -1.
         -5    1    4    4    0  503 -0.47174259959E+02 -0.15410152150E+02 -0.29123379307E+02  0.57733394273E+02  0.47000000000E+01 0.  1.
          5    1    4    4  503    0  0.29296962980E+02  0.31923292643E+02 -0.13979235541E+02  0.45770270694E+02  0.47000000000E+01 0. -1.
         -5    1    3    3    0  502  0.36519278896E+02 -0.41539492111E+02 -0.94891279921E+02  0.10993467215E+03  0.47000000000E+01 0.  1.
<mgrwt>
<rscale>  0 0.95893056E+02</rscale>
<asrwt>0</asrwt>
<pdfrwt beam="1">  1        1 0.50360109E-01 0.96497642E+02</pdfrwt>
<pdfrwt beam="2">  1       -1 0.60560494E-02 0.96497642E+02</pdfrwt>
<totfact> 0.95245419E+03</totfact>
</mgrwt>
</event>
<event>
 8    1  0.3400573E-004  0.1094981E+03  0.7546771E-02  0.1261928E+00
         -4   -1    0    0    0  501 -0.00000000000E+00  0.00000000000E+00  0.33635181899E+03  0.33635181899E+03  0.00000000000E+00 0.  1.
          4   -1    0    0  501    0  0.00000000000E+00 -0.00000000000E+00 -0.60410810917E+02  0.60410810917E+02  0.00000000000E+00 0. -1.
         23    2    1    2    0    0 -0.47480743403E+02  0.37175913983E+02  0.26540414541E+03  0.28675875905E+03  0.90303687161E+02 0.  0.
         23    2    1    2    0    0  0.47480743403E+02 -0.37175913983E+02  0.10536862660E+02  0.11000387086E+03  0.91396698815E+02 0.  0.
          5    1    4    4  502    0  0.36050624188E+02  0.78310537272E+01 -0.30313405290E+02  0.47978802060E+02  0.47000000000E+01 0. -1.
         -5    1    4    4    0  502  0.11430119215E+02 -0.45006967710E+02  0.40850267949E+02  0.62025068797E+02  0.47000000000E+01 0.  1.
          5    1    3    3  503    0 -0.40001238118E+01 -0.21517028463E+02  0.17909503034E+02  0.28667469427E+02  0.47000000000E+01 0. -1.
         -5    1    3    3    0  503 -0.43480619591E+02  0.58692942446E+02  0.24749464238E+03  0.25809128962E+03  0.47000000000E+01 0.  1.
<mgrwt>
<rscale>  0 0.10926969E+03</rscale>
<asrwt>0</asrwt>
<pdfrwt beam="1">  1        4 0.92939711E-02 0.10949806E+03</pdfrwt>
<pdfrwt beam="2">  1       -4 0.51746432E-01 0.10949806E+03</pdfrwt>
<totfact> 0.49301466E+02</totfact>
</mgrwt>
</event>
<event>
 8    1  0.3400573E-004  0.1059044E+03  0.7546771E-02  0.1270696E+00
         -2   -1    0    0    0  501 -0.00000000000E+00  0.00000000000E+00  0.24414366689E+02  0.24414366689E+02  0.00000000000E+00 0.  1.
          2   -1    0    0  501    0  0.00000000000E+00 -0.00000000000E+00 -0.76817089659E+03  0.76817089659E+03  0.00000000000E+00 0. -1.
         23    2    1    2    0    0  0.37698525429E+02  0.17364446757E+02 -0.11741296495E+03  0.15811876496E+03  0.97432215740E+02 0.  0.
         23    2    1    2    0    0 -0.37698525429E+02 -0.17364446757E+02 -0.62634356495E+03  0.63446649832E+03  0.92297200933E+02 0.  0.
          5    1    4    4  502    0 -0.61849764418E+02 -0.13464015746E+02 -0.56024988000E+03  0.56383392158E+03  0.47000000000E+01 0. -1.
         -5    1    3    3    0  503  0.47614752152E+02  0.50816414686E+02 -0.67986763453E+02  0.97435941155E+02  0.47000000000E+01 0.  1.
          5    1    3    3  503    0 -0.99162267234E+01 -0.33451967928E+02 -0.49426201497E+02  0.60682823806E+02  0.47000000000E+01 0. -1.
         -5    1    4    4    0  502  0.24151238989E+02 -0.39004310108E+01 -0.66093684947E+02  0.70632576738E+02  0.47000000000E+01 0.  1.
<mgrwt>
<rscale>  0 0.10470822E+03</rscale>
<asrwt>0</asrwt>
<pdfrwt beam="1">  1        2 0.11818014E+00 0.10590439E+03</pdfrwt>
<pdfrwt beam="2">  1       -2 0.37560564E-02 0.10590439E+03</pdfrwt>
<totfact> 0.10640081E+04</totfact>
</mgrwt>
</event>
<event>
 8    1  0.3400573E-004  0.9638356E+02  0.7546771E-02  0.1288097E+00
         -2   -1    0    0    0  501 -0.00000000000E+00  0.00000000000E+00  0.48136853501E+02  0.48136853501E+02  0.00000000000E+00 0.  1.
          2   -1    0    0  501    0  0.00000000000E+00 -0.00000000000E+00 -0.19814363212E+03  0.19814363212E+03  0.00000000000E+00 0. -1.
         23    2    1    2    0    0 -0.56482957430E+01  0.28078235409E+02 -0.94921028615E+02  0.13527672221E+03  0.92029882918E+02 0.  0.
         23    2    1    2    0    0  0.56482957430E+01 -0.28078235409E+02 -0.55085750006E+02  0.11100376341E+03  0.92016873941E+02 0.  0.
          5    1    3    3  502    0  0.95617788970E+01 -0.20941230147E+02 -0.77325252901E+02  0.80816133736E+02  0.47000000000E+01 0. -1.
         -5    1    3    3    0  502 -0.15210074640E+02  0.49019465556E+02 -0.17595775714E+02  0.54460588474E+02  0.47000000000E+01 0.  1.
          5    1    4    4  503    0  0.22116888346E+02 -0.57102280554E+02 -0.26809926359E+02  0.67012605873E+02  0.47000000000E+01 0. -1.
         -5    1    4    4    0  503 -0.16468592602E+02  0.29024045145E+02 -0.28275823647E+02  0.43991157541E+02  0.47000000000E+01 0.  1.
<mgrwt>
<rscale>  0 0.96380451E+02</rscale>
<asrwt>0</asrwt>
<pdfrwt beam="1">  1        2 0.30483636E-01 0.96383556E+02</pdfrwt>
<pdfrwt beam="2">  1       -2 0.74056698E-02 0.96383556E+02</pdfrwt>
<totfact> 0.16607099E+04</totfact>
</mgrwt>
</event>
<event>
 8    1  0.3400573E-004  0.9595114E+02  0.7546771E-02  0.1290443E+00
          1   -1    0    0  501    0  0.00000000000E+00  0.00000000000E+00  0.28692049245E+03  0.28692049245E+03  0.00000000000E+00 0. -1.
         -1   -1    0    0    0  501 -0.00000000000E+00 -0.00000000000E+00 -0.31352767825E+02  0.31352767825E+02  0.00000000000E+00 0.  1.
         23    2    1    2    0    0 -0.15695871303E+02 -0.12820138590E+02  0.12104888864E+03  0.15446506276E+03  0.93786490726E+02 0.  0.
         23    2    1    2    0    0  0.15695871303E+02  0.12820138590E+02  0.13451883599E+03  0.16380819752E+03  0.91252901376E+02 0.  0.
          5    1    4    4  502    0  0.30251235304E+02 -0.33010024952E+02  0.60412560397E+02  0.75342991967E+02  0.47000000000E+01 0.  1.
         -5    1    4    4    0  502 -0.14555364001E+02  0.45830163542E+02  0.74106275592E+02  0.88465205553E+02  0.47000000000E+01 0. -1.
          5    1    3    3  503    0 -0.40133221480E+02 -0.41524736295E+02  0.71522495638E+02  0.92046382727E+02  0.47000000000E+01 0. -1.
         -5    1    3    3    0  503  0.24437350177E+02  0.28704597705E+02  0.49526393003E+02  0.62418680033E+02  0.47000000000E+01 0.  1.
<mgrwt>
<rscale>  0 0.95326343E+02</rscale>
<asrwt>0</asrwt>
<pdfrwt beam="1">  1        1 0.44141612E-01 0.95951145E+02</pdfrwt>
<pdfrwt beam="2">  1       -1 0.48235030E-02 0.95951145E+02</pdfrwt>
<totfact> 0.15630879E+04</totfact>
</mgrwt>
</event>
<event>
 8    1  0.3400573E-004  0.9661348E+02  0.7546771E-02  0.1287865E+00
          2   -1    0    0  501    0  0.00000000000E+00  0.00000000000E+00  0.62569107956E+03  0.62569107956E+03  0.00000000000E+00 0. -1.
         -2   -1    0    0    0  501 -0.00000000000E+00 -0.00000000000E+00 -0.15913256767E+02  0.15913256767E+02  0.00000000000E+00 0.  1.
         23    2    1    2    0    0  0.24054338684E+02  0.12619927254E+02  0.22230368870E+03  0.24239037458E+03  0.92716179308E+02 0.  0.
         23    2    1    2    0    0 -0.24054338684E+02 -0.12619927254E+02  0.38747413409E+03  0.39921396175E+03  0.92183018442E+02 0.  0.
          5    1    3    3  502    0 -0.21993140415E+02 -0.26849231899E+02  0.67077974722E+02  0.75671158123E+02  0.47000000000E+01 0. -1.
         -5    1    4    4    0  503 -0.34623299544E+02 -0.47454398284E+02  0.21920511393E+03  0.22698824806E+03  0.47000000000E+01 0.  1.
          5    1    4    4  503    0  0.10568960860E+02  0.34834471031E+02  0.16826902017E+03  0.17222571368E+03  0.47000000000E+01 0. -1.
         -5    1    3    3    0  502  0.46047479099E+02  0.39469159153E+02  0.15522571397E+03  0.16671921645E+03  0.47000000000E+01 0.  1.
<mgrwt>
<rscale>  0 0.96485337E+02</rscale>
<asrwt>0</asrwt>
<pdfrwt beam="1">  1        2 0.96260147E-01 0.96613476E+02</pdfrwt>
<pdfrwt beam="2">  1       -2 0.24481938E-02 0.96613476E+02</pdfrwt>
<totfact> 0.25064227E+04</totfact>
</mgrwt>
</event>
<event>
 8    1  0.3400573E-004  0.1113655E+03  0.7546771E-02  0.1258496E+00
         -1   -1    0    0    0  501 -0.00000000000E+00  0.00000000000E+00  0.57583456627E+02  0.57583456627E+02  0.00000000000E+00 0.  1.
          1   -1    0    0  501    0  0.00000000000E+00 -0.00000000000E+00 -0.24932982297E+03  0.24932982297E+03  0.00000000000E+00 0. -1.
         23    2    1    2    0    0 -0.12355150086E+02  0.62806584657E+02 -0.38090734668E+02  0.11769957284E+03  0.91131600278E+02 0.  0.
         23    2    1    2    0    0  0.12355150086E+02 -0.62806584657E+02 -0.15365563167E+03  0.18921370675E+03  0.89969199558E+02 0.  0.
          5    1    3    3  502    0  0.85938753460E+01  0.56759085934E+02 -0.62256028379E+02  0.84813628617E+02  0.47000000000E+01 0. -1.
         -5    1    4    4    0  503  0.45468551588E+02 -0.23244761277E+02 -0.42592527440E+02  0.66662744498E+02  0.47000000000E+01 0.  1.
          5    1    4    4  503    0 -0.33113401502E+02 -0.39561823381E+02 -0.11106310423E+03  0.12255096225E+03  0.47000000000E+01 0. -1.
         -5    1    3    3    0  502 -0.20949025432E+02  0.60474987231E+01  0.24165293711E+02  0.32885944224E+02  0.47000000000E+01 0.  1.
<mgrwt>
<rscale>  0 0.11112749E+03</rscale>
<asrwt>0</asrwt>
<pdfrwt beam="1">  1        1 0.38358435E-01 0.11136555E+03</pdfrwt>
<pdfrwt beam="2">  1       -1 0.88589932E-02 0.11136555E+03</pdfrwt>
<totfact> 0.76263012E+03</totfact>
</mgrwt>
</event>
<event>
 8    1  0.3400573E-004  0.9544418E+02  0.7546771E-02  0.1291154E+00
         -1   -1    0    0    0  501 -0.00000000000E+00  0.00000000000E+00  0.17825239854E+02  0.17825239854E+02  0.00000000000E+00 0.  1.
          1   -1    0    0  501    0  0.00000000000E+00 -0.00000000000E+00 -0.69905905990E+03  0.69905905990E+03  0.00000000000E+00 0. -1.
         23    2    1    2    0    0  0.16328273094E+02  0.10794611314E+02 -0.15247170838E+03  0.17988111053E+03  0.93415501579E+02 0.  0.
         23    2    1    2    0    0 -0.16328273094E+02 -0.10794611314E+02 -0.52876211167E+03  0.53700318922E+03  0.91651068528E+02 0.  0.
          5    1    4    4  502    0 -0.48413025231E+02 -0.14238127459E+02 -0.43046357375E+03  0.43343687385E+03  0.47000000000E+01 0. -1.
         -5    1    3    3    0  503  0.53654044303E+02 -0.40132263825E+01 -0.74079425091E+02  0.91677225514E+02  0.47000000000E+01 0.  1.
          5    1    3    3  503    0 -0.37325771209E+02  0.14807837696E+02 -0.78392283288E+02  0.88203885020E+02  0.47000000000E+01 0. -1.
         -5    1    4    4    0  502  0.32084752136E+02  0.34435161453E+01 -0.98298537916E+02  0.10356631537E+03  0.47000000000E+01 0.  1.
<mgrwt>
<rscale>  0 0.95009667E+02</rscale>
<asrwt>0</asrwt>
<pdfrwt beam="1">  1        1 0.10754754E+00 0.95444183E+02</pdfrwt>
<pdfrwt beam="2">  1       -1 0.27423448E-02 0.95444183E+02</pdfrwt>
<totfact> 0.11330003E+04</totfact>
</mgrwt>
</event>
<event>
 8    1  0.3400573E-004  0.1146270E+03  0.7546771E-02  0.1265041E+00
         -2   -1    0    0    0  501 -0.00000000000E+00  0.00000000000E+00  0.12031430829E+03  0.12031430829E+03  0.00000000000E+00 0.  1.
          2   -1    0    0  501    0  0.00000000000E+00 -0.00000000000E+00 -0.87571427190E+02  0.87571427190E+02  0.00000000000E+00 0. -1.
         23    2    1    2    0    0 -0.45231138189E+02 -0.41538050658E+02  0.55545861033E+01  0.11476148483E+03  0.96788839534E+02 0.  0.
         23    2    1    2    0    0  0.45231138189E+02  0.41538050658E+02  0.27188294997E+02  0.93124250656E+02  0.64510907303E+02 0.  0.
          5    1    4    4  502    0  0.42084931267E+02 -0.33122034925E+01  0.21361274172E+02  0.47544780639E+02  0.47000000000E+01 0. -1.
         -5    1    3    3    0  503 -0.51168462132E+02  0.10676920949E+02  0.25509634810E+02  0.58352717383E+02  0.47000000000E+01 0.  1.
          5    1    3    3  503    0  0.59373239424E+01 -0.52214971607E+02 -0.19955048707E+02  0.56408767442E+02  0.47000000000E+01 0. -1.
         -5    1    4    4    0  502  0.31462069222E+01  0.44850254150E+02  0.58270208251E+01  0.45579470017E+02  0.47000000000E+01 0.  1.
<mgrwt>
<rscale>  0 0.10762032E+03</rscale>
<asrwt>0</asrwt>
<pdfrwt beam="1">  1        2 0.13472527E-01 0.11462698E+03</pdfrwt>
<pdfrwt beam="2">  1       -2 0.18509894E-01 0.11462698E+03</pdfrwt>
<totfact> 0.98583586E+03</totfact>
</mgrwt>
</event>
<event>
 8    1  0.3400573E-004  0.1170773E+03  0.7546771E-02  0.1248211E+00
         -2   -1    0    0    0  501 -0.00000000000E+00  0.00000000000E+00  0.83456156694E+02  0.83456156694E+02  0.00000000000E+00 0.  1.
          2   -1    0    0  501    0  0.00000000000E+00 -0.00000000000E+00 -0.19096553443E+03  0.19096553443E+03  0.00000000000E+00 0. -1.
         23    2    1    2    0    0 -0.24883342645E+02  0.66964433909E+02 -0.18584295207E+01  0.11709200574E+03  0.92755958828E+02 0.  0.
         23    2    1    2    0    0  0.24883342645E+02 -0.66964433909E+02 -0.10565094822E+03  0.15732968539E+03  0.92125408516E+02 0.  0.
          5    1    4    4  502    0 -0.85293887457E+01 -0.76807522972E+02 -0.90380090104E+02  0.11900754911E+03  0.47000000000E+01 0. -1.
         -5    1    4    4    0  502  0.33412731391E+02  0.98430890635E+01 -0.15270858113E+02  0.38322136277E+02  0.47000000000E+01 0.  1.
          5    1    3    3  503    0 -0.14871393480E+02  0.38821854362E+02 -0.46895489158E+02  0.62845617377E+02  0.47000000000E+01 0. -1.
         -5    1    3    3    0  503 -0.10011949165E+02  0.28142579547E+02  0.45037059638E+02  0.54246388363E+02  0.47000000000E+01 0.  1.
<mgrwt>
<rscale>  0 0.11695233E+03</rscale>
<asrwt>0</asrwt>
<pdfrwt beam="1">  1        2 0.29379312E-01 0.11707726E+03</pdfrwt>
<pdfrwt beam="2">  1       -2 0.12839409E-01 0.11707726E+03</pdfrwt>
<totfact> 0.74517660E+03</totfact>
</mgrwt>
</event>
<event>
 8    1  0.3400573E-004  0.2478839E+03  0.7546771E-02  0.1114737E+00
          1   -1    0    0  501    0  0.00000000000E+00  0.00000000000E+00  0.15083344012E+04  0.15083344012E+04  0.00000000000E+00 0. -1.
         -1   -1    0    0    0  501 -0.00000000000E+00 -0.00000000000E+00 -0.72929909000E+02  0.72929909000E+02  0.00000000000E+00 0.  1.
         23    2    1    2    0    0  0.21711220857E+03  0.75169421445E+02  0.19212716857E+03  0.31362281876E+03  0.93049828108E+02 0.  0.
         23    2    1    2    0    0 -0.21711220857E+03 -0.75169421445E+02  0.12432773236E+04  0.12676414915E+04  0.91587632088E+02 0.  0.
          5    1    3    3  502    0  0.31473868823E+02 -0.18708681794E+02  0.47775420874E+02  0.60375491989E+02  0.47000000000E+01 0. -1.
         -5    1    4    4    0  503 -0.95705413821E+02  0.29525484853E+01  0.35593299352E+03  0.36861718579E+03  0.47000000000E+01 0.  1.
          5    1    4    4  503    0 -0.12140679475E+03 -0.78121969930E+02  0.88734433011E+03  0.89902430567E+03  0.47000000000E+01 0. -1.
         -5    1    3    3    0  502  0.18563833975E+03  0.93878103239E+02  0.14435174770E+03  0.25324732677E+03  0.47000000000E+01 0.  1.
<mgrwt>
<rscale>  0 0.24774749E+03</rscale>
<asrwt>0</asrwt>
<pdfrwt beam="1">  1        1 0.23205142E+00 0.24788389E+03</pdfrwt>
<pdfrwt beam="2">  1       -1 0.11219987E-01 0.24788389E+03</pdfrwt>
<totfact> 0.36231110E+02</totfact>
</mgrwt>
</event>
<event>
 8    1  0.3400573E-004  0.1074510E+03  0.7546771E-02  0.1266068E+00
          1   -1    0    0  501    0  0.00000000000E+00  0.00000000000E+00  0.64634551453E+03  0.64634551453E+03  0.00000000000E+00 0. -1.
         -1   -1    0    0    0  501 -0.00000000000E+00 -0.00000000000E+00 -0.17635174723E+02  0.17635174723E+02  0.00000000000E+00 0.  1.
         23    2    1    2    0    0 -0.31187448498E+02  0.35101832201E+02  0.30702478176E+03  0.32528437571E+03  0.96648398327E+02 0.  0.
         23    2    1    2    0    0  0.31187448498E+02 -0.35101832201E+02  0.32168555804E+03  0.33869631354E+03  0.95019992542E+02 0.  0.
          5    1    3    3  502    0 -0.53637332362E+02 -0.11043169760E+02  0.13673383999E+03  0.14736739130E+03  0.47000000000E+01 0. -1.
         -5    1    3    3    0  502  0.22449883864E+02  0.46145001962E+02  0.17029094178E+03  0.17791698441E+03  0.47000000000E+01 0.  1.
          5    1    4    4  503    0  0.92187879741E+01 -0.59640750606E+02  0.27364689227E+03  0.28026187189E+03  0.47000000000E+01 0. -1.
         -5    1    4    4    0  503  0.21968660524E+02  0.24538918404E+02  0.48038665769E+02  0.58434441647E+02  0.47000000000E+01 0.  1.
<mgrwt>
<rscale>  0 0.10708350E+03</rscale>
<asrwt>0</asrwt>
<pdfrwt beam="1">  1        1 0.99437753E-01 0.10745096E+03</pdfrwt>
<pdfrwt beam="2">  1       -1 0.27131043E-02 0.10745096E+03</pdfrwt>
<totfact> 0.12955536E+04</totfact>
</mgrwt>
</event>
<event>
 8    1  0.3400573E-004  0.9224145E+02  0.7546771E-02  0.1301906E+00
         -4   -1    0    0    0  501 -0.00000000000E+00  0.00000000000E+00  0.18618495861E+02  0.18618495861E+02  0.00000000000E+00 0.  1.
          4   -1    0    0  501    0  0.00000000000E+00 -0.00000000000E+00 -0.59394681943E+03  0.59394681943E+03  0.00000000000E+00 0. -1.
         23    2    1    2    0    0  0.74925602533E+01 -0.58539297903E+01 -0.13129720921E+03  0.16046009507E+03  0.91750084528E+02 0.  0.
         23    2    1    2    0    0 -0.74925602533E+01  0.58539297903E+01 -0.44403111436E+03  0.45210522022E+03  0.84528650043E+02 0.  0.
          5    1    3    3  502    0  0.39199754844E+02 -0.23777761814E+02 -0.10678560273E+03  0.11630673964E+03  0.47000000000E+01 0. -1.
         -5    1    3    3    0  502 -0.31707194591E+02  0.17923832024E+02 -0.24511606486E+02  0.44153355430E+02  0.47000000000E+01 0.  1.
          5    1    4    4  503    0  0.33438348073E+02  0.10171136127E+02 -0.30505050012E+03  0.30708219218E+03  0.47000000000E+01 0. -1.
         -5    1    4    4    0  503 -0.40930908326E+02 -0.43172063368E+01 -0.13898061424E+03  0.14502302803E+03  0.47000000000E+01 0.  1.
<mgrwt>
<rscale>  0 0.90391617E+02</rscale>
<asrwt>0</asrwt>
<pdfrwt beam="1">  1        4 0.91376432E-01 0.92241449E+02</pdfrwt>
<pdfrwt beam="2">  1       -4 0.28643840E-02 0.92241449E+02</pdfrwt>
<totfact> 0.92734279E+02</totfact>
</mgrwt>
</event>
<event>
 8    1  0.3400573E-004  0.1062699E+03  0.7546771E-02  0.1268468E+00
          1   -1    0    0  501    0  0.00000000000E+00  0.00000000000E+00  0.70850025065E+03  0.70850025065E+03  0.00000000000E+00 0. -1.
         -1   -1    0    0    0  501 -0.00000000000E+00 -0.00000000000E+00 -0.21745228990E+02  0.21745228990E+02  0.00000000000E+00 0.  1.
         23    2    1    2    0    0  0.36861309196E+02 -0.41383894373E+02  0.53810245537E+03  0.54849571849E+03  0.90674792009E+02 0.  0.
         23    2    1    2    0    0 -0.36861309196E+02  0.41383894373E+02  0.14865256630E+03  0.18174976115E+03  0.88679238731E+02 0.  0.
          5    1    3    3  502    0  0.59154732855E+02 -0.11224876572E+02  0.42439699959E+03  0.42867258314E+03  0.47000000000E+01 0. -1.
         -5    1    3    3    0  502 -0.22293423659E+02 -0.30159017801E+02  0.11370545577E+03  0.11982313535E+03  0.47000000000E+01 0.  1.
          5    1    4    4  503    0 -0.13115167267E+02 -0.27442696494E+02  0.34087829710E+02  0.45925802526E+02  0.47000000000E+01 0. -1.
         -5    1    4    4    0  503 -0.23746141930E+02  0.68826590867E+02  0.11456473659E+03  0.13582395863E+03  0.47000000000E+01 0.  1.
<mgrwt>
<rscale>  0 0.10584300E+03</rscale>
<asrwt>0</asrwt>
<pdfrwt beam="1">  1        1 0.10900002E+00 0.10626994E+03</pdfrwt>
<pdfrwt beam="2">  1       -1 0.33454204E-02 0.10626994E+03</pdfrwt>
<totfact> 0.84065545E+03</totfact>
</mgrwt>
</event>
<event>
 8    1  0.3400573E-004  0.9733049E+02  0.7546771E-02  0.1286424E+00
         -1   -1    0    0    0  501 -0.00000000000E+00  0.00000000000E+00  0.59367021029E+02  0.59367021029E+02  0.00000000000E+00 0.  1.
          1   -1    0    0  501    0  0.00000000000E+00 -0.00000000000E+00 -0.17789011290E+03  0.17789011290E+03  0.00000000000E+00 0. -1.
         23    2    1    2    0    0  0.20190011282E+02  0.27083597908E+02 -0.20139459560E+02  0.99392264055E+02  0.91280153875E+02 0.  0.
         23    2    1    2    0    0 -0.20190011282E+02 -0.27083597908E+02 -0.98383632310E+02  0.13786486987E+03  0.90477761948E+02 0.  0.
          5    1    3    3  502    0 -0.20839393482E+02  0.45730158348E+02 -0.17899695845E+01  0.50505660022E+02  0.47000000000E+01 0. -1.
         -5    1    4    4    0  503  0.27758088437E+02 -0.29836437502E+02 -0.19569562252E+02  0.45450877255E+02  0.47000000000E+01 0.  1.
          5    1    4    4  503    0 -0.47948099719E+02  0.27528395940E+01 -0.78814070058E+02  0.92413992618E+02  0.47000000000E+01 0. -1.
         -5    1    3    3    0  502  0.41029404764E+02 -0.18646560440E+02 -0.18349489975E+02  0.48886604033E+02  0.47000000000E+01 0.  1.
<mgrwt>
<rscale>  0 0.97141915E+02</rscale>
<asrwt>0</asrwt>
<pdfrwt beam="1">  1        1 0.27367710E-01 0.97330490E+02</pdfrwt>
<pdfrwt beam="2">  1       -1 0.91333879E-02 0.97330490E+02</pdfrwt>
<totfact> 0.10913379E+04</totfact>
</mgrwt>
</event>
<event>
 8    1  0.3400573E-004  0.1020931E+03  0.7546771E-02  0.1277515E+00
         -4   -1    0    0    0  501 -0.00000000000E+00  0.00000000000E+00  0.46742689554E+03  0.46742689554E+03  0.00000000000E+00 0.  1.
          4   -1    0    0  501    0  0.00000000000E+00 -0.00000000000E+00 -0.21728329447E+02  0.21728329447E+02  0.00000000000E+00 0. -1.
         23    2    1    2    0    0  0.29239634851E+02  0.29180640068E+02  0.23442816821E+03  0.25451040621E+03  0.90069499929E+02 0.  0.
         23    2    1    2    0    0 -0.29239634851E+02 -0.29180640068E+02  0.21127039789E+03  0.23464481879E+03  0.93362433326E+02 0.  0.
          5    1    3    3  502    0  0.39726052253E+02 -0.57122373773E+01  0.20040719182E+03  0.20444050826E+03  0.47000000000E+01 0. -1.
         -5    1    3    3    0  502 -0.10486417401E+02  0.34892877446E+02  0.34020976389E+02  0.50069897951E+02  0.47000000000E+01 0.  1.
          5    1    4    4  503    0 -0.51985247070E+02 -0.63944337916E+00  0.62702832330E+02  0.81588050492E+02  0.47000000000E+01 0. -1.
         -5    1    4    4    0  503  0.22745612219E+02 -0.28541196689E+02  0.14856756556E+03  0.15305676829E+03  0.47000000000E+01 0.  1.
<mgrwt>
<rscale>  0 0.10133413E+03</rscale>
<asrwt>0</asrwt>
<pdfrwt beam="1">  1        4 0.33428203E-02 0.10209314E+03</pdfrwt>
<pdfrwt beam="2">  1       -4 0.71911822E-01 0.10209314E+03</pdfrwt>
<totfact> 0.12649813E+03</totfact>
</mgrwt>
</event>
<event>
 8    1  0.3400573E-004  0.1008131E+03  0.7546771E-02  0.1279660E+00
         -2   -1    0    0    0  501 -0.00000000000E+00  0.00000000000E+00  0.15086067699E+02  0.15086067699E+02  0.00000000000E+00 0.  1.
          2   -1    0    0  501    0  0.00000000000E+00 -0.00000000000E+00 -0.66231089141E+03  0.66231089141E+03  0.00000000000E+00 0. -1.
         23    2    1    2    0    0  0.26206299202E+02  0.28130062798E+02 -0.33935439936E+03  0.35344098339E+03  0.91000273778E+02 0.  0.
         23    2    1    2    0    0 -0.26206299202E+02 -0.28130062798E+02 -0.30787042436E+03  0.32395597572E+03  0.93194449728E+02 0.  0.
          5    1    3    3  502    0  0.53722199486E+02 -0.60581637936E+01 -0.17150527298E+03  0.17988586583E+03  0.47000000000E+01 0. -1.
         -5    1    4    4    0  503 -0.42180929108E+02  0.52935316943E+01 -0.62337069020E+02  0.75599288569E+02  0.47000000000E+01 0.  1.
          5    1    4    4  503    0  0.15974629906E+02 -0.33423594492E+02 -0.24553335534E+03  0.24835668715E+03  0.47000000000E+01 0. -1.
         -5    1    3    3    0  502 -0.27515900284E+02  0.34188226592E+02 -0.16784912638E+03  0.17355511756E+03  0.47000000000E+01 0.  1.
<mgrwt>
<rscale>  0 0.10030301E+03</rscale>
<asrwt>0</asrwt>
<pdfrwt beam="1">  1        2 0.10189398E+00 0.10081307E+03</pdfrwt>
<pdfrwt beam="2">  1       -2 0.23209336E-02 0.10081307E+03</pdfrwt>
<totfact> 0.25478509E+04</totfact>
</mgrwt>
</event>
<event>
 8    1  0.3400573E-004  0.9881966E+02  0.7546771E-02  0.1283385E+00
          1   -1    0    0  501    0  0.00000000000E+00  0.00000000000E+00  0.77783462434E+02  0.77783462434E+02  0.00000000000E+00 0. -1.
         -1   -1    0    0    0  501 -0.00000000000E+00 -0.00000000000E+00 -0.12483255000E+03  0.12483255000E+03  0.00000000000E+00 0.  1.
         23    2    1    2    0    0  0.27852343107E+02 -0.26376276173E+02 -0.15956946979E+02  0.99020421540E+02  0.89883028229E+02 0.  0.
         23    2    1    2    0    0 -0.27852343107E+02  0.26376276173E+02 -0.31092140588E+02  0.10359559090E+03  0.91070655457E+02 0.  0.
          5    1    4    4  502    0  0.36464808710E+01  0.21576208897E+02 -0.57655571951E+02  0.61847268251E+02  0.47000000000E+01 0. -1.
         -5    1    3    3    0  503 -0.13246568890E+02 -0.26960388220E+02 -0.40709297300E+02  0.50810146693E+02  0.47000000000E+01 0.  1.
          5    1    3    3  503    0  0.41098911998E+02  0.58411204667E+00  0.24752350322E+02  0.48210274846E+02  0.47000000000E+01 0. -1.
         -5    1    4    4    0  502 -0.31498823978E+02  0.48000672759E+01  0.26563431363E+02  0.41748322645E+02  0.47000000000E+01 0.  1.
<mgrwt>
<rscale>  0 0.98545166E+02</rscale>
<asrwt>0</asrwt>
<pdfrwt beam="1">  1        1 0.11966687E-01 0.98819660E+02</pdfrwt>
<pdfrwt beam="2">  1       -1 0.19205008E-01 0.98819660E+02</pdfrwt>
<totfact> 0.99119217E+03</totfact>
</mgrwt>
</event>
<event>
 8    1  0.3400573E-004  0.1178704E+03  0.7546771E-02  0.1258496E+00
         -2   -1    0    0    0  501 -0.00000000000E+00  0.00000000000E+00  0.94970824644E+03  0.94970824644E+03  0.00000000000E+00 0. -1.
          2   -1    0    0  501    0  0.00000000000E+00 -0.00000000000E+00 -0.13397395695E+02  0.13397395695E+02  0.00000000000E+00 0.  1.
         23    2    1    2    0    0  0.29049375376E+02  0.66838794148E+02  0.68558432935E+03  0.69564309315E+03  0.92639893067E+02 0.  0.
         23    2    1    2    0    0 -0.29049375376E+02 -0.66838794148E+02  0.25072652139E+03  0.26746254898E+03  0.57975304784E+02 0.  0.
          5    1    4    4  502    0  0.15377224596E+02 -0.26482561062E+02  0.61058404604E+02  0.68468999186E+02  0.47000000000E+01 0. -1.
         -5    1    4    4    0  502 -0.44426599973E+02 -0.40356233086E+02  0.18966811679E+03  0.19899354979E+03  0.47000000000E+01 0.  1.
          5    1    3    3  503    0  0.45828961862E+02  0.46540302807E+02  0.63547072667E+03  0.63883599460E+03  0.47000000000E+01 0. -1.
         -5    1    3    3    0  503 -0.16779586486E+02  0.20298491340E+02  0.50113602677E+02  0.56807098559E+02  0.47000000000E+01 0.  1.
<mgrwt>
<rscale>  0 0.11112743E+03</rscale>
<asrwt>0</asrwt>
<pdfrwt beam="1">  1        2 0.20611385E-02 0.11787044E+03</pdfrwt>
<pdfrwt beam="2">  1       -2 0.14610891E+00 0.11787044E+03</pdfrwt>
<totfact> 0.16929076E+03</totfact>
</mgrwt>
</event>
<event>
 8    1  0.3400573E-004  0.8968693E+02  0.7546771E-02  0.1304428E+00
         -1   -1    0    0    0  501 -0.00000000000E+00  0.00000000000E+00  0.27635239324E+02  0.27635239324E+02  0.00000000000E+00 0.  1.
          1   -1    0    0  501    0  0.00000000000E+00 -0.00000000000E+00 -0.34276249655E+03  0.34276249655E+03  0.00000000000E+00 0. -1.
         23    2    1    2    0    0  0.41535575789E+01  0.14936271818E+01 -0.23143402158E+03  0.24772621054E+03  0.88244467705E+02 0.  0.
         23    2    1    2    0    0 -0.41535575789E+01 -0.14936271818E+01 -0.83693235639E+02  0.12267152533E+03  0.89578247761E+02 0.  0.
          5    1    3    3  502    0 -0.27600796116E+02  0.18072964069E+02 -0.18935480188E+03  0.19226483550E+03  0.47000000000E+01 0. -1.
         -5    1    3    3    0  502  0.31754353695E+02 -0.16579336888E+02 -0.42079219703E+02  0.55461375038E+02  0.47000000000E+01 0.  1.
          5    1    4    4  503    0 -0.34492687389E+02 -0.24463724141E+02 -0.70077807383E+02  0.81982976097E+02  0.47000000000E+01 0. -1.
         -5    1    4    4    0  503  0.30339129810E+02  0.22970096959E+02 -0.13615428256E+02  0.40688549231E+02  0.47000000000E+01 0.  1.
<mgrwt>
<rscale>  0 0.89352024E+02</rscale>
<asrwt>0</asrwt>
<pdfrwt beam="1">  1        1 0.52732687E-01 0.89686930E+02</pdfrwt>
<pdfrwt beam="2">  1       -1 0.42515756E-02 0.89686930E+02</pdfrwt>
<totfact> 0.15016168E+04</totfact>
</mgrwt>
</event>
<event>
 8    1  0.3447318E-004  0.1237261E+03  0.7546771E-02  0.1237202E+00
         -1   -1    0    0    0  501 -0.00000000000E+00  0.00000000000E+00  0.15296479918E+03  0.15296479918E+03  0.00000000000E+00 0.  1.
          1   -1    0    0  501    0  0.00000000000E+00 -0.00000000000E+00 -0.22472668387E+03  0.22472668387E+03  0.00000000000E+00 0. -1.
         23    2    1    2    0    0  0.73506614602E+02 -0.38131937545E+02 -0.17669432882E+03  0.21570589511E+03  0.91928669613E+02 0.  0.
         23    2    1    2    0    0 -0.73506614602E+02  0.38131937545E+02  0.10493244413E+03  0.16198558795E+03  0.91494512516E+02 0.  0.
          5    1    3    3  502    0  0.82567617274E+02 -0.13582560996E+02 -0.16798119610E+03  0.18772764749E+03  0.47000000000E+01 0. -1.
         -5    1    3    3    0  502 -0.90610026724E+01 -0.24549376549E+02 -0.87131327130E+01  0.27978247623E+02  0.47000000000E+01 0.  1.
          5    1    4    4  503    0  0.21463480983E+02  0.52519393605E+01  0.22940580466E+02  0.32196647575E+02  0.47000000000E+01 0. -1.
         -5    1    4    4    0  503 -0.94970095585E+02  0.32879998185E+02  0.81991863661E+02  0.12978894037E+03  0.47000000000E+01 0.  1.
<mgrwt>
<rscale>  0 0.12364546E+03</rscale>
<asrwt>0</asrwt>
<pdfrwt beam="1">  1        1 0.34573336E-01 0.12372610E+03</pdfrwt>
<pdfrwt beam="2">  1       -1 0.23533046E-01 0.12372610E+03</pdfrwt>
<totfact> 0.18981151E+03</totfact>
</mgrwt>
</event>
<event>
 8    1  0.3400573E-004  0.1030887E+03  0.7546771E-02  0.1274800E+00
          2   -1    0    0  501    0  0.00000000000E+00  0.00000000000E+00  0.13488803772E+03  0.13488803772E+03  0.00000000000E+00 0. -1.
         -2   -1    0    0    0  501 -0.00000000000E+00 -0.00000000000E+00 -0.12086148388E+03  0.12086148388E+03  0.00000000000E+00 0.  1.
         23    2    1    2    0    0  0.19946336222E+02  0.42442179812E+02 -0.69551738170E+02  0.12435724029E+03  0.91804596688E+02 0.  0.
         23    2    1    2    0    0 -0.19946336222E+02 -0.42442179812E+02  0.83578292006E+02  0.13139228131E+03  0.89885514617E+02 0.  0.
          5    1    3    3  502    0  0.27177168428E+02 -0.21829983174E+02 -0.39478372896E+02  0.52875122464E+02  0.47000000000E+01 0. -1.
         -5    1    4    4    0  503  0.27647005932E+02  0.47615804890E+00  0.28214739109E+01  0.28189259985E+02  0.47000000000E+01 0.  1.
          5    1    4    4  503    0 -0.47593342154E+02 -0.42918337861E+02  0.80756818095E+02  0.10320302133E+03  0.47000000000E+01 0. -1.
         -5    1    3    3    0  502 -0.72308322060E+01  0.64272162986E+02 -0.30073365274E+02  0.71482117821E+02  0.47000000000E+01 0.  1.
<mgrwt>
<rscale>  0 0.10265971E+03</rscale>
<asrwt>0</asrwt>
<pdfrwt beam="1">  1        2 0.20752006E-01 0.10308869E+03</pdfrwt>
<pdfrwt beam="2">  1       -2 0.18594074E-01 0.10308869E+03</pdfrwt>
<totfact> 0.59075893E+03</totfact>
</mgrwt>
</event>
<event>
 8    1  0.3400573E-004  0.1093912E+03  0.7546771E-02  0.1265501E+00
          1   -1    0    0  501    0  0.00000000000E+00  0.00000000000E+00  0.43856178519E+02  0.43856178519E+02  0.00000000000E+00 0. -1.
         -1   -1    0    0    0  501 -0.00000000000E+00 -0.00000000000E+00 -0.28891280688E+03  0.28891280688E+03  0.00000000000E+00 0.  1.
         23    2    1    2    0    0 -0.48428614512E+02 -0.78635921395E+01 -0.17660223063E+03  0.20372468519E+03  0.88928244721E+02 0.  0.
         23    2    1    2    0    0  0.48428614512E+02  0.78635921395E+01 -0.68454397737E+02  0.12904430021E+03  0.97771468548E+02 0.  0.
          5    1    4    4  502    0 -0.35711767449E+01  0.24489565792E+02  0.14918422687E+02  0.29276978524E+02  0.47000000000E+01 0. -1.
         -5    1    4    4    0  502  0.51999791257E+02 -0.16625973653E+02 -0.83372820424E+02  0.99767321685E+02  0.47000000000E+01 0.  1.
          5    1    3    3  503    0 -0.36040924075E+02  0.34054575842E+02 -0.53921407226E+02  0.73404839767E+02  0.47000000000E+01 0. -1.
         -5    1    3    3    0  503 -0.12387690438E+02 -0.41918167982E+02 -0.12268082340E+03  0.13031984542E+03  0.47000000000E+01 0.  1.
<mgrwt>
<rscale>  0 0.10737976E+03</rscale>
<asrwt>0</asrwt>
<pdfrwt beam="1">  1        1 0.67471043E-02 0.10939116E+03</pdfrwt>
<pdfrwt beam="2">  1       -1 0.44448125E-01 0.10939116E+03</pdfrwt>
<totfact> 0.52594760E+03</totfact>
</mgrwt>
</event>
<event>
 8    1  0.3400573E-004  0.1051489E+03  0.7546771E-02  0.1271047E+00
         -2   -1    0    0    0  501 -0.00000000000E+00  0.00000000000E+00  0.22439186481E+02  0.22439186481E+02  0.00000000000E+00 0.  1.
          2   -1    0    0  501    0  0.00000000000E+00 -0.00000000000E+00 -0.56804445117E+03  0.56804445117E+03  0.00000000000E+00 0. -1.
         23    2    1    2    0    0 -0.27443340250E+02 -0.38322596484E+02 -0.15471644435E+03  0.18569930180E+03  0.91243050211E+02 0.  0.
         23    2    1    2    0    0  0.27443340250E+02  0.38322596484E+02 -0.39088882035E+03  0.40478433586E+03  0.93992182427E+02 0.  0.
          5    1    3    3  502    0  0.22143801053E+02 -0.16230882870E+02 -0.76839125767E+01  0.28895016807E+02  0.47000000000E+01 0. -1.
         -5    1    4    4    0  503  0.12831243951E+02  0.62610215855E+02 -0.34302108646E+03  0.34895592230E+03  0.47000000000E+01 0. -1.
          5    1    4    4  503    0  0.14612096299E+02 -0.24287619371E+02 -0.47867733883E+02  0.55828413555E+02  0.47000000000E+01 0.  1.
         -5    1    3    3    0  502 -0.49587141302E+02 -0.22091713614E+02 -0.14703253177E+03  0.15680428499E+03  0.47000000000E+01 0.  1.
<mgrwt>
<rscale>  0 0.10453095E+03</rscale>
<asrwt>0</asrwt>
<pdfrwt beam="1">  1        2 0.87391441E-01 0.10514889E+03</pdfrwt>
<pdfrwt beam="2">  1       -2 0.34521831E-02 0.10514889E+03</pdfrwt>
<totfact> 0.17068829E+04</totfact>
</mgrwt>
</event>
<event>
 8    1  0.3400573E-004  0.1786546E+03  0.7546771E-02  0.1169238E+00
         -1   -1    0    0    0  501 -0.00000000000E+00  0.00000000000E+00  0.74885888789E+02  0.74885888789E+02  0.00000000000E+00 0.  1.
          1   -1    0    0  501    0  0.00000000000E+00 -0.00000000000E+00 -0.43902839532E+03  0.43902839532E+03  0.00000000000E+00 0. -1.
         23    2    1    2    0    0 -0.13159083512E+03 -0.78439770246E+02 -0.13636114629E+03  0.22474837633E+03  0.91915858258E+02 0.  0.
         23    2    1    2    0    0  0.13159083512E+03  0.78439770246E+02 -0.22778136024E+03  0.28916590779E+03  0.90904503231E+02 0.  0.
          5    1    4    4  502    0  0.42228808603E+02  0.76326951990E+02 -0.12975170290E+03  0.15641825431E+03  0.47000000000E+01 0. -1.
         -5    1    3    3    0  503 -0.61800338543E+02 -0.68267424724E+02 -0.29849643844E+02  0.96916532956E+02  0.47000000000E+01 0.  1.
          5    1    3    3  503    0 -0.69790496578E+02 -0.10172345522E+02 -0.10651150245E+03  0.12783184337E+03  0.47000000000E+01 0. -1.
         -5    1    4    4    0  502  0.89362026519E+02  0.21128182560E+01 -0.98029657339E+02  0.13274765347E+03  0.47000000000E+01 0.  1.
<mgrwt>
<rscale>  0 0.17852492E+03</rscale>
<asrwt>0</asrwt>
<pdfrwt beam="1">  1        1 0.67542829E-01 0.17865461E+03</pdfrwt>
<pdfrwt beam="2">  1       -1 0.11520906E-01 0.17865461E+03</pdfrwt>
<totfact> 0.25816781E+03</totfact>
</mgrwt>
</event>
<event>
 8    1  0.3400573E-004  0.9257768E+02  0.7546771E-02  0.1297060E+00
         -2   -1    0    0    0  501 -0.00000000000E+00  0.00000000000E+00  0.86511202830E+02  0.86511202830E+02  0.00000000000E+00 0.  1.
          2   -1    0    0  501    0  0.00000000000E+00 -0.00000000000E+00 -0.15937958186E+03  0.15937958186E+03  0.00000000000E+00 0. -1.
         23    2    1    2    0    0  0.65708591970E+01 -0.23811205229E+01 -0.11237470365E+03  0.14523604151E+03  0.91741963182E+02 0.  0.
         23    2    1    2    0    0 -0.65708591970E+01  0.23811205229E+01  0.39506324623E+02  0.10065474317E+03  0.92313496915E+02 0.  0.
          5    1    4    4  502    0  0.18853658989E+02  0.36715021953E+02 -0.10606534118E+01  0.41553198191E+02  0.47000000000E+01 0. -1.
         -5    1    4    4    0  502 -0.25424518186E+02 -0.34333901430E+02  0.40566978035E+02  0.59101544982E+02  0.47000000000E+01 0.  1.
          5    1    3    3  503    0  0.42689812772E+02  0.13558863795E+02 -0.87294945942E+02  0.98228104374E+02  0.47000000000E+01 0. -1.
         -5    1    3    3    0  503 -0.36118953575E+02 -0.15939984318E+02 -0.25079757709E+02  0.47007937140E+02  0.47000000000E+01 0.  1.
<mgrwt>
<rscale>  0 0.92434881E+02</rscale>
<asrwt>0</asrwt>
<pdfrwt beam="1">  1        2 0.24519935E-01 0.92577684E+02</pdfrwt>
<pdfrwt beam="2">  1       -2 0.13309416E-01 0.92577684E+02</pdfrwt>
<totfact> 0.84020672E+03</totfact>
</mgrwt>
</event>
<event>
 8    1  0.3400573E-004  0.9789240E+02  0.7546771E-02  0.1287137E+00
         -3   -1    0    0    0  501 -0.00000000000E+00  0.00000000000E+00  0.25799348630E+03  0.25799348630E+03  0.00000000000E+00 0.  1.
          3   -1    0    0  501    0  0.00000000000E+00 -0.00000000000E+00 -0.21928814883E+03  0.21928814883E+03  0.00000000000E+00 0. -1.
         23    2    1    2    0    0 -0.11989864151E+02  0.24904130297E+02  0.23785272536E+03  0.25720972198E+03  0.93909262438E+02 0.  0.
         23    2    1    2    0    0  0.11989864151E+02 -0.24904130297E+02 -0.19914738788E+03  0.22007191316E+03  0.89487386332E+02 0.  0.
          5    1    4    4  502    0  0.19227118192E+02  0.28651780049E+02 -0.46656793940E+02  0.58219867697E+02  0.47000000000E+01 0. -1.
         -5    1    3    3    0  503 -0.51253565866E+01  0.60264471576E+02  0.16509501686E+03  0.17588783473E+03  0.47000000000E+01 0.  1.
          5    1    3    3  503    0 -0.68645075647E+01 -0.35360341279E+02  0.72757708494E+02  0.81321887243E+02  0.47000000000E+01 0. -1.
         -5    1    4    4    0  502 -0.72372540407E+01 -0.53555910345E+02 -0.15249059394E+03  0.16185204546E+03  0.47000000000E+01 0.  1.
<mgrwt>
<rscale>  0 0.96816381E+02</rscale>
<asrwt>0</asrwt>
<pdfrwt beam="1">  1        3 0.33736638E-01 0.97892401E+02</pdfrwt>
<pdfrwt beam="2">  1       -3 0.39691306E-01 0.97892401E+02</pdfrwt>
<totfact> 0.12246285E+02</totfact>
</mgrwt>
</event>
<event>
 8    1  0.3400573E-004  0.1033551E+03  0.7546771E-02  0.1274026E+00
          3   -1    0    0  501    0  0.00000000000E+00  0.00000000000E+00  0.15780635506E+03  0.15780635506E+03  0.00000000000E+00 0. -1.
         -3   -1    0    0    0  501 -0.00000000000E+00 -0.00000000000E+00 -0.71127545564E+02  0.71127545564E+02  0.00000000000E+00 0.  1.
         23    2    1    2    0    0 -0.20499786271E+02  0.45325171019E+02  0.71070071741E+02  0.12440686943E+03  0.89171193210E+02 0.  0.
         23    2    1    2    0    0  0.20499786271E+02 -0.45325171019E+02  0.15608737757E+02  0.10452703120E+03  0.90596110246E+02 0.  0.
          5    1    4    4  502    0 -0.21360292658E+02 -0.64797024041E+00  0.33996443692E+02  0.40429322917E+02  0.47000000000E+01 0. -1.
         -5    1    3    3    0  503  0.85343591235E+01  0.65561957533E+02  0.49098670976E+02  0.82486211289E+02  0.47000000000E+01 0.  1.
          5    1    3    3  503    0 -0.29034145395E+02 -0.20236786514E+02  0.21971400764E+02  0.41920658138E+02  0.47000000000E+01 0. -1.
         -5    1    4    4    0  502  0.41860078929E+02 -0.44677200779E+02 -0.18387705935E+02  0.64097708281E+02  0.47000000000E+01 0.  1.
<mgrwt>
<rscale>  0 0.10304196E+03</rscale>
<asrwt>0</asrwt>
<pdfrwt beam="1">  1        3 0.24277901E-01 0.10335506E+03</pdfrwt>
<pdfrwt beam="2">  1       -3 0.10942699E-01 0.10335506E+03</pdfrwt>
<totfact> 0.21892834E+03</totfact>
</mgrwt>
</event>
<event>
 8    1  0.3400573E-004  0.9487350E+02  0.7546771E-02  0.1292224E+00
         -1   -1    0    0    0  501 -0.00000000000E+00  0.00000000000E+00  0.18520993453E+03  0.18520993453E+03  0.00000000000E+00 0.  1.
          1   -1    0    0  501    0  0.00000000000E+00 -0.00000000000E+00 -0.63655047346E+02  0.63655047346E+02  0.00000000000E+00 0. -1.
         23    2    1    2    0    0 -0.18965610615E+02  0.74981688737E+00 -0.14243871525E+01  0.93543116071E+02  0.91586183860E+02 0.  0.
         23    2    1    2    0    0  0.18965610615E+02 -0.74981688737E+00  0.12297927433E+03  0.15532186580E+03  0.92955491874E+02 0.  0.
          5    1    3    3  502    0  0.21184508342E+02  0.63753863393E+00 -0.34870685989E+02  0.41076082950E+02  0.47000000000E+01 0. -1.
         -5    1    3    3    0  502 -0.40150118957E+02  0.11227825344E+00  0.33446298836E+02  0.52467033121E+02  0.47000000000E+01 0.  1.
          5    1    4    4  503    0  0.23018173861E+02 -0.44649113101E+02  0.62169432587E+02  0.80065647919E+02  0.47000000000E+01 0. -1.
         -5    1    4    4    0  503 -0.40525632458E+01  0.43899296213E+02  0.60809841747E+02  0.75256217884E+02  0.47000000000E+01 0.  1.
<mgrwt>
<rscale>  0 0.94536397E+02</rscale>
<asrwt>0</asrwt>
<pdfrwt beam="1">  1        1 0.97930843E-02 0.94873495E+02</pdfrwt>
<pdfrwt beam="2">  1       -1 0.28493836E-01 0.94873495E+02</pdfrwt>
<totfact> 0.67800378E+03</totfact>
</mgrwt>
</event>
<event>
 8    1  0.3400573E-004  0.1038159E+03  0.7546771E-02  0.1275717E+00
         -1   -1    0    0    0  501 -0.00000000000E+00  0.00000000000E+00  0.59870936400E+02  0.59870936400E+02  0.00000000000E+00 0.  1.
          1   -1    0    0  501    0  0.00000000000E+00 -0.00000000000E+00 -0.17111362841E+03  0.17111362841E+03  0.00000000000E+00 0. -1.
         23    2    1    2    0    0 -0.23705805533E+02  0.20953733302E+02 -0.45434714553E+02  0.11332283134E+03  0.98877331382E+02 0.  0.
         23    2    1    2    0    0  0.23705805533E+02 -0.20953733302E+02 -0.65807977457E+02  0.11766173347E+03  0.92263586919E+02 0.  0.
          5    1    4    4  502    0 -0.73549004132E+01  0.21381451443E+02 -0.60403675952E+02  0.64668037657E+02  0.47000000000E+01 0. -1.
         -5    1    4    4    0  502  0.31060705946E+02 -0.42335184745E+02 -0.54043015051E+01  0.52993695814E+02  0.47000000000E+01 0.  1.
          5    1    3    3  503    0 -0.17542952255E+02  0.60597017112E+02 -0.30799682277E+02  0.70359534429E+02  0.47000000000E+01 0. -1.
         -5    1    3    3    0  503 -0.61628532778E+01 -0.39643283810E+02 -0.14635032275E+02  0.42963296911E+02  0.47000000000E+01 0.  1.
<mgrwt>
<rscale>  0 0.10220947E+03</rscale>
<asrwt>0</asrwt>
<pdfrwt beam="1">  1        1 0.26325173E-01 0.10381595E+03</pdfrwt>
<pdfrwt beam="2">  1       -1 0.92109135E-02 0.10381595E+03</pdfrwt>
<totfact> 0.11372829E+04</totfact>
</mgrwt>
</event>
<event>
 8    1  0.3400573E-004  0.9466596E+02  0.7546771E-02  0.1294762E+00
          3   -1    0    0  501    0  0.00000000000E+00  0.00000000000E+00  0.21239934273E+02  0.21239934273E+02  0.00000000000E+00 0. -1.
         -3   -1    0    0    0  501 -0.00000000000E+00 -0.00000000000E+00 -0.40582898614E+03  0.40582898614E+03  0.00000000000E+00 0.  1.
         23    2    1    2    0    0 -0.13101705919E+02 -0.22947938228E+02 -0.17287737863E+03  0.19709954799E+03  0.90903141921E+02 0.  0.
         23    2    1    2    0    0  0.13101705919E+02  0.22947938228E+02 -0.21171167324E+03  0.22996937242E+03  0.85824338612E+02 0.  0.
          5    1    4    4  502    0 -0.12463149840E+02  0.45722518086E+02 -0.16580327388E+03  0.17250708505E+03  0.47000000000E+01 0. -1.
         -5    1    4    4    0  502  0.25564855759E+02 -0.22774579858E+02 -0.45908399362E+02  0.57462287369E+02  0.47000000000E+01 0.  1.
          5    1    3    3  503    0  0.19287346691E+02 -0.45796093746E+02 -0.64175402681E+02  0.81301022466E+02  0.47000000000E+01 0. -1.
         -5    1    3    3    0  503 -0.32389052610E+02  0.22848155517E+02 -0.10870197595E+03  0.11579852553E+03  0.47000000000E+01 0.  1.
<mgrwt>
<rscale>  0 0.93425349E+02</rscale>
<asrwt>0</asrwt>
<pdfrwt beam="1">  1        3 0.32676823E-02 0.94665959E+02</pdfrwt>
<pdfrwt beam="2">  1       -3 0.62435226E-01 0.94665959E+02</pdfrwt>
<totfact> 0.24149460E+03</totfact>
</mgrwt>
</event>
<event>
 7    1  0.3400573E-004  0.1355860E+03  0.7546771E-02  0.1237924E+00
          2   -1    0    0  501    0  0.00000000000E+00  0.00000000000E+00  0.37382587743E+03  0.37382587743E+03  0.00000000000E+00 0. -1.
         -2   -1    0    0    0  501 -0.00000000000E+00 -0.00000000000E+00 -0.64339958232E+02  0.64339958232E+02  0.00000000000E+00 0.  1.
         23    2    1    2    0    0  0.18563622265E+02 -0.12014112599E+01  0.28600695380E+03  0.30056196413E+03  0.90506713554E+02 0.  0.
          5    1    3    3  502    0 -0.20665920762E+02 -0.34436996499E+02  0.13838813555E+03  0.14417473104E+03  0.47000000000E+01 0. -1.
         -5    1    1    2    0  503  0.32270168333E+02  0.53346667185E+02  0.83804957205E+01  0.63083701322E+02  0.47000000000E+01 0.  1.
          5    1    1    2  503    0 -0.50833790599E+02 -0.52145255925E+02  0.15098469680E+02  0.74520170214E+02  0.47000000000E+01 0. -1.
         -5    1    3    3    0  502  0.39229543027E+02  0.33235585239E+02  0.14761881825E+03  0.15638723309E+03  0.47000000000E+01 0.  1.
<mgrwt>
<rscale>  0 0.12319060E+03</rscale>
<asrwt>0</asrwt>
<pdfrwt beam="1">  1        2 0.57511672E-01 0.13558600E+03</pdfrwt>
<pdfrwt beam="2">  1       -2 0.98984554E-02 0.13558600E+03</pdfrwt>
<totfact> 0.55615672E+03</totfact>
</mgrwt>
</event>
<event>
 8    1  0.3400573E-004  0.1242820E+03  0.7546771E-02  0.1236259E+00
          2   -1    0    0  501    0  0.00000000000E+00  0.00000000000E+00  0.76907220033E+02  0.76907220033E+02  0.00000000000E+00 0. -1.
         -2   -1    0    0    0  501 -0.00000000000E+00 -0.00000000000E+00 -0.20153371911E+03  0.20153371911E+03  0.00000000000E+00 0.  1.
         23    2    1    2    0    0  0.43766225106E+02  0.72163666589E+02 -0.52704460726E+02  0.13484847783E+03  0.91012496711E+02 0.  0.
         23    2    1    2    0    0 -0.43766225106E+02 -0.72163666589E+02 -0.71922038351E+02  0.14359246131E+03  0.91230138162E+02 0.  0.
          5    1    4    4  502    0  0.14826709114E+02 -0.35948718468E+02  0.58415440764E+01  0.39602465831E+02  0.47000000000E+01 0. -1.
         -5    1    4    4    0  502 -0.58592934221E+02 -0.36214948121E+02 -0.77763582427E+02  0.10398999548E+03  0.47000000000E+01 0.  1.
          5    1    3    3  503    0  0.22570147403E+02 -0.11609075965E+01  0.19091538390E+02  0.29955568736E+02  0.47000000000E+01 0. -1.
         -5    1    3    3    0  503  0.21196077704E+02  0.73324574186E+02 -0.71795999116E+02  0.10489290910E+03  0.47000000000E+01 0.  1.
<mgrwt>
<rscale>  0 0.12424206E+03</rscale>
<asrwt>0</asrwt>
<pdfrwt beam="1">  1        2 0.11831880E-01 0.12428200E+03</pdfrwt>
<pdfrwt beam="2">  1       -2 0.31005187E-01 0.12428200E+03</pdfrwt>
<totfact> 0.47377735E+03</totfact>
</mgrwt>
</event>
<event>
 8    1  0.3400573E-004  0.9507119E+02  0.7546771E-02  0.1292395E+00
          3   -1    0    0  501    0  0.00000000000E+00  0.00000000000E+00  0.14826623556E+03  0.14826623556E+03  0.00000000000E+00 0. -1.
         -3   -1    0    0    0  501 -0.00000000000E+00 -0.00000000000E+00 -0.12142670020E+03  0.12142670020E+03  0.00000000000E+00 0.  1.
         23    2    1    2    0    0  0.74444823231E+01 -0.16911194895E+02 -0.82852320719E+02  0.12610724997E+03  0.93258364859E+02 0.  0.
         23    2    1    2    0    0 -0.74444823231E+01  0.16911194895E+02  0.10969185608E+03  0.14358568579E+03  0.90791723429E+02 0.  0.
          5    1    3    3  502    0  0.15858001269E+02 -0.37934224036E+02 -0.13693312185E+01  0.41405876702E+02  0.47000000000E+01 0. -1.
         -5    1    3    3    0  502 -0.84135189461E+01  0.21023029141E+02 -0.81482989501E+02  0.84701373267E+02  0.47000000000E+01 0.  1.
          5    1    4    4  503    0 -0.67254452782E+01  0.54320882696E+02  0.65785473988E+02  0.85707692181E+02  0.47000000000E+01 0. -1.
         -5    1    4    4    0  503 -0.71903704492E+00 -0.37409687801E+02  0.43906382094E+02  0.57877993609E+02  0.47000000000E+01 0.  1.
<mgrwt>
<rscale>  0 0.94460745E+02</rscale>
<asrwt>0</asrwt>
<pdfrwt beam="1">  1        3 0.22810190E-01 0.95071191E+02</pdfrwt>
<pdfrwt beam="2">  1       -3 0.18681031E-01 0.95071191E+02</pdfrwt>
<totfact> 0.97473366E+02</totfact>
</mgrwt>
</event>
<event>
 8    1  0.3400573E-004  0.9791926E+02  0.7546771E-02  0.1285545E+00
          2   -1    0    0  501    0  0.00000000000E+00  0.00000000000E+00  0.10636102129E+04  0.10636102129E+04  0.00000000000E+00 0. -1.
         -2   -1    0    0    0  501 -0.00000000000E+00 -0.00000000000E+00 -0.94482433417E+01  0.94482433417E+01  0.00000000000E+00 0.  1.
         23    2    1    2    0    0 -0.39592468639E+02 -0.42694754909E+01  0.66266749489E+03  0.66986296310E+03  0.89456070528E+02 0.  0.
         23    2    1    2    0    0  0.39592468639E+02  0.42694754909E+01  0.39149447465E+03  0.40319549313E+03  0.87823060756E+02 0.  0.
          5    1    3    3  502    0 -0.20212258742E+02 -0.46461079342E+02  0.31658979849E+03  0.32065301777E+03  0.47000000000E+01 0. -1.
         -5    1    3    3    0  502 -0.19380209896E+02  0.42191603851E+02  0.34607769641E+03  0.34920994534E+03  0.47000000000E+01 0.  1.
          5    1    4    4  503    0  0.57382126012E+02 -0.18871833496E+02  0.32236382836E+03  0.32800820466E+03  0.47000000000E+01 0. -1.
         -5    1    4    4    0  503 -0.17789657374E+02  0.23141308987E+02  0.69130646290E+02  0.75187288471E+02  0.47000000000E+01 0.  1.
<mgrwt>
<rscale>  0 0.97544716E+02</rscale>
<asrwt>0</asrwt>
<pdfrwt beam="1">  1        2 0.16363225E+00 0.97919255E+02</pdfrwt>
<pdfrwt beam="2">  1       -2 0.14535767E-02 0.97919255E+02</pdfrwt>
<totfact> 0.27417642E+04</totfact>
</mgrwt>
</event>
<event>
 8    1  0.3400573E-004  0.1503776E+03  0.7546771E-02  0.1200619E+00
          2   -1    0    0  501    0  0.00000000000E+00  0.00000000000E+00  0.41534749611E+02  0.41534749611E+02  0.00000000000E+00 0. -1.
         -2   -1    0    0    0  501 -0.00000000000E+00 -0.00000000000E+00 -0.53833161931E+03  0.53833161931E+03  0.00000000000E+00 0.  1.
         23    2    1    2    0    0  0.61978659723E+02  0.10036008037E+03 -0.23419656025E+03  0.27725715998E+03  0.90055560279E+02 0.  0.
         23    2    1    2    0    0 -0.61978659723E+02 -0.10036008037E+03 -0.26260030946E+03  0.30260920894E+03  0.93273312450E+02 0.  0.
          5    1    3    3  502    0 -0.14621082803E+01  0.34678254858E+02 -0.14626179304E+03  0.15039721149E+03  0.47000000000E+01 0. -1.
         -5    1    3    3    0  502  0.63440768004E+02  0.65681825517E+02 -0.87934767204E+02  0.12685994849E+03  0.47000000000E+01 0.  1.
          5    1    4    4  503    0 -0.27206457065E+02 -0.10977534859E+03 -0.21187045573E+03  0.24021240284E+03  0.47000000000E+01 0. -1.
         -5    1    4    4    0  503 -0.34772202658E+02  0.94152682147E+01 -0.50729853723E+02  0.62396806104E+02  0.47000000000E+01 0.  1.
<mgrwt>
<rscale>  0 0.14988152E+03</rscale>
<asrwt>0</asrwt>
<pdfrwt beam="1">  1        2 0.63899616E-02 0.15037756E+03</pdfrwt>
<pdfrwt beam="2">  1       -2 0.82820248E-01 0.15037756E+03</pdfrwt>
<totfact> 0.14585132E+03</totfact>
</mgrwt>
</event>
<event>
 8    1  0.3400573E-004  0.1740380E+03  0.7546771E-02  0.1173838E+00
         -2   -1    0    0    0  501 -0.00000000000E+00  0.00000000000E+00  0.88043934446E+02  0.88043934446E+02  0.00000000000E+00 0.  1.
          2   -1    0    0  501    0  0.00000000000E+00 -0.00000000000E+00 -0.35366122936E+03  0.35366122936E+03  0.00000000000E+00 0. -1.
         23    2    1    2    0    0 -0.25749777146E+02 -0.14528845016E+03 -0.17102822949E+03  0.24362353647E+03  0.91268764995E+02 0.  0.
         23    2    1    2    0    0  0.25749777146E+02  0.14528845016E+03 -0.94589065428E+02  0.19808162734E+03  0.92290059151E+02 0.  0.
          5    1    4    4  502    0  0.28599284029E+02  0.12654784894E+02 -0.47829512712E+02  0.57339470820E+02  0.47000000000E+01 0. -1.
         -5    1    3    3    0  503 -0.25727017725E+02 -0.72876309521E+00 -0.12392156232E+02  0.28949370852E+02  0.47000000000E+01 0.  1.
          5    1    3    3  503    0 -0.22759421426E-01 -0.14455968707E+03 -0.15863607326E+03  0.21467416561E+03  0.47000000000E+01 0. -1.
         -5    1    4    4    0  502 -0.28495068833E+01  0.13263366527E+03 -0.46759552716E+02  0.14074215652E+03  0.47000000000E+01 0.  1.
<mgrwt>
<rscale>  0 0.17390303E+03</rscale>
<asrwt>0</asrwt>
<pdfrwt beam="1">  1        2 0.54409419E-01 0.17403804E+03</pdfrwt>
<pdfrwt beam="2">  1       -2 0.13545221E-01 0.17403804E+03</pdfrwt>
<totfact> 0.36214545E+03</totfact>
</mgrwt>
</event>
<event>
 8    1  0.3400573E-004  0.1023419E+03  0.7546771E-02  0.1275953E+00
          1   -1    0    0  501    0  0.00000000000E+00  0.00000000000E+00  0.68171730813E+02  0.68171730813E+02  0.00000000000E+00 0. -1.
         -1   -1    0    0    0  501 -0.00000000000E+00 -0.00000000000E+00 -0.18038978146E+03  0.18038978146E+03  0.00000000000E+00 0.  1.
         23    2    1    2    0    0  0.43501239283E+02  0.19256682235E+02 -0.67160559200E+01  0.10157670213E+03  0.89496052312E+02 0.  0.
         23    2    1    2    0    0 -0.43501239283E+02 -0.19256682235E+02 -0.10550199472E+03  0.14698481014E+03  0.90612835127E+02 0.  0.
          5    1    3    3  502    0  0.36729024661E+01  0.24668681533E+02 -0.41212771082E+02  0.48400584308E+02  0.47000000000E+01 0.  1.
         -5    1    4    4    0  503 -0.21965462460E+02 -0.29920723472E+02  0.12751579882E+01  0.37435908724E+02  0.47000000000E+01 0.  1.
          5    1    4    4  503    0 -0.21535776824E+02  0.10664041237E+02 -0.10677715271E+03  0.10954890141E+03  0.47000000000E+01 0. -1.
         -5    1    3    3    0  502  0.39828336817E+02 -0.54119992980E+01  0.34496715162E+02  0.53176117826E+02  0.47000000000E+01 0. -1.
<mgrwt>
<rscale>  0 0.10209413E+03</rscale>
<asrwt>0</asrwt>
<pdfrwt beam="1">  1        1 0.10487959E-01 0.10234190E+03</pdfrwt>
<pdfrwt beam="2">  1       -1 0.27752274E-01 0.10234190E+03</pdfrwt>
<totfact> 0.65130034E+03</totfact>
</mgrwt>
</event>
<event>
 8    1  0.3400573E-004  0.1066845E+03  0.7546771E-02  0.1268486E+00
         -3   -1    0    0    0  501 -0.00000000000E+00  0.00000000000E+00  0.13676384986E+03  0.13676384986E+03  0.00000000000E+00 0.  1.
          3   -1    0    0  501    0  0.00000000000E+00 -0.00000000000E+00 -0.84211660771E+02  0.84211660771E+02  0.00000000000E+00 0. -1.
         23    2    1    2    0    0 -0.39855575768E+02 -0.37909493185E+02  0.38558605124E+01  0.10675418246E+03  0.91411111022E+02 0.  0.
         23    2    1    2    0    0  0.39855575768E+02  0.37909493185E+02  0.48696328581E+02  0.11422132818E+03  0.87461893418E+02 0.  0.
          5    1    3    3  502    0 -0.17981966759E+01 -0.49930816794E+02 -0.26162224609E+02  0.56593921701E+02  0.47000000000E+01 0. -1.
         -5    1    3    3    0  502 -0.38057379092E+02  0.12021323609E+02  0.30018085121E+02  0.50160260755E+02  0.47000000000E+01 0.  1.
          5    1    4    4  503    0  0.37052755498E+02 -0.14233243512E+02  0.47092094683E+02  0.61767688095E+02  0.47000000000E+01 0. -1.
         -5    1    4    4    0  503  0.28028202701E+01  0.52142736697E+02  0.16042338975E+01  0.52453640084E+02  0.47000000000E+01 0.  1.
<mgrwt>
<rscale>  0 0.10583345E+03</rscale>
<asrwt>0</asrwt>
<pdfrwt beam="1">  1        3 0.12955640E-01 0.10668452E+03</pdfrwt>
<pdfrwt beam="2">  1       -3 0.21040592E-01 0.10668452E+03</pdfrwt>
<totfact> 0.21434991E+03</totfact>
</mgrwt>
</event>
<event>
 8    1  0.3400573E-004  0.1076466E+03  0.7546771E-02  0.1265180E+00
          1   -1    0    0  501    0  0.00000000000E+00  0.00000000000E+00  0.76319241403E+03  0.76319241403E+03  0.00000000000E+00 0. -1.
         -1   -1    0    0    0  501 -0.00000000000E+00 -0.00000000000E+00 -0.15403353521E+02  0.15403353521E+02  0.00000000000E+00 0.  1.
         23    2    1    2    0    0  0.54816796547E+02  0.11044760029E+02  0.32112686652E+03  0.33856347387E+03  0.91519907834E+02 0.  0.
         23    2    1    2    0    0 -0.54816796547E+02 -0.11044760029E+02  0.42666219398E+03  0.44003229368E+03  0.91983279977E+02 0.  0.
          5    1    4    4  502    0 -0.42640223515E+02  0.37500763779E+02  0.24544924947E+03  0.25197603063E+03  0.47000000000E+01 0. -1.
         -5    1    3    3    0  503  0.43194247506E+02 -0.32703353772E+02  0.11151549395E+03  0.12406872191E+03  0.47000000000E+01 0.  1.
          5    1    3    3  503    0  0.11622549042E+02  0.43748113801E+02  0.20961137257E+03  0.21449475196E+03  0.47000000000E+01 0. -1.
         -5    1    4    4    0  502 -0.12176573032E+02 -0.48545523808E+02  0.18121294452E+03  0.18805626305E+03  0.47000000000E+01 0.  1.
<mgrwt>
<rscale>  0 0.10754755E+03</rscale>
<asrwt>0</asrwt>
<pdfrwt beam="1">  1        1 0.11741419E+00 0.10764661E+03</pdfrwt>
<pdfrwt beam="2">  1       -1 0.23697473E-02 0.10764661E+03</pdfrwt>
<totfact> 0.12439230E+04</totfact>
</mgrwt>
</event>
<event>
 8    1  0.3400573E-004  0.1739927E+03  0.7546771E-02  0.1174417E+00
          3   -1    0    0  501    0  0.00000000000E+00  0.00000000000E+00  0.21645209227E+03  0.21645209227E+03  0.00000000000E+00 0. -1.
         -3   -1    0    0    0  501 -0.00000000000E+00 -0.00000000000E+00 -0.16289996646E+03  0.16289996646E+03  0.00000000000E+00 0.  1.
         23    2    1    2    0    0  0.23697304082E+02 -0.14384911908E+03 -0.47909063116E+02  0.17793744227E+03  0.90068439270E+02 0.  0.
         23    2    1    2    0    0 -0.23697304082E+02  0.14384911908E+03  0.10146118893E+03  0.20141461646E+03  0.94970224719E+02 0.  0.
          5    1    4    4  502    0 -0.41765173571E+02  0.12899516975E+03  0.11142402218E+03  0.17556049174E+03  0.47000000000E+01 0. -1.
         -5    1    3    3    0  503 -0.90290632444E+01 -0.63598689556E+02  0.20318583074E+02  0.67537042536E+02  0.47000000000E+01 0.  1.
          5    1    3    3  503    0  0.32726367326E+02 -0.80250429522E+02 -0.68227646190E+02  0.11040039973E+03  0.47000000000E+01 0. -1.
         -5    1    4    4    0  502  0.18067869489E+02  0.14853949331E+02 -0.99628332474E+01  0.25854124718E+02  0.47000000000E+01 0.  1.
<mgrwt>
<rscale>  0 0.17333242E+03</rscale>
<asrwt>0</asrwt>
<pdfrwt beam="1">  1        3 0.33300322E-01 0.17399274E+03</pdfrwt>
<pdfrwt beam="2">  1       -3 0.25061533E-01 0.17399274E+03</pdfrwt>
<totfact> 0.31714105E+02</totfact>
</mgrwt>
</event>
<event>
 8    1  0.3400573E-004  0.1110923E+03  0.7546771E-02  0.1260051E+00
          1   -1    0    0  501    0  0.00000000000E+00  0.00000000000E+00  0.43606619638E+02  0.43606619638E+02  0.00000000000E+00 0. -1.
         -1   -1    0    0    0  501 -0.00000000000E+00 -0.00000000000E+00 -0.50301453155E+03  0.50301453155E+03  0.00000000000E+00 0.  1.
         23    2    1    2    0    0 -0.61275919713E+02 -0.12995158701E+00 -0.47501323788E+02  0.12082167151E+03  0.92664692958E+02 0.  0.
         23    2    1    2    0    0  0.61275919713E+02  0.12995158701E+00 -0.41190658813E+03  0.42579947968E+03  0.88788537152E+02 0.  0.
          5    1    4    4  502    0  0.62270368110E+02 -0.32128744267E+02 -0.33467353343E+03  0.34196245252E+03  0.47000000000E+01 0.  1.
         -5    1    4    4    0  502 -0.99444839693E+00  0.32258695854E+02 -0.77233054695E+02  0.83837027161E+02  0.47000000000E+01 0. -1.
          5    1    3    3  503    0  0.22810879707E+02  0.11434777064E+02 -0.13690761310E+02  0.29336279668E+02  0.47000000000E+01 0. -1.
         -5    1    3    3    0  503 -0.84086799420E+02 -0.11564728651E+02 -0.33810562477E+02  0.91485391842E+02  0.47000000000E+01 0.  1.
<mgrwt>
<rscale>  0 0.11028045E+03</rscale>
<asrwt>0</asrwt>
<pdfrwt beam="1">  1        1 0.67087110E-02 0.11109231E+03</pdfrwt>
<pdfrwt beam="2">  1       -1 0.77386848E-01 0.11109231E+03</pdfrwt>
<totfact> 0.18654453E+03</totfact>
</mgrwt>
</event>
<event>
 8    1  0.3400573E-004  0.1048881E+03  0.7546771E-02  0.1272467E+00
          1   -1    0    0  501    0  0.00000000000E+00  0.00000000000E+00  0.18341805194E+03  0.18341805194E+03  0.00000000000E+00 0. -1.
         -1   -1    0    0    0  501 -0.00000000000E+00 -0.00000000000E+00 -0.84702654893E+02  0.84702654893E+02  0.00000000000E+00 0.  1.
         23    2    1    2    0    0  0.27357113152E+01 -0.43381517875E+02  0.12450096566E+03  0.16010957582E+03  0.90802784147E+02 0.  0.
         23    2    1    2    0    0 -0.27357113152E+01  0.43381517875E+02 -0.25785568618E+02  0.10801113101E+03  0.95457156169E+02 0.  0.
          5    1    3    3  502    0 -0.10833204615E+02 -0.69668916486E+02  0.85006968837E+02  0.11054135424E+03  0.47000000000E+01 0. -1.
         -5    1    3    3    0  502  0.13568915930E+02  0.26287398611E+02  0.39493996827E+02  0.49568221580E+02  0.47000000000E+01 0.  1.
          5    1    4    4  503    0  0.14411935604E+02 -0.26515556734E+02 -0.18041746737E+02  0.35473557223E+02  0.47000000000E+01 0. -1.
         -5    1    4    4    0  503 -0.17147646919E+02  0.69897074609E+02 -0.77438218803E+01  0.72537573788E+02  0.47000000000E+01 0.  1.
<mgrwt>
<rscale>  0 0.10381745E+03</rscale>
<asrwt>0</asrwt>
<pdfrwt beam="1">  1        1 0.28218162E-01 0.10488808E+03</pdfrwt>
<pdfrwt beam="2">  1       -1 0.13031178E-01 0.10488808E+03</pdfrwt>
<totfact> 0.61551105E+03</totfact>
</mgrwt>
</event>
<event>
 8    1  0.3400573E-004  0.9247659E+02  0.7546771E-02  0.1297028E+00
          2   -1    0    0  501    0  0.00000000000E+00  0.00000000000E+00  0.23746760419E+02  0.23746760419E+02  0.00000000000E+00 0. -1.
         -2   -1    0    0    0  501 -0.00000000000E+00 -0.00000000000E+00 -0.48660874861E+03  0.48660874861E+03  0.00000000000E+00 0.  1.
         23    2    1    2    0    0  0.16481464473E+01  0.82359042229E+01 -0.36185335733E+03  0.37348329427E+03  0.92094366739E+02 0.  0.
         23    2    1    2    0    0 -0.16481464473E+01 -0.82359042229E+01 -0.10100863086E+03  0.13687221476E+03  0.91982134998E+02 0.  0.
          5    1    3    3  502    0  0.35939267214E+02  0.21471940570E+02 -0.28573775762E+03  0.28882664574E+03  0.47000000000E+01 0. -1.
         -5    1    4    4    0  503  0.40684446328E+02 -0.17122488484E+02 -0.71981342471E+02  0.84568359620E+02  0.47000000000E+01 0.  1.
          5    1    4    4  503    0 -0.42332592775E+02  0.88865842610E+01 -0.29027288391E+02  0.52303855137E+02  0.47000000000E+01 0. -1.
         -5    1    3    3    0  502 -0.34291120767E+02 -0.13236036347E+02 -0.76115599707E+02  0.84656648530E+02  0.47000000000E+01 0.  1.
<mgrwt>
<rscale>  0 0.92448631E+02</rscale>
<asrwt>0</asrwt>
<pdfrwt beam="1">  1        2 0.36533482E-02 0.92476586E+02</pdfrwt>
<pdfrwt beam="2">  1       -2 0.74862874E-01 0.92476586E+02</pdfrwt>
<totfact> 0.36388811E+03</totfact>
</mgrwt>
</event>
<event>
 8    1  0.3400573E-004  0.1036436E+03  0.7546771E-02  0.1277667E+00
         -1   -1    0    0    0  501 -0.00000000000E+00  0.00000000000E+00  0.59092473365E+03  0.59092473365E+03  0.00000000000E+00 0.  1.
          1   -1    0    0  501    0  0.00000000000E+00 -0.00000000000E+00 -0.18487327917E+02  0.18487327917E+02  0.00000000000E+00 0. -1.
         23    2    1    2    0    0  0.22738614107E+02 -0.54918558829E+01  0.17698831374E+03  0.20060650201E+03  0.91492624832E+02 0.  0.
         23    2    1    2    0    0 -0.22738614107E+02  0.54918558829E+01  0.39544909200E+03  0.40880555955E+03  0.10096928299E+03 0.  0.
          5    1    3    3  502    0 -0.25564785544E+02 -0.29966588037E+02  0.65538745551E+02  0.76609215025E+02  0.47000000000E+01 0. -1.
         -5    1    4    4    0  503  0.28318221935E+02  0.12786495779E+02  0.28600957098E+03  0.28773074368E+03  0.47000000000E+01 0.  1.
          5    1    4    4  503    0 -0.51056836042E+02 -0.72946398959E+01  0.10943952102E+03  0.12107481588E+03  0.47000000000E+01 0. -1.
         -5    1    3    3    0  502  0.48303399651E+02  0.24474732154E+02  0.11144956819E+03  0.12399728699E+03  0.47000000000E+01 0.  1.
<mgrwt>
<rscale>  0 0.10126072E+03</rscale>
<asrwt>0</asrwt>
<pdfrwt beam="1">  1        1 0.28442047E-02 0.10364363E+03</pdfrwt>
<pdfrwt beam="2">  1       -1 0.90911483E-01 0.10364363E+03</pdfrwt>
<totfact> 0.42868407E+03</totfact>
</mgrwt>
</event>
<event>
 8    1  0.3400573E-004  0.1127459E+03  0.7546771E-02  0.1256375E+00
          1   -1    0    0  501    0  0.00000000000E+00  0.00000000000E+00  0.88353877935E+02  0.88353877935E+02  0.00000000000E+00 0. -1.
         -1   -1    0    0    0  501 -0.00000000000E+00 -0.00000000000E+00 -0.15656391956E+03  0.15656391956E+03  0.00000000000E+00 0.  1.
         23    2    1    2    0    0  0.49202358297E+02 -0.39519872374E+02  0.35044213583E+01  0.11280035594E+03  0.93428833652E+02 0.  0.
         23    2    1    2    0    0 -0.49202358297E+02  0.39519872374E+02 -0.71714462983E+02  0.13211744155E+03  0.91265337269E+02 0.  0.
          5    1    4    4  502    0 -0.55112497413E+02 -0.13428744232E+02 -0.30359955389E+02  0.64509963835E+02  0.47000000000E+01 0. -1.
         -5    1    4    4    0  502  0.59101391163E+01  0.52948616606E+02 -0.41354507594E+02  0.67607477717E+02  0.47000000000E+01 0.  1.
          5    1    3    3  503    0 -0.13259168655E+02 -0.17293649834E+02  0.33210941486E+02  0.39999156396E+02  0.47000000000E+01 0. -1.
         -5    1    3    3    0  503  0.62461526952E+02 -0.22226222540E+02 -0.29706520128E+02  0.72801199548E+02  0.47000000000E+01 0.  1.
<mgrwt>
<rscale>  0 0.11229668E+03</rscale>
<asrwt>0</asrwt>
<pdfrwt beam="1">  1        1 0.13592904E-01 0.11274591E+03</pdfrwt>
<pdfrwt beam="2">  1       -1 0.24086757E-01 0.11274591E+03</pdfrwt>
<totfact> 0.59032754E+03</totfact>
</mgrwt>
</event>
<event>
 8    1  0.3400573E-004  0.9676619E+02  0.7546771E-02  0.1296450E+00
         -1   -1    0    0    0  501 -0.00000000000E+00  0.00000000000E+00  0.37959739184E+02  0.37959739184E+02  0.00000000000E+00 0.  1.
          1   -1    0    0  501    0  0.00000000000E+00 -0.00000000000E+00 -0.39430421231E+03  0.39430421231E+03  0.00000000000E+00 0. -1.
         23    2    1    2    0    0  0.10636496906E+02 -0.29902831704E+02 -0.33405015952E+03  0.34778327231E+03  0.91413243078E+02 0.  0.
         23    2    1    2    0    0 -0.10636496906E+02  0.29902831704E+02 -0.22294313601E+02  0.84480679183E+02  0.75050878249E+02 0.  0.
          5    1    3    3  502    0  0.26559816670E+02  0.26266007680E+02 -0.11309796098E+03  0.11919968875E+03  0.47000000000E+01 0. -1.
         -5    1    3    3    0  502 -0.15923319764E+02 -0.56168839384E+02 -0.22095219855E+03  0.22858358356E+03  0.47000000000E+01 0.  1.
          5    1    4    4  503    0  0.12640086055E+02  0.40988688655E+02 -0.34808257401E+02  0.55439599173E+02  0.47000000000E+01 0. -1.
         -5    1    4    4    0  503 -0.23276582961E+02 -0.11085856952E+02  0.12513943800E+02  0.29041080010E+02  0.47000000000E+01 0.  1.
<mgrwt>
<rscale>  0 0.92696497E+02</rscale>
<asrwt>0</asrwt>
<pdfrwt beam="1">  1        1 0.60662189E-01 0.96766189E+02</pdfrwt>
<pdfrwt beam="2">  1       -1 0.58399596E-02 0.96766189E+02</pdfrwt>
<totfact> 0.79870284E+03</totfact>
</mgrwt>
</event>
<event>
 8    1  0.3400573E-004  0.9174464E+02  0.7546771E-02  0.1300449E+00
          1   -1    0    0  501    0  0.00000000000E+00  0.00000000000E+00  0.26159972983E+02  0.26159972983E+02  0.00000000000E+00 0. -1.
         -1   -1    0    0    0  501 -0.00000000000E+00 -0.00000000000E+00 -0.45776534794E+03  0.45776534794E+03  0.00000000000E+00 0.  1.
         23    2    1    2    0    0 -0.20285793920E+01 -0.95092886777E+01 -0.35495073124E+03  0.36661573844E+03  0.91227936281E+02 0.  0.
         23    2    1    2    0    0  0.20285793920E+01  0.95092886777E+01 -0.76654643720E+02  0.11730958249E+03  0.88266992889E+02 0.  0.
          5    1    4    4  502    0  0.25287374425E+02  0.64762244926E+01  0.92858642975E+01  0.28101780455E+02  0.47000000000E+01 0. -1.
         -5    1    3    3    0  503 -0.20012389881E+02 -0.31114361096E+02 -0.31683816557E+03  0.31902525351E+03  0.47000000000E+01 0.  1.
          5    1    3    3  503    0  0.17983810489E+02  0.21605072418E+02 -0.38112565670E+02  0.47590484930E+02  0.47000000000E+01 0. -1.
         -5    1    4    4    0  502 -0.23258795033E+02  0.30330641851E+01 -0.85940508018E+02  0.89207802031E+02  0.47000000000E+01 0.  1.
<mgrwt>
<rscale>  0 0.90999682E+02</rscale>
<asrwt>0</asrwt>
<pdfrwt beam="1">  1        1 0.40246115E-02 0.91744635E+02</pdfrwt>
<pdfrwt beam="2">  1       -1 0.70425434E-01 0.91744635E+02</pdfrwt>
<totfact> 0.44366656E+03</totfact>
</mgrwt>
</event>
<event>
 8    1  0.3400573E-004  0.1023371E+03  0.7546771E-02  0.1277682E+00
         -2   -1    0    0    0  501 -0.00000000000E+00  0.00000000000E+00  0.26068292647E+02  0.26068292647E+02  0.00000000000E+00 0.  1.
          2   -1    0    0  501    0  0.00000000000E+00 -0.00000000000E+00 -0.54262260485E+03  0.54262260485E+03  0.00000000000E+00 0. -1.
         23    2    1    2    0    0  0.38165561036E+02 -0.23787126951E+02 -0.40751625791E+03  0.41915102051E+03  0.87152969437E+02 0.  0.
         23    2    1    2    0    0 -0.38165561036E+02  0.23787126951E+02 -0.10903805430E+03  0.14953987698E+03  0.91926275166E+02 0.  0.
          5    1    3    3  502    0 -0.45457573938E+01 -0.48132745401E+02 -0.19214288134E+03  0.19818779463E+03  0.47000000000E+01 0. -1.
         -5    1    4    4    0  503 -0.56634022912E+02 -0.10340754266E+01 -0.29437065916E+02  0.64008692480E+02  0.47000000000E+01 0.  1.
          5    1    4    4  503    0  0.18468461876E+02  0.24821202377E+02 -0.79600988382E+02  0.85531184505E+02  0.47000000000E+01 0. -1.
         -5    1    3    3    0  502  0.42711318430E+02  0.24345618451E+02 -0.21537337657E+03  0.22096322589E+03  0.47000000000E+01 0.  1.
<mgrwt>
<rscale>  0 0.10125367E+03</rscale>
<asrwt>0</asrwt>
<pdfrwt beam="1">  1        2 0.83480404E-01 0.10233708E+03</pdfrwt>
<pdfrwt beam="2">  1       -2 0.40105064E-02 0.10233708E+03</pdfrwt>
<totfact> 0.14367886E+04</totfact>
</mgrwt>
</event>
<event>
 7    1  0.3400573E-004  0.1351248E+03  0.7546771E-02  0.1238746E+00
          2   -1    0    0  501    0  0.00000000000E+00  0.00000000000E+00  0.49420415516E+03  0.49420415516E+03  0.00000000000E+00 0. -1.
         -2   -1    0    0    0  501 -0.00000000000E+00 -0.00000000000E+00 -0.36162108014E+03  0.36162108014E+03  0.00000000000E+00 0.  1.
         23    2    1    2    0    0  0.76782176650E+01 -0.87317540177E+01  0.47705063618E+03  0.48580280050E+03  0.91059612043E+02 0.  0.
          5    1    1    2  502    0  0.28811475655E+02 -0.47258915507E+02 -0.23667301263E+03  0.24310432150E+03  0.47000000000E+01 0. -1.
         -5    1    1    2    0  502 -0.36489693320E+02  0.55990669525E+02 -0.10779454852E+03  0.12691811330E+03  0.47000000000E+01 0.  1.
          5    1    3    3  503    0  0.40287103377E+02 -0.31734308251E+02  0.28011223835E+03  0.28480708048E+03  0.47000000000E+01 0. -1.
         -5    1    3    3    0  503 -0.32608885712E+02  0.23002554234E+02  0.19693839782E+03  0.20099572002E+03  0.47000000000E+01 0.  1.
<mgrwt>
<rscale>  0 0.12267630E+03</rscale>
<asrwt>0</asrwt>
<pdfrwt beam="1">  1        2 0.76031408E-01 0.13512476E+03</pdfrwt>
<pdfrwt beam="2">  1       -2 0.55634012E-01 0.13512476E+03</pdfrwt>
<totfact> 0.19991676E+02</totfact>
</mgrwt>
</event>
<event>
 8    1  0.3400573E-004  0.9420786E+02  0.7546771E-02  0.1294300E+00
         -1   -1    0    0    0  501 -0.00000000000E+00  0.00000000000E+00  0.54229327137E+02  0.54229327137E+02  0.00000000000E+00 0.  1.
          1   -1    0    0  501    0  0.00000000000E+00 -0.00000000000E+00 -0.15968196271E+03  0.15968196271E+03  0.00000000000E+00 0. -1.
         23    2    1    2    0    0  0.24626398904E+02  0.17770727953E+02 -0.52283463046E+02  0.10573513273E+03  0.86741567264E+02 0.  0.
         23    2    1    2    0    0 -0.24626398904E+02 -0.17770727953E+02 -0.53169172522E+02  0.10817615711E+03  0.89178819038E+02 0.  0.
          5    1    3    3  502    0 -0.10611499909E+02  0.42543187417E+02 -0.10051558879E+02  0.45228868677E+02  0.47000000000E+01 0. -1.
         -5    1    3    3    0  502  0.35237898812E+02 -0.24772459465E+02 -0.42231904167E+02  0.60506264057E+02  0.47000000000E+01 0.  1.
          5    1    4    4  503    0 -0.54792675626E+02 -0.25585878450E+02 -0.45272462557E+02  0.75687253513E+02  0.47000000000E+01 0. -1.
         -5    1    4    4    0  503  0.30166276722E+02  0.78151504973E+01 -0.78967099647E+01  0.32488903595E+02  0.47000000000E+01 0.  1.
<mgrwt>
<rscale>  0 0.93626551E+02</rscale>
<asrwt>0</asrwt>
<pdfrwt beam="1">  1        1 0.24566456E-01 0.94207856E+02</pdfrwt>
<pdfrwt beam="2">  1       -1 0.83429733E-02 0.94207856E+02</pdfrwt>
<totfact> 0.14247718E+04</totfact>
</mgrwt>
</event>
<event>
 8    1  0.3400573E-004  0.1326550E+03  0.7546771E-02  0.1224069E+00
         -2   -1    0    0    0  501 -0.00000000000E+00  0.00000000000E+00  0.25378008622E+02  0.25378008622E+02  0.00000000000E+00 0.  1.
          2   -1    0    0  501    0  0.00000000000E+00 -0.00000000000E+00 -0.83521971982E+03  0.83521971982E+03  0.00000000000E+00 0. -1.
         23    2    1    2    0    0  0.29101024355E+01 -0.94755760393E+02 -0.58840019935E+03  0.60316842509E+03  0.92791333673E+02 0.  0.
         23    2    1    2    0    0 -0.29101024355E+01  0.94755760393E+02 -0.22144151184E+03  0.25742930335E+03  0.90809582266E+02 0.  0.
          5    1    3    3  502    0  0.28717854897E+02 -0.50051172940E+02 -0.47462054138E+03  0.47813866546E+03  0.47000000000E+01 0. -1.
         -5    1    4    4    0  503 -0.30470486102E+02  0.78817276144E+02 -0.20392283780E+03  0.22078774268E+03  0.47000000000E+01 0.  1.
          5    1    4    4  503    0  0.27560383667E+02  0.15938484250E+02 -0.17518674047E+02  0.36641560671E+02  0.47000000000E+01 0. -1.
         -5    1    3    3    0  502 -0.25807752462E+02 -0.44704587453E+02 -0.11377965797E+03  0.12502975964E+03  0.47000000000E+01 0.  1.
<mgrwt>
<rscale>  0 0.13230902E+03</rscale>
<asrwt>0</asrwt>
<pdfrwt beam="1">  1        2 0.12849534E+00 0.13265502E+03</pdfrwt>
<pdfrwt beam="2">  1       -2 0.39043091E-02 0.13265502E+03</pdfrwt>
<totfact> 0.91910853E+03</totfact>
</mgrwt>
</event>
<event>
 8    1  0.3400573E-004  0.9412914E+02  0.7546771E-02  0.1294811E+00
          1   -1    0    0  501    0  0.00000000000E+00  0.00000000000E+00  0.42859905822E+03  0.42859905822E+03  0.00000000000E+00 0. -1.
         -1   -1    0    0    0  501 -0.00000000000E+00 -0.00000000000E+00 -0.24285119169E+02  0.24285119169E+02  0.00000000000E+00 0.  1.
         23    2    1    2    0    0 -0.15484586983E+02  0.12617306938E+02  0.29415194143E+03  0.30798434642E+03  0.89050682894E+02 0.  0.
         23    2    1    2    0    0  0.15484586983E+02 -0.12617306938E+02  0.11016199762E+03  0.14489983097E+03  0.91985468564E+02 0.  0.
          5    1    3    3  502    0 -0.35675829869E+02  0.40162558882E+02  0.21483059392E+03  0.22149507908E+03  0.47000000000E+01 0. -1.
         -5    1    3    3    0  502  0.20191242886E+02 -0.27545251945E+02  0.79321347504E+02  0.86489267334E+02  0.47000000000E+01 0.  1.
          5    1    4    4  503    0 -0.30440952274E+02  0.13575039918E+02  0.17075159765E+02  0.37743666556E+02  0.47000000000E+01 0. -1.
         -5    1    4    4    0  503  0.45925539257E+02 -0.26192346855E+02  0.93086837856E+02  0.10715616441E+03  0.47000000000E+01 0.  1.
<mgrwt>
<rscale>  0 0.93404357E+02</rscale>
<asrwt>0</asrwt>
<pdfrwt beam="1">  1        1 0.65938311E-01 0.94129142E+02</pdfrwt>
<pdfrwt beam="2">  1       -1 0.37361725E-02 0.94129142E+02</pdfrwt>
<totfact> 0.13796548E+04</totfact>
</mgrwt>
</event>
<event>
 8    1  0.3400573E-004  0.9381847E+02  0.7546771E-02  0.1294123E+00
          1   -1    0    0  501    0  0.00000000000E+00  0.00000000000E+00  0.23999229010E+03  0.23999229010E+03  0.00000000000E+00 0. -1.
         -1   -1    0    0    0  501 -0.00000000000E+00 -0.00000000000E+00 -0.37278729939E+02  0.37278729939E+02  0.00000000000E+00 0.  1.
         23    2    1    2    0    0 -0.26857683534E+02  0.58527772510E+01  0.12119096185E+03  0.15298167905E+03  0.89221940818E+02 0.  0.
         23    2    1    2    0    0  0.26857683534E+02 -0.58527772510E+01  0.81522598314E+02  0.12428934100E+03  0.89701260207E+02 0.  0.
          5    1    3    3  502    0 -0.39762121900E+02 -0.31805111995E+02  0.83780412381E+02  0.98152121657E+02  0.47000000000E+01 0. -1.
         -5    1    4    4    0  503  0.39668695562E+02  0.21051139994E+02  0.82564114964E+02  0.94104617222E+02  0.47000000000E+01 0.  1.
          5    1    4    4  503    0 -0.12811012028E+02 -0.26903917245E+02 -0.10415166506E+01  0.30184723773E+02  0.47000000000E+01 0. -1.
         -5    1    3    3    0  502  0.12904438366E+02  0.37657889246E+02  0.37410549471E+02  0.54829557391E+02  0.47000000000E+01 0.  1.
<mgrwt>
<rscale>  0 0.93703720E+02</rscale>
<asrwt>0</asrwt>
<pdfrwt beam="1">  1        1 0.36921890E-01 0.93818475E+02</pdfrwt>
<pdfrwt beam="2">  1       -1 0.57351894E-02 0.93818475E+02</pdfrwt>
<totfact> 0.15046000E+04</totfact>
</mgrwt>
</event>
<event>
 8    1  0.3400573E-004  0.1981970E+03  0.7546771E-02  0.1153452E+00
         -1   -1    0    0    0  501 -0.00000000000E+00  0.00000000000E+00  0.86995194144E+02  0.86995194144E+02  0.00000000000E+00 0.  1.
          1   -1    0    0  501    0  0.00000000000E+00 -0.00000000000E+00 -0.47050470674E+03  0.47050470674E+03  0.00000000000E+00 0. -1.
         23    2    1    2    0    0  0.90645830832E+02  0.13684642851E+03 -0.11365456223E+03  0.22847190115E+03  0.11107852383E+03 0.  0.
         23    2    1    2    0    0 -0.90645830832E+02 -0.13684642851E+03 -0.26985495037E+03  0.32902799974E+03  0.92163543370E+02 0.  0.
          5    1    4    4  502    0 -0.26569796770E+01 -0.31282898363E+02 -0.12635517561E+03  0.13028200058E+03  0.47000000000E+01 0. -1.
         -5    1    4    4    0  502 -0.87988851155E+02 -0.10556353015E+03 -0.14349977476E+03  0.19874599916E+03  0.47000000000E+01 0.  1.
          5    1    3    3  503    0  0.70801760170E+02  0.15273981645E+03 -0.81178799475E+02  0.18696103406E+03  0.47000000000E+01 0. -1.
         -5    1    3    3    0  503  0.19844070662E+02 -0.15893387937E+02 -0.32475762750E+02  0.41510867092E+02  0.47000000000E+01 0.  1.
<mgrwt>
<rscale>  0 0.19566180E+03</rscale>
<asrwt>0</asrwt>
<pdfrwt beam="1">  1        1 0.72385339E-01 0.19819700E+03</pdfrwt>
<pdfrwt beam="2">  1       -1 0.13383876E-01 0.19819700E+03</pdfrwt>
<totfact> 0.18734153E+03</totfact>
</mgrwt>
</event>
<event>
 8    1  0.3400573E-004  0.1015124E+03  0.7546771E-02  0.1277864E+00
          1   -1    0    0  501    0  0.00000000000E+00  0.00000000000E+00  0.28691404994E+02  0.28691404994E+02  0.00000000000E+00 0. -1.
         -1   -1    0    0    0  501 -0.00000000000E+00 -0.00000000000E+00 -0.35429814407E+03  0.35429814407E+03  0.00000000000E+00 0.  1.
         23    2    1    2    0    0 -0.69980108673E+01 -0.42109184915E+02 -0.16067641586E+03  0.18932289201E+03  0.90576438513E+02 0.  0.
         23    2    1    2    0    0  0.69980108673E+01  0.42109184915E+02 -0.16493032321E+03  0.19366665705E+03  0.92101069098E+02 0.  0.
          5    1    3    3  502    0  0.10299940487E+02 -0.18070787017E+02  0.42066125608E+01  0.21735402151E+02  0.47000000000E+01 0. -1.
         -5    1    3    3    0  502 -0.17297951354E+02 -0.24038397898E+02 -0.16488302842E+03  0.16758748986E+03  0.47000000000E+01 0.  1.
          5    1    4    4  503    0  0.28506595585E+02  0.51632535644E+02 -0.53774650301E+02  0.79952159095E+02  0.47000000000E+01 0. -1.
         -5    1    4    4    0  503 -0.21508584718E+02 -0.95233507290E+01 -0.11115567291E+03  0.11371449796E+03  0.47000000000E+01 0.  1.
<mgrwt>
<rscale>  0 0.10116529E+03</rscale>
<asrwt>0</asrwt>
<pdfrwt beam="1">  1        1 0.44140621E-02 0.10151238E+03</pdfrwt>
<pdfrwt beam="2">  1       -1 0.54507410E-01 0.10151238E+03</pdfrwt>
<totfact> 0.64161290E+03</totfact>
</mgrwt>
</event>
<event>
 8    1  0.3400573E-004  0.1142881E+03  0.7546771E-02  0.1254234E+00
         -2   -1    0    0    0  501 -0.00000000000E+00  0.00000000000E+00  0.11600177994E+02  0.11600177994E+02  0.00000000000E+00 0.  1.
          2   -1    0    0  501    0  0.00000000000E+00 -0.00000000000E+00 -0.12401582560E+04  0.12401582560E+04  0.00000000000E+00 0. -1.
         23    2    1    2    0    0  0.54216792534E+02  0.43556961858E+02 -0.40789842096E+03  0.42360700045E+03  0.90692334210E+02 0.  0.
         23    2    1    2    0    0 -0.54216792534E+02 -0.43556961858E+02 -0.82065965701E+03  0.82815143351E+03  0.86694029027E+02 0.  0.
          5    1    3    3  502    0  0.74165614812E+02  0.53160831364E+02 -0.33821500785E+03  0.35033996910E+03  0.47000000000E+01 0. -1.
         -5    1    4    4    0  503  0.19115104114E+02  0.78172991565E+01 -0.13417531724E+03  0.13583667814E+03  0.47000000000E+01 0.  1.
          5    1    4    4  503    0 -0.73331896648E+02 -0.51374261015E+02 -0.68648433977E+03  0.69231475538E+03  0.47000000000E+01 0. -1.
         -5    1    3    3    0  502 -0.19948822278E+02 -0.96038695054E+01 -0.69683413110E+02  0.73267031347E+02  0.47000000000E+01 0.  1.
<mgrwt>
<rscale>  0 0.11349330E+03</rscale>
<asrwt>0</asrwt>
<pdfrwt beam="1">  1        2 0.19079343E+00 0.11428810E+03</pdfrwt>
<pdfrwt beam="2">  1       -2 0.17846442E-02 0.11428810E+03</pdfrwt>
<totfact> 0.16490132E+04</totfact>
</mgrwt>
</event>
<event>
 8    1  0.3400573E-004  0.1391125E+03  0.7546771E-02  0.1218513E+00
         -2   -1    0    0    0  501 -0.00000000000E+00  0.00000000000E+00  0.15309587555E+02  0.15309587555E+02  0.00000000000E+00 0.  1.
          2   -1    0    0  501    0  0.00000000000E+00 -0.00000000000E+00 -0.11679709418E+04  0.11679709418E+04  0.00000000000E+00 0. -1.
         23    2    1    2    0    0 -0.17893846756E+01  0.10455086252E+03 -0.58623758464E+03  0.60002399819E+03  0.73622061994E+02 0.  0.
         23    2    1    2    0    0  0.17893846756E+01 -0.10455086252E+03 -0.56642376964E+03  0.58325653120E+03  0.91750801734E+02 0.  0.
          5    1    3    3  502    0  0.14285200919E+02  0.73497021502E+02 -0.51597813643E+03  0.52140330494E+03  0.47000000000E+01 0. -1.
         -5    1    4    4    0  503  0.31448133464E+02 -0.10131550157E+03 -0.38679418197E+03  0.40110552871E+03  0.47000000000E+01 0.  1.
          5    1    4    4  503    0 -0.29658748789E+02 -0.32353609530E+01 -0.17962958767E+03  0.18215100249E+03  0.47000000000E+01 0. -1.
         -5    1    3    3    0  502 -0.16074585595E+02  0.31053841016E+02 -0.70259448213E+02  0.78620693250E+02  0.47000000000E+01 0.  1.
<mgrwt>
<rscale>  0 0.13621616E+03</rscale>
<asrwt>0</asrwt>
<pdfrwt beam="1">  1        2 0.17968785E+00 0.13911252E+03</pdfrwt>
<pdfrwt beam="2">  1       -2 0.23553210E-02 0.13911252E+03</pdfrwt>
<totfact> 0.12230590E+04</totfact>
</mgrwt>
</event>
<event>
 8    1  0.3400573E-004  0.3751241E+03  0.7546771E-02  0.1052757E+00
          1   -1    0    0  501    0  0.00000000000E+00  0.00000000000E+00  0.60684195108E+03  0.60684195108E+03  0.00000000000E+00 0. -1.
         -1   -1    0    0    0  501 -0.00000000000E+00 -0.00000000000E+00 -0.23220421554E+03  0.23220421554E+03  0.00000000000E+00 0.  1.
         23    2    1    2    0    0  0.12930734310E+03 -0.33967014794E+03  0.20389595781E+03  0.42695625969E+03  0.92854120476E+02 0.  0.
         23    2    1    2    0    0 -0.12930734310E+03  0.33967014794E+03  0.17074177773E+03  0.41208990693E+03  0.92569640524E+02 0.  0.
          5    1    4    4  502    0 -0.50443100672E+02  0.39141380435E+02  0.35392676567E+02  0.73152481997E+02  0.47000000000E+01 0. -1.
         -5    1    3    3    0  503  0.79940891282E+02 -0.93493170189E+02  0.53330922538E+02  0.13415586558E+03  0.47000000000E+01 0.  1.
          5    1    3    3  503    0  0.49366451822E+02 -0.24617697775E+03  0.15056503527E+03  0.29280039411E+03  0.47000000000E+01 0. -1.
         -5    1    4    4    0  502 -0.78864242432E+02  0.30052876751E+03  0.13534910116E+03  0.33893742493E+03  0.47000000000E+01 0.  1.
<mgrwt>
<rscale>  0 0.37510651E+03</rscale>
<asrwt>0</asrwt>
<pdfrwt beam="1">  1        1 0.93360300E-01 0.37512409E+03</pdfrwt>
<pdfrwt beam="2">  1       -1 0.35723726E-01 0.37512409E+03</pdfrwt>
<totfact> 0.26083765E+02</totfact>
</mgrwt>
</event>
<event>
 8    1  0.3400573E-004  0.1032946E+03  0.7546771E-02  0.1274151E+00
          2   -1    0    0  501    0  0.00000000000E+00  0.00000000000E+00  0.42680942995E+03  0.42680942995E+03  0.00000000000E+00 0. -1.
         -2   -1    0    0    0  501 -0.00000000000E+00 -0.00000000000E+00 -0.49756078576E+02  0.49756078576E+02  0.00000000000E+00 0.  1.
         23    2    1    2    0    0 -0.33207758068E+02 -0.27646050819E+02  0.18854238083E+02  0.10377016286E+03  0.92442982886E+02 0.  0.
         23    2    1    2    0    0  0.33207758068E+02  0.27646050819E+02  0.35819911329E+03  0.37279534567E+03  0.93822735326E+02 0.  0.
          5    1    4    4  502    0  0.52876761821E+02 -0.10633155838E+02  0.25839790670E+03  0.26400868192E+03  0.47000000000E+01 0. -1.
         -5    1    3    3    0  503 -0.22117413523E+01  0.23629426534E+02 -0.20684424619E+02  0.31830441718E+02  0.47000000000E+01 0.  1.
          5    1    3    3  503    0 -0.30996016716E+02 -0.51275477353E+02  0.39538662702E+02  0.71939721144E+02  0.47000000000E+01 0. -1.
         -5    1    4    4    0  502 -0.19669003752E+02  0.38279206657E+02  0.99801206599E+02  0.10878666375E+03  0.47000000000E+01 0.  1.
<mgrwt>
<rscale>  0 0.10298022E+03</rscale>
<asrwt>0</asrwt>
<pdfrwt beam="1">  1        2 0.65662987E-01 0.10329455E+03</pdfrwt>
<pdfrwt beam="2">  1       -2 0.76547816E-02 0.10329455E+03</pdfrwt>
<totfact> 0.70691378E+03</totfact>
</mgrwt>
</event>
<event>
 8    1  0.3400573E-004  0.1031227E+03  0.7546771E-02  0.1273965E+00
          1   -1    0    0  501    0  0.00000000000E+00  0.00000000000E+00  0.34120334633E+02  0.34120334633E+02  0.00000000000E+00 0. -1.
         -1   -1    0    0    0  501 -0.00000000000E+00 -0.00000000000E+00 -0.45542150029E+03  0.45542150029E+03  0.00000000000E+00 0.  1.
         23    2    1    2    0    0 -0.19534381686E+02 -0.44795766211E+02 -0.34859859825E+03  0.36353167179E+03  0.90807714179E+02 0.  0.
         23    2    1    2    0    0  0.19534381686E+02  0.44795766211E+02 -0.72702567405E+02  0.12601016313E+03  0.90579496392E+02 0.  0.
          5    1    4    4  502    0  0.55276799586E+02  0.19188607433E+02 -0.41806042601E+02  0.72066375138E+02  0.47000000000E+01 0. -1.
         -5    1    3    3    0  503 -0.16647979971E+02 -0.66927593944E+02 -0.31765859607E+03  0.32509311239E+03  0.47000000000E+01 0.  1.
          5    1    3    3  503    0 -0.28864017155E+01  0.22131827733E+02 -0.30940002185E+02  0.38438559402E+02  0.47000000000E+01 0. -1.
         -5    1    4    4    0  502 -0.35742417899E+02  0.25607158779E+02 -0.30896524804E+02  0.53943787993E+02  0.47000000000E+01 0.  1.
<mgrwt>
<rscale>  0 0.10307245E+03</rscale>
<asrwt>0</asrwt>
<pdfrwt beam="1">  1        1 0.52492824E-02 0.10312271E+03</pdfrwt>
<pdfrwt beam="2">  1       -1 0.70064844E-01 0.10312271E+03</pdfrwt>
<totfact> 0.31511131E+03</totfact>
</mgrwt>
</event>
<event>
 8    1  0.3400573E-004  0.9503007E+02  0.7546771E-02  0.1291771E+00
          1   -1    0    0  501    0  0.00000000000E+00  0.00000000000E+00  0.80496052936E+03  0.80496052936E+03  0.00000000000E+00 0. -1.
         -1   -1    0    0    0  501 -0.00000000000E+00 -0.00000000000E+00 -0.11105137697E+02  0.11105137697E+02  0.00000000000E+00 0.  1.
         23    2    1    2    0    0  0.69122345005E+01 -0.22158840619E+02  0.41834639025E+03  0.42900398177E+03  0.92151619299E+02 0.  0.
         23    2    1    2    0    0 -0.69122345005E+01  0.22158840619E+02  0.37550900141E+03  0.38706168528E+03  0.90944735244E+02 0.  0.
          5    1    3    3  502    0 -0.68561064734E+01 -0.49728942416E+02  0.13785738897E+03  0.14678802269E+03  0.47000000000E+01 0. -1.
         -5    1    4    4    0  503  0.17708879439E+02  0.44946478689E+02  0.12202240287E+03  0.13132154111E+03  0.47000000000E+01 0.  1.
          5    1    4    4  503    0 -0.24621113940E+02 -0.22787638070E+02  0.25348659854E+03  0.25574014417E+03  0.47000000000E+01 0. -1.
         -5    1    3    3    0  502  0.13768340974E+02  0.27570101797E+02  0.28048900128E+03  0.28221595909E+03  0.47000000000E+01 0.  1.
<mgrwt>
<rscale>  0 0.94736244E+02</rscale>
<asrwt>0</asrwt>
<pdfrwt beam="1">  1        1 0.12384004E+00 0.95030070E+02</pdfrwt>
<pdfrwt beam="2">  1       -1 0.17084834E-02 0.95030070E+02</pdfrwt>
<totfact> 0.18179180E+04</totfact>
</mgrwt>
</event>
<event>
 8    1  0.1250877E-003  0.1067934E+03  0.7546771E-02  0.1266955E+00
          2   -1    0    0  501    0  0.00000000000E+00  0.00000000000E+00  0.72917413299E+03  0.72917413299E+03  0.00000000000E+00 0. -1.
         -2   -1    0    0    0  501 -0.00000000000E+00 -0.00000000000E+00 -0.18175458827E+03  0.18175458827E+03  0.00000000000E+00 0.  1.
         23    2    1    2    0    0 -0.55547695261E+02  0.19287456175E+00  0.70919139679E+03  0.71708608868E+03  0.90412596758E+02 0.  0.
         23    2    1    2    0    0  0.55547695261E+02 -0.19287456175E+00 -0.16177185207E+03  0.19384263257E+03  0.91209925082E+02 0.  0.
          5    1    4    4  502    0 -0.23125945577E+02 -0.11744996677E+02 -0.50929275140E+02  0.57346624766E+02  0.47000000000E+01 0. -1.
         -5    1    4    4    0  502  0.78673640839E+02  0.11552122116E+02 -0.11084257693E+03  0.13649600781E+03  0.47000000000E+01 0.  1.
          5    1    3    3  503    0 -0.75149271946E+02 -0.14374403805E+02  0.61118594471E+03  0.61597433840E+03  0.47000000000E+01 0. -1.
         -5    1    3    3    0  503  0.19601576685E+02  0.14567278367E+02  0.98005452082E+02  0.10111175028E+03  0.47000000000E+01 0.  1.
<mgrwt>
<rscale>  0 0.10662297E+03</rscale>
<asrwt>0</asrwt>
<pdfrwt beam="1">  1        2 0.11218063E+00 0.10679342E+03</pdfrwt>
<pdfrwt beam="2">  1       -2 0.27962245E-01 0.10679342E+03</pdfrwt>
<totfact> 0.47215038E+02</totfact>
</mgrwt>
</event>
<event>
 8    1  0.3400573E-004  0.9377698E+02  0.7546771E-02  0.1294887E+00
          1   -1    0    0  501    0  0.00000000000E+00  0.00000000000E+00  0.33215353361E+03  0.33215353361E+03  0.00000000000E+00 0. -1.
         -1   -1    0    0    0  501 -0.00000000000E+00 -0.00000000000E+00 -0.18048188811E+03  0.18048188811E+03  0.00000000000E+00 0.  1.
         23    2    1    2    0    0 -0.45855854053E+00  0.15536701691E+02 -0.16137762165E+03  0.18584196153E+03  0.90845465055E+02 0.  0.
         23    2    1    2    0    0  0.45855854053E+00 -0.15536701691E+02  0.31304926714E+03  0.32679346019E+03  0.92479849661E+02 0.  0.
          5    1    4    4  502    0 -0.86147823421E+01 -0.50684612481E+02  0.23476833767E+03  0.24037763371E+03  0.47000000000E+01 0. -1.
         -5    1    4    4    0  502  0.90733408827E+01  0.35147910790E+02  0.78280929465E+02  0.86415826476E+02  0.47000000000E+01 0.  1.
          5    1    3    3  503    0  0.18584744852E+02 -0.33198474986E+02 -0.83773416978E+02  0.92128208898E+02  0.47000000000E+01 0. -1.
         -5    1    3    3    0  503 -0.19043303392E+02  0.48735176677E+02 -0.77604204668E+02  0.93713752630E+02  0.47000000000E+01 0.  1.
<mgrwt>
<rscale>  0 0.93371513E+02</rscale>
<asrwt>0</asrwt>
<pdfrwt beam="1">  1        1 0.51100544E-01 0.93776980E+02</pdfrwt>
<pdfrwt beam="2">  1       -1 0.27766444E-01 0.93776980E+02</pdfrwt>
<totfact> 0.88924481E+02</totfact>
</mgrwt>
</event>
<event>
 8    1  0.3400573E-004  0.1318075E+03  0.7546771E-02  0.1225466E+00
         -1   -1    0    0    0  501 -0.00000000000E+00  0.00000000000E+00  0.15641584986E+03  0.15641584986E+03  0.00000000000E+00 0.  1.
          1   -1    0    0  501    0  0.00000000000E+00 -0.00000000000E+00 -0.32330517760E+03  0.32330517760E+03  0.00000000000E+00 0. -1.
         23    2    1    2    0    0  0.27911717050E+02  0.88731759518E+02  0.11139484906E+03  0.17257473822E+03  0.93385431303E+02 0.  0.
         23    2    1    2    0    0 -0.27911717050E+02 -0.88731759518E+02 -0.27828417680E+03  0.30714628925E+03  0.90798517867E+02 0.  0.
          5    1    4    4  502    0 -0.48432795206E+02 -0.93812598045E+02 -0.25078653292E+03  0.27214428948E+03  0.47000000000E+01 0. -1.
         -5    1    4    4    0  502  0.20521078156E+02  0.50808385268E+01 -0.27497643878E+02  0.35001999766E+02  0.47000000000E+01 0.  1.
          5    1    3    3  503    0  0.88478441201E+01  0.72672844925E+02  0.17642840306E+02  0.75451882343E+02  0.47000000000E+01 0. -1.
         -5    1    3    3    0  503  0.19063872930E+02  0.16058914593E+02  0.93752008750E+02  0.97122855877E+02  0.47000000000E+01 0.  1.
<mgrwt>
<rscale>  0 0.13135017E+03</rscale>
<asrwt>0</asrwt>
<pdfrwt beam="1">  1        1 0.49739257E-01 0.13180754E+03</pdfrwt>
<pdfrwt beam="2">  1       -1 0.24063977E-01 0.13180754E+03</pdfrwt>
<totfact> 0.11702203E+03</totfact>
</mgrwt>
</event>
<event>
 8    1  0.3400573E-004  0.1057586E+03  0.7546771E-02  0.1269773E+00
          3   -1    0    0  501    0  0.00000000000E+00  0.00000000000E+00  0.46126712429E+02  0.46126712429E+02  0.00000000000E+00 0. -1.
         -3   -1    0    0    0  501 -0.00000000000E+00 -0.00000000000E+00 -0.28218652131E+03  0.28218652131E+03  0.00000000000E+00 0.  1.
         23    2    1    2    0    0  0.49231010722E+02  0.64687263963E+01 -0.18465631370E+03  0.21279763916E+03  0.93377428757E+02 0.  0.
         23    2    1    2    0    0 -0.49231010722E+02 -0.64687263963E+01 -0.51403495175E+02  0.11551559458E+03  0.90752390810E+02 0.  0.
          5    1    3    3  502    0  0.24943051257E+02 -0.24760057765E+02 -0.16425318717E+03  0.16803694761E+03  0.47000000000E+01 0. -1.
         -5    1    4    4    0  503 -0.10571866476E+02  0.29329627053E+02 -0.54026072132E+02  0.62553160222E+02  0.47000000000E+01 0.  1.
          5    1    4    4  503    0 -0.38659144246E+02 -0.35798353449E+02  0.26225769567E+01  0.52962434361E+02  0.47000000000E+01 0. -1.
         -5    1    3    3    0  502  0.24287959465E+02  0.31228784161E+02 -0.20403126533E+02  0.44760691544E+02  0.47000000000E+01 0.  1.
<mgrwt>
<rscale>  0 0.10517621E+03</rscale>
<asrwt>0</asrwt>
<pdfrwt beam="1">  1        3 0.70964174E-02 0.10575860E+03</pdfrwt>
<pdfrwt beam="2">  1       -3 0.43413310E-01 0.10575860E+03</pdfrwt>
<totfact> 0.15096025E+03</totfact>
</mgrwt>
</event>
<event>
 8    1  0.3400573E-004  0.1060559E+03  0.7546771E-02  0.1274489E+00
          3   -1    0    0  501    0  0.00000000000E+00  0.00000000000E+00  0.19780240875E+03  0.19780240875E+03  0.00000000000E+00 0. -1.
         -3   -1    0    0    0  501 -0.00000000000E+00 -0.00000000000E+00 -0.61412848040E+02  0.61412848040E+02  0.00000000000E+00 0.  1.
         23    2    1    2    0    0 -0.33788271582E+02 -0.42435098669E+02  0.11948109082E+03  0.15181996630E+03  0.76362204053E+02 0.  0.
         23    2    1    2    0    0  0.33788271582E+02  0.42435098669E+02  0.16908469887E+02  0.10739529049E+03  0.91134335844E+02 0.  0.
          5    1    3    3  502    0 -0.10733071155E+02 -0.61336268273E+02  0.69494470749E+02  0.93428625629E+02  0.47000000000E+01 0. -1.
         -5    1    3    3    0  502 -0.23055200426E+02  0.18901169604E+02  0.49986620072E+02  0.58391340671E+02  0.47000000000E+01 0.  1.
          5    1    4    4  503    0  0.33586692870E+02 -0.18735434985E+02 -0.10585854170E+02  0.40165069034E+02  0.47000000000E+01 0. -1.
         -5    1    4    4    0  503  0.20157871167E+00  0.61170533654E+02  0.27494324058E+02  0.67230221455E+02  0.47000000000E+01 0.  1.
<mgrwt>
<rscale>  0 0.10281303E+03</rscale>
<asrwt>0</asrwt>
<pdfrwt beam="1">  1        3 0.30431140E-01 0.10605589E+03</pdfrwt>
<pdfrwt beam="2">  1       -3 0.94481306E-02 0.10605589E+03</pdfrwt>
<totfact> 0.18592646E+03</totfact>
</mgrwt>
</event>
<event>
 8    1  0.3400573E-004  0.9994928E+02  0.7546771E-02  0.1282418E+00
          1   -1    0    0  501    0  0.00000000000E+00  0.00000000000E+00  0.54663515473E+03  0.54663515473E+03  0.00000000000E+00 0. -1.
         -1   -1    0    0    0  501 -0.00000000000E+00 -0.00000000000E+00 -0.19120442919E+02  0.19120442919E+02  0.00000000000E+00 0.  1.
         23    2    1    2    0    0 -0.16127864271E+02  0.27588730293E+02  0.18852707602E+03  0.21338302819E+03  0.94702757519E+02 0.  0.
         23    2    1    2    0    0  0.16127864271E+02 -0.27588730293E+02  0.33898763579E+03  0.35237256945E+03  0.90733480276E+02 0.  0.
          5    1    3    3  502    0  0.29668590551E+02  0.38758124397E+02  0.12391969864E+03  0.13326889803E+03  0.47000000000E+01 0. -1.
         -5    1    3    3    0  502 -0.45796454822E+02 -0.11169394104E+02  0.64607377384E+02  0.80114130160E+02  0.47000000000E+01 0.  1.
          5    1    4    4  503    0  0.19965480474E+02 -0.59545920787E+02  0.24273055007E+03  0.25076791467E+03  0.47000000000E+01 0. -1.
         -5    1    4    4    0  503 -0.38376162027E+01  0.31957190494E+02  0.96257085719E+02  0.10160465478E+03  0.47000000000E+01 0.  1.
<mgrwt>
<rscale>  0 0.98997636E+02</rscale>
<asrwt>0</asrwt>
<pdfrwt beam="1">  1        1 0.84097704E-01 0.99949279E+02</pdfrwt>
<pdfrwt beam="2">  1       -1 0.29416070E-02 0.99949279E+02</pdfrwt>
<totfact> 0.14353811E+04</totfact>
</mgrwt>
</event>
<event>
 8    1  0.3400573E-004  0.9438387E+02  0.7546771E-02  0.1294448E+00
          1   -1    0    0  501    0  0.00000000000E+00  0.00000000000E+00  0.13913331196E+02  0.13913331196E+02  0.00000000000E+00 0. -1.
         -1   -1    0    0    0  501 -0.00000000000E+00 -0.00000000000E+00 -0.61906549050E+03  0.61906549050E+03  0.00000000000E+00 0.  1.
         23    2    1    2    0    0 -0.74890909107E+01 -0.15714461799E+02 -0.28734465412E+03  0.30145216426E+03  0.89461870605E+02 0.  0.
         23    2    1    2    0    0  0.74890909107E+01  0.15714461799E+02 -0.31780750518E+03  0.33152665743E+03  0.92764667022E+02 0.  0.
          5    1    4    4  502    0 -0.25157379620E+02  0.42165963939E+02 -0.13059714873E+03  0.13960145959E+03  0.47000000000E+01 0. -1.
         -5    1    3    3    0  503  0.13117330708E+02 -0.41739880267E+02 -0.23643149632E+03  0.24049163067E+03  0.47000000000E+01 0.  1.
          5    1    3    3  503    0 -0.20606421619E+02  0.26025418468E+02 -0.50913157803E+02  0.60960533592E+02  0.47000000000E+01 0. -1.
         -5    1    4    4    0  502  0.32646470531E+02 -0.26451502140E+02 -0.18721035645E+03  0.19192519784E+03  0.47000000000E+01 0.  1.
<mgrwt>
<rscale>  0 0.93562173E+02</rscale>
<asrwt>0</asrwt>
<pdfrwt beam="1">  1        1 0.21405128E-02 0.94383866E+02</pdfrwt>
<pdfrwt beam="2">  1       -1 0.95240832E-01 0.94383866E+02</pdfrwt>
<totfact> 0.56998335E+03</totfact>
</mgrwt>
</event>
<event>
 8    1  0.3400573E-004  0.9888374E+02  0.7546771E-02  0.1283044E+00
         -1   -1    0    0    0  501 -0.00000000000E+00  0.00000000000E+00  0.49064330121E+03  0.49064330121E+03  0.00000000000E+00 0.  1.
          1   -1    0    0  501    0  0.00000000000E+00 -0.00000000000E+00 -0.25045724435E+02  0.25045724435E+02  0.00000000000E+00 0. -1.
         23    2    1    2    0    0  0.57469554866E+01 -0.34894348754E+02  0.11396190215E+03  0.15041427834E+03  0.91577818901E+02 0.  0.
         23    2    1    2    0    0 -0.57469554866E+01  0.34894348754E+02  0.35163567462E+03  0.36527474730E+03  0.92343653150E+02 0.  0.
          5    1    3    3  502    0 -0.32548027669E+02 -0.22526391455E+02  0.99847275448E+02  0.10750991039E+03  0.47000000000E+01 0. -1.
         -5    1    3    3    0  502  0.38294983155E+02 -0.12367957299E+02  0.14114626705E+02  0.42904367955E+02  0.47000000000E+01 0.  1.
          5    1    4    4  503    0 -0.26064873479E+02  0.58897700785E+02  0.19406629038E+03  0.20452904891E+03  0.47000000000E+01 0. -1.
         -5    1    4    4    0  503  0.20317917992E+02 -0.24003352030E+02  0.15756938424E+03  0.16074569839E+03  0.47000000000E+01 0.  1.
<mgrwt>
<rscale>  0 0.98704550E+02</rscale>
<asrwt>0</asrwt>
<pdfrwt beam="1">  1        1 0.38531888E-02 0.98883737E+02</pdfrwt>
<pdfrwt beam="2">  1       -1 0.75483577E-01 0.98883737E+02</pdfrwt>
<totfact> 0.41279518E+03</totfact>
</mgrwt>
</event>
<event>
 8    1  0.3400573E-004  0.9443609E+02  0.7546771E-02  0.1293436E+00
         -2   -1    0    0    0  501 -0.00000000000E+00  0.00000000000E+00  0.82869970088E+01  0.82869970088E+01  0.00000000000E+00 0.  1.
          2   -1    0    0  501    0  0.00000000000E+00 -0.00000000000E+00 -0.10702284723E+04  0.10702284723E+04  0.00000000000E+00 0. -1.
         23    2    1    2    0    0 -0.21379966681E+02  0.52806185275E+01 -0.58681910667E+03  0.59409887054E+03  0.90065621156E+02 0.  0.
         23    2    1    2    0    0  0.21379966681E+02 -0.52806185275E+01 -0.47512236859E+03  0.48441659874E+03  0.91832391304E+02 0.  0.
          5    1    3    3  502    0 -0.41807704881E+02  0.35501247736E+02 -0.39096742571E+03  0.39482380975E+03  0.47000000000E+01 0. -1.
         -5    1    4    4    0  503  0.53227662365E+02 -0.11110633300E+02 -0.19850437723E+03  0.20587060984E+03  0.47000000000E+01 0.  1.
          5    1    4    4  503    0 -0.31847695683E+02  0.58300147725E+01 -0.27661799136E+03  0.27854598891E+03  0.47000000000E+01 0. -1.
         -5    1    3    3    0  502  0.20427738200E+02 -0.30220629208E+02 -0.19585168096E+03  0.19927506079E+03  0.47000000000E+01 0.  1.
<mgrwt>
<rscale>  0 0.94003850E+02</rscale>
<asrwt>0</asrwt>
<pdfrwt beam="1">  1        2 0.16465047E+00 0.94436095E+02</pdfrwt>
<pdfrwt beam="2">  1       -2 0.12749231E-02 0.94436095E+02</pdfrwt>
<totfact> 0.32659713E+04</totfact>
</mgrwt>
</event>
<event>
 8    1  0.3400573E-004  0.1085706E+03  0.7546771E-02  0.1264476E+00
          2   -1    0    0  501    0  0.00000000000E+00  0.00000000000E+00  0.11339003799E+03  0.11339003799E+03  0.00000000000E+00 0. -1.
         -2   -1    0    0    0  501 -0.00000000000E+00 -0.00000000000E+00 -0.10451240908E+03  0.10451240908E+03  0.00000000000E+00 0.  1.
         23    2    1    2    0    0 -0.52564882910E+02 -0.12598516742E+02 -0.14033656984E+02  0.10947383928E+03  0.94158315721E+02 0.  0.
         23    2    1    2    0    0  0.52564882910E+02  0.12598516742E+02  0.22911285893E+02  0.10842860779E+03  0.91159456049E+02 0.  0.
          5    1    4    4  502    0  0.65950840576E+02 -0.17944909106E+02  0.28661440584E+02  0.74263728104E+02  0.47000000000E+01 0. -1.
         -5    1    3    3    0  503 -0.77647070988E+02  0.43202226730E+01 -0.11470562115E+02  0.78748941276E+02  0.47000000000E+01 0.  1.
          5    1    3    3  503    0  0.25082188078E+02 -0.16918739415E+02 -0.25630948688E+01  0.30724898006E+02  0.47000000000E+01 0. -1.
         -5    1    4    4    0  502 -0.13385957666E+02  0.30543425849E+02 -0.57501546916E+01  0.34164879689E+02  0.47000000000E+01 0.  1.
<mgrwt>
<rscale>  0 0.10791717E+03</rscale>
<asrwt>0</asrwt>
<pdfrwt beam="1">  1        2 0.17444621E-01 0.10857061E+03</pdfrwt>
<pdfrwt beam="2">  1       -2 0.16078832E-01 0.10857061E+03</pdfrwt>
<totfact> 0.91744653E+03</totfact>
</mgrwt>
</event>
<event>
 8    1  0.3400573E-004  0.1059674E+03  0.7546771E-02  0.1275022E+00
         -3   -1    0    0    0  501 -0.00000000000E+00  0.00000000000E+00  0.79180666564E+03  0.79180666564E+03  0.00000000000E+00 0.  1.
          3   -1    0    0  501    0  0.00000000000E+00 -0.00000000000E+00 -0.16013847911E+02  0.16013847911E+02  0.00000000000E+00 0. -1.
         23    2    1    2    0    0  0.99067940445E+01 -0.53814104332E+02  0.21861835476E+03  0.24294666302E+03  0.90746865736E+02 0.  0.
         23    2    1    2    0    0 -0.99067940445E+01  0.53814104332E+02  0.55717446297E+03  0.56487385053E+03  0.75133098144E+02 0.  0.
          5    1    4    4  502    0 -0.37561733627E+02  0.52656298845E+02  0.38337553222E+03  0.38882188511E+03  0.47000000000E+01 0.  1.
         -5    1    3    3    0  503  0.17761625558E+02  0.22034999340E+02  0.46568002408E+02  0.54696301399E+02  0.47000000000E+01 0.  1.
          5    1    3    3  503    0 -0.78548315135E+01 -0.75849103672E+02  0.17205035235E+03  0.18825036162E+03  0.47000000000E+01 0. -1.
         -5    1    4    4    0  502  0.27654939583E+02  0.11578054868E+01  0.17379893075E+03  0.17605196542E+03  0.47000000000E+01 0. -1.
<mgrwt>
<rscale>  0 0.10255050E+03</rscale>
<asrwt>0</asrwt>
<pdfrwt beam="1">  1        3 0.24636695E-02 0.10596743E+03</pdfrwt>
<pdfrwt beam="2">  1       -3 0.12181638E+00 0.10596743E+03</pdfrwt>
<totfact> 0.87611865E+02</totfact>
</mgrwt>
</event>
<event>
 8    1  0.3400573E-004  0.9489056E+02  0.7546771E-02  0.1292365E+00
          1   -1    0    0  501    0  0.00000000000E+00  0.00000000000E+00  0.74391125556E+03  0.74391125556E+03  0.00000000000E+00 0. -1.
         -1   -1    0    0    0  501 -0.00000000000E+00 -0.00000000000E+00 -0.13788003944E+02  0.13788003944E+02  0.00000000000E+00 0.  1.
         23    2    1    2    0    0 -0.23204863520E+02 -0.11232910738E+01  0.50271222072E+03  0.51128498493E+03  0.90294138674E+02 0.  0.
         23    2    1    2    0    0  0.23204863520E+02  0.11232910738E+01  0.22741103090E+03  0.24641427458E+03  0.92002664460E+02 0.  0.
          5    1    3    3  502    0  0.14192130703E+02  0.32940327609E+02  0.12362751088E+03  0.12881123089E+03  0.47000000000E+01 0. -1.
         -5    1    3    3    0  502 -0.37396994223E+02 -0.34063618682E+02  0.37908470984E+03  0.38247375404E+03  0.47000000000E+01 0.  1.
          5    1    4    4  503    0  0.41330345921E+02 -0.15132131309E+02  0.21338142128E+03  0.21792406898E+03  0.47000000000E+01 0. -1.
         -5    1    4    4    0  503 -0.18125482401E+02  0.16255422383E+02  0.14029609617E+02  0.28490205600E+02  0.47000000000E+01 0.  1.
<mgrwt>
<rscale>  0 0.94473923E+02</rscale>
<asrwt>0</asrwt>
<pdfrwt beam="1">  1        1 0.11444785E+00 0.94890557E+02</pdfrwt>
<pdfrwt beam="2">  1       -1 0.21212320E-02 0.94890557E+02</pdfrwt>
<totfact> 0.14981584E+04</totfact>
</mgrwt>
</event>
<event>
 8    1  0.3400573E-004  0.9342046E+02  0.7546771E-02  0.1295035E+00
          1   -1    0    0  501    0  0.00000000000E+00  0.00000000000E+00  0.36711362072E+03  0.36711362072E+03  0.00000000000E+00 0. -1.
         -1   -1    0    0    0  501 -0.00000000000E+00 -0.00000000000E+00 -0.25235558711E+03  0.25235558711E+03  0.00000000000E+00 0.  1.
         23    2    1    2    0    0  0.10755537901E-02 -0.15853319007E+02 -0.23749284487E+03  0.25504080177E+03  0.91605848494E+02 0.  0.
         23    2    1    2    0    0 -0.10755537901E-02  0.15853319007E+02  0.35225087848E+03  0.36442840606E+03  0.92065487708E+02 0.  0.
          5    1    4    4  502    0 -0.34849884140E+02 -0.18011578231E+02  0.21856535587E+03  0.22210771297E+03  0.47000000000E+01 0. -1.
         -5    1    4    4    0  502  0.34848808586E+02  0.33864897238E+02  0.13368552261E+03  0.14232069308E+03  0.47000000000E+01 0.  1.
          5    1    3    3  503    0  0.44710212806E+02 -0.13287095198E+02 -0.10188637936E+03  0.11215379764E+03  0.47000000000E+01 0. -1.
         -5    1    3    3    0  503 -0.44709137253E+02 -0.25662238091E+01 -0.13560646552E+03  0.14288700413E+03  0.47000000000E+01 0.  1.
<mgrwt>
<rscale>  0 0.93307015E+02</rscale>
<asrwt>0</asrwt>
<pdfrwt beam="1">  1        1 0.56479018E-01 0.93420457E+02</pdfrwt>
<pdfrwt beam="2">  1       -1 0.38823937E-01 0.93420457E+02</pdfrwt>
<totfact> 0.44691358E+02</totfact>
</mgrwt>
</event>
<event>
 8    1  0.3400573E-004  0.9856801E+02  0.7546771E-02  0.1284764E+00
         -2   -1    0    0    0  501 -0.00000000000E+00  0.00000000000E+00  0.80691058612E+02  0.80691058612E+02  0.00000000000E+00 0.  1.
          2   -1    0    0  501    0  0.00000000000E+00 -0.00000000000E+00 -0.16792735093E+03  0.16792735093E+03  0.00000000000E+00 0. -1.
         23    2    1    2    0    0  0.32810372095E+02  0.18413543626E+02  0.25097526432E+02  0.99170963289E+02  0.88257662675E+02 0.  0.
         23    2    1    2    0    0 -0.32810372095E+02 -0.18413543626E+02 -0.11233381875E+03  0.14944744626E+03  0.91104737808E+02 0.  0.
          5    1    4    4  502    0 -0.22213275659E+02  0.34170678099E+02 -0.69230261218E+02  0.80473498280E+02  0.47000000000E+01 0. -1.
         -5    1    3    3    0  503  0.44701813497E+02 -0.23850165646E+02  0.20191411029E+02  0.54743635343E+02  0.47000000000E+01 0.  1.
          5    1    3    3  503    0 -0.11891441403E+02  0.42263709272E+02  0.49061154024E+01  0.44427327945E+02  0.47000000000E+01 0. -1.
         -5    1    4    4    0  502 -0.10597096436E+02 -0.52584221724E+02 -0.43103557537E+02  0.68973947978E+02  0.47000000000E+01 0.  1.
<mgrwt>
<rscale>  0 0.97905012E+02</rscale>
<asrwt>0</asrwt>
<pdfrwt beam="1">  1        2 0.25834977E-01 0.98568009E+02</pdfrwt>
<pdfrwt beam="2">  1       -2 0.12414009E-01 0.98568009E+02</pdfrwt>
<totfact> 0.89154774E+03</totfact>
</mgrwt>
</event>
<event>
 8    1  0.3400573E-004  0.1133159E+03  0.7546771E-02  0.1254701E+00
          3   -1    0    0  501    0  0.00000000000E+00  0.00000000000E+00  0.51849404299E+03  0.51849404299E+03  0.00000000000E+00 0. -1.
         -3   -1    0    0    0  501 -0.00000000000E+00 -0.00000000000E+00 -0.27591097791E+02  0.27591097791E+02  0.00000000000E+00 0.  1.
         23    2    1    2    0    0 -0.26051115256E+02  0.60110217849E+02  0.33430989221E+03  0.35299235582E+03  0.92458641248E+02 0.  0.
         23    2    1    2    0    0  0.26051115256E+02 -0.60110217849E+02  0.15659305299E+03  0.19309278496E+03  0.92040971659E+02 0.  0.
          5    1    4    4  502    0  0.34597838632E+02  0.12450143584E+02  0.73699096252E+02  0.82496444176E+02  0.47000000000E+01 0. -1.
         -5    1    3    3    0  503  0.30414128671E+01  0.72104655889E+02  0.28704784482E+03  0.29601838931E+03  0.47000000000E+01 0.  1.
          5    1    3    3  503    0 -0.29092528123E+02 -0.11994438041E+02  0.47262047395E+02  0.56973966515E+02  0.47000000000E+01 0. -1.
         -5    1    4    4    0  502 -0.85467233758E+01 -0.72560361433E+02  0.82893956738E+02  0.11059634079E+03  0.47000000000E+01 0.  1.
<mgrwt>
<rscale>  0 0.11323070E+03</rscale>
<asrwt>0</asrwt>
<pdfrwt beam="1">  1        3 0.79768307E-01 0.11331593E+03</pdfrwt>
<pdfrwt beam="2">  1       -3 0.42447847E-02 0.11331593E+03</pdfrwt>
<totfact> 0.99468963E+02</totfact>
</mgrwt>
</event>
<event>
 8    1  0.3400573E-004  0.9549017E+02  0.7546771E-02  0.1290426E+00
         -2   -1    0    0    0  501 -0.00000000000E+00  0.00000000000E+00  0.10077431643E+03  0.10077431643E+03  0.00000000000E+00 0.  1.
          2   -1    0    0  501    0  0.00000000000E+00 -0.00000000000E+00 -0.12088252974E+03  0.12088252974E+03  0.00000000000E+00 0. -1.
         23    2    1    2    0    0  0.18541090054E+02  0.18623153384E+02  0.46035464077E+02  0.10600772181E+03  0.91802937143E+02 0.  0.
         23    2    1    2    0    0 -0.18541090054E+02 -0.18623153384E+02 -0.66143677396E+02  0.11564912436E+03  0.91154484494E+02 0.  0.
          5    1    3    3  502    0 -0.30484955829E+02 -0.33429016676E+01 -0.53907159056E+01  0.31490591316E+02  0.47000000000E+01 0. -1.
         -5    1    3    3    0  502  0.49026045883E+02  0.21966055052E+02  0.51426179983E+02  0.74517130494E+02  0.47000000000E+01 0.  1.
          5    1    4    4  503    0  0.36455553789E+02 -0.14141890905E+02 -0.24829719560E+02  0.46557549913E+02  0.47000000000E+01 0.  1.
         -5    1    4    4    0  503 -0.54996643843E+02 -0.44812624791E+01 -0.41313957836E+02  0.69091574447E+02  0.47000000000E+01 0. -1.
<mgrwt>
<rscale>  0 0.95333979E+02</rscale>
<asrwt>0</asrwt>
<pdfrwt beam="1">  1        2 0.18597312E-01 0.95490173E+02</pdfrwt>
<pdfrwt beam="2">  1       -2 0.15503741E-01 0.95490173E+02</pdfrwt>
<totfact> 0.89527551E+03</totfact>
</mgrwt>
</event>
<event>
 8    1  0.3400573E-004  0.9422089E+02  0.7546771E-02  0.1297681E+00
         -1   -1    0    0    0  501 -0.00000000000E+00  0.00000000000E+00  0.30725579035E+02  0.30725579035E+02  0.00000000000E+00 0.  1.
          1   -1    0    0  501    0  0.00000000000E+00 -0.00000000000E+00 -0.45816663425E+03  0.45816663425E+03  0.00000000000E+00 0. -1.
         23    2    1    2    0    0  0.22456589362E+02 -0.21732369624E+01 -0.36687524862E+03  0.37688421144E+03  0.83278084879E+02 0.  0.
         23    2    1    2    0    0 -0.22456589362E+02  0.21732369624E+01 -0.60565806601E+02  0.11200800185E+03  0.91479802054E+02 0.  0.
          5    1    3    3  502    0  0.44462350168E+02  0.22335422919E+02 -0.26627116121E+03  0.27092100877E+03  0.47000000000E+01 0. -1.
         -5    1    4    4    0  503  0.55049059727E+01 -0.41148813495E+02 -0.20491113986E+02  0.46534982477E+02  0.47000000000E+01 0.  1.
          5    1    4    4  503    0 -0.27961495335E+02  0.43322050457E+02 -0.40074692615E+02  0.65473019370E+02  0.47000000000E+01 0. -1.
         -5    1    3    3    0  502 -0.22005760806E+02 -0.24508659882E+02 -0.10060408741E+03  0.10596320267E+03  0.47000000000E+01 0.  1.
<mgrwt>
<rscale>  0 0.92169682E+02</rscale>
<asrwt>0</asrwt>
<pdfrwt beam="1">  1        1 0.70487179E-01 0.94220887E+02</pdfrwt>
<pdfrwt beam="2">  1       -1 0.47270119E-02 0.94220887E+02</pdfrwt>
<totfact> 0.90058597E+03</totfact>
</mgrwt>
</event>
<event>
 8    1  0.3400573E-004  0.1188242E+03  0.7546771E-02  0.1257477E+00
          1   -1    0    0  501    0  0.00000000000E+00  0.00000000000E+00  0.92930110455E+02  0.92930110455E+02  0.00000000000E+00 0. -1.
         -1   -1    0    0    0  501 -0.00000000000E+00 -0.00000000000E+00 -0.12058967882E+03  0.12058967882E+03  0.00000000000E+00 0.  1.
         23    2    1    2    0    0  0.11920254275E+02  0.33885408659E+01 -0.16106486982E+02  0.94135296225E+02  0.91915506860E+02 0.  0.
         23    2    1    2    0    0 -0.11920254275E+02 -0.33885408659E+01 -0.11553081388E+02  0.11938449305E+03  0.11817617705E+03 0.  0.
          5    1    3    3  502    0 -0.27913510407E+02 -0.18403334528E+02  0.16946712048E+02  0.37777345516E+02  0.47000000000E+01 0. -1.
         -5    1    4    4    0  503  0.51979724196E+02  0.88416150045E+01 -0.11428291307E+02  0.54154978770E+02  0.47000000000E+01 0.  1.
          5    1    4    4  503    0 -0.63899978471E+02 -0.12230155870E+02 -0.12479008085E+00  0.65229514284E+02  0.47000000000E+01 0. -1.
         -5    1    3    3    0  502  0.39833764682E+02  0.21791875394E+02 -0.33053199030E+02  0.56357950709E+02  0.47000000000E+01 0.  1.
<mgrwt>
<rscale>  0 0.11168729E+03</rscale>
<asrwt>0</asrwt>
<pdfrwt beam="1">  1        1 0.14296940E-01 0.11882417E+03</pdfrwt>
<pdfrwt beam="2">  1       -1 0.18552258E-01 0.11882417E+03</pdfrwt>
<totfact> 0.84480582E+03</totfact>
</mgrwt>
</event>
<event>
 8    1  0.3400573E-004  0.9562285E+02  0.7546771E-02  0.1290360E+00
         -1   -1    0    0    0  501 -0.00000000000E+00  0.00000000000E+00  0.28457663903E+02  0.28457663903E+02  0.00000000000E+00 0.  1.
          1   -1    0    0  501    0  0.00000000000E+00 -0.00000000000E+00 -0.32474208368E+03  0.32474208368E+03  0.00000000000E+00 0. -1.
         23    2    1    2    0    0 -0.24475912708E+02 -0.23949378708E+02 -0.12161144326E+03  0.15406567709E+03  0.88171688668E+02 0.  0.
         23    2    1    2    0    0  0.24475912708E+02  0.23949378708E+02 -0.17467297652E+03  0.19913407049E+03  0.89280940080E+02 0.  0.
          5    1    4    4  502    0  0.51881147995E+02 -0.82508763219E+01 -0.10490915041E+03  0.11742125155E+03  0.47000000000E+01 0. -1.
         -5    1    4    4    0  502 -0.27405235287E+02  0.32200255029E+02 -0.69763826108E+02  0.81712818935E+02  0.47000000000E+01 0.  1.
          5    1    3    3  503    0  0.24627701611E+02  0.13431930546E+02 -0.61632654609E+02  0.67879411893E+02  0.47000000000E+01 0. -1.
         -5    1    3    3    0  503 -0.49103614319E+02 -0.37381309254E+02 -0.59978788648E+02  0.86186265196E+02  0.47000000000E+01 0.  1.
<mgrwt>
<rscale>  0 0.95363080E+02</rscale>
<asrwt>0</asrwt>
<pdfrwt beam="1">  1        1 0.49960319E-01 0.95622849E+02</pdfrwt>
<pdfrwt beam="2">  1       -1 0.43781023E-02 0.95622849E+02</pdfrwt>
<totfact> 0.15469886E+04</totfact>
</mgrwt>
</event>
<event>
 8    1  0.3400573E-004  0.9849658E+02  0.7546771E-02  0.1283764E+00
          1   -1    0    0  501    0  0.00000000000E+00  0.00000000000E+00  0.86538867302E+02  0.86538867302E+02  0.00000000000E+00 0. -1.
         -1   -1    0    0    0  501 -0.00000000000E+00 -0.00000000000E+00 -0.13572365854E+03  0.13572365854E+03  0.00000000000E+00 0.  1.
         23    2    1    2    0    0 -0.26453824722E+02  0.29120403808E+02  0.22382625461E+02  0.10051084739E+03  0.89742106950E+02 0.  0.
         23    2    1    2    0    0  0.26453824722E+02 -0.29120403808E+02 -0.71567416697E+02  0.12175167845E+03  0.90298246454E+02 0.  0.
          5    1    3    3  502    0  0.26448281230E+02  0.35474382085E+02  0.10266237303E+02  0.45666497487E+02  0.47000000000E+01 0. -1.
         -5    1    4    4    0  503 -0.19684762226E+02 -0.33320979189E+02 -0.63468145330E+02  0.74485387759E+02  0.47000000000E+01 0.  1.
          5    1    4    4  503    0  0.46138586949E+02  0.42005753808E+01 -0.80992713670E+01  0.47266290692E+02  0.47000000000E+01 0. -1.
         -5    1    3    3    0  502 -0.52902105953E+02 -0.63539782771E+01  0.12116388158E+02  0.54844349902E+02  0.47000000000E+01 0.  1.
<mgrwt>
<rscale>  0 0.98368932E+02</rscale>
<asrwt>0</asrwt>
<pdfrwt beam="1">  1        1 0.13313672E-01 0.98496579E+02</pdfrwt>
<pdfrwt beam="2">  1       -1 0.20880563E-01 0.98496579E+02</pdfrwt>
<totfact> 0.75538240E+03</totfact>
</mgrwt>
</event>
<event>
 8    1  0.3400573E-004  0.1042579E+03  0.7546771E-02  0.1272709E+00
         -1   -1    0    0    0  501 -0.00000000000E+00  0.00000000000E+00  0.14806483253E+02  0.14806483253E+02  0.00000000000E+00 0.  1.
          1   -1    0    0  501    0  0.00000000000E+00 -0.00000000000E+00 -0.72558625375E+03  0.72558625375E+03  0.00000000000E+00 0. -1.
         23    2    1    2    0    0 -0.50751964435E+02 -0.83695422793E+01 -0.32264788174E+03  0.33907428565E+03  0.90685745650E+02 0.  0.
         23    2    1    2    0    0  0.50751964435E+02  0.83695422793E+01 -0.38813188875E+03  0.40131845135E+03  0.88115408394E+02 0.  0.
          5    1    3    3  502    0 -0.36243287301E+02 -0.30263953719E+02 -0.30099273785E+03  0.30471002774E+03  0.47000000000E+01 0. -1.
         -5    1    3    3    0  502 -0.14508677134E+02  0.21894411440E+02 -0.21655143893E+02  0.34364257907E+02  0.47000000000E+01 0.  1.
          5    1    4    4  503    0  0.63053488476E+02 -0.11674332906E+02 -0.35282963385E+03  0.35864031142E+03  0.47000000000E+01 0. -1.
         -5    1    4    4    0  503 -0.12301524041E+02  0.20043875185E+02 -0.35302254902E+02  0.42678139924E+02  0.47000000000E+01 0.  1.
<mgrwt>
<rscale>  0 0.10369645E+03</rscale>
<asrwt>0</asrwt>
<pdfrwt beam="1">  1        1 0.11162864E+00 0.10425793E+03</pdfrwt>
<pdfrwt beam="2">  1       -1 0.22779207E-02 0.10425793E+03</pdfrwt>
<totfact> 0.14129968E+04</totfact>
</mgrwt>
</event>
<event>
 8    1  0.3400573E-004  0.1902914E+03  0.7546771E-02  0.1158612E+00
         -1   -1    0    0    0  501 -0.00000000000E+00  0.00000000000E+00  0.47512439483E+02  0.47512439483E+02  0.00000000000E+00 0.  1.
          1   -1    0    0  501    0  0.00000000000E+00 -0.00000000000E+00 -0.14448166387E+04  0.14448166387E+04  0.00000000000E+00 0. -1.
         23    2    1    2    0    0  0.13853039741E+03  0.82736212803E+02 -0.12125300844E+04  0.12270890513E+04  0.97377525701E+02 0.  0.
         23    2    1    2    0    0 -0.13853039741E+03 -0.82736212803E+02 -0.18477411481E+03  0.26524002680E+03  0.10087044363E+03 0.  0.
          5    1    3    3  502    0  0.76207726294E+02 -0.56932985332E+01 -0.62401379097E+03  0.62869335333E+03  0.47000000000E+01 0. -1.
         -5    1    3    3    0  502  0.62322671117E+02  0.88429511336E+02 -0.58851629340E+03  0.59839569802E+03  0.47000000000E+01 0.  1.
          5    1    4    4  503    0  0.69666847769E+01 -0.25135016604E+02 -0.52066122193E+01  0.27009305198E+02  0.47000000000E+01 0. -1.
         -5    1    4    4    0  503 -0.14549708219E+03 -0.57601196198E+02 -0.17956750259E+03  0.23823072160E+03  0.47000000000E+01 0.  1.
<mgrwt>
<rscale>  0 0.18983263E+03</rscale>
<asrwt>0</asrwt>
<pdfrwt beam="1">  1        1 0.22227950E+00 0.19029135E+03</pdfrwt>
<pdfrwt beam="2">  1       -1 0.73096057E-02 0.19029135E+03</pdfrwt>
<totfact> 0.77707232E+02</totfact>
</mgrwt>
</event>
<event>
 8    1  0.3400573E-004  0.1039872E+03  0.7546771E-02  0.1272211E+00
          1   -1    0    0  501    0  0.00000000000E+00  0.00000000000E+00  0.14012293744E+03  0.14012293744E+03  0.00000000000E+00 0. -1.
         -1   -1    0    0    0  501 -0.00000000000E+00 -0.00000000000E+00 -0.83945619591E+02  0.83945619591E+02  0.00000000000E+00 0.  1.
         23    2    1    2    0    0  0.31023461763E+02  0.42202412340E+02 -0.40490372606E+01  0.10389974179E+03  0.89639627697E+02 0.  0.
         23    2    1    2    0    0 -0.31023461763E+02 -0.42202412340E+02  0.60226355113E+02  0.12016881525E+03  0.89832240986E+02 0.  0.
          5    1    4    4  502    0 -0.69404517815E+01 -0.46320716295E+02  0.76938553102E+02  0.90196505379E+02  0.47000000000E+01 0. -1.
         -5    1    4    4    0  502 -0.24083009981E+02  0.41183039549E+01 -0.16712197989E+02  0.29972309868E+02  0.47000000000E+01 0.  1.
          5    1    3    3  503    0 -0.30414712181E+02  0.15444227195E+02 -0.11518042021E+02  0.36308871680E+02  0.47000000000E+01 0.  1.
         -5    1    3    3    0  503  0.61438173943E+02  0.26758185145E+02  0.74690047601E+01  0.67590870107E+02  0.47000000000E+01 0. -1.
<mgrwt>
<rscale>  0 0.10394555E+03</rscale>
<asrwt>0</asrwt>
<pdfrwt beam="1">  1        1 0.21557375E-01 0.10398716E+03</pdfrwt>
<pdfrwt beam="2">  1       -1 0.12914711E-01 0.10398716E+03</pdfrwt>
<totfact> 0.87225682E+03</totfact>
</mgrwt>
</event>
<event>
 8    1  0.3400573E-004  0.1173573E+03  0.7546771E-02  0.1256939E+00
          1   -1    0    0  501    0  0.00000000000E+00  0.00000000000E+00  0.24594182904E+03  0.24594182904E+03  0.00000000000E+00 0. -1.
         -1   -1    0    0    0  501 -0.00000000000E+00 -0.00000000000E+00 -0.46844129844E+02  0.46844129844E+02  0.00000000000E+00 0.  1.
         23    2    1    2    0    0  0.71236010454E+01 -0.44088787797E+02  0.88365654678E+02  0.13143440456E+03  0.86440423846E+02 0.  0.
         23    2    1    2    0    0 -0.71236010454E+01  0.44088787797E+02  0.11073204452E+03  0.16135155432E+03  0.10852728458E+03 0.  0.
          5    1    4    4  502    0 -0.22654112277E+02 -0.14960918004E+02  0.93875755048E+02  0.97835501003E+02  0.47000000000E+01 0. -1.
         -5    1    4    4    0  502  0.15530511231E+02  0.59049705801E+02  0.16856289467E+02  0.63516053317E+02  0.47000000000E+01 0.  1.
          5    1    3    3  503    0 -0.24811869517E+00  0.26066065388E+02  0.26924559435E+02  0.37769342442E+02  0.47000000000E+01 0.  1.
         -5    1    3    3    0  503  0.73717197406E+01 -0.70154853185E+02  0.61441095243E+02  0.93665062120E+02  0.47000000000E+01 0. -1.
<mgrwt>
<rscale>  0 0.11198410E+03</rscale>
<asrwt>0</asrwt>
<pdfrwt beam="1">  1        1 0.37837204E-01 0.11735731E+03</pdfrwt>
<pdfrwt beam="2">  1       -1 0.72067894E-02 0.11735731E+03</pdfrwt>
<totfact> 0.10617109E+04</totfact>
</mgrwt>
</event>
<event>
 8    1  0.3400573E-004  0.1019623E+03  0.7546771E-02  0.1276495E+00
          1   -1    0    0  501    0  0.00000000000E+00  0.00000000000E+00  0.25161514529E+02  0.25161514529E+02  0.00000000000E+00 0. -1.
         -1   -1    0    0    0  501 -0.00000000000E+00 -0.00000000000E+00 -0.45391274878E+03  0.45391274878E+03  0.00000000000E+00 0.  1.
         23    2    1    2    0    0 -0.19093514040E+02 -0.43652568371E+02 -0.28849914527E+03  0.30598703065E+03  0.90145421968E+02 0.  0.
         23    2    1    2    0    0  0.19093514040E+02  0.43652568371E+02 -0.14025208899E+03  0.17308723266E+03  0.89545701417E+02 0.  0.
          5    1    3    3  502    0  0.30922297505E+02  0.22050974374E+01 -0.61735364022E+02  0.69241577889E+02  0.47000000000E+01 0. -1.
         -5    1    4    4    0  503 -0.22812479312E+02  0.11567790629E+01 -0.95596336454E+02  0.98399679337E+02  0.47000000000E+01 0.  1.
          5    1    4    4  503    0  0.41905993352E+02  0.42495789308E+02 -0.44655752534E+02  0.74687553328E+02  0.47000000000E+01 0. -1.
         -5    1    3    3    0  502 -0.50015811545E+02 -0.45857665809E+02 -0.22676378125E+03  0.23674545276E+03  0.47000000000E+01 0.  1.
<mgrwt>
<rscale>  0 0.10182956E+03</rscale>
<asrwt>0</asrwt>
<pdfrwt beam="1">  1        1 0.38710026E-02 0.10196228E+03</pdfrwt>
<pdfrwt beam="2">  1       -1 0.69832724E-01 0.10196228E+03</pdfrwt>
<totfact> 0.47953626E+03</totfact>
</mgrwt>
</event>
<event>
 8    1  0.3400573E-004  0.9735055E+02  0.7546771E-02  0.1286423E+00
          1   -1    0    0  501    0  0.00000000000E+00  0.00000000000E+00  0.54628587434E+02  0.54628587434E+02  0.00000000000E+00 0. -1.
         -1   -1    0    0    0  501 -0.00000000000E+00 -0.00000000000E+00 -0.17515186751E+03  0.17515186751E+03  0.00000000000E+00 0.  1.
         23    2    1    2    0    0 -0.28853033100E+02  0.14109907439E+02 -0.44609368580E+02  0.10632984884E+03  0.91018975947E+02 0.  0.
         23    2    1    2    0    0  0.28853033100E+02 -0.14109907439E+02 -0.75913911497E+02  0.12345060610E+03  0.91899636460E+02 0.  0.
          5    1    3    3  502    0 -0.11615785995E+02 -0.21428108783E+02 -0.59016685058E+02  0.64024600315E+02  0.47000000000E+01 0. -1.
         -5    1    3    3    0  502 -0.17237247105E+02  0.35538016222E+02  0.14407316478E+02  0.42305248526E+02  0.47000000000E+01 0.  1.
          5    1    4    4  503    0  0.18194041261E+02 -0.51697843400E+02 -0.28886227685E+02  0.62130461929E+02  0.47000000000E+01 0. -1.
         -5    1    4    4    0  503  0.10658991839E+02  0.37587935961E+02 -0.47027683812E+02  0.61320144174E+02  0.47000000000E+01 0.  1.
<mgrwt>
<rscale>  0 0.97142157E+02</rscale>
<asrwt>0</asrwt>
<pdfrwt beam="1">  1        1 0.84043982E-02 0.97350553E+02</pdfrwt>
<pdfrwt beam="2">  1       -1 0.26946441E-01 0.97350553E+02</pdfrwt>
<totfact> 0.91149765E+03</totfact>
</mgrwt>
</event>
<event>
 8    1  0.3400573E-004  0.8986374E+02  0.7546771E-02  0.1303223E+00
          3   -1    0    0  501    0  0.00000000000E+00  0.00000000000E+00  0.38859895324E+02  0.38859895324E+02  0.00000000000E+00 0. -1.
         -3   -1    0    0    0  501 -0.00000000000E+00 -0.00000000000E+00 -0.26725147263E+03  0.26725147263E+03  0.00000000000E+00 0.  1.
         23    2    1    2    0    0 -0.12749520208E+01  0.72729035087E+01 -0.18644005718E+03  0.20693767456E+03  0.89491818646E+02 0.  0.
         23    2    1    2    0    0  0.12749520208E+01 -0.72729035087E+01 -0.41951520126E+02  0.99173693391E+02  0.89559872665E+02 0.  0.
          5    1    4    4  502    0  0.22517131192E+02 -0.12405668594E+02  0.20260245460E+02  0.33067950594E+02  0.47000000000E+01 0. -1.
         -5    1    4    4    0  502 -0.21242179172E+02  0.51327650856E+01 -0.62211765586E+02  0.66105742797E+02  0.47000000000E+01 0.  1.
          5    1    3    3  503    0 -0.44073104031E+02  0.33203281492E+01 -0.72139481786E+02  0.84732862045E+02  0.47000000000E+01 0.  1.
         -5    1    3    3    0  503  0.42798152010E+02  0.39525753595E+01 -0.11430057540E+03  0.12220481252E+03  0.47000000000E+01 0. -1.
<mgrwt>
<rscale>  0 0.89846777E+02</rscale>
<asrwt>0</asrwt>
<pdfrwt beam="1">  1        3 0.59784457E-02 0.89863738E+02</pdfrwt>
<pdfrwt beam="2">  1       -3 0.41115610E-01 0.89863738E+02</pdfrwt>
<totfact> 0.21345250E+03</totfact>
</mgrwt>
</event>
<event>
 8    1  0.3400573E-004  0.1068906E+03  0.7546771E-02  0.1267609E+00
          4   -1    0    0  501    0  0.00000000000E+00  0.00000000000E+00  0.72819888881E+03  0.72819888881E+03  0.00000000000E+00 0. -1.
         -4   -1    0    0    0  501 -0.00000000000E+00 -0.00000000000E+00 -0.42255032327E+02  0.42255032327E+02  0.00000000000E+00 0.  1.
         23    2    1    2    0    0  0.49983003535E+02 -0.89753906197E+00  0.36941090043E+02  0.11309399633E+03  0.94480165398E+02 0.  0.
         23    2    1    2    0    0 -0.49983003535E+02  0.89753906197E+00  0.64900276644E+03  0.65735992480E+03  0.91751695774E+02 0.  0.
          5    1    4    4  502    0 -0.71422865024E+02  0.40806060359E+01  0.58976121353E+03  0.59410290016E+03  0.47000000000E+01 0. -1.
         -5    1    3    3    0  503  0.32065082589E+02  0.31127477062E+02 -0.16694563165E+02  0.47936288852E+02  0.47000000000E+01 0.  1.
          5    1    3    3  503    0  0.17917920946E+02 -0.32025016124E+02  0.53635653208E+02  0.65157707478E+02  0.47000000000E+01 0. -1.
         -5    1    4    4    0  502  0.21439861489E+02 -0.31830669739E+01  0.59241552904E+02  0.63257024642E+02  0.47000000000E+01 0.  1.
<mgrwt>
<rscale>  0 0.10628453E+03</rscale>
<asrwt>0</asrwt>
<pdfrwt beam="1">  1        4 0.11203059E+00 0.10689064E+03</pdfrwt>
<pdfrwt beam="2">  1       -4 0.65007747E-02 0.10689064E+03</pdfrwt>
<totfact> 0.16340551E+02</totfact>
</mgrwt>
</event>
<event>
 8    1  0.3400573E-004  0.1044008E+03  0.7546771E-02  0.1271899E+00
         -1   -1    0    0    0  501 -0.00000000000E+00  0.00000000000E+00  0.28972383146E+02  0.28972383146E+02  0.00000000000E+00 0.  1.
          1   -1    0    0  501    0  0.00000000000E+00 -0.00000000000E+00 -0.53097642319E+03  0.53097642319E+03  0.00000000000E+00 0. -1.
         23    2    1    2    0    0 -0.10628486191E+02 -0.46453473380E+02 -0.98781016589E+02  0.14372618278E+03  0.92890454134E+02 0.  0.
         23    2    1    2    0    0  0.10628486191E+02  0.46453473380E+02 -0.40322302345E+03  0.41622262356E+03  0.91550946533E+02 0.  0.
          5    1    4    4  502    0  0.94804047132E-01  0.70050640180E+02 -0.34876512911E+03  0.35576158655E+03  0.47000000000E+01 0. -1.
         -5    1    4    4    0  502  0.10533682144E+02 -0.23597166799E+02 -0.54457894340E+02  0.60461037011E+02  0.47000000000E+01 0.  1.
          5    1    3    3  503    0  0.23957747279E+02 -0.11405444044E+02 -0.89410077983E+02  0.93382599308E+02  0.47000000000E+01 0. -1.
         -5    1    3    3    0  503 -0.34586233471E+02 -0.35048029336E+02 -0.93709386056E+01  0.50343583468E+02  0.47000000000E+01 0.  1.
<mgrwt>
<rscale>  0 0.10410201E+03</rscale>
<asrwt>0</asrwt>
<pdfrwt beam="1">  1        1 0.81688675E-01 0.10440080E+03</pdfrwt>
<pdfrwt beam="2">  1       -1 0.44572900E-02 0.10440080E+03</pdfrwt>
<totfact> 0.81806529E+03</totfact>
</mgrwt>
</event>
<event>
 8    1  0.3400573E-004  0.1402550E+03  0.7546771E-02  0.1214775E+00
          1   -1    0    0  501    0  0.00000000000E+00  0.00000000000E+00  0.10767795272E+03  0.10767795272E+03  0.00000000000E+00 0. -1.
         -1   -1    0    0    0  501 -0.00000000000E+00 -0.00000000000E+00 -0.20909015052E+03  0.20909015052E+03  0.00000000000E+00 0.  1.
         23    2    1    2    0    0  0.92660302141E+02 -0.32157742800E+02  0.13150720259E+02  0.13567107003E+03  0.92809728929E+02 0.  0.
         23    2    1    2    0    0 -0.92660302141E+02  0.32157742800E+02 -0.11456291805E+03  0.18109703321E+03  0.10025677648E+03 0.  0.
          5    1    3    3  502    0  0.44830445354E+02 -0.53887717252E+02  0.35108173288E+02  0.78538708500E+02  0.47000000000E+01 0. -1.
         -5    1    4    4    0  503 -0.75767482069E+02  0.63671354627E+02 -0.10372032680E+03  0.14343900770E+03  0.47000000000E+01 0.  1.
          5    1    4    4  503    0 -0.16892820072E+02 -0.31513611827E+02 -0.10842591255E+02  0.37658025513E+02  0.47000000000E+01 0. -1.
         -5    1    3    3    0  502  0.47829856787E+02  0.21729974453E+02 -0.21957453029E+02  0.57132361526E+02  0.47000000000E+01 0.  1.
<mgrwt>
<rscale>  0 0.13893068E+03</rscale>
<asrwt>0</asrwt>
<pdfrwt beam="1">  1        1 0.16565839E-01 0.14025503E+03</pdfrwt>
<pdfrwt beam="2">  1       -1 0.32167715E-01 0.14025503E+03</pdfrwt>
<totfact> 0.28655443E+03</totfact>
</mgrwt>
</event>
<event>
 8    1  0.3400573E-004  0.1257883E+03  0.7546771E-02  0.1245884E+00
          1   -1    0    0  501    0  0.00000000000E+00  0.00000000000E+00  0.33866565753E+03  0.33866565753E+03  0.00000000000E+00 0. -1.
         -1   -1    0    0    0  501 -0.00000000000E+00 -0.00000000000E+00 -0.41394964291E+02  0.41394964291E+02  0.00000000000E+00 0.  1.
         23    2    1    2    0    0  0.14547401397E+02 -0.31565030632E+02  0.22543622158E+03  0.25815537706E+03  0.12089140028E+03 0.  0.
         23    2    1    2    0    0 -0.14547401397E+02  0.31565030632E+02  0.71834471659E+02  0.12190524475E+03  0.92155951156E+02 0.  0.
          5    1    4    4  502    0 -0.36328037370E+02 -0.11026592280E+02  0.35773911026E+01  0.38421345156E+02  0.47000000000E+01 0. -1.
         -5    1    3    3    0  503 -0.21256803595E+01  0.38907098766E+02  0.29164629035E+02  0.48897305019E+02  0.47000000000E+01 0.  1.
          5    1    3    3  503    0  0.16673081757E+02 -0.70472129399E+02  0.19627159254E+03  0.20925807204E+03  0.47000000000E+01 0. -1.
         -5    1    4    4    0  502  0.21780635973E+02  0.42591622912E+02  0.68257080557E+02  0.83483899597E+02  0.47000000000E+01 0.  1.
<mgrwt>
<rscale>  0 0.11832614E+03</rscale>
<asrwt>0</asrwt>
<pdfrwt beam="1">  1        1 0.52102407E-01 0.12578835E+03</pdfrwt>
<pdfrwt beam="2">  1       -1 0.63684563E-02 0.12578835E+03</pdfrwt>
<totfact> 0.86526132E+03</totfact>
</mgrwt>
</event>
<event>
 8    1  0.3400573E-004  0.1031216E+03  0.7546771E-02  0.1274120E+00
         -2   -1    0    0    0  501 -0.00000000000E+00  0.00000000000E+00  0.63075286792E+02  0.63075286792E+02  0.00000000000E+00 0.  1.
          2   -1    0    0  501    0  0.00000000000E+00 -0.00000000000E+00 -0.19824900207E+03  0.19824900207E+03  0.00000000000E+00 0. -1.
         23    2    1    2    0    0  0.35892100546E+02 -0.30445083573E+02 -0.16495117767E+02  0.10443256376E+03  0.91754702705E+02 0.  0.
         23    2    1    2    0    0 -0.35892100546E+02  0.30445083573E+02 -0.11867859751E+03  0.15689172510E+03  0.91188035959E+02 0.  0.
          5    1    4    4  502    0 -0.11999243974E+02  0.49422991151E+02 -0.11496057183E+03  0.12579601340E+03  0.47000000000E+01 0.  1.
         -5    1    3    3    0  503  0.53350480168E+02 -0.12306539556E+02  0.21166389022E+02  0.58888289789E+02  0.47000000000E+01 0.  1.
          5    1    3    3  503    0 -0.17458379622E+02 -0.18138544016E+02 -0.37661506790E+02  0.45544273973E+02  0.47000000000E+01 0. -1.
         -5    1    4    4    0  502 -0.23892856572E+02 -0.18977907579E+02 -0.37180256741E+01  0.31095711700E+02  0.47000000000E+01 0. -1.
<mgrwt>
<rscale>  0 0.10299543E+03</rscale>
<asrwt>0</asrwt>
<pdfrwt beam="1">  1        2 0.30499846E-01 0.10312163E+03</pdfrwt>
<pdfrwt beam="2">  1       -2 0.97038904E-02 0.10312163E+03</pdfrwt>
<totfact> 0.11020001E+04</totfact>
</mgrwt>
</event>
<event>
 8    1  0.3400573E-004  0.1121143E+03  0.7546771E-02  0.1262379E+00
         -4   -1    0    0    0  501 -0.00000000000E+00  0.00000000000E+00  0.57097210206E+02  0.57097210206E+02  0.00000000000E+00 0.  1.
          4   -1    0    0  501    0  0.00000000000E+00 -0.00000000000E+00 -0.20534564713E+03  0.20534564713E+03  0.00000000000E+00 0. -1.
         23    2    1    2    0    0  0.42980790656E+02 -0.74344008052E+01 -0.95751173557E+02  0.13864630235E+03  0.90287824418E+02 0.  0.
         23    2    1    2    0    0 -0.42980790656E+02  0.74344008052E+01 -0.52497263367E+02  0.12379655498E+03  0.10328119714E+03 0.  0.
          5    1    3    3  502    0  0.40304244090E+02  0.35912080207E+02 -0.67772770491E+02  0.86771815795E+02  0.47000000000E+01 0.  1.
         -5    1    4    4    0  503 -0.41784250080E+02 -0.36787172512E+02 -0.11802750108E+01  0.55881147673E+02  0.47000000000E+01 0.  1.
          5    1    4    4  503    0 -0.11965405763E+01  0.44221573317E+02 -0.51316988356E+02  0.67915407309E+02  0.47000000000E+01 0. -1.
         -5    1    3    3    0  502  0.26765465661E+01 -0.43346481012E+02 -0.27978403066E+02  0.51874486559E+02  0.47000000000E+01 0.  1.
<mgrwt>
<rscale>  0 0.10902874E+03</rscale>
<asrwt>0</asrwt>
<pdfrwt beam="1">  1        4 0.31591638E-01 0.11211434E+03</pdfrwt>
<pdfrwt beam="2">  1       -4 0.87841861E-02 0.11211434E+03</pdfrwt>
<totfact> 0.14347251E+03</totfact>
</mgrwt>
</event>
<event>
 8    1  0.3400573E-004  0.9984442E+02  0.7546771E-02  0.1283217E+00
          3   -1    0    0  501    0  0.00000000000E+00  0.00000000000E+00  0.79021398345E+03  0.79021398345E+03  0.00000000000E+00 0. -1.
         -3   -1    0    0    0  501 -0.00000000000E+00 -0.00000000000E+00 -0.12043987132E+02  0.12043987132E+02  0.00000000000E+00 0.  1.
         23    2    1    2    0    0  0.22031720141E+02  0.34496343724E+02  0.41759921883E+03  0.42936932334E+03  0.91068731392E+02 0.  0.
         23    2    1    2    0    0 -0.22031720141E+02 -0.34496343724E+02  0.36057077749E+03  0.37288864724E+03  0.85786148295E+02 0.  0.
          5    1    3    3  502    0 -0.35183297932E+02  0.19544820002E+02  0.16876914616E+03  0.17356548948E+03  0.47000000000E+01 0. -1.
         -5    1    4    4    0  503  0.19927787226E+02 -0.41704260818E+02  0.25061159655E+03  0.25488158898E+03  0.47000000000E+01 0.  1.
          5    1    4    4  503    0 -0.41959507366E+02  0.72079170937E+01  0.10995918094E+03  0.11800705826E+03  0.47000000000E+01 0. -1.
         -5    1    3    3    0  502  0.57215018072E+02  0.14951523723E+02  0.24883007267E+03  0.25580383386E+03  0.47000000000E+01 0.  1.
<mgrwt>
<rscale>  0 0.98623818E+02</rscale>
<asrwt>0</asrwt>
<pdfrwt beam="1">  1        3 0.12157134E+00 0.99844420E+02</pdfrwt>
<pdfrwt beam="2">  1       -3 0.18529217E-02 0.99844420E+02</pdfrwt>
<totfact> 0.13456205E+03</totfact>
</mgrwt>
</event>
<event>
 8    1  0.3400573E-004  0.9453226E+02  0.7546771E-02  0.1292649E+00
         -1   -1    0    0    0  501 -0.00000000000E+00  0.00000000000E+00  0.17866605367E+03  0.17866605367E+03  0.00000000000E+00 0.  1.
          1   -1    0    0  501    0  0.00000000000E+00 -0.00000000000E+00 -0.64508899005E+02  0.64508899005E+02  0.00000000000E+00 0. -1.
         23    2    1    2    0    0 -0.13200646810E+02  0.19847251800E+02  0.11529937403E+03  0.14863579389E+03  0.90722009974E+02 0.  0.
         23    2    1    2    0    0  0.13200646810E+02 -0.19847251800E+02 -0.11422193725E+01  0.94539158777E+02  0.91477742632E+02 0.  0.
          5    1    3    3  502    0 -0.10075127410E+02  0.44219329685E+02  0.19441733219E+02  0.49567411680E+02  0.47000000000E+01 0. -1.
         -5    1    3    3    0  502 -0.31255194002E+01 -0.24372077885E+02  0.95857640814E+02  0.99068382213E+02  0.47000000000E+01 0.  1.
          5    1    4    4  503    0  0.34477559288E+02 -0.57252194177E+01 -0.36446625518E+02  0.50714167089E+02  0.47000000000E+01 0. -1.
         -5    1    4    4    0  503 -0.21276912478E+02 -0.14122032382E+02  0.35304406145E+02  0.43824991688E+02  0.47000000000E+01 0.  1.
<mgrwt>
<rscale>  0 0.94348946E+02</rscale>
<asrwt>0</asrwt>
<pdfrwt beam="1">  1        1 0.99244461E-02 0.94532258E+02</pdfrwt>
<pdfrwt beam="2">  1       -1 0.27487085E-01 0.94532258E+02</pdfrwt>
<totfact> 0.70676226E+03</totfact>
</mgrwt>
</event>
<event>
 8    1  0.3400573E-004  0.1121538E+03  0.7546771E-02  0.1256996E+00
          1   -1    0    0  501    0  0.00000000000E+00  0.00000000000E+00  0.22174918041E+03  0.22174918041E+03  0.00000000000E+00 0. -1.
         -1   -1    0    0    0  501 -0.00000000000E+00 -0.00000000000E+00 -0.70665903437E+02  0.70665903437E+02  0.00000000000E+00 0.  1.
         23    2    1    2    0    0 -0.42090108858E+02 -0.47824233098E+02  0.98795853461E+01  0.11258810020E+03  0.92302435312E+02 0.  0.
         23    2    1    2    0    0  0.42090108858E+02  0.47824233098E+02  0.14120369162E+03  0.17982698365E+03  0.91326485666E+02 0.  0.
          5    1    4    4  502    0  0.65939906290E+02  0.31611533101E+02  0.64041526480E+02  0.97317867735E+02  0.47000000000E+01 0. -1.
         -5    1    3    3    0  503  0.20959483414E+02 -0.41074319086E+02 -0.68125294485E+01  0.46849761908E+02  0.47000000000E+01 0.  1.
          5    1    3    3  503    0 -0.63049592272E+02 -0.67499140118E+01  0.16692114795E+02  0.65738338290E+02  0.47000000000E+01 0. -1.
         -5    1    4    4    0  502 -0.23849797433E+02  0.16212699997E+02  0.77162165144E+02  0.82509115912E+02  0.47000000000E+01 0.  1.
<mgrwt>
<rscale>  0 0.11195280E+03</rscale>
<asrwt>0</asrwt>
<pdfrwt beam="1">  1        1 0.34115258E-01 0.11215380E+03</pdfrwt>
<pdfrwt beam="2">  1       -1 0.10871678E-01 0.11215380E+03</pdfrwt>
<totfact> 0.64608205E+03</totfact>
</mgrwt>
</event>
<event>
 8    1  0.3400573E-004  0.1027641E+03  0.7546771E-02  0.1277649E+00
          2   -1    0    0  501    0  0.00000000000E+00  0.00000000000E+00  0.10275897543E+03  0.10275897543E+03  0.00000000000E+00 0. -1.
         -2   -1    0    0    0  501 -0.00000000000E+00 -0.00000000000E+00 -0.98813785253E+02  0.98813785253E+02  0.00000000000E+00 0.  1.
         23    2    1    2    0    0  0.32482061862E+02  0.10639987825E+02 -0.11607834508E+02  0.10341764458E+03  0.96913227706E+02 0.  0.
         23    2    1    2    0    0 -0.32482061862E+02 -0.10639987825E+02  0.15553024681E+02  0.98155116101E+02  0.90687576637E+02 0.  0.
          5    1    3    3  502    0  0.28338923801E+02 -0.28747879806E+02  0.26288340256E+02  0.48401467219E+02  0.47000000000E+01 0. -1.
         -5    1    3    3    0  502  0.41431380608E+01  0.39387867631E+02 -0.37896174764E+02  0.55016177359E+02  0.47000000000E+01 0.  1.
          5    1    4    4  503    0  0.23632185558E+02 -0.28775436124E+02  0.27889343358E+01  0.37634745556E+02  0.47000000000E+01 0. -1.
         -5    1    4    4    0  503 -0.56114247420E+02  0.18135448299E+02  0.12764090345E+02  0.60520370544E+02  0.47000000000E+01 0.  1.
<mgrwt>
<rscale>  0 0.10126958E+03</rscale>
<asrwt>0</asrwt>
<pdfrwt beam="1">  1        2 0.15809073E-01 0.10276413E+03</pdfrwt>
<pdfrwt beam="2">  1       -2 0.15202121E-01 0.10276413E+03</pdfrwt>
<totfact> 0.11199952E+04</totfact>
</mgrwt>
</event>
<event>
 8    1  0.3400573E-004  0.1157955E+03  0.7546771E-02  0.1250658E+00
          2   -1    0    0  501    0  0.00000000000E+00  0.00000000000E+00  0.28428463401E+03  0.28428463401E+03  0.00000000000E+00 0. -1.
         -2   -1    0    0    0  501 -0.00000000000E+00 -0.00000000000E+00 -0.94767573232E+02  0.94767573232E+02  0.00000000000E+00 0.  1.
         23    2    1    2    0    0 -0.44769476177E+02 -0.54897211614E+02  0.22989880457E+03  0.25741419315E+03  0.91600200078E+02 0.  0.
         23    2    1    2    0    0  0.44769476177E+02  0.54897211614E+02 -0.40381743794E+02  0.12163801409E+03  0.90261350528E+02 0.  0.
          5    1    3    3  502    0 -0.67862040021E+02 -0.61081711034E+02  0.18030652240E+03  0.20216024317E+03  0.47000000000E+01 0. -1.
         -5    1    4    4    0  503  0.10260402963E+02 -0.24851074193E+02 -0.14180310540E+02  0.30757486317E+02  0.47000000000E+01 0. -1.
          5    1    4    4  503    0  0.34509073214E+02  0.79748285807E+02 -0.26201433254E+02  0.90880527770E+02  0.47000000000E+01 0.  1.
         -5    1    3    3    0  502  0.23092563844E+02  0.61844994203E+01  0.49592282166E+02  0.55253949980E+02  0.47000000000E+01 0.  1.
<mgrwt>
<rscale>  0 0.11553059E+03</rscale>
<asrwt>0</asrwt>
<pdfrwt beam="1">  1        2 0.43736097E-01 0.11579554E+03</pdfrwt>
<pdfrwt beam="2">  1       -2 0.14579627E-01 0.11579554E+03</pdfrwt>
<totfact> 0.39711842E+03</totfact>
</mgrwt>
</event>
<event>
 8    1  0.3400573E-004  0.9724537E+02  0.7546771E-02  0.1286799E+00
         -1   -1    0    0    0  501 -0.00000000000E+00  0.00000000000E+00  0.58784835037E+03  0.58784835037E+03  0.00000000000E+00 0.  1.
          1   -1    0    0  501    0  0.00000000000E+00 -0.00000000000E+00 -0.55177973134E+02  0.55177973134E+02  0.00000000000E+00 0. -1.
         23    2    1    2    0    0  0.11143335510E+02  0.30920607076E+02  0.53800995381E+03  0.54672787780E+03  0.91522697148E+02 0.  0.
         23    2    1    2    0    0 -0.11143335510E+02 -0.30920607076E+02 -0.53395765736E+01  0.96298445707E+02  0.90358296240E+02 0.  0.
          5    1    3    3  502    0 -0.23174952564E+02 -0.21314812523E+02  0.12505414229E+03  0.12904273774E+03  0.47000000000E+01 0. -1.
         -5    1    4    4    0  503 -0.21923600583E+02  0.25519473174E+02  0.12108463936E+02  0.36063730706E+02  0.47000000000E+01 0.  1.
          5    1    4    4  503    0  0.10780265073E+02 -0.56440080249E+02 -0.17448040510E+02  0.60234715001E+02  0.47000000000E+01 0. -1.
         -5    1    3    3    0  502  0.34318288074E+02  0.52235419599E+02  0.41295581152E+03  0.41768514006E+03  0.47000000000E+01 0.  1.
<mgrwt>
<rscale>  0 0.96970438E+02</rscale>
<asrwt>0</asrwt>
<pdfrwt beam="1">  1        1 0.84889194E-02 0.97245370E+02</pdfrwt>
<pdfrwt beam="2">  1       -1 0.90438203E-01 0.97245370E+02</pdfrwt>
<totfact> 0.98310918E+02</totfact>
</mgrwt>
</event>
<event>
 8    1  0.3400573E-004  0.1239446E+03  0.7546771E-02  0.1236938E+00
         -2   -1    0    0    0  501 -0.00000000000E+00  0.00000000000E+00  0.90489989604E+02  0.90489989604E+02  0.00000000000E+00 0.  1.
          2   -1    0    0  501    0  0.00000000000E+00 -0.00000000000E+00 -0.28899930495E+03  0.28899930495E+03  0.00000000000E+00 0. -1.
         23    2    1    2    0    0 -0.43805663251E+02  0.70366825681E+02 -0.22162600987E+03  0.25392981264E+03  0.92151154147E+02 0.  0.
         23    2    1    2    0    0  0.43805663251E+02 -0.70366825681E+02  0.23116694519E+02  0.12555948191E+03  0.91435089782E+02 0.  0.
          5    1    4    4  502    0  0.15289688226E+02 -0.65525152608E+02 -0.22705634189E+02  0.71168504370E+02  0.47000000000E+01 0. -1.
         -5    1    3    3    0  503 -0.18827419474E+02  0.94877439877E+01  0.11102117908E+01  0.21628952361E+02  0.47000000000E+01 0.  1.
          5    1    3    3  503    0 -0.24978243777E+02  0.60879081693E+02 -0.22273622166E+03  0.23230086028E+03  0.47000000000E+01 0. -1.
         -5    1    4    4    0  502  0.28515975025E+02 -0.48416730731E+01  0.45822328708E+02  0.54390977542E+02  0.47000000000E+01 0.  1.
<mgrwt>
<rscale>  0 0.12381151E+03</rscale>
<asrwt>0</asrwt>
<pdfrwt beam="1">  1        2 0.44461432E-01 0.12394459E+03</pdfrwt>
<pdfrwt beam="2">  1       -2 0.13921537E-01 0.12394459E+03</pdfrwt>
<totfact> 0.42220876E+03</totfact>
</mgrwt>
</event>
<event>
 8    1  0.3400573E-004  0.1269533E+03  0.7546771E-02  0.1235901E+00
         -3   -1    0    0    0  501 -0.00000000000E+00  0.00000000000E+00  0.76176223249E+03  0.76176223249E+03  0.00000000000E+00 0.  1.
          3   -1    0    0  501    0  0.00000000000E+00 -0.00000000000E+00 -0.19580570353E+02  0.19580570353E+02  0.00000000000E+00 0. -1.
         23    2    1    2    0    0  0.43457912677E+01  0.74289372851E+02  0.38678404263E+03  0.40708602872E+03  0.10285592995E+03 0.  0.
         23    2    1    2    0    0 -0.43457912677E+01 -0.74289372851E+02  0.35539761950E+03  0.37425677412E+03  0.90680032009E+02 0.  0.
          5    1    4    4  502    0  0.16381328814E+02 -0.83278527017E+02  0.32590992488E+03  0.33681304922E+03  0.47000000000E+01 0. -1.
         -5    1    4    4    0  502 -0.20727120082E+02  0.89891541664E+01  0.29487694630E+02  0.37443724896E+02  0.47000000000E+01 0.  1.
          5    1    3    3  503    0  0.34821059444E+02  0.43163644191E+02  0.81604853524E+02  0.98777773205E+02  0.47000000000E+01 0. -1.
         -5    1    3    3    0  503 -0.30475268176E+02  0.31125728660E+02  0.30517918911E+03  0.30830825552E+03  0.47000000000E+01 0.  1.
<mgrwt>
<rscale>  0 0.12446949E+03</rscale>
<asrwt>0</asrwt>
<pdfrwt beam="1">  1        3 0.30123960E-02 0.12695330E+03</pdfrwt>
<pdfrwt beam="2">  1       -3 0.11719417E+00 0.12695330E+03</pdfrwt>
<totfact> 0.72575767E+02</totfact>
</mgrwt>
</event>
<event>
 8    1  0.3400573E-004  0.9185760E+02  0.7546771E-02  0.1299396E+00
          1   -1    0    0  501    0  0.00000000000E+00  0.00000000000E+00  0.11772334920E+03  0.11772334920E+03  0.00000000000E+00 0. -1.
         -1   -1    0    0    0  501 -0.00000000000E+00 -0.00000000000E+00 -0.13358967134E+03  0.13358967134E+03  0.00000000000E+00 0.  1.
         23    2    1    2    0    0 -0.64199351954E+01 -0.79787077512E+01 -0.94394827347E+02  0.13171257237E+03  0.91284954646E+02 0.  0.
         23    2    1    2    0    0  0.64199351954E+01  0.79787077512E+01  0.78528505206E+02  0.11960044818E+03  0.89625140053E+02 0.  0.
          5    1    4    4  502    0 -0.26577360933E+02 -0.22786113353E+02  0.87742202967E+01  0.36395604374E+02  0.47000000000E+01 0. -1.
         -5    1    4    4    0  502  0.32997296129E+02  0.30764821105E+02  0.69754284909E+02  0.83204843805E+02  0.47000000000E+01 0.  1.
          5    1    3    3  503    0  0.31380525660E+02  0.13620989410E+01 -0.25711505183E+01  0.31863670837E+02  0.47000000000E+01 0. -1.
         -5    1    3    3    0  503 -0.37800460856E+02 -0.93408066923E+01 -0.91823676828E+02  0.99848901530E+02  0.47000000000E+01 0.  1.
<mgrwt>
<rscale>  0 0.91442473E+02</rscale>
<asrwt>0</asrwt>
<pdfrwt beam="1">  1        1 0.18111285E-01 0.91857598E+02</pdfrwt>
<pdfrwt beam="2">  1       -1 0.20552257E-01 0.91857598E+02</pdfrwt>
<totfact> 0.52001478E+03</totfact>
</mgrwt>
</event>
<event>
 8    1  0.3400573E-004  0.1005225E+03  0.7546771E-02  0.1281246E+00
         -1   -1    0    0    0  501 -0.00000000000E+00  0.00000000000E+00  0.73838395290E+02  0.73838395290E+02  0.00000000000E+00 0.  1.
          1   -1    0    0  501    0  0.00000000000E+00 -0.00000000000E+00 -0.24632601528E+03  0.24632601528E+03  0.00000000000E+00 0. -1.
         23    2    1    2    0    0  0.22455943812E+02  0.13943809360E+02  0.23854233421E+02  0.99585865066E+02  0.93003337773E+02 0.  0.
         23    2    1    2    0    0 -0.22455943812E+02 -0.13943809360E+02 -0.19634185341E+03  0.22057854550E+03  0.96984906578E+02 0.  0.
          5    1    3    3  502    0  0.40304195058E+02  0.35995557869E+02 -0.10011484329E+02  0.55158210124E+02  0.47000000000E+01 0. -1.
         -5    1    3    3    0  502 -0.17848251247E+02 -0.22051748510E+02  0.33865717750E+02  0.44427654942E+02  0.47000000000E+01 0.  1.
          5    1    4    4  503    0 -0.41716083448E+02 -0.41578867192E+02 -0.16113747501E+03  0.17162869710E+03  0.47000000000E+01 0. -1.
         -5    1    4    4    0  503  0.19260139636E+02  0.27635057832E+02 -0.35204378396E+02  0.48949848401E+02  0.47000000000E+01 0.  1.
<mgrwt>
<rscale>  0 0.99549511E+02</rscale>
<asrwt>0</asrwt>
<pdfrwt beam="1">  1        1 0.37896310E-01 0.10052249E+03</pdfrwt>
<pdfrwt beam="2">  1       -1 0.11359753E-01 0.10052249E+03</pdfrwt>
<totfact> 0.52697999E+03</totfact>
</mgrwt>
</event>
<event>
 8    1  0.3400573E-004  0.1611891E+03  0.7546771E-02  0.1187552E+00
          1   -1    0    0  501    0  0.00000000000E+00  0.00000000000E+00  0.14090161370E+04  0.14090161370E+04  0.00000000000E+00 0. -1.
         -1   -1    0    0    0  501 -0.00000000000E+00 -0.00000000000E+00 -0.32702872839E+02  0.32702872839E+02  0.00000000000E+00 0.  1.
         23    2    1    2    0    0 -0.85609865921E+02 -0.10020491943E+03  0.11663445300E+04  0.11774300401E+04  0.92800117509E+02 0.  0.
         23    2    1    2    0    0  0.85609865921E+02  0.10020491943E+03  0.20996873422E+03  0.26428896973E+03  0.91606305184E+02 0.  0.
          5    1    4    4  502    0  0.38507080703E+02 -0.41955383482E+01  0.23938590987E+02  0.45777111581E+02  0.47000000000E+01 0. -1.
         -5    1    3    3    0  503 -0.10709975617E+02  0.17746618992E+02  0.13843296575E+03  0.14005506799E+03  0.47000000000E+01 0.  1.
          5    1    3    3  503    0 -0.74899890304E+02 -0.11795153842E+03  0.10279115642E+04  0.10373749721E+04  0.47000000000E+01 0. -1.
         -5    1    4    4    0  502  0.47102785218E+02  0.10440045778E+03  0.18603014323E+03  0.21851185815E+03  0.47000000000E+01 0.  1.
<mgrwt>
<rscale>  0 0.16101778E+03</rscale>
<asrwt>0</asrwt>
<pdfrwt beam="1">  1        1 0.21677167E+00 0.16118913E+03</pdfrwt>
<pdfrwt beam="2">  1       -1 0.50312123E-02 0.16118913E+03</pdfrwt>
<totfact> 0.14397309E+03</totfact>
</mgrwt>
</event>
<event>
 8    1  0.3400573E-004  0.9127085E+02  0.7546771E-02  0.1300408E+00
         -1   -1    0    0    0  501 -0.00000000000E+00  0.00000000000E+00  0.13887052096E+02  0.13887052096E+02  0.00000000000E+00 0.  1.
          1   -1    0    0  501    0  0.00000000000E+00 -0.00000000000E+00 -0.83404207577E+03  0.83404207577E+03  0.00000000000E+00 0. -1.
         23    2    1    2    0    0 -0.94061308666E+01  0.94493435883E+01 -0.63625783413E+03  0.64262802172E+03  0.89269129111E+02 0.  0.
         23    2    1    2    0    0  0.94061308666E+01 -0.94493435883E+01 -0.18389718955E+03  0.20530110615E+03  0.90291763036E+02 0.  0.
          5    1    3    3  502    0  0.16689740856E+02 -0.34535401478E+02 -0.24946504062E+03  0.25244036503E+03  0.47000000000E+01 0. -1.
         -5    1    4    4    0  503 -0.26402753160E+02 -0.72024970379E+00 -0.11920951030E+02  0.29356825570E+02  0.47000000000E+01 0.  1.
          5    1    4    4  503    0  0.35808884027E+02 -0.87290938845E+01 -0.17197623852E+03  0.17594428059E+03  0.47000000000E+01 0. -1.
         -5    1    3    3    0  502 -0.26095871723E+02  0.43984745066E+02 -0.38679279351E+03  0.39018765669E+03  0.47000000000E+01 0.  1.
<mgrwt>
<rscale>  0 0.91016906E+02</rscale>
<asrwt>0</asrwt>
<pdfrwt beam="1">  1        1 0.12831423E+00 0.91270849E+02</pdfrwt>
<pdfrwt beam="2">  1       -1 0.21364685E-02 0.91270849E+02</pdfrwt>
<totfact> 0.12488333E+04</totfact>
</mgrwt>
</event>
<event>
 8    1  0.3400573E-004  0.1213417E+03  0.7546771E-02  0.1241470E+00
         -1   -1    0    0    0  501 -0.00000000000E+00  0.00000000000E+00  0.20520446479E+03  0.20520446479E+03  0.00000000000E+00 0.  1.
          1   -1    0    0  501    0  0.00000000000E+00 -0.00000000000E+00 -0.81057533297E+02  0.81057533297E+02  0.00000000000E+00 0. -1.
         23    2    1    2    0    0 -0.64273773071E-01  0.79852063171E+02  0.11235064975E+03  0.16434825312E+03  0.89505998030E+02 0.  0.
         23    2    1    2    0    0  0.64273773071E-01 -0.79852063171E+02  0.11796281749E+02  0.12191374496E+03  0.91364395823E+02 0.  0.
          5    1    4    4  502    0 -0.38143667715E+02 -0.25712260567E+02 -0.17326431123E+02  0.49379701757E+02  0.47000000000E+01 0. -1.
         -5    1    4    4    0  502  0.38207941488E+02 -0.54139802604E+02  0.29122712872E+02  0.72534043206E+02  0.47000000000E+01 0.  1.
          5    1    3    3  503    0  0.22868954751E+02 -0.10949686430E+02  0.18980756670E+02  0.32019429228E+02  0.47000000000E+01 0.  1.
         -5    1    3    3    0  503 -0.22933228524E+02  0.90801749601E+02  0.93369893075E+02  0.13232882390E+03  0.47000000000E+01 0. -1.
<mgrwt>
<rscale>  0 0.12099193E+03</rscale>
<asrwt>0</asrwt>
<pdfrwt beam="1">  1        1 0.12470390E-01 0.12134170E+03</pdfrwt>
<pdfrwt beam="2">  1       -1 0.31569918E-01 0.12134170E+03</pdfrwt>
<totfact> 0.42397161E+03</totfact>
</mgrwt>
</event>
<event>
 8    1  0.3400573E-004  0.1020022E+03  0.7546771E-02  0.1279942E+00
         -1   -1    0    0    0  501 -0.00000000000E+00  0.00000000000E+00  0.84056705333E+02  0.84056705333E+02  0.00000000000E+00 0.  1.
          1   -1    0    0  501    0  0.00000000000E+00 -0.00000000000E+00 -0.11568321645E+03  0.11568321645E+03  0.00000000000E+00 0. -1.
         23    2    1    2    0    0  0.25169464866E+02  0.69018238661E+01 -0.21223215470E+02  0.97208602800E+02  0.91202798472E+02 0.  0.
         23    2    1    2    0    0 -0.25169464866E+02 -0.69018238661E+01 -0.10403295651E+02  0.10253131899E+03  0.98606823691E+02 0.  0.
          5    1    4    4  502    0  0.28206819544E+02 -0.24689257419E+02 -0.23608872913E+02  0.44549444227E+02  0.47000000000E+01 0. -1.
         -5    1    4    4    0  502 -0.53376284410E+02  0.17787433553E+02  0.13205577262E+02  0.57981874759E+02  0.47000000000E+01 0.  1.
          5    1    3    3  503    0  0.40558487368E+02  0.34372876973E+02 -0.33581103940E+02  0.63057641177E+02  0.47000000000E+01 0. -1.
         -5    1    3    3    0  503 -0.15389022502E+02 -0.27471053107E+02  0.12357888470E+02  0.34150961623E+02  0.47000000000E+01 0.  1.
<mgrwt>
<rscale>  0 0.10016866E+03</rscale>
<asrwt>0</asrwt>
<pdfrwt beam="1">  1        1 0.17797418E-01 0.10200217E+03</pdfrwt>
<pdfrwt beam="2">  1       -1 0.12931801E-01 0.10200217E+03</pdfrwt>
<totfact> 0.11068241E+04</totfact>
</mgrwt>
</event>
<event>
 8    1  0.3400573E-004  0.1514466E+03  0.7546771E-02  0.1200933E+00
          1   -1    0    0  501    0  0.00000000000E+00  0.00000000000E+00  0.10086919068E+03  0.10086919068E+03  0.00000000000E+00 0. -1.
         -1   -1    0    0    0  501 -0.00000000000E+00 -0.00000000000E+00 -0.24641011293E+03  0.24641011293E+03  0.00000000000E+00 0.  1.
         23    2    1    2    0    0 -0.82241551866E+02 -0.74681885867E+02 -0.11022088411E+02  0.14471724347E+03  0.92089832207E+02 0.  0.
         23    2    1    2    0    0  0.82241551866E+02  0.74681885867E+02 -0.13451883384E+03  0.20256206013E+03  0.10293208741E+03 0.  0.
          5    1    4    4  502    0  0.39102572642E+01 -0.24317600040E+02 -0.20486428701E+02  0.32379307350E+02  0.47000000000E+01 0. -1.
         -5    1    4    4    0  502  0.78331294602E+02  0.98999485907E+02 -0.11403240513E+03  0.17018275278E+03  0.47000000000E+01 0.  1.
          5    1    3    3  503    0 -0.10212500242E+03 -0.59302008126E+02 -0.13813751015E+02  0.11899224347E+03  0.47000000000E+01 0. -1.
         -5    1    3    3    0  503  0.19883450557E+02 -0.15379877741E+02  0.27916626041E+01  0.25725000009E+02  0.47000000000E+01 0.  1.
<mgrwt>
<rscale>  0 0.14962663E+03</rscale>
<asrwt>0</asrwt>
<pdfrwt beam="1">  1        1 0.15518337E-01 0.15144660E+03</pdfrwt>
<pdfrwt beam="2">  1       -1 0.37909248E-01 0.15144660E+03</pdfrwt>
<totfact> 0.23592611E+03</totfact>
</mgrwt>
</event>
<event>
 8    1  0.3400573E-004  0.1105690E+03  0.7546771E-02  0.1260789E+00
         -1   -1    0    0    0  501 -0.00000000000E+00  0.00000000000E+00  0.96830372324E+02  0.96830372324E+02  0.00000000000E+00 0.  1.
          1   -1    0    0  501    0  0.00000000000E+00 -0.00000000000E+00 -0.21664577301E+03  0.21664577301E+03  0.00000000000E+00 0. -1.
         23    2    1    2    0    0 -0.12345847924E+02 -0.55626528582E+02  0.42620590438E+02  0.11849905958E+03  0.94756433812E+02 0.  0.
         23    2    1    2    0    0  0.12345847924E+02  0.55626528582E+02 -0.16243599113E+03  0.19497708576E+03  0.91563541402E+02 0.  0.
          5    1    4    4  502    0 -0.28945349592E+02  0.14756312068E+02 -0.14339509785E+02  0.35823086826E+02  0.47000000000E+01 0.  1.
         -5    1    4    4    0  502  0.41291197516E+02  0.40870216513E+02 -0.14809648134E+03  0.15915399893E+03  0.47000000000E+01 0. -1.
          5    1    3    3  503    0 -0.88252502600E+01  0.26217843848E+02  0.62632178640E+01  0.28750274368E+02  0.47000000000E+01 0. -1.
         -5    1    3    3    0  503 -0.35205976644E+01 -0.81844372430E+02  0.36357372574E+02  0.89748785211E+02  0.47000000000E+01 0.  1.
<mgrwt>
<rscale>  0 0.10988173E+03</rscale>
<asrwt>0</asrwt>
<pdfrwt beam="1">  1        1 0.33330118E-01 0.11056904E+03</pdfrwt>
<pdfrwt beam="2">  1       -1 0.14896981E-01 0.11056904E+03</pdfrwt>
<totfact> 0.40880434E+03</totfact>
</mgrwt>
</event>
<event>
 8    1  0.3400573E-004  0.9962400E+02  0.7546771E-02  0.1283082E+00
         -2   -1    0    0    0  501 -0.00000000000E+00  0.00000000000E+00  0.49423008798E+02  0.49423008798E+02  0.00000000000E+00 0.  1.
          2   -1    0    0  501    0  0.00000000000E+00 -0.00000000000E+00 -0.24624341141E+03  0.24624341141E+03  0.00000000000E+00 0. -1.
         23    2    1    2    0    0 -0.34132148607E+02 -0.10478085609E+02 -0.16832264340E+03  0.19559512750E+03  0.93006170631E+02 0.  0.
         23    2    1    2    0    0  0.34132148607E+02  0.10478085609E+02 -0.28497759214E+02  0.10007129271E+03  0.89035652954E+02 0.  0.
          5    1    4    4  502    0  0.91697726509E+01  0.42680328129E+02  0.86315873462E+01  0.44746948944E+02  0.47000000000E+01 0. -1.
         -5    1    3    3    0  503  0.40105832478E+01  0.28831339174E+02 -0.15767578547E+02  0.33437066704E+02  0.47000000000E+01 0.  1.
          5    1    3    3  503    0 -0.38142731855E+02 -0.39309424782E+02 -0.15255506485E+03  0.16215806080E+03  0.47000000000E+01 0. -1.
         -5    1    4    4    0  502  0.24962375956E+02 -0.32202242520E+02 -0.37129346560E+02  0.55324343762E+02  0.47000000000E+01 0.  1.
<mgrwt>
<rscale>  0 0.98686807E+02</rscale>
<asrwt>0</asrwt>
<pdfrwt beam="1">  1        2 0.37883603E-01 0.99624001E+02</pdfrwt>
<pdfrwt beam="2">  1       -2 0.76035397E-02 0.99624001E+02</pdfrwt>
<totfact> 0.12704547E+04</totfact>
</mgrwt>
</event>
<event>
 7    1  0.3400573E-004  0.1783126E+03  0.7546771E-02  0.1180330E+00
         -1   -1    0    0    0  501 -0.00000000000E+00  0.00000000000E+00  0.17601916917E+03  0.17601916917E+03  0.00000000000E+00 0.  1.
          1   -1    0    0  501    0  0.00000000000E+00 -0.00000000000E+00 -0.25293103819E+03  0.25293103819E+03  0.00000000000E+00 0. -1.
         23    2    1    2    0    0  0.36477008601E+02  0.11366732597E+03  0.10482736402E+03  0.17434361733E+03  0.71805901619E+02 0.  0.
          5    1    1    2  502    0 -0.60501791712E+02 -0.13351226574E+03 -0.15338843576E+03  0.21221709198E+03  0.47000000000E+01 0. -1.
         -5    1    1    2    0  502  0.24024783111E+02  0.19844939770E+02 -0.28350797291E+02  0.42389498052E+02  0.47000000000E+01 0.  1.
          5    1    3    3  503    0  0.21117160550E+01  0.31100804155E+02 -0.57547542382E+01  0.32045694877E+02  0.47000000000E+01 0. -1.
         -5    1    3    3    0  503  0.34365292546E+02  0.82566521813E+02  0.11058211826E+03  0.14229792246E+03  0.47000000000E+01 0.  1.
<mgrwt>
<rscale>  0 0.16764130E+03</rscale>
<asrwt>0</asrwt>
<pdfrwt beam="1">  1        1 0.38912467E-01 0.17831255E+03</pdfrwt>
<pdfrwt beam="2">  1       -1 0.27079872E-01 0.17831255E+03</pdfrwt>
<totfact> 0.13139716E+03</totfact>
</mgrwt>
</event>
<event>
 8    1  0.3400573E-004  0.1537788E+03  0.7546771E-02  0.1198855E+00
          1   -1    0    0  501    0  0.00000000000E+00  0.00000000000E+00  0.59593628520E+03  0.59593628520E+03  0.00000000000E+00 0. -1.
         -1   -1    0    0    0  501 -0.00000000000E+00 -0.00000000000E+00 -0.48824346147E+02  0.48824346147E+02  0.00000000000E+00 0.  1.
         23    2    1    2    0    0 -0.11611341443E+03 -0.42947908548E+02  0.43719370753E+03  0.46345039345E+03  0.91219961735E+02 0.  0.
         23    2    1    2    0    0  0.11611341443E+03  0.42947908548E+02  0.10991823151E+03  0.18131023790E+03  0.73922505961E+02 0.  0.
          5    1    4    4  502    0  0.42137837536E+02  0.51867444456E+02  0.69007506233E+02  0.96176686692E+02  0.47000000000E+01 0. -1.
         -5    1    3    3    0  503  0.66130223759E+01 -0.27728356676E+02  0.62649477556E+02  0.68990150506E+02  0.47000000000E+01 0.  1.
          5    1    3    3  503    0 -0.12272643681E+03 -0.15219551872E+02  0.37454422998E+03  0.39446024294E+03  0.47000000000E+01 0. -1.
         -5    1    4    4    0  502  0.73975576894E+02 -0.89195359079E+01  0.40910725282E+02  0.85133551204E+02  0.47000000000E+01 0.  1.
<mgrwt>
<rscale>  0 0.15132401E+03</rscale>
<asrwt>0</asrwt>
<pdfrwt beam="1">  1        1 0.91682500E-01 0.15377883E+03</pdfrwt>
<pdfrwt beam="2">  1       -1 0.75114383E-02 0.15377883E+03</pdfrwt>
<totfact> 0.32975260E+03</totfact>
</mgrwt>
</event>
<event>
 8    1  0.3400573E-004  0.1073185E+03  0.7546771E-02  0.1266697E+00
         -1   -1    0    0    0  501 -0.00000000000E+00  0.00000000000E+00  0.33593078672E+02  0.33593078672E+02  0.00000000000E+00 0.  1.
          1   -1    0    0  501    0  0.00000000000E+00 -0.00000000000E+00 -0.34221039505E+03  0.34221039505E+03  0.00000000000E+00 0. -1.
         23    2    1    2    0    0 -0.53589921040E+02  0.11789810360E+02 -0.13010259634E+03  0.16865333992E+03  0.92230061408E+02 0.  0.
         23    2    1    2    0    0  0.53589921040E+02 -0.11789810360E+02 -0.17851472004E+03  0.20715013380E+03  0.89625852285E+02 0.  0.
          5    1    4    4  502    0  0.66795741288E+02  0.82536269202E+01 -0.16700612895E+03  0.18011921197E+03  0.47000000000E+01 0. -1.
         -5    1    3    3    0  503 -0.31803753420E+02 -0.39489365115E+02 -0.54047563551E+02  0.74257106156E+02  0.47000000000E+01 0.  1.
          5    1    3    3  503    0 -0.21786167620E+02  0.51279175475E+02 -0.76055032787E+02  0.94396233766E+02  0.47000000000E+01 0. -1.
         -5    1    4    4    0  502 -0.13205820248E+02 -0.20043437280E+02 -0.11508591086E+02  0.27030921834E+02  0.47000000000E+01 0.  1.
<mgrwt>
<rscale>  0 0.10675671E+03</rscale>
<asrwt>0</asrwt>
<pdfrwt beam="1">  1        1 0.52647749E-01 0.10731851E+03</pdfrwt>
<pdfrwt beam="2">  1       -1 0.51681663E-02 0.10731851E+03</pdfrwt>
<totfact> 0.11493660E+04</totfact>
</mgrwt>
</event>
<event>
 8    1  0.3400573E-004  0.1115983E+03  0.7546771E-02  0.1259973E+00
          1   -1    0    0  501    0  0.00000000000E+00  0.00000000000E+00  0.48558088325E+03  0.48558088325E+03  0.00000000000E+00 0. -1.
         -1   -1    0    0    0  501 -0.00000000000E+00 -0.00000000000E+00 -0.27401350685E+02  0.27401350685E+02  0.00000000000E+00 0.  1.
         23    2    1    2    0    0 -0.43713249266E+02 -0.47291379756E+02  0.14105699255E+03  0.17679643117E+03  0.84926910749E+02 0.  0.
         23    2    1    2    0    0  0.43713249266E+02  0.47291379756E+02  0.31712254002E+03  0.33618580276E+03  0.91142009135E+02 0.  0.
          5    1    3    3  502    0 -0.24811531034E+02  0.18217134440E+02  0.77282656042E+02  0.83319715460E+02  0.47000000000E+01 0. -1.
         -5    1    3    3    0  502 -0.18901718232E+02 -0.65508514196E+02  0.63774336504E+02  0.93476715715E+02  0.47000000000E+01 0.  1.
          5    1    4    4  503    0  0.35913039942E+02 -0.18412364632E+02  0.17021730231E+03  0.17499937604E+03  0.47000000000E+01 0. -1.
         -5    1    4    4    0  503  0.78002093243E+01  0.65703744389E+02  0.14690523771E+03  0.16118642672E+03  0.47000000000E+01 0.  1.
<mgrwt>
<rscale>  0 0.11032276E+03</rscale>
<asrwt>0</asrwt>
<pdfrwt beam="1">  1        1 0.74704745E-01 0.11159834E+03</pdfrwt>
<pdfrwt beam="2">  1       -1 0.42155928E-02 0.11159834E+03</pdfrwt>
<totfact> 0.10016198E+04</totfact>
</mgrwt>
</event>
<event>
 8    1  0.3400573E-004  0.1507477E+03  0.7546771E-02  0.1199650E+00
         -1   -1    0    0    0  501 -0.00000000000E+00  0.00000000000E+00  0.10554084390E+03  0.10554084390E+03  0.00000000000E+00 0.  1.
          1   -1    0    0  501    0  0.00000000000E+00 -0.00000000000E+00 -0.22201828418E+03  0.22201828418E+03  0.00000000000E+00 0. -1.
         23    2    1    2    0    0  0.16799533651E+01  0.11992875515E+03 -0.87657327119E+02  0.17438079346E+03  0.91318812830E+02 0.  0.
         23    2    1    2    0    0 -0.16799533651E+01 -0.11992875515E+03 -0.28820113163E+02  0.15317833462E+03  0.90814507207E+02 0.  0.
          5    1    4    4  502    0 -0.34048009575E+02 -0.36410143906E+02 -0.38222481989E+02  0.62992171456E+02  0.47000000000E+01 0. -1.
         -5    1    3    3    0  503 -0.46938831359E+01  0.27780337504E+02  0.18155156777E+02  0.33844931797E+02  0.47000000000E+01 0.  1.
          5    1    3    3  503    0  0.63738365010E+01  0.92148417644E+02 -0.10581248390E+03  0.14053586167E+03  0.47000000000E+01 0. -1.
         -5    1    4    4    0  502  0.32368056210E+02 -0.83518611242E+02  0.94023688258E+01  0.90186163164E+02  0.47000000000E+01 0.  1.
<mgrwt>
<rscale>  0 0.15067135E+03</rscale>
<asrwt>0</asrwt>
<pdfrwt beam="1">  1        1 0.34156659E-01 0.15074765E+03</pdfrwt>
<pdfrwt beam="2">  1       -1 0.16237053E-01 0.15074765E+03</pdfrwt>
<totfact> 0.35225483E+03</totfact>
</mgrwt>
</event>
<event>
 8    1  0.3400573E-004  0.1084645E+03  0.7546771E-02  0.1263809E+00
         -1   -1    0    0    0  501 -0.00000000000E+00  0.00000000000E+00  0.99369587392E+03  0.99369587392E+03  0.00000000000E+00 0.  1.
          1   -1    0    0  501    0  0.00000000000E+00 -0.00000000000E+00 -0.13216333773E+02  0.13216333773E+02  0.00000000000E+00 0. -1.
         23    2    1    2    0    0  0.54942538681E+02 -0.14232751211E+02  0.65612085368E+03  0.66489889045E+03  0.91513420422E+02 0.  0.
         23    2    1    2    0    0 -0.54942538681E+02  0.14232751211E+02  0.32435868647E+03  0.34201331725E+03  0.92429962270E+02 0.  0.
          5    1    4    4  502    0  0.14196217474E+02  0.33021628235E+02  0.12333565288E+03  0.12855245541E+03  0.47000000000E+01 0. -1.
         -5    1    4    4    0  502 -0.69138756155E+02 -0.18788877024E+02  0.20102303359E+03  0.21346086184E+03  0.47000000000E+01 0.  1.
          5    1    3    3  503    0 -0.18794455601E+01  0.29824927946E+02  0.11145283661E+03  0.11548542519E+03  0.47000000000E+01 0. -1.
         -5    1    3    3    0  503  0.56821984241E+02 -0.44057679157E+02  0.54466801707E+03  0.54941346526E+03  0.47000000000E+01 0.  1.
<mgrwt>
<rscale>  0 0.10826900E+03</rscale>
<asrwt>0</asrwt>
<pdfrwt beam="1">  1        1 0.20332829E-02 0.10846452E+03</pdfrwt>
<pdfrwt beam="2">  1       -1 0.15287623E+00 0.10846452E+03</pdfrwt>
<totfact> 0.20339228E+03</totfact>
</mgrwt>
</event>
<event>
 8    1  0.3400573E-004  0.1333970E+03  0.7546771E-02  0.1222716E+00
          1   -1    0    0  501    0  0.00000000000E+00  0.00000000000E+00  0.40626186056E+03  0.40626186056E+03  0.00000000000E+00 0. -1.
         -1   -1    0    0    0  501 -0.00000000000E+00 -0.00000000000E+00 -0.52968002661E+02  0.52968002661E+02  0.00000000000E+00 0.  1.
         23    2    1    2    0    0  0.20505538081E+02 -0.94058891828E+02  0.80434019590E+02  0.15577032965E+03  0.92342903719E+02 0.  0.
         23    2    1    2    0    0 -0.20505538081E+02  0.94058891828E+02  0.27285983831E+03  0.30345953357E+03  0.91474832230E+02 0.  0.
          5    1    3    3  502    0  0.48065427833E+02 -0.20684010613E+02  0.18279050279E+02  0.55626678194E+02  0.47000000000E+01 0. -1.
         -5    1    4    4    0  503  0.10311746442E+02  0.64710625257E+02  0.69475980154E+02  0.95617984471E+02  0.47000000000E+01 0.  1.
          5    1    4    4  503    0 -0.30817284522E+02  0.29348266570E+02  0.20338385815E+03  0.20784154910E+03  0.47000000000E+01 0. -1.
         -5    1    3    3    0  502 -0.27559889752E+02 -0.73374881214E+02  0.62154969311E+02  0.10014365145E+03  0.47000000000E+01 0.  1.
<mgrwt>
<rscale>  0 0.13324690E+03</rscale>
<asrwt>0</asrwt>
<pdfrwt beam="1">  1        1 0.62501823E-01 0.13339702E+03</pdfrwt>
<pdfrwt beam="2">  1       -1 0.81489237E-02 0.13339702E+03</pdfrwt>
<totfact> 0.47794309E+03</totfact>
</mgrwt>
</event>
<event>
 8    1  0.3400573E-004  0.9099043E+02  0.7546771E-02  0.1300877E+00
          1   -1    0    0  501    0  0.00000000000E+00  0.00000000000E+00  0.55043331881E+03  0.55043331881E+03  0.00000000000E+00 0. -1.
         -1   -1    0    0    0  501 -0.00000000000E+00 -0.00000000000E+00 -0.16034314714E+02  0.16034314714E+02  0.00000000000E+00 0.  1.
         23    2    1    2    0    0  0.47598310185E+01 -0.35450620007E+01  0.34061895390E+03  0.35238828594E+03  0.90116640302E+02 0.  0.
         23    2    1    2    0    0 -0.47598310185E+01  0.35450620007E+01  0.19378005020E+03  0.21407934758E+03  0.90796672574E+02 0.  0.
          5    1    3    3  502    0  0.37935398027E+02  0.25459030211E+02  0.16652007223E+03  0.17273760765E+03  0.47000000000E+01 0.  1.
         -5    1    3    3    0  502 -0.33175567009E+02 -0.29004092212E+02  0.17409888167E+03  0.17965067829E+03  0.47000000000E+01 0. -1.
          5    1    4    4  503    0 -0.46754918233E+02 -0.56097706010E+01  0.90854099954E+02  0.10244046751E+03  0.47000000000E+01 0. -1.
         -5    1    4    4    0  503  0.41995087215E+02  0.91548326017E+01  0.10292595025E+03  0.11163888007E+03  0.47000000000E+01 0.  1.
<mgrwt>
<rscale>  0 0.90820315E+02</rscale>
<asrwt>0</asrwt>
<pdfrwt beam="1">  1        1 0.84682035E-01 0.90990435E+02</pdfrwt>
<pdfrwt beam="2">  1       -1 0.24668181E-02 0.90990435E+02</pdfrwt>
<totfact> 0.18165489E+04</totfact>
</mgrwt>
</event>
<event>
 8    1  0.3400573E-004  0.1719306E+03  0.7546771E-02  0.1175851E+00
         -1   -1    0    0    0  501 -0.00000000000E+00  0.00000000000E+00  0.12016952807E+03  0.12016952807E+03  0.00000000000E+00 0.  1.
          1   -1    0    0  501    0  0.00000000000E+00 -0.00000000000E+00 -0.42407612340E+03  0.42407612340E+03  0.00000000000E+00 0. -1.
         23    2    1    2    0    0  0.89389380561E+02  0.11227818588E+03 -0.32830468088E+03  0.37059966502E+03  0.94674684306E+02 0.  0.
         23    2    1    2    0    0 -0.89389380561E+02 -0.11227818588E+03  0.24398085548E+02  0.17364598645E+03  0.94661553188E+02 0.  0.
          5    1    4    4  502    0  0.19591808968E+02 -0.25673005543E+02  0.52328554957E+01  0.33051701453E+02  0.47000000000E+01 0. -1.
         -5    1    4    4    0  502 -0.10898118953E+03 -0.86605180337E+02  0.19165230052E+02  0.14059428500E+03  0.47000000000E+01 0.  1.
          5    1    3    3  503    0  0.10161894363E+03  0.61094773001E+02 -0.23899133402E+03  0.26682940005E+03  0.47000000000E+01 0. -1.
         -5    1    3    3    0  503 -0.12229563067E+02  0.51183412879E+02 -0.89313346851E+02  0.10377026497E+03  0.47000000000E+01 0.  1.
<mgrwt>
<rscale>  0 0.17192884E+03</rscale>
<asrwt>0</asrwt>
<pdfrwt beam="1">  1        1 0.65242481E-01 0.17193065E+03</pdfrwt>
<pdfrwt beam="2">  1       -1 0.18487620E-01 0.17193065E+03</pdfrwt>
<totfact> 0.12805495E+03</totfact>
</mgrwt>
</event>
<event>
 8    1  0.3400573E-004  0.9612009E+02  0.7546771E-02  0.1289801E+00
          2   -1    0    0  501    0  0.00000000000E+00  0.00000000000E+00  0.58967388905E+03  0.58967388905E+03  0.00000000000E+00 0. -1.
         -2   -1    0    0    0  501 -0.00000000000E+00 -0.00000000000E+00 -0.18526815208E+02  0.18526815208E+02  0.00000000000E+00 0.  1.
         23    2    1    2    0    0  0.11845718815E+02  0.17795166628E+02  0.15699316950E+03  0.18303893637E+03  0.91648283922E+02 0.  0.
         23    2    1    2    0    0 -0.11845718815E+02 -0.17795166628E+02  0.41415390434E+03  0.42516176789E+03  0.93712770675E+02 0.  0.
          5    1    3    3  502    0  0.40905523848E+02 -0.18670759100E+02  0.58226959764E+02  0.73717894503E+02  0.47000000000E+01 0. -1.
         -5    1    4    4    0  503 -0.51303383985E+02 -0.18588258584E+02  0.20067627814E+03  0.20801591087E+03  0.47000000000E+01 0.  1.
          5    1    4    4  503    0  0.39457665170E+02  0.79309195523E+00  0.21347762620E+03  0.21714585702E+03  0.47000000000E+01 0. -1.
         -5    1    3    3    0  502 -0.29059805033E+02  0.36465925728E+02  0.98766209739E+02  0.10932104186E+03  0.47000000000E+01 0.  1.
<mgrwt>
<rscale>  0 0.95613182E+02</rscale>
<asrwt>0</asrwt>
<pdfrwt beam="1">  1        2 0.90719046E-01 0.96120094E+02</pdfrwt>
<pdfrwt beam="2">  1       -2 0.28502797E-02 0.96120094E+02</pdfrwt>
<totfact> 0.21479880E+04</totfact>
</mgrwt>
</event>
<event>
 8    1  0.3400573E-004  0.1057027E+03  0.7546771E-02  0.1269026E+00
         -3   -1    0    0    0  501 -0.00000000000E+00  0.00000000000E+00  0.11632412325E+04  0.11632412325E+04  0.00000000000E+00 0.  1.
          3   -1    0    0  501    0  0.00000000000E+00 -0.00000000000E+00 -0.10427197761E+02  0.10427197761E+02  0.00000000000E+00 0. -1.
         23    2    1    2    0    0  0.30100170673E+02  0.43316379449E+02  0.74492496063E+03  0.75230569218E+03  0.90930349794E+02 0.  0.
         23    2    1    2    0    0 -0.30100170673E+02 -0.43316379449E+02  0.40788907415E+03  0.42136273812E+03  0.91600934838E+02 0.  0.
          5    1    4    4  502    0 -0.35067441409E+02  0.17888110758E+02  0.10409643704E+03  0.11139061073E+03  0.47000000000E+01 0. -1.
         -5    1    3    3    0  503  0.54805192547E+02  0.52797206410E+02  0.60854841183E+03  0.61330613373E+03  0.47000000000E+01 0.  1.
          5    1    3    3  503    0 -0.24705021874E+02 -0.94808269605E+01  0.13637654880E+03  0.13899955845E+03  0.47000000000E+01 0. -1.
         -5    1    4    4    0  502  0.49672707350E+01 -0.61204490207E+02  0.30379263711E+03  0.30997212739E+03  0.47000000000E+01 0.  1.
<mgrwt>
<rscale>  0 0.10555725E+03</rscale>
<asrwt>0</asrwt>
<pdfrwt beam="1">  1        3 0.16041852E-02 0.10570270E+03</pdfrwt>
<pdfrwt beam="2">  1       -3 0.17896009E+00 0.10570270E+03</pdfrwt>
<totfact> 0.64855255E+02</totfact>
</mgrwt>
</event>
<event>
 8    1  0.3400573E-004  0.9690251E+02  0.7546771E-02  0.1286960E+00
          2   -1    0    0  501    0  0.00000000000E+00  0.00000000000E+00  0.83641225112E+02  0.83641225112E+02  0.00000000000E+00 0. -1.
         -2   -1    0    0    0  501 -0.00000000000E+00 -0.00000000000E+00 -0.14607995597E+03  0.14607995597E+03  0.00000000000E+00 0.  1.
         23    2    1    2    0    0  0.30414984268E+02 -0.36159472300E+01 -0.86505507570E+02  0.12989726570E+03  0.91934490007E+02 0.  0.
         23    2    1    2    0    0 -0.30414984268E+02  0.36159472300E+01  0.24066776706E+02  0.99823915391E+02  0.91910053860E+02 0.  0.
          5    1    3    3  502    0 -0.30940246123E+02 -0.14024725925E+02 -0.34714163331E+02  0.48797078838E+02  0.47000000000E+01 0. -1.
         -5    1    3    3    0  502  0.61355230390E+02  0.10408778695E+02 -0.51791344239E+02  0.81100186857E+02  0.47000000000E+01 0.  1.
          5    1    4    4  503    0 -0.12735378584E+02 -0.30308558744E+02  0.45028103147E+02  0.55950144538E+02  0.47000000000E+01 0. -1.
         -5    1    4    4    0  503 -0.17679605683E+02  0.33924505974E+02 -0.20961326440E+02  0.43873770853E+02  0.47000000000E+01 0.  1.
<mgrwt>
<rscale>  0 0.96896716E+02</rscale>
<asrwt>0</asrwt>
<pdfrwt beam="1">  1        2 0.12867881E-01 0.96902512E+02</pdfrwt>
<pdfrwt beam="2">  1       -2 0.22473839E-01 0.96902512E+02</pdfrwt>
<totfact> 0.73929992E+03</totfact>
</mgrwt>
</event>
<event>
 8    1  0.3400573E-004  0.1264103E+03  0.7546771E-02  0.1233398E+00
          3   -1    0    0  501    0  0.00000000000E+00  0.00000000000E+00  0.27845370199E+02  0.27845370199E+02  0.00000000000E+00 0. -1.
         -3   -1    0    0    0  501 -0.00000000000E+00 -0.00000000000E+00 -0.66858282271E+03  0.66858282271E+03  0.00000000000E+00 0.  1.
         23    2    1    2    0    0 -0.84222007420E+02  0.80076977706E+01 -0.18375244447E+03  0.22228174399E+03  0.92123520913E+02 0.  0.
         23    2    1    2    0    0  0.84222007420E+02 -0.80076977706E+01 -0.45698500804E+03  0.47414644892E+03  0.93925969195E+02 0.  0.
          5    1    4    4  502    0  0.23422760307E+02 -0.47112487982E+02 -0.22480430949E+03  0.23092700100E+03  0.47000000000E+01 0. -1.
         -5    1    3    3    0  503 -0.18438938873E+02  0.42283811254E+02 -0.10048427348E+03  0.11066659106E+03  0.47000000000E+01 0.  1.
          5    1    3    3  503    0 -0.65783068547E+02 -0.34276113483E+02 -0.83268170994E+02  0.11161515293E+03  0.47000000000E+01 0. -1.
         -5    1    4    4    0  502  0.60799247114E+02  0.39104790211E+02 -0.23218069855E+03  0.24321944792E+03  0.47000000000E+01 0.  1.
<mgrwt>
<rscale>  0 0.12607559E+03</rscale>
<asrwt>0</asrwt>
<pdfrwt beam="1">  1        3 0.42839032E-02 0.12641027E+03</pdfrwt>
<pdfrwt beam="2">  1       -3 0.10285889E+00 0.12641027E+03</pdfrwt>
<totfact> 0.56695943E+02</totfact>
</mgrwt>
</event>
<event>
 8    1  0.3400573E-004  0.9223003E+02  0.7546771E-02  0.1299501E+00
         -4   -1    0    0    0  501 -0.00000000000E+00  0.00000000000E+00  0.45666549596E+02  0.45666549596E+02  0.00000000000E+00 0.  1.
          4   -1    0    0  501    0  0.00000000000E+00 -0.00000000000E+00 -0.40126753803E+03  0.40126753803E+03  0.00000000000E+00 0. -1.
         23    2    1    2    0    0 -0.35128859084E+01 -0.12180738795E+02 -0.10316428296E+02  0.89543817407E+02  0.88039512596E+02 0.  0.
         23    2    1    2    0    0  0.35128859084E+01  0.12180738795E+02 -0.34528456014E+03  0.35739027022E+03  0.91354622284E+02 0.  0.
          5    1    3    3  502    0 -0.38854990006E+02  0.11232144415E+02  0.10546018858E+02  0.42061619444E+02  0.47000000000E+01 0. -1.
         -5    1    3    3    0  502  0.35342104097E+02 -0.23412883210E+02 -0.20862447154E+02  0.47482197964E+02  0.47000000000E+01 0.  1.
          5    1    4    4  503    0 -0.26224687189E+02  0.30671707766E+02 -0.79618043510E+02  0.89384622435E+02  0.47000000000E+01 0. -1.
         -5    1    4    4    0  503  0.29737573097E+02 -0.18490968971E+02 -0.26566651663E+03  0.26800564778E+03  0.47000000000E+01 0. -1.
<mgrwt>
<rscale>  0 0.91398222E+02</rscale>
<asrwt>0</asrwt>
<pdfrwt beam="1">  1        4 0.61733469E-01 0.92230026E+02</pdfrwt>
<pdfrwt beam="2">  1       -4 0.70256228E-02 0.92230026E+02</pdfrwt>
<totfact> 0.52267253E+02</totfact>
</mgrwt>
</event>
<event>
 8    1  0.3400573E-004  0.1296538E+03  0.7546771E-02  0.1228274E+00
         -2   -1    0    0    0  501 -0.00000000000E+00  0.00000000000E+00  0.21672015616E+02  0.21672015616E+02  0.00000000000E+00 0.  1.
          2   -1    0    0  501    0  0.00000000000E+00 -0.00000000000E+00 -0.87391222382E+03  0.87391222382E+03  0.00000000000E+00 0. -1.
         23    2    1    2    0    0 -0.67194499945E+02 -0.60990621883E+02 -0.57874600070E+03  0.59291413204E+03  0.91461892953E+02 0.  0.
         23    2    1    2    0    0  0.67194499945E+02  0.60990621883E+02 -0.27349420750E+03  0.30267010739E+03  0.92602136011E+02 0.  0.
          5    1    4    4  502    0  0.61227827687E+02  0.45429341552E+01 -0.20248587420E+03  0.21164145242E+03  0.47000000000E+01 0. -1.
         -5    1    3    3    0  503 -0.28015369654E+02  0.14248739367E+02 -0.66896586659E+02  0.74061669013E+02  0.47000000000E+01 0.  1.
          5    1    3    3  503    0 -0.39179130291E+02 -0.75239361250E+02 -0.51184941405E+03  0.51885246303E+03  0.47000000000E+01 0. -1.
         -5    1    4    4    0  502  0.59666722589E+01  0.56447687728E+02 -0.71008333300E+02  0.91028654971E+02  0.47000000000E+01 0.  1.
<mgrwt>
<rscale>  0 0.12945036E+03</rscale>
<asrwt>0</asrwt>
<pdfrwt beam="1">  1        2 0.13444800E+00 0.12965382E+03</pdfrwt>
<pdfrwt beam="2">  1       -2 0.33341570E-02 0.12965382E+03</pdfrwt>
<totfact> 0.10940664E+04</totfact>
</mgrwt>
</event>
<event>
 8    1  0.3400573E-004  0.8995381E+02  0.7546771E-02  0.1309122E+00
         -3   -1    0    0    0  501 -0.00000000000E+00  0.00000000000E+00  0.41714247961E+03  0.41714247961E+03  0.00000000000E+00 0.  1.
          3   -1    0    0  501    0  0.00000000000E+00 -0.00000000000E+00 -0.18496781267E+02  0.18496781267E+02  0.00000000000E+00 0. -1.
         23    2    1    2    0    0 -0.65131499621E+01  0.11211273275E+02  0.24201413976E+03  0.25501497482E+03  0.79332715638E+02 0.  0.
         23    2    1    2    0    0  0.65131499621E+01 -0.11211273275E+02  0.15663155858E+03  0.18062428605E+03  0.89014458359E+02 0.  0.
          5    1    4    4  502    0  0.23188933536E+02 -0.39651425185E+02  0.46351083247E+02  0.65425339708E+02  0.47000000000E+01 0. -1.
         -5    1    3    3    0  503 -0.39850750555E+02 -0.82009188499E+01  0.10903640954E+03  0.11647474402E+03  0.47000000000E+01 0.  1.
          5    1    3    3  503    0  0.33337600593E+02  0.19412192125E+02  0.13297773022E+03  0.13854023080E+03  0.47000000000E+01 0. -1.
         -5    1    4    4    0  502 -0.16675783574E+02  0.28440151910E+02  0.11028047534E+03  0.11519894634E+03  0.47000000000E+01 0.  1.
<mgrwt>
<rscale>  0 0.87459864E+02</rscale>
<asrwt>0</asrwt>
<pdfrwt beam="1">  1        3 0.28456590E-02 0.89953808E+02</pdfrwt>
<pdfrwt beam="2">  1       -3 0.64175759E-01 0.89953808E+02</pdfrwt>
<totfact> 0.27912552E+03</totfact>
</mgrwt>
</event>
<event>
 8    1  0.3400573E-004  0.9929575E+02  0.7546771E-02  0.1281843E+00
          1   -1    0    0  501    0  0.00000000000E+00  0.00000000000E+00  0.10249955613E+03  0.10249955613E+03  0.00000000000E+00 0. -1.
         -1   -1    0    0    0  501 -0.00000000000E+00 -0.00000000000E+00 -0.15529497999E+03  0.15529497999E+03  0.00000000000E+00 0.  1.
         23    2    1    2    0    0 -0.18613407482E+02  0.33767664268E+02 -0.10599846369E+03  0.14524228107E+03  0.91503725705E+02 0.  0.
         23    2    1    2    0    0  0.18613407482E+02 -0.33767664268E+02  0.53203039831E+02  0.11255225504E+03  0.91382342824E+02 0.  0.
          5    1    4    4  502    0  0.34582644051E+02 -0.59234286031E+02  0.36222682697E+02  0.77709926347E+02  0.47000000000E+01 0. -1.
         -5    1    3    3    0  503  0.36453751792E+02  0.21051847164E+02 -0.40498484152E+02  0.58602674917E+02  0.47000000000E+01 0.  1.
          5    1    3    3  503    0 -0.55067159274E+02  0.12715817104E+02 -0.65499979536E+02  0.86639606153E+02  0.47000000000E+01 0. -1.
         -5    1    4    4    0  502 -0.15969236569E+02  0.25466621763E+02  0.16980357134E+02  0.34842328696E+02  0.47000000000E+01 0.  1.
<mgrwt>
<rscale>  0 0.99267776E+02</rscale>
<asrwt>0</asrwt>
<pdfrwt beam="1">  1        1 0.15769163E-01 0.99295750E+02</pdfrwt>
<pdfrwt beam="2">  1       -1 0.23891535E-01 0.99295750E+02</pdfrwt>
<totfact> 0.48958825E+03</totfact>
</mgrwt>
</event>
<event>
 8    1  0.3400573E-004  0.1011328E+03  0.7546771E-02  0.1278929E+00
          3   -1    0    0  501    0  0.00000000000E+00  0.00000000000E+00  0.17442684067E+03  0.17442684067E+03  0.00000000000E+00 0. -1.
         -3   -1    0    0    0  501 -0.00000000000E+00 -0.00000000000E+00 -0.86430401423E+02  0.86430401423E+02  0.00000000000E+00 0.  1.
         23    2    1    2    0    0 -0.37278711088E+02  0.16882470722E+02 -0.31132345187E+02  0.10581617157E+03  0.92483074837E+02 0.  0.
         23    2    1    2    0    0  0.37278711088E+02 -0.16882470722E+02  0.11912878444E+03  0.15504107052E+03  0.90395498502E+02 0.  0.
          5    1    3    3  502    0  0.29636597264E+02  0.62573963143E+01 -0.20980903639E+02  0.37145271887E+02  0.47000000000E+01 0. -1.
         -5    1    3    3    0  502 -0.66915308353E+02  0.10625074408E+02 -0.10151441548E+02  0.68670899685E+02  0.47000000000E+01 0.  1.
          5    1    4    4  503    0  0.62795826368E+02 -0.23889363326E+02  0.60450078903E+02  0.90500384136E+02  0.47000000000E+01 0. -1.
         -5    1    4    4    0  503 -0.25517115280E+02  0.70068926044E+01  0.58678705534E+02  0.64540686387E+02  0.47000000000E+01 0.  1.
<mgrwt>
<rscale>  0 0.10065302E+03</rscale>
<asrwt>0</asrwt>
<pdfrwt beam="1">  1        3 0.26834898E-01 0.10113278E+03</pdfrwt>
<pdfrwt beam="2">  1       -3 0.13296985E-01 0.10113278E+03</pdfrwt>
<totfact> 0.13159397E+03</totfact>
</mgrwt>
</event>
<event>
 8    1  0.3400573E-004  0.1038228E+03  0.7546771E-02  0.1273812E+00
         -4   -1    0    0    0  501 -0.00000000000E+00  0.00000000000E+00  0.17147921149E+02  0.17147921149E+02  0.00000000000E+00 0.  1.
          4   -1    0    0  501    0  0.00000000000E+00 -0.00000000000E+00 -0.65028612141E+03  0.65028612141E+03  0.00000000000E+00 0. -1.
         23    2    1    2    0    0  0.31728273074E+02  0.27925692812E+02 -0.40087433342E+03  0.41410072344E+03  0.94829585707E+02 0.  0.
         23    2    1    2    0    0 -0.31728273074E+02 -0.27925692812E+02 -0.23226386684E+03  0.25333331912E+03  0.91895261607E+02 0.  0.
          5    1    4    4  502    0 -0.46728668126E+02 -0.41915153105E+02 -0.91845161094E+02  0.11134663040E+03  0.47000000000E+01 0. -1.
         -5    1    4    4    0  502  0.15000395052E+02  0.13989460292E+02 -0.14041870575E+03  0.14198668872E+03  0.47000000000E+01 0.  1.
          5    1    3    3  503    0  0.53819641765E+02 -0.46599063653E+01 -0.31345580218E+03  0.31811145607E+03  0.47000000000E+01 0.  1.
         -5    1    3    3    0  503 -0.22091368691E+02  0.32585599178E+02 -0.87418531248E+02  0.95989267368E+02  0.47000000000E+01 0. -1.
<mgrwt>
<rscale>  0 0.10314800E+03</rscale>
<asrwt>0</asrwt>
<pdfrwt beam="1">  1        4 0.10004400E+00 0.10382282E+03</pdfrwt>
<pdfrwt beam="2">  1       -4 0.26381422E-02 0.10382282E+03</pdfrwt>
<totfact> 0.88172484E+02</totfact>
</mgrwt>
</event>
<event>
 8    1  0.3400573E-004  0.1865689E+03  0.7546771E-02  0.1161912E+00
          2   -1    0    0  501    0  0.00000000000E+00  0.00000000000E+00  0.31904583314E+03  0.31904583314E+03  0.00000000000E+00 0. -1.
         -2   -1    0    0    0  501 -0.00000000000E+00 -0.00000000000E+00 -0.12162692625E+03  0.12162692625E+03  0.00000000000E+00 0.  1.
         23    2    1    2    0    0  0.84293568693E+02 -0.14047760756E+03  0.17197901050E+03  0.25374143557E+03  0.89266859049E+02 0.  0.
         23    2    1    2    0    0 -0.84293568693E+02  0.14047760756E+03  0.25439896385E+02  0.18693132382E+03  0.86352576972E+02 0.  0.
          5    1    4    4  502    0 -0.65272184563E+02  0.31722184316E+02 -0.31293033003E+01  0.72791741252E+02  0.47000000000E+01 0. -1.
         -5    1    4    4    0  502 -0.19021384130E+02  0.10875542324E+03  0.28569199685E+02  0.11413958257E+03  0.47000000000E+01 0.  1.
          5    1    3    3  503    0  0.71615533671E+01 -0.74950264033E+02  0.11490065267E+03  0.13745210042E+03  0.47000000000E+01 0. -1.
         -5    1    3    3    0  503  0.77132015326E+02 -0.65527343523E+02  0.57078357831E+02  0.11628933515E+03  0.47000000000E+01 0.  1.
<mgrwt>
<rscale>  0 0.18622372E+03</rscale>
<asrwt>0</asrwt>
<pdfrwt beam="1">  1        2 0.49083974E-01 0.18656885E+03</pdfrwt>
<pdfrwt beam="2">  1       -2 0.18711835E-01 0.18656885E+03</pdfrwt>
<totfact> 0.23744879E+03</totfact>
</mgrwt>
</event>
<event>
 8    1  0.3400573E-004  0.1013902E+03  0.7546771E-02  0.1279699E+00
         -1   -1    0    0    0  501 -0.00000000000E+00  0.00000000000E+00  0.29408715085E+02  0.29408715085E+02  0.00000000000E+00 0.  1.
          1   -1    0    0  501    0  0.00000000000E+00 -0.00000000000E+00 -0.35758267879E+03  0.35758267879E+03  0.00000000000E+00 0. -1.
         23    2    1    2    0    0  0.68489595325E+00 -0.35870427388E+02 -0.11179492323E+03  0.14803561269E+03  0.90162526147E+02 0.  0.
         23    2    1    2    0    0 -0.68489595325E+00  0.35870427388E+02 -0.21637904048E+03  0.23895578119E+03  0.94830478020E+02 0.  0.
          5    1    3    3  502    0 -0.32573151190E+02  0.12547395874E+02 -0.60032810343E+02  0.69602267487E+02  0.47000000000E+01 0. -1.
         -5    1    4    4    0  503 -0.17646527322E+02 -0.26872585514E+02 -0.10502352853E+03  0.10993437735E+03  0.47000000000E+01 0.  1.
          5    1    4    4  503    0  0.16961631369E+02  0.62743012902E+02 -0.11135551195E+03  0.12902140384E+03  0.47000000000E+01 0. -1.
         -5    1    3    3    0  502  0.33258047143E+02 -0.48417823262E+02 -0.51762112887E+02  0.78433345203E+02  0.47000000000E+01 0.  1.
<mgrwt>
<rscale>  0 0.10028428E+03</rscale>
<asrwt>0</asrwt>
<pdfrwt beam="1">  1        1 0.55012718E-01 0.10139022E+03</pdfrwt>
<pdfrwt beam="2">  1       -1 0.45244179E-02 0.10139022E+03</pdfrwt>
<totfact> 0.13166359E+04</totfact>
</mgrwt>
</event>
<event>
 8    1  0.3400573E-004  0.1321916E+03  0.7546771E-02  0.1225594E+00
          1   -1    0    0  501    0  0.00000000000E+00  0.00000000000E+00  0.82405479139E+03  0.82405479139E+03  0.00000000000E+00 0. -1.
         -1   -1    0    0    0  501 -0.00000000000E+00 -0.00000000000E+00 -0.23900258850E+02  0.23900258850E+02  0.00000000000E+00 0.  1.
         23    2    1    2    0    0  0.33652066796E+02  0.84905585943E+02  0.56200462889E+03  0.57734204183E+03  0.95567830584E+02 0.  0.
         23    2    1    2    0    0 -0.33652066796E+02 -0.84905585943E+02  0.23814990364E+03  0.27061300841E+03  0.90413514422E+02 0.  0.
          5    1    3    3  502    0  0.63566476664E+02  0.78688895017E+02  0.42710006139E+03  0.43894098874E+03  0.47000000000E+01 0. -1.
         -5    1    3    3    0  502 -0.29914409867E+02  0.62166909259E+01  0.13490456750E+03  0.13840105309E+03  0.47000000000E+01 0.  1.
          5    1    4    4  503    0  0.20092804289E+02 -0.57384683283E+02  0.16339127939E+03  0.17440046685E+03  0.47000000000E+01 0. -1.
         -5    1    4    4    0  503 -0.53744871086E+02 -0.27520902660E+02  0.74758624257E+02  0.96212541553E+02  0.47000000000E+01 0.  1.
<mgrwt>
<rscale>  0 0.13126266E+03</rscale>
<asrwt>0</asrwt>
<pdfrwt beam="1">  1        1 0.12677764E+00 0.13219164E+03</pdfrwt>
<pdfrwt beam="2">  1       -1 0.36769635E-02 0.13219164E+03</pdfrwt>
<totfact> 0.59396307E+03</totfact>
</mgrwt>
</event>
<event>
 8    1  0.3400573E-004  0.1033145E+03  0.7546771E-02  0.1275734E+00
          2   -1    0    0  501    0  0.00000000000E+00  0.00000000000E+00  0.86701043265E+02  0.86701043265E+02  0.00000000000E+00 0. -1.
         -2   -1    0    0    0  501 -0.00000000000E+00 -0.00000000000E+00 -0.11979354623E+03  0.11979354623E+03  0.00000000000E+00 0.  1.
         23    2    1    2    0    0  0.40093670817E+02  0.13323888503E+02 -0.33734468311E+01  0.98990577588E+02  0.89457955841E+02 0.  0.
         23    2    1    2    0    0 -0.40093670817E+02 -0.13323888503E+02 -0.29719056130E+02  0.10750401190E+03  0.94280760675E+02 0.  0.
          5    1    4    4  502    0 -0.43928425017E+02 -0.46683992002E+02 -0.30170269668E+01  0.64345117029E+02  0.47000000000E+01 0. -1.
         -5    1    4    4    0  502  0.38347542006E+01  0.33360103499E+02 -0.26702029164E+02  0.43158894874E+02  0.47000000000E+01 0.  1.
          5    1    3    3  503    0  0.30211395996E+02 -0.36647896340E+02 -0.56736118998E-01  0.47727245606E+02  0.47000000000E+01 0. -1.
         -5    1    3    3    0  503  0.98822748206E+01  0.49971784842E+02 -0.33167107121E+01  0.51263331982E+02  0.47000000000E+01 0.  1.
<mgrwt>
<rscale>  0 0.10220130E+03</rscale>
<asrwt>0</asrwt>
<pdfrwt beam="1">  1        2 0.13338622E-01 0.10331452E+03</pdfrwt>
<pdfrwt beam="2">  1       -2 0.18429776E-01 0.10331452E+03</pdfrwt>
<totfact> 0.99542445E+03</totfact>
</mgrwt>
</event>
<event>
 8    1  0.3400573E-004  0.9668299E+02  0.7546771E-02  0.1287699E+00
         -1   -1    0    0    0  501 -0.00000000000E+00  0.00000000000E+00  0.12493600196E+03  0.12493600196E+03  0.00000000000E+00 0.  1.
          1   -1    0    0  501    0  0.00000000000E+00 -0.00000000000E+00 -0.48187618689E+03  0.48187618689E+03  0.00000000000E+00 0. -1.
         23    2    1    2    0    0  0.30994854839E+02  0.13853972577E+02  0.10044795219E+03  0.13941804797E+03  0.90526169800E+02 0.  0.
         23    2    1    2    0    0 -0.30994854839E+02 -0.13853972577E+02 -0.45738813712E+03  0.46739414088E+03  0.90004229739E+02 0.  0.
          5    1    3    3  502    0 -0.65191822061E+01 -0.31921884379E+02  0.17122231730E+02  0.37104814490E+02  0.47000000000E+01 0. -1.
         -5    1    3    3    0  502  0.37514037046E+02  0.45775856956E+02  0.83325720456E+02  0.10231323348E+03  0.47000000000E+01 0.  1.
          5    1    4    4  503    0 -0.35492214858E+02 -0.46392844413E+02 -0.35382023923E+03  0.35864027244E+03  0.47000000000E+01 0. -1.
         -5    1    4    4    0  503  0.44973600189E+01  0.32538871836E+02 -0.10356789789E+03  0.10875386844E+03  0.47000000000E+01 0.  1.
<mgrwt>
<rscale>  0 0.96560628E+02</rscale>
<asrwt>0</asrwt>
<pdfrwt beam="1">  1        1 0.74134799E-01 0.96682992E+02</pdfrwt>
<pdfrwt beam="2">  1       -1 0.19220923E-01 0.96682992E+02</pdfrwt>
<totfact> 0.10126877E+03</totfact>
</mgrwt>
</event>
<event>
 8    1  0.3400573E-004  0.1858729E+03  0.7546771E-02  0.1164137E+00
          4   -1    0    0  501    0  0.00000000000E+00  0.00000000000E+00  0.14515674500E+04  0.14515674500E+04  0.00000000000E+00 0. -1.
         -4   -1    0    0    0  501 -0.00000000000E+00 -0.00000000000E+00 -0.22988575726E+02  0.22988575726E+02  0.00000000000E+00 0.  1.
         23    2    1    2    0    0 -0.11557894129E+03  0.90105566019E+02  0.79870671952E+03  0.82004948234E+03  0.11432945807E+03 0.  0.
         23    2    1    2    0    0  0.11557894129E+03 -0.90105566019E+02  0.62987215471E+03  0.65450654334E+03  0.10080862711E+03 0.  0.
          5    1    4    4  502    0  0.12907794279E+03 -0.56477478962E+02  0.51641579691E+03  0.53531129845E+03  0.47000000000E+01 0. -1.
         -5    1    3    3    0  503 -0.11307832444E+03  0.29257601332E+02  0.40140086265E+03  0.41807589889E+03  0.47000000000E+01 0.  1.
          5    1    3    3  503    0 -0.25006168505E+01  0.60847964686E+02  0.39730585686E+03  0.40197358345E+03  0.47000000000E+01 0. -1.
         -5    1    4    4    0  502 -0.13499001499E+02 -0.33628087056E+02  0.11345635780E+03  0.11919524489E+03  0.47000000000E+01 0.  1.
<mgrwt>
<rscale>  0 0.18384058E+03</rscale>
<asrwt>0</asrwt>
<pdfrwt beam="1">  1        4 0.22331800E+00 0.18587289E+03</pdfrwt>
<pdfrwt beam="2">  1       -4 0.35367051E-02 0.18587289E+03</pdfrwt>
<totfact> 0.76661770E+01</totfact>
</mgrwt>
</event>
<event>
 8    1  0.3400573E-004  0.9673913E+02  0.7546771E-02  0.1290151E+00
         -1   -1    0    0    0  501 -0.00000000000E+00  0.00000000000E+00  0.57357011575E+03  0.57357011575E+03  0.00000000000E+00 0.  1.
          1   -1    0    0  501    0  0.00000000000E+00 -0.00000000000E+00 -0.20554941356E+02  0.20554941356E+02  0.00000000000E+00 0. -1.
         23    2    1    2    0    0 -0.83850854648E+01 -0.21803807229E+02  0.12336767865E+03  0.15372134463E+03  0.88684564562E+02 0.  0.
         23    2    1    2    0    0  0.83850854648E+01  0.21803807229E+02  0.42964749574E+03  0.44040371247E+03  0.93876214742E+02 0.  0.
          5    1    4    4  502    0  0.23168546181E+02  0.54360509303E+02  0.22943232585E+03  0.23696651377E+03  0.47000000000E+01 0. -1.
         -5    1    4    4    0  502 -0.14783460716E+02 -0.32556702074E+02  0.20021516990E+03  0.20343719871E+03  0.47000000000E+01 0.  1.
          5    1    3    3  503    0 -0.73050987910E+00  0.26412291958E+02  0.74457295002E+01  0.27850883271E+02  0.47000000000E+01 0. -1.
         -5    1    3    3    0  503 -0.76545755857E+01 -0.48216099187E+02  0.11592194915E+03  0.12587046136E+03  0.47000000000E+01 0.  1.
<mgrwt>
<rscale>  0 0.95456486E+02</rscale>
<asrwt>0</asrwt>
<pdfrwt beam="1">  1        1 0.31622991E-02 0.96739130E+02</pdfrwt>
<pdfrwt beam="2">  1       -1 0.88241544E-01 0.96739130E+02</pdfrwt>
<totfact> 0.39252367E+03</totfact>
</mgrwt>
</event>
<event>
 8    1  0.3400573E-004  0.9209653E+02  0.7546771E-02  0.1299975E+00
          3   -1    0    0  501    0  0.00000000000E+00  0.00000000000E+00  0.14928430163E+03  0.14928430163E+03  0.00000000000E+00 0. -1.
         -3   -1    0    0    0  501 -0.00000000000E+00 -0.00000000000E+00 -0.55432781276E+02  0.55432781276E+02  0.00000000000E+00 0.  1.
         23    2    1    2    0    0  0.58761057974E+01 -0.18634027622E+01  0.35696169116E+02  0.98772402685E+02  0.91889989408E+02 0.  0.
         23    2    1    2    0    0 -0.58761057974E+01  0.18634027622E+01  0.58155351234E+02  0.10594468022E+03  0.88341550247E+02 0.  0.
          5    1    3    3  502    0  0.20936244094E+02 -0.24978819110E+02 -0.18504709281E+02  0.37772767789E+02  0.47000000000E+01 0. -1.
         -5    1    4    4    0  503 -0.28042700215E+02  0.33597360697E+02  0.49049018165E+02  0.65901986799E+02  0.47000000000E+01 0.  1.
          5    1    4    4  503    0  0.22166594417E+02 -0.31733957934E+02  0.91063330688E+01  0.40042693418E+02  0.47000000000E+01 0. -1.
         -5    1    3    3    0  502 -0.15060138297E+02  0.23115416348E+02  0.54200878396E+02  0.60999634896E+02  0.47000000000E+01 0.  1.
<mgrwt>
<rscale>  0 0.91198439E+02</rscale>
<asrwt>0</asrwt>
<pdfrwt beam="1">  1        3 0.22966815E-01 0.92096531E+02</pdfrwt>
<pdfrwt beam="2">  1       -3 0.85281203E-02 0.92096531E+02</pdfrwt>
<totfact> 0.35494563E+03</totfact>
</mgrwt>
</event>
<event>
 8    1  0.3400573E-004  0.1048857E+03  0.7546771E-02  0.1272132E+00
         -3   -1    0    0    0  501 -0.00000000000E+00  0.00000000000E+00  0.19237421581E+02  0.19237421581E+02  0.00000000000E+00 0.  1.
          3   -1    0    0  501    0  0.00000000000E+00 -0.00000000000E+00 -0.98216516352E+03  0.98216516352E+03  0.00000000000E+00 0. -1.
         23    2    1    2    0    0  0.53608895533E+02  0.10278710117E+02 -0.14570016671E+03  0.17747181424E+03  0.85370607989E+02 0.  0.
         23    2    1    2    0    0 -0.53608895533E+02 -0.10278710117E+02 -0.81722757522E+03  0.82393077085E+03  0.89562491566E+02 0.  0.
          5    1    3    3  502    0  0.54082685925E+02 -0.26800910003E+02 -0.11115981732E+03  0.12657733083E+03  0.47000000000E+01 0. -1.
         -5    1    4    4    0  503  0.15734035162E+02  0.14706201620E+02 -0.78997858827E+02  0.82015754143E+02  0.47000000000E+01 0.  1.
          5    1    4    4  503    0 -0.69342930695E+02 -0.24984911737E+02 -0.73822971640E+03  0.74191501671E+03  0.47000000000E+01 0. -1.
         -5    1    3    3    0  502 -0.47379039113E+00  0.37079620120E+02 -0.34540349397E+02  0.50894483415E+02  0.47000000000E+01 0.  1.
<mgrwt>
<rscale>  0 0.10398515E+03</rscale>
<asrwt>0</asrwt>
<pdfrwt beam="1">  1        3 0.15110234E+00 0.10488568E+03</pdfrwt>
<pdfrwt beam="2">  1       -3 0.29596031E-02 0.10488568E+03</pdfrwt>
<totfact> 0.39446838E+02</totfact>
</mgrwt>
</event>
<event>
 8    1  0.3400573E-004  0.1116693E+03  0.7546771E-02  0.1258360E+00
          1   -1    0    0  501    0  0.00000000000E+00  0.00000000000E+00  0.49803281872E+02  0.49803281872E+02  0.00000000000E+00 0. -1.
         -1   -1    0    0    0  501 -0.00000000000E+00 -0.00000000000E+00 -0.96499840668E+03  0.96499840668E+03  0.00000000000E+00 0.  1.
         23    2    1    2    0    0 -0.34517487275E+02  0.51787337177E+02 -0.89451944359E+03  0.90123441265E+03  0.90471246068E+02 0.  0.
         23    2    1    2    0    0  0.34517487275E+02 -0.51787337177E+02 -0.20675681218E+02  0.11356727590E+03  0.92718159722E+02 0.  0.
          5    1    3    3  502    0 -0.39336427916E+02 -0.14857619072E+02 -0.30471337693E+03  0.30763685651E+03  0.47000000000E+01 0. -1.
         -5    1    4    4    0  503  0.99232578790E+01  0.24700929210E+02 -0.19047871423E+02  0.33068389083E+02  0.47000000000E+01 0.  1.
          5    1    4    4  503    0  0.24594229396E+02 -0.76488266387E+02 -0.16278097954E+01  0.80498886819E+02  0.47000000000E+01 0. -1.
         -5    1    3    3    0  502  0.48189406409E+01  0.66644956249E+02 -0.58980606666E+03  0.59359755614E+03  0.47000000000E+01 0.  1.
<mgrwt>
<rscale>  0 0.11120180E+03</rscale>
<asrwt>0</asrwt>
<pdfrwt beam="1">  1        1 0.76620435E-02 0.11166934E+03</pdfrwt>
<pdfrwt beam="2">  1       -1 0.14846129E+00 0.11166934E+03</pdfrwt>
<totfact> 0.35871616E+02</totfact>
</mgrwt>
</event>
<event>
 7    1  0.3400573E-004  0.2495705E+03  0.7546771E-02  0.1125552E+00
         -2   -1    0    0    0  501 -0.00000000000E+00  0.00000000000E+00  0.23005568273E+03  0.23005568273E+03  0.00000000000E+00 0.  1.
          2   -1    0    0  501    0  0.00000000000E+00 -0.00000000000E+00 -0.21272424391E+03  0.21272424391E+03  0.00000000000E+00 0. -1.
         23    2    1    2    0    0 -0.42599730659E+02 -0.15492187606E+03  0.48721544254E+02  0.19124312340E+03  0.91567563263E+02 0.  0.
          5    1    1    2  502    0  0.78621025866E+02  0.11121683412E+03 -0.95085293867E+02  0.16617386380E+03  0.47000000000E+01 0. -1.
         -5    1    1    2    0  502 -0.36021295207E+02  0.43705041938E+02  0.63695188433E+02  0.85362939433E+02  0.47000000000E+01 0.  1.
          5    1    3    3  503    0  0.19619002234E+02 -0.98405716219E+02  0.31869839281E+02  0.10538674911E+03  0.47000000000E+01 0. -1.
         -5    1    3    3    0  503 -0.62218732893E+02 -0.56516159837E+02  0.16851704972E+02  0.85856374289E+02  0.47000000000E+01 0.  1.
<mgrwt>
<rscale>  0 0.23155193E+03</rscale>
<asrwt>0</asrwt>
<pdfrwt beam="1">  1        2 0.32726807E-01 0.24957048E+03</pdfrwt>
<pdfrwt beam="2">  1       -2 0.35393182E-01 0.24957048E+03</pdfrwt>
<totfact> 0.11960349E+03</totfact>
</mgrwt>
</event>
<event>
 8    1  0.3400573E-004  0.1079152E+03  0.7546771E-02  0.1265750E+00
         -2   -1    0    0    0  501 -0.00000000000E+00  0.00000000000E+00  0.26359334510E+02  0.26359334510E+02  0.00000000000E+00 0.  1.
          2   -1    0    0  501    0  0.00000000000E+00 -0.00000000000E+00 -0.45095994263E+03  0.45095994263E+03  0.00000000000E+00 0. -1.
         23    2    1    2    0    0 -0.26889557536E+02  0.46093889665E+02 -0.15967459900E+03  0.19125725080E+03  0.90750556188E+02 0.  0.
         23    2    1    2    0    0  0.26889557536E+02 -0.46093889665E+02 -0.26492600912E+03  0.28606202634E+03  0.93797641960E+02 0.  0.
          5    1    3    3  502    0  0.24253418827E+01 -0.21315861440E+02 -0.79083528238E+02  0.82076444068E+02  0.47000000000E+01 0. -1.
         -5    1    4    4    0  503 -0.18773902980E+02  0.18051577928E+02 -0.42530464167E+02  0.50092407419E+02  0.47000000000E+01 0.  1.
          5    1    4    4  503    0  0.45663460516E+02 -0.64145467593E+02 -0.22239554495E+03  0.23596961892E+03  0.47000000000E+01 0. -1.
         -5    1    3    3    0  502 -0.29314899418E+02  0.67409751105E+02 -0.80591070762E+02  0.10918080673E+03  0.47000000000E+01 0.  1.
<mgrwt>
<rscale>  0 0.10724966E+03</rscale>
<asrwt>0</asrwt>
<pdfrwt beam="1">  1        2 0.69378450E-01 0.10791521E+03</pdfrwt>
<pdfrwt beam="2">  1       -2 0.40552824E-02 0.10791521E+03</pdfrwt>
<totfact> 0.17361553E+04</totfact>
</mgrwt>
</event>
<event>
 8    1  0.3400573E-004  0.9901236E+02  0.7546771E-02  0.1283256E+00
         -3   -1    0    0    0  501 -0.00000000000E+00  0.00000000000E+00  0.39007414321E+02  0.39007414321E+02  0.00000000000E+00 0.  1.
          3   -1    0    0  501    0  0.00000000000E+00 -0.00000000000E+00 -0.25958835762E+03  0.25958835762E+03  0.00000000000E+00 0. -1.
         23    2    1    2    0    0 -0.12566102159E+01  0.37273655094E+02 -0.78587843166E+02  0.12641002954E+03  0.91719910823E+02 0.  0.
         23    2    1    2    0    0  0.12566102159E+01 -0.37273655094E+02 -0.14199310013E+03  0.17218574240E+03  0.89972134395E+02 0.  0.
          5    1    4    4  502    0  0.11163810808E+02 -0.18161324771E+02 -0.14779626791E+03  0.14939976974E+03  0.47000000000E+01 0. -1.
         -5    1    4    4    0  502 -0.99072005920E+01 -0.19112330322E+02  0.58031677788E+01  0.22785972663E+02  0.47000000000E+01 0.  1.
          5    1    3    3  503    0  0.37400403011E+02  0.17966735417E+01 -0.59343365537E+02  0.70325978233E+02  0.47000000000E+01 0. -1.
         -5    1    3    3    0  503 -0.38657013227E+02  0.35476981552E+02 -0.19244477629E+02  0.56084051306E+02  0.47000000000E+01 0.  1.
<mgrwt>
<rscale>  0 0.98605650E+02</rscale>
<asrwt>0</asrwt>
<pdfrwt beam="1">  1        3 0.39936671E-01 0.99012355E+02</pdfrwt>
<pdfrwt beam="2">  1       -3 0.60011405E-02 0.99012355E+02</pdfrwt>
<totfact> 0.22879480E+03</totfact>
</mgrwt>
</event>
<event>
 8    1  0.3400573E-004  0.1274914E+03  0.7546771E-02  0.1246558E+00
          1   -1    0    0  501    0  0.00000000000E+00  0.00000000000E+00  0.24195258069E+03  0.24195258069E+03  0.00000000000E+00 0. -1.
         -1   -1    0    0    0  501 -0.00000000000E+00 -0.00000000000E+00 -0.50656521522E+02  0.50656521522E+02  0.00000000000E+00 0.  1.
         23    2    1    2    0    0  0.15968175827E+02  0.20397223894E+02  0.99725498243E+02  0.16186175385E+03  0.12483197899E+03 0.  0.
         23    2    1    2    0    0 -0.15968175827E+02 -0.20397223894E+02  0.91570560927E+02  0.13074734836E+03  0.89658642044E+02 0.  0.
          5    1    3    3  502    0  0.17306380829E-01  0.39804666574E+02  0.12171627766E+03  0.12814583110E+03  0.47000000000E+01 0.  1.
         -5    1    3    3    0  502  0.15950869446E+02 -0.19407442680E+02 -0.21990779420E+02  0.33715922751E+02  0.47000000000E+01 0.  1.
          5    1    4    4  503    0  0.30149499641E+02 -0.27050755515E+02  0.65477856733E+02  0.77137380205E+02  0.47000000000E+01 0. -1.
         -5    1    4    4    0  503 -0.46117675467E+02  0.66535316205E+01  0.26092704194E+02  0.53609968156E+02  0.47000000000E+01 0.  1.
<mgrwt>
<rscale>  0 0.11792640E+03</rscale>
<asrwt>0</asrwt>
<pdfrwt beam="1">  1        1 0.37223473E-01 0.12749138E+03</pdfrwt>
<pdfrwt beam="2">  1       -1 0.77933112E-02 0.12749138E+03</pdfrwt>
<totfact> 0.96982067E+03</totfact>
</mgrwt>
</event>
<event>
 8    1  0.3400573E-004  0.1118068E+03  0.7546771E-02  0.1259176E+00
         -1   -1    0    0    0  501 -0.00000000000E+00  0.00000000000E+00  0.32423568298E+03  0.32423568298E+03  0.00000000000E+00 0.  1.
          1   -1    0    0  501    0  0.00000000000E+00 -0.00000000000E+00 -0.10491958806E+03  0.10491958806E+03  0.00000000000E+00 0. -1.
         23    2    1    2    0    0  0.64603770814E+02  0.39650688078E+00 -0.63532640039E+02  0.12501030123E+03  0.86124181520E+02 0.  0.
         23    2    1    2    0    0 -0.64603770814E+02 -0.39650688078E+00  0.28284873496E+03  0.30414496980E+03  0.91252130744E+02 0.  0.
          5    1    3    3  502    0  0.52052155650E+02 -0.17517424473E+02  0.26130863959E+01  0.55183378734E+02  0.47000000000E+01 0. -1.
         -5    1    4    4    0  503 -0.16543871334E+02  0.24992644185E+02  0.21477353932E+03  0.21690572868E+03  0.47000000000E+01 0.  1.
          5    1    4    4  503    0 -0.48059899480E+02 -0.25389151066E+02  0.68075195642E+02  0.87239241122E+02  0.47000000000E+01 0. -1.
         -5    1    3    3    0  502  0.12551615164E+02  0.17913931354E+02 -0.66145726435E+02  0.69826922497E+02  0.47000000000E+01 0.  1.
<mgrwt>
<rscale>  0 0.11075595E+03</rscale>
<asrwt>0</asrwt>
<pdfrwt beam="1">  1        1 0.16141475E-01 0.11180678E+03</pdfrwt>
<pdfrwt beam="2">  1       -1 0.49882412E-01 0.11180678E+03</pdfrwt>
<totfact> 0.13610063E+03</totfact>
</mgrwt>
</event>
<event>
 8    1  0.3400573E-004  0.1104228E+03  0.7546771E-02  0.1260962E+00
         -4   -1    0    0    0  501 -0.00000000000E+00  0.00000000000E+00  0.18534979809E+03  0.18534979809E+03  0.00000000000E+00 0.  1.
          4   -1    0    0  501    0  0.00000000000E+00 -0.00000000000E+00 -0.64348000277E+02  0.64348000277E+02  0.00000000000E+00 0. -1.
         23    2    1    2    0    0 -0.60718921937E+02 -0.37023199306E+00  0.57612718550E+02  0.12454887505E+03  0.92229455086E+02 0.  0.
         23    2    1    2    0    0  0.60718921937E+02  0.37023199306E+00  0.63389079267E+02  0.12514892332E+03  0.89202875988E+02 0.  0.
          5    1    4    4  502    0  0.13685359799E+02  0.29623996458E+02  0.61202785012E+02  0.69517919504E+02  0.47000000000E+01 0. -1.
         -5    1    3    3    0  503 -0.49264872383E+02 -0.42652846041E+02  0.42639421365E+02  0.78016044380E+02  0.47000000000E+01 0.  1.
          5    1    3    3  503    0 -0.11454049554E+02  0.42282614048E+02  0.14973297185E+02  0.46532830674E+02  0.47000000000E+01 0. -1.
         -5    1    4    4    0  502  0.47033562138E+02 -0.29253764465E+02  0.21862942544E+01  0.55631003814E+02  0.47000000000E+01 0.  1.
<mgrwt>
<rscale>  0 0.10978860E+03</rscale>
<asrwt>0</asrwt>
<pdfrwt beam="1">  1        4 0.98996924E-02 0.11042281E+03</pdfrwt>
<pdfrwt beam="2">  1       -4 0.28515353E-01 0.11042281E+03</pdfrwt>
<totfact> 0.14202106E+03</totfact>
</mgrwt>
</event>
<event>
 8    1  0.3400573E-004  0.1155784E+03  0.7546771E-02  0.1251200E+00
          1   -1    0    0  501    0  0.00000000000E+00  0.00000000000E+00  0.11462643230E+03  0.11462643230E+03  0.00000000000E+00 0. -1.
         -1   -1    0    0    0  501 -0.00000000000E+00 -0.00000000000E+00 -0.36881221384E+03  0.36881221384E+03  0.00000000000E+00 0.  1.
         23    2    1    2    0    0  0.67540245125E+02  0.16865672362E+02  0.73142899758E+02  0.13677806733E+03  0.92261694668E+02 0.  0.
         23    2    1    2    0    0 -0.67540245125E+02 -0.16865672362E+02 -0.32732868130E+03  0.34666057880E+03  0.90461901797E+02 0.  0.
          5    1    3    3  502    0  0.67451516496E+02  0.48738088490E+02  0.51892223243E+02  0.98183507680E+02  0.47000000000E+01 0. -1.
         -5    1    3    3    0  502  0.88728628643E-01 -0.31872416128E+02  0.21250676515E+02  0.38594559655E+02  0.47000000000E+01 0.  1.
          5    1    4    4  503    0 -0.95328274751E+01 -0.27394955961E+02 -0.24937099740E+02  0.38539685458E+02  0.47000000000E+01 0. -1.
         -5    1    4    4    0  503 -0.58007417649E+02  0.10529283599E+02 -0.30239158156E+03  0.30812089334E+03  0.47000000000E+01 0.  1.
<mgrwt>
<rscale>  0 0.11521879E+03</rscale>
<asrwt>0</asrwt>
<pdfrwt beam="1">  1        1 0.17634835E-01 0.11557835E+03</pdfrwt>
<pdfrwt beam="2">  1       -1 0.56740341E-01 0.11557835E+03</pdfrwt>
<totfact> 0.95981685E+02</totfact>
</mgrwt>
</event>
<event>
 8    1  0.7516081E-004  0.1653781E+03  0.7546771E-02  0.1186892E+00
         -1   -1    0    0    0  501 -0.00000000000E+00  0.00000000000E+00  0.10125977130E+03  0.10125977130E+03  0.00000000000E+00 0.  1.
          1   -1    0    0  501    0  0.00000000000E+00 -0.00000000000E+00 -0.87720046025E+03  0.87720046025E+03  0.00000000000E+00 0. -1.
         23    2    1    2    0    0  0.10372068846E+03 -0.62334998031E+02 -0.79754358125E+03  0.81167711511E+03  0.90001899975E+02 0.  0.
         23    2    1    2    0    0 -0.10372068846E+03  0.62334998031E+02  0.21602892299E+02  0.16678311645E+03  0.11272217964E+03 0.  0.
          5    1    4    4  502    0  0.19717043358E+02  0.24377300754E+02  0.20116579184E+02  0.37547055130E+02  0.47000000000E+01 0. -1.
         -5    1    3    3    0  503  0.26047589295E+02 -0.16656570276E+02 -0.51900208425E+02  0.60594058092E+02  0.47000000000E+01 0.  1.
          5    1    3    3  503    0  0.77673099167E+02 -0.45678427755E+02 -0.74564337282E+03  0.75108305701E+03  0.47000000000E+01 0. -1.
         -5    1    4    4    0  502 -0.12343773182E+03  0.37957697278E+02  0.14863131141E+01  0.12923606132E+03  0.47000000000E+01 0.  1.
<mgrwt>
<rscale>  0 0.16160948E+03</rscale>
<asrwt>0</asrwt>
<pdfrwt beam="1">  1        1 0.13495392E+00 0.16537812E+03</pdfrwt>
<pdfrwt beam="2">  1       -1 0.15578426E-01 0.16537812E+03</pdfrwt>
<totfact> 0.60953403E+02</totfact>
</mgrwt>
</event>
<event>
 8    1  0.3400573E-004  0.1089282E+03  0.7546771E-02  0.1262847E+00
         -2   -1    0    0    0  501 -0.00000000000E+00  0.00000000000E+00  0.57330558788E+03  0.57330558788E+03  0.00000000000E+00 0.  1.
          2   -1    0    0  501    0  0.00000000000E+00 -0.00000000000E+00 -0.21865604071E+02  0.21865604071E+02  0.00000000000E+00 0. -1.
         23    2    1    2    0    0 -0.58733794152E+02 -0.10827528400E+02  0.34706147989E+03  0.36357688704E+03  0.90385773330E+02 0.  0.
         23    2    1    2    0    0  0.58733794152E+02  0.10827528400E+02  0.20437850392E+03  0.23159430491E+03  0.91095857513E+02 0.  0.
          5    1    4    4  502    0  0.67532884474E+02  0.39544689759E+02  0.14213493726E+03  0.16232345291E+03  0.47000000000E+01 0. -1.
         -5    1    4    4    0  502 -0.87990903217E+01 -0.28717161359E+02  0.62243566658E+02  0.69270852004E+02  0.47000000000E+01 0.  1.
          5    1    3    3  503    0 -0.57027253116E+01  0.27109261875E+02  0.35724556800E+02  0.45450710818E+02  0.47000000000E+01 0. -1.
         -5    1    3    3    0  503 -0.53031068840E+02 -0.37936790275E+02  0.31133692309E+03  0.31812617622E+03  0.47000000000E+01 0.  1.
<mgrwt>
<rscale>  0 0.10877960E+03</rscale>
<asrwt>0</asrwt>
<pdfrwt beam="1">  1        2 0.33639395E-02 0.10892818E+03</pdfrwt>
<pdfrwt beam="2">  1       -2 0.88200848E-01 0.10892818E+03</pdfrwt>
<totfact> 0.28770447E+03</totfact>
</mgrwt>
</event>
<event>
 8    1  0.3400573E-004  0.1372661E+03  0.7546771E-02  0.1220032E+00
          1   -1    0    0  501    0  0.00000000000E+00  0.00000000000E+00  0.41348161773E+03  0.41348161773E+03  0.00000000000E+00 0. -1.
         -1   -1    0    0    0  501 -0.00000000000E+00 -0.00000000000E+00 -0.75227825418E+02  0.75227825418E+02  0.00000000000E+00 0.  1.
         23    2    1    2    0    0 -0.25630704956E+02  0.99573802810E+02  0.33242261969E+03  0.35964813794E+03  0.90940144037E+02 0.  0.
         23    2    1    2    0    0  0.25630704956E+02 -0.99573802810E+02  0.58311726231E+01  0.12906130521E+03  0.77787805511E+02 0.  0.
          5    1    3    3  502    0 -0.56992900102E+02  0.42158450731E+02  0.15561366717E+03  0.17106498484E+03  0.47000000000E+01 0. -1.
         -5    1    3    3    0  502  0.31362195146E+02  0.57415352079E+02  0.17680895253E+03  0.18858315310E+03  0.47000000000E+01 0.  1.
          5    1    4    4  503    0 -0.17481793082E+02 -0.75347561503E+02  0.13917753834E+02  0.78731581881E+02  0.47000000000E+01 0. -1.
         -5    1    4    4    0  503  0.43112498037E+02 -0.24226241308E+02 -0.80865812108E+01  0.50329723331E+02  0.47000000000E+01 0.  1.
<mgrwt>
<rscale>  0 0.13513274E+03</rscale>
<asrwt>0</asrwt>
<pdfrwt beam="1">  1        1 0.63612555E-01 0.13726611E+03</pdfrwt>
<pdfrwt beam="2">  1       -1 0.11573512E-01 0.13726611E+03</pdfrwt>
<totfact> 0.27420682E+03</totfact>
</mgrwt>
</event>
<event>
 7    1  0.3400573E-004  0.1457696E+03  0.7546771E-02  0.1228580E+00
         -3   -1    0    0    0  501 -0.00000000000E+00  0.00000000000E+00  0.15979915205E+03  0.15979915205E+03  0.00000000000E+00 0.  1.
          3   -1    0    0  501    0  0.00000000000E+00 -0.00000000000E+00 -0.88765208362E+02  0.88765208362E+02  0.00000000000E+00 0. -1.
         23    2    1    2    0    0 -0.93256312072E+01 -0.12747839292E+02  0.44199249299E+02  0.10034537771E+03  0.88691298254E+02 0.  0.
          5    1    3    3  502    0 -0.33969480103E+02 -0.14985162360E+02 -0.11553565850E+02  0.39167021246E+02  0.47000000000E+01 0. -1.
         -5    1    1    2    0  503  0.74776355669E+02 -0.75643893777E+01  0.25050638297E+01  0.75346457770E+02  0.47000000000E+01 0.  1.
          5    1    1    2  503    0 -0.65450724462E+02  0.20312228670E+02  0.24329630558E+02  0.72872524927E+02  0.47000000000E+01 0. -1.
         -5    1    3    3    0  502  0.24643848896E+02  0.22373230682E+01  0.55752815150E+02  0.61178356467E+02  0.47000000000E+01 0.  1.
<mgrwt>
<rscale>  0 0.12924548E+03</rscale>
<asrwt>0</asrwt>
<pdfrwt beam="1">  1        3 0.13656186E-01 0.14576956E+03</pdfrwt>
<pdfrwt beam="2">  1       -3 0.24584485E-01 0.14576956E+03</pdfrwt>
<totfact> 0.15700960E+03</totfact>
</mgrwt>
</event>
<event>
 7    1  0.9936641E-004  0.3305381E+03  0.7546771E-02  0.1098788E+00
         -4   -1    0    0    0  501 -0.00000000000E+00  0.00000000000E+00  0.96185570242E+03  0.96185570242E+03  0.00000000000E+00 0.  1.
          4   -1    0    0  501    0  0.00000000000E+00 -0.00000000000E+00 -0.18612259114E+03  0.18612259114E+03  0.00000000000E+00 0. -1.
         23    2    1    2    0    0  0.41806440093E+02 -0.11797624721E+03  0.80122384495E+03  0.81645869624E+03  0.94757477862E+02 0.  0.
          5    1    1    2  502    0 -0.76970045268E+02  0.14401581706E+02 -0.14782427753E+03  0.16734963535E+03  0.47000000000E+01 0. -1.
         -5    1    3    3    0  503 -0.28887940103E+02 -0.37129394009E+02  0.18604986560E+03  0.19196288046E+03  0.47000000000E+01 0.  1.
          5    1    3    3  503    0  0.70694380195E+02 -0.80846853199E+02  0.61517397935E+03  0.62449581579E+03  0.47000000000E+01 0. -1.
         -5    1    1    2    0  502  0.35163605175E+02  0.10357466550E+03  0.12233354385E+03  0.16416996197E+03  0.47000000000E+01 0.  1.
<mgrwt>
<rscale>  0 0.27439907E+03</rscale>
<asrwt>0</asrwt>
<pdfrwt beam="1">  1        4 0.28634245E-01 0.33053815E+03</pdfrwt>
<pdfrwt beam="2">  1       -4 0.14797780E+00 0.33053815E+03</pdfrwt>
<totfact> 0.69925597E+00</totfact>
</mgrwt>
</event>
<event>
 8    1  0.3400573E-004  0.9893657E+02  0.7546771E-02  0.1283608E+00
         -1   -1    0    0    0  501 -0.00000000000E+00  0.00000000000E+00  0.26232238212E+03  0.26232238212E+03  0.00000000000E+00 0.  1.
          1   -1    0    0  501    0  0.00000000000E+00 -0.00000000000E+00 -0.36675740428E+02  0.36675740428E+02  0.00000000000E+00 0. -1.
         23    2    1    2    0    0 -0.18972453098E+02  0.30542256132E+02  0.11944561550E+03  0.15385301380E+03  0.90059488154E+02 0.  0.
         23    2    1    2    0    0  0.18972453098E+02 -0.30542256132E+02  0.10620102620E+03  0.14514510875E+03  0.92171911359E+02 0.  0.
          5    1    4    4  502    0  0.55072004582E+02 -0.27983810645E+02  0.59725218565E+02  0.86053536125E+02  0.47000000000E+01 0. -1.
         -5    1    3    3    0  503 -0.54638978743E+02  0.24268849685E+02  0.66653126314E+02  0.89661163892E+02  0.47000000000E+01 0.  1.
          5    1    3    3  503    0  0.35666525645E+02  0.62734064473E+01  0.52792489184E+02  0.64191849905E+02  0.47000000000E+01 0. -1.
         -5    1    4    4    0  502 -0.36099551484E+02 -0.25584454867E+01  0.46475807633E+02  0.59091572630E+02  0.47000000000E+01 0.  1.
<mgrwt>
<rscale>  0 0.98441630E+02</rscale>
<asrwt>0</asrwt>
<pdfrwt beam="1">  1        1 0.56424218E-02 0.98936569E+02</pdfrwt>
<pdfrwt beam="2">  1       -1 0.40357288E-01 0.98936569E+02</pdfrwt>
<totfact> 0.78619998E+03</totfact>
</mgrwt>
</event>
<event>
 8    1  0.3400573E-004  0.9567666E+02  0.7546771E-02  0.1289717E+00
          2   -1    0    0  501    0  0.00000000000E+00  0.00000000000E+00  0.37379371990E+03  0.37379371990E+03  0.00000000000E+00 0. -1.
         -2   -1    0    0    0  501 -0.00000000000E+00 -0.00000000000E+00 -0.37574655922E+02  0.37574655922E+02  0.00000000000E+00 0.  1.
         23    2    1    2    0    0 -0.24137402783E+02 -0.92236623562E+01  0.28955131962E+03  0.30491697422E+03  0.92014696182E+02 0.  0.
         23    2    1    2    0    0  0.24137402783E+02  0.92236623562E+01  0.46667744355E+02  0.10645140160E+03  0.92121291671E+02 0.  0.
          5    1    4    4  502    0 -0.18252282476E+02 -0.15773694635E+02 -0.13927240432E+02  0.28249128908E+02  0.47000000000E+01 0.  1.
         -5    1    4    4    0  502  0.42389685258E+02  0.24997356991E+02  0.60594984787E+02  0.78202272692E+02  0.47000000000E+01 0. -1.
          5    1    3    3  503    0  0.25982755146E+02 -0.20100593031E+01  0.28280623966E+02  0.38743097389E+02  0.47000000000E+01 0. -1.
         -5    1    3    3    0  503 -0.50120157929E+02 -0.72136030532E+01  0.26127069566E+03  0.26617387683E+03  0.47000000000E+01 0.  1.
<mgrwt>
<rscale>  0 0.95650988E+02</rscale>
<asrwt>0</asrwt>
<pdfrwt beam="1">  1        2 0.57506723E-01 0.95676656E+02</pdfrwt>
<pdfrwt beam="2">  1       -2 0.57807166E-02 0.95676656E+02</pdfrwt>
<totfact> 0.12365332E+04</totfact>
</mgrwt>
</event>
<event>
 8    1  0.3400573E-004  0.1124192E+03  0.7546771E-02  0.1257126E+00
          3   -1    0    0  501    0  0.00000000000E+00  0.00000000000E+00  0.25303598570E+03  0.25303598570E+03  0.00000000000E+00 0. -1.
         -3   -1    0    0    0  501 -0.00000000000E+00 -0.00000000000E+00 -0.55626723662E+02  0.55626723662E+02  0.00000000000E+00 0.  1.
         23    2    1    2    0    0  0.26572277317E+02 -0.60235054526E+02  0.44606475871E+02  0.11896092291E+03  0.88473814055E+02 0.  0.
         23    2    1    2    0    0 -0.26572277317E+02  0.60235054526E+02  0.15280278616E+03  0.18970178645E+03  0.91124796890E+02 0.  0.
          5    1    4    4  502    0 -0.55025046132E+02  0.46707385759E+02  0.68644833883E+02  0.99717294413E+02  0.47000000000E+01 0. -1.
         -5    1    3    3    0  503 -0.85974044554E+01 -0.69070112301E+02  0.13723898993E+02  0.71098742466E+02  0.47000000000E+01 0.  1.
          5    1    3    3  503    0  0.35169681772E+02  0.88350577751E+01  0.30882576878E+02  0.47862180440E+02  0.47000000000E+01 0. -1.
         -5    1    4    4    0  502  0.28452768815E+02  0.13527668767E+02  0.84157952280E+02  0.89984492039E+02  0.47000000000E+01 0.  1.
<mgrwt>
<rscale>  0 0.11188087E+03</rscale>
<asrwt>0</asrwt>
<pdfrwt beam="1">  1        3 0.38928613E-01 0.11241920E+03</pdfrwt>
<pdfrwt beam="2">  1       -3 0.85579576E-02 0.11241920E+03</pdfrwt>
<totfact> 0.13918203E+03</totfact>
</mgrwt>
</event>
<event>
 8    1  0.3400573E-004  0.9360630E+02  0.7546771E-02  0.1294898E+00
          1   -1    0    0  501    0  0.00000000000E+00  0.00000000000E+00  0.63899223859E+03  0.63899223859E+03  0.00000000000E+00 0. -1.
         -1   -1    0    0    0  501 -0.00000000000E+00 -0.00000000000E+00 -0.24933163854E+02  0.24933163854E+02  0.00000000000E+00 0.  1.
         23    2    1    2    0    0 -0.97036799821E+01 -0.15577357825E+02  0.53196159046E+03  0.54013449541E+03  0.91789563226E+02 0.  0.
         23    2    1    2    0    0  0.97036799821E+01  0.15577357825E+02  0.82097484272E+02  0.12379090704E+03  0.90815066256E+02 0.  0.
          5    1    3    3  502    0 -0.16602984679E+02  0.32117825134E+02  0.34809409161E+03  0.34999828629E+03  0.47000000000E+01 0.  1.
         -5    1    4    4    0  503 -0.35820143366E+02  0.19320809859E+02  0.17533804372E+02  0.44563445335E+02  0.47000000000E+01 0.  1.
          5    1    4    4  503    0  0.45523823349E+02 -0.37434520342E+01  0.64563679900E+02  0.79227461701E+02  0.47000000000E+01 0. -1.
         -5    1    3    3    0  502  0.68993046968E+01 -0.47695182959E+02  0.18386749886E+03  0.19013620912E+03  0.47000000000E+01 0. -1.
<mgrwt>
<rscale>  0 0.93366534E+02</rscale>
<asrwt>0</asrwt>
<pdfrwt beam="1">  1        1 0.98306486E-01 0.93606300E+02</pdfrwt>
<pdfrwt beam="2">  1       -1 0.38358718E-02 0.93606300E+02</pdfrwt>
<totfact> 0.78908608E+03</totfact>
</mgrwt>
</event>
<event>
 8    1  0.3400573E-004  0.9572652E+02  0.7546771E-02  0.1290495E+00
          1   -1    0    0  501    0  0.00000000000E+00  0.00000000000E+00  0.11325835382E+03  0.11325835382E+03  0.00000000000E+00 0. -1.
         -1   -1    0    0    0  501 -0.00000000000E+00 -0.00000000000E+00 -0.94412732896E+02  0.94412732896E+02  0.00000000000E+00 0.  1.
         23    2    1    2    0    0 -0.32434200809E+01  0.24574574911E+02  0.50769544795E+02  0.10835641896E+03  0.92461545225E+02 0.  0.
         23    2    1    2    0    0  0.32434200809E+01 -0.24574574911E+02 -0.31923923865E+02  0.99314667761E+02  0.90718448022E+02 0.  0.
          5    1    4    4  502    0 -0.18772300593E+02 -0.52497432528E+02 -0.29782357386E+02  0.63383424513E+02  0.47000000000E+01 0. -1.
         -5    1    4    4    0  502  0.22015720674E+02  0.27922857617E+02 -0.21415664794E+01  0.35931243247E+02  0.47000000000E+01 0.  1.
          5    1    3    3  503    0  0.77056227744E+01 -0.27036157274E+02  0.47363695966E+02  0.55278749245E+02  0.47000000000E+01 0. -1.
         -5    1    3    3    0  503 -0.10949042855E+02  0.51610732185E+02  0.34058488283E+01  0.53077669715E+02  0.47000000000E+01 0.  1.
<mgrwt>
<rscale>  0 0.95303079E+02</rscale>
<asrwt>0</asrwt>
<pdfrwt beam="1">  1        1 0.17424362E-01 0.95726521E+02</pdfrwt>
<pdfrwt beam="2">  1       -1 0.14525036E-01 0.95726521E+02</pdfrwt>
<totfact> 0.94483416E+03</totfact>
</mgrwt>
</event>
<event>
 8    1  0.3400573E-004  0.1022939E+03  0.7546771E-02  0.1277657E+00
          2   -1    0    0  501    0  0.00000000000E+00  0.00000000000E+00  0.10427384087E+04  0.10427384087E+04  0.00000000000E+00 0. -1.
         -2   -1    0    0    0  501 -0.00000000000E+00 -0.00000000000E+00 -0.97996971325E+01  0.97996971325E+01  0.00000000000E+00 0.  1.
         23    2    1    2    0    0 -0.40354717992E+02  0.11873102102E+02  0.59358610178E+03  0.60233586793E+03  0.93244644636E+02 0.  0.
         23    2    1    2    0    0  0.40354717992E+02 -0.11873102102E+02  0.43935260975E+03  0.45020223786E+03  0.88779870832E+02 0.  0.
          5    1    4    4  502    0  0.29580994413E+01  0.33552174887E+02  0.96774692097E+02  0.10257645842E+03  0.47000000000E+01 0. -1.
         -5    1    3    3    0  503 -0.16477963705E+02 -0.39132037785E+02  0.33043422094E+03  0.33318418936E+03  0.47000000000E+01 0.  1.
          5    1    3    3  503    0 -0.23876754287E+02  0.51005139888E+02  0.26315188084E+03  0.26915167858E+03  0.47000000000E+01 0. -1.
         -5    1    4    4    0  502  0.37396618551E+02 -0.45425276989E+02  0.34257791765E+03  0.34762577944E+03  0.47000000000E+01 0.  1.
<mgrwt>
<rscale>  0 0.10126531E+03</rscale>
<asrwt>0</asrwt>
<pdfrwt beam="1">  1        2 0.16042121E+00 0.10229388E+03</pdfrwt>
<pdfrwt beam="2">  1       -2 0.15076465E-02 0.10229388E+03</pdfrwt>
<totfact> 0.26855513E+04</totfact>
</mgrwt>
</event>
<event>
 8    1  0.3400573E-004  0.1120540E+03  0.7546771E-02  0.1256981E+00
          1   -1    0    0  501    0  0.00000000000E+00  0.00000000000E+00  0.65380320767E+03  0.65380320767E+03  0.00000000000E+00 0. -1.
         -1   -1    0    0    0  501 -0.00000000000E+00 -0.00000000000E+00 -0.19818807194E+02  0.19818807194E+02  0.00000000000E+00 0.  1.
         23    2    1    2    0    0 -0.25460914436E-01  0.64518403186E+02  0.25419558681E+03  0.27764772052E+03  0.91160492307E+02 0.  0.
         23    2    1    2    0    0  0.25460914436E-01 -0.64518403186E+02  0.37978881367E+03  0.39597429435E+03  0.91615903630E+02 0.  0.
          5    1    4    4  502    0  0.29220911886E+02 -0.73479962175E+02  0.30343985396E+03  0.31360963235E+03  0.47000000000E+01 0. -1.
         -5    1    4    4    0  502 -0.29195450972E+02  0.89615589889E+01  0.76348959709E+02  0.82364661996E+02  0.47000000000E+01 0.  1.
          5    1    3    3  503    0  0.44672234011E+02  0.23687740409E+02  0.12361581648E+03  0.13364010484E+03  0.47000000000E+01 0. -1.
         -5    1    3    3    0  503 -0.44697694926E+02  0.40830662777E+02  0.13057977033E+03  0.14400761568E+03  0.47000000000E+01 0.  1.
<mgrwt>
<rscale>  0 0.11196087E+03</rscale>
<asrwt>0</asrwt>
<pdfrwt beam="1">  1        1 0.10058509E+00 0.11205400E+03</pdfrwt>
<pdfrwt beam="2">  1       -1 0.30490478E-02 0.11205400E+03</pdfrwt>
<totfact> 0.10805218E+04</totfact>
</mgrwt>
</event>
<event>
 8    1  0.3400573E-004  0.9462810E+02  0.7546771E-02  0.1292690E+00
         -3   -1    0    0    0  501 -0.00000000000E+00  0.00000000000E+00  0.75784169961E+02  0.75784169961E+02  0.00000000000E+00 0.  1.
          3   -1    0    0  501    0  0.00000000000E+00 -0.00000000000E+00 -0.12906672274E+03  0.12906672274E+03  0.00000000000E+00 0. -1.
         23    2    1    2    0    0  0.18856582087E+02  0.16665015586E+02  0.52345667992E+01  0.93591147401E+02  0.89992270500E+02 0.  0.
         23    2    1    2    0    0 -0.18856582087E+02 -0.16665015586E+02 -0.58517119580E+02  0.11125974530E+03  0.91220525148E+02 0.  0.
          5    1    4    4  502    0  0.53114996858E+01 -0.49156090591E+02 -0.48199465134E+02  0.69208465597E+02  0.47000000000E+01 0. -1.
         -5    1    4    4    0  502 -0.24168081773E+02  0.32491075005E+02 -0.10317654446E+02  0.42051279705E+02  0.47000000000E+01 0.  1.
          5    1    3    3  503    0  0.18571548590E+02 -0.34878907603E+02 -0.70041571132E+01  0.40405306947E+02  0.47000000000E+01 0. -1.
         -5    1    3    3    0  503  0.28503349695E+00  0.51543923189E+02  0.12238723912E+02  0.53185840454E+02  0.47000000000E+01 0.  1.
<mgrwt>
<rscale>  0 0.94330840E+02</rscale>
<asrwt>0</asrwt>
<pdfrwt beam="1">  1        3 0.19856419E-01 0.94628102E+02</pdfrwt>
<pdfrwt beam="2">  1       -3 0.11659103E-01 0.94628102E+02</pdfrwt>
<totfact> 0.27621687E+03</totfact>
</mgrwt>
</event>
<event>
 8    1  0.3400573E-004  0.1014253E+03  0.7546771E-02  0.1278472E+00
          1   -1    0    0  501    0  0.00000000000E+00  0.00000000000E+00  0.38107813220E+03  0.38107813220E+03  0.00000000000E+00 0. -1.
         -1   -1    0    0    0  501 -0.00000000000E+00 -0.00000000000E+00 -0.37387331656E+02  0.37387331656E+02  0.00000000000E+00 0.  1.
         23    2    1    2    0    0 -0.28640052380E+02 -0.28598836417E+02  0.57169824223E+02  0.11452244220E+03  0.90602731312E+02 0.  0.
         23    2    1    2    0    0  0.28640052380E+02  0.28598836417E+02  0.28652097632E+03  0.30394302165E+03  0.92999701595E+02 0.  0.
          5    1    3    3  502    0 -0.33872439187E+02 -0.18506271933E+01  0.74423136052E+02  0.81924722381E+02  0.47000000000E+01 0. -1.
         -5    1    4    4    0  503  0.56945318565E+02 -0.41228291146E+01  0.14599446314E+03  0.15683188545E+03  0.47000000000E+01 0.  1.
          5    1    4    4  503    0 -0.28305266185E+02  0.32721665531E+02  0.14052651318E+03  0.14711113620E+03  0.47000000000E+01 0. -1.
         -5    1    3    3    0  502  0.52323868071E+01 -0.26748209223E+02 -0.17253311829E+02  0.32597719819E+02  0.47000000000E+01 0.  1.
<mgrwt>
<rscale>  0 0.10087248E+03</rscale>
<asrwt>0</asrwt>
<pdfrwt beam="1">  1        1 0.58627402E-01 0.10142530E+03</pdfrwt>
<pdfrwt beam="2">  1       -1 0.57518974E-02 0.10142530E+03</pdfrwt>
<totfact> 0.85524653E+03</totfact>
</mgrwt>
</event>
<event>
 8    1  0.3400573E-004  0.9579810E+02  0.7546771E-02  0.1292008E+00
          3   -1    0    0  501    0  0.00000000000E+00  0.00000000000E+00  0.69710673920E+02  0.69710673920E+02  0.00000000000E+00 0. -1.
         -3   -1    0    0    0  501 -0.00000000000E+00 -0.00000000000E+00 -0.16332852209E+03  0.16332852209E+03  0.00000000000E+00 0.  1.
         23    2    1    2    0    0 -0.73458371638E+01 -0.14990633223E+02  0.84269868344E+01  0.96168025862E+02  0.94332362862E+02 0.  0.
         23    2    1    2    0    0  0.73458371638E+01  0.14990633223E+02 -0.10204483501E+03  0.13687117015E+03  0.89676576980E+02 0.  0.
          5    1    3    3  502    0 -0.46217978222E+02  0.23615646766E+01 -0.12972589905E+02  0.48291371771E+02  0.47000000000E+01 0. -1.
         -5    1    3    3    0  502  0.38872141058E+02 -0.17352197899E+02  0.21399576740E+02  0.47876654092E+02  0.47000000000E+01 0.  1.
          5    1    4    4  503    0  0.41639059971E+02  0.83276917566E+01 -0.19199832883E+02  0.46838929834E+02  0.47000000000E+01 0. -1.
         -5    1    4    4    0  503 -0.34293222807E+02  0.66629414660E+01 -0.82845002124E+02  0.90032240317E+02  0.47000000000E+01 0.  1.
<mgrwt>
<rscale>  0 0.94631731E+02</rscale>
<asrwt>0</asrwt>
<pdfrwt beam="1">  1        3 0.10724719E-01 0.95798095E+02</pdfrwt>
<pdfrwt beam="2">  1       -3 0.25127465E-01 0.95798095E+02</pdfrwt>
<totfact> 0.20963571E+03</totfact>
</mgrwt>
</event>
<event>
 8    1  0.3400573E-004  0.1705772E+03  0.7546771E-02  0.1177709E+00
         -2   -1    0    0    0  501 -0.00000000000E+00  0.00000000000E+00  0.32024774586E+02  0.32024774586E+02  0.00000000000E+00 0.  1.
          2   -1    0    0  501    0  0.00000000000E+00 -0.00000000000E+00 -0.12581237594E+04  0.12581237594E+04  0.00000000000E+00 0. -1.
         23    2    1    2    0    0 -0.56324973716E+01 -0.14414227871E+03 -0.26620771174E+03  0.31521888176E+03  0.87679393756E+02 0.  0.
         23    2    1    2    0    0  0.56324973716E+01  0.14414227871E+03 -0.95989127310E+03  0.97492965225E+03  0.91037624822E+02 0.  0.
          5    1    4    4  502    0  0.16532068930E+02  0.70819837442E+02 -0.72307575403E+03  0.72673887659E+03  0.47000000000E+01 0. -1.
         -5    1    3    3    0  503  0.27016403643E+02 -0.83204708349E+01 -0.53670979689E+02  0.60842258025E+02  0.47000000000E+01 0.  1.
          5    1    3    3  503    0 -0.32648901015E+02 -0.13582180787E+03 -0.21253673205E+03  0.25437662373E+03  0.47000000000E+01 0. -1.
         -5    1    4    4    0  502 -0.10899571558E+02  0.73322441265E+02 -0.23681551906E+03  0.24819077566E+03  0.47000000000E+01 0.  1.
<mgrwt>
<rscale>  0 0.17013334E+03</rscale>
<asrwt>0</asrwt>
<pdfrwt beam="1">  1        2 0.19355751E+00 0.17057717E+03</pdfrwt>
<pdfrwt beam="2">  1       -2 0.49268882E-02 0.17057717E+03</pdfrwt>
<totfact> 0.36784403E+03</totfact>
</mgrwt>
</event>
<event>
 8    1  0.3400573E-004  0.9586837E+02  0.7546771E-02  0.1291106E+00
         -3   -1    0    0    0  501 -0.00000000000E+00  0.00000000000E+00  0.70629761881E+02  0.70629761881E+02  0.00000000000E+00 0.  1.
          3   -1    0    0  501    0  0.00000000000E+00 -0.00000000000E+00 -0.12819196867E+03  0.12819196867E+03  0.00000000000E+00 0. -1.
         23    2    1    2    0    0  0.99442672904E+01  0.20090903740E+02 -0.14364030714E+02  0.93670279934E+02  0.89806809873E+02 0.  0.
         23    2    1    2    0    0 -0.99442672904E+01 -0.20090903740E+02 -0.43198176071E+02  0.10515145061E+03  0.93210580328E+02 0.  0.
          5    1    3    3  502    0 -0.31783374473E+02 -0.14867303049E+02 -0.16350981719E+02  0.38995694583E+02  0.47000000000E+01 0. -1.
         -5    1    4    4    0  503  0.27490594217E+02 -0.22819312691E+02  0.12222627273E+02  0.38051759743E+02  0.47000000000E+01 0.  1.
          5    1    4    4  503    0 -0.37434861507E+02  0.27284089513E+01 -0.55420803344E+02  0.67099690870E+02  0.47000000000E+01 0. -1.
         -5    1    3    3    0  502  0.41727641763E+02  0.34958206789E+02  0.19869510047E+01  0.54674585351E+02  0.47000000000E+01 0.  1.
<mgrwt>
<rscale>  0 0.95030970E+02</rscale>
<asrwt>0</asrwt>
<pdfrwt beam="1">  1        3 0.19721841E-01 0.95868374E+02</pdfrwt>
<pdfrwt beam="2">  1       -3 0.10866117E-01 0.95868374E+02</pdfrwt>
<totfact> 0.31489225E+03</totfact>
</mgrwt>
</event>
<event>
 8    1  0.3400573E-004  0.9993871E+02  0.7546771E-02  0.1281083E+00
         -1   -1    0    0    0  501 -0.00000000000E+00  0.00000000000E+00  0.15637951279E+02  0.15637951279E+02  0.00000000000E+00 0.  1.
          1   -1    0    0  501    0  0.00000000000E+00 -0.00000000000E+00 -0.80496651721E+03  0.80496651721E+03  0.00000000000E+00 0. -1.
         23    2    1    2    0    0 -0.28588955700E+02  0.22802642834E+02 -0.58745920122E+03  0.59589937022E+03  0.93007835276E+02 0.  0.
         23    2    1    2    0    0  0.28588955700E+02 -0.22802642834E+02 -0.20186936471E+03  0.22470509827E+03  0.91672525172E+02 0.  0.
          5    1    3    3  502    0 -0.59159399212E+02  0.20470799953E+02 -0.47886239040E+03  0.48295979864E+03  0.47000000000E+01 0. -1.
         -5    1    3    3    0  502  0.30570443512E+02  0.23318428809E+01 -0.10859681082E+03  0.11293957157E+03  0.47000000000E+01 0.  1.
          5    1    4    4  503    0  0.14503704984E+02  0.31611228905E+02 -0.39607019713E+02  0.52919120001E+02  0.47000000000E+01 0. -1.
         -5    1    4    4    0  503  0.14085250716E+02 -0.54413871739E+02 -0.16226234500E+03  0.17178597827E+03  0.47000000000E+01 0.  1.
<mgrwt>
<rscale>  0 0.99626883E+02</rscale>
<asrwt>0</asrwt>
<pdfrwt beam="1">  1        1 0.12384099E+00 0.99938713E+02</pdfrwt>
<pdfrwt beam="2">  1       -1 0.24058390E-02 0.99938713E+02</pdfrwt>
<totfact> 0.11187644E+04</totfact>
</mgrwt>
</event>
<event>
 8    1  0.3400573E-004  0.1321836E+03  0.7546771E-02  0.1227526E+00
          2   -1    0    0  501    0  0.00000000000E+00  0.00000000000E+00  0.74222531658E+03  0.74222531658E+03  0.00000000000E+00 0. -1.
         -2   -1    0    0    0  501 -0.00000000000E+00 -0.00000000000E+00 -0.36395846465E+02  0.36395846465E+02  0.00000000000E+00 0.  1.
         23    2    1    2    0    0 -0.79855288055E+02 -0.29019767072E+02  0.60479541507E+03  0.61907188458E+03  0.10125951945E+03 0.  0.
         23    2    1    2    0    0  0.79855288055E+02  0.29019767072E+02  0.10103405505E+03  0.15954927847E+03  0.89605123003E+02 0.  0.
          5    1    3    3  502    0 -0.46576771366E+02 -0.46541978750E+02  0.53988549709E+03  0.54390623400E+03  0.47000000000E+01 0. -1.
         -5    1    3    3    0  502 -0.33278516689E+02  0.17522211678E+02  0.64909917976E+02  0.75165650578E+02  0.47000000000E+01 0.  1.
          5    1    4    4  503    0  0.38254524432E+02  0.65846525202E+01 -0.86293428721E+01  0.40041501555E+02  0.47000000000E+01 0.  1.
         -5    1    4    4    0  503  0.41600763623E+02  0.22435114552E+02  0.10966339792E+03  0.11950777691E+03  0.47000000000E+01 0. -1.
<mgrwt>
<rscale>  0 0.12995264E+03</rscale>
<asrwt>0</asrwt>
<pdfrwt beam="1">  1        2 0.11418850E+00 0.13218360E+03</pdfrwt>
<pdfrwt beam="2">  1       -2 0.55993616E-02 0.13218360E+03</pdfrwt>
<totfact> 0.61995860E+03</totfact>
</mgrwt>
</event>
<event>
 8    1  0.3400573E-004  0.2581214E+03  0.7546771E-02  0.1108360E+00
          1   -1    0    0  501    0  0.00000000000E+00  0.00000000000E+00  0.73316382269E+03  0.73316382269E+03  0.00000000000E+00 0. -1.
         -1   -1    0    0    0  501 -0.00000000000E+00 -0.00000000000E+00 -0.13027449497E+03  0.13027449497E+03  0.00000000000E+00 0.  1.
         23    2    1    2    0    0  0.54088621188E+02  0.23489629226E+03  0.53966067717E+03  0.59821427116E+03  0.92329955431E+02 0.  0.
         23    2    1    2    0    0 -0.54088621188E+02 -0.23489629226E+03  0.63228650549E+02  0.26522404651E+03  0.90796946737E+02 0.  0.
          5    1    4    4  502    0 -0.52096481480E+02 -0.11163524705E+03  0.69821421834E+02  0.14168130686E+03  0.47000000000E+01 0. -1.
         -5    1    3    3    0  503 -0.21367053014E+02  0.89722111404E+02  0.23237880948E+03  0.25005721210E+03  0.47000000000E+01 0.  1.
          5    1    3    3  503    0  0.75455674201E+02  0.14517418086E+03  0.30728186769E+03  0.34815705905E+03  0.47000000000E+01 0. -1.
         -5    1    4    4    0  502 -0.19921397071E+01 -0.12326104521E+03 -0.65927712854E+01  0.12354273965E+03  0.47000000000E+01 0.  1.
<mgrwt>
<rscale>  0 0.25798522E+03</rscale>
<asrwt>0</asrwt>
<pdfrwt beam="1">  1        1 0.11279443E+00 0.25812142E+03</pdfrwt>
<pdfrwt beam="2">  1       -1 0.20042230E-01 0.25812142E+03</pdfrwt>
<totfact> 0.53197895E+02</totfact>
</mgrwt>
</event>
<event>
 8    1  0.3400573E-004  0.9881659E+02  0.7546771E-02  0.1283257E+00
         -1   -1    0    0    0  501 -0.00000000000E+00  0.00000000000E+00  0.97617406615E+03  0.97617406615E+03  0.00000000000E+00 0.  1.
          1   -1    0    0  501    0  0.00000000000E+00 -0.00000000000E+00 -0.10106729076E+02  0.10106729076E+02  0.00000000000E+00 0. -1.
         23    2    1    2    0    0 -0.28747835460E+02 -0.26684275008E+02  0.41766259697E+03  0.42919315344E+03  0.90698563824E+02 0.  0.
         23    2    1    2    0    0  0.28747835460E+02  0.26684275008E+02  0.54840474011E+03  0.55708764179E+03  0.89779691916E+02 0.  0.
          5    1    4    4  502    0  0.50572164525E+02  0.32992382039E+00  0.44879095839E+03  0.45165591661E+03  0.47000000000E+01 0. -1.
         -5    1    3    3    0  503 -0.33160456228E+02 -0.57869967264E+02  0.27334489192E+03  0.28140374715E+03  0.47000000000E+01 0. -1.
          5    1    3    3  503    0  0.44126207681E+01  0.31185692256E+02  0.14431770504E+03  0.14778940629E+03  0.47000000000E+01 0.  1.
         -5    1    4    4    0  502 -0.21824329065E+02  0.26354351188E+02  0.99613781716E+02  0.10543172517E+03  0.47000000000E+01 0.  1.
<mgrwt>
<rscale>  0 0.98605234E+02</rscale>
<asrwt>0</asrwt>
<pdfrwt beam="1">  1        1 0.15548822E-02 0.98816588E+02</pdfrwt>
<pdfrwt beam="2">  1       -1 0.15018055E+00 0.98816588E+02</pdfrwt>
<totfact> 0.30691582E+03</totfact>
</mgrwt>
</event>
<event>
 8    1  0.3400573E-004  0.9610163E+02  0.7546771E-02  0.1288756E+00
          1   -1    0    0  501    0  0.00000000000E+00  0.00000000000E+00  0.10702038887E+03  0.10702038887E+03  0.00000000000E+00 0. -1.
         -1   -1    0    0    0  501 -0.00000000000E+00 -0.00000000000E+00 -0.10593551153E+03  0.10593551153E+03  0.00000000000E+00 0.  1.
         23    2    1    2    0    0 -0.29837629198E+02  0.54197224678E+01 -0.45382577401E+02  0.10620971564E+03  0.91111293794E+02 0.  0.
         23    2    1    2    0    0  0.29837629198E+02 -0.54197224678E+01  0.46467454740E+02  0.10674618476E+03  0.91191370772E+02 0.  0.
          5    1    4    4  502    0  0.58839067399E+02 -0.32959745718E+01  0.49538442318E+02  0.77130062673E+02  0.47000000000E+01 0. -1.
         -5    1    4    4    0  502 -0.29001438200E+02 -0.21237478961E+01 -0.30709875775E+01  0.29616122088E+02  0.47000000000E+01 0.  1.
          5    1    3    3  503    0  0.21689458837E+02  0.28226955001E+02 -0.39772834027E+01  0.36126200970E+02  0.47000000000E+01 0. -1.
         -5    1    3    3    0  503 -0.51527088036E+02 -0.22807232533E+02 -0.41405293998E+02  0.70083514669E+02  0.47000000000E+01 0.  1.
<mgrwt>
<rscale>  0 0.96082631E+02</rscale>
<asrwt>0</asrwt>
<pdfrwt beam="1">  1        1 0.16464675E-01 0.96101632E+02</pdfrwt>
<pdfrwt beam="2">  1       -1 0.16297771E-01 0.96101632E+02</pdfrwt>
<totfact> 0.84914026E+03</totfact>
</mgrwt>
</event>
<event>
 8    1  0.3400573E-004  0.9462902E+02  0.7546771E-02  0.1296111E+00
         -1   -1    0    0    0  501 -0.00000000000E+00  0.00000000000E+00  0.73142480872E+02  0.73142480872E+02  0.00000000000E+00 0.  1.
          1   -1    0    0  501    0  0.00000000000E+00 -0.00000000000E+00 -0.18308050523E+03  0.18308050523E+03  0.00000000000E+00 0. -1.
         23    2    1    2    0    0 -0.13062439501E+01 -0.60835809505E+01 -0.13255310613E+03  0.15892913598E+03  0.87461008959E+02 0.  0.
         23    2    1    2    0    0  0.13062439501E+01  0.60835809505E+01  0.22615081774E+02  0.97293850120E+02  0.94424229502E+02 0.  0.
          5    1    3    3  502    0  0.38709023117E+02  0.81491829204E+01 -0.90948200231E+02  0.99289791914E+02  0.47000000000E+01 0. -1.
         -5    1    3    3    0  502 -0.40015267067E+02 -0.14232763871E+02 -0.41604905900E+02  0.59639344067E+02  0.47000000000E+01 0.  1.
          5    1    4    4  503    0  0.36357929564E+02 -0.27492536447E+02  0.12364705379E+02  0.47462770058E+02  0.47000000000E+01 0. -1.
         -5    1    4    4    0  503 -0.35051685614E+02  0.33576117398E+02  0.10250376395E+02  0.49831080062E+02  0.47000000000E+01 0.  1.
<mgrwt>
<rscale>  0 0.92842312E+02</rscale>
<asrwt>0</asrwt>
<pdfrwt beam="1">  1        1 0.28166231E-01 0.94629020E+02</pdfrwt>
<pdfrwt beam="2">  1       -1 0.11252689E-01 0.94629020E+02</pdfrwt>
<totfact> 0.76620884E+03</totfact>
</mgrwt>
</event>
<event>
 8    1  0.3400573E-004  0.1024563E+03  0.7546771E-02  0.1275309E+00
         -4   -1    0    0    0  501 -0.00000000000E+00  0.00000000000E+00  0.12897593413E+03  0.12897593413E+03  0.00000000000E+00 0.  1.
          4   -1    0    0  501    0  0.00000000000E+00 -0.00000000000E+00 -0.10331976079E+03  0.10331976079E+03  0.00000000000E+00 0. -1.
         23    2    1    2    0    0 -0.40251759854E+02 -0.21139736828E+02  0.66510515661E+02  0.12199443675E+03  0.91607321000E+02 0.  0.
         23    2    1    2    0    0  0.40251759854E+02  0.21139736828E+02 -0.40854342326E+02  0.11030125817E+03  0.91816107643E+02 0.  0.
          5    1    4    4  502    0  0.21948276986E+02  0.38256555100E+02 -0.62647343300E+02  0.76759823432E+02  0.47000000000E+01 0. -1.
         -5    1    3    3    0  503 -0.11194403985E+02 -0.31389499574E+02  0.80932177370E+02  0.87651142023E+02  0.47000000000E+01 0.  1.
          5    1    3    3  503    0 -0.29057355869E+02  0.10249762746E+02 -0.14421661709E+02  0.34343294730E+02  0.47000000000E+01 0. -1.
         -5    1    4    4    0  502  0.18303482868E+02 -0.17116818272E+02  0.21793000975E+02  0.33541434739E+02  0.47000000000E+01 0.  1.
<mgrwt>
<rscale>  0 0.10240949E+03</rscale>
<asrwt>0</asrwt>
<pdfrwt beam="1">  1        4 0.15895348E-01 0.10245628E+03</pdfrwt>
<pdfrwt beam="2">  1       -4 0.19842451E-01 0.10245628E+03</pdfrwt>
<totfact> 0.12041706E+03</totfact>
</mgrwt>
</event>
<event>
 8    1  0.3400573E-004  0.1095450E+03  0.7546771E-02  0.1263215E+00
          1   -1    0    0  501    0  0.00000000000E+00  0.00000000000E+00  0.41178768534E+02  0.41178768534E+02  0.00000000000E+00 0. -1.
         -1   -1    0    0    0  501 -0.00000000000E+00 -0.00000000000E+00 -0.66135550722E+03  0.66135550722E+03  0.00000000000E+00 0.  1.
         23    2    1    2    0    0  0.42958532515E+02 -0.29910224838E+02 -0.57864015792E+03  0.58891811033E+03  0.96229160110E+02 0.  0.
         23    2    1    2    0    0 -0.42958532515E+02  0.29910224838E+02 -0.41536580770E+02  0.11361616542E+03  0.91887368217E+02 0.  0.
          5    1    3    3  502    0 -0.93851814440E+01 -0.47943379870E+02 -0.18599961672E+03  0.19236578886E+03  0.47000000000E+01 0. -1.
         -5    1    3    3    0  502  0.52343713959E+02  0.18033155032E+02 -0.39264054120E+03  0.39655232147E+03  0.47000000000E+01 0.  1.
          5    1    4    4  503    0 -0.67796432410E+02  0.13095926260E+02 -0.10151922997E+02  0.69950061277E+02  0.47000000000E+01 0. -1.
         -5    1    4    4    0  503  0.24837899895E+02  0.16814298578E+02 -0.31384657773E+02  0.43666104147E+02  0.47000000000E+01 0.  1.
<mgrwt>
<rscale>  0 0.10858402E+03</rscale>
<asrwt>0</asrwt>
<pdfrwt beam="1">  1        1 0.63351953E-02 0.10954501E+03</pdfrwt>
<pdfrwt beam="2">  1       -1 0.10174700E+00 0.10954501E+03</pdfrwt>
<totfact> 0.11322915E+03</totfact>
</mgrwt>
</event>
<event>
 8    1  0.3400573E-004  0.9687283E+02  0.7546771E-02  0.1298163E+00
         -2   -1    0    0    0  501 -0.00000000000E+00  0.00000000000E+00  0.31667210134E+03  0.31667210134E+03  0.00000000000E+00 0.  1.
          2   -1    0    0  501    0  0.00000000000E+00 -0.00000000000E+00 -0.43248326162E+02  0.43248326162E+02  0.00000000000E+00 0. -1.
         23    2    1    2    0    0  0.19343849660E+02 -0.27949069723E+02  0.24740374378E+03  0.25961396045E+03  0.70960982267E+02 0.  0.
         23    2    1    2    0    0 -0.19343849660E+02  0.27949069723E+02  0.26020031396E+02  0.10030646705E+03  0.90713892435E+02 0.  0.
          5    1    4    4  502    0 -0.40235574564E+02  0.40011768787E+02 -0.88742584748E+01  0.57625389937E+02  0.47000000000E+01 0. -1.
         -5    1    3    3    0  503  0.22680065172E+02 -0.50207084255E+02  0.18610624337E+03  0.19414623480E+03  0.47000000000E+01 0.  1.
          5    1    3    3  503    0 -0.33362155113E+01  0.22258014532E+02  0.61297500412E+02  0.65467725649E+02  0.47000000000E+01 0. -1.
         -5    1    4    4    0  502  0.20891724903E+02 -0.12062699064E+02  0.34894289870E+02  0.42681077115E+02  0.47000000000E+01 0.  1.
<mgrwt>
<rscale>  0 0.91964413E+02</rscale>
<asrwt>0</asrwt>
<pdfrwt beam="1">  1        2 0.66535888E-02 0.96872831E+02</pdfrwt>
<pdfrwt beam="2">  1       -2 0.48718783E-01 0.96872831E+02</pdfrwt>
<totfact> 0.40531657E+03</totfact>
</mgrwt>
</event>
<event>
 8    1  0.3400573E-004  0.9871636E+02  0.7546771E-02  0.1283115E+00
          1   -1    0    0  501    0  0.00000000000E+00  0.00000000000E+00  0.30064576141E+03  0.30064576141E+03  0.00000000000E+00 0. -1.
         -1   -1    0    0    0  501 -0.00000000000E+00 -0.00000000000E+00 -0.56474073843E+02  0.56474073843E+02  0.00000000000E+00 0.  1.
         23    2    1    2    0    0  0.36624088651E+02  0.66682114221E+01  0.54562979896E+01  0.98867032055E+02  0.91428277499E+02 0.  0.
         23    2    1    2    0    0 -0.36624088651E+02 -0.66682114221E+01  0.23871538957E+03  0.25825280319E+03  0.91234227270E+02 0.  0.
          5    1    4    4  502    0 -0.10156025589E+02 -0.40573393184E+02  0.18262701647E+03  0.18741414631E+03  0.47000000000E+01 0. -1.
         -5    1    3    3    0  503  0.63097433506E+02  0.13276807025E+02 -0.12525906111E+02  0.65852471812E+02  0.47000000000E+01 0.  1.
          5    1    3    3  503    0 -0.26473344855E+02 -0.66085956028E+01  0.17982204101E+02  0.33014560242E+02  0.47000000000E+01 0. -1.
         -5    1    4    4    0  502 -0.26468063062E+02  0.33905181762E+02  0.56088373099E+02  0.70838656887E+02  0.47000000000E+01 0.  1.
<mgrwt>
<rscale>  0 0.98671401E+02</rscale>
<asrwt>0</asrwt>
<pdfrwt beam="1">  1        1 0.46253193E-01 0.98716355E+02</pdfrwt>
<pdfrwt beam="2">  1       -1 0.86883192E-02 0.98716355E+02</pdfrwt>
<totfact> 0.61880122E+03</totfact>
</mgrwt>
</event>
<event>
 8    1  0.3400573E-004  0.1117354E+03  0.7546771E-02  0.1257721E+00
         -2   -1    0    0    0  501 -0.00000000000E+00  0.00000000000E+00  0.15380520256E+03  0.15380520256E+03  0.00000000000E+00 0.  1.
          2   -1    0    0  501    0  0.00000000000E+00 -0.00000000000E+00 -0.31754907567E+03  0.31754907567E+03  0.00000000000E+00 0. -1.
         23    2    1    2    0    0  0.39728043946E+02 -0.50467505766E+02  0.12162269227E+03  0.16515712882E+03  0.91430363182E+02 0.  0.
         23    2    1    2    0    0 -0.39728043946E+02  0.50467505766E+02 -0.28536656537E+03  0.30619714941E+03  0.90539113445E+02 0.  0.
          5    1    3    3  502    0  0.74418866003E+01  0.26469832339E+02  0.25599416441E+02  0.37860980208E+02  0.47000000000E+01 0. -1.
         -5    1    3    3    0  502  0.32286157345E+02 -0.76937338105E+02  0.96023275824E+02  0.12729614861E+03  0.47000000000E+01 0.  1.
          5    1    4    4  503    0  0.24482269725E+02  0.23601606734E+02 -0.15038521139E+03  0.15425374931E+03  0.47000000000E+01 0.  1.
         -5    1    4    4    0  503 -0.64210313671E+02  0.26865899033E+02 -0.13498135398E+03  0.15194340010E+03  0.47000000000E+01 0. -1.
<mgrwt>
<rscale>  0 0.11155292E+03</rscale>
<asrwt>0</asrwt>
<pdfrwt beam="1">  1        2 0.48853703E-01 0.11173539E+03</pdfrwt>
<pdfrwt beam="2">  1       -2 0.23662339E-01 0.11173539E+03</pdfrwt>
<totfact> 0.15715543E+03</totfact>
</mgrwt>
</event>
<event>
 8    1  0.3400573E-004  0.1183547E+03  0.7546771E-02  0.1246552E+00
         -1   -1    0    0    0  501 -0.00000000000E+00  0.00000000000E+00  0.27098556377E+02  0.27098556377E+02  0.00000000000E+00 0.  1.
          1   -1    0    0  501    0  0.00000000000E+00 -0.00000000000E+00 -0.85043038571E+03  0.85043038571E+03  0.00000000000E+00 0. -1.
         23    2    1    2    0    0  0.44915825957E+02  0.60568127731E+02 -0.68767000442E+03  0.69749571038E+03  0.89018545852E+02 0.  0.
         23    2    1    2    0    0 -0.44915825957E+02 -0.60568127731E+02 -0.13566182492E+03  0.18003323171E+03  0.91224471833E+02 0.  0.
          5    1    3    3  502    0  0.43032635956E+02  0.81835545491E+02 -0.60216121686E+03  0.60923647736E+03  0.47000000000E+01 0. -1.
         -5    1    3    3    0  502  0.18831900015E+01 -0.21267417760E+02 -0.85508787560E+02  0.88259233017E+02  0.47000000000E+01 0.  1.
          5    1    4    4  503    0 -0.26280944868E+02  0.20041223125E+02 -0.55319971892E+02  0.64612134910E+02  0.47000000000E+01 0. -1.
         -5    1    4    4    0  503 -0.18634881090E+02 -0.80609350856E+02 -0.80341853025E+02  0.11542109680E+03  0.47000000000E+01 0.  1.
<mgrwt>
<rscale>  0 0.11792946E+03</rscale>
<asrwt>0</asrwt>
<pdfrwt beam="1">  1        1 0.13083545E+00 0.11835469E+03</pdfrwt>
<pdfrwt beam="2">  1       -1 0.41690084E-02 0.11835469E+03</pdfrwt>
<totfact> 0.46847058E+03</totfact>
</mgrwt>
</event>
<event>
 8    1  0.3400573E-004  0.1217526E+03  0.7546771E-02  0.1240467E+00
          2   -1    0    0  501    0  0.00000000000E+00  0.00000000000E+00  0.34679855950E+03  0.34679855950E+03  0.00000000000E+00 0. -1.
         -2   -1    0    0    0  501 -0.00000000000E+00 -0.00000000000E+00 -0.43493021608E+02  0.43493021608E+02  0.00000000000E+00 0.  1.
         23    2    1    2    0    0 -0.34060255668E+02 -0.71639275358E+02  0.12245536282E+03  0.17227671646E+03  0.91606027965E+02 0.  0.
         23    2    1    2    0    0  0.34060255668E+02  0.71639275358E+02  0.18085017506E+03  0.21801486465E+03  0.92365624534E+02 0.  0.
          5    1    4    4  502    0  0.26044767375E+02  0.93799015486E+02  0.13913906953E+03  0.16987747315E+03  0.47000000000E+01 0. -1.
         -5    1    3    3    0  503 -0.21342315822E+02 -0.90475866811E+02  0.75313153841E+02  0.11973110732E+03  0.47000000000E+01 0.  1.
          5    1    3    3  503    0 -0.12717939846E+02  0.18836591453E+02  0.47142208981E+02  0.52545609133E+02  0.47000000000E+01 0. -1.
         -5    1    4    4    0  502  0.80154882927E+01 -0.22159740129E+02  0.41711105535E+02  0.48137391496E+02  0.47000000000E+01 0.  1.
<mgrwt>
<rscale>  0 0.12160853E+03</rscale>
<asrwt>0</asrwt>
<pdfrwt beam="1">  1        2 0.53353623E-01 0.12175260E+03</pdfrwt>
<pdfrwt beam="2">  1       -2 0.66912343E-02 0.12175260E+03</pdfrwt>
<totfact> 0.10946889E+04</totfact>
</mgrwt>
</event>
<event>
 8    1  0.3400573E-004  0.1068521E+03  0.7546771E-02  0.1267706E+00
         -2   -1    0    0    0  501 -0.00000000000E+00  0.00000000000E+00  0.18792909630E+03  0.18792909630E+03  0.00000000000E+00 0.  1.
          2   -1    0    0  501    0  0.00000000000E+00 -0.00000000000E+00 -0.10110942182E+03  0.10110942182E+03  0.00000000000E+00 0. -1.
         23    2    1    2    0    0 -0.49354031118E+02  0.91919427508E+01  0.13596625132E+03  0.17142576129E+03  0.91540471579E+02 0.  0.
         23    2    1    2    0    0  0.49354031118E+02 -0.91919427508E+01 -0.49146576835E+02  0.11761275683E+03  0.94324240556E+02 0.  0.
          5    1    4    4  502    0  0.72231228051E+02 -0.22383694028E+02 -0.20761274603E+02  0.78558898842E+02  0.47000000000E+01 0. -1.
         -5    1    3    3    0  503  0.20326980104E+02  0.21597516196E+02  0.22145122676E+02  0.37311329169E+02  0.47000000000E+01 0.  1.
          5    1    3    3  503    0 -0.69681011222E+02 -0.12405573446E+02  0.11382112864E+03  0.13411443212E+03  0.47000000000E+01 0. -1.
         -5    1    4    4    0  502 -0.22877196933E+02  0.13191751278E+02 -0.28385302232E+02  0.39053857992E+02  0.47000000000E+01 0.  1.
<mgrwt>
<rscale>  0 0.10623448E+03</rscale>
<asrwt>0</asrwt>
<pdfrwt beam="1">  1        2 0.15555296E-01 0.10685212E+03</pdfrwt>
<pdfrwt beam="2">  1       -2 0.28912169E-01 0.10685212E+03</pdfrwt>
<totfact> 0.38493570E+03</totfact>
</mgrwt>
</event>
<event>
 8    1  0.3400573E-004  0.2021974E+03  0.7546771E-02  0.1149602E+00
          2   -1    0    0  501    0  0.00000000000E+00  0.00000000000E+00  0.67966980069E+03  0.67966980069E+03  0.00000000000E+00 0. -1.
         -2   -1    0    0    0  501 -0.00000000000E+00 -0.00000000000E+00 -0.57820541581E+02  0.57820541581E+02  0.00000000000E+00 0.  1.
         23    2    1    2    0    0  0.67156524033E+02 -0.15129962627E+03  0.29620719445E+03  0.35418037052E+03  0.10150594659E+03 0.  0.
         23    2    1    2    0    0 -0.67156524033E+02  0.15129962627E+03  0.32564206467E+03  0.38330997175E+03  0.11611289564E+03 0.  0.
          5    1    3    3  502    0  0.44028238193E+01 -0.11687084770E+03  0.22202638966E+03  0.25099001495E+03  0.47000000000E+01 0. -1.
         -5    1    3    3    0  502  0.62753700214E+02 -0.34428778566E+02  0.74180804785E+02  0.10319035557E+03  0.47000000000E+01 0.  1.
          5    1    4    4  503    0  0.84386298881E+01  0.46688603856E+02  0.19050972365E+03  0.19638503255E+03  0.47000000000E+01 0. -1.
         -5    1    4    4    0  503 -0.75595153921E+02  0.10461102241E+03  0.13513234101E+03  0.18692493920E+03  0.47000000000E+01 0.  1.
<mgrwt>
<rscale>  0 0.20016197E+03</rscale>
<asrwt>0</asrwt>
<pdfrwt beam="1">  1        2 0.10456458E+00 0.20219738E+03</pdfrwt>
<pdfrwt beam="2">  1       -2 0.88954684E-02 0.20219738E+03</pdfrwt>
<totfact> 0.34380045E+03</totfact>
</mgrwt>
</event>
<event>
 8    1  0.3400573E-004  0.1335211E+03  0.7546771E-02  0.1222917E+00
         -2   -1    0    0    0  501 -0.00000000000E+00  0.00000000000E+00  0.38890109718E+02  0.38890109718E+02  0.00000000000E+00 0.  1.
          2   -1    0    0  501    0  0.00000000000E+00 -0.00000000000E+00 -0.84899371478E+03  0.84899371478E+03  0.00000000000E+00 0. -1.
         23    2    1    2    0    0  0.92492502954E+02 -0.28543222093E+02 -0.10043449877E+03  0.16576325602E+03  0.89558862622E+02 0.  0.
         23    2    1    2    0    0 -0.92492502954E+02  0.28543222093E+02 -0.70966910629E+03  0.72212056847E+03  0.91968996724E+02 0.  0.
          5    1    3    3  502    0  0.39114618586E+02  0.50035832910E+01 -0.94210385919E+02  0.10223832964E+03  0.47000000000E+01 0. -1.
         -5    1    3    3    0  502  0.53377884368E+02 -0.33546805384E+02 -0.62241128507E+01  0.63524926382E+02  0.47000000000E+01 0.  1.
          5    1    4    4  503    0 -0.71277938479E+02  0.38944619124E+02 -0.67510434273E+03  0.67998911127E+03  0.47000000000E+01 0. -1.
         -5    1    4    4    0  503 -0.21214564475E+02 -0.10401397031E+02 -0.34564763561E+02  0.42131457203E+02  0.47000000000E+01 0.  1.
<mgrwt>
<rscale>  0 0.13310701E+03</rscale>
<asrwt>0</asrwt>
<pdfrwt beam="1">  1        2 0.13061442E+00 0.13352107E+03</pdfrwt>
<pdfrwt beam="2">  1       -2 0.59830937E-02 0.13352107E+03</pdfrwt>
<totfact> 0.47498301E+03</totfact>
</mgrwt>
</event>
<event>
 8    1  0.3400573E-004  0.1525726E+03  0.7546771E-02  0.1197876E+00
         -2   -1    0    0    0  501 -0.00000000000E+00  0.00000000000E+00  0.10932480439E+03  0.10932480439E+03  0.00000000000E+00 0.  1.
          2   -1    0    0  501    0  0.00000000000E+00 -0.00000000000E+00 -0.22799737496E+03  0.22799737496E+03  0.00000000000E+00 0. -1.
         23    2    1    2    0    0 -0.10282712191E+03 -0.60444218209E+02 -0.12289564390E+02  0.15132286574E+03  0.92307398334E+02 0.  0.
         23    2    1    2    0    0  0.10282712191E+03  0.60444218209E+02 -0.10638300619E+03  0.18599931362E+03  0.95139267102E+02 0.  0.
          5    1    4    4  502    0 -0.17921717507E+02  0.13506879321E+02 -0.15303486040E+02  0.27566472977E+02  0.47000000000E+01 0. -1.
         -5    1    4    4    0  502  0.12074883942E+03  0.46937338888E+02 -0.91079520147E+02  0.15843284064E+03  0.47000000000E+01 0.  1.
          5    1    3    3  503    0 -0.10998996163E+03 -0.34943193311E+02  0.10617338533E+02  0.11598981117E+03  0.47000000000E+01 0. -1.
         -5    1    3    3    0  503  0.71628397169E+01 -0.25501024898E+02 -0.22906902923E+02  0.35333054569E+02  0.47000000000E+01 0.  1.
<mgrwt>
<rscale>  0 0.15213331E+03</rscale>
<asrwt>0</asrwt>
<pdfrwt beam="1">  1        2 0.35076519E-01 0.15257261E+03</pdfrwt>
<pdfrwt beam="2">  1       -2 0.16819201E-01 0.15257261E+03</pdfrwt>
<totfact> 0.40319613E+03</totfact>
</mgrwt>
</event>
<event>
 8    1  0.3400573E-004  0.1260999E+03  0.7546771E-02  0.1233365E+00
          1   -1    0    0  501    0  0.00000000000E+00  0.00000000000E+00  0.17166725550E+02  0.17166725550E+02  0.00000000000E+00 0. -1.
         -1   -1    0    0    0  501 -0.00000000000E+00 -0.00000000000E+00 -0.92629141581E+03  0.92629141581E+03  0.00000000000E+00 0.  1.
         23    2    1    2    0    0 -0.13968826401E+02  0.86194526135E+02 -0.44962101592E+03  0.46696593887E+03  0.90958813006E+02 0.  0.
         23    2    1    2    0    0  0.13968826401E+02 -0.86194526135E+02 -0.45950367434E+03  0.47649220248E+03  0.90975644278E+02 0.  0.
          5    1    3    3  502    0 -0.29827696210E+02 -0.16041168137E+01 -0.59470936108E+02  0.66716916097E+02  0.47000000000E+01 0. -1.
         -5    1    3    3    0  502  0.15858869809E+02  0.87798642948E+02 -0.39015007981E+03  0.40024902277E+03  0.47000000000E+01 0.  1.
          5    1    4    4  503    0  0.52514821104E+02 -0.49231201996E+02 -0.28102012434E+03  0.29013086352E+03  0.47000000000E+01 0. -1.
         -5    1    4    4    0  503 -0.38545994702E+02 -0.36963324139E+02 -0.17848355000E+03  0.18636133896E+03  0.47000000000E+01 0.  1.
<mgrwt>
<rscale>  0 0.12609689E+03</rscale>
<asrwt>0</asrwt>
<pdfrwt beam="1">  1        1 0.26410342E-02 0.12609993E+03</pdfrwt>
<pdfrwt beam="2">  1       -1 0.14250640E+00 0.12609993E+03</pdfrwt>
<totfact> 0.17080845E+03</totfact>
</mgrwt>
</event>
<event>
 8    1  0.3400573E-004  0.9918932E+02  0.7546771E-02  0.1282176E+00
         -1   -1    0    0    0  501 -0.00000000000E+00  0.00000000000E+00  0.46196288611E+02  0.46196288611E+02  0.00000000000E+00 0.  1.
          1   -1    0    0  501    0  0.00000000000E+00 -0.00000000000E+00 -0.38746217837E+03  0.38746217837E+03  0.00000000000E+00 0. -1.
         23    2    1    2    0    0 -0.31344711537E+02 -0.23311769275E+02 -0.31627321298E+03  0.33136890402E+03  0.90833230572E+02 0.  0.
         23    2    1    2    0    0  0.31344711537E+02  0.23311769275E+02 -0.24992676782E+02  0.10228956296E+03  0.91173413176E+02 0.  0.
          5    1    3    3  502    0  0.28097270091E+02 -0.23899697260E+02 -0.15576193814E+03  0.16013907546E+03  0.47000000000E+01 0. -1.
         -5    1    3    3    0  502 -0.59441981627E+02  0.58792798495E+00 -0.16051127483E+03  0.17122982856E+03  0.47000000000E+01 0.  1.
          5    1    4    4  503    0  0.42879128726E+02  0.42526663057E+01 -0.51521934183E+02  0.67329819196E+02  0.47000000000E+01 0. -1.
         -5    1    4    4    0  503 -0.11534417190E+02  0.19059102969E+02  0.26529257401E+02  0.34959743766E+02  0.47000000000E+01 0.  1.
<mgrwt>
<rscale>  0 0.99111075E+02</rscale>
<asrwt>0</asrwt>
<pdfrwt beam="1">  1        1 0.59609566E-01 0.99189318E+02</pdfrwt>
<pdfrwt beam="2">  1       -1 0.71071213E-02 0.99189318E+02</pdfrwt>
<totfact> 0.61136481E+03</totfact>
</mgrwt>
</event>
<event>
 8    1  0.3400573E-004  0.1409158E+03  0.7546771E-02  0.1212711E+00
         -2   -1    0    0    0  501 -0.00000000000E+00  0.00000000000E+00  0.80990374769E+02  0.80990374769E+02  0.00000000000E+00 0.  1.
          2   -1    0    0  501    0  0.00000000000E+00 -0.00000000000E+00 -0.24218083197E+03  0.24218083197E+03  0.00000000000E+00 0. -1.
         23    2    1    2    0    0  0.43048119301E+02  0.99274181664E+02 -0.77132017260E+02  0.16064435004E+03  0.90270456922E+02 0.  0.
         23    2    1    2    0    0 -0.43048119301E+02 -0.99274181664E+02 -0.84058439941E+02  0.16252685670E+03  0.87410835155E+02 0.  0.
          5    1    3    3  502    0  0.59994184041E+02  0.27048087400E+02 -0.43694109264E+02  0.79133850754E+02  0.47000000000E+01 0. -1.
         -5    1    3    3    0  502 -0.16946064740E+02  0.72226094264E+02 -0.33437907996E+02  0.81510499287E+02  0.47000000000E+01 0.  1.
          5    1    4    4  503    0 -0.64317268964E+01 -0.41471792272E+02 -0.83914178492E+02  0.93941237043E+02  0.47000000000E+01 0. -1.
         -5    1    4    4    0  503 -0.36616392405E+02 -0.57802389392E+02 -0.14426144923E+00  0.68585619656E+02  0.47000000000E+01 0.  1.
<mgrwt>
<rscale>  0 0.14045995E+03</rscale>
<asrwt>0</asrwt>
<pdfrwt beam="1">  1        2 0.37258589E-01 0.14091579E+03</pdfrwt>
<pdfrwt beam="2">  1       -2 0.12460058E-01 0.14091579E+03</pdfrwt>
<totfact> 0.61364900E+03</totfact>
</mgrwt>
</event>
<event>
 8    1  0.3400573E-004  0.1154053E+03  0.7546771E-02  0.1251229E+00
         -2   -1    0    0    0  501 -0.00000000000E+00  0.00000000000E+00  0.29801436018E+02  0.29801436018E+02  0.00000000000E+00 0.  1.
          2   -1    0    0  501    0  0.00000000000E+00 -0.00000000000E+00 -0.48705908902E+03  0.48705908902E+03  0.00000000000E+00 0. -1.
         23    2    1    2    0    0 -0.12833581978E+02 -0.67308909821E+02 -0.15232008219E+03  0.19110154715E+03  0.92861206748E+02 0.  0.
         23    2    1    2    0    0  0.12833581978E+02  0.67308909821E+02 -0.30493757082E+03  0.32575897789E+03  0.91852051755E+02 0.  0.
          5    1    3    3  502    0 -0.21395887660E+02 -0.48639271180E+02 -0.16001304127E+03  0.16867076239E+03  0.47000000000E+01 0. -1.
         -5    1    4    4    0  503  0.48981288774E+02  0.29098237734E+02 -0.20377971845E+03  0.21164625614E+03  0.47000000000E+01 0.  1.
          5    1    4    4  503    0 -0.36147706796E+02  0.38210672088E+02 -0.10115785237E+03  0.11411272175E+03  0.47000000000E+01 0. -1.
         -5    1    3    3    0  502  0.85623056828E+01 -0.18669638641E+02  0.76929590805E+01  0.22430784761E+02  0.47000000000E+01 0.  1.
<mgrwt>
<rscale>  0 0.11520220E+03</rscale>
<asrwt>0</asrwt>
<pdfrwt beam="1">  1        2 0.74932168E-01 0.11540535E+03</pdfrwt>
<pdfrwt beam="2">  1       -2 0.45848363E-02 0.11540535E+03</pdfrwt>
<totfact> 0.13393951E+04</totfact>
</mgrwt>
</event>
<event>
 8    1  0.3400573E-004  0.1016621E+03  0.7546771E-02  0.1282890E+00
          1   -1    0    0  501    0  0.00000000000E+00  0.00000000000E+00  0.39047909579E+03  0.39047909579E+03  0.00000000000E+00 0. -1.
         -1   -1    0    0    0  501 -0.00000000000E+00 -0.00000000000E+00 -0.28674195290E+02  0.28674195290E+02  0.00000000000E+00 0.  1.
         23    2    1    2    0    0 -0.11688987440E+01 -0.37721331055E+00  0.27695298085E+03  0.29502226620E+03  0.10165468676E+03 0.  0.
         23    2    1    2    0    0  0.11688987440E+01  0.37721331055E+00  0.84851919657E+02  0.12413102488E+03  0.90593346639E+02 0.  0.
          5    1    3    3  502    0 -0.37710950144E+01  0.40670726537E+02  0.22433340319E+03  0.22806993432E+03  0.47000000000E+01 0. -1.
         -5    1    4    4    0  503  0.34292313334E+02  0.29623114885E+02  0.50119536280E+02  0.67731452119E+02  0.47000000000E+01 0.  1.
          5    1    4    4  503    0 -0.33123414590E+02 -0.29245901574E+02  0.34732383378E+02  0.56399572765E+02  0.47000000000E+01 0. -1.
         -5    1    3    3    0  502  0.26021962704E+01 -0.41047939848E+02  0.52619577659E+02  0.66952331880E+02  0.47000000000E+01 0.  1.
<mgrwt>
<rscale>  0 0.98776443E+02</rscale>
<asrwt>0</asrwt>
<pdfrwt beam="1">  1        1 0.60073703E-01 0.10166211E+03</pdfrwt>
<pdfrwt beam="2">  1       -1 0.44114150E-02 0.10166211E+03</pdfrwt>
<totfact> 0.12252368E+04</totfact>
</mgrwt>
</event>
<event>
 8    1  0.3400573E-004  0.1160462E+03  0.7546771E-02  0.1250735E+00
          1   -1    0    0  501    0  0.00000000000E+00  0.00000000000E+00  0.20986398072E+03  0.20986398072E+03  0.00000000000E+00 0. -1.
         -1   -1    0    0    0  501 -0.00000000000E+00 -0.00000000000E+00 -0.64775090699E+02  0.64775090699E+02  0.00000000000E+00 0.  1.
         23    2    1    2    0    0  0.53796549147E+02  0.45715991569E+02  0.94943603158E+02  0.14822197774E+03  0.89282956490E+02 0.  0.
         23    2    1    2    0    0 -0.53796549147E+02 -0.45715991569E+02  0.50145286859E+02  0.12641709367E+03  0.92101635130E+02 0.  0.
          5    1    3    3  502    0  0.65735108422E+02  0.20986838066E+01  0.70782776129E+02  0.96735724267E+02  0.47000000000E+01 0. -1.
         -5    1    3    3    0  502 -0.11938559275E+02  0.43617307763E+02  0.24160827028E+02  0.51486253473E+02  0.47000000000E+01 0.  1.
          5    1    4    4  503    0  0.25059219388E+02 -0.55619705707E+01  0.36656163155E+01  0.26351977838E+02  0.47000000000E+01 0. -1.
         -5    1    4    4    0  503 -0.78855768535E+02 -0.40154020999E+02  0.46479670544E+02  0.10006511584E+03  0.47000000000E+01 0.  1.
<mgrwt>
<rscale>  0 0.11548617E+03</rscale>
<asrwt>0</asrwt>
<pdfrwt beam="1">  1        1 0.32286766E-01 0.11604625E+03</pdfrwt>
<pdfrwt beam="2">  1       -1 0.99653987E-02 0.11604625E+03</pdfrwt>
<totfact> 0.79144867E+03</totfact>
</mgrwt>
</event>
<event>
 8    1  0.3400573E-004  0.9275790E+02  0.7546771E-02  0.1298107E+00
         -1   -1    0    0    0  501 -0.00000000000E+00  0.00000000000E+00  0.19475712736E+02  0.19475712736E+02  0.00000000000E+00 0.  1.
          1   -1    0    0  501    0  0.00000000000E+00 -0.00000000000E+00 -0.48726918978E+03  0.48726918978E+03  0.00000000000E+00 0. -1.
         23    2    1    2    0    0  0.99931696298E+01 -0.13590820721E+02 -0.14852927832E+03  0.17511417614E+03  0.91211042757E+02 0.  0.
         23    2    1    2    0    0 -0.99931696298E+01  0.13590820721E+02 -0.31926419872E+03  0.33163072637E+03  0.88117740783E+02 0.  0.
          5    1    3    3  502    0 -0.37823430517E+02 -0.15736584565E+02 -0.45457720727E+02  0.61373824742E+02  0.47000000000E+01 0. -1.
         -5    1    3    3    0  502  0.47816600146E+02  0.21457638435E+01 -0.10307155760E+03  0.11374035140E+03  0.47000000000E+01 0.  1.
          5    1    4    4  503    0 -0.36208776902E+02 -0.23252575144E+02 -0.18009180810E+03  0.18522123830E+03  0.47000000000E+01 0. -1.
         -5    1    4    4    0  503  0.26215607272E+02  0.36843395865E+02 -0.13917239062E+03  0.14640948806E+03  0.47000000000E+01 0.  1.
<mgrwt>
<rscale>  0 0.91988390E+02</rscale>
<asrwt>0</asrwt>
<pdfrwt beam="1">  1        1 0.74964486E-01 0.92757901E+02</pdfrwt>
<pdfrwt beam="2">  1       -1 0.29962637E-02 0.92757901E+02</pdfrwt>
<totfact> 0.16114189E+04</totfact>
</mgrwt>
</event>
<event>
 8    1  0.3400573E-004  0.9551574E+02  0.7546771E-02  0.1293895E+00
          2   -1    0    0  501    0  0.00000000000E+00  0.00000000000E+00  0.60361510504E+03  0.60361510504E+03  0.00000000000E+00 0. -1.
         -2   -1    0    0    0  501 -0.00000000000E+00 -0.00000000000E+00 -0.20694515905E+02  0.20694515905E+02  0.00000000000E+00 0.  1.
         23    2    1    2    0    0 -0.14279540207E+02 -0.14242227028E+02  0.10785565408E+03  0.13973769795E+03  0.86527659234E+02 0.  0.
         23    2    1    2    0    0  0.14279540207E+02  0.14242227028E+02  0.47506493506E+03  0.48457192299E+03  0.93362250053E+02 0.  0.
          5    1    4    4  502    0  0.50348710316E+02 -0.10005492264E+02  0.23941403572E+03  0.24490053696E+03  0.47000000000E+01 0. -1.
         -5    1    4    4    0  502 -0.36069170109E+02  0.24247719292E+02  0.23565089934E+03  0.23967138603E+03  0.47000000000E+01 0.  1.
          5    1    3    3  503    0  0.10420006452E+02 -0.33685168589E+02  0.10148726631E+02  0.36991266125E+02  0.47000000000E+01 0. -1.
         -5    1    3    3    0  503 -0.24699546658E+02  0.19442941560E+02  0.97706927447E+02  0.10274643182E+03  0.47000000000E+01 0.  1.
<mgrwt>
<rscale>  0 0.93803024E+02</rscale>
<asrwt>0</asrwt>
<pdfrwt beam="1">  1        2 0.92863849E-01 0.95515737E+02</pdfrwt>
<pdfrwt beam="2">  1       -2 0.31837721E-02 0.95515737E+02</pdfrwt>
<totfact> 0.17800076E+04</totfact>
</mgrwt>
</event>
<event>
 8    1  0.3400573E-004  0.1267992E+03  0.7546771E-02  0.1232602E+00
          1   -1    0    0  501    0  0.00000000000E+00  0.00000000000E+00  0.12882838428E+04  0.12882838428E+04  0.00000000000E+00 0. -1.
         -1   -1    0    0    0  501 -0.00000000000E+00 -0.00000000000E+00 -0.13870944645E+02  0.13870944645E+02  0.00000000000E+00 0.  1.
         23    2    1    2    0    0 -0.86208887966E+02  0.16293174698E+02  0.85116528430E+03  0.86055818057E+03  0.91545622786E+02 0.  0.
         23    2    1    2    0    0  0.86208887966E+02 -0.16293174698E+02  0.42324761382E+03  0.44159660684E+03  0.90396795612E+02 0.  0.
          5    1    4    4  502    0  0.47322558911E+02  0.31624421045E+02  0.13165497750E+03  0.14350836801E+03  0.47000000000E+01 0. -1.
         -5    1    3    3    0  503  0.10530517040E+02 -0.19879932334E+02  0.18396013638E+03  0.18539019736E+03  0.47000000000E+01 0.  1.
          5    1    3    3  503    0 -0.96739405006E+02  0.36173107033E+02  0.66720514791E+03  0.67516798321E+03  0.47000000000E+01 0. -1.
         -5    1    4    4    0  502  0.38886329055E+02 -0.47917595743E+02  0.29159263632E+03  0.29808823883E+03  0.47000000000E+01 0.  1.
<mgrwt>
<rscale>  0 0.12659198E+03</rscale>
<asrwt>0</asrwt>
<pdfrwt beam="1">  1        1 0.19819742E+00 0.12679922E+03</pdfrwt>
<pdfrwt beam="2">  1       -1 0.21339925E-02 0.12679922E+03</pdfrwt>
<totfact> 0.60425394E+03</totfact>
</mgrwt>
</event>
<event>
 8    1  0.3400573E-004  0.1069606E+03  0.7546771E-02  0.1267167E+00
         -3   -1    0    0    0  501 -0.00000000000E+00  0.00000000000E+00  0.16170599001E+03  0.16170599001E+03  0.00000000000E+00 0.  1.
          3   -1    0    0  501    0  0.00000000000E+00 -0.00000000000E+00 -0.70539749384E+02  0.70539749384E+02  0.00000000000E+00 0. -1.
         23    2    1    2    0    0 -0.11684281502E+02 -0.58469095113E+02  0.58774611332E+02  0.12048797699E+03  0.86647216601E+02 0.  0.
         23    2    1    2    0    0  0.11684281502E+02  0.58469095113E+02  0.32391629299E+02  0.11175776241E+03  0.88799900295E+02 0.  0.
          5    1    3    3  502    0 -0.45193826103E+02 -0.41616911148E+02  0.54832546333E+02  0.82481193910E+02  0.47000000000E+01 0. -1.
         -5    1    3    3    0  502  0.33509544601E+02 -0.16852183964E+02  0.39420649981E+01  0.38006783081E+02  0.47000000000E+01 0.  1.
          5    1    4    4  503    0 -0.92209813989E+01  0.35818534762E+02 -0.26074770430E+02  0.45497006313E+02  0.47000000000E+01 0. -1.
         -5    1    4    4    0  503  0.20905262901E+02  0.22650560350E+02  0.58466399728E+02  0.66260756095E+02  0.47000000000E+01 0.  1.
<mgrwt>
<rscale>  0 0.10651276E+03</rscale>
<asrwt>0</asrwt>
<pdfrwt beam="1">  1        3 0.10852269E-01 0.10696065E+03</pdfrwt>
<pdfrwt beam="2">  1       -3 0.24877844E-01 0.10696065E+03</pdfrwt>
<totfact> 0.21386469E+03</totfact>
</mgrwt>
</event>
<event>
 8    1  0.3400573E-004  0.4185659E+03  0.7546771E-02  0.1037622E+00
         -2   -1    0    0    0  501 -0.00000000000E+00  0.00000000000E+00  0.80377073323E+02  0.80377073323E+02  0.00000000000E+00 0.  1.
          2   -1    0    0  501    0  0.00000000000E+00 -0.00000000000E+00 -0.26152668364E+04  0.26152668364E+04  0.00000000000E+00 0. -1.
         23    2    1    2    0    0 -0.10248237054E+03  0.39501340728E+03 -0.71250387999E+03  0.82580762948E+03  0.88080836186E+02 0.  0.
         23    2    1    2    0    0  0.10248237054E+03 -0.39501340728E+03 -0.18223858831E+04  0.18698362803E+04  0.93054714177E+02 0.  0.
          5    1    4    4  502    0  0.25845960181E+02 -0.20822985181E+03 -0.10952127383E+04  0.11151415681E+04  0.47000000000E+01 0. -1.
         -5    1    3    3    0  503 -0.11342669606E+03  0.35661872292E+03 -0.66904840339E+03  0.76660966925E+03  0.47000000000E+01 0.  1.
          5    1    3    3  503    0  0.10944325519E+02  0.38394684361E+02 -0.43455476598E+02  0.59197960223E+02  0.47000000000E+01 0. -1.
         -5    1    4    4    0  502  0.76636410361E+02 -0.18678355547E+03 -0.72717314482E+03  0.75469471214E+03  0.47000000000E+01 0.  1.
<mgrwt>
<rscale>  0 0.41829623E+03</rscale>
<asrwt>0</asrwt>
<pdfrwt beam="1">  1        2 0.40234872E+00 0.41856589E+03</pdfrwt>
<pdfrwt beam="2">  1       -2 0.12365704E-01 0.41856589E+03</pdfrwt>
<totfact> 0.15779663E+02</totfact>
</mgrwt>
</event>
<event>
 8    1  0.3400573E-004  0.9502227E+02  0.7546771E-02  0.1291758E+00
         -1   -1    0    0    0  501 -0.00000000000E+00  0.00000000000E+00  0.83727335679E+02  0.83727335679E+02  0.00000000000E+00 0.  1.
          1   -1    0    0  501    0  0.00000000000E+00 -0.00000000000E+00 -0.11122381027E+03  0.11122381027E+03  0.00000000000E+00 0. -1.
         23    2    1    2    0    0 -0.23712651040E+02  0.11181807108E+02  0.62504921089E+01  0.94114199188E+02  0.90172563498E+02 0.  0.
         23    2    1    2    0    0  0.23712651040E+02 -0.11181807108E+02 -0.33746966696E+02  0.10083694676E+03  0.91334054113E+02 0.  0.
          5    1    3    3  502    0  0.30198207389E+02  0.23268966952E+02  0.11133744877E+01  0.38427934570E+02  0.47000000000E+01 0. -1.
         -5    1    4    4    0  503 -0.34515060775E+02  0.23225436672E+01 -0.96683517799E+01  0.36225000421E+02  0.47000000000E+01 0.  1.
          5    1    4    4  503    0  0.58227711815E+02 -0.13504350775E+02 -0.24078614916E+02  0.64611946336E+02  0.47000000000E+01 0. -1.
         -5    1    3    3    0  502 -0.53910858429E+02 -0.12087159844E+02  0.51371176212E+01  0.55686264618E+02  0.47000000000E+01 0.  1.
<mgrwt>
<rscale>  0 0.94742069E+02</rscale>
<asrwt>0</asrwt>
<pdfrwt beam="1">  1        1 0.17111355E-01 0.95022271E+02</pdfrwt>
<pdfrwt beam="2">  1       -1 0.12881129E-01 0.95022271E+02</pdfrwt>
<totfact> 0.11627711E+04</totfact>
</mgrwt>
</event>
<event>
 8    1  0.3400573E-004  0.1031197E+03  0.7546771E-02  0.1274056E+00
          1   -1    0    0  501    0  0.00000000000E+00  0.00000000000E+00  0.24809802285E+03  0.24809802285E+03  0.00000000000E+00 0. -1.
         -1   -1    0    0    0  501 -0.00000000000E+00 -0.00000000000E+00 -0.12680681750E+03  0.12680681750E+03  0.00000000000E+00 0.  1.
         23    2    1    2    0    0  0.41463242030E+02  0.23715275734E+02 -0.92047446114E+02  0.13795116419E+03  0.90973494072E+02 0.  0.
         23    2    1    2    0    0 -0.41463242030E+02 -0.23715275734E+02  0.21333865147E+03  0.23695367616E+03  0.91389549137E+02 0.  0.
          5    1    3    3  502    0  0.30229215964E+02  0.58737431954E+01  0.10715321025E+02  0.32942593425E+02  0.47000000000E+01 0. -1.
         -5    1    4    4    0  503 -0.37716840482E+01 -0.38850382935E+02  0.30943275939E+02  0.50031531863E+02  0.47000000000E+01 0.  1.
          5    1    4    4  503    0 -0.37691557982E+02  0.15135107201E+02  0.18239537553E+03  0.18692214430E+03  0.47000000000E+01 0. -1.
         -5    1    3    3    0  502  0.11234026066E+02  0.17841532539E+02 -0.10276276714E+03  0.10500857077E+03  0.47000000000E+01 0.  1.
<mgrwt>
<rscale>  0 0.10302740E+03</rscale>
<asrwt>0</asrwt>
<pdfrwt beam="1">  1        1 0.38168926E-01 0.10311966E+03</pdfrwt>
<pdfrwt beam="2">  1       -1 0.19508741E-01 0.10311966E+03</pdfrwt>
<totfact> 0.22558036E+03</totfact>
</mgrwt>
</event>
<event>
 8    1  0.3400573E-004  0.1570806E+03  0.7546771E-02  0.1192226E+00
          1   -1    0    0  501    0  0.00000000000E+00  0.00000000000E+00  0.53910572962E+03  0.53910572962E+03  0.00000000000E+00 0. -1.
         -1   -1    0    0    0  501 -0.00000000000E+00 -0.00000000000E+00 -0.78356743357E+02  0.78356743357E+02  0.00000000000E+00 0.  1.
         23    2    1    2    0    0 -0.96477696974E+02  0.82654419045E+02  0.30968499388E+02  0.16010417996E+03  0.92382906891E+02 0.  0.
         23    2    1    2    0    0  0.96477696974E+02 -0.82654419045E+02  0.42978048688E+03  0.45735829302E+03  0.91244957623E+02 0.  0.
          5    1    4    4  502    0  0.77224471713E+02 -0.66790548361E+02  0.41620370666E+03  0.42856996141E+03  0.47000000000E+01 0. -1.
         -5    1    4    4    0  502  0.19253225260E+02 -0.15863870683E+02  0.13576780217E+02  0.28788331613E+02  0.47000000000E+01 0.  1.
          5    1    3    3  503    0  0.16230757223E+02  0.25570095198E+02  0.65041340426E+01  0.31331469932E+02  0.47000000000E+01 0. -1.
         -5    1    3    3    0  503 -0.11270845420E+03  0.57084323847E+02  0.24464365346E+02  0.12877271003E+03  0.47000000000E+01 0.  1.
<mgrwt>
<rscale>  0 0.15691365E+03</rscale>
<asrwt>0</asrwt>
<pdfrwt beam="1">  1        1 0.82939341E-01 0.15708055E+03</pdfrwt>
<pdfrwt beam="2">  1       -1 0.12054884E-01 0.15708055E+03</pdfrwt>
<totfact> 0.18334490E+03</totfact>
</mgrwt>
</event>
<event>
 8    1  0.3400573E-004  0.1356440E+03  0.7546771E-02  0.1219378E+00
          3   -1    0    0  501    0  0.00000000000E+00  0.00000000000E+00  0.76362553769E+02  0.76362553769E+02  0.00000000000E+00 0. -1.
         -3   -1    0    0    0  501 -0.00000000000E+00 -0.00000000000E+00 -0.37034484327E+03  0.37034484327E+03  0.00000000000E+00 0.  1.
         23    2    1    2    0    0  0.38753825157E+02  0.92650978060E+02 -0.27924846535E+03  0.31044967782E+03  0.91176939840E+02 0.  0.
         23    2    1    2    0    0 -0.38753825157E+02 -0.92650978060E+02 -0.14733824150E+02  0.13625771922E+03  0.90901142856E+02 0.  0.
          5    1    4    4  502    0  0.26557913412E+02 -0.10197761723E+02 -0.11121249573E+02  0.30904519104E+02  0.47000000000E+01 0. -1.
         -5    1    4    4    0  502 -0.65311738569E+02 -0.82453216337E+02 -0.36125745772E+01  0.10535320011E+03  0.47000000000E+01 0.  1.
          5    1    3    3  503    0  0.19691175549E+01  0.94116929529E+02 -0.16151764956E+03  0.18700779386E+03  0.47000000000E+01 0. -1.
         -5    1    3    3    0  503  0.36784707602E+02 -0.14659514690E+01 -0.11773081579E+03  0.12344188395E+03  0.47000000000E+01 0.  1.
<mgrwt>
<rscale>  0 0.13559768E+03</rscale>
<asrwt>0</asrwt>
<pdfrwt beam="1">  1        3 0.11748085E-01 0.13564401E+03</pdfrwt>
<pdfrwt beam="2">  1       -3 0.56976129E-01 0.13564401E+03</pdfrwt>
<totfact> 0.40077603E+02</totfact>
</mgrwt>
</event>
<event>
 8    1  0.3400573E-004  0.1179183E+03  0.7546771E-02  0.1246823E+00
         -1   -1    0    0    0  501 -0.00000000000E+00  0.00000000000E+00  0.10682072534E+03  0.10682072534E+03  0.00000000000E+00 0.  1.
          1   -1    0    0  501    0  0.00000000000E+00 -0.00000000000E+00 -0.14411690239E+03  0.14411690239E+03  0.00000000000E+00 0. -1.
         23    2    1    2    0    0  0.54890378994E+02 -0.49752221133E+02  0.21333183002E+02  0.11924808464E+03  0.90976721087E+02 0.  0.
         23    2    1    2    0    0 -0.54890378994E+02  0.49752221133E+02 -0.58629360052E+02  0.13168954309E+03  0.91741466548E+02 0.  0.
          5    1    3    3  502    0 -0.24307814000E+02 -0.17588496858E+02 -0.22412694866E+01  0.30452230330E+02  0.47000000000E+01 0. -1.
         -5    1    3    3    0  502  0.79198192993E+02 -0.32163724275E+02  0.23574452488E+02  0.88795854311E+02  0.47000000000E+01 0.  1.
          5    1    4    4  503    0 -0.48647125202E+02  0.29767716404E+02 -0.81979617849E+02  0.99977034728E+02  0.47000000000E+01 0. -1.
         -5    1    4    4    0  503 -0.62432537920E+01  0.19984504729E+02  0.23350257797E+02  0.31712508358E+02  0.47000000000E+01 0.  1.
<mgrwt>
<rscale>  0 0.11776956E+03</rscale>
<asrwt>0</asrwt>
<pdfrwt beam="1">  1        1 0.22171831E-01 0.11791834E+03</pdfrwt>
<pdfrwt beam="2">  1       -1 0.16433958E-01 0.11791834E+03</pdfrwt>
<totfact> 0.58438367E+03</totfact>
</mgrwt>
</event>
<event>
 8    1  0.3400573E-004  0.1867038E+03  0.7546771E-02  0.1161500E+00
         -2   -1    0    0    0  501 -0.00000000000E+00  0.00000000000E+00  0.17494516076E+03  0.17494516076E+03  0.00000000000E+00 0.  1.
          2   -1    0    0  501    0  0.00000000000E+00 -0.00000000000E+00 -0.20660943120E+03  0.20660943120E+03  0.00000000000E+00 0. -1.
         23    2    1    2    0    0  0.11262648941E+03 -0.11771025101E+03  0.20523470245E+02  0.18782847680E+03  0.91202492050E+02 0.  0.
         23    2    1    2    0    0 -0.11262648941E+03  0.11771025101E+03 -0.52187740686E+02  0.19372611516E+03  0.90916544730E+02 0.  0.
          5    1    4    4  502    0 -0.11192199791E+03  0.68561802029E+02 -0.58816878297E+02  0.14390541854E+03  0.47000000000E+01 0. -1.
         -5    1    3    3    0  503  0.41004446445E+02 -0.99375380156E+02 -0.92198561720E+01  0.10799965999E+03  0.47000000000E+01 0.  1.
          5    1    3    3  503    0  0.71622042962E+02 -0.18334870858E+02  0.29743326417E+02  0.79828816813E+02  0.47000000000E+01 0. -1.
         -5    1    4    4    0  502 -0.70449150187E+00  0.49148448984E+02  0.66291376107E+01  0.49820696616E+02  0.47000000000E+01 0.  1.
<mgrwt>
<rscale>  0 0.18666895E+03</rscale>
<asrwt>0</asrwt>
<pdfrwt beam="1">  1        2 0.31786066E-01 0.18670384E+03</pdfrwt>
<pdfrwt beam="2">  1       -2 0.26914640E-01 0.18670384E+03</pdfrwt>
<totfact> 0.20193233E+03</totfact>
</mgrwt>
</event>
<event>
 8    1  0.3400573E-004  0.9525974E+02  0.7546771E-02  0.1298379E+00
          2   -1    0    0  501    0  0.00000000000E+00  0.00000000000E+00  0.26676359967E+03  0.26676359967E+03  0.00000000000E+00 0. -1.
         -2   -1    0    0    0  501 -0.00000000000E+00 -0.00000000000E+00 -0.29732419329E+02  0.29732419329E+02  0.00000000000E+00 0.  1.
         23    2    1    2    0    0  0.13147601185E+02 -0.20463817331E+02  0.11663102501E+03  0.15058955325E+03  0.92102064656E+02 0.  0.
         23    2    1    2    0    0 -0.13147601185E+02  0.20463817331E+02  0.12040015532E+03  0.14590646575E+03  0.78745616446E+02 0.  0.
          5    1    4    4  502    0 -0.17327653939E+02  0.49449986681E+02  0.81122061116E+02  0.96687266863E+02  0.47000000000E+01 0. -1.
         -5    1    3    3    0  503 -0.10581112200E+02 -0.42758360936E+02  0.20171232392E+02  0.48674490049E+02  0.47000000000E+01 0.  1.
          5    1    3    3  503    0  0.23728713385E+02  0.22294543605E+02  0.96459792623E+02  0.10191506320E+03  0.47000000000E+01 0. -1.
         -5    1    4    4    0  502  0.41800527536E+01 -0.28986169350E+02  0.39278094207E+02  0.49219198888E+02  0.47000000000E+01 0.  1.
<mgrwt>
<rscale>  0 0.91872542E+02</rscale>
<asrwt>0</asrwt>
<pdfrwt beam="1">  1        2 0.41040552E-01 0.95259737E+02</pdfrwt>
<pdfrwt beam="2">  1       -2 0.45742185E-02 0.95259737E+02</pdfrwt>
<totfact> 0.24946822E+04</totfact>
</mgrwt>
</event>
<event>
 8    1  0.3400573E-004  0.1561260E+03  0.7546771E-02  0.1193457E+00
          1   -1    0    0  501    0  0.00000000000E+00  0.00000000000E+00  0.81619927747E+03  0.81619927747E+03  0.00000000000E+00 0. -1.
         -1   -1    0    0    0  501 -0.00000000000E+00 -0.00000000000E+00 -0.31508569011E+02  0.31508569011E+02  0.00000000000E+00 0.  1.
         23    2    1    2    0    0  0.12311244663E+03 -0.29302198033E+02  0.29090918219E+03  0.33015676784E+03  0.91433285737E+02 0.  0.
         23    2    1    2    0    0 -0.12311244663E+03  0.29302198033E+02  0.49378152626E+03  0.51755107863E+03  0.89574717381E+02 0.  0.
          5    1    3    3  502    0  0.47017410422E+02 -0.11300355232E+02  0.21729283284E+03  0.22265803402E+03  0.47000000000E+01 0. -1.
         -5    1    3    3    0  502  0.76095036213E+02 -0.18001842801E+02  0.73616349355E+02  0.10749873382E+03  0.47000000000E+01 0.  1.
          5    1    4    4  503    0 -0.11782842631E+03  0.53626824060E+02  0.40368738950E+03  0.42396340968E+03  0.47000000000E+01 0. -1.
         -5    1    4    4    0  503 -0.52840203295E+01 -0.24324626027E+02  0.90094136761E+02  0.93587668958E+02  0.47000000000E+01 0.  1.
<mgrwt>
<rscale>  0 0.15585505E+03</rscale>
<asrwt>0</asrwt>
<pdfrwt beam="1">  1        1 0.12556910E+00 0.15612604E+03</pdfrwt>
<pdfrwt beam="2">  1       -1 0.48474728E-02 0.15612604E+03</pdfrwt>
<totfact> 0.40396990E+03</totfact>
</mgrwt>
</event>
<event>
 8    1  0.3400573E-004  0.1031700E+03  0.7546771E-02  0.1274263E+00
         -1   -1    0    0    0  501 -0.00000000000E+00  0.00000000000E+00  0.29613622343E+02  0.29613622343E+02  0.00000000000E+00 0.  1.
          1   -1    0    0  501    0  0.00000000000E+00 -0.00000000000E+00 -0.37711961756E+03  0.37711961756E+03  0.00000000000E+00 0. -1.
         23    2    1    2    0    0 -0.33150669329E+02  0.30969772523E+02 -0.12488562418E+03  0.16136846306E+03  0.91571109284E+02 0.  0.
         23    2    1    2    0    0  0.33150669329E+02 -0.30969772523E+02 -0.22262037103E+03  0.24536477684E+03  0.92660403783E+02 0.  0.
          5    1    3    3  502    0  0.18737943710E+02  0.42221705213E+02 -0.75899620973E+02  0.88975420142E+02  0.47000000000E+01 0. -1.
         -5    1    4    4    0  503 -0.58061654732E+01 -0.54062591849E+02 -0.15034016614E+03  0.15993977288E+03  0.47000000000E+01 0.  1.
          5    1    4    4  503    0  0.38956834802E+02  0.23092819326E+02 -0.72280204896E+02  0.85425003963E+02  0.47000000000E+01 0. -1.
         -5    1    3    3    0  502 -0.51888613039E+02 -0.11251932690E+02 -0.48986003212E+02  0.72393042919E+02  0.47000000000E+01 0.  1.
<mgrwt>
<rscale>  0 0.10292480E+03</rscale>
<asrwt>0</asrwt>
<pdfrwt beam="1">  1        1 0.58018400E-01 0.10316998E+03</pdfrwt>
<pdfrwt beam="2">  1       -1 0.45559421E-02 0.10316998E+03</pdfrwt>
<totfact> 0.12220517E+04</totfact>
</mgrwt>
</event>
<event>
 8    1  0.3400573E-004  0.1049934E+03  0.7546771E-02  0.1271291E+00
          2   -1    0    0  501    0  0.00000000000E+00  0.00000000000E+00  0.18408247654E+02  0.18408247654E+02  0.00000000000E+00 0. -1.
         -2   -1    0    0    0  501 -0.00000000000E+00 -0.00000000000E+00 -0.97814973118E+03  0.97814973118E+03  0.00000000000E+00 0.  1.
         23    2    1    2    0    0  0.38871966150E+02  0.25235884020E+02 -0.79227790316E+03  0.79890256366E+03  0.91614140847E+02 0.  0.
         23    2    1    2    0    0 -0.38871966150E+02 -0.25235884020E+02 -0.16746358037E+03  0.19765541517E+03  0.94211107633E+02 0.  0.
          5    1    3    3  502    0 -0.28858235612E+02  0.11394388877E+02 -0.17980991833E+03  0.18252760501E+03  0.47000000000E+01 0. -1.
         -5    1    4    4    0  503 -0.14339930122E+02  0.35287844976E+02 -0.48332101326E+02  0.61716672120E+02  0.47000000000E+01 0.  1.
          5    1    4    4  503    0 -0.24532036028E+02 -0.60523728995E+02 -0.11913147905E+03  0.13593874305E+03  0.47000000000E+01 0. -1.
         -5    1    3    3    0  502  0.67730201763E+02  0.13841495142E+02 -0.61246798482E+03  0.61637495865E+03  0.47000000000E+01 0.  1.
<mgrwt>
<rscale>  0 0.10440754E+03</rscale>
<asrwt>0</asrwt>
<pdfrwt beam="1">  1        2 0.28320369E-02 0.10499339E+03</pdfrwt>
<pdfrwt beam="2">  1       -2 0.15048464E+00 0.10499339E+03</pdfrwt>
<totfact> 0.10156022E+03</totfact>
</mgrwt>
</event>
<event>
 8    1  0.3400573E-004  0.1469628E+03  0.7546771E-02  0.1205915E+00
         -2   -1    0    0    0  501 -0.00000000000E+00  0.00000000000E+00  0.23916047308E+02  0.23916047308E+02  0.00000000000E+00 0.  1.
          2   -1    0    0  501    0  0.00000000000E+00 -0.00000000000E+00 -0.11053667405E+04  0.11053667405E+04  0.00000000000E+00 0. -1.
         23    2    1    2    0    0 -0.10547024259E+03 -0.27433910995E+02 -0.28874593336E+03  0.32399426717E+03  0.98597563760E+02 0.  0.
         23    2    1    2    0    0  0.10547024259E+03  0.27433910995E+02 -0.79270475982E+03  0.80528852063E+03  0.90731326851E+02 0.  0.
          5    1    4    4  502    0  0.36180134442E+02  0.55698371289E+02 -0.39634637500E+03  0.40190029817E+03  0.47000000000E+01 0. -1.
         -5    1    4    4    0  502  0.69290108153E+02 -0.28264460294E+02 -0.39635838482E+03  0.40338822246E+03  0.47000000000E+01 0.  1.
          5    1    3    3  503    0 -0.50125666389E+02  0.55024746777E+01 -0.23375134121E+03  0.23917491335E+03  0.47000000000E+01 0. -1.
         -5    1    3    3    0  503 -0.55344576205E+02 -0.32936385673E+02 -0.54994592159E+02  0.84819353825E+02  0.47000000000E+01 0.  1.
<mgrwt>
<rscale>  0 0.14565614E+03</rscale>
<asrwt>0</asrwt>
<pdfrwt beam="1">  1        2 0.17005640E+00 0.14696282E+03</pdfrwt>
<pdfrwt beam="2">  1       -2 0.36793924E-02 0.14696282E+03</pdfrwt>
<totfact> 0.69035240E+03</totfact>
</mgrwt>
</event>
<event>
 8    1  0.3400573E-004  0.9415985E+02  0.7546771E-02  0.1293662E+00
         -1   -1    0    0    0  501 -0.00000000000E+00  0.00000000000E+00  0.23651621912E+03  0.23651621912E+03  0.00000000000E+00 0.  1.
          1   -1    0    0  501    0  0.00000000000E+00 -0.00000000000E+00 -0.10967932475E+03  0.10967932475E+03  0.00000000000E+00 0. -1.
         23    2    1    2    0    0  0.10785526733E+02  0.20292139589E+02  0.20412868028E+03  0.22437560644E+03  0.90265143545E+02 0.  0.
         23    2    1    2    0    0 -0.10785526733E+02 -0.20292139589E+02 -0.77291785900E+02  0.12181993743E+03  0.91312531840E+02 0.  0.
          5    1    3    3  502    0  0.40564037018E+02  0.23275795418E+02  0.55677157058E+02  0.72864528885E+02  0.47000000000E+01 0. -1.
         -5    1    4    4    0  503 -0.44853349410E+02  0.41165679301E+01 -0.62388136720E+02  0.77091754995E+02  0.47000000000E+01 0.  1.
          5    1    4    4  503    0  0.34067822677E+02 -0.24408707519E+02 -0.14903649180E+02  0.44728182431E+02  0.47000000000E+01 0. -1.
         -5    1    3    3    0  502 -0.29778510285E+02 -0.29836558286E+01  0.14845152322E+03  0.15151107756E+03  0.47000000000E+01 0.  1.
<mgrwt>
<rscale>  0 0.93904974E+02</rscale>
<asrwt>0</asrwt>
<pdfrwt beam="1">  1        1 0.16873742E-01 0.94159848E+02</pdfrwt>
<pdfrwt beam="2">  1       -1 0.36387110E-01 0.94159848E+02</pdfrwt>
<totfact> 0.22245329E+03</totfact>
</mgrwt>
</event>
<event>
 8    1  0.3400573E-004  0.9753075E+02  0.7546771E-02  0.1286841E+00
          1   -1    0    0  501    0  0.00000000000E+00  0.00000000000E+00  0.51351865766E+03  0.51351865766E+03  0.00000000000E+00 0. -1.
         -1   -1    0    0    0  501 -0.00000000000E+00 -0.00000000000E+00 -0.28853616132E+02  0.28853616132E+02  0.00000000000E+00 0.  1.
         23    2    1    2    0    0 -0.13175230823E+02  0.20654025011E+02  0.78516781546E+02  0.12520835819E+03  0.94403773868E+02 0.  0.
         23    2    1    2    0    0  0.13175230823E+02 -0.20654025011E+02  0.40614825998E+03  0.41716391560E+03  0.92027973659E+02 0.  0.
          5    1    4    4  502    0 -0.42380774818E+01 -0.43739430832E+02  0.35861448684E+03  0.36132746821E+03  0.47000000000E+01 0. -1.
         -5    1    4    4    0  502  0.17413308305E+02  0.23085405822E+02  0.47533773135E+02  0.55836447384E+02  0.47000000000E+01 0.  1.
          5    1    3    3  503    0  0.49337677275E+01 -0.34799745722E+02  0.14060249037E+02  0.38146362465E+02  0.47000000000E+01 0. -1.
         -5    1    3    3    0  503 -0.18108998551E+02  0.55453770733E+02  0.64456532509E+02  0.87061995728E+02  0.47000000000E+01 0.  1.
<mgrwt>
<rscale>  0 0.96951168E+02</rscale>
<asrwt>0</asrwt>
<pdfrwt beam="1">  1        1 0.79002864E-01 0.97530754E+02</pdfrwt>
<pdfrwt beam="2">  1       -1 0.44390182E-02 0.97530754E+02</pdfrwt>
<totfact> 0.85532999E+03</totfact>
</mgrwt>
</event>
<event>
 8    1  0.1236397E-003  0.1006274E+03  0.7546771E-02  0.1283595E+00
         -2   -1    0    0    0  501 -0.00000000000E+00  0.00000000000E+00  0.49612793852E+02  0.49612793852E+02  0.00000000000E+00 0.  1.
          2   -1    0    0  501    0  0.00000000000E+00 -0.00000000000E+00 -0.93213889298E+03  0.93213889298E+03  0.00000000000E+00 0. -1.
         23    2    1    2    0    0 -0.86620177342E+01  0.10791218407E+02 -0.88384510282E+03  0.88955497032E+03  0.99671452779E+02 0.  0.
         23    2    1    2    0    0  0.86620177342E+01 -0.10791218407E+02  0.13190036997E+01  0.92196716502E+02  0.91142820985E+02 0.  0.
          5    1    3    3  502    0 -0.33382246449E+02 -0.34511996911E+02 -0.47314402013E+03  0.47559731506E+03  0.47000000000E+01 0. -1.
         -5    1    4    4    0  503  0.48453783932E+02 -0.51847631261E+01  0.11890265238E+02  0.50379751423E+02  0.47000000000E+01 0.  1.
          5    1    4    4  503    0 -0.39791766198E+02 -0.56064552808E+01 -0.10571261538E+02  0.41816965080E+02  0.47000000000E+01 0. -1.
         -5    1    3    3    0  502  0.24720228715E+02  0.45303215318E+02 -0.41070108269E+03  0.41395765526E+03  0.47000000000E+01 0.  1.
<mgrwt>
<rscale>  0 0.98447577E+02</rscale>
<asrwt>0</asrwt>
<pdfrwt beam="1">  1        2 0.14340596E+00 0.10062743E+03</pdfrwt>
<pdfrwt beam="2">  1       -2 0.76327388E-02 0.10062743E+03</pdfrwt>
<totfact> 0.28774172E+03</totfact>
</mgrwt>
</event>
<event>
 8    1  0.3400573E-004  0.1267411E+03  0.7546771E-02  0.1234174E+00
         -1   -1    0    0    0  501 -0.00000000000E+00  0.00000000000E+00  0.14379499944E+03  0.14379499944E+03  0.00000000000E+00 0.  1.
          1   -1    0    0  501    0  0.00000000000E+00 -0.00000000000E+00 -0.10818094294E+03  0.10818094294E+03  0.00000000000E+00 0. -1.
         23    2    1    2    0    0  0.65889042876E+02  0.45709437522E+02  0.96600570603E+01  0.12710869709E+03  0.98145736145E+02 0.  0.
         23    2    1    2    0    0 -0.65889042876E+02 -0.45709437522E+02  0.25953999436E+02  0.12486724529E+03  0.92127630001E+02 0.  0.
          5    1    3    3  502    0  0.20088480962E+02 -0.22408850782E+02 -0.23483444179E+02  0.38461224776E+02  0.47000000000E+01 0. -1.
         -5    1    4    4    0  503 -0.81627760890E+02 -0.14881785924E+02  0.31774426343E+01  0.83166970859E+02  0.47000000000E+01 0.  1.
          5    1    4    4  503    0  0.15738718014E+02 -0.30827651598E+02  0.22776556802E+02  0.41700274430E+02  0.47000000000E+01 0. -1.
         -5    1    3    3    0  502  0.45800561914E+02  0.68118288304E+02  0.33143501240E+02  0.88647472313E+02  0.47000000000E+01 0.  1.
<mgrwt>
<rscale>  0 0.12557486E+03</rscale>
<asrwt>0</asrwt>
<pdfrwt beam="1">  1        1 0.16643222E-01 0.12674109E+03</pdfrwt>
<pdfrwt beam="2">  1       -1 0.22122308E-01 0.12674109E+03</pdfrwt>
<totfact> 0.52632646E+03</totfact>
</mgrwt>
</event>
<event>
 8    1  0.3400573E-004  0.9287566E+02  0.7546771E-02  0.1297795E+00
         -1   -1    0    0    0  501 -0.00000000000E+00  0.00000000000E+00  0.32611632093E+02  0.32611632093E+02  0.00000000000E+00 0.  1.
          1   -1    0    0  501    0  0.00000000000E+00 -0.00000000000E+00 -0.39094536964E+03  0.39094536964E+03  0.00000000000E+00 0. -1.
         23    2    1    2    0    0 -0.30707688647E+01 -0.59781478724E+01 -0.56705443292E+02  0.10881817878E+03  0.92632180476E+02 0.  0.
         23    2    1    2    0    0  0.30707688647E+01  0.59781478724E+01 -0.30162829426E+03  0.31473882296E+03  0.89642238413E+02 0.  0.
          5    1    3    3  502    0 -0.16443313104E+02  0.25852146835E+02 -0.65861918318E+02  0.72791471522E+02  0.47000000000E+01 0. -1.
         -5    1    4    4    0  503  0.15930601158E+02 -0.39230465482E+02 -0.14857318098E+03  0.15456032344E+03  0.47000000000E+01 0.  1.
          5    1    4    4  503    0 -0.12859832293E+02  0.45208613355E+02 -0.15305511328E+03  0.16017849952E+03  0.47000000000E+01 0. -1.
         -5    1    3    3    0  502  0.13372544239E+02 -0.31830294708E+02  0.91564750262E+01  0.36026707253E+02  0.47000000000E+01 0.  1.
<mgrwt>
<rscale>  0 0.92121055E+02</rscale>
<asrwt>0</asrwt>
<pdfrwt beam="1">  1        1 0.60145439E-01 0.92875663E+02</pdfrwt>
<pdfrwt beam="2">  1       -1 0.50171744E-02 0.92875663E+02</pdfrwt>
<totfact> 0.10057619E+04</totfact>
</mgrwt>
</event>
<event>
 8    1  0.3400573E-004  0.1020499E+03  0.7546771E-02  0.1279519E+00
          1   -1    0    0  501    0  0.00000000000E+00  0.00000000000E+00  0.28350781493E+02  0.28350781493E+02  0.00000000000E+00 0. -1.
         -1   -1    0    0    0  501 -0.00000000000E+00 -0.00000000000E+00 -0.34607443210E+03  0.34607443210E+03  0.00000000000E+00 0.  1.
         23    2    1    2    0    0 -0.13733632792E+02  0.23615171372E+02 -0.13956996907E+03  0.16911345865E+03  0.91505719176E+02 0.  0.
         23    2    1    2    0    0  0.13733632792E+02 -0.23615171372E+02 -0.17815368153E+03  0.20531175494E+03  0.98325446777E+02 0.  0.
          5    1    3    3  502    0 -0.49162049981E+02  0.31004417537E+02 -0.95490632544E+02  0.11188713943E+03  0.47000000000E+01 0. -1.
         -5    1    3    3    0  502  0.35428417189E+02 -0.73892461658E+01 -0.44079336528E+02  0.57226319226E+02  0.47000000000E+01 0.  1.
          5    1    4    4  503    0 -0.18304745518E+02 -0.46146619959E+02 -0.47636162276E+02  0.68962803007E+02  0.47000000000E+01 0. -1.
         -5    1    4    4    0  503  0.32038378310E+02  0.22531448588E+02 -0.13051751926E+03  0.13634895193E+03  0.47000000000E+01 0.  1.
<mgrwt>
<rscale>  0 0.10037056E+03</rscale>
<asrwt>0</asrwt>
<pdfrwt beam="1">  1        1 0.43616589E-02 0.10204990E+03</pdfrwt>
<pdfrwt beam="2">  1       -1 0.53242218E-01 0.10204990E+03</pdfrwt>
<totfact> 0.68122564E+03</totfact>
</mgrwt>
</event>
<event>
 8    1  0.3400573E-004  0.1672649E+03  0.7546771E-02  0.1180789E+00
         -1   -1    0    0    0  501 -0.00000000000E+00  0.00000000000E+00  0.15026217663E+03  0.15026217663E+03  0.00000000000E+00 0.  1.
          1   -1    0    0  501    0  0.00000000000E+00 -0.00000000000E+00 -0.20259703469E+03  0.20259703469E+03  0.00000000000E+00 0. -1.
         23    2    1    2    0    0 -0.13575362099E+03 -0.32747553629E+02 -0.76727692683E+02  0.18382504219E+03  0.91668202952E+02 0.  0.
         23    2    1    2    0    0  0.13575362099E+03  0.32747553629E+02  0.24392834620E+02  0.16903416912E+03  0.92065694324E+02 0.  0.
          5    1    3    3  502    0 -0.11710325585E+03  0.11931721544E+02 -0.47106236893E+02  0.12687247954E+03  0.47000000000E+01 0. -1.
         -5    1    4    4    0  503  0.42859128669E+02 -0.20721202648E+02  0.37725146197E+02  0.60922490141E+02  0.47000000000E+01 0.  1.
          5    1    4    4  503    0  0.92894492317E+02  0.53468756277E+02 -0.13332311576E+02  0.10811167898E+03  0.47000000000E+01 0. -1.
         -5    1    3    3    0  502 -0.18650365136E+02 -0.44679275173E+02 -0.29621455790E+02  0.56952562654E+02  0.47000000000E+01 0.  1.
<mgrwt>
<rscale>  0 0.16721024E+03</rscale>
<asrwt>0</asrwt>
<pdfrwt beam="1">  1        1 0.31168775E-01 0.16726488E+03</pdfrwt>
<pdfrwt beam="2">  1       -1 0.23117258E-01 0.16726488E+03</pdfrwt>
<totfact> 0.22471489E+03</totfact>
</mgrwt>
</event>
<event>
 8    1  0.3400573E-004  0.1243936E+03  0.7546771E-02  0.1236115E+00
          1   -1    0    0  501    0  0.00000000000E+00  0.00000000000E+00  0.72880564621E+03  0.72880564621E+03  0.00000000000E+00 0. -1.
         -1   -1    0    0    0  501 -0.00000000000E+00 -0.00000000000E+00 -0.55182519023E+02  0.55182519023E+02  0.00000000000E+00 0.  1.
         23    2    1    2    0    0  0.70895915790E+02  0.42534005064E+02  0.29027908936E+02  0.12749996554E+03  0.92618838546E+02 0.  0.
         23    2    1    2    0    0 -0.70895915790E+02 -0.42534005064E+02  0.64459521825E+03  0.65648819969E+03  0.92942931299E+02 0.  0.
          5    1    4    4  502    0 -0.52014582614E+02 -0.53133819877E+02  0.61510971447E+03  0.61960533443E+03  0.47000000000E+01 0. -1.
         -5    1    4    4    0  502 -0.18881333176E+02  0.10599814813E+02  0.29485503780E+02  0.36882865260E+02  0.47000000000E+01 0.  1.
          5    1    3    3  503    0  0.68990874365E+02 -0.45875447112E+01  0.38338393485E+02  0.79200433882E+02  0.47000000000E+01 0. -1.
         -5    1    3    3    0  503  0.19050414247E+01  0.47121549775E+02 -0.93104845488E+01  0.48299531660E+02  0.47000000000E+01 0.  1.
<mgrwt>
<rscale>  0 0.12433304E+03</rscale>
<asrwt>0</asrwt>
<pdfrwt beam="1">  1        1 0.11212394E+00 0.12439357E+03</pdfrwt>
<pdfrwt beam="2">  1       -1 0.84896188E-02 0.12439357E+03</pdfrwt>
<totfact> 0.20536892E+03</totfact>
</mgrwt>
</event>
<event>
 8    1  0.3400573E-004  0.9355761E+02  0.7546771E-02  0.1295160E+00
          2   -1    0    0  501    0  0.00000000000E+00  0.00000000000E+00  0.60563751113E+03  0.60563751113E+03  0.00000000000E+00 0. -1.
         -2   -1    0    0    0  501 -0.00000000000E+00 -0.00000000000E+00 -0.26044163152E+02  0.26044163152E+02  0.00000000000E+00 0.  1.
         23    2    1    2    0    0  0.91020173698E+01  0.12739851970E+02  0.50322789918E+03  0.51185090098E+03  0.92238147026E+02 0.  0.
         23    2    1    2    0    0 -0.91020173698E+01 -0.12739851970E+02  0.76365448794E+02  0.11983077330E+03  0.91008691413E+02 0.  0.
          5    1    4    4  502    0 -0.13691256255E+02 -0.45045455821E+02  0.14089743788E+02  0.49367544683E+02  0.47000000000E+01 0. -1.
         -5    1    4    4    0  502  0.45892388853E+01  0.32305603851E+02  0.62275705006E+02  0.70463228621E+02  0.47000000000E+01 0.  1.
          5    1    3    3  503    0  0.35857752766E+02 -0.18890456402E+02  0.37020819366E+03  0.37244976095E+03  0.47000000000E+01 0. -1.
         -5    1    3    3    0  503 -0.26755735396E+02  0.31630308372E+02  0.13301970552E+03  0.13940114003E+03  0.47000000000E+01 0.  1.
<mgrwt>
<rscale>  0 0.93253155E+02</rscale>
<asrwt>0</asrwt>
<pdfrwt beam="1">  1        2 0.93174991E-01 0.93557610E+02</pdfrwt>
<pdfrwt beam="2">  1       -2 0.40067948E-02 0.93557610E+02</pdfrwt>
<totfact> 0.12639128E+04</totfact>
</mgrwt>
</event>
<event>
 8    1  0.3400573E-004  0.9969025E+02  0.7546771E-02  0.1282712E+00
          2   -1    0    0  501    0  0.00000000000E+00  0.00000000000E+00  0.14011585235E+03  0.14011585235E+03  0.00000000000E+00 0. -1.
         -2   -1    0    0    0  501 -0.00000000000E+00 -0.00000000000E+00 -0.74883076878E+02  0.74883076878E+02  0.00000000000E+00 0.  1.
         23    2    1    2    0    0 -0.29355191202E+02  0.22304518943E+02  0.63219412244E+02  0.11528834915E+03  0.89081370379E+02 0.  0.
         23    2    1    2    0    0  0.29355191202E+02 -0.22304518943E+02  0.20133632229E+01  0.99710580077E+02  0.92622499060E+02 0.  0.
          5    1    3    3  502    0  0.21462408003E+02 -0.84734978407E+01  0.48478776759E+02  0.53895425771E+02  0.47000000000E+01 0. -1.
         -5    1    3    3    0  502 -0.50817599205E+02  0.30778016784E+02  0.14740635485E+02  0.61392923376E+02  0.47000000000E+01 0.  1.
          5    1    4    4  503    0  0.86039293100E+01 -0.19559095905E+02  0.45907412804E+02  0.50854364440E+02  0.47000000000E+01 0. -1.
         -5    1    4    4    0  503  0.20751261892E+02 -0.27454230382E+01 -0.43894049581E+02  0.48856215637E+02  0.47000000000E+01 0.  1.
<mgrwt>
<rscale>  0 0.98859633E+02</rscale>
<asrwt>0</asrwt>
<pdfrwt beam="1">  1        2 0.21556285E-01 0.99690251E+02</pdfrwt>
<pdfrwt beam="2">  1       -2 0.11520473E-01 0.99690251E+02</pdfrwt>
<totfact> 0.12257346E+04</totfact>
</mgrwt>
</event>
<event>
 7    1  0.3400573E-004  0.2039154E+03  0.7546771E-02  0.1152569E+00
          4   -1    0    0  501    0  0.00000000000E+00  0.00000000000E+00  0.11908279761E+03  0.11908279761E+03  0.00000000000E+00 0. -1.
         -4   -1    0    0    0  501 -0.00000000000E+00 -0.00000000000E+00 -0.33532638306E+03  0.33532638306E+03  0.00000000000E+00 0.  1.
         23    2    1    2    0    0 -0.14042410507E+03  0.44585248419E+02 -0.31548326965E+02  0.17928405582E+03  0.97163275342E+02 0.  0.
          5    1    1    2  502    0  0.60337362996E+02  0.46673240826E+02 -0.10478472894E+03  0.12969548258E+03  0.47000000000E+01 0. -1.
         -5    1    1    2    0  502  0.80086742079E+02 -0.91258489245E+02 -0.79910529540E+02  0.14542964226E+03  0.47000000000E+01 0.  1.
          5    1    3    3  503    0 -0.25231958906E+01 -0.21829064662E+02 -0.10172499807E+02  0.24666664425E+02  0.47000000000E+01 0. -1.
         -5    1    3    3    0  503 -0.13790090918E+03  0.66414313081E+02 -0.21375827158E+02  0.15461739140E+03  0.47000000000E+01 0.  1.
<mgrwt>
<rscale>  0 0.19668235E+03</rscale>
<asrwt>0</asrwt>
<pdfrwt beam="1">  1        4 0.18320431E-01 0.20391541E+03</pdfrwt>
<pdfrwt beam="2">  1       -4 0.51588673E-01 0.20391541E+03</pdfrwt>
<totfact> 0.17134814E+02</totfact>
</mgrwt>
</event>
<event>
 8    1  0.3400573E-004  0.1212266E+03  0.7546771E-02  0.1241533E+00
          2   -1    0    0  501    0  0.00000000000E+00  0.00000000000E+00  0.42701472523E+02  0.42701472523E+02  0.00000000000E+00 0. -1.
         -2   -1    0    0    0  501 -0.00000000000E+00 -0.00000000000E+00 -0.56331337241E+03  0.56331337241E+03  0.00000000000E+00 0.  1.
         23    2    1    2    0    0  0.23346111243E+02 -0.74238532549E+02 -0.45134106186E+03  0.46733783419E+03  0.92948891971E+02 0.  0.
         23    2    1    2    0    0 -0.23346111243E+02  0.74238532549E+02 -0.69270838024E+02  0.13867701074E+03  0.91523022691E+02 0.  0.
          5    1    4    4  502    0 -0.25403756749E+02  0.17173808388E+02 -0.74935180322E+02  0.81102785411E+02  0.47000000000E+01 0. -1.
         -5    1    4    4    0  502  0.20576455063E+01  0.57064724162E+02  0.56643422987E+01  0.57574225330E+02  0.47000000000E+01 0.  1.
          5    1    3    3  503    0  0.49099253786E+02 -0.79959816437E+02 -0.36750111506E+03  0.37931974446E+03  0.47000000000E+01 0. -1.
         -5    1    3    3    0  503 -0.25753142543E+02  0.57212838878E+01 -0.83839946805E+02  0.88018089734E+02  0.47000000000E+01 0.  1.
<mgrwt>
<rscale>  0 0.12095327E+03</rscale>
<asrwt>0</asrwt>
<pdfrwt beam="1">  1        2 0.65694573E-02 0.12122664E+03</pdfrwt>
<pdfrwt beam="2">  1       -2 0.86663596E-01 0.12122664E+03</pdfrwt>
<totfact> 0.12592963E+03</totfact>
</mgrwt>
</event>
<event>
 8    1  0.3400573E-004  0.2156560E+03  0.7546771E-02  0.1137197E+00
          2   -1    0    0  501    0  0.00000000000E+00  0.00000000000E+00  0.72564377599E+03  0.72564377599E+03  0.00000000000E+00 0.  1.
         -2   -1    0    0    0  501 -0.00000000000E+00 -0.00000000000E+00 -0.76092440997E+02  0.76092440997E+02  0.00000000000E+00 0. -1.
         23    2    1    2    0    0 -0.19202067780E+03 -0.34004356168E+02  0.16534599599E+03  0.27174769716E+03  0.92082982036E+02 0.  0.
         23    2    1    2    0    0  0.19202067780E+03  0.34004356168E+02  0.48420533901E+03  0.52998851983E+03  0.91677608409E+02 0.  0.
          5    1    4    4  502    0  0.10548636979E+02  0.24732708096E+02  0.11847021765E+03  0.12157410523E+03  0.47000000000E+01 0. -1.
         -5    1    4    4    0  502  0.18147204082E+03  0.92716480722E+01  0.36573512135E+03  0.40841441460E+03  0.47000000000E+01 0.  1.
          5    1    3    3  503    0 -0.13955106556E+03 -0.45508957815E+02  0.71096203027E+02  0.16316349232E+03  0.47000000000E+01 0. -1.
         -5    1    3    3    0  503 -0.52469612240E+02  0.11504601647E+02  0.94249792960E+02  0.10858420484E+03  0.47000000000E+01 0.  1.
<mgrwt>
<rscale>  0 0.21561280E+03</rscale>
<asrwt>0</asrwt>
<pdfrwt beam="1">  1        2 0.11163750E+00 0.21565601E+03</pdfrwt>
<pdfrwt beam="2">  1       -2 0.11706530E-01 0.21565601E+03</pdfrwt>
<totfact> 0.20555295E+03</totfact>
</mgrwt>
</event>
<event>
 8    1  0.3400573E-004  0.9222147E+02  0.7546771E-02  0.1297612E+00
         -1   -1    0    0    0  501 -0.00000000000E+00  0.00000000000E+00  0.28097606545E+03  0.28097606545E+03  0.00000000000E+00 0.  1.
          1   -1    0    0  501    0  0.00000000000E+00 -0.00000000000E+00 -0.40354157554E+02  0.40354157554E+02  0.00000000000E+00 0. -1.
         23    2    1    2    0    0 -0.10131962511E+02 -0.94027626433E+01  0.39917677897E+02  0.10048990235E+03  0.91179662511E+02 0.  0.
         23    2    1    2    0    0  0.10131962511E+02  0.94027626433E+01  0.20070423000E+03  0.22084032066E+03  0.91088916332E+02 0.  0.
          5    1    4    4  502    0  0.47484612645E+02 -0.11331503273E+02  0.10159717998E+03  0.11281519572E+03  0.47000000000E+01 0. -1.
         -5    1    3    3    0  503 -0.31079497121E+02  0.24121804307E+02 -0.56046211120E+01  0.40016226236E+02  0.47000000000E+01 0.  1.
          5    1    3    3  503    0  0.20947534611E+02 -0.33524566951E+02  0.45522299009E+02  0.60473676113E+02  0.47000000000E+01 0. -1.
         -5    1    4    4    0  502 -0.37352650134E+02  0.20734265917E+02  0.99107050017E+02  0.10802512494E+03  0.47000000000E+01 0.  1.
<mgrwt>
<rscale>  0 0.92199031E+02</rscale>
<asrwt>0</asrwt>
<pdfrwt beam="1">  1        1 0.62083321E-02 0.92221470E+02</pdfrwt>
<pdfrwt beam="2">  1       -1 0.43227086E-01 0.92221470E+02</pdfrwt>
<totfact> 0.60939875E+03</totfact>
</mgrwt>
</event>
<event>
 8    1  0.3400573E-004  0.1192860E+03  0.7546771E-02  0.1245262E+00
          1   -1    0    0  501    0  0.00000000000E+00  0.00000000000E+00  0.24792264668E+03  0.24792264668E+03  0.00000000000E+00 0. -1.
         -1   -1    0    0    0  501 -0.00000000000E+00 -0.00000000000E+00 -0.63505916843E+02  0.63505916843E+02  0.00000000000E+00 0.  1.
         23    2    1    2    0    0  0.16818502434E+02 -0.73041410097E+02  0.38853486841E+02  0.12323240009E+03  0.89770381410E+02 0.  0.
         23    2    1    2    0    0 -0.16818502434E+02  0.73041410097E+02  0.14556324299E+03  0.18819616344E+03  0.92796705802E+02 0.  0.
          5    1    3    3  502    0  0.47081701398E+02 -0.23239037879E+02  0.37605625529E+02  0.64753475270E+02  0.47000000000E+01 0. -1.
         -5    1    3    3    0  502 -0.30263198963E+02 -0.49802372217E+02  0.12478613117E+01  0.58478924817E+02  0.47000000000E+01 0.  1.
          5    1    4    4  503    0  0.22202236468E+02  0.22982986028E+02  0.11134804009E+03  0.11593805666E+03  0.47000000000E+01 0. -1.
         -5    1    4    4    0  503 -0.39020738902E+02  0.50058424069E+02  0.34215202908E+02  0.72258106776E+02  0.47000000000E+01 0.  1.
<mgrwt>
<rscale>  0 0.11869690E+03</rscale>
<asrwt>0</asrwt>
<pdfrwt beam="1">  1        1 0.38141945E-01 0.11928595E+03</pdfrwt>
<pdfrwt beam="2">  1       -1 0.97701412E-02 0.11928595E+03</pdfrwt>
<totfact> 0.66543788E+03</totfact>
</mgrwt>
</event>
<event>
 8    1  0.3400573E-004  0.9463880E+02  0.7546771E-02  0.1293687E+00
          2   -1    0    0  501    0  0.00000000000E+00  0.00000000000E+00  0.22076736233E+03  0.22076736233E+03  0.00000000000E+00 0. -1.
         -2   -1    0    0    0  501 -0.00000000000E+00 -0.00000000000E+00 -0.98559698351E+02  0.98559698351E+02  0.00000000000E+00 0.  1.
         23    2    1    2    0    0 -0.23305114453E+02  0.56343246409E+01 -0.62291112279E+02  0.11329909330E+03  0.91551231012E+02 0.  0.
         23    2    1    2    0    0  0.23305114453E+02 -0.56343246409E+01  0.18449877626E+03  0.20602796738E+03  0.88503395012E+02 0.  0.
          5    1    4    4  502    0  0.23796241063E+02 -0.39315426650E+02  0.15245203533E+03  0.15929744800E+03  0.47000000000E+01 0. -1.
         -5    1    3    3    0  503 -0.51795547292E+02  0.11064388592E+02 -0.64785236368E+02  0.83811790730E+02  0.47000000000E+01 0.  1.
          5    1    3    3  503    0  0.28490432839E+02 -0.54300639509E+01  0.24941240884E+01  0.29487302570E+02  0.47000000000E+01 0.  1.
         -5    1    4    4    0  502 -0.49112661022E+00  0.33681102009E+02  0.32046740924E+02  0.46730519382E+02  0.47000000000E+01 0.  1.
<mgrwt>
<rscale>  0 0.93893758E+02</rscale>
<asrwt>0</asrwt>
<pdfrwt beam="1">  1        2 0.33964209E-01 0.94638797E+02</pdfrwt>
<pdfrwt beam="2">  1       -2 0.15163031E-01 0.94638797E+02</pdfrwt>
<totfact> 0.48068052E+03</totfact>
</mgrwt>
</event>
<event>
 8    1  0.3400573E-004  0.1171942E+03  0.7546771E-02  0.1247853E+00
          4   -1    0    0  501    0  0.00000000000E+00  0.00000000000E+00  0.17184574375E+03  0.17184574375E+03  0.00000000000E+00 0. -1.
         -4   -1    0    0    0  501 -0.00000000000E+00 -0.00000000000E+00 -0.15098798361E+03  0.15098798361E+03  0.00000000000E+00 0.  1.
         23    2    1    2    0    0 -0.71843115688E+02  0.39212712168E+00 -0.10038202887E+03  0.15421118958E+03  0.92428092243E+02 0.  0.
         23    2    1    2    0    0  0.71843115688E+02 -0.39212712168E+00  0.12123978901E+03  0.16862253779E+03  0.92589884845E+02 0.  0.
          5    1    4    4  502    0  0.41060529123E+02 -0.12718638040E+02  0.12742835508E+03  0.13456524991E+03  0.47000000000E+01 0. -1.
         -5    1    3    3    0  503  0.82217524417E+01 -0.27989770603E+02 -0.40671070846E+02  0.50271766185E+02  0.47000000000E+01 0. -1.
          5    1    3    3  503    0 -0.80064868130E+02  0.28381897725E+02 -0.59710958020E+02  0.10393942339E+03  0.47000000000E+01 0.  1.
         -5    1    4    4    0  502  0.30782586565E+02  0.12326510918E+02 -0.61885660769E+01  0.34057287871E+02  0.47000000000E+01 0.  1.
<mgrwt>
<rscale>  0 0.11716221E+03</rscale>
<asrwt>0</asrwt>
<pdfrwt beam="1">  1        4 0.26437807E-01 0.11719417E+03</pdfrwt>
<pdfrwt beam="2">  1       -4 0.23228920E-01 0.11719417E+03</pdfrwt>
<totfact> 0.37410087E+02</totfact>
</mgrwt>
</event>
<event>
 8    1  0.3400573E-004  0.9256790E+02  0.7546771E-02  0.1297673E+00
         -2   -1    0    0    0  501 -0.00000000000E+00  0.00000000000E+00  0.13176837311E+02  0.13176837311E+02  0.00000000000E+00 0.  1.
          2   -1    0    0  501    0  0.00000000000E+00 -0.00000000000E+00 -0.63941648969E+03  0.63941648969E+03  0.00000000000E+00 0. -1.
         23    2    1    2    0    0  0.95159442553E+01  0.92429071958E+01 -0.31996306573E+03  0.33308434176E+03  0.91612394177E+02 0.  0.
         23    2    1    2    0    0 -0.95159442553E+01 -0.92429071958E+01 -0.30627658664E+03  0.31950898523E+03  0.90025882891E+02 0.  0.
          5    1    3    3  502    0  0.60281655777E+01  0.38728162189E+02 -0.62841627324E+02  0.74211653071E+02  0.47000000000E+01 0. -1.
         -5    1    4    4    0  503 -0.36536095985E+02  0.89311715278E+00 -0.53001650735E+02  0.64551908947E+02  0.47000000000E+01 0.  1.
          5    1    4    4  503    0  0.27020151729E+02 -0.10136024349E+02 -0.25327493591E+03  0.25495707628E+03  0.47000000000E+01 0. -1.
         -5    1    3    3    0  502  0.34877786775E+01 -0.29485254993E+02 -0.25712143841E+03  0.25887268869E+03  0.47000000000E+01 0.  1.
<mgrwt>
<rscale>  0 0.92172912E+02</rscale>
<asrwt>0</asrwt>
<pdfrwt beam="1">  1        2 0.98371746E-01 0.92567896E+02</pdfrwt>
<pdfrwt beam="2">  1       -2 0.20272062E-02 0.92567896E+02</pdfrwt>
<totfact> 0.31961678E+04</totfact>
</mgrwt>
</event>
<event>
 6    1  0.3400573E-004  0.3338065E+03  0.7546771E-02  0.1106578E+00
          1   -1    0    0  501    0  0.00000000000E+00  0.00000000000E+00  0.33924329713E+03  0.33924329713E+03  0.00000000000E+00 0. -1.
         -1   -1    0    0    0  501 -0.00000000000E+00 -0.00000000000E+00 -0.17543738527E+03  0.17543738527E+03  0.00000000000E+00 0.  1.
          5    1    1    2  502    0  0.48843030692E+02 -0.11039472366E+02 -0.29291400633E+02  0.58202987452E+02  0.47000000000E+01 0. -1.
         -5    1    1    2    0  503  0.39538791310E+02  0.57751921075E+02 -0.13607960262E+01  0.70160830753E+02  0.47000000000E+01 0.  1.
          5    1    1    2  503    0 -0.11686667967E+03 -0.17035566482E+03  0.11400529959E+03  0.23600460099E+03  0.47000000000E+01 0.  1.
         -5    1    1    2    0  502  0.28484857665E+02  0.12364321611E+03  0.80452808919E+02  0.15031226320E+03  0.47000000000E+01 0. -1.
<mgrwt>
<rscale>  0 0.26094228E+03</rscale>
<asrwt>0</asrwt>
<pdfrwt beam="1">  1        1 0.52191277E-01 0.33380648E+03</pdfrwt>
<pdfrwt beam="2">  1       -1 0.26990367E-01 0.33380648E+03</pdfrwt>
<totfact> 0.91892887E+02</totfact>
</mgrwt>
</event>
<event>
 8    1  0.3400573E-004  0.9993487E+02  0.7546771E-02  0.1284791E+00
         -2   -1    0    0    0  501 -0.00000000000E+00  0.00000000000E+00  0.34292154471E+02  0.34292154471E+02  0.00000000000E+00 0.  1.
          2   -1    0    0  501    0  0.00000000000E+00 -0.00000000000E+00 -0.39224150033E+03  0.39224150033E+03  0.00000000000E+00 0. -1.
         23    2    1    2    0    0  0.63512914375E+01 -0.43332555438E+02 -0.54250542127E+02  0.10681512090E+03  0.80921563683E+02 0.  0.
         23    2    1    2    0    0 -0.63512914375E+01  0.43332555438E+02 -0.30369880373E+03  0.31971853390E+03  0.89827213391E+02 0.  0.
          5    1    4    4  502    0  0.32308823881E+02  0.48988046984E+02 -0.15211323940E+03  0.16310799014E+03  0.47000000000E+01 0. -1.
         -5    1    4    4    0  502 -0.38660115318E+02 -0.56554915464E+01 -0.15158556433E+03  0.15661054375E+03  0.47000000000E+01 0.  1.
          5    1    3    3  503    0  0.32161097930E+02 -0.38333384365E+02 -0.61227104395E+02  0.79212580374E+02  0.47000000000E+01 0. -1.
         -5    1    3    3    0  503 -0.25809806493E+02 -0.49991710732E+01  0.69765622684E+01  0.27602540530E+02  0.47000000000E+01 0.  1.
<mgrwt>
<rscale>  0 0.97892585E+02</rscale>
<asrwt>0</asrwt>
<pdfrwt beam="1">  1        2 0.60344846E-01 0.99934866E+02</pdfrwt>
<pdfrwt beam="2">  1       -2 0.52757161E-02 0.99934866E+02</pdfrwt>
<totfact> 0.13528407E+04</totfact>
</mgrwt>
</event>
<event>
 8    1  0.3400573E-004  0.1001432E+03  0.7546771E-02  0.1280470E+00
         -1   -1    0    0    0  501 -0.00000000000E+00  0.00000000000E+00  0.88772087499E+03  0.88772087499E+03  0.00000000000E+00 0.  1.
          1   -1    0    0  501    0  0.00000000000E+00 -0.00000000000E+00 -0.13999614175E+02  0.13999614175E+02  0.00000000000E+00 0. -1.
         23    2    1    2    0    0  0.36879674081E+02  0.12033333343E+02  0.23351546085E+03  0.25372965625E+03  0.91347449528E+02 0.  0.
         23    2    1    2    0    0 -0.36879674081E+02 -0.12033333343E+02  0.64020579996E+03  0.64799083291E+03  0.92324112538E+02 0.  0.
          5    1    4    4  502    0  0.28304506648E+02 -0.13343105578E+02  0.29140048759E+03  0.29311348951E+03  0.47000000000E+01 0. -1.
         -5    1    3    3    0  503 -0.29376423476E+02  0.13666249051E+02  0.81347730117E+02  0.87688561481E+02  0.47000000000E+01 0.  1.
          5    1    3    3  503    0  0.66256097557E+02 -0.16329157080E+01  0.15216773073E+03  0.16604109477E+03  0.47000000000E+01 0. -1.
         -5    1    4    4    0  502 -0.65184180729E+02  0.13097722352E+01  0.34880531237E+03  0.35487734340E+03  0.47000000000E+01 0.  1.
<mgrwt>
<rscale>  0 0.99917481E+02</rscale>
<asrwt>0</asrwt>
<pdfrwt beam="1">  1        1 0.21537875E-02 0.10014316E+03</pdfrwt>
<pdfrwt beam="2">  1       -1 0.13657240E+00 0.10014316E+03</pdfrwt>
<totfact> 0.24857770E+03</totfact>
</mgrwt>
</event>
<event>
 8    1  0.3400573E-004  0.1154121E+03  0.7546771E-02  0.1252892E+00
         -1   -1    0    0    0  501 -0.00000000000E+00  0.00000000000E+00  0.23573778824E+03  0.23573778824E+03  0.00000000000E+00 0.  1.
          1   -1    0    0  501    0  0.00000000000E+00 -0.00000000000E+00 -0.57532174054E+02  0.57532174054E+02  0.00000000000E+00 0. -1.
         23    2    1    2    0    0 -0.51977693786E+02 -0.41078257200E+02  0.12221830380E+03  0.16499473797E+03  0.88864199256E+02 0.  0.
         23    2    1    2    0    0  0.51977693786E+02  0.41078257200E+02  0.55987310389E+02  0.12827522432E+03  0.94503176585E+02 0.  0.
          5    1    4    4  502    0  0.15911792764E+02  0.58295271445E+02  0.16148834871E+01  0.60631853596E+02  0.47000000000E+01 0. -1.
         -5    1    4    4    0  502  0.36065901022E+02 -0.17217014245E+02  0.54372426902E+02  0.67643370727E+02  0.47000000000E+01 0.  1.
          5    1    3    3  503    0  0.22628229456E+02 -0.11694669382E+02  0.11825727580E+02  0.28473494571E+02  0.47000000000E+01 0. -1.
         -5    1    3    3    0  503 -0.74605923242E+02 -0.29383587818E+02  0.11039257622E+03  0.13652124340E+03  0.47000000000E+01 0.  1.
<mgrwt>
<rscale>  0 0.11425221E+03</rscale>
<asrwt>0</asrwt>
<pdfrwt beam="1">  1        1 0.88511038E-02 0.11541211E+03</pdfrwt>
<pdfrwt beam="2">  1       -1 0.36267352E-01 0.11541211E+03</pdfrwt>
<totfact> 0.52407498E+03</totfact>
</mgrwt>
</event>
<event>
 8    1  0.3400573E-004  0.1281746E+03  0.7546771E-02  0.1230897E+00
         -2   -1    0    0    0  501 -0.00000000000E+00  0.00000000000E+00  0.45466020501E+02  0.45466020501E+02  0.00000000000E+00 0.  1.
          2   -1    0    0  501    0  0.00000000000E+00 -0.00000000000E+00 -0.72488946128E+03  0.72488946128E+03  0.00000000000E+00 0. -1.
         23    2    1    2    0    0  0.76594498690E+02 -0.43826846312E+02 -0.63772522250E+02  0.14150352332E+03  0.90381429679E+02 0.  0.
         23    2    1    2    0    0 -0.76594498690E+02  0.43826846312E+02 -0.61565091853E+03  0.62885195846E+03  0.92958176007E+02 0.  0.
          5    1    3    3  502    0 -0.23760144978E+00  0.23481665286E+02 -0.14523140299E+02  0.28008153512E+02  0.47000000000E+01 0. -1.
         -5    1    4    4    0  503 -0.12009860180E+02  0.17703678243E+02 -0.21775251779E+02  0.30885410065E+02  0.47000000000E+01 0.  1.
          5    1    4    4  503    0 -0.64584638510E+02  0.26123168069E+02 -0.59387566675E+03  0.59796654839E+03  0.47000000000E+01 0. -1.
         -5    1    3    3    0  502  0.76832100139E+02 -0.67308511598E+02 -0.49249381951E+02  0.11349536981E+03  0.47000000000E+01 0.  1.
<mgrwt>
<rscale>  0 0.12770799E+03</rscale>
<asrwt>0</asrwt>
<pdfrwt beam="1">  1        2 0.11152145E+00 0.12817462E+03</pdfrwt>
<pdfrwt beam="2">  1       -2 0.69947729E-02 0.12817462E+03</pdfrwt>
<totfact> 0.45428285E+03</totfact>
</mgrwt>
</event>
<event>
 8    1  0.3400573E-004  0.1007261E+03  0.7546771E-02  0.1280415E+00
         -2   -1    0    0    0  501 -0.00000000000E+00  0.00000000000E+00  0.19680363331E+02  0.19680363331E+02  0.00000000000E+00 0.  1.
          2   -1    0    0  501    0  0.00000000000E+00 -0.00000000000E+00 -0.60946694686E+03  0.60946694686E+03  0.00000000000E+00 0. -1.
         23    2    1    2    0    0 -0.33124793492E+01  0.37747194204E+02 -0.16524432378E+03  0.19352370343E+03  0.93326920335E+02 0.  0.
         23    2    1    2    0    0  0.33124793492E+01 -0.37747194204E+02 -0.42454225975E+03  0.43562360676E+03  0.89977626452E+02 0.  0.
          5    1    3    3  502    0  0.16703119793E+02 -0.24553812637E+02 -0.26613768972E+02  0.40153040043E+02  0.47000000000E+01 0. -1.
         -5    1    3    3    0  502 -0.20015599142E+02  0.62301006840E+02 -0.13863055481E+03  0.15337066339E+03  0.47000000000E+01 0.  1.
          5    1    4    4  503    0 -0.32159750692E+01 -0.66643165192E+02 -0.31681422538E+03  0.32379777233E+03  0.47000000000E+01 0. -1.
         -5    1    4    4    0  503  0.65284544184E+01  0.28895970989E+02 -0.10772803437E+03  0.11182583443E+03  0.47000000000E+01 0.  1.
<mgrwt>
<rscale>  0 0.99943188E+02</rscale>
<asrwt>0</asrwt>
<pdfrwt beam="1">  1        2 0.93764138E-01 0.10072605E+03</pdfrwt>
<pdfrwt beam="2">  1       -2 0.30277485E-02 0.10072605E+03</pdfrwt>
<totfact> 0.19038857E+04</totfact>
</mgrwt>
</event>
<event>
 8    1  0.3400573E-004  0.1056812E+03  0.7546771E-02  0.1268828E+00
          2   -1    0    0  501    0  0.00000000000E+00  0.00000000000E+00  0.15090692632E+03  0.15090692632E+03  0.00000000000E+00 0. -1.
         -2   -1    0    0    0  501 -0.00000000000E+00 -0.00000000000E+00 -0.35402561000E+03  0.35402561000E+03  0.00000000000E+00 0.  1.
         23    2    1    2    0    0  0.24774166196E+02  0.49511005110E+02  0.12300703153E+03  0.16211114729E+03  0.89912153416E+02 0.  0.
         23    2    1    2    0    0 -0.24774166196E+02 -0.49511005110E+02 -0.32612571522E+03  0.34282138903E+03  0.90019018600E+02 0.  0.
          5    1    4    4  502    0 -0.48378455070E+02 -0.50781095236E+02 -0.29604679428E+03  0.30427781541E+03  0.47000000000E+01 0. -1.
         -5    1    3    3    0  503  0.35287498045E+02 -0.13066844167E+02  0.25564119126E+02  0.45733621346E+02  0.47000000000E+01 0.  1.
          5    1    3    3  503    0 -0.10513331850E+02  0.62577849277E+02  0.97442912406E+02  0.11637752594E+03  0.47000000000E+01 0. -1.
         -5    1    4    4    0  502  0.23604288875E+02  0.12700901264E+01 -0.30078920941E+02  0.38543573618E+02  0.47000000000E+01 0.  1.
<mgrwt>
<rscale>  0 0.10565847E+03</rscale>
<asrwt>0</asrwt>
<pdfrwt beam="1">  1        2 0.23216450E-01 0.10568123E+03</pdfrwt>
<pdfrwt beam="2">  1       -2 0.54465479E-01 0.10568123E+03</pdfrwt>
<totfact> 0.74243883E+02</totfact>
</mgrwt>
</event>
<event>
 8    1  0.3400573E-004  0.1262129E+03  0.7546771E-02  0.1234970E+00
         -1   -1    0    0    0  501 -0.00000000000E+00  0.00000000000E+00  0.95811360007E+03  0.95811360007E+03  0.00000000000E+00 0.  1.
          1   -1    0    0  501    0  0.00000000000E+00 -0.00000000000E+00 -0.18943008886E+02  0.18943008886E+02  0.00000000000E+00 0. -1.
         23    2    1    2    0    0  0.77247277833E+02 -0.26123872775E+02  0.66826761374E+03  0.68008184204E+03  0.96333325713E+02 0.  0.
         23    2    1    2    0    0 -0.77247277833E+02  0.26123872775E+02  0.27090297744E+03  0.29697476691E+03  0.90310521716E+02 0.  0.
          5    1    4    4  502    0 -0.48587480539E+01  0.44669082543E+02  0.79369696520E+02  0.91326738109E+02  0.47000000000E+01 0. -1.
         -5    1    3    3    0  503  0.63527897972E+02 -0.56779862774E+02  0.56449215396E+03  0.57090562138E+03  0.47000000000E+01 0.  1.
          5    1    3    3  503    0  0.13719379861E+02  0.30655989999E+02  0.10377545978E+03  0.10917622067E+03  0.47000000000E+01 0. -1.
         -5    1    4    4    0  502 -0.72388529779E+02 -0.18545209768E+02  0.19153328092E+03  0.20564802880E+03  0.47000000000E+01 0.  1.
<mgrwt>
<rscale>  0 0.12506366E+03</rscale>
<asrwt>0</asrwt>
<pdfrwt beam="1">  1        1 0.29143098E-02 0.12621295E+03</pdfrwt>
<pdfrwt beam="2">  1       -1 0.14740205E+00 0.12621295E+03</pdfrwt>
<totfact> 0.13677583E+03</totfact>
</mgrwt>
</event>
<event>
 8    1  0.3400573E-004  0.1099527E+03  0.7546771E-02  0.1260988E+00
         -1   -1    0    0    0  501 -0.00000000000E+00  0.00000000000E+00  0.48246220918E+02  0.48246220918E+02  0.00000000000E+00 0.  1.
          1   -1    0    0  501    0  0.00000000000E+00 -0.00000000000E+00 -0.26553422056E+03  0.26553422056E+03  0.00000000000E+00 0. -1.
         23    2    1    2    0    0  0.55109809573E+02 -0.22233648968E+02 -0.69781455940E+02  0.13022687974E+03  0.92510336476E+02 0.  0.
         23    2    1    2    0    0 -0.55109809573E+02  0.22233648968E+02 -0.14750654371E+03  0.18355356175E+03  0.91664078765E+02 0.  0.
          5    1    3    3  502    0  0.75536936741E+00 -0.35889319294E+02 -0.64207577137E+02  0.73711035700E+02  0.47000000000E+01 0. -1.
         -5    1    4    4    0  503  0.12331107190E+02 -0.17268029127E+02 -0.72302904638E+01  0.22904325676E+02  0.47000000000E+01 0.  1.
          5    1    4    4  503    0 -0.67440916764E+02  0.39501678095E+02 -0.14027625324E+03  0.16064923607E+03  0.47000000000E+01 0. -1.
         -5    1    3    3    0  502  0.54354440206E+02  0.13655670326E+02 -0.55738788035E+01  0.56515844035E+02  0.47000000000E+01 0.  1.
<mgrwt>
<rscale>  0 0.10977447E+03</rscale>
<asrwt>0</asrwt>
<pdfrwt beam="1">  1        1 0.40851417E-01 0.10995267E+03</pdfrwt>
<pdfrwt beam="2">  1       -1 0.74224958E-02 0.10995267E+03</pdfrwt>
<totfact> 0.91977449E+03</totfact>
</mgrwt>
</event>
<event>
 8    1  0.3400573E-004  0.9491968E+02  0.7546771E-02  0.1292657E+00
         -1   -1    0    0    0  501 -0.00000000000E+00  0.00000000000E+00  0.19575819008E+03  0.19575819008E+03  0.00000000000E+00 0.  1.
          1   -1    0    0  501    0  0.00000000000E+00 -0.00000000000E+00 -0.52198650222E+02  0.52198650222E+02  0.00000000000E+00 0. -1.
         23    2    1    2    0    0  0.10565235502E+02  0.17218647078E+02  0.26260878499E+02  0.98485425792E+02  0.92745023292E+02 0.  0.
         23    2    1    2    0    0 -0.10565235502E+02 -0.17218647078E+02  0.11729866136E+03  0.14947141451E+03  0.90413615072E+02 0.  0.
          5    1    4    4  502    0  0.73581252212E+01 -0.44259648297E+02  0.10531285116E+03  0.11456851702E+03  0.47000000000E+01 0. -1.
         -5    1    3    3    0  503 -0.15178613598E+02 -0.13295141661E+02 -0.25559168575E+02  0.32901553167E+02  0.47000000000E+01 0. -1.
          5    1    3    3  503    0  0.25743849100E+02  0.30513788739E+02  0.51820047074E+02  0.65583872625E+02  0.47000000000E+01 0.  1.
         -5    1    4    4    0  502 -0.17923360723E+02  0.27041001219E+02  0.11985810197E+02  0.34902897481E+02  0.47000000000E+01 0.  1.
<mgrwt>
<rscale>  0 0.94345320E+02</rscale>
<asrwt>0</asrwt>
<pdfrwt beam="1">  1        1 0.80305617E-02 0.94919678E+02</pdfrwt>
<pdfrwt beam="2">  1       -1 0.30116644E-01 0.94919678E+02</pdfrwt>
<totfact> 0.80367105E+03</totfact>
</mgrwt>
</event>
<event>
 8    1  0.3400573E-004  0.9407148E+02  0.7546771E-02  0.1294944E+00
          2   -1    0    0  501    0  0.00000000000E+00  0.00000000000E+00  0.22795759252E+02  0.22795759252E+02  0.00000000000E+00 0. -1.
         -2   -1    0    0    0  501 -0.00000000000E+00 -0.00000000000E+00 -0.48348275002E+03  0.48348275002E+03  0.00000000000E+00 0.  1.
         23    2    1    2    0    0  0.80139355380E+01 -0.76011988093E+01 -0.11403524662E+03  0.14782922942E+03  0.93420780415E+02 0.  0.
         23    2    1    2    0    0 -0.80139355380E+01  0.76011988093E+01 -0.34665174414E+03  0.35844927985E+03  0.90534264890E+02 0.  0.
          5    1    3    3  502    0 -0.29844529133E+02 -0.58846823809E+01 -0.36145631354E+01  0.30991619392E+02  0.47000000000E+01 0. -1.
         -5    1    4    4    0  503  0.28973122528E+02  0.29720235966E+02 -0.23486748614E+03  0.23855305553E+03  0.47000000000E+01 0.  1.
          5    1    4    4  503    0 -0.36987058066E+02 -0.22119037157E+02 -0.11178425800E+03  0.11989622432E+03  0.47000000000E+01 0. -1.
         -5    1    3    3    0  502  0.37858464671E+02 -0.17165164284E+01 -0.11042068349E+03  0.11683761003E+03  0.47000000000E+01 0.  1.
<mgrwt>
<rscale>  0 0.93346667E+02</rscale>
<asrwt>0</asrwt>
<pdfrwt beam="1">  1        2 0.35070399E-02 0.94071481E+02</pdfrwt>
<pdfrwt beam="2">  1       -2 0.74381961E-01 0.94071481E+02</pdfrwt>
<totfact> 0.38993864E+03</totfact>
</mgrwt>
</event>
<event>
 8    1  0.3400573E-004  0.1284720E+03  0.7546771E-02  0.1229967E+00
         -1   -1    0    0    0  501 -0.00000000000E+00  0.00000000000E+00  0.25323224085E+02  0.25323224085E+02  0.00000000000E+00 0.  1.
          1   -1    0    0  501    0  0.00000000000E+00 -0.00000000000E+00 -0.74499764835E+03  0.74499764835E+03  0.00000000000E+00 0. -1.
         23    2    1    2    0    0 -0.78671627018E+02 -0.47044344653E+02 -0.49754926479E+03  0.51371874492E+03  0.89158750162E+02 0.  0.
         23    2    1    2    0    0  0.78671627018E+02  0.47044344653E+02 -0.22212515948E+03  0.25660212752E+03  0.90014832726E+02 0.  0.
          5    1    3    3  502    0 -0.62588911638E+02  0.14197731306E+02 -0.24488136264E+03  0.25319541703E+03  0.47000000000E+01 0. -1.
         -5    1    4    4    0  503  0.44578768638E+02  0.70529039642E+01 -0.23524603780E+02  0.51112689721E+02  0.47000000000E+01 0.  1.
          5    1    4    4  503    0  0.34092858380E+02  0.39991440689E+02 -0.19860055570E+03  0.20548943780E+03  0.47000000000E+01 0. -1.
         -5    1    3    3    0  502 -0.16082715380E+02 -0.61242075960E+02 -0.25266790214E+03  0.26052332789E+03  0.47000000000E+01 0.  1.
<mgrwt>
<rscale>  0 0.12832219E+03</rscale>
<asrwt>0</asrwt>
<pdfrwt beam="1">  1        1 0.11461502E+00 0.12847204E+03</pdfrwt>
<pdfrwt beam="2">  1       -1 0.38958807E-02 0.12847204E+03</pdfrwt>
<totfact> 0.63338818E+03</totfact>
</mgrwt>
</event>
<event>
 8    1  0.3400573E-004  0.1046464E+03  0.7546771E-02  0.1273072E+00
          1   -1    0    0  501    0  0.00000000000E+00  0.00000000000E+00  0.36807835379E+03  0.36807835379E+03  0.00000000000E+00 0. -1.
         -1   -1    0    0    0  501 -0.00000000000E+00 -0.00000000000E+00 -0.32404153087E+02  0.32404153087E+02  0.00000000000E+00 0.  1.
         23    2    1    2    0    0 -0.45428154800E+02  0.31307346668E+01  0.10155022586E+03  0.14581948659E+03  0.94219719529E+02 0.  0.
         23    2    1    2    0    0  0.45428154800E+02 -0.31307346668E+01  0.23412397485E+03  0.25466302030E+03  0.89250767837E+02 0.  0.
          5    1    4    4  502    0  0.32190367539E+02 -0.31973122799E+02  0.20898640377E+03  0.21390630497E+03  0.47000000000E+01 0. -1.
         -5    1    3    3    0  503 -0.71141667318E+02  0.23312000055E+01  0.47291019216E+02  0.85586808684E+02  0.47000000000E+01 0.  1.
          5    1    3    3  503    0  0.25713512518E+02  0.79953466124E+00  0.54259206644E+02  0.60232677902E+02  0.47000000000E+01 0. -1.
         -5    1    4    4    0  502  0.13237787261E+02  0.28842388132E+02  0.25137571079E+02  0.40756715330E+02  0.47000000000E+01 0.  1.
<mgrwt>
<rscale>  0 0.10351560E+03</rscale>
<asrwt>0</asrwt>
<pdfrwt beam="1">  1        1 0.56627436E-01 0.10464643E+03</pdfrwt>
<pdfrwt beam="2">  1       -1 0.49852546E-02 0.10464643E+03</pdfrwt>
<totfact> 0.11049698E+04</totfact>
</mgrwt>
</event>
<event>
 8    1  0.3400573E-004  0.1125773E+03  0.7546771E-02  0.1255983E+00
          3   -1    0    0  501    0  0.00000000000E+00  0.00000000000E+00  0.86355042266E+02  0.86355042266E+02  0.00000000000E+00 0. -1.
         -3   -1    0    0    0  501 -0.00000000000E+00 -0.00000000000E+00 -0.14649548373E+03  0.14649548373E+03  0.00000000000E+00 0.  1.
         23    2    1    2    0    0 -0.48038694907E+02 -0.45373349672E+02 -0.27764852501E+02  0.11595057671E+03  0.91143799214E+02 0.  0.
         23    2    1    2    0    0  0.48038694907E+02  0.45373349672E+02 -0.32375588963E+02  0.11689994929E+03  0.90834807836E+02 0.  0.
          5    1    3    3  502    0 -0.10379218276E+02  0.27797569214E+02 -0.51847768997E+01  0.30486143373E+02  0.47000000000E+01 0. -1.
         -5    1    4    4    0  503  0.14358655845E+02 -0.27447583511E+02 -0.36144086913E+01  0.31538782291E+02  0.47000000000E+01 0.  1.
          5    1    4    4  503    0  0.33680039062E+02  0.72820933183E+02 -0.28761180272E+02  0.85361166999E+02  0.47000000000E+01 0. -1.
         -5    1    3    3    0  502 -0.37659476631E+02 -0.73170918886E+02 -0.22580075602E+02  0.85464433333E+02  0.47000000000E+01 0.  1.
<mgrwt>
<rscale>  0 0.11251475E+03</rscale>
<asrwt>0</asrwt>
<pdfrwt beam="1">  1        3 0.13285391E-01 0.11257730E+03</pdfrwt>
<pdfrwt beam="2">  1       -3 0.22537767E-01 0.11257730E+03</pdfrwt>
<totfact> 0.18380262E+03</totfact>
</mgrwt>
</event>
<event>
 8    1  0.3400573E-004  0.1753007E+03  0.7546771E-02  0.1172633E+00
         -2   -1    0    0    0  501 -0.00000000000E+00  0.00000000000E+00  0.71103035892E+02  0.71103035892E+02  0.00000000000E+00 0.  1.
          2   -1    0    0  501    0  0.00000000000E+00 -0.00000000000E+00 -0.85765370205E+03  0.85765370205E+03  0.00000000000E+00 0. -1.
         23    2    1    2    0    0  0.18295824592E+02 -0.14758765296E+03 -0.72065652813E+03  0.74148058941E+03  0.91273109086E+02 0.  0.
         23    2    1    2    0    0 -0.18295824592E+02  0.14758765296E+03 -0.65894138034E+02  0.18727614853E+03  0.92808759698E+02 0.  0.
          5    1    3    3  502    0  0.52668395020E+02 -0.86777642234E+02 -0.35874796266E+03  0.37286258828E+03  0.47000000000E+01 0. -1.
         -5    1    3    3    0  502 -0.34372570428E+02 -0.60810010728E+02 -0.36190856547E+03  0.36861800114E+03  0.47000000000E+01 0.  1.
          5    1    4    4  503    0  0.15166611330E+02  0.13714269194E+02  0.16319774743E+02  0.26580675808E+02  0.47000000000E+01 0. -1.
         -5    1    4    4    0  503 -0.33462435922E+02  0.13387338377E+03 -0.82213912777E+02  0.16069547272E+03  0.47000000000E+01 0.  1.
<mgrwt>
<rscale>  0 0.17509826E+03</rscale>
<asrwt>0</asrwt>
<pdfrwt beam="1">  1        2 0.13194672E+00 0.17530065E+03</pdfrwt>
<pdfrwt beam="2">  1       -2 0.10938929E-01 0.17530065E+03</pdfrwt>
<totfact> 0.18517196E+03</totfact>
</mgrwt>
</event>
<event>
 8    1  0.3400573E-004  0.1013946E+03  0.7546771E-02  0.1278227E+00
         -1   -1    0    0    0  501 -0.00000000000E+00  0.00000000000E+00  0.17168084706E+03  0.17168084706E+03  0.00000000000E+00 0.  1.
          1   -1    0    0  501    0  0.00000000000E+00 -0.00000000000E+00 -0.58940715661E+02  0.58940715661E+02  0.00000000000E+00 0. -1.
         23    2    1    2    0    0  0.25781923507E+02  0.33259750710E+02  0.55092213312E+02  0.11398475619E+03  0.90479025629E+02 0.  0.
         23    2    1    2    0    0 -0.25781923507E+02 -0.33259750710E+02  0.57647918091E+02  0.11663680654E+03  0.92249355455E+02 0.  0.
          5    1    4    4  502    0 -0.54469594620E+01 -0.58688421235E+02  0.11939861572E+02  0.60321227182E+02  0.47000000000E+01 0. -1.
         -5    1    3    3    0  503  0.50932618878E+02  0.47524429932E+02  0.32618936703E+02  0.77063533125E+02  0.47000000000E+01 0.  1.
          5    1    3    3  503    0 -0.25150695371E+02 -0.14264679222E+02  0.22473276609E+02  0.36921223063E+02  0.47000000000E+01 0. -1.
         -5    1    4    4    0  502 -0.20334964045E+02  0.25428670524E+02  0.45708056519E+02  0.56315579355E+02  0.47000000000E+01 0.  1.
<mgrwt>
<rscale>  0 0.10099019E+03</rscale>
<asrwt>0</asrwt>
<pdfrwt beam="1">  1        1 0.90678025E-02 0.10139459E+03</pdfrwt>
<pdfrwt beam="2">  1       -1 0.26412438E-01 0.10139459E+03</pdfrwt>
<totfact> 0.85501069E+03</totfact>
</mgrwt>
</event>
<event>
 8    1  0.3400573E-004  0.1725141E+03  0.7546771E-02  0.1175279E+00
          2   -1    0    0  501    0  0.00000000000E+00  0.00000000000E+00  0.58478744211E+03  0.58478744211E+03  0.00000000000E+00 0. -1.
         -2   -1    0    0    0  501 -0.00000000000E+00 -0.00000000000E+00 -0.53800885862E+02  0.53800885862E+02  0.00000000000E+00 0.  1.
         23    2    1    2    0    0  0.14679428835E+03  0.56737734562E+01  0.34022633458E+03  0.38146439365E+03  0.90445398358E+02 0.  0.
         23    2    1    2    0    0 -0.14679428835E+03 -0.56737734562E+01  0.19076022167E+03  0.25712393433E+03  0.90235805722E+02 0.  0.
          5    1    3    3  502    0  0.10382581938E+03  0.42211253213E+02  0.26111864621E+03  0.28419470099E+03  0.47000000000E+01 0. -1.
         -5    1    4    4    0  503 -0.69561025049E+02 -0.15248136175E+02  0.28019365716E+02  0.76670833554E+02  0.47000000000E+01 0.  1.
          5    1    4    4  503    0 -0.77233263299E+02  0.95743627186E+01  0.16274085595E+03  0.18045310077E+03  0.47000000000E+01 0. -1.
         -5    1    3    3    0  502  0.42968468968E+02 -0.36537479757E+02  0.79107688369E+02  0.97269692667E+02  0.47000000000E+01 0.  1.
<mgrwt>
<rscale>  0 0.17248667E+03</rscale>
<asrwt>0</asrwt>
<pdfrwt beam="1">  1        2 0.89967295E-01 0.17251413E+03</pdfrwt>
<pdfrwt beam="2">  1       -2 0.82770597E-02 0.17251413E+03</pdfrwt>
<totfact> 0.45603148E+03</totfact>
</mgrwt>
</event>
<event>
 8    1  0.3400573E-004  0.1786496E+03  0.7546771E-02  0.1169464E+00
          1   -1    0    0  501    0  0.00000000000E+00  0.00000000000E+00  0.13971854393E+03  0.13971854393E+03  0.00000000000E+00 0. -1.
         -1   -1    0    0    0  501 -0.00000000000E+00 -0.00000000000E+00 -0.24210596233E+03  0.24210596233E+03  0.00000000000E+00 0.  1.
         23    2    1    2    0    0 -0.29624655915E+02 -0.14974196841E+03 -0.27179757517E+01  0.17725256884E+03  0.90060026798E+02 0.  0.
         23    2    1    2    0    0  0.29624655915E+02  0.14974196841E+03 -0.99669442651E+02  0.20457193742E+03  0.92819192207E+02 0.  0.
          5    1    4    4  502    0 -0.20072796682E+02  0.19228461212E+01 -0.22269212478E+02  0.30407603132E+02  0.47000000000E+01 0. -1.
         -5    1    4    4    0  502  0.49697452597E+02  0.14781912228E+03 -0.77400230173E+02  0.17416433429E+03  0.47000000000E+01 0.  1.
          5    1    3    3  503    0 -0.37753158944E+02 -0.26572636977E+02  0.21872436768E+02  0.51302042224E+02  0.47000000000E+01 0. -1.
         -5    1    3    3    0  503  0.81285030294E+01 -0.12316933143E+03 -0.24590412519E+02  0.12595052661E+03  0.47000000000E+01 0.  1.
<mgrwt>
<rscale>  0 0.17829407E+03</rscale>
<asrwt>0</asrwt>
<pdfrwt beam="1">  1        1 0.21495161E-01 0.17864960E+03</pdfrwt>
<pdfrwt beam="2">  1       -1 0.37247070E-01 0.17864960E+03</pdfrwt>
<totfact> 0.16097224E+03</totfact>
</mgrwt>
</event>
<event>
 8    1  0.3400573E-004  0.1248807E+03  0.7546771E-02  0.1237038E+00
          3   -1    0    0  501    0  0.00000000000E+00  0.00000000000E+00  0.26176635563E+03  0.26176635563E+03  0.00000000000E+00 0. -1.
         -3   -1    0    0    0  501 -0.00000000000E+00 -0.00000000000E+00 -0.73305872612E+02  0.73305872612E+02  0.00000000000E+00 0.  1.
         23    2    1    2    0    0  0.71940103202E+02 -0.34064519440E+02  0.17705128769E+02  0.12612954174E+03  0.96225878964E+02 0.  0.
         23    2    1    2    0    0 -0.71940103202E+02  0.34064519440E+02  0.17075535425E+03  0.20894268650E+03  0.90354221278E+02 0.  0.
          5    1    4    4  502    0 -0.15527270788E+02  0.28415818808E+02  0.14098964806E+03  0.14473674639E+03  0.47000000000E+01 0. -1.
         -5    1    4    4    0  502 -0.56412832414E+02  0.56487006322E+01  0.29765706190E+02  0.64205940105E+02  0.47000000000E+01 0.  1.
          5    1    3    3  503    0 -0.20068070541E+02 -0.12701997698E+02  0.20189899848E+02  0.31524439038E+02  0.47000000000E+01 0. -1.
         -5    1    3    3    0  503  0.92008173743E+02 -0.21362521743E+02 -0.24847710799E+01  0.94605102706E+02  0.47000000000E+01 0.  1.
<mgrwt>
<rscale>  0 0.12374886E+03</rscale>
<asrwt>0</asrwt>
<pdfrwt beam="1">  1        3 0.40271747E-01 0.12488070E+03</pdfrwt>
<pdfrwt beam="2">  1       -3 0.11277827E-01 0.12488070E+03</pdfrwt>
<totfact> 0.84290422E+02</totfact>
</mgrwt>
</event>
<event>
 8    1  0.3400573E-004  0.9498355E+02  0.7546771E-02  0.1292072E+00
          2   -1    0    0  501    0  0.00000000000E+00  0.00000000000E+00  0.30108249323E+03  0.30108249323E+03  0.00000000000E+00 0. -1.
         -2   -1    0    0    0  501 -0.00000000000E+00 -0.00000000000E+00 -0.36163965064E+02  0.36163965064E+02  0.00000000000E+00 0.  1.
         23    2    1    2    0    0  0.13792858446E+02 -0.25273054560E+02  0.20576327366E+03  0.22662832992E+03  0.90514666775E+02 0.  0.
         23    2    1    2    0    0 -0.13792858446E+02  0.25273054560E+02  0.59155254507E+02  0.11061812838E+03  0.88927250941E+02 0.  0.
          5    1    3    3  502    0 -0.34812974665E+02  0.12272128013E+01  0.11459184234E+03  0.11986171027E+03  0.47000000000E+01 0. -1.
         -5    1    4    4    0  503  0.20544797241E+02  0.11441592948E+02 -0.14518196599E+02  0.28033315454E+02  0.47000000000E+01 0.  1.
          5    1    4    4  503    0 -0.34337655687E+02  0.13831461612E+02  0.73673451106E+02  0.82584812927E+02  0.47000000000E+01 0. -1.
         -5    1    3    3    0  502  0.48605833111E+02 -0.26500267361E+02  0.91171431319E+02  0.10676661965E+03  0.47000000000E+01 0.  1.
<mgrwt>
<rscale>  0 0.94603403E+02</rscale>
<asrwt>0</asrwt>
<pdfrwt beam="1">  1        2 0.46320382E-01 0.94983552E+02</pdfrwt>
<pdfrwt beam="2">  1       -2 0.55636871E-02 0.94983552E+02</pdfrwt>
<totfact> 0.16416414E+04</totfact>
</mgrwt>
</event>
<event>
 8    1  0.3400573E-004  0.9336889E+02  0.7546771E-02  0.1297365E+00
         -1   -1    0    0    0  501 -0.00000000000E+00  0.00000000000E+00  0.14662052581E+03  0.14662052581E+03  0.00000000000E+00 0.  1.
          1   -1    0    0  501    0  0.00000000000E+00 -0.00000000000E+00 -0.57028113525E+02  0.57028113525E+02  0.00000000000E+00 0. -1.
         23    2    1    2    0    0  0.84865768642E+01 -0.28412308662E+01  0.39711524355E+02  0.10146307023E+03  0.92938984687E+02 0.  0.
         23    2    1    2    0    0 -0.84865768642E+01  0.28412308662E+01  0.49880887932E+02  0.10218556910E+03  0.88733832175E+02 0.  0.
          5    1    4    4  502    0  0.21322171024E+01 -0.36911394054E+02 -0.10742088667E+00  0.37270617114E+02  0.47000000000E+01 0. -1.
         -5    1    3    3    0  503 -0.88969903602E+01  0.40512971158E+02  0.29701433405E+01  0.41849361058E+02  0.47000000000E+01 0.  1.
          5    1    3    3  503    0  0.17383567224E+02 -0.43354202024E+02  0.36741381014E+02  0.59613709174E+02  0.47000000000E+01 0. -1.
         -5    1    4    4    0  502 -0.10618793967E+02  0.39752624920E+02  0.49988308819E+02  0.64914951990E+02  0.47000000000E+01 0.  1.
<mgrwt>
<rscale>  0 0.92304610E+02</rscale>
<asrwt>0</asrwt>
<pdfrwt beam="1">  1        1 0.87735560E-02 0.93368889E+02</pdfrwt>
<pdfrwt beam="2">  1       -1 0.22557004E-01 0.93368889E+02</pdfrwt>
<totfact> 0.11450967E+04</totfact>
</mgrwt>
</event>
<event>
 8    1  0.3400573E-004  0.9466693E+02  0.7546771E-02  0.1292212E+00
          2   -1    0    0  501    0  0.00000000000E+00  0.00000000000E+00  0.49081057607E+03  0.49081057607E+03  0.00000000000E+00 0. -1.
         -2   -1    0    0    0  501 -0.00000000000E+00 -0.00000000000E+00 -0.18984236146E+02  0.18984236146E+02  0.00000000000E+00 0.  1.
         23    2    1    2    0    0 -0.12029342490E+02  0.14164940452E+02  0.28952786667E+03  0.30461157697E+03  0.92824978458E+02 0.  0.
         23    2    1    2    0    0  0.12029342490E+02 -0.14164940452E+02  0.18229847325E+03  0.20518323525E+03  0.92315091167E+02 0.  0.
          5    1    4    4  502    0 -0.78766933970E+01 -0.30565510496E+02  0.17511656176E+03  0.17800054194E+03  0.47000000000E+01 0. -1.
         -5    1    3    3    0  503 -0.30544259370E+02  0.45855686751E+02  0.13883277116E+03  0.14944003526E+03  0.47000000000E+01 0.  1.
          5    1    3    3  503    0  0.18514916880E+02 -0.31690746300E+02  0.15069509550E+03  0.15517154171E+03  0.47000000000E+01 0. -1.
         -5    1    4    4    0  502  0.19906035887E+02  0.16400570044E+02  0.71819114974E+01  0.27182693304E+02  0.47000000000E+01 0.  1.
<mgrwt>
<rscale>  0 0.94541701E+02</rscale>
<asrwt>0</asrwt>
<pdfrwt beam="1">  1        2 0.75509310E-01 0.94666928E+02</pdfrwt>
<pdfrwt beam="2">  1       -2 0.29206521E-02 0.94666928E+02</pdfrwt>
<totfact> 0.25315553E+04</totfact>
</mgrwt>
</event>
<event>
 8    1  0.3400573E-004  0.9317975E+02  0.7546771E-02  0.1295447E+00
         -1   -1    0    0    0  501 -0.00000000000E+00  0.00000000000E+00  0.88184424692E+01  0.88184424692E+01  0.00000000000E+00 0.  1.
          1   -1    0    0  501    0  0.00000000000E+00 -0.00000000000E+00 -0.10912715162E+04  0.10912715162E+04  0.00000000000E+00 0. -1.
         23    2    1    2    0    0  0.92602930474E+01 -0.17237588921E+01 -0.71546543499E+03  0.72150762620E+03  0.92702435925E+02 0.  0.
         23    2    1    2    0    0 -0.92602930474E+01  0.17237588921E+01 -0.36698763875E+03  0.37858233248E+03  0.92498276188E+02 0.  0.
          5    1    3    3  502    0  0.47969934642E+02  0.14358891754E+02 -0.34447130854E+03  0.34812334712E+03  0.47000000000E+01 0. -1.
         -5    1    4    4    0  503 -0.41028344480E+02 -0.27319674783E+02 -0.20688475344E+03  0.21272771537E+03  0.47000000000E+01 0.  1.
          5    1    4    4  503    0  0.31768051432E+02  0.29043433675E+02 -0.16010288531E+03  0.16585461711E+03  0.47000000000E+01 0. -1.
         -5    1    3    3    0  502 -0.38709641594E+02 -0.16082650646E+02 -0.37099412645E+03  0.37338427908E+03  0.47000000000E+01 0.  1.
<mgrwt>
<rscale>  0 0.93128932E+02</rscale>
<asrwt>0</asrwt>
<pdfrwt beam="1">  1        1 0.16788797E+00 0.93179751E+02</pdfrwt>
<pdfrwt beam="2">  1       -1 0.13566831E-02 0.93179751E+02</pdfrwt>
<totfact> 0.15441346E+04</totfact>
</mgrwt>
</event>
<event>
 8    1  0.3400573E-004  0.1043614E+03  0.7546771E-02  0.1272163E+00
          3   -1    0    0  501    0  0.00000000000E+00  0.00000000000E+00  0.20907420689E+03  0.20907420689E+03  0.00000000000E+00 0. -1.
         -3   -1    0    0    0  501 -0.00000000000E+00 -0.00000000000E+00 -0.19346228537E+03  0.19346228537E+03  0.00000000000E+00 0.  1.
         23    2    1    2    0    0 -0.17874946291E+02 -0.45860200732E+02 -0.16469815818E+03  0.19497894857E+03  0.92025188723E+02 0.  0.
         23    2    1    2    0    0  0.17874946291E+02  0.45860200732E+02  0.18031007971E+03  0.20755754370E+03  0.90253738902E+02 0.  0.
          5    1    4    4  502    0  0.27413244441E+02  0.15986054496E+02  0.17173891463E+03  0.17470942936E+03  0.47000000000E+01 0. -1.
         -5    1    4    4    0  502 -0.95382981500E+01  0.29874146236E+02  0.85711650810E+01  0.32848114341E+02  0.47000000000E+01 0.  1.
          5    1    3    3  503    0 -0.51181069937E+02 -0.73746840422E+01 -0.98469698736E+02  0.11132052575E+03  0.47000000000E+01 0. -1.
         -5    1    3    3    0  503  0.33306123646E+02 -0.38485516690E+02 -0.66228459445E+02  0.83658422813E+02  0.47000000000E+01 0.  1.
<mgrwt>
<rscale>  0 0.10396956E+03</rscale>
<asrwt>0</asrwt>
<pdfrwt beam="1">  1        3 0.32165263E-01 0.10436143E+03</pdfrwt>
<pdfrwt beam="2">  1       -3 0.29763429E-01 0.10436143E+03</pdfrwt>
<totfact> 0.23137845E+02</totfact>
</mgrwt>
</event>
<event>
 8    1  0.3400573E-004  0.1007717E+03  0.7546771E-02  0.1279663E+00
         -1   -1    0    0    0  501 -0.00000000000E+00  0.00000000000E+00  0.64451693610E+02  0.64451693610E+02  0.00000000000E+00 0.  1.
          1   -1    0    0  501    0  0.00000000000E+00 -0.00000000000E+00 -0.25810453685E+03  0.25810453685E+03  0.00000000000E+00 0. -1.
         23    2    1    2    0    0  0.42176586544E+01  0.42277041042E+02 -0.19838607327E+03  0.22167346514E+03  0.89313796443E+02 0.  0.
         23    2    1    2    0    0 -0.42176586544E+01 -0.42277041042E+02  0.47332300328E+01  0.10088276532E+03  0.91377196434E+02 0.  0.
          5    1    4    4  502    0 -0.27460657370E+02  0.54179520661E+01 -0.26756720577E+02  0.39005820127E+02  0.47000000000E+01 0. -1.
         -5    1    3    3    0  503  0.34884233042E+02  0.53606817166E+02 -0.11015513526E+03  0.12746310990E+03  0.47000000000E+01 0.  1.
          5    1    3    3  503    0 -0.30666574388E+02 -0.11329776123E+02 -0.88230938014E+02  0.94210355240E+02  0.47000000000E+01 0. -1.
         -5    1    4    4    0  502  0.23242998716E+02 -0.47694993108E+02  0.31489950610E+02  0.61876945192E+02  0.47000000000E+01 0.  1.
<mgrwt>
<rscale>  0 0.10030158E+03</rscale>
<asrwt>0</asrwt>
<pdfrwt beam="1">  1        1 0.39708391E-01 0.10077167E+03</pdfrwt>
<pdfrwt beam="2">  1       -1 0.99156451E-02 0.10077167E+03</pdfrwt>
<totfact> 0.61198113E+03</totfact>
</mgrwt>
</event>
<event>
 8    1  0.3400573E-004  0.1079329E+03  0.7546771E-02  0.1264892E+00
          1   -1    0    0  501    0  0.00000000000E+00  0.00000000000E+00  0.14074143019E+03  0.14074143019E+03  0.00000000000E+00 0. -1.
         -1   -1    0    0    0  501 -0.00000000000E+00 -0.00000000000E+00 -0.82096000197E+02  0.82096000197E+02  0.00000000000E+00 0.  1.
         23    2    1    2    0    0 -0.22184830030E+02 -0.52251777564E+02  0.31864195445E+02  0.11253813015E+03  0.91799176706E+02 0.  0.
         23    2    1    2    0    0  0.22184830030E+02  0.52251777564E+02  0.26781234544E+02  0.11029930023E+03  0.90698876324E+02 0.  0.
          5    1    3    3  502    0  0.11314345405E+02 -0.29803354191E+02  0.56504903661E+02  0.65047278734E+02  0.47000000000E+01 0. -1.
         -5    1    4    4    0  503 -0.31238192121E+02  0.36829996576E+02  0.27797437091E+00  0.48522577884E+02  0.47000000000E+01 0.  1.
          5    1    4    4  503    0  0.53423022151E+02  0.15421780988E+02  0.26503260173E+02  0.61776722350E+02  0.47000000000E+01 0. -1.
         -5    1    3    3    0  502 -0.33499175435E+02 -0.22448423373E+02 -0.24640708215E+02  0.47490851415E+02  0.47000000000E+01 0.  1.
<mgrwt>
<rscale>  0 0.10769854E+03</rscale>
<asrwt>0</asrwt>
<pdfrwt beam="1">  1        1 0.21652528E-01 0.10793287E+03</pdfrwt>
<pdfrwt beam="2">  1       -1 0.12630154E-01 0.10793287E+03</pdfrwt>
<totfact> 0.90056344E+03</totfact>
</mgrwt>
</event>
<event>
 8    1  0.3400573E-004  0.1054571E+03  0.7546771E-02  0.1275935E+00
         -1   -1    0    0    0  501 -0.00000000000E+00  0.00000000000E+00  0.61441573442E+02  0.61441573442E+02  0.00000000000E+00 0.  1.
          1   -1    0    0  501    0  0.00000000000E+00 -0.00000000000E+00 -0.16137601537E+03  0.16137601537E+03  0.00000000000E+00 0. -1.
         23    2    1    2    0    0  0.45346042699E+00  0.27605557067E+02 -0.58047235055E+02  0.10934632281E+03  0.88458263643E+02 0.  0.
         23    2    1    2    0    0 -0.45346042699E+00 -0.27605557067E+02 -0.41887206878E+02  0.11347126601E+03  0.10177876843E+03 0.  0.
          5    1    4    4  502    0 -0.45824422109E+02 -0.16692580615E+02 -0.44921495390E+02  0.66472179574E+02  0.47000000000E+01 0. -1.
         -5    1    4    4    0  502  0.45370961682E+02 -0.10912976452E+02  0.30342885124E+01  0.46999086435E+02  0.47000000000E+01 0.  1.
          5    1    3    3  503    0 -0.14258633326E+02 -0.29449018362E+02 -0.15445444611E+02  0.36485683029E+02  0.47000000000E+01 0. -1.
         -5    1    3    3    0  503  0.14712093753E+02  0.57054575429E+02 -0.42601790443E+02  0.72860639779E+02  0.47000000000E+01 0.  1.
<mgrwt>
<rscale>  0 0.10210283E+03</rscale>
<asrwt>0</asrwt>
<pdfrwt beam="1">  1        1 0.24827079E-01 0.10545705E+03</pdfrwt>
<pdfrwt beam="2">  1       -1 0.94525499E-02 0.10545705E+03</pdfrwt>
<totfact> 0.11780396E+04</totfact>
</mgrwt>
</event>
<event>
 8    1  0.3400573E-004  0.1040595E+03  0.7546771E-02  0.1277246E+00
          3   -1    0    0  501    0  0.00000000000E+00  0.00000000000E+00  0.37995320141E+03  0.37995320141E+03  0.00000000000E+00 0. -1.
         -3   -1    0    0    0  501 -0.00000000000E+00 -0.00000000000E+00 -0.26053990108E+02  0.26053990108E+02  0.00000000000E+00 0.  1.
         23    2    1    2    0    0  0.35994186919E+02 -0.37517739489E+02  0.18702997018E+03  0.20935081024E+03  0.78386157785E+02 0.  0.
         23    2    1    2    0    0 -0.35994186919E+02  0.37517739489E+02  0.16686924112E+03  0.19665638128E+03  0.90140037707E+02 0.  0.
          5    1    4    4  502    0 -0.30036124401E+02  0.63622823637E+02  0.14682731057E+03  0.16288149552E+03  0.47000000000E+01 0. -1.
         -5    1    4    4    0  502 -0.59580625172E+01 -0.26105084148E+02  0.20041930551E+02  0.33774885752E+02  0.47000000000E+01 0.  1.
          5    1    3    3  503    0  0.18496109515E+02 -0.19546233335E+02  0.18110340715E+03  0.18315210997E+03  0.47000000000E+01 0. -1.
         -5    1    3    3    0  503  0.17498077404E+02 -0.17971506154E+02  0.59265630304E+01  0.26198700266E+02  0.47000000000E+01 0.  1.
<mgrwt>
<rscale>  0 0.10146455E+03</rscale>
<asrwt>0</asrwt>
<pdfrwt beam="1">  1        3 0.58454335E-01 0.10405954E+03</pdfrwt>
<pdfrwt beam="2">  1       -3 0.40083065E-02 0.10405954E+03</pdfrwt>
<totfact> 0.20545247E+03</totfact>
</mgrwt>
</event>
<event>
 8    1  0.3400573E-004  0.1146170E+03  0.7546771E-02  0.1253713E+00
          2   -1    0    0  501    0  0.00000000000E+00  0.00000000000E+00  0.53601457677E+03  0.53601457677E+03  0.00000000000E+00 0. -1.
         -2   -1    0    0    0  501 -0.00000000000E+00 -0.00000000000E+00 -0.36069177641E+02  0.36069177641E+02  0.00000000000E+00 0.  1.
         23    2    1    2    0    0  0.86882878399E+01 -0.68575151358E+02  0.85634526754E+02  0.14307456117E+03  0.91427677175E+02 0.  0.
         23    2    1    2    0    0 -0.86882878399E+01  0.68575151358E+02  0.41431087238E+03  0.42900919324E+03  0.87277438000E+02 0.  0.
          5    1    3    3  502    0  0.23571794832E+02 -0.37551742562E+02  0.96817336072E+02  0.10659010013E+03  0.47000000000E+01 0. -1.
         -5    1    4    4    0  503  0.88269096766E+01  0.18241113554E+02  0.13852377525E+02  0.24992617334E+02  0.47000000000E+01 0.  1.
          5    1    4    4  503    0 -0.17515197516E+02  0.50334037803E+02  0.40045849485E+03  0.40401657590E+03  0.47000000000E+01 0. -1.
         -5    1    3    3    0  502 -0.14883506992E+02 -0.31023408796E+02 -0.11182809318E+02  0.36484461048E+02  0.47000000000E+01 0.  1.
<mgrwt>
<rscale>  0 0.11378744E+03</rscale>
<asrwt>0</asrwt>
<pdfrwt beam="1">  1        2 0.82463775E-01 0.11461701E+03</pdfrwt>
<pdfrwt beam="2">  1       -2 0.55491047E-02 0.11461701E+03</pdfrwt>
<totfact> 0.90601144E+03</totfact>
</mgrwt>
</event>
<event>
 8    1  0.3400573E-004  0.1116384E+03  0.7546771E-02  0.1261517E+00
         -3   -1    0    0    0  501 -0.00000000000E+00  0.00000000000E+00  0.88697141092E+03  0.88697141092E+03  0.00000000000E+00 0.  1.
          3   -1    0    0  501    0  0.00000000000E+00 -0.00000000000E+00 -0.21988461562E+02  0.21988461562E+02  0.00000000000E+00 0. -1.
         23    2    1    2    0    0 -0.38317298363E+02  0.38355872614E+02  0.15231883784E+03  0.18884958411E+03  0.97589695867E+02 0.  0.
         23    2    1    2    0    0  0.38317298363E+02 -0.38355872614E+02  0.71266411152E+03  0.72011028838E+03  0.87916456124E+02 0.  0.
          5    1    3    3  502    0 -0.29649395995E+02  0.69286641476E+02  0.12669804701E+03  0.14749308623E+03  0.47000000000E+01 0. -1.
         -5    1    4    4    0  503  0.54339308614E+02  0.18849796819E+00  0.52375930288E+03  0.52659158116E+03  0.47000000000E+01 0.  1.
          5    1    4    4  503    0 -0.16022010251E+02 -0.38544370582E+02  0.18890480864E+03  0.19351870722E+03  0.47000000000E+01 0. -1.
         -5    1    3    3    0  502 -0.86679023674E+01 -0.30930768862E+02  0.25620790826E+02  0.41356497874E+02  0.47000000000E+01 0.  1.
<mgrwt>
<rscale>  0 0.10948993E+03</rscale>
<asrwt>0</asrwt>
<pdfrwt beam="1">  1        3 0.33828409E-02 0.11163842E+03</pdfrwt>
<pdfrwt beam="2">  1       -3 0.13645711E+00 0.11163842E+03</pdfrwt>
<totfact> 0.41429417E+02</totfact>
</mgrwt>
</event>
<event>
 8    1  0.3400573E-004  0.1098592E+03  0.7546771E-02  0.1262190E+00
          1   -1    0    0  501    0  0.00000000000E+00  0.00000000000E+00  0.94939879467E+03  0.94939879467E+03  0.00000000000E+00 0. -1.
         -1   -1    0    0    0  501 -0.00000000000E+00 -0.00000000000E+00 -0.22024522504E+02  0.22024522504E+02  0.00000000000E+00 0.  1.
         23    2    1    2    0    0  0.56143966611E+02  0.10139530685E+02  0.78855422499E+03  0.79617009478E+03  0.93883433038E+02 0.  0.
         23    2    1    2    0    0 -0.56143966611E+02 -0.10139530685E+02  0.13882004718E+03  0.17525322240E+03  0.90486083974E+02 0.  0.
          5    1    4    4  502    0 -0.17434567277E+02  0.37633631922E+02  0.78944732051E+02  0.89300700481E+02  0.47000000000E+01 0. -1.
         -5    1    3    3    0  503  0.20980944585E+02 -0.37741554191E+02  0.20321635159E+03  0.20780664210E+03  0.47000000000E+01 0.  1.
          5    1    3    3  503    0  0.35163022027E+02  0.47881084876E+02  0.58533787341E+03  0.58836345268E+03  0.47000000000E+01 0. -1.
         -5    1    4    4    0  502 -0.38709399335E+02 -0.47773162607E+02  0.59875315126E+02  0.85952521916E+02  0.47000000000E+01 0.  1.
<mgrwt>
<rscale>  0 0.10912983E+03</rscale>
<asrwt>0</asrwt>
<pdfrwt beam="1">  1        1 0.14606132E+00 0.10985925E+03</pdfrwt>
<pdfrwt beam="2">  1       -1 0.33883888E-02 0.10985925E+03</pdfrwt>
<totfact> 0.53086505E+03</totfact>
</mgrwt>
</event>
<event>
 8    1  0.3400573E-004  0.1617183E+03  0.7546771E-02  0.1188023E+00
         -1   -1    0    0    0  501 -0.00000000000E+00  0.00000000000E+00  0.54972172271E+02  0.54972172271E+02  0.00000000000E+00 0.  1.
          1   -1    0    0  501    0  0.00000000000E+00 -0.00000000000E+00 -0.48460057830E+03  0.48460057830E+03  0.00000000000E+00 0. -1.
         23    2    1    2    0    0  0.12245743860E+03  0.37647082195E+02 -0.27489424059E+03  0.31893519206E+03  0.98689848313E+02 0.  0.
         23    2    1    2    0    0 -0.12245743860E+03 -0.37647082195E+02 -0.15473416543E+03  0.22063755851E+03  0.91242222709E+02 0.  0.
          5    1    3    3  502    0  0.10835096879E+03  0.67935154620E+02 -0.21663177247E+03  0.25160789438E+03  0.47000000000E+01 0. -1.
         -5    1    4    4    0  503 -0.83591744424E+02  0.52299637768E+01 -0.13570171780E+03  0.15953676213E+03  0.47000000000E+01 0.  1.
          5    1    4    4  503    0 -0.38865694173E+02 -0.42877045972E+02 -0.19032447635E+02  0.61100796376E+02  0.47000000000E+01 0. -1.
         -5    1    3    3    0  502  0.14106469809E+02 -0.30288072425E+02 -0.58262468122E+02  0.67327297684E+02  0.47000000000E+01 0.  1.
<mgrwt>
<rscale>  0 0.16059816E+03</rscale>
<asrwt>0</asrwt>
<pdfrwt beam="1">  1        1 0.74553940E-01 0.16171831E+03</pdfrwt>
<pdfrwt beam="2">  1       -1 0.84572567E-02 0.16171831E+03</pdfrwt>
<totfact> 0.36369054E+03</totfact>
</mgrwt>
</event>
<event>
 8    1  0.3400573E-004  0.1329130E+03  0.7546771E-02  0.1231671E+00
         -1   -1    0    0    0  501 -0.00000000000E+00  0.00000000000E+00  0.37506991263E+03  0.37506991263E+03  0.00000000000E+00 0.  1.
          1   -1    0    0  501    0  0.00000000000E+00 -0.00000000000E+00 -0.41086232335E+02  0.41086232335E+02  0.00000000000E+00 0. -1.
         23    2    1    2    0    0  0.27364624327E+02 -0.64354854860E+02  0.21763977713E+03  0.25501556803E+03  0.11302874563E+03 0.  0.
         23    2    1    2    0    0 -0.27364624327E+02  0.64354854860E+02  0.11634390317E+03  0.16114057694E+03  0.86833240891E+02 0.  0.
          5    1    3    3  502    0 -0.20881918717E+02 -0.76710290485E+02  0.15978529447E+03  0.17853277997E+03  0.47000000000E+01 0. -1.
         -5    1    4    4    0  503 -0.70628257721E+01  0.72951221678E+02  0.11750479819E+03  0.13856850959E+03  0.47000000000E+01 0.  1.
          5    1    4    4  503    0 -0.20301798555E+02 -0.85963668174E+01 -0.11608950277E+01  0.22572067346E+02  0.47000000000E+01 0. -1.
         -5    1    3    3    0  502  0.48246543044E+02  0.12355435625E+02  0.57854482665E+02  0.76482788061E+02  0.47000000000E+01 0.  1.
<mgrwt>
<rscale>  0 0.12719972E+03</rscale>
<asrwt>0</asrwt>
<pdfrwt beam="1">  1        1 0.63209591E-02 0.13291301E+03</pdfrwt>
<pdfrwt beam="2">  1       -1 0.57703061E-01 0.13291301E+03</pdfrwt>
<totfact> 0.36135793E+03</totfact>
</mgrwt>
</event>
<event>
 8    1  0.3400573E-004  0.9556023E+02  0.7546771E-02  0.1290154E+00
          1   -1    0    0  501    0  0.00000000000E+00  0.00000000000E+00  0.44915692926E+03  0.44915692926E+03  0.00000000000E+00 0. -1.
         -1   -1    0    0    0  501 -0.00000000000E+00 -0.00000000000E+00 -0.59405059611E+02  0.59405059611E+02  0.00000000000E+00 0.  1.
         23    2    1    2    0    0  0.22332782836E+02  0.21163050555E+02 -0.11440526165E+02  0.96242631009E+02  0.90471710975E+02 0.  0.
         23    2    1    2    0    0 -0.22332782836E+02 -0.21163050555E+02  0.40119239581E+03  0.41231935786E+03  0.90029364712E+02 0.  0.
          5    1    4    4  502    0 -0.35286397722E+02 -0.51046576259E+02  0.26318840807E+03  0.27044613318E+03  0.47000000000E+01 0. -1.
         -5    1    3    3    0  503  0.41492972112E+02  0.43899005316E+02 -0.21826499635E+02  0.64399343853E+02  0.47000000000E+01 0.  1.
          5    1    3    3  503    0 -0.19160189277E+02 -0.22735954760E+02  0.10385973470E+02  0.31843287156E+02  0.47000000000E+01 0. -1.
         -5    1    4    4    0  502  0.12953614886E+02  0.29883525704E+02  0.13800398775E+03  0.14187322468E+03  0.47000000000E+01 0.  1.
<mgrwt>
<rscale>  0 0.95455391E+02</rscale>
<asrwt>0</asrwt>
<pdfrwt beam="1">  1        1 0.69101064E-01 0.95560234E+02</pdfrwt>
<pdfrwt beam="2">  1       -1 0.91392403E-02 0.95560234E+02</pdfrwt>
<totfact> 0.34802380E+03</totfact>
</mgrwt>
</event>
<event>
 8    1  0.3400573E-004  0.1184293E+03  0.7546771E-02  0.1247538E+00
         -1   -1    0    0    0  501 -0.00000000000E+00  0.00000000000E+00  0.23035886757E+03  0.23035886757E+03  0.00000000000E+00 0.  1.
          1   -1    0    0  501    0  0.00000000000E+00 -0.00000000000E+00 -0.61156461509E+02  0.61156461509E+02  0.00000000000E+00 0. -1.
         23    2    1    2    0    0 -0.34650488741E+02  0.60626483946E+02  0.56952316497E+02  0.13141181452E+03  0.95651825468E+02 0.  0.
         23    2    1    2    0    0  0.34650488741E+02 -0.60626483946E+02  0.11225008956E+03  0.16010351456E+03  0.90315147352E+02 0.  0.
          5    1    3    3  502    0 -0.35259263318E+02 -0.17103676826E+02  0.10931010103E+02  0.40955199823E+02  0.47000000000E+01 0. -1.
         -5    1    4    4    0  503  0.30028430469E+02 -0.80700777380E+02  0.63872423091E+02  0.10731308652E+03  0.47000000000E+01 0.  1.
          5    1    4    4  503    0  0.46220582721E+01  0.20074293434E+02  0.48377666471E+02  0.52790428041E+02  0.47000000000E+01 0. -1.
         -5    1    3    3    0  502  0.60877457662E+00  0.77730160772E+02  0.46021306395E+02  0.90456614697E+02  0.47000000000E+01 0.  1.
<mgrwt>
<rscale>  0 0.11734785E+03</rscale>
<asrwt>0</asrwt>
<pdfrwt beam="1">  1        1 0.94086865E-02 0.11842930E+03</pdfrwt>
<pdfrwt beam="2">  1       -1 0.35439825E-01 0.11842930E+03</pdfrwt>
<totfact> 0.50371575E+03</totfact>
</mgrwt>
</event>
<event>
 8    1  0.3400573E-004  0.1042525E+03  0.7546771E-02  0.1272339E+00
         -2   -1    0    0    0  501 -0.00000000000E+00  0.00000000000E+00  0.26311572329E+02  0.26311572329E+02  0.00000000000E+00 0.  1.
          2   -1    0    0  501    0  0.00000000000E+00 -0.00000000000E+00 -0.43421044246E+03  0.43421044246E+03  0.00000000000E+00 0. -1.
         23    2    1    2    0    0  0.39244721572E+02 -0.28964766981E+02 -0.14793581594E+03  0.18097955555E+03  0.92138417570E+02 0.  0.
         23    2    1    2    0    0 -0.39244721572E+02  0.28964766981E+02 -0.25996305419E+03  0.27954245924E+03  0.90465966393E+02 0.  0.
          5    1    3    3  502    0  0.23826463450E+02  0.82061854882E+01 -0.13649296291E+03  0.13887930286E+03  0.47000000000E+01 0. -1.
         -5    1    3    3    0  502  0.15418258122E+02 -0.37170952469E+02 -0.11442853037E+02  0.42100252691E+02  0.47000000000E+01 0.  1.
          5    1    4    4  503    0 -0.46425151001E+02 -0.16788888079E+02 -0.18296167987E+03  0.18956325517E+03  0.47000000000E+01 0. -1.
         -5    1    4    4    0  503  0.71804294288E+01  0.45753655060E+02 -0.77001374319E+02  0.89979204071E+02  0.47000000000E+01 0.  1.
<mgrwt>
<rscale>  0 0.10388179E+03</rscale>
<asrwt>0</asrwt>
<pdfrwt beam="1">  1        2 0.66801604E-01 0.10425255E+03</pdfrwt>
<pdfrwt beam="2">  1       -2 0.40479344E-02 0.10425255E+03</pdfrwt>
<totfact> 0.18068856E+04</totfact>
</mgrwt>
</event>
<event>
 8    1  0.3400573E-004  0.1792062E+03  0.7546771E-02  0.1168934E+00
          1   -1    0    0  501    0  0.00000000000E+00  0.00000000000E+00  0.21395685266E+03  0.21395685266E+03  0.00000000000E+00 0. -1.
         -1   -1    0    0    0  501 -0.00000000000E+00 -0.00000000000E+00 -0.15717602094E+03  0.15717602094E+03  0.00000000000E+00 0.  1.
         23    2    1    2    0    0 -0.65080659202E+02  0.13811441368E+03 -0.14385703951E+02  0.17831292123E+03  0.90980579970E+02 0.  0.
         23    2    1    2    0    0  0.65080659202E+02 -0.13811441368E+03  0.71166535674E+02  0.19281995237E+03  0.93828432592E+02 0.  0.
          5    1    3    3  502    0 -0.63203799027E+02  0.36363472865E+02  0.94701982763E+01  0.73680370695E+02  0.47000000000E+01 0. -1.
         -5    1    3    3    0  502 -0.18768601745E+01  0.10175094082E+03 -0.23855902228E+02  0.10463255054E+03  0.47000000000E+01 0.  1.
          5    1    4    4  503    0  0.55290624897E+02 -0.10461300471E+03  0.93704100382E+02  0.15100821959E+03  0.47000000000E+01 0. -1.
         -5    1    4    4    0  503  0.97900343043E+01 -0.33501408974E+02 -0.22537564708E+02  0.41811732777E+02  0.47000000000E+01 0.  1.
<mgrwt>
<rscale>  0 0.17883642E+03</rscale>
<asrwt>0</asrwt>
<pdfrwt beam="1">  1        1 0.32916439E-01 0.17920619E+03</pdfrwt>
<pdfrwt beam="2">  1       -1 0.24180926E-01 0.17920619E+03</pdfrwt>
<totfact> 0.19539491E+03</totfact>
</mgrwt>
</event>
<event>
 8    1  0.3400573E-004  0.9507715E+02  0.7546771E-02  0.1292069E+00
         -1   -1    0    0    0  501 -0.00000000000E+00  0.00000000000E+00  0.14507071980E+03  0.14507071980E+03  0.00000000000E+00 0.  1.
          1   -1    0    0  501    0  0.00000000000E+00 -0.00000000000E+00 -0.61449710634E+02  0.61449710634E+02  0.00000000000E+00 0. -1.
         23    2    1    2    0    0 -0.19979755216E+02 -0.12292162632E+02  0.34307030542E+02  0.10107738380E+03  0.92137816827E+02 0.  0.
         23    2    1    2    0    0  0.19979755216E+02  0.12292162632E+02  0.49313978628E+02  0.10544304664E+03  0.90200220158E+02 0.  0.
          5    1    4    4  502    0  0.91772763475E+01  0.49933730890E+02  0.14957351660E+02  0.53135790672E+02  0.47000000000E+01 0. -1.
         -5    1    3    3    0  503  0.27235522255E+02 -0.28552192524E+02 -0.98175311756E+00  0.39749908297E+02  0.47000000000E+01 0.  1.
          5    1    3    3  503    0 -0.47215277472E+02  0.16260029892E+02  0.35288783660E+02  0.61327475498E+02  0.47000000000E+01 0. -1.
         -5    1    4    4    0  502  0.10802478869E+02 -0.37641568257E+02  0.34356626968E+02  0.52307255971E+02  0.47000000000E+01 0.  1.
<mgrwt>
<rscale>  0 0.94604524E+02</rscale>
<asrwt>0</asrwt>
<pdfrwt beam="1">  1        1 0.94538017E-02 0.95077154E+02</pdfrwt>
<pdfrwt beam="2">  1       -1 0.22318572E-01 0.95077154E+02</pdfrwt>
<totfact> 0.10575153E+04</totfact>
</mgrwt>
</event>
<event>
 8    1  0.3400573E-004  0.1052331E+03  0.7546771E-02  0.1269676E+00
         -1   -1    0    0    0  501 -0.00000000000E+00  0.00000000000E+00  0.54824202095E+02  0.54824202095E+02  0.00000000000E+00 0.  1.
          1   -1    0    0  501    0  0.00000000000E+00 -0.00000000000E+00 -0.23893073497E+03  0.23893073497E+03  0.00000000000E+00 0. -1.
         23    2    1    2    0    0 -0.15770374293E+02 -0.50183245335E+02 -0.34244942551E+02  0.11063613719E+03  0.91107496636E+02 0.  0.
         23    2    1    2    0    0  0.15770374293E+02  0.50183245335E+02 -0.14986159033E+03  0.18311879988E+03  0.91142392977E+02 0.  0.
          5    1    4    4  502    0  0.36974403918E+02  0.17874689357E+02 -0.13543325548E+03  0.14160108670E+03  0.47000000000E+01 0. -1.
         -5    1    4    4    0  502 -0.21204029624E+02  0.32308555978E+02 -0.14428334851E+02  0.41517713187E+02  0.47000000000E+01 0.  1.
          5    1    3    3  503    0  0.71366180510E+01  0.23164387900E+02 -0.21221980870E+02  0.32557374833E+02  0.47000000000E+01 0. -1.
         -5    1    3    3    0  503 -0.22906992344E+02 -0.73347633235E+02 -0.13022961681E+02  0.78078762352E+02  0.47000000000E+01 0.  1.
<mgrwt>
<rscale>  0 0.10522551E+03</rscale>
<asrwt>0</asrwt>
<pdfrwt beam="1">  1        1 0.36758574E-01 0.10523307E+03</pdfrwt>
<pdfrwt beam="2">  1       -1 0.84344927E-02 0.10523307E+03</pdfrwt>
<totfact> 0.86141115E+03</totfact>
</mgrwt>
</event>
<event>
 8    1  0.3400573E-004  0.1189511E+03  0.7546771E-02  0.1245061E+00
         -1   -1    0    0    0  501 -0.00000000000E+00  0.00000000000E+00  0.21853982289E+02  0.21853982289E+02  0.00000000000E+00 0.  1.
          1   -1    0    0  501    0  0.00000000000E+00 -0.00000000000E+00 -0.70975555028E+03  0.70975555028E+03  0.00000000000E+00 0. -1.
         23    2    1    2    0    0  0.30443754920E+02 -0.69466101145E+02 -0.45553792712E+03  0.47081225206E+03  0.91635212815E+02 0.  0.
         23    2    1    2    0    0 -0.30443754920E+02  0.69466101145E+02 -0.23236364087E+03  0.26079728050E+03  0.90939532094E+02 0.  0.
          5    1    3    3  502    0  0.50652446767E+02 -0.36011157949E+02 -0.38518018424E+03  0.39019013082E+03  0.47000000000E+01 0. -1.
         -5    1    4    4    0  503  0.29955930261E+02  0.42013813359E+02 -0.96703010826E+02  0.10970907243E+03  0.47000000000E+01 0.  1.
          5    1    4    4  503    0 -0.60399685180E+02  0.27452287786E+02 -0.13566063005E+03  0.15108820807E+03  0.47000000000E+01 0. -1.
         -5    1    3    3    0  502 -0.20208691847E+02 -0.33454943196E+02 -0.70357742880E+02  0.80622121242E+02  0.47000000000E+01 0.  1.
<mgrwt>
<rscale>  0 0.11881714E+03</rscale>
<asrwt>0</asrwt>
<pdfrwt beam="1">  1        1 0.10919316E+00 0.11895114E+03</pdfrwt>
<pdfrwt beam="2">  1       -1 0.33621510E-02 0.11895114E+03</pdfrwt>
<totfact> 0.83856876E+03</totfact>
</mgrwt>
</event>
<event>
 8    1  0.3400573E-004  0.1398545E+03  0.7546771E-02  0.1216453E+00
          1   -1    0    0  501    0  0.00000000000E+00  0.00000000000E+00  0.17364534378E+02  0.17364534378E+02  0.00000000000E+00 0. -1.
         -1   -1    0    0    0  501 -0.00000000000E+00 -0.00000000000E+00 -0.10600823598E+04  0.10600823598E+04  0.00000000000E+00 0.  1.
         23    2    1    2    0    0  0.10215200350E+03  0.16732518849E+02 -0.51565642689E+03  0.53214605097E+03  0.81011480468E+02 0.  0.
         23    2    1    2    0    0 -0.10215200350E+03 -0.16732518849E+02 -0.52706139856E+03  0.54530084324E+03  0.94044046988E+02 0.  0.
          5    1    3    3  502    0  0.67643502262E+02  0.35893515436E+02 -0.20372916740E+03  0.21769623676E+03  0.47000000000E+01 0. -1.
         -5    1    4    4    0  503 -0.34176315841E+02  0.14634502966E+02 -0.50569855712E+02  0.62941159413E+02  0.47000000000E+01 0. -1.
          5    1    4    4  503    0 -0.67975687654E+02 -0.31367021815E+02 -0.47649154285E+03  0.48235968382E+03  0.47000000000E+01 0.  1.
         -5    1    3    3    0  502  0.34508501233E+02 -0.19160996587E+02 -0.31192725949E+03  0.31444981421E+03  0.47000000000E+01 0.  1.
<mgrwt>
<rscale>  0 0.13770309E+03</rscale>
<asrwt>0</asrwt>
<pdfrwt beam="1">  1        1 0.26714667E-02 0.13985454E+03</pdfrwt>
<pdfrwt beam="2">  1       -1 0.16308960E+00 0.13985454E+03</pdfrwt>
<totfact> 0.11875333E+03</totfact>
</mgrwt>
</event>
<event>
 7    1  0.3400573E-004  0.3987861E+03  0.7546771E-02  0.1044201E+00
         -3   -1    0    0    0  501 -0.00000000000E+00  0.00000000000E+00  0.39566676208E+03  0.39566676208E+03  0.00000000000E+00 0.  1.
          3   -1    0    0  501    0  0.00000000000E+00 -0.00000000000E+00 -0.10048249857E+03  0.10048249857E+03  0.00000000000E+00 0. -1.
         23    2    1    2    0    0 -0.79920356689E+02 -0.68674012572E+02  0.99065390515E+02  0.17538608271E+03  0.99211607150E+02 0.  0.
          5    1    1    2  502    0 -0.33111262356E+02 -0.27150868523E+02 -0.28482409998E+02  0.51641679249E+02  0.47000000000E+01 0. -1.
         -5    1    3    3    0  503 -0.44849070463E+02 -0.75979334928E+02  0.10662277498E+03  0.13847311869E+03  0.47000000000E+01 0.  1.
          5    1    3    3  503    0 -0.35071286226E+02  0.73053223568E+01 -0.75573844604E+01  0.36912964012E+02  0.47000000000E+01 0. -1.
         -5    1    1    2    0  502  0.11303161904E+03  0.95824881095E+02  0.22460128299E+03  0.26912149870E+03  0.47000000000E+01 0.  1.
<mgrwt>
<rscale>  0 0.39878608E+03</rscale>
<asrwt>0</asrwt>
<pdfrwt beam="1">  1        3 0.15458846E-01 0.39878608E+03</pdfrwt>
<pdfrwt beam="2">  1       -3 0.60871809E-01 0.39878608E+03</pdfrwt>
<totfact> 0.24499357E+02</totfact>
</mgrwt>
</event>
<event>
 8    1  0.3400573E-004  0.1083918E+03  0.7546771E-02  0.1266813E+00
          3   -1    0    0  501    0  0.00000000000E+00  0.00000000000E+00  0.44336354926E+03  0.44336354926E+03  0.00000000000E+00 0. -1.
         -3   -1    0    0    0  501 -0.00000000000E+00 -0.00000000000E+00 -0.26217078284E+02  0.26217078284E+02  0.00000000000E+00 0.  1.
         23    2    1    2    0    0  0.17909801444E+02  0.43403733136E+02  0.14981204032E+03  0.18110797048E+03  0.90287344116E+02 0.  0.
         23    2    1    2    0    0 -0.17909801444E+02 -0.43403733136E+02  0.26733443066E+03  0.28847265707E+03  0.97694068517E+02 0.  0.
          5    1    3    3  502    0  0.52621127977E+02  0.10822816118E+02  0.79739674833E+02  0.96263296228E+02  0.47000000000E+01 0. -1.
         -5    1    3    3    0  502 -0.34711326533E+02  0.32580917017E+02  0.70072365489E+02  0.84844674250E+02  0.47000000000E+01 0.  1.
          5    1    4    4  503    0  0.27548290901E+02 -0.50283283073E+02  0.18857981658E+03  0.19715921005E+03  0.47000000000E+01 0. -1.
         -5    1    4    4    0  503 -0.45458092345E+02  0.68795499378E+01  0.78754614079E+02  0.91313447015E+02  0.47000000000E+01 0.  1.
<mgrwt>
<rscale>  0 0.10669611E+03</rscale>
<asrwt>0</asrwt>
<pdfrwt beam="1">  1        3 0.68209771E-01 0.10839177E+03</pdfrwt>
<pdfrwt beam="2">  1       -3 0.40333970E-02 0.10839177E+03</pdfrwt>
<totfact> 0.14909304E+03</totfact>
</mgrwt>
</event>
<event>
 8    1  0.3400573E-004  0.1076322E+03  0.7546771E-02  0.1267230E+00
          2   -1    0    0  501    0  0.00000000000E+00  0.00000000000E+00  0.90680226003E+03  0.90680226003E+03  0.00000000000E+00 0. -1.
         -2   -1    0    0    0  501 -0.00000000000E+00 -0.00000000000E+00 -0.12389212732E+02  0.12389212732E+02  0.00000000000E+00 0.  1.
         23    2    1    2    0    0  0.74266204163E+00 -0.53268002526E+02  0.48764381642E+03  0.49842325761E+03  0.88267889938E+02 0.  0.
         23    2    1    2    0    0 -0.74266204163E+00  0.53268002526E+02  0.40676923088E+03  0.42076821515E+03  0.93523537424E+02 0.  0.
          5    1    4    4  502    0 -0.31212783992E+02 -0.65758678284E+01  0.21764281125E+03  0.22001809746E+03  0.47000000000E+01 0. -1.
         -5    1    3    3    0  503  0.20418524695E+02  0.17995553691E+02  0.98907918425E+02  0.10269188104E+03  0.47000000000E+01 0.  1.
          5    1    3    3  503    0 -0.19675862654E+02 -0.71263556218E+02  0.38873589799E+03  0.39573137657E+03  0.47000000000E+01 0. -1.
         -5    1    4    4    0  502  0.30470121950E+02  0.59843870355E+02  0.18912641963E+03  0.20075011769E+03  0.47000000000E+01 0.  1.
<mgrwt>
<rscale>  0 0.10648033E+03</rscale>
<asrwt>0</asrwt>
<pdfrwt beam="1">  1        2 0.13950799E+00 0.10763217E+03</pdfrwt>
<pdfrwt beam="2">  1       -2 0.19060334E-02 0.10763217E+03</pdfrwt>
<totfact> 0.23230948E+04</totfact>
</mgrwt>
</event>
<event>
 8    1  0.3400573E-004  0.9397274E+02  0.7546771E-02  0.1294588E+00
         -1   -1    0    0    0  501 -0.00000000000E+00  0.00000000000E+00  0.14419068761E+03  0.14419068761E+03  0.00000000000E+00 0.  1.
          1   -1    0    0  501    0  0.00000000000E+00 -0.00000000000E+00 -0.41637577738E+03  0.41637577738E+03  0.00000000000E+00 0. -1.
         23    2    1    2    0    0  0.49633554813E+01 -0.11289235342E+02  0.12300059554E+03  0.15479025020E+03  0.93160041442E+02 0.  0.
         23    2    1    2    0    0 -0.49633554813E+01  0.11289235342E+02 -0.39518568531E+03  0.40577621479E+03  0.91271731055E+02 0.  0.
          5    1    4    4  502    0  0.31341657035E+02 -0.18995810768E+02 -0.25718948949E+03  0.25983006715E+03  0.47000000000E+01 0. -1.
         -5    1    4    4    0  502 -0.36305012517E+02  0.30285046110E+02 -0.13799619582E+03  0.14594614764E+03  0.47000000000E+01 0.  1.
          5    1    3    3  503    0 -0.29177968169E+02  0.23393447487E+02  0.84609063176E+02  0.92625000855E+02  0.47000000000E+01 0. -1.
         -5    1    3    3    0  503  0.34141323651E+02 -0.34682682829E+02  0.38391532361E+02  0.62165249343E+02  0.47000000000E+01 0.  1.
<mgrwt>
<rscale>  0 0.93501288E+02</rscale>
<asrwt>0</asrwt>
<pdfrwt beam="1">  1        1 0.64057812E-01 0.93972736E+02</pdfrwt>
<pdfrwt beam="2">  1       -1 0.22183183E-01 0.93972736E+02</pdfrwt>
<totfact> 0.96854156E+02</totfact>
</mgrwt>
</event>
<event>
 8    1  0.3400573E-004  0.1389068E+03  0.7546771E-02  0.1215582E+00
         -1   -1    0    0    0  501 -0.00000000000E+00  0.00000000000E+00  0.92114962006E+03  0.92114962006E+03  0.00000000000E+00 0.  1.
          1   -1    0    0  501    0  0.00000000000E+00 -0.00000000000E+00 -0.23787930147E+02  0.23787930147E+02  0.00000000000E+00 0. -1.
         23    2    1    2    0    0  0.86995666470E+02  0.58166250329E+02  0.62461753300E+03  0.63987667123E+03  0.91342942753E+02 0.  0.
         23    2    1    2    0    0 -0.86995666470E+02 -0.58166250329E+02  0.27274415691E+03  0.30506087897E+03  0.87870393707E+02 0.  0.
          5    1    3    3  502    0  0.26779175674E+02 -0.96785031772E+01  0.46947318571E+02  0.55108423989E+02  0.47000000000E+01 0. -1.
         -5    1    4    4    0  503  0.12021825523E+02 -0.21571668781E+02  0.95086876342E+02  0.98353775908E+02  0.47000000000E+01 0.  1.
          5    1    4    4  503    0 -0.99017491993E+02 -0.36594581548E+02  0.17765728057E+03  0.20670710307E+03  0.47000000000E+01 0. -1.
         -5    1    3    3    0  502  0.60216490796E+02  0.67844753506E+02  0.57767021443E+03  0.58476824725E+03  0.47000000000E+01 0.  1.
<mgrwt>
<rscale>  0 0.13833869E+03</rscale>
<asrwt>0</asrwt>
<pdfrwt beam="1">  1        1 0.36596823E-02 0.13890677E+03</pdfrwt>
<pdfrwt beam="2">  1       -1 0.14171530E+00 0.13890677E+03</pdfrwt>
<totfact> 0.11075814E+03</totfact>
</mgrwt>
</event>
<event>
 8    1  0.3400573E-004  0.9806043E+02  0.7546771E-02  0.1284451E+00
          4   -1    0    0  501    0  0.00000000000E+00  0.00000000000E+00  0.35364332972E+03  0.35364332972E+03  0.00000000000E+00 0. -1.
         -4   -1    0    0    0  501 -0.00000000000E+00 -0.00000000000E+00 -0.53935724339E+02  0.53935724339E+02  0.00000000000E+00 0.  1.
         23    2    1    2    0    0  0.25629938242E+02  0.25317868397E+02  0.29337293183E+03  0.30931422838E+03  0.91157701568E+02 0.  0.
         23    2    1    2    0    0 -0.25629938242E+02 -0.25317868397E+02  0.63346735476E+01  0.98264825673E+02  0.91202849084E+02 0.  0.
          5    1    3    3  502    0  0.36824904649E+02 -0.25909030659E+02  0.14267970652E+03  0.14968947900E+03  0.47000000000E+01 0. -1.
         -5    1    3    3    0  502 -0.11194966407E+02  0.51226899056E+02  0.15069322531E+03  0.15962474938E+03  0.47000000000E+01 0.  1.
          5    1    4    4  503    0  0.11956023434E+02 -0.33413153671E+02  0.35009796169E+02  0.50071560416E+02  0.47000000000E+01 0. -1.
         -5    1    4    4    0  503 -0.37585961676E+02  0.80952852741E+01 -0.28675122622E+02  0.48193265257E+02  0.47000000000E+01 0.  1.
<mgrwt>
<rscale>  0 0.98049931E+02</rscale>
<asrwt>0</asrwt>
<pdfrwt beam="1">  1        4 0.54406665E-01 0.98060430E+02</pdfrwt>
<pdfrwt beam="2">  1       -4 0.82978039E-02 0.98060430E+02</pdfrwt>
<totfact> 0.52410080E+02</totfact>
</mgrwt>
</event>
<event>
 8    1  0.3400573E-004  0.9848813E+02  0.7546771E-02  0.1284657E+00
          2   -1    0    0  501    0  0.00000000000E+00  0.00000000000E+00  0.29540718356E+02  0.29540718356E+02  0.00000000000E+00 0. -1.
         -2   -1    0    0    0  501 -0.00000000000E+00 -0.00000000000E+00 -0.32138151908E+03  0.32138151908E+03  0.00000000000E+00 0.  1.
         23    2    1    2    0    0 -0.45170735084E+01  0.32158265961E+02 -0.14232197206E+03  0.17188092395E+03  0.90735606376E+02 0.  0.
         23    2    1    2    0    0  0.45170735084E+01 -0.32158265961E+02 -0.14951882866E+03  0.17904131348E+03  0.92980394634E+02 0.  0.
          5    1    4    4  502    0  0.41987210980E+02 -0.27486144299E+02 -0.44125906185E+02  0.66989548520E+02  0.47000000000E+01 0. -1.
         -5    1    4    4    0  502 -0.37470137471E+02 -0.46721216623E+01 -0.10539292248E+03  0.11205176496E+03  0.47000000000E+01 0.  1.
          5    1    3    3  503    0  0.39438065095E+02  0.62080994238E+01 -0.90320124624E+02  0.98862107953E+02  0.47000000000E+01 0. -1.
         -5    1    3    3    0  503 -0.43955138603E+02  0.25950166538E+02 -0.52001847436E+02  0.73018815998E+02  0.47000000000E+01 0.  1.
<mgrwt>
<rscale>  0 0.97954710E+02</rscale>
<asrwt>0</asrwt>
<pdfrwt beam="1">  1        2 0.45447260E-02 0.98488130E+02</pdfrwt>
<pdfrwt beam="2">  1       -2 0.49443310E-01 0.98488130E+02</pdfrwt>
<totfact> 0.64312918E+03</totfact>
</mgrwt>
</event>
<event>
 8    1  0.3400573E-004  0.9723088E+02  0.7546771E-02  0.1286897E+00
          1   -1    0    0  501    0  0.00000000000E+00  0.00000000000E+00  0.13578576925E+03  0.13578576925E+03  0.00000000000E+00 0. -1.
         -1   -1    0    0    0  501 -0.00000000000E+00 -0.00000000000E+00 -0.75896752063E+02  0.75896752063E+02  0.00000000000E+00 0.  1.
         23    2    1    2    0    0 -0.34137349183E+02  0.12423457530E+02  0.62239663549E+02  0.11442322845E+03  0.88877435747E+02 0.  0.
         23    2    1    2    0    0  0.34137349183E+02 -0.12423457530E+02 -0.23506463569E+01  0.97259292863E+02  0.90189487212E+02 0.  0.
          5    1    3    3  502    0 -0.32522535496E+02 -0.34662773340E+02  0.39086442698E+02  0.61717608294E+02  0.47000000000E+01 0. -1.
         -5    1    3    3    0  502 -0.16148136872E+01  0.47086230870E+02  0.23153220850E+02  0.52705620161E+02  0.47000000000E+01 0.  1.
          5    1    4    4  503    0 -0.17510580130E+02 -0.33031927318E+02 -0.14095843048E+02  0.40230727436E+02  0.47000000000E+01 0. -1.
         -5    1    4    4    0  503  0.51647929313E+02  0.20608469788E+02  0.11745196691E+02  0.57028565427E+02  0.47000000000E+01 0.  1.
<mgrwt>
<rscale>  0 0.96925501E+02</rscale>
<asrwt>0</asrwt>
<pdfrwt beam="1">  1        1 0.20890118E-01 0.97230882E+02</pdfrwt>
<pdfrwt beam="2">  1       -1 0.11676423E-01 0.97230882E+02</pdfrwt>
<totfact> 0.10527316E+04</totfact>
</mgrwt>
</event>
<event>
 8    1  0.3400573E-004  0.1007902E+03  0.7546771E-02  0.1282681E+00
         -1   -1    0    0    0  501 -0.00000000000E+00  0.00000000000E+00  0.11140082575E+03  0.11140082575E+03  0.00000000000E+00 0.  1.
          1   -1    0    0  501    0  0.00000000000E+00 -0.00000000000E+00 -0.17446464041E+03  0.17446464041E+03  0.00000000000E+00 0. -1.
         23    2    1    2    0    0 -0.69221972413E+01 -0.30671510423E+02  0.70441192052E+02  0.12296598424E+03  0.95760186797E+02 0.  0.
         23    2    1    2    0    0  0.69221972413E+01  0.30671510423E+02 -0.13350500672E+03  0.16289948192E+03  0.87886267554E+02 0.  0.
          5    1    4    4  502    0 -0.27638556704E+02  0.40656870182E+02 -0.10737899686E+03  0.11819141202E+03  0.47000000000E+01 0. -1.
         -5    1    3    3    0  503  0.27620729950E+02 -0.38393862393E+02  0.73064281766E+02  0.87163482390E+02  0.47000000000E+01 0.  1.
          5    1    3    3  503    0 -0.34542927191E+02  0.77223519702E+01 -0.26230897133E+01  0.35802501847E+02  0.47000000000E+01 0. -1.
         -5    1    4    4    0  502  0.34560753945E+02 -0.99853597589E+01 -0.26126009864E+02  0.44708069900E+02  0.47000000000E+01 0.  1.
<mgrwt>
<rscale>  0 0.98874126E+02</rscale>
<asrwt>0</asrwt>
<pdfrwt beam="1">  1        1 0.26840714E-01 0.10079024E+03</pdfrwt>
<pdfrwt beam="2">  1       -1 0.17138589E-01 0.10079024E+03</pdfrwt>
<totfact> 0.42644004E+03</totfact>
</mgrwt>
</event>
<event>
 8    1  0.3400573E-004  0.1480913E+03  0.7546771E-02  0.1203244E+00
         -2   -1    0    0    0  501 -0.00000000000E+00  0.00000000000E+00  0.18969729520E+02  0.18969729520E+02  0.00000000000E+00 0.  1.
          2   -1    0    0  501    0  0.00000000000E+00 -0.00000000000E+00 -0.13617703579E+04  0.13617703579E+04  0.00000000000E+00 0. -1.
         23    2    1    2    0    0 -0.85577189658E+02 -0.80119255808E+02 -0.39909754183E+03  0.42568752273E+03  0.90490157304E+02 0.  0.
         23    2    1    2    0    0  0.85577189658E+02  0.80119255808E+02 -0.94370308658E+03  0.95505256472E+03  0.88359126434E+02 0.  0.
          5    1    4    4  502    0  0.99281666211E+02  0.60282529371E+02 -0.85995943374E+03  0.86778058879E+03  0.47000000000E+01 0. -1.
         -5    1    3    3    0  503 -0.96150501209E+02 -0.59364692407E+02 -0.24595059577E+03  0.27070809214E+03  0.47000000000E+01 0.  1.
          5    1    3    3  503    0  0.10573311551E+02 -0.20754563401E+02 -0.15314694606E+03  0.15497943059E+03  0.47000000000E+01 0. -1.
         -5    1    4    4    0  502 -0.13704476553E+02  0.19836726437E+02 -0.83743652834E+02  0.87271975933E+02  0.47000000000E+01 0. -1.
<mgrwt>
<rscale>  0 0.14776707E+03</rscale>
<asrwt>0</asrwt>
<pdfrwt beam="1">  1        2 0.20950315E+00 0.14809125E+03</pdfrwt>
<pdfrwt beam="2">  1       -2 0.29184197E-02 0.14809125E+03</pdfrwt>
<totfact> 0.70227819E+03</totfact>
</mgrwt>
</event>
<event>
 8    1  0.3400573E-004  0.1023176E+03  0.7546771E-02  0.1275919E+00
          1   -1    0    0  501    0  0.00000000000E+00  0.00000000000E+00  0.27904209966E+03  0.27904209966E+03  0.00000000000E+00 0. -1.
         -1   -1    0    0    0  501 -0.00000000000E+00 -0.00000000000E+00 -0.37760990937E+02  0.37760990937E+02  0.00000000000E+00 0.  1.
         23    2    1    2    0    0  0.45190339054E+02 -0.41105902479E+01  0.10207711021E+03  0.14452901963E+03  0.91705165567E+02 0.  0.
         23    2    1    2    0    0 -0.45190339054E+02  0.41105902479E+01  0.13920399851E+03  0.17227407096E+03  0.90782920353E+02 0.  0.
          5    1    4    4  502    0 -0.41651743031E+02  0.42773857795E+02  0.10208422345E+03  0.11835433784E+03  0.47000000000E+01 0. -1.
         -5    1    3    3    0  503  0.44982448682E+02 -0.39766821926E+02  0.38482574599E+02  0.71469009810E+02  0.47000000000E+01 0.  1.
          5    1    3    3  503    0  0.20789037249E+00  0.35656231678E+02  0.63594535612E+02  0.73060009825E+02  0.47000000000E+01 0. -1.
         -5    1    4    4    0  502 -0.35385960231E+01 -0.38663267547E+02  0.37119775065E+02  0.53919733123E+02  0.47000000000E+01 0.  1.
<mgrwt>
<rscale>  0 0.10211058E+03</rscale>
<asrwt>0</asrwt>
<pdfrwt beam="1">  1        1 0.42929552E-01 0.10231765E+03</pdfrwt>
<pdfrwt beam="2">  1       -1 0.58093834E-02 0.10231765E+03</pdfrwt>
<totfact> 0.12378495E+04</totfact>
</mgrwt>
</event>
<event>
 7    1  0.3400573E-004  0.1320610E+03  0.7546771E-02  0.1244372E+00
          2   -1    0    0  501    0  0.00000000000E+00  0.00000000000E+00  0.55537224262E+03  0.55537224262E+03  0.00000000000E+00 0. -1.
         -2   -1    0    0    0  501 -0.00000000000E+00 -0.00000000000E+00 -0.30435617537E+02  0.30435617537E+02  0.00000000000E+00 0.  1.
         23    2    1    2    0    0  0.87933999647E+01 -0.70072968639E+01  0.70464045080E+02  0.11253687161E+03  0.87022639179E+02 0.  0.
          5    1    1    2  502    0  0.51428194428E+02  0.34853752225E+02  0.27226233724E+03  0.27930004208E+03  0.47000000000E+01 0.  1.
         -5    1    3    3    0  503  0.25361690387E+02 -0.34230200202E+02  0.99761660969E+01  0.44006088614E+02  0.47000000000E+01 0.  1.
          5    1    3    3  503    0 -0.16568290423E+02  0.27222903338E+02  0.60487878984E+02  0.68530782993E+02  0.47000000000E+01 0. -1.
         -5    1    1    2    0  502 -0.60221594393E+02 -0.27846455361E+02  0.18221024276E+03  0.19397094647E+03  0.47000000000E+01 0. -1.
<mgrwt>
<rscale>  0 0.11923061E+03</rscale>
<asrwt>0</asrwt>
<pdfrwt beam="1">  1        2 0.85441876E-01 0.13206098E+03</pdfrwt>
<pdfrwt beam="2">  1       -2 0.46824031E-02 0.13206098E+03</pdfrwt>
<totfact> 0.11348888E+04</totfact>
</mgrwt>
</event>
<event>
 8    1  0.3400573E-004  0.9238826E+02  0.7546771E-02  0.1297930E+00
         -2   -1    0    0    0  501 -0.00000000000E+00  0.00000000000E+00  0.44232751153E+02  0.44232751153E+02  0.00000000000E+00 0.  1.
          2   -1    0    0  501    0  0.00000000000E+00 -0.00000000000E+00 -0.45488427521E+03  0.45488427521E+03  0.00000000000E+00 0. -1.
         23    2    1    2    0    0 -0.46685006287E+01 -0.79445800058E+01 -0.39626335766E+03  0.40689094212E+03  0.91927574204E+02 0.  0.
         23    2    1    2    0    0  0.46685006287E+01  0.79445800058E+01 -0.14388166394E+02  0.92226084249E+02  0.90629575934E+02 0.  0.
          5    1    3    3  502    0 -0.45923712560E+02  0.91451803884E+01 -0.18323038718E+03  0.18917739423E+03  0.47000000000E+01 0. -1.
         -5    1    3    3    0  502  0.41255211932E+02 -0.17089760394E+02 -0.21303297048E+03  0.21771354789E+03  0.47000000000E+01 0.  1.
          5    1    4    4  503    0  0.25076830207E+02 -0.30065960204E+02  0.12266533423E+02  0.41296092048E+02  0.47000000000E+01 0. -1.
         -5    1    4    4    0  503 -0.20408329578E+02  0.38010540210E+02 -0.26654699818E+02  0.50929992201E+02  0.47000000000E+01 0.  1.
<mgrwt>
<rscale>  0 0.92063693E+02</rscale>
<asrwt>0</asrwt>
<pdfrwt beam="1">  1        2 0.69982198E-01 0.92388258E+02</pdfrwt>
<pdfrwt beam="2">  1       -2 0.68050385E-02 0.92388258E+02</pdfrwt>
<totfact> 0.78368261E+03</totfact>
</mgrwt>
</event>
<event>
 8    1  0.3400573E-004  0.9118899E+02  0.7546771E-02  0.1300138E+00
          1   -1    0    0  501    0  0.00000000000E+00  0.00000000000E+00  0.85995523560E+03  0.85995523560E+03  0.00000000000E+00 0. -1.
         -1   -1    0    0    0  501 -0.00000000000E+00 -0.00000000000E+00 -0.12873705329E+02  0.12873705329E+02  0.00000000000E+00 0.  1.
         23    2    1    2    0    0  0.29536363700E+01 -0.54958052029E+01  0.64251431653E+03  0.64895306297E+03  0.90975288665E+02 0.  0.
         23    2    1    2    0    0 -0.29536363700E+01  0.54958052029E+01  0.20456721374E+03  0.22387587796E+03  0.90739935819E+02 0.  0.
          5    1    3    3  502    0 -0.39060276041E+02  0.13799325929E+02  0.38775988943E+03  0.38999480562E+03  0.47000000000E+01 0. -1.
         -5    1    4    4    0  503 -0.22079056798E+02 -0.25439400956E+02  0.17037463334E+03  0.17373616076E+03  0.47000000000E+01 0.  1.
          5    1    4    4  503    0  0.19125420428E+02  0.30935206159E+02  0.34192580406E+02  0.50139717206E+02  0.47000000000E+01 0. -1.
         -5    1    3    3    0  502  0.42013912411E+02 -0.19295131132E+02  0.25475442710E+03  0.25895825735E+03  0.47000000000E+01 0.  1.
<mgrwt>
<rscale>  0 0.91130228E+02</rscale>
<asrwt>0</asrwt>
<pdfrwt beam="1">  1        1 0.13230076E+00 0.91188985E+02</pdfrwt>
<pdfrwt beam="2">  1       -1 0.19805707E-02 0.91188985E+02</pdfrwt>
<totfact> 0.13281513E+04</totfact>
</mgrwt>
</event>
<event>
 8    1  0.3400573E-004  0.9310903E+02  0.7546771E-02  0.1303241E+00
         -3   -1    0    0    0  501 -0.00000000000E+00  0.00000000000E+00  0.39006294293E+02  0.39006294293E+02  0.00000000000E+00 0.  1.
          3   -1    0    0  501    0  0.00000000000E+00 -0.00000000000E+00 -0.25594254033E+03  0.25594254033E+03  0.00000000000E+00 0. -1.
         23    2    1    2    0    0  0.13598178586E+02  0.13693618051E+02 -0.17523899596E+03  0.19292946684E+03  0.78362285775E+02 0.  0.
         23    2    1    2    0    0 -0.13598178586E+02 -0.13693618051E+02 -0.41697250076E+02  0.10201936779E+03  0.91087129187E+02 0.  0.
          5    1    4    4  502    0  0.31356906239E+02 -0.99519206753E+01 -0.45680841103E+02  0.56490048131E+02  0.47000000000E+01 0. -1.
         -5    1    4    4    0  502 -0.44955084825E+02 -0.37416973759E+01  0.39835910273E+01  0.45529319656E+02  0.47000000000E+01 0.  1.
          5    1    3    3  503    0 -0.23929358052E+02  0.22016782877E+02 -0.37531599804E+02  0.49880496077E+02  0.47000000000E+01 0. -1.
         -5    1    3    3    0  503  0.37527536638E+02 -0.83231648257E+01 -0.13770739616E+03  0.14304897076E+03  0.47000000000E+01 0.  1.
<mgrwt>
<rscale>  0 0.89839450E+02</rscale>
<asrwt>0</asrwt>
<pdfrwt beam="1">  1        3 0.39375776E-01 0.93109026E+02</pdfrwt>
<pdfrwt beam="2">  1       -3 0.60009682E-02 0.93109026E+02</pdfrwt>
<totfact> 0.23219778E+03</totfact>
</mgrwt>
</event>
<event>
 8    1  0.3400573E-004  0.9429556E+02  0.7546771E-02  0.1293258E+00
         -1   -1    0    0    0  501 -0.00000000000E+00  0.00000000000E+00  0.13925083295E+03  0.13925083295E+03  0.00000000000E+00 0.  1.
          1   -1    0    0  501    0  0.00000000000E+00 -0.00000000000E+00 -0.28242521856E+03  0.28242521856E+03  0.00000000000E+00 0. -1.
         23    2    1    2    0    0  0.24635715139E+02  0.10251632743E+02  0.11420813478E+03  0.14756400433E+03  0.89552347201E+02 0.  0.
         23    2    1    2    0    0 -0.24635715139E+02 -0.10251632743E+02 -0.25738252039E+03  0.27411204718E+03  0.90441352106E+02 0.  0.
          5    1    3    3  502    0  0.12742050949E+02  0.37825931243E+02  0.13543998651E+02  0.42410975422E+02  0.47000000000E+01 0. -1.
         -5    1    3    3    0  502  0.11893664189E+02 -0.27574298500E+02  0.10066413613E+03  0.10515302890E+03  0.47000000000E+01 0.  1.
          5    1    4    4  503    0 -0.28581784593E+02 -0.37164212012E+02 -0.68006971025E+02  0.82735332071E+02  0.47000000000E+01 0. -1.
         -5    1    4    4    0  503  0.39460694546E+01  0.26912579268E+02 -0.18937554937E+03  0.19137671511E+03  0.47000000000E+01 0.  1.
<mgrwt>
<rscale>  0 0.94081751E+02</rscale>
<asrwt>0</asrwt>
<pdfrwt beam="1">  1        1 0.43450034E-01 0.94295560E+02</pdfrwt>
<pdfrwt beam="2">  1       -1 0.21423205E-01 0.94295560E+02</pdfrwt>
<totfact> 0.16522061E+03</totfact>
</mgrwt>
</event>
<event>
 8    1  0.3400573E-004  0.1210098E+03  0.7546771E-02  0.1241726E+00
          2   -1    0    0  501    0  0.00000000000E+00  0.00000000000E+00  0.20629596251E+03  0.20629596251E+03  0.00000000000E+00 0. -1.
         -2   -1    0    0    0  501 -0.00000000000E+00 -0.00000000000E+00 -0.76027652698E+02  0.76027652698E+02  0.00000000000E+00 0.  1.
         23    2    1    2    0    0 -0.10627044367E+02  0.80072572011E+02  0.10276711361E+03  0.15822810084E+03  0.89165584141E+02 0.  0.
         23    2    1    2    0    0  0.10627044367E+02 -0.80072572011E+02  0.27501196199E+02  0.12409551437E+03  0.90104550567E+02 0.  0.
          5    1    3    3  502    0  0.16985430962E+02  0.25101863773E+02  0.90191825645E+02  0.95264179223E+02  0.47000000000E+01 0. -1.
         -5    1    3    3    0  502 -0.27612475329E+02  0.54970708238E+02  0.12575287965E+02  0.62963921617E+02  0.47000000000E+01 0.  1.
          5    1    4    4  503    0 -0.36955370854E+02 -0.27540655108E+02 -0.37744644527E+01  0.46481433935E+02  0.47000000000E+01 0. -1.
         -5    1    4    4    0  503  0.47582415222E+02 -0.52531916903E+02  0.31275660652E+02  0.77614080430E+02  0.47000000000E+01 0.  1.
<mgrwt>
<rscale>  0 0.12083508E+03</rscale>
<asrwt>0</asrwt>
<pdfrwt beam="1">  1        2 0.31737840E-01 0.12100984E+03</pdfrwt>
<pdfrwt beam="2">  1       -2 0.11696562E-01 0.12100984E+03</pdfrwt>
<totfact> 0.79757828E+03</totfact>
</mgrwt>
</event>
<event>
 8    1  0.3400573E-004  0.1187435E+03  0.7546771E-02  0.1246939E+00
         -3   -1    0    0    0  501 -0.00000000000E+00  0.00000000000E+00  0.45076810119E+02  0.45076810119E+02  0.00000000000E+00 0.  1.
          3   -1    0    0  501    0  0.00000000000E+00 -0.00000000000E+00 -0.30236526483E+03  0.30236526483E+03  0.00000000000E+00 0. -1.
         23    2    1    2    0    0  0.12040001820E+02 -0.67561745887E+02 -0.13649569111E+03  0.18091736608E+03  0.96904429747E+02 0.  0.
         23    2    1    2    0    0 -0.12040001820E+02  0.67561745887E+02 -0.12079276360E+03  0.16652470888E+03  0.91815226279E+02 0.  0.
          5    1    3    3  502    0 -0.28197319374E+02 -0.39568021633E+02 -0.11906229496E+03  0.12868036850E+03  0.47000000000E+01 0. -1.
         -5    1    3    3    0  502  0.40237321194E+02 -0.27993724254E+02 -0.17433396152E+02  0.52236997577E+02  0.47000000000E+01 0.  1.
          5    1    4    4  503    0 -0.47154950220E+02  0.40261941041E+02 -0.39287648669E+02  0.73554215138E+02  0.47000000000E+01 0. -1.
         -5    1    4    4    0  503  0.35114948400E+02  0.27299804847E+02 -0.81505114933E+02  0.92970493739E+02  0.47000000000E+01 0.  1.
<mgrwt>
<rscale>  0 0.11770099E+03</rscale>
<asrwt>0</asrwt>
<pdfrwt beam="1">  1        3 0.46517734E-01 0.11874350E+03</pdfrwt>
<pdfrwt beam="2">  1       -3 0.69348937E-02 0.11874350E+03</pdfrwt>
<totfact> 0.13980312E+03</totfact>
</mgrwt>
</event>
<event>
 8    1  0.3400573E-004  0.9962557E+02  0.7546771E-02  0.1283851E+00
          1   -1    0    0  501    0  0.00000000000E+00  0.00000000000E+00  0.21788883337E+02  0.21788883337E+02  0.00000000000E+00 0. -1.
         -1   -1    0    0    0  501 -0.00000000000E+00 -0.00000000000E+00 -0.46238991989E+03  0.46238991989E+03  0.00000000000E+00 0.  1.
         23    2    1    2    0    0 -0.17168337309E+02 -0.20770624996E+02 -0.16422324105E+03  0.19207948375E+03  0.95911858003E+02 0.  0.
         23    2    1    2    0    0  0.17168337309E+02  0.20770624996E+02 -0.27637779550E+03  0.29209931948E+03  0.90615428743E+02 0.  0.
          5    1    4    4  502    0 -0.31114426931E+02 -0.79179729121E+01 -0.15380150924E+03  0.15718713721E+03  0.47000000000E+01 0. -1.
         -5    1    4    4    0  502  0.48282764240E+02  0.28688597908E+02 -0.12257628626E+03  0.13491218227E+03  0.47000000000E+01 0.  1.
          5    1    3    3  503    0 -0.73792846223E+01 -0.45923596068E+02 -0.31059724646E+02  0.56126883153E+02  0.47000000000E+01 0. -1.
         -5    1    3    3    0  503 -0.97890526868E+01  0.25152971072E+02 -0.13316351641E+03  0.13595260059E+03  0.47000000000E+01 0.  1.
<mgrwt>
<rscale>  0 0.98328425E+02</rscale>
<asrwt>0</asrwt>
<pdfrwt beam="1">  1        1 0.33521361E-02 0.99625575E+02</pdfrwt>
<pdfrwt beam="2">  1       -1 0.71136907E-01 0.99625575E+02</pdfrwt>
<totfact> 0.56199858E+03</totfact>
</mgrwt>
</event>
<event>
 8    1  0.3400573E-004  0.9733015E+02  0.7546771E-02  0.1303568E+00
          3   -1    0    0  501    0  0.00000000000E+00  0.00000000000E+00  0.67110979695E+02  0.67110979695E+02  0.00000000000E+00 0. -1.
         -3   -1    0    0    0  501 -0.00000000000E+00 -0.00000000000E+00 -0.12930118923E+03  0.12930118923E+03  0.00000000000E+00 0.  1.
         23    2    1    2    0    0  0.23107627821E+02 -0.23753140707E+02 -0.69503367369E+02  0.98807663612E+02  0.61919804229E+02 0.  0.
         23    2    1    2    0    0 -0.23107627821E+02  0.23753140707E+02  0.73131578344E+01  0.97604505313E+02  0.91514933333E+02 0.  0.
          5    1    4    4  502    0 -0.45007515507E+02  0.42380708418E+02 -0.11318603878E+02  0.63023818449E+02  0.47000000000E+01 0. -1.
         -5    1    4    4    0  502  0.21899887686E+02 -0.18627567711E+02  0.18631761713E+02  0.34580686864E+02  0.47000000000E+01 0.  1.
          5    1    3    3  503    0 -0.18868849254E+02 -0.13651442828E+02 -0.11634536707E+02  0.26454636793E+02  0.47000000000E+01 0. -1.
         -5    1    3    3    0  503  0.41976477075E+02 -0.10101697879E+02 -0.57868830662E+02  0.72353026819E+02  0.47000000000E+01 0.  1.
<mgrwt>
<rscale>  0 0.89704868E+02</rscale>
<asrwt>0</asrwt>
<pdfrwt beam="1">  1        3 0.10324766E-01 0.97330145E+02</pdfrwt>
<pdfrwt beam="2">  1       -3 0.19892490E-01 0.97330145E+02</pdfrwt>
<totfact> 0.33847833E+03</totfact>
</mgrwt>
</event>
<event>
 8    1  0.3400573E-004  0.1018693E+03  0.7546771E-02  0.1276610E+00
          1   -1    0    0  501    0  0.00000000000E+00  0.00000000000E+00  0.47799660525E+03  0.47799660525E+03  0.00000000000E+00 0. -1.
         -1   -1    0    0    0  501 -0.00000000000E+00 -0.00000000000E+00 -0.25856480844E+02  0.25856480844E+02  0.00000000000E+00 0.  1.
         23    2    1    2    0    0 -0.20596453744E+02 -0.36263483522E+02  0.12455514759E+03  0.16090784824E+03  0.92941361569E+02 0.  0.
         23    2    1    2    0    0  0.20596453744E+02  0.36263483522E+02  0.32758497681E+03  0.34294523785E+03  0.92521700089E+02 0.  0.
          5    1    4    4  502    0 -0.29351669113E+02  0.40173202974E+02  0.13705121600E+03  0.14587848547E+03  0.47000000000E+01 0. -1.
         -5    1    4    4    0  502  0.49948122858E+02 -0.39097194521E+01  0.19053376082E+03  0.19706675238E+03  0.47000000000E+01 0.  1.
          5    1    3    3  503    0 -0.55899629376E+02 -0.35223060608E+02  0.80641503397E+02  0.10435791601E+03  0.47000000000E+01 0. -1.
         -5    1    3    3    0  503  0.35303175631E+02 -0.10404229138E+01  0.43913644197E+02  0.56549932238E+02  0.47000000000E+01 0.  1.
<mgrwt>
<rscale>  0 0.10177346E+03</rscale>
<asrwt>0</asrwt>
<pdfrwt beam="1">  1        1 0.73537933E-01 0.10186928E+03</pdfrwt>
<pdfrwt beam="2">  1       -1 0.39779205E-02 0.10186928E+03</pdfrwt>
<totfact> 0.11044270E+04</totfact>
</mgrwt>
</event>
<event>
 8    1  0.3400573E-004  0.1010488E+03  0.7546771E-02  0.1280487E+00
          3   -1    0    0  501    0  0.00000000000E+00  0.00000000000E+00  0.72058516754E+02  0.72058516754E+02  0.00000000000E+00 0. -1.
         -3   -1    0    0    0  501 -0.00000000000E+00 -0.00000000000E+00 -0.20162280044E+03  0.20162280044E+03  0.00000000000E+00 0.  1.
         23    2    1    2    0    0  0.32767219096E+02  0.21853316020E+02 -0.14412910884E+03  0.17602287255E+03  0.93056937279E+02 0.  0.
         23    2    1    2    0    0 -0.32767219096E+02 -0.21853316020E+02  0.14564825161E+02  0.97658444643E+02  0.88169039974E+02 0.  0.
          5    1    3    3  502    0 -0.17576385285E+02 -0.24439844658E+02 -0.29203615750E+02  0.42203986772E+02  0.47000000000E+01 0. -1.
         -5    1    3    3    0  502  0.50343604380E+02  0.46293160678E+02 -0.11492549309E+03  0.13381888578E+03  0.47000000000E+01 0.  1.
          5    1    4    4  503    0  0.20561043446E+02 -0.13440562460E+02  0.32106663071E+02  0.40698071703E+02  0.47000000000E+01 0. -1.
         -5    1    4    4    0  503 -0.53328262542E+02 -0.84127535599E+01 -0.17541837910E+02  0.56960372940E+02  0.47000000000E+01 0.  1.
<mgrwt>
<rscale>  0 0.99908988E+02</rscale>
<asrwt>0</asrwt>
<pdfrwt beam="1">  1        3 0.11085926E-01 0.10104876E+03</pdfrwt>
<pdfrwt beam="2">  1       -3 0.31018891E-01 0.10104876E+03</pdfrwt>
<totfact> 0.13670113E+03</totfact>
</mgrwt>
</event>
<event>
 8    1  0.3400573E-004  0.4662142E+03  0.7546771E-02  0.1022996E+00
         -2   -1    0    0    0  501 -0.00000000000E+00  0.00000000000E+00  0.24407113713E+03  0.24407113713E+03  0.00000000000E+00 0.  1.
          2   -1    0    0  501    0  0.00000000000E+00 -0.00000000000E+00 -0.15043687365E+04  0.15043687365E+04  0.00000000000E+00 0. -1.
         23    2    1    2    0    0  0.83072301150E+01  0.45709633021E+03 -0.71691064339E+02  0.47167006917E+03  0.91252289182E+02 0.  0.
         23    2    1    2    0    0 -0.83072301150E+01 -0.45709633021E+03 -0.11886065350E+04  0.12767698044E+04  0.91375999499E+02 0.  0.
          5    1    3    3  502    0  0.26394187441E+02  0.38165487053E+02 -0.11368828193E+02  0.48006226545E+02  0.47000000000E+01 0. -1.
         -5    1    3    3    0  502 -0.18086957326E+02  0.41893084316E+03 -0.60322236146E+02  0.42366384263E+03  0.47000000000E+01 0.  1.
          5    1    4    4  503    0  0.17468669487E+00 -0.33341223352E+03 -0.96593545565E+03  0.10218694351E+04  0.47000000000E+01 0. -1.
         -5    1    4    4    0  503 -0.84819168099E+01 -0.12368409669E+03 -0.22267107936E+03  0.25490036930E+03  0.47000000000E+01 0.  1.
<mgrwt>
<rscale>  0 0.46620810E+03</rscale>
<asrwt>0</asrwt>
<pdfrwt beam="1">  1        2 0.23144135E+00 0.46621416E+03</pdfrwt>
<pdfrwt beam="2">  1       -2 0.37549405E-01 0.46621416E+03</pdfrwt>
<totfact> 0.88980460E+01</totfact>
</mgrwt>
</event>
<event>
 8    1  0.3400573E-004  0.9884585E+02  0.7546771E-02  0.1291043E+00
         -2   -1    0    0    0  501 -0.00000000000E+00  0.00000000000E+00  0.17073980485E+02  0.17073980485E+02  0.00000000000E+00 0.  1.
          2   -1    0    0  501    0  0.00000000000E+00 -0.00000000000E+00 -0.52715476623E+03  0.52715476623E+03  0.00000000000E+00 0. -1.
         23    2    1    2    0    0 -0.12980117458E+02 -0.74665762489E+01 -0.30607361396E+03  0.31753637989E+03  0.83210949895E+02 0.  0.
         23    2    1    2    0    0  0.12980117458E+02  0.74665762489E+01 -0.20400717179E+03  0.22669236682E+03  0.97705014333E+02 0.  0.
          5    1    4    4  502    0  0.22315085375E+02  0.28948299373E+02 -0.19887180594E+03  0.20225739114E+03  0.47000000000E+01 0. -1.
         -5    1    4    4    0  502 -0.93349679174E+01 -0.21481723124E+02 -0.51353658460E+01  0.24434975686E+02  0.47000000000E+01 0.  1.
          5    1    3    3  503    0 -0.38568256552E+02  0.21986793973E+02 -0.14370209291E+03  0.15047694517E+03  0.47000000000E+01 0. -1.
         -5    1    3    3    0  503  0.25588139094E+02 -0.29453370222E+02 -0.16237152106E+03  0.16705943472E+03  0.47000000000E+01 0.  1.
<mgrwt>
<rscale>  0 0.95059201E+02</rscale>
<asrwt>0</asrwt>
<pdfrwt beam="1">  1        2 0.81100745E-01 0.98845855E+02</pdfrwt>
<pdfrwt beam="2">  1       -2 0.26267658E-02 0.98845855E+02</pdfrwt>
<totfact> 0.27448989E+04</totfact>
</mgrwt>
</event>
<event>
 8    1  0.3400573E-004  0.1238593E+03  0.7546771E-02  0.1237944E+00
          4   -1    0    0  501    0  0.00000000000E+00  0.00000000000E+00  0.64318498927E+02  0.64318498927E+02  0.00000000000E+00 0. -1.
         -4   -1    0    0    0  501 -0.00000000000E+00 -0.00000000000E+00 -0.26819955744E+03  0.26819955744E+03  0.00000000000E+00 0.  1.
         23    2    1    2    0    0  0.79592609716E+02 -0.22021882778E+02 -0.16089670196E+03  0.20141207654E+03  0.88651728881E+02 0.  0.
         23    2    1    2    0    0 -0.79592609716E+02  0.22021882778E+02 -0.42984356555E+02  0.13110597982E+03  0.92310217174E+02 0.  0.
          5    1    3    3  502    0  0.51325401265E+02 -0.56395130481E+02 -0.10253389819E+03  0.12786711006E+03  0.47000000000E+01 0. -1.
         -5    1    4    4    0  503 -0.42993284104E+02  0.55106251408E+02 -0.41712129354E+02  0.81529829863E+02  0.47000000000E+01 0.  1.
          5    1    4    4  503    0 -0.36599325612E+02 -0.33084368630E+02 -0.12722272010E+01  0.49576149961E+02  0.47000000000E+01 0. -1.
         -5    1    3    3    0  502  0.28267208452E+02  0.34373247703E+02 -0.58362803768E+02  0.73544966483E+02  0.47000000000E+01 0.  1.
<mgrwt>
<rscale>  0 0.12317818E+03</rscale>
<asrwt>0</asrwt>
<pdfrwt beam="1">  1        4 0.98951537E-02 0.12385929E+03</pdfrwt>
<pdfrwt beam="2">  1       -4 0.41261470E-01 0.12385929E+03</pdfrwt>
<totfact> 0.71731708E+02</totfact>
</mgrwt>
</event>
<event>
 8    1  0.3400573E-004  0.1051331E+03  0.7546771E-02  0.1270576E+00
         -2   -1    0    0    0  501 -0.00000000000E+00  0.00000000000E+00  0.12679411835E+02  0.12679411835E+02  0.00000000000E+00 0.  1.
          2   -1    0    0  501    0  0.00000000000E+00 -0.00000000000E+00 -0.86008148482E+03  0.86008148482E+03  0.00000000000E+00 0. -1.
         23    2    1    2    0    0 -0.25248754279E+02 -0.44170339124E+02 -0.41220146440E+03  0.42504164529E+03  0.90342872039E+02 0.  0.
         23    2    1    2    0    0  0.25248754279E+02  0.44170339124E+02 -0.43520060859E+03  0.44771925137E+03  0.92002390602E+02 0.  0.
          5    1    3    3  502    0 -0.22606358463E+02  0.25153109500E+02 -0.13808788813E+03  0.14224655078E+03  0.47000000000E+01 0. -1.
         -5    1    4    4    0  503  0.11055280519E+01 -0.21510503785E+02 -0.34607071734E+02  0.41032467381E+02  0.47000000000E+01 0.  1.
          5    1    4    4  503    0  0.24143226227E+02  0.65680842910E+02 -0.40059353685E+03  0.40668678398E+03  0.47000000000E+01 0. -1.
         -5    1    3    3    0  502 -0.26423958159E+01 -0.69323448625E+02 -0.27411357627E+03  0.28279509451E+03  0.47000000000E+01 0.  1.
<mgrwt>
<rscale>  0 0.10476888E+03</rscale>
<asrwt>0</asrwt>
<pdfrwt beam="1">  1        2 0.13232024E+00 0.10513305E+03</pdfrwt>
<pdfrwt beam="2">  1       -2 0.19506785E-02 0.10513305E+03</pdfrwt>
<totfact> 0.23994811E+04</totfact>
</mgrwt>
</event>
<event>
 8    1  0.3400573E-004  0.1048364E+03  0.7546771E-02  0.1271214E+00
         -3   -1    0    0    0  501 -0.00000000000E+00  0.00000000000E+00  0.10281237885E+03  0.10281237885E+03  0.00000000000E+00 0.  1.
          3   -1    0    0  501    0  0.00000000000E+00 -0.00000000000E+00 -0.18236710073E+03  0.18236710073E+03  0.00000000000E+00 0. -1.
         23    2    1    2    0    0 -0.31423672295E+02 -0.38053853042E+02  0.53070664315E+02  0.11612280351E+03  0.90732944247E+02 0.  0.
         23    2    1    2    0    0  0.31423672295E+02  0.38053853042E+02 -0.13262538620E+03  0.16905667608E+03  0.92493911976E+02 0.  0.
          5    1    3    3  502    0  0.28387019525E+01 -0.46845609416E+02 -0.55541293369E+01  0.47492185705E+02  0.47000000000E+01 0. -1.
         -5    1    3    3    0  502 -0.34262374247E+02  0.87917563738E+01  0.58624793652E+02  0.68630617802E+02  0.47000000000E+01 0.  1.
          5    1    4    4  503    0  0.48199188518E+02 -0.13617759231E+02 -0.63989675224E+02  0.81396398419E+02  0.47000000000E+01 0. -1.
         -5    1    4    4    0  503 -0.16775516223E+02  0.51671612273E+02 -0.68635710971E+02  0.87660277663E+02  0.47000000000E+01 0.  1.
<mgrwt>
<rscale>  0 0.10444663E+03</rscale>
<asrwt>0</asrwt>
<pdfrwt beam="1">  1        3 0.28056477E-01 0.10483638E+03</pdfrwt>
<pdfrwt beam="2">  1       -3 0.15817289E-01 0.10483638E+03</pdfrwt>
<totfact> 0.91039347E+02</totfact>
</mgrwt>
</event>
<event>
 8    1  0.3400573E-004  0.9599471E+02  0.7546771E-02  0.1289828E+00
          1   -1    0    0  501    0  0.00000000000E+00  0.00000000000E+00  0.36723089588E+03  0.36723089588E+03  0.00000000000E+00 0. -1.
         -1   -1    0    0    0  501 -0.00000000000E+00 -0.00000000000E+00 -0.26487177186E+02  0.26487177186E+02  0.00000000000E+00 0.  1.
         23    2    1    2    0    0 -0.89576190433E+01 -0.30960356986E+02  0.22301294631E+03  0.24279571401E+03  0.90422352735E+02 0.  0.
         23    2    1    2    0    0  0.89576190433E+01  0.30960356986E+02  0.11773077238E+03  0.15092235906E+03  0.88759456140E+02 0.  0.
          5    1    3    3  502    0 -0.12845977287E+02 -0.59047783088E+02  0.10411221244E+03  0.12047033909E+03  0.47000000000E+01 0. -1.
         -5    1    3    3    0  502  0.38883582438E+01  0.28087426102E+02  0.11890073387E+03  0.12232537492E+03  0.47000000000E+01 0.  1.
          5    1    4    4  503    0 -0.21740616668E+02 -0.23104289699E+02  0.38980845699E+02  0.50478301744E+02  0.47000000000E+01 0. -1.
         -5    1    4    4    0  503  0.30698235711E+02  0.54064646685E+02  0.78749926685E+02  0.10044405731E+03  0.47000000000E+01 0.  1.
<mgrwt>
<rscale>  0 0.95601117E+02</rscale>
<asrwt>0</asrwt>
<pdfrwt beam="1">  1        1 0.56497057E-01 0.95994711E+02</pdfrwt>
<pdfrwt beam="2">  1       -1 0.40749506E-02 0.95994711E+02</pdfrwt>
<totfact> 0.14766731E+04</totfact>
</mgrwt>
</event>
<event>
 8    1  0.3400573E-004  0.9495128E+02  0.7546771E-02  0.1294722E+00
         -2   -1    0    0    0  501 -0.00000000000E+00  0.00000000000E+00  0.16410673417E+03  0.16410673417E+03  0.00000000000E+00 0.  1.
          2   -1    0    0  501    0  0.00000000000E+00 -0.00000000000E+00 -0.51584760556E+02  0.51584760556E+02  0.00000000000E+00 0. -1.
         23    2    1    2    0    0 -0.37681723720E+01  0.22396245934E+02  0.55206829264E+02  0.10478265039E+03  0.86115148905E+02 0.  0.
         23    2    1    2    0    0  0.37681723720E+01 -0.22396245934E+02  0.57315144354E+02  0.11090884434E+03  0.92195200662E+02 0.  0.
          5    1    4    4  502    0 -0.41180192737E+02  0.42861649270E+01  0.32559627174E+02  0.52880987182E+02  0.47000000000E+01 0. -1.
         -5    1    4    4    0  502  0.44948365109E+02 -0.26682410861E+02  0.24755517181E+02  0.58027857156E+02  0.47000000000E+01 0.  1.
          5    1    3    3  503    0 -0.29500378117E+02  0.41089026614E+02  0.14340890023E+02  0.52785713444E+02  0.47000000000E+01 0. -1.
         -5    1    3    3    0  503  0.25732205745E+02 -0.18692780680E+02  0.40865939240E+02  0.51996936949E+02  0.47000000000E+01 0.  1.
<mgrwt>
<rscale>  0 0.93442789E+02</rscale>
<asrwt>0</asrwt>
<pdfrwt beam="1">  1        2 0.79361171E-02 0.94951282E+02</pdfrwt>
<pdfrwt beam="2">  1       -2 0.25247190E-01 0.94951282E+02</pdfrwt>
<totfact> 0.10852446E+04</totfact>
</mgrwt>
</event>
<event>
 8    1  0.3400573E-004  0.1033936E+03  0.7546771E-02  0.1274550E+00
         -2   -1    0    0    0  501 -0.00000000000E+00  0.00000000000E+00  0.39594059647E+02  0.39594059647E+02  0.00000000000E+00 0.  1.
          2   -1    0    0  501    0  0.00000000000E+00 -0.00000000000E+00 -0.44001825164E+03  0.44001825164E+03  0.00000000000E+00 0. -1.
         23    2    1    2    0    0 -0.43728177203E+02 -0.22085586409E+02 -0.49843793028E+02  0.11478086804E+03  0.91051179868E+02 0.  0.
         23    2    1    2    0    0  0.43728177203E+02  0.22085586409E+02 -0.35058039897E+03  0.36483144325E+03  0.88291784651E+02 0.  0.
          5    1    3    3  502    0  0.83231616610E+01 -0.43864654942E+02 -0.11322357160E+02  0.46299770463E+02  0.47000000000E+01 0. -1.
         -5    1    4    4    0  503  0.38265838540E+02 -0.27737963124E+02 -0.12541450493E+03  0.13410651380E+03  0.47000000000E+01 0.  1.
          5    1    4    4  503    0  0.54623386625E+01  0.49823549533E+02 -0.22516589404E+03  0.23072492945E+03  0.47000000000E+01 0. -1.
         -5    1    3    3    0  502 -0.52051338864E+02  0.21779068533E+02 -0.38521435868E+02  0.68481097575E+02  0.47000000000E+01 0.  1.
<mgrwt>
<rscale>  0 0.10278286E+03</rscale>
<asrwt>0</asrwt>
<pdfrwt beam="1">  1        2 0.67695118E-01 0.10339364E+03</pdfrwt>
<pdfrwt beam="2">  1       -2 0.60913936E-02 0.10339364E+03</pdfrwt>
<totfact> 0.96795961E+03</totfact>
</mgrwt>
</event>
<event>
 8    1  0.3400573E-004  0.1315364E+03  0.7546771E-02  0.1225483E+00
          3   -1    0    0  501    0  0.00000000000E+00  0.00000000000E+00  0.97040485790E+02  0.97040485790E+02  0.00000000000E+00 0. -1.
         -3   -1    0    0    0  501 -0.00000000000E+00 -0.00000000000E+00 -0.20138180392E+03  0.20138180392E+03  0.00000000000E+00 0.  1.
         23    2    1    2    0    0 -0.94992549070E+02 -0.14172876044E+02 -0.10370879342E+03  0.16688441877E+03  0.88715503722E+02 0.  0.
         23    2    1    2    0    0  0.94992549070E+02  0.14172876044E+02 -0.63252471412E+00  0.13153787095E+03  0.89874115356E+02 0.  0.
          5    1    3    3  502    0 -0.17302010164E+02  0.21175862714E+02  0.54095858485E+01  0.28268893442E+02  0.47000000000E+01 0. -1.
         -5    1    3    3    0  502 -0.77690538906E+02 -0.35348738758E+02 -0.10911837926E+03  0.13861552532E+03  0.47000000000E+01 0.  1.
          5    1    4    4  503    0  0.37534706270E+02 -0.37843226325E+02  0.46595919616E+01  0.53710015367E+02  0.47000000000E+01 0. -1.
         -5    1    4    4    0  503  0.57457842800E+02  0.52016102370E+02 -0.52921166757E+01  0.77827855578E+02  0.47000000000E+01 0.  1.
<mgrwt>
<rscale>  0 0.13133868E+03</rscale>
<asrwt>0</asrwt>
<pdfrwt beam="1">  1        3 0.14929306E-01 0.13153635E+03</pdfrwt>
<pdfrwt beam="2">  1       -3 0.30981816E-01 0.13153635E+03</pdfrwt>
<totfact> 0.86912330E+02</totfact>
</mgrwt>
</event>
<event>
 8    1  0.3400573E-004  0.1201548E+03  0.7546771E-02  0.1244349E+00
         -1   -1    0    0    0  501 -0.00000000000E+00  0.00000000000E+00  0.74797567209E+02  0.74797567209E+02  0.00000000000E+00 0.  1.
          1   -1    0    0  501    0  0.00000000000E+00 -0.00000000000E+00 -0.20548753855E+03  0.20548753855E+03  0.00000000000E+00 0. -1.
         23    2    1    2    0    0 -0.66780886213E+02  0.24837758529E+02 -0.22720001745E+02  0.11874657142E+03  0.92238542556E+02 0.  0.
         23    2    1    2    0    0  0.66780886213E+02 -0.24837758529E+02 -0.10796996959E+03  0.16153853433E+03  0.96750104542E+02 0.  0.
          5    1    4    4  502    0 -0.13714469051E+02 -0.28529977108E+02 -0.78819928331E+01  0.32958490047E+02  0.47000000000E+01 0. -1.
         -5    1    3    3    0  503 -0.70622247670E+02  0.52554080850E+02 -0.18204672225E+02  0.90016295030E+02  0.47000000000E+01 0.  1.
          5    1    3    3  503    0  0.38413614575E+01 -0.27716322321E+02 -0.45153295206E+01  0.28730276391E+02  0.47000000000E+01 0. -1.
         -5    1    4    4    0  502  0.80495355264E+02  0.36922185787E+01 -0.10008797676E+03  0.12858004429E+03  0.47000000000E+01 0.  1.
<mgrwt>
<rscale>  0 0.11924401E+03</rscale>
<asrwt>0</asrwt>
<pdfrwt beam="1">  1        1 0.31613467E-01 0.12015483E+03</pdfrwt>
<pdfrwt beam="2">  1       -1 0.11507318E-01 0.12015483E+03</pdfrwt>
<totfact> 0.65379900E+03</totfact>
</mgrwt>
</event>
<event>
 8    1  0.3400573E-004  0.1646519E+03  0.7546771E-02  0.1183807E+00
          1   -1    0    0  501    0  0.00000000000E+00  0.00000000000E+00  0.83023916380E+02  0.83023916380E+02  0.00000000000E+00 0. -1.
         -1   -1    0    0    0  501 -0.00000000000E+00 -0.00000000000E+00 -0.39829136347E+03  0.39829136347E+03  0.00000000000E+00 0.  1.
         23    2    1    2    0    0 -0.57790661939E+02 -0.12293805265E+03 -0.26151477452E+03  0.30903113299E+03  0.93041595368E+02 0.  0.
         23    2    1    2    0    0  0.57790661939E+02  0.12293805265E+03 -0.53752672568E+02  0.17228414686E+03  0.91317862738E+02 0.  0.
          5    1    4    4  502    0  0.33989916255E+02  0.13265868960E+03 -0.39958868435E+02  0.14273206892E+03  0.47000000000E+01 0. -1.
         -5    1    3    3    0  503 -0.66517721713E+01 -0.10389938749E+03 -0.20699932254E+03  0.23175447855E+03  0.47000000000E+01 0.  1.
          5    1    3    3  503    0 -0.51138889767E+02 -0.19038665160E+02 -0.54515451979E+02  0.77276654445E+02  0.47000000000E+01 0. -1.
         -5    1    4    4    0  502  0.23800745683E+02 -0.97206369513E+01 -0.13793804133E+02  0.29552077935E+02  0.47000000000E+01 0.  1.
<mgrwt>
<rscale>  0 0.16440945E+03</rscale>
<asrwt>0</asrwt>
<pdfrwt beam="1">  1        1 0.12772910E-01 0.16465195E+03</pdfrwt>
<pdfrwt beam="2">  1       -1 0.61275595E-01 0.16465195E+03</pdfrwt>
<totfact> 0.12713638E+03</totfact>
</mgrwt>
</event>
<event>
 8    1  0.3400573E-004  0.1153280E+03  0.7546771E-02  0.1253173E+00
          1   -1    0    0  501    0  0.00000000000E+00  0.00000000000E+00  0.18950870503E+03  0.18950870503E+03  0.00000000000E+00 0. -1.
         -1   -1    0    0    0  501 -0.00000000000E+00 -0.00000000000E+00 -0.80869052982E+02  0.80869052982E+02  0.00000000000E+00 0.  1.
         23    2    1    2    0    0 -0.48086641435E+02  0.40686478433E+02 -0.21061658221E+01  0.11048658224E+03  0.90747640791E+02 0.  0.
         23    2    1    2    0    0  0.48086641435E+02 -0.40686478433E+02  0.11074581787E+03  0.15989117577E+03  0.96606611066E+02 0.  0.
          5    1    4    4  502    0  0.23859790017E+02 -0.71264716018E+02  0.81104461317E+02  0.11067056056E+03  0.47000000000E+01 0. -1.
         -5    1    4    4    0  502  0.24226851418E+02  0.30578237586E+02  0.29641356550E+02  0.49220615210E+02  0.47000000000E+01 0.  1.
          5    1    3    3  503    0 -0.68879976133E+02  0.61773857239E+01  0.41698327902E+01  0.69441260875E+02  0.47000000000E+01 0. -1.
         -5    1    3    3    0  503  0.20793334698E+02  0.34509092709E+02 -0.62759986122E+01  0.41045321366E+02  0.47000000000E+01 0.  1.
<mgrwt>
<rscale>  0 0.11409294E+03</rscale>
<asrwt>0</asrwt>
<pdfrwt beam="1">  1        1 0.29155185E-01 0.11532802E+03</pdfrwt>
<pdfrwt beam="2">  1       -1 0.12441393E-01 0.11532802E+03</pdfrwt>
<totfact> 0.63917876E+03</totfact>
</mgrwt>
</event>
<event>
 8    1  0.3400573E-004  0.1456424E+03  0.7546771E-02  0.1206029E+00
         -2   -1    0    0    0  501 -0.00000000000E+00  0.00000000000E+00  0.52767371360E+02  0.52767371360E+02  0.00000000000E+00 0.  1.
          2   -1    0    0  501    0  0.00000000000E+00 -0.00000000000E+00 -0.59713827094E+03  0.59713827094E+03  0.00000000000E+00 0. -1.
         23    2    1    2    0    0 -0.76693174091E+02 -0.83641068984E+02 -0.86211318740E+02  0.16924568513E+03  0.91290958383E+02 0.  0.
         23    2    1    2    0    0  0.76693174091E+02  0.83641068984E+02 -0.45815958084E+03  0.48065995717E+03  0.90808157896E+02 0.  0.
          5    1    4    4  502    0  0.86742069761E+02  0.47906501816E+02 -0.24640803645E+03  0.26562799176E+03  0.47000000000E+01 0. -1.
         -5    1    4    4    0  502 -0.10048895669E+02  0.35734567168E+02 -0.21175154439E+03  0.21503196541E+03  0.47000000000E+01 0.  1.
          5    1    3    3  503    0 -0.40273615603E+02 -0.15113414667E+01  0.52974589621E+01  0.40919449388E+02  0.47000000000E+01 0. -1.
         -5    1    3    3    0  503 -0.36419558488E+02 -0.82129727518E+02 -0.91508777702E+02  0.12832623574E+03  0.47000000000E+01 0.  1.
<mgrwt>
<rscale>  0 0.14556681E+03</rscale>
<asrwt>0</asrwt>
<pdfrwt beam="1">  1        2 0.91867432E-01 0.14564241E+03</pdfrwt>
<pdfrwt beam="2">  1       -2 0.81180566E-02 0.14564241E+03</pdfrwt>
<totfact> 0.45554295E+03</totfact>
</mgrwt>
</event>
<event>
 8    1  0.3400573E-004  0.1104962E+03  0.7546771E-02  0.1262640E+00
         -1   -1    0    0    0  501 -0.00000000000E+00  0.00000000000E+00  0.19349806553E+02  0.19349806553E+02  0.00000000000E+00 0.  1.
          1   -1    0    0  501    0  0.00000000000E+00 -0.00000000000E+00 -0.68623749591E+03  0.68623749591E+03  0.00000000000E+00 0. -1.
         23    2    1    2    0    0  0.21660878133E+01  0.56647048453E+02 -0.19679610428E+03  0.22268408555E+03  0.87440924419E+02 0.  0.
         23    2    1    2    0    0 -0.21660878133E+01 -0.56647048453E+02 -0.47009158508E+03  0.48290321691E+03  0.94846394284E+02 0.  0.
          5    1    4    4  502    0  0.11745622209E+02 -0.79603612579E+02 -0.39178407164E+03  0.39998942932E+03  0.47000000000E+01 0. -1.
         -5    1    4    4    0  502 -0.13911710022E+02  0.22956564126E+02 -0.78307513441E+02  0.82913787596E+02  0.47000000000E+01 0.  1.
          5    1    3    3  503    0  0.27244373315E+01  0.21440647648E+02 -0.18338448812E+03  0.18471351985E+03  0.47000000000E+01 0. -1.
         -5    1    3    3    0  503 -0.55834951819E+00  0.35206400805E+02 -0.13411616155E+02  0.37970565702E+02  0.47000000000E+01 0.  1.
<mgrwt>
<rscale>  0 0.10888971E+03</rscale>
<asrwt>0</asrwt>
<pdfrwt beam="1">  1        1 0.10557500E+00 0.11049624E+03</pdfrwt>
<pdfrwt beam="2">  1       -1 0.29768932E-02 0.11049624E+03</pdfrwt>
<totfact> 0.10444446E+04</totfact>
</mgrwt>
</event>
<event>
 8    1  0.3400573E-004  0.1188206E+03  0.7546771E-02  0.1246475E+00
         -3   -1    0    0    0  501 -0.00000000000E+00  0.00000000000E+00  0.98418952282E+02  0.98418952282E+02  0.00000000000E+00 0.  1.
          3   -1    0    0  501    0  0.00000000000E+00 -0.00000000000E+00 -0.18070520819E+03  0.18070520819E+03  0.00000000000E+00 0. -1.
         23    2    1    2    0    0  0.70535216405E+02  0.11811631566E+02  0.25994846566E+02  0.11836619819E+03  0.90664730912E+02 0.  0.
         23    2    1    2    0    0 -0.70535216405E+02 -0.11811631566E+02 -0.10828110248E+03  0.16075796229E+03  0.94887269391E+02 0.  0.
          5    1    3    3  502    0  0.30049417953E+02 -0.39347809365E+02  0.67810239417E+01  0.50192528396E+02  0.47000000000E+01 0. -1.
         -5    1    3    3    0  502  0.40485798452E+02  0.51159440931E+02  0.19213822624E+02  0.68173669789E+02  0.47000000000E+01 0.  1.
          5    1    4    4  503    0 -0.90646183362E+02 -0.46165063528E+01 -0.10461915083E+03  0.13858318588E+03  0.47000000000E+01 0. -1.
         -5    1    4    4    0  503  0.20110966957E+02 -0.71951252136E+01 -0.36619516445E+01  0.22174776406E+02  0.47000000000E+01 0.  1.
<mgrwt>
<rscale>  0 0.11797558E+03</rscale>
<asrwt>0</asrwt>
<pdfrwt beam="1">  1        3 0.27800801E-01 0.11882056E+03</pdfrwt>
<pdfrwt beam="2">  1       -3 0.15141377E-01 0.11882056E+03</pdfrwt>
<totfact> 0.10187503E+03</totfact>
</mgrwt>
</event>
<event>
 8    1  0.3400573E-004  0.1072052E+03  0.7546771E-02  0.1265840E+00
         -2   -1    0    0    0  501 -0.00000000000E+00  0.00000000000E+00  0.98367194560E+01  0.98367194560E+01  0.00000000000E+00 0.  1.
          2   -1    0    0  501    0  0.00000000000E+00 -0.00000000000E+00 -0.11911507795E+04  0.11911507795E+04  0.00000000000E+00 0. -1.
         23    2    1    2    0    0  0.34419434581E+02  0.44933024198E+02 -0.67388290249E+03  0.68235532454E+03  0.91032678297E+02 0.  0.
         23    2    1    2    0    0 -0.34419434581E+02 -0.44933024198E+02 -0.50743115755E+03  0.51863217441E+03  0.91045475140E+02 0.  0.
          5    1    4    4  502    0 -0.11173820905E+02 -0.69117980998E+02 -0.39589367904E+03  0.40206472697E+03  0.47000000000E+01 0. -1.
         -5    1    4    4    0  502 -0.23245613676E+02  0.24184956801E+02 -0.11153747851E+03  0.11656744744E+03  0.47000000000E+01 0.  1.
          5    1    3    3  503    0  0.59882219758E+02  0.62301923999E+01 -0.40292699835E+03  0.40742723466E+03  0.47000000000E+01 0. -1.
         -5    1    3    3    0  503 -0.25462785177E+02  0.38702831798E+02 -0.27095590414E+03  0.27492808988E+03  0.47000000000E+01 0.  1.
<mgrwt>
<rscale>  0 0.10720247E+03</rscale>
<asrwt>0</asrwt>
<pdfrwt beam="1">  1        2 0.18325397E+00 0.10720519E+03</pdfrwt>
<pdfrwt beam="2">  1       -2 0.15133414E-02 0.10720519E+03</pdfrwt>
<totfact> 0.22125885E+04</totfact>
</mgrwt>
</event>
<event>
 8    1  0.3400573E-004  0.9538431E+02  0.7546771E-02  0.1290885E+00
         -3   -1    0    0    0  501 -0.00000000000E+00  0.00000000000E+00  0.79123734621E+02  0.79123734621E+02  0.00000000000E+00 0.  1.
          3   -1    0    0  501    0  0.00000000000E+00 -0.00000000000E+00 -0.11796072337E+03  0.11796072337E+03  0.00000000000E+00 0. -1.
         23    2    1    2    0    0  0.93023314101E+01  0.10153673016E+02 -0.38103582432E+02  0.10271343425E+03  0.94385041910E+02 0.  0.
         23    2    1    2    0    0 -0.93023314101E+01 -0.10153673016E+02 -0.73340631216E+00  0.94371023734E+02  0.93358030134E+02 0.  0.
          5    1    3    3  502    0  0.32687510050E+02  0.12995175223E+02  0.19363734330E+02  0.40427615556E+02  0.47000000000E+01 0. -1.
         -5    1    4    4    0  503 -0.59299813381E+00 -0.40303623629E+02  0.29789625012E+02  0.50341290039E+02  0.47000000000E+01 0.  1.
          5    1    4    4  503    0 -0.87093332763E+01  0.30149950613E+02 -0.30523031324E+02  0.44029733695E+02  0.47000000000E+01 0. -1.
         -5    1    3    3    0  502 -0.23385178640E+02 -0.28415022067E+01 -0.57467316762E+02  0.62285818696E+02  0.47000000000E+01 0.  1.
<mgrwt>
<rscale>  0 0.95129255E+02</rscale>
<asrwt>0</asrwt>
<pdfrwt beam="1">  1        3 0.18147804E-01 0.95384310E+02</pdfrwt>
<pdfrwt beam="2">  1       -3 0.12172882E-01 0.95384310E+02</pdfrwt>
<totfact> 0.30108628E+03</totfact>
</mgrwt>
</event>
<event>
 8    1  0.3400573E-004  0.9430984E+02  0.7546771E-02  0.1292981E+00
         -2   -1    0    0    0  501 -0.00000000000E+00  0.00000000000E+00  0.72060062166E+02  0.72060062166E+02  0.00000000000E+00 0.  1.
          2   -1    0    0  501    0  0.00000000000E+00 -0.00000000000E+00 -0.13365198902E+03  0.13365198902E+03  0.00000000000E+00 0. -1.
         23    2    1    2    0    0  0.18794487033E+02  0.10670134581E+02 -0.59941456411E+02  0.11138777072E+03  0.91362863103E+02 0.  0.
         23    2    1    2    0    0 -0.18794487033E+02 -0.10670134581E+02 -0.16504704479E+01  0.94324280472E+02  0.91800116117E+02 0.  0.
          5    1    4    4  502    0 -0.18730603843E+02 -0.40569700800E+02 -0.29044393667E+02  0.53501429390E+02  0.47000000000E+01 0. -1.
         -5    1    4    4    0  502 -0.63883189969E-01  0.29899566219E+02  0.27393923219E+02  0.40822851082E+02  0.47000000000E+01 0.  1.
          5    1    3    3  503    0 -0.19015255953E+02  0.39293068398E+02 -0.16494639850E+02  0.46900835034E+02  0.47000000000E+01 0. -1.
         -5    1    3    3    0  503  0.37809742985E+02 -0.28622933817E+02 -0.43446816561E+02  0.64486935686E+02  0.47000000000E+01 0.  1.
<mgrwt>
<rscale>  0 0.94203268E+02</rscale>
<asrwt>0</asrwt>
<pdfrwt beam="1">  1        2 0.20561844E-01 0.94309840E+02</pdfrwt>
<pdfrwt beam="2">  1       -2 0.11086164E-01 0.94309840E+02</pdfrwt>
<totfact> 0.13651372E+04</totfact>
</mgrwt>
</event>
<event>
 8    1  0.3400573E-004  0.1192828E+03  0.7546771E-02  0.1245854E+00
         -2   -1    0    0    0  501 -0.00000000000E+00  0.00000000000E+00  0.30554835327E+03  0.30554835327E+03  0.00000000000E+00 0.  1.
          2   -1    0    0  501    0  0.00000000000E+00 -0.00000000000E+00 -0.13231978063E+03  0.13231978063E+03  0.00000000000E+00 0. -1.
         23    2    1    2    0    0  0.65391076118E+02 -0.27725546767E+02  0.26479261523E+03  0.29041953326E+03  0.95831505468E+02 0.  0.
         23    2    1    2    0    0 -0.65391076118E+02  0.27725546767E+02 -0.91564042580E+02  0.14744860064E+03  0.91172458330E+02 0.  0.
          5    1    4    4  502    0 -0.44698848934E+02  0.33883685815E+02 -0.10672099479E+03  0.12065468076E+03  0.47000000000E+01 0. -1.
         -5    1    4    4    0  502 -0.20692227183E+02 -0.61581390481E+01  0.15156952209E+02  0.26793919881E+02  0.47000000000E+01 0.  1.
          5    1    3    3  503    0  0.12904888495E+02  0.29630193015E+02  0.35396261886E+02  0.48160874583E+02  0.47000000000E+01 0. -1.
         -5    1    3    3    0  503  0.52486187622E+02 -0.57355739782E+02  0.22939635334E+03  0.24225865867E+03  0.47000000000E+01 0.  1.
<mgrwt>
<rscale>  0 0.11834430E+03</rscale>
<asrwt>0</asrwt>
<pdfrwt beam="1">  1        2 0.20356889E-01 0.11928276E+03</pdfrwt>
<pdfrwt beam="2">  1       -2 0.47007439E-01 0.11928276E+03</pdfrwt>
<totfact> 0.11539793E+03</totfact>
</mgrwt>
</event>
<event>
 8    1  0.3400573E-004  0.1028544E+03  0.7546771E-02  0.1275551E+00
          2   -1    0    0  501    0  0.00000000000E+00  0.00000000000E+00  0.44601678213E+03  0.44601678213E+03  0.00000000000E+00 0. -1.
         -2   -1    0    0    0  501 -0.00000000000E+00 -0.00000000000E+00 -0.28330549594E+02  0.28330549594E+02  0.00000000000E+00 0.  1.
         23    2    1    2    0    0  0.25442271894E+02 -0.39034166756E+02  0.10609828024E+03  0.14622223888E+03  0.89180282020E+02 0.  0.
         23    2    1    2    0    0 -0.25442271894E+02  0.39034166756E+02  0.31158795230E+03  0.32812509284E+03  0.91695415160E+02 0.  0.
          5    1    4    4  502    0 -0.11376090420E+02  0.56532815131E+02  0.29283818677E+03  0.29849902554E+03  0.47000000000E+01 0. -1.
         -5    1    3    3    0  503  0.54220888607E+02 -0.12212940797E+02  0.38181489793E+02  0.67594207201E+02  0.47000000000E+01 0.  1.
          5    1    3    3  503    0 -0.28778616714E+02 -0.26821225959E+02  0.67916790445E+02  0.78628031683E+02  0.47000000000E+01 0. -1.
         -5    1    4    4    0  502 -0.14066181473E+02 -0.17498648375E+02  0.18749765529E+02  0.29626067299E+02  0.47000000000E+01 0.  1.
<mgrwt>
<rscale>  0 0.10229082E+03</rscale>
<asrwt>0</asrwt>
<pdfrwt beam="1">  1        2 0.68617961E-01 0.10285439E+03</pdfrwt>
<pdfrwt beam="2">  1       -2 0.43585464E-02 0.10285439E+03</pdfrwt>
<totfact> 0.15720585E+04</totfact>
</mgrwt>
</event>
<event>
 8    1  0.3400573E-004  0.1424620E+03  0.7546771E-02  0.1210266E+00
          1   -1    0    0  501    0  0.00000000000E+00  0.00000000000E+00  0.95995773396E+03  0.95995773396E+03  0.00000000000E+00 0. -1.
         -1   -1    0    0    0  501 -0.00000000000E+00 -0.00000000000E+00 -0.57832687247E+02  0.57832687247E+02  0.00000000000E+00 0.  1.
         23    2    1    2    0    0  0.44599975182E+02  0.99566434846E+02  0.44823791055E+02  0.14873295686E+03  0.90607325732E+02 0.  0.
         23    2    1    2    0    0 -0.44599975182E+02 -0.99566434846E+02  0.85730125566E+03  0.86905746435E+03  0.91612229852E+02 0.  0.
          5    1    3    3  502    0 -0.21571802589E+02  0.16730196711E+02 -0.97892516026E+01  0.29379611909E+02  0.47000000000E+01 0. -1.
         -5    1    4    4    0  503  0.21592381096E+02 -0.27114954360E+02  0.11273194380E+03  0.11803403248E+03  0.47000000000E+01 0.  1.
          5    1    4    4  503    0 -0.66192356278E+02 -0.72451480485E+02  0.74456931186E+03  0.75102343187E+03  0.47000000000E+01 0. -1.
         -5    1    3    3    0  502  0.66171777772E+02  0.82836238134E+02  0.54613042658E+02  0.11935334495E+03  0.47000000000E+01 0.  1.
<mgrwt>
<rscale>  0 0.14230074E+03</rscale>
<asrwt>0</asrwt>
<pdfrwt beam="1">  1        1 0.14768579E+00 0.14246204E+03</pdfrwt>
<pdfrwt beam="2">  1       -1 0.88973372E-02 0.14246204E+03</pdfrwt>
<totfact> 0.12540724E+03</totfact>
</mgrwt>
</event>
<event>
 8    1  0.3400573E-004  0.9176359E+02  0.7546771E-02  0.1299922E+00
         -4   -1    0    0    0  501 -0.00000000000E+00  0.00000000000E+00  0.26706625078E+03  0.26706625078E+03  0.00000000000E+00 0.  1.
          4   -1    0    0  501    0  0.00000000000E+00 -0.00000000000E+00 -0.30801730666E+02  0.30801730666E+02  0.00000000000E+00 0. -1.
         23    2    1    2    0    0  0.24030947502E+01 -0.53178040518E+01  0.11894379565E+03  0.14892266287E+03  0.89421916146E+02 0.  0.
         23    2    1    2    0    0 -0.24030947502E+01  0.53178040518E+01  0.11732072446E+03  0.14894531858E+03  0.91577844669E+02 0.  0.
          5    1    3    3  502    0  0.38057031282E+02 -0.25175598603E+02  0.80537261796E+02  0.92684890530E+02  0.47000000000E+01 0. -1.
         -5    1    3    3    0  502 -0.35653936532E+02  0.19857794551E+02  0.38406533856E+02  0.56237772337E+02  0.47000000000E+01 0.  1.
          5    1    4    4  503    0  0.31760657316E+02  0.33540555404E+02  0.50213365977E+02  0.68389913969E+02  0.47000000000E+01 0.  1.
         -5    1    4    4    0  503 -0.34163752066E+02 -0.28222751352E+02  0.67107358487E+02  0.80555404612E+02  0.47000000000E+01 0. -1.
<mgrwt>
<rscale>  0 0.91220925E+02</rscale>
<asrwt>0</asrwt>
<pdfrwt beam="1">  1        4 0.47387280E-02 0.91763585E+02</pdfrwt>
<pdfrwt beam="2">  1       -4 0.41087114E-01 0.91763585E+02</pdfrwt>
<totfact> 0.22407481E+03</totfact>
</mgrwt>
</event>
<event>
 8    1  0.3400573E-004  0.1058549E+03  0.7546771E-02  0.1269292E+00
         -2   -1    0    0    0  501 -0.00000000000E+00  0.00000000000E+00  0.31812626934E+02  0.31812626934E+02  0.00000000000E+00 0.  1.
          2   -1    0    0  501    0  0.00000000000E+00 -0.00000000000E+00 -0.38021842980E+03  0.38021842980E+03  0.00000000000E+00 0. -1.
         23    2    1    2    0    0  0.49778409163E+02  0.20118446027E+02 -0.23423580336E+03  0.25633890350E+03  0.89222082382E+02 0.  0.
         23    2    1    2    0    0 -0.49778409163E+02 -0.20118446027E+02 -0.11416999951E+03  0.15569215323E+03  0.91228372236E+02 0.  0.
          5    1    4    4  502    0 -0.43005146362E+02 -0.46290898419E+02 -0.11134140882E+03  0.12810655412E+03  0.47000000000E+01 0. -1.
         -5    1    4    4    0  502 -0.67732628009E+01  0.26172452392E+02 -0.28285906892E+01  0.27585599114E+02  0.47000000000E+01 0.  1.
          5    1    3    3  503    0 -0.18291890711E+02 -0.96003277631E+01 -0.10578193706E+03  0.10788265740E+03  0.47000000000E+01 0. -1.
         -5    1    3    3    0  503  0.68070299874E+02  0.29718773790E+02 -0.12845386630E+03  0.14845624610E+03  0.47000000000E+01 0.  1.
<mgrwt>
<rscale>  0 0.10542121E+03</rscale>
<asrwt>0</asrwt>
<pdfrwt beam="1">  1        2 0.58495142E-01 0.10585489E+03</pdfrwt>
<pdfrwt beam="2">  1       -2 0.48942504E-02 0.10585489E+03</pdfrwt>
<totfact> 0.15718058E+04</totfact>
</mgrwt>
</event>
<event>
 8    1  0.3400573E-004  0.1223940E+03  0.7546771E-02  0.1241720E+00
          2   -1    0    0  501    0  0.00000000000E+00  0.00000000000E+00  0.32687767574E+03  0.32687767574E+03  0.00000000000E+00 0. -1.
         -2   -1    0    0    0  501 -0.00000000000E+00 -0.00000000000E+00 -0.90036511281E+02  0.90036511281E+02  0.00000000000E+00 0.  1.
         23    2    1    2    0    0  0.36181760057E+02 -0.64537706976E+02 -0.29841878471E+02  0.12597948302E+03  0.97499010499E+02 0.  0.
         23    2    1    2    0    0 -0.36181760057E+02  0.64537706976E+02  0.26668304293E+03  0.29093470400E+03  0.89715780243E+02 0.  0.
          5    1    4    4  502    0  0.16911216184E+02  0.32538416510E+02  0.18293796590E+03  0.18663635002E+03  0.47000000000E+01 0. -1.
         -5    1    4    4    0  502 -0.53092976241E+02  0.31999290466E+02  0.83745077028E+02  0.10429835398E+03  0.47000000000E+01 0.  1.
          5    1    3    3  503    0  0.31543286538E+02  0.82980637051E+01  0.18996949692E+02  0.38036967341E+02  0.47000000000E+01 0. -1.
         -5    1    3    3    0  503  0.46384735191E+01 -0.72835770681E+02 -0.48838828163E+02  0.87942515677E+02  0.47000000000E+01 0.  1.
<mgrwt>
<rscale>  0 0.12083837E+03</rscale>
<asrwt>0</asrwt>
<pdfrwt beam="1">  1        2 0.50288873E-01 0.12239400E+03</pdfrwt>
<pdfrwt beam="2">  1       -2 0.13851771E-01 0.12239400E+03</pdfrwt>
<totfact> 0.37348239E+03</totfact>
</mgrwt>
</event>
<event>
 8    1  0.3400573E-004  0.1146530E+03  0.7546771E-02  0.1254365E+00
         -2   -1    0    0    0  501 -0.00000000000E+00  0.00000000000E+00  0.10322908898E+02  0.10322908898E+02  0.00000000000E+00 0.  1.
          2   -1    0    0  501    0  0.00000000000E+00 -0.00000000000E+00 -0.12200874160E+04  0.12200874160E+04  0.00000000000E+00 0. -1.
         23    2    1    2    0    0 -0.65765828155E+02  0.89555191442E+01 -0.61954777404E+03  0.63006726416E+03  0.93487793711E+02 0.  0.
         23    2    1    2    0    0  0.65765828155E+02 -0.89555191442E+01 -0.59021673302E+03  0.60034306070E+03  0.87468011941E+02 0.  0.
          5    1    4    4  502    0 -0.27039192360E+01  0.22445361002E+02 -0.52475879074E+02  0.57331608161E+02  0.47000000000E+01 0. -1.
         -5    1    4    4    0  502  0.68469747391E+02 -0.31400880146E+02 -0.53774085395E+03  0.54301145253E+03  0.47000000000E+01 0.  1.
          5    1    3    3  503    0 -0.36819875056E+02  0.37515754026E+02 -0.51646179321E+03  0.51915123890E+03  0.47000000000E+01 0. -1.
         -5    1    3    3    0  503 -0.28945953099E+02 -0.28560234882E+02 -0.10308598083E+03  0.11091602527E+03  0.47000000000E+01 0.  1.
<mgrwt>
<rscale>  0 0.11341996E+03</rscale>
<asrwt>0</asrwt>
<pdfrwt beam="1">  1        2 0.18770583E+00 0.11465301E+03</pdfrwt>
<pdfrwt beam="2">  1       -2 0.15881392E-02 0.11465301E+03</pdfrwt>
<totfact> 0.20006058E+04</totfact>
</mgrwt>
</event>
<event>
 8    1  0.3400573E-004  0.1008341E+03  0.7546771E-02  0.1279489E+00
         -2   -1    0    0    0  501 -0.00000000000E+00  0.00000000000E+00  0.10471322709E+02  0.10471322709E+02  0.00000000000E+00 0.  1.
          2   -1    0    0  501    0  0.00000000000E+00 -0.00000000000E+00 -0.10037308048E+04  0.10037308048E+04  0.00000000000E+00 0. -1.
         23    2    1    2    0    0  0.22996914828E+02 -0.25516608407E+02 -0.60542760317E+03  0.61347642578E+03  0.92902028576E+02 0.  0.
         23    2    1    2    0    0 -0.22996914828E+02  0.25516608407E+02 -0.38783187896E+03  0.40072570177E+03  0.94802775922E+02 0.  0.
          5    1    4    4  502    0 -0.35533284679E+01  0.52256539976E+02 -0.32814491632E+03  0.33233198495E+03  0.47000000000E+01 0. -1.
         -5    1    4    4    0  502 -0.19443586360E+02 -0.26739931569E+02 -0.59686962636E+02  0.68393716814E+02  0.47000000000E+01 0.  1.
          5    1    3    3  503    0 -0.36026822238E+02 -0.70148758493E+01 -0.23087651873E+03  0.23382300423E+03  0.47000000000E+01 0. -1.
         -5    1    3    3    0  503  0.59023737066E+02 -0.18501732558E+02 -0.37455108444E+03  0.37965342155E+03  0.47000000000E+01 0.  1.
<mgrwt>
<rscale>  0 0.10038490E+03</rscale>
<asrwt>0</asrwt>
<pdfrwt beam="1">  1        2 0.15442016E+00 0.10083413E+03</pdfrwt>
<pdfrwt beam="2">  1       -2 0.16109724E-02 0.10083413E+03</pdfrwt>
<totfact> 0.25703727E+04</totfact>
</mgrwt>
</event>
<event>
 8    1  0.3400573E-004  0.9518250E+02  0.7546771E-02  0.1292263E+00
         -1   -1    0    0    0  501 -0.00000000000E+00  0.00000000000E+00  0.51329799494E+03  0.51329799494E+03  0.00000000000E+00 0.  1.
          1   -1    0    0  501    0  0.00000000000E+00 -0.00000000000E+00 -0.21454906907E+02  0.21454906907E+02  0.00000000000E+00 0. -1.
         23    2    1    2    0    0  0.14422708426E+02 -0.40493296593E+01  0.12363631792E+03  0.15444258888E+03  0.91335439783E+02 0.  0.
         23    2    1    2    0    0 -0.14422708426E+02  0.40493296593E+01  0.36820677011E+03  0.38031031297E+03  0.93996260603E+02 0.  0.
          5    1    4    4  502    0  0.76335672944E+00 -0.44055090077E+02  0.18437604820E+03  0.18962608161E+03  0.47000000000E+01 0. -1.
         -5    1    4    4    0  502 -0.15186065156E+02  0.48104419736E+02  0.18383072191E+03  0.19068423137E+03  0.47000000000E+01 0.  1.
          5    1    3    3  503    0  0.43544695796E+02 -0.27739882535E+02  0.51996059014E+02  0.73425620651E+02  0.47000000000E+01 0. -1.
         -5    1    3    3    0  503 -0.29121987370E+02  0.23690552875E+02  0.71640258909E+02  0.81016968226E+02  0.47000000000E+01 0.  1.
<mgrwt>
<rscale>  0 0.94518916E+02</rscale>
<asrwt>0</asrwt>
<pdfrwt beam="1">  1        1 0.33007553E-02 0.95182502E+02</pdfrwt>
<pdfrwt beam="2">  1       -1 0.78968913E-01 0.95182502E+02</pdfrwt>
<totfact> 0.46443504E+03</totfact>
</mgrwt>
</event>
<event>
 8    1  0.3400573E-004  0.1155734E+03  0.7546771E-02  0.1250813E+00
          2   -1    0    0  501    0  0.00000000000E+00  0.00000000000E+00  0.83180257769E+03  0.83180257769E+03  0.00000000000E+00 0. -1.
         -2   -1    0    0    0  501 -0.00000000000E+00 -0.00000000000E+00 -0.36221834640E+02  0.36221834640E+02  0.00000000000E+00 0.  1.
         23    2    1    2    0    0 -0.15148099481E+02  0.69916065372E+02  0.73786151869E+02  0.13711894880E+03  0.90771629911E+02 0.  0.
         23    2    1    2    0    0  0.15148099481E+02 -0.69916065372E+02  0.72179459118E+03  0.73090546353E+03  0.90097966943E+02 0.  0.
          5    1    4    4  502    0 -0.32608411776E+02 -0.51530052326E+02  0.46630609564E+03  0.47030003151E+03  0.47000000000E+01 0. -1.
         -5    1    4    4    0  502  0.47756511257E+02 -0.18386013046E+02  0.25548849554E+03  0.26060543202E+03  0.47000000000E+01 0.  1.
          5    1    3    3  503    0 -0.23980368217E+02  0.18317401312E+02 -0.14936396167E+02  0.33996634850E+02  0.47000000000E+01 0. -1.
         -5    1    3    3    0  503  0.88322687356E+01  0.51598664060E+02  0.88722548036E+02  0.10312231395E+03  0.47000000000E+01 0.  1.
<mgrwt>
<rscale>  0 0.11544108E+03</rscale>
<asrwt>0</asrwt>
<pdfrwt beam="1">  1        2 0.12796961E+00 0.11557340E+03</pdfrwt>
<pdfrwt beam="2">  1       -2 0.55725906E-02 0.11557340E+03</pdfrwt>
<totfact> 0.53916922E+03</totfact>
</mgrwt>
</event>
<event>
 8    1  0.3400573E-004  0.1383114E+03  0.7546771E-02  0.1216786E+00
          2   -1    0    0  501    0  0.00000000000E+00  0.00000000000E+00  0.32103942475E+03  0.32103942475E+03  0.00000000000E+00 0. -1.
         -2   -1    0    0    0  501 -0.00000000000E+00 -0.00000000000E+00 -0.71913116986E+02  0.71913116986E+02  0.00000000000E+00 0.  1.
         23    2    1    2    0    0  0.38829605882E+02 -0.96881725140E+02  0.37358397872E+02  0.14001836855E+03  0.85531787548E+02 0.  0.
         23    2    1    2    0    0 -0.38829605882E+02  0.96881725140E+02  0.21176790989E+03  0.25293417319E+03  0.90753740122E+02 0.  0.
          5    1    3    3  502    0 -0.24245222309E+02 -0.94648067700E+01  0.22173827872E+01  0.26540914800E+02  0.47000000000E+01 0. -1.
         -5    1    4    4    0  503 -0.63380903395E+02  0.37299706751E+02  0.11163377080E+03  0.13376320802E+03  0.47000000000E+01 0.  1.
          5    1    4    4  503    0  0.24551297514E+02  0.59582018389E+02  0.10013413910E+03  0.11917096516E+03  0.47000000000E+01 0. -1.
         -5    1    3    3    0  502  0.63074828191E+02 -0.87416918370E+02  0.35141015084E+02  0.11347745375E+03  0.47000000000E+01 0.  1.
<mgrwt>
<rscale>  0 0.13746140E+03</rscale>
<asrwt>0</asrwt>
<pdfrwt beam="1">  1        2 0.49390680E-01 0.13831142E+03</pdfrwt>
<pdfrwt beam="2">  1       -2 0.11063557E-01 0.13831142E+03</pdfrwt>
<totfact> 0.54915746E+03</totfact>
</mgrwt>
</event>
<event>
 8    1  0.3400573E-004  0.1228249E+03  0.7546771E-02  0.1239081E+00
         -1   -1    0    0    0  501 -0.00000000000E+00  0.00000000000E+00  0.96024934113E+02  0.96024934113E+02  0.00000000000E+00 0.  1.
          1   -1    0    0  501    0  0.00000000000E+00 -0.00000000000E+00 -0.17869175537E+03  0.17869175537E+03  0.00000000000E+00 0. -1.
         23    2    1    2    0    0  0.59113856881E+02 -0.52760293314E+02  0.81661728381E+01  0.12309603336E+03  0.93850148770E+02 0.  0.
         23    2    1    2    0    0 -0.59113856881E+02  0.52760293314E+02 -0.90832994095E+02  0.15162065612E+03  0.91978768860E+02 0.  0.
          5    1    4    4  502    0 -0.68138072610E+02  0.33344464109E+02 -0.21620892202E+02  0.79020270850E+02  0.47000000000E+01 0. -1.
         -5    1    3    3    0  503  0.42477651705E+01 -0.63297373651E+02 -0.94854042479E+01  0.64316902240E+02  0.47000000000E+01 0.  1.
          5    1    3    3  503    0  0.54866091711E+02  0.10537080336E+02  0.17651577086E+02  0.58779131120E+02  0.47000000000E+01 0. -1.
         -5    1    4    4    0  502  0.90242157287E+01  0.19415829205E+02 -0.69212101893E+02  0.72600385272E+02  0.47000000000E+01 0.  1.
<mgrwt>
<rscale>  0 0.12246733E+03</rscale>
<asrwt>0</asrwt>
<pdfrwt beam="1">  1        1 0.27491039E-01 0.12282486E+03</pdfrwt>
<pdfrwt beam="2">  1       -1 0.14773067E-01 0.12282486E+03</pdfrwt>
<totfact> 0.52905976E+03</totfact>
</mgrwt>
</event>
<event>
 8    1  0.4341008E-004  0.1409480E+03  0.7546771E-02  0.1212117E+00
         -1   -1    0    0    0  501 -0.00000000000E+00  0.00000000000E+00  0.15985043165E+03  0.15985043165E+03  0.00000000000E+00 0.  1.
          1   -1    0    0  501    0  0.00000000000E+00 -0.00000000000E+00 -0.54431617888E+03  0.54431617888E+03  0.00000000000E+00 0. -1.
         23    2    1    2    0    0  0.84613189653E+02 -0.63903929735E+02 -0.50154976673E+03  0.52093174359E+03  0.92599184002E+02 0.  0.
         23    2    1    2    0    0 -0.84613189653E+02  0.63903929735E+02  0.11708401949E+03  0.18323486694E+03  0.92861427635E+02 0.  0.
          5    1    3    3  502    0  0.65028843221E+02 -0.55904232262E+02 -0.48771947952E+03  0.49522360035E+03  0.47000000000E+01 0. -1.
         -5    1    4    4    0  503 -0.20752614549E+02  0.10090669750E+02  0.93371857039E+02  0.96295827083E+02  0.47000000000E+01 0.  1.
          5    1    4    4  503    0 -0.63860575104E+02  0.53813259984E+02  0.23712162453E+02  0.86939039855E+02  0.47000000000E+01 0. -1.
         -5    1    3    3    0  502  0.19584346433E+02 -0.79996974723E+01 -0.13830287204E+02  0.25708143242E+02  0.47000000000E+01 0.  1.
<mgrwt>
<rscale>  0 0.14090486E+03</rscale>
<asrwt>0</asrwt>
<pdfrwt beam="1">  1        1 0.83740952E-01 0.14094804E+03</pdfrwt>
<pdfrwt beam="2">  1       -1 0.24592374E-01 0.14094804E+03</pdfrwt>
<totfact> 0.58187330E+02</totfact>
</mgrwt>
</event>
<event>
 8    1  0.3400573E-004  0.9489309E+02  0.7546771E-02  0.1292101E+00
         -2   -1    0    0    0  501 -0.00000000000E+00  0.00000000000E+00  0.11171004663E+03  0.11171004663E+03  0.00000000000E+00 0.  1.
          2   -1    0    0  501    0  0.00000000000E+00 -0.00000000000E+00 -0.30664465404E+03  0.30664465404E+03  0.00000000000E+00 0. -1.
         23    2    1    2    0    0 -0.11772885491E+01  0.10919642849E+02  0.82366709685E+02  0.12565418483E+03  0.94255369567E+02 0.  0.
         23    2    1    2    0    0  0.11772885491E+01 -0.10919642849E+02 -0.27730131709E+03  0.29270051584E+03  0.93042715469E+02 0.  0.
          5    1    4    4  502    0 -0.59433792081E+01 -0.40556329977E+02 -0.24339226464E+03  0.24686438411E+03  0.47000000000E+01 0. -1.
         -5    1    3    3    0  503  0.21863563735E+02 -0.30556004756E+01  0.93451758236E+02  0.96138822704E+02  0.47000000000E+01 0.  1.
          5    1    3    3  503    0 -0.23040852284E+02  0.13975243325E+02 -0.11085048551E+02  0.29515362124E+02  0.47000000000E+01 0. -1.
         -5    1    4    4    0  502  0.71206677572E+01  0.29636687128E+02 -0.33909052458E+02  0.45836131728E+02  0.47000000000E+01 0.  1.
<mgrwt>
<rscale>  0 0.94590550E+02</rscale>
<asrwt>0</asrwt>
<pdfrwt beam="1">  1        2 0.47176100E-01 0.94893094E+02</pdfrwt>
<pdfrwt beam="2">  1       -2 0.17186161E-01 0.94893094E+02</pdfrwt>
<totfact> 0.27737564E+03</totfact>
</mgrwt>
</event>
<event>
 8    1  0.3400573E-004  0.1329873E+03  0.7546771E-02  0.1224338E+00
          2   -1    0    0  501    0  0.00000000000E+00  0.00000000000E+00  0.23613204357E+03  0.23613204357E+03  0.00000000000E+00 0. -1.
         -2   -1    0    0    0  501 -0.00000000000E+00 -0.00000000000E+00 -0.14652124836E+03  0.14652124836E+03  0.00000000000E+00 0.  1.
         23    2    1    2    0    0 -0.84155629767E+01 -0.92479204929E+02 -0.90442094601E+02  0.16082722759E+03  0.95196636568E+02 0.  0.
         23    2    1    2    0    0  0.84155629767E+01  0.92479204929E+02  0.18005288981E+03  0.22182606434E+03  0.90357814552E+02 0.  0.
          5    1    3    3  502    0  0.28009267709E+02 -0.88225315254E+01  0.33058090760E+01  0.29922809256E+02  0.47000000000E+01 0. -1.
         -5    1    4    4    0  503  0.24230195815E+02  0.24102548524E+01  0.65608343205E+01  0.25652412453E+02  0.47000000000E+01 0.  1.
          5    1    4    4  503    0 -0.15814632839E+02  0.90068950077E+02  0.17349205549E+03  0.19617365189E+03  0.47000000000E+01 0. -1.
         -5    1    3    3    0  502 -0.36424830686E+02 -0.83656673404E+02 -0.93747903677E+02  0.13090441833E+03  0.47000000000E+01 0.  1.
<mgrwt>
<rscale>  0 0.13212401E+03</rscale>
<asrwt>0</asrwt>
<pdfrwt beam="1">  1        2 0.36328007E-01 0.13298731E+03</pdfrwt>
<pdfrwt beam="2">  1       -2 0.22541731E-01 0.13298731E+03</pdfrwt>
<totfact> 0.23531464E+03</totfact>
</mgrwt>
</event>
<event>
 8    1  0.3400573E-004  0.1811726E+03  0.7546771E-02  0.1167271E+00
         -2   -1    0    0    0  501 -0.00000000000E+00  0.00000000000E+00  0.24065501700E+02  0.24065501700E+02  0.00000000000E+00 0.  1.
          2   -1    0    0  501    0  0.00000000000E+00 -0.00000000000E+00 -0.18045358059E+04  0.18045358059E+04  0.00000000000E+00 0. -1.
         23    2    1    2    0    0 -0.15589901130E+03 -0.10500331147E+02 -0.13560066956E+04  0.13680561605E+04  0.91699188074E+02 0.  0.
         23    2    1    2    0    0  0.15589901130E+03  0.10500331147E+02 -0.42446360863E+03  0.46054514713E+03  0.86704779648E+02 0.  0.
          5    1    4    4  502    0  0.28398607201E+02 -0.12200526893E+02 -0.19086288502E+03  0.19340647514E+03  0.47000000000E+01 0. -1.
         -5    1    4    4    0  502  0.12750040410E+03  0.22700858040E+02 -0.23360072361E+03  0.26713867199E+03  0.47000000000E+01 0.  1.
          5    1    3    3  503    0 -0.13834973341E+03 -0.41865845022E+02 -0.11146076248E+04  0.11239509086E+04  0.47000000000E+01 0. -1.
         -5    1    3    3    0  503 -0.17549277887E+02  0.31365513875E+02 -0.24139907084E+03  0.24410525193E+03  0.47000000000E+01 0.  1.
<mgrwt>
<rscale>  0 0.18055038E+03</rscale>
<asrwt>0</asrwt>
<pdfrwt beam="1">  1        2 0.27762091E+00 0.18117257E+03</pdfrwt>
<pdfrwt beam="2">  1       -2 0.37023846E-02 0.18117257E+03</pdfrwt>
<totfact> 0.29085463E+03</totfact>
</mgrwt>
</event>
<event>
 7    1  0.3400573E-004  0.5885900E+03  0.7546771E-02  0.9929365E-01
          1   -1    0    0  501    0  0.00000000000E+00  0.00000000000E+00  0.23448966561E+03  0.23448966561E+03  0.00000000000E+00 0. -1.
         -1   -1    0    0    0  501 -0.00000000000E+00 -0.00000000000E+00 -0.36935339369E+03  0.36935339369E+03  0.00000000000E+00 0.  1.
         23    2    1    2    0    0  0.60189082893E+02 -0.71969359492E+02  0.95328594850E+02  0.16176054631E+03  0.90975925063E+02 0.  0.
          5    1    1    2  502    0 -0.22687224871E+02 -0.74155170182E+02  0.70963040958E+02  0.10522139810E+03  0.47000000000E+01 0. -1.
         -5    1    3    3    0  503 -0.45189340941E+01 -0.51042325573E+02  0.97894260346E+01  0.52379983079E+02  0.47000000000E+01 0.  1.
          5    1    3    3  503    0  0.64708016987E+02 -0.20927033919E+02  0.85539168815E+02  0.10938056323E+03  0.47000000000E+01 0. -1.
         -5    1    1    2    0  502 -0.37501858021E+02  0.14612452967E+03 -0.30115536388E+03  0.33686111489E+03  0.47000000000E+01 0.  1.
<mgrwt>
<rscale>  0 0.58859002E+03</rscale>
<asrwt>0</asrwt>
<pdfrwt beam="1">  1        1 0.36075333E-01 0.58859002E+03</pdfrwt>
<pdfrwt beam="2">  1       -1 0.56823599E-01 0.58859002E+03</pdfrwt>
<totfact> 0.38407006E+02</totfact>
</mgrwt>
</event>
<event>
 8    1  0.3400573E-004  0.9811723E+02  0.7546771E-02  0.1287995E+00
         -1   -1    0    0    0  501 -0.00000000000E+00  0.00000000000E+00  0.88682200538E+02  0.88682200538E+02  0.00000000000E+00 0.  1.
          1   -1    0    0  501    0  0.00000000000E+00 -0.00000000000E+00 -0.12017998570E+03  0.12017998570E+03  0.00000000000E+00 0. -1.
         23    2    1    2    0    0 -0.14218720852E+00 -0.31722712745E+02  0.25987711517E+02  0.95145110765E+02  0.85853830616E+02 0.  0.
         23    2    1    2    0    0  0.14218720852E+00  0.31722712745E+02 -0.57485496677E+02  0.11371707547E+03  0.92847402788E+02 0.  0.
          5    1    4    4  502    0 -0.28501907805E+02  0.35737850263E+01 -0.66233652703E+02  0.72347200626E+02  0.47000000000E+01 0. -1.
         -5    1    3    3    0  503  0.85949476689E+00 -0.54210220124E+02  0.40603003522E+02  0.67898310672E+02  0.47000000000E+01 0.  1.
          5    1    3    3  503    0 -0.10016819754E+01  0.22487507379E+02 -0.14615292005E+02  0.27246800092E+02  0.47000000000E+01 0. -1.
         -5    1    4    4    0  502  0.28644095014E+02  0.28148927719E+02  0.87481560265E+01  0.41369874846E+02  0.47000000000E+01 0. -1.
<mgrwt>
<rscale>  0 0.96426526E+02</rscale>
<asrwt>0</asrwt>
<pdfrwt beam="1">  1        1 0.18489229E-01 0.98117231E+02</pdfrwt>
<pdfrwt beam="2">  1       -1 0.13643415E-01 0.98117231E+02</pdfrwt>
<totfact> 0.96762640E+03</totfact>
</mgrwt>
</event>
<event>
 8    1  0.3400573E-004  0.1780192E+03  0.7546771E-02  0.1169850E+00
         -1   -1    0    0    0  501 -0.00000000000E+00  0.00000000000E+00  0.16077887732E+03  0.16077887732E+03  0.00000000000E+00 0.  1.
          1   -1    0    0  501    0  0.00000000000E+00 -0.00000000000E+00 -0.10535922250E+04  0.10535922250E+04  0.00000000000E+00 0. -1.
         23    2    1    2    0    0  0.10215556460E+02  0.15157313957E+03  0.10109994044E+03  0.20472425315E+03  0.92801118730E+02 0.  0.
         23    2    1    2    0    0 -0.10215556460E+02 -0.15157313957E+03 -0.99391328815E+03  0.10096468492E+04  0.91893206983E+02 0.  0.
          5    1    3    3  502    0  0.20488325549E+02 -0.60308398792E-01 -0.18423465734E+01  0.21101169678E+02  0.47000000000E+01 0. -1.
         -5    1    3    3    0  502 -0.10272769089E+02  0.15163344797E+03  0.10294228702E+03  0.18362308347E+03  0.47000000000E+01 0.  1.
          5    1    4    4  503    0 -0.39843208501E+02 -0.11467321610E+03 -0.83432651845E+03  0.84312529149E+03  0.47000000000E+01 0. -1.
         -5    1    4    4    0  503  0.29627652041E+02 -0.36899923471E+02 -0.15958676970E+03  0.16652155770E+03  0.47000000000E+01 0.  1.
<mgrwt>
<rscale>  0 0.17790114E+03</rscale>
<asrwt>0</asrwt>
<pdfrwt beam="1">  1        1 0.16209112E+00 0.17801916E+03</pdfrwt>
<pdfrwt beam="2">  1       -1 0.24735211E-01 0.17801916E+03</pdfrwt>
<totfact> 0.21262586E+02</totfact>
</mgrwt>
</event>
<event>
 8    1  0.3400573E-004  0.1739286E+03  0.7546771E-02  0.1174038E+00
          1   -1    0    0  501    0  0.00000000000E+00  0.00000000000E+00  0.19393697715E+03  0.19393697715E+03  0.00000000000E+00 0. -1.
         -1   -1    0    0    0  501 -0.00000000000E+00 -0.00000000000E+00 -0.19919678567E+03  0.19919678567E+03  0.00000000000E+00 0.  1.
         23    2    1    2    0    0  0.14659620593E+03 -0.90277482159E+01  0.89759508263E+02  0.19572411084E+03  0.93162279984E+02 0.  0.
         23    2    1    2    0    0 -0.14659620593E+03  0.90277482159E+01 -0.95019316790E+02  0.19740965197E+03  0.91487443398E+02 0.  0.
          5    1    4    4  502    0 -0.44344331553E+02  0.39607640404E+02 -0.60953620191E+02  0.85279650173E+02  0.47000000000E+01 0. -1.
         -5    1    3    3    0  503  0.49384469758E+02 -0.11864945182E+02 -0.14541659064E+02  0.53039161247E+02  0.47000000000E+01 0.  1.
          5    1    3    3  503    0  0.97211736169E+02  0.28371969658E+01  0.10430116733E+03  0.14268494960E+03  0.47000000000E+01 0. -1.
         -5    1    4    4    0  502 -0.10225187437E+03 -0.30579892188E+02 -0.34065696600E+02  0.11213000180E+03  0.47000000000E+01 0.  1.
<mgrwt>
<rscale>  0 0.17370534E+03</rscale>
<asrwt>0</asrwt>
<pdfrwt beam="1">  1        1 0.29836458E-01 0.17392860E+03</pdfrwt>
<pdfrwt beam="2">  1       -1 0.30645659E-01 0.17392860E+03</pdfrwt>
<totfact> 0.14861312E+03</totfact>
</mgrwt>
</event>
<event>
 8    1  0.3400573E-004  0.1571761E+03  0.7546771E-02  0.1192609E+00
          2   -1    0    0  501    0  0.00000000000E+00  0.00000000000E+00  0.68622100618E+03  0.68622100618E+03  0.00000000000E+00 0. -1.
         -2   -1    0    0    0  501 -0.00000000000E+00 -0.00000000000E+00 -0.38176557497E+02  0.38176557497E+02  0.00000000000E+00 0.  1.
         23    2    1    2    0    0 -0.10795748241E+03 -0.63288208975E+02  0.22972928487E+03  0.27835209038E+03  0.95100612437E+02 0.  0.
         23    2    1    2    0    0  0.10795748241E+03  0.63288208975E+02  0.41831516381E+03  0.44604547330E+03  0.91152468837E+02 0.  0.
          5    1    3    3  502    0 -0.36184749575E+02 -0.15500333942E+02  0.16694116054E+03  0.17158390815E+03  0.47000000000E+01 0. -1.
         -5    1    3    3    0  502 -0.71772732833E+02 -0.47787875034E+02  0.62788124333E+02  0.10676818223E+03  0.47000000000E+01 0.  1.
          5    1    4    4  503    0  0.41802750538E+02  0.72886682558E+02  0.18391162506E+03  0.20225111688E+03  0.47000000000E+01 0. -1.
         -5    1    4    4    0  503  0.66154731871E+02 -0.95984735826E+01  0.23440353876E+03  0.24379435643E+03  0.47000000000E+01 0.  1.
<mgrwt>
<rscale>  0 0.15658357E+03</rscale>
<asrwt>0</asrwt>
<pdfrwt beam="1">  1        2 0.10557245E+00 0.15717615E+03</pdfrwt>
<pdfrwt beam="2">  1       -2 0.58733170E-02 0.15717615E+03</pdfrwt>
<totfact> 0.63897848E+03</totfact>
</mgrwt>
</event>
<event>
 8    1  0.3400573E-004  0.1198815E+03  0.7546771E-02  0.1243606E+00
          2   -1    0    0  501    0  0.00000000000E+00  0.00000000000E+00  0.91889705990E+02  0.91889705990E+02  0.00000000000E+00 0. -1.
         -2   -1    0    0    0  501 -0.00000000000E+00 -0.00000000000E+00 -0.28146623170E+03  0.28146623170E+03  0.00000000000E+00 0.  1.
         23    2    1    2    0    0 -0.58086086157E+02  0.50451529869E+02 -0.21988023071E+03  0.25043737527E+03  0.91935916852E+02 0.  0.
         23    2    1    2    0    0  0.58086086157E+02 -0.50451529869E+02  0.30303704999E+02  0.12291856241E+03  0.90946732639E+02 0.  0.
          5    1    4    4  502    0 -0.65071382281E+01 -0.53672810019E+02  0.14630089886E+02  0.56207142903E+02  0.47000000000E+01 0. -1.
         -5    1    3    3    0  503 -0.82285146715E+02  0.47199023540E+02 -0.17681700338E+03  0.20071107562E+03  0.47000000000E+01 0.  1.
          5    1    3    3  503    0  0.24199060558E+02  0.32525063295E+01 -0.43063227325E+02  0.49726299651E+02  0.47000000000E+01 0. -1.
         -5    1    4    4    0  502  0.64593224385E+02  0.32212801493E+01  0.15673615113E+02  0.66711419510E+02  0.47000000000E+01 0.  1.
<mgrwt>
<rscale>  0 0.11969178E+03</rscale>
<asrwt>0</asrwt>
<pdfrwt beam="1">  1        2 0.14136878E-01 0.11988145E+03</pdfrwt>
<pdfrwt beam="2">  1       -2 0.43302497E-01 0.11988145E+03</pdfrwt>
<totfact> 0.20566512E+03</totfact>
</mgrwt>
</event>
<event>
 8    1  0.3400573E-004  0.9369138E+02  0.7546771E-02  0.1294264E+00
         -2   -1    0    0    0  501 -0.00000000000E+00  0.00000000000E+00  0.15227335443E+03  0.15227335443E+03  0.00000000000E+00 0.  1.
          2   -1    0    0  501    0  0.00000000000E+00 -0.00000000000E+00 -0.63120321765E+02  0.63120321765E+02  0.00000000000E+00 0. -1.
         23    2    1    2    0    0 -0.22476332760E+02 -0.65233654300E+01  0.76683417182E+02  0.12107196785E+03  0.90721194309E+02 0.  0.
         23    2    1    2    0    0  0.22476332760E+02  0.65233654300E+01  0.12469615487E+02  0.94321708352E+02  0.90517144924E+02 0.  0.
          5    1    3    3  502    0  0.26869828561E+02  0.64424787074E+01 -0.96202170793E+00  0.28044762516E+02  0.47000000000E+01 0. -1.
         -5    1    4    4    0  503 -0.27898861838E+02  0.26736254084E+02  0.71834350694E+01  0.39583652102E+02  0.47000000000E+01 0.  1.
          5    1    4    4  503    0  0.50375194599E+02 -0.20212888654E+02  0.52861804174E+01  0.54738056250E+02  0.47000000000E+01 0. -1.
         -5    1    3    3    0  502 -0.49346161321E+02 -0.12965844137E+02  0.77645438890E+02  0.93027205331E+02  0.47000000000E+01 0.  1.
<mgrwt>
<rscale>  0 0.93641950E+02</rscale>
<asrwt>0</asrwt>
<pdfrwt beam="1">  1        2 0.97108187E-02 0.93691381E+02</pdfrwt>
<pdfrwt beam="2">  1       -2 0.23426670E-01 0.93691381E+02</pdfrwt>
<totfact> 0.96209286E+03</totfact>
</mgrwt>
</event>
<event>
 8    1  0.3400573E-004  0.9893112E+02  0.7546771E-02  0.1284351E+00
         -1   -1    0    0    0  501 -0.00000000000E+00  0.00000000000E+00  0.20253570360E+02  0.20253570360E+02  0.00000000000E+00 0.  1.
          1   -1    0    0  501    0  0.00000000000E+00 -0.00000000000E+00 -0.49909706978E+03  0.49909706978E+03  0.00000000000E+00 0. -1.
         23    2    1    2    0    0  0.36808369670E+02  0.29642967008E+01 -0.30118943429E+03  0.31600774591E+03  0.88216648176E+02 0.  0.
         23    2    1    2    0    0 -0.36808369670E+02 -0.29642967008E+01 -0.17765406513E+03  0.20334289423E+03  0.91780840285E+02 0.  0.
          5    1    3    3  502    0  0.31037071793E+02 -0.33455223817E+02 -0.24051980335E+03  0.24485591197E+03  0.47000000000E+01 0. -1.
         -5    1    3    3    0  502  0.57712978765E+01  0.36419520518E+02 -0.60669630939E+02  0.71151833934E+02  0.47000000000E+01 0.  1.
          5    1    4    4  503    0  0.18277483178E+02  0.12433712181E+02 -0.75645969551E+01  0.23832262105E+02  0.47000000000E+01 0. -1.
         -5    1    4    4    0  503 -0.55085852848E+02 -0.15398008882E+02 -0.17008946817E+03  0.17951063212E+03  0.47000000000E+01 0.  1.
<mgrwt>
<rscale>  0 0.98096275E+02</rscale>
<asrwt>0</asrwt>
<pdfrwt beam="1">  1        1 0.76784165E-01 0.98931116E+02</pdfrwt>
<pdfrwt beam="2">  1       -1 0.31159339E-02 0.98931116E+02</pdfrwt>
<totfact> 0.14854233E+04</totfact>
</mgrwt>
</event>
<event>
 8    1  0.3400573E-004  0.1230451E+03  0.7546771E-02  0.1241440E+00
          2   -1    0    0  501    0  0.00000000000E+00  0.00000000000E+00  0.54114157008E+03  0.54114157008E+03  0.00000000000E+00 0. -1.
         -2   -1    0    0    0  501 -0.00000000000E+00 -0.00000000000E+00 -0.26202333461E+02  0.26202333461E+02  0.00000000000E+00 0.  1.
         23    2    1    2    0    0 -0.44869642711E+02  0.53900487063E+02  0.24775133183E+03  0.27318499031E+03  0.91273047293E+02 0.  0.
         23    2    1    2    0    0  0.44869642711E+02 -0.53900487063E+02  0.26718790479E+03  0.29415891323E+03  0.10110164404E+03 0.  0.
          5    1    4    4  502    0  0.12572558411E+02  0.27109157758E+02  0.11273703374E+03  0.11672490923E+03  0.47000000000E+01 0. -1.
         -5    1    4    4    0  502  0.32297084300E+02 -0.81009644821E+02  0.15445087105E+03  0.17743400400E+03  0.47000000000E+01 0.  1.
          5    1    3    3  503    0 -0.91752863860E+01  0.71220261601E+02  0.18805097696E+03  0.20134987330E+03  0.47000000000E+01 0. -1.
         -5    1    3    3    0  503 -0.35694356325E+02 -0.17319774538E+02  0.59700354871E+02  0.71835117006E+02  0.47000000000E+01 0.  1.
<mgrwt>
<rscale>  0 0.12101030E+03</rscale>
<asrwt>0</asrwt>
<pdfrwt beam="1">  1        2 0.83252541E-01 0.12304507E+03</pdfrwt>
<pdfrwt beam="2">  1       -2 0.40311286E-02 0.12304507E+03</pdfrwt>
<totfact> 0.14521338E+04</totfact>
</mgrwt>
</event>
<event>
 8    1  0.3400573E-004  0.1145818E+03  0.7546771E-02  0.1254182E+00
         -2   -1    0    0    0  501 -0.00000000000E+00  0.00000000000E+00  0.17169270091E+02  0.17169270091E+02  0.00000000000E+00 0.  1.
          2   -1    0    0  501    0  0.00000000000E+00 -0.00000000000E+00 -0.11919371508E+04  0.11919371508E+04  0.00000000000E+00 0. -1.
         23    2    1    2    0    0  0.65444189352E+02  0.17928328249E+02 -0.22069567808E+03  0.24866761153E+03  0.92328932779E+02 0.  0.
         23    2    1    2    0    0 -0.65444189352E+02 -0.17928328249E+02 -0.95407220267E+03  0.96043880940E+03  0.87089447226E+02 0.  0.
          5    1    4    4  502    0 -0.72247964734E+02 -0.42853255844E+02 -0.73264172091E+03  0.73745654188E+03  0.47000000000E+01 0. -1.
         -5    1    4    4    0  502  0.68037753813E+01  0.24924927595E+02 -0.22143048177E+03  0.22298226753E+03  0.47000000000E+01 0.  1.
          5    1    3    3  503    0  0.21290093229E+02  0.49402514905E+02 -0.15016068212E+03  0.15957505132E+03  0.47000000000E+01 0. -1.
         -5    1    3    3    0  503  0.44154096123E+02 -0.31474186657E+02 -0.70534995955E+02  0.89092560209E+02  0.47000000000E+01 0.  1.
<mgrwt>
<rscale>  0 0.11352267E+03</rscale>
<asrwt>0</asrwt>
<pdfrwt beam="1">  1        2 0.18337502E+00 0.11458184E+03</pdfrwt>
<pdfrwt beam="2">  1       -2 0.26414251E-02 0.11458184E+03</pdfrwt>
<totfact> 0.99298277E+03</totfact>
</mgrwt>
</event>
<event>
 7    1  0.3400573E-004  0.1418756E+03  0.7546771E-02  0.1217203E+00
         -2   -1    0    0    0  501 -0.00000000000E+00  0.00000000000E+00  0.38814564043E+02  0.38814564043E+02  0.00000000000E+00 0.  1.
          2   -1    0    0  501    0  0.00000000000E+00 -0.00000000000E+00 -0.45665937994E+03  0.45665937994E+03  0.00000000000E+00 0. -1.
         23    2    1    2    0    0 -0.10816775596E+03 -0.27500580607E+02 -0.20840246836E+03  0.25211163954E+03  0.87590779252E+02 0.  0.
          5    1    3    3  502    0 -0.13873918965E+02  0.18505487509E+02 -0.93546578534E+02  0.96477930382E+02  0.47000000000E+01 0. -1.
         -5    1    3    3    0  502 -0.94293836992E+02 -0.46006068116E+02 -0.11485588982E+03  0.15563370916E+03  0.47000000000E+01 0.  1.
          5    1    1    2  503    0  0.63814587799E+02 -0.50752772176E+01 -0.79563890842E+02  0.10222799411E+03  0.47000000000E+01 0.  1.
         -5    1    1    2    0  503  0.44353168157E+02  0.32575857825E+02 -0.12987845670E+03  0.14113431033E+03  0.47000000000E+01 0. -1.
<mgrwt>
<rscale>  0 0.13715972E+03</rscale>
<asrwt>0</asrwt>
<pdfrwt beam="1">  1        2 0.70255291E-01 0.14187561E+03</pdfrwt>
<pdfrwt beam="2">  1       -2 0.59714712E-02 0.14187561E+03</pdfrwt>
<totfact> 0.98071447E+03</totfact>
</mgrwt>
</event>
<event>
 8    1  0.3400573E-004  0.9345220E+02  0.7546771E-02  0.1299028E+00
         -1   -1    0    0    0  501 -0.00000000000E+00  0.00000000000E+00  0.20980526529E+02  0.20980526529E+02  0.00000000000E+00 0.  1.
          1   -1    0    0  501    0  0.00000000000E+00 -0.00000000000E+00 -0.45136599236E+03  0.45136599236E+03  0.00000000000E+00 0. -1.
         23    2    1    2    0    0 -0.20332033884E+02  0.72208958915E+01 -0.13191296142E+03  0.16166119803E+03  0.90927337034E+02 0.  0.
         23    2    1    2    0    0  0.20332033884E+02 -0.72208958915E+01 -0.29847250441E+03  0.31068532086E+03  0.83510476979E+02 0.  0.
          5    1    3    3  502    0  0.30203101282E+02  0.47954059911E+00 -0.15048682100E+02  0.34073598566E+02  0.47000000000E+01 0. -1.
         -5    1    4    4    0  503  0.49068222297E+02 -0.20513584934E+02 -0.16475139095E+03  0.17318662889E+03  0.47000000000E+01 0.  1.
          5    1    4    4  503    0 -0.28736188413E+02  0.13292689043E+02 -0.13372111347E+03  0.13749869197E+03  0.47000000000E+01 0. -1.
         -5    1    3    3    0  502 -0.50535135166E+02  0.67413552923E+01 -0.11686427932E+03  0.12758759947E+03  0.47000000000E+01 0.  1.
<mgrwt>
<rscale>  0 0.91597865E+02</rscale>
<asrwt>0</asrwt>
<pdfrwt beam="1">  1        1 0.69440924E-01 0.93452199E+02</pdfrwt>
<pdfrwt beam="2">  1       -1 0.32277732E-02 0.93452199E+02</pdfrwt>
<totfact> 0.15963649E+04</totfact>
</mgrwt>
</event>
<event>
 8    1  0.3400573E-004  0.1130585E+03  0.7546771E-02  0.1262132E+00
          1   -1    0    0  501    0  0.00000000000E+00  0.00000000000E+00  0.50592378585E+02  0.50592378585E+02  0.00000000000E+00 0. -1.
         -1   -1    0    0    0  501 -0.00000000000E+00 -0.00000000000E+00 -0.22463489174E+03  0.22463489174E+03  0.00000000000E+00 0.  1.
         23    2    1    2    0    0 -0.26516639365E+02  0.16945263567E+02 -0.62759926468E+02  0.11658920645E+03  0.93080398416E+02 0.  0.
         23    2    1    2    0    0  0.26516639365E+02 -0.16945263567E+02 -0.11128258669E+03  0.15863806388E+03  0.10859073207E+03 0.  0.
          5    1    4    4  502    0  0.56378723151E+01  0.22100088429E+02  0.12965133030E+02  0.26653033360E+02  0.47000000000E+01 0. -1.
         -5    1    4    4    0  502  0.20878767050E+02 -0.39045351996E+02 -0.12424771972E+03  0.13198503052E+03  0.47000000000E+01 0.  1.
          5    1    3    3  503    0 -0.36467105821E+02  0.50769939459E+02 -0.39918268656E+02  0.74316853621E+02  0.47000000000E+01 0. -1.
         -5    1    3    3    0  503  0.99504664558E+01 -0.33824675892E+02 -0.22841657813E+02  0.42272352827E+02  0.47000000000E+01 0.  1.
<mgrwt>
<rscale>  0 0.10916090E+03</rscale>
<asrwt>0</asrwt>
<pdfrwt beam="1">  1        1 0.77834429E-02 0.11305849E+03</pdfrwt>
<pdfrwt beam="2">  1       -1 0.34559214E-01 0.11305849E+03</pdfrwt>
<totfact> 0.67441778E+03</totfact>
</mgrwt>
</event>
<event>
 8    1  0.3400573E-004  0.1267339E+03  0.7546771E-02  0.1233135E+00
          1   -1    0    0  501    0  0.00000000000E+00  0.00000000000E+00  0.55478536851E+03  0.55478536851E+03  0.00000000000E+00 0. -1.
         -1   -1    0    0    0  501 -0.00000000000E+00 -0.00000000000E+00 -0.38828744548E+02  0.38828744548E+02  0.00000000000E+00 0.  1.
         23    2    1    2    0    0 -0.69424047783E+02 -0.56657548495E+02  0.10642868394E+03  0.16549482860E+03  0.89619737312E+02 0.  0.
         23    2    1    2    0    0  0.69424047783E+02  0.56657548495E+02  0.40952794002E+03  0.42811928446E+03  0.86851665821E+02 0.  0.
          5    1    3    3  502    0 -0.21223621637E+02  0.56880766914E+01  0.78662945668E+02  0.81809200907E+02  0.47000000000E+01 0. -1.
         -5    1    4    4    0  503  0.45372180506E+02  0.15691059421E+02  0.68581971223E+02  0.83847605133E+02  0.47000000000E+01 0.  1.
          5    1    4    4  503    0  0.24051867277E+02  0.40966489075E+02  0.34094596880E+03  0.34427167933E+03  0.47000000000E+01 0. -1.
         -5    1    3    3    0  502 -0.48200426146E+02 -0.62345625187E+02  0.27765738274E+02  0.83685627694E+02  0.47000000000E+01 0.  1.
<mgrwt>
<rscale>  0 0.12624553E+03</rscale>
<asrwt>0</asrwt>
<pdfrwt beam="1">  1        1 0.85351590E-01 0.12673387E+03</pdfrwt>
<pdfrwt beam="2">  1       -1 0.59736534E-02 0.12673387E+03</pdfrwt>
<totfact> 0.50736570E+03</totfact>
</mgrwt>
</event>
<event>
 8    1  0.3400573E-004  0.1500593E+03  0.7546771E-02  0.1200802E+00
         -2   -1    0    0    0  501 -0.00000000000E+00  0.00000000000E+00  0.20595917143E+02  0.20595917143E+02  0.00000000000E+00 0.  1.
          2   -1    0    0  501    0  0.00000000000E+00 -0.00000000000E+00 -0.10876135986E+04  0.10876135986E+04  0.00000000000E+00 0. -1.
         23    2    1    2    0    0  0.63442301593E+02 -0.10074167761E+03 -0.56383633829E+03  0.58312928885E+03  0.89188227364E+02 0.  0.
         23    2    1    2    0    0 -0.63442301593E+02  0.10074167761E+03 -0.50318134317E+03  0.52508022689E+03  0.91345330043E+02 0.  0.
          5    1    3    3  502    0  0.35927266237E+02 -0.90488351608E+02 -0.52625494994E+03  0.53520582263E+03  0.47000000000E+01 0. -1.
         -5    1    3    3    0  502  0.27515035356E+02 -0.10253326006E+02 -0.37581388353E+02  0.47923466229E+02  0.47000000000E+01 0.  1.
          5    1    4    4  503    0 -0.77751028576E+02  0.64931613015E+02 -0.26478412638E+03  0.28353846369E+03  0.47000000000E+01 0. -1.
         -5    1    4    4    0  503  0.14308726983E+02  0.35810064600E+02 -0.23839721679E+03  0.24154176320E+03  0.47000000000E+01 0.  1.
<mgrwt>
<rscale>  0 0.14973238E+03</rscale>
<asrwt>0</asrwt>
<pdfrwt beam="1">  1        2 0.16732523E+00 0.15005926E+03</pdfrwt>
<pdfrwt beam="2">  1       -2 0.31686015E-02 0.15005926E+03</pdfrwt>
<totfact> 0.88258401E+03</totfact>
</mgrwt>
</event>
<event>
 8    1  0.3400573E-004  0.9673009E+02  0.7546771E-02  0.1289370E+00
         -4   -1    0    0    0  501 -0.00000000000E+00  0.00000000000E+00  0.82127240345E+02  0.82127240345E+02  0.00000000000E+00 0.  1.
          4   -1    0    0  501    0  0.00000000000E+00 -0.00000000000E+00 -0.13489821145E+03  0.13489821145E+03  0.00000000000E+00 0. -1.
         23    2    1    2    0    0  0.17901698264E+02 -0.13652580338E+02  0.20935550895E+02  0.95413929617E+02  0.90325283963E+02 0.  0.
         23    2    1    2    0    0 -0.17901698264E+02  0.13652580338E+02 -0.73706522004E+02  0.12161152218E+03  0.94073626437E+02 0.  0.
          5    1    4    4  502    0 -0.33475406430E+02 -0.96318986067E+00 -0.88812167669E+02  0.95032740129E+02  0.47000000000E+01 0. -1.
         -5    1    3    3    0  503  0.46040451936E+02 -0.34415947568E+02  0.10531417009E+02  0.58627479953E+02  0.47000000000E+01 0.  1.
          5    1    3    3  503    0 -0.28138753672E+02  0.20763367230E+02  0.10404133886E+02  0.36786449663E+02  0.47000000000E+01 0. -1.
         -5    1    4    4    0  502  0.15573708165E+02  0.14615770198E+02  0.15105645665E+02  0.26578782054E+02  0.47000000000E+01 0.  1.
<mgrwt>
<rscale>  0 0.95806624E+02</rscale>
<asrwt>0</asrwt>
<pdfrwt beam="1">  1        4 0.20753571E-01 0.96730093E+02</pdfrwt>
<pdfrwt beam="2">  1       -4 0.12634960E-01 0.96730093E+02</pdfrwt>
<totfact> 0.16280315E+03</totfact>
</mgrwt>
</event>
<event>
 8    1  0.3400573E-004  0.1274354E+03  0.7546771E-02  0.1233047E+00
         -1   -1    0    0    0  501 -0.00000000000E+00  0.00000000000E+00  0.80190996225E+02  0.80190996225E+02  0.00000000000E+00 0.  1.
          1   -1    0    0  501    0  0.00000000000E+00 -0.00000000000E+00 -0.26886600660E+03  0.26886600660E+03  0.00000000000E+00 0. -1.
         23    2    1    2    0    0 -0.70653482192E+02  0.42894593752E+02 -0.18428794735E+03  0.22154615419E+03  0.91042793120E+02 0.  0.
         23    2    1    2    0    0  0.70653482192E+02 -0.42894593752E+02 -0.43870630262E+01  0.12751084864E+03  0.96994378595E+02 0.  0.
          5    1    4    4  502    0  0.32903717856E+02 -0.40836311002E+02 -0.46838640266E+02  0.70471321592E+02  0.47000000000E+01 0. -1.
         -5    1    4    4    0  502  0.37749764337E+02 -0.20582827498E+01  0.42451577239E+02  0.57039527045E+02  0.47000000000E+01 0.  1.
          5    1    3    3  503    0 -0.48205810515E+02  0.47993520627E+02 -0.48338612577E+02  0.83581634678E+02  0.47000000000E+01 0. -1.
         -5    1    3    3    0  503 -0.22447671677E+02 -0.50989268749E+01 -0.13594933478E+03  0.13796451952E+03  0.47000000000E+01 0.  1.
<mgrwt>
<rscale>  0 0.12630303E+03</rscale>
<asrwt>0</asrwt>
<pdfrwt beam="1">  1        1 0.41364001E-01 0.12743536E+03</pdfrwt>
<pdfrwt beam="2">  1       -1 0.12337076E-01 0.12743536E+03</pdfrwt>
<totfact> 0.42309374E+03</totfact>
</mgrwt>
</event>
<event>
 8    1  0.3400573E-004  0.1006926E+03  0.7546771E-02  0.1279493E+00
         -2   -1    0    0    0  501 -0.00000000000E+00  0.00000000000E+00  0.25760695107E+03  0.25760695107E+03  0.00000000000E+00 0.  1.
          2   -1    0    0  501    0  0.00000000000E+00 -0.00000000000E+00 -0.86467883021E+02  0.86467883021E+02  0.00000000000E+00 0. -1.
         23    2    1    2    0    0  0.24229338363E+02  0.28212084657E+02  0.21343591419E+03  0.23599554133E+03  0.93573626109E+02 0.  0.
         23    2    1    2    0    0 -0.24229338363E+02 -0.28212084657E+02 -0.42296846137E+02  0.10807929277E+03  0.92244933591E+02 0.  0.
          5    1    4    4  502    0  0.25270816662E+01 -0.24097845615E+02 -0.66831548982E+02  0.71243513700E+02  0.47000000000E+01 0. -1.
         -5    1    4    4    0  502 -0.26756420029E+02 -0.41142390422E+01  0.24534702845E+02  0.36835779065E+02  0.47000000000E+01 0.  1.
          5    1    3    3  503    0 -0.19144366570E+02 -0.95808157705E+01  0.92182012342E+01  0.23777384974E+02  0.47000000000E+01 0. -1.
         -5    1    3    3    0  503  0.43373704933E+02  0.37792900428E+02  0.20421771296E+03  0.21221815636E+03  0.47000000000E+01 0.  1.
<mgrwt>
<rscale>  0 0.10038282E+03</rscale>
<asrwt>0</asrwt>
<pdfrwt beam="1">  1        2 0.13302751E-01 0.10069263E+03</pdfrwt>
<pdfrwt beam="2">  1       -2 0.39631838E-01 0.10069263E+03</pdfrwt>
<totfact> 0.25878313E+03</totfact>
</mgrwt>
</event>
<event>
 8    1  0.3400573E-004  0.1153432E+03  0.7546771E-02  0.1252050E+00
          2   -1    0    0  501    0  0.00000000000E+00  0.00000000000E+00  0.12108716440E+03  0.12108716440E+03  0.00000000000E+00 0. -1.
         -2   -1    0    0    0  501 -0.00000000000E+00 -0.00000000000E+00 -0.11069119500E+03  0.11069119500E+03  0.00000000000E+00 0.  1.
         23    2    1    2    0    0  0.35423438795E+02 -0.56821045131E+02 -0.14196992182E+02  0.11621360846E+03  0.93918033514E+02 0.  0.
         23    2    1    2    0    0 -0.35423438795E+02  0.56821045131E+02  0.24592961574E+02  0.11556475094E+03  0.90922751361E+02 0.  0.
          5    1    4    4  502    0  0.13467391931E+02  0.46264605331E+02  0.40232709228E+02  0.62948750930E+02  0.47000000000E+01 0. -1.
         -5    1    4    4    0  502 -0.48890830726E+02  0.10556439800E+02 -0.15639747654E+02  0.52616000009E+02  0.47000000000E+01 0.  1.
          5    1    3    3  503    0 -0.21324087306E+02 -0.38204110124E+02 -0.31196398522E+02  0.53940485821E+02  0.47000000000E+01 0.  1.
         -5    1    3    3    0  503  0.56747526101E+02 -0.18616935006E+02  0.16999406340E+02  0.62273122642E+02  0.47000000000E+01 0. -1.
<mgrwt>
<rscale>  0 0.11473196E+03</rscale>
<asrwt>0</asrwt>
<pdfrwt beam="1">  1        2 0.18628794E-01 0.11534318E+03</pdfrwt>
<pdfrwt beam="2">  1       -2 0.17029415E-01 0.11534318E+03</pdfrwt>
<totfact> 0.77844494E+03</totfact>
</mgrwt>
</event>
<event>
 8    1  0.3400573E-004  0.1043039E+03  0.7546771E-02  0.1274126E+00
          3   -1    0    0  501    0  0.00000000000E+00  0.00000000000E+00  0.30353556959E+03  0.30353556959E+03  0.00000000000E+00 0. -1.
         -3   -1    0    0    0  501 -0.00000000000E+00 -0.00000000000E+00 -0.39002743780E+02  0.39002743780E+02  0.00000000000E+00 0.  1.
         23    2    1    2    0    0  0.12472245062E+02 -0.35132814504E+02  0.19592621852E+03  0.22196031003E+03  0.97413677549E+02 0.  0.
         23    2    1    2    0    0 -0.12472245062E+02  0.35132814504E+02  0.68606607285E+02  0.12057800334E+03  0.91882080806E+02 0.  0.
          5    1    3    3  502    0 -0.15837567958E+02  0.29020941787E+02  0.74925794403E+02  0.82030532657E+02  0.47000000000E+01 0. -1.
         -5    1    3    3    0  502  0.28309813019E+02 -0.64153756291E+02  0.12100042412E+03  0.13992977737E+03  0.47000000000E+01 0.  1.
          5    1    4    4  503    0 -0.35269338194E+02  0.24911688701E+02  0.81290973468E+02  0.92167406484E+02  0.47000000000E+01 0. -1.
         -5    1    4    4    0  503  0.22797093132E+02  0.10221125803E+02 -0.12684366183E+02  0.28410596851E+02  0.47000000000E+01 0.  1.
<mgrwt>
<rscale>  0 0.10299273E+03</rscale>
<asrwt>0</asrwt>
<pdfrwt beam="1">  1        3 0.46697779E-01 0.10430386E+03</pdfrwt>
<pdfrwt beam="2">  1       -3 0.60004223E-02 0.10430386E+03</pdfrwt>
<totfact> 0.17077738E+03</totfact>
</mgrwt>
</event>
<event>
 8    1  0.3400573E-004  0.1062609E+03  0.7546771E-02  0.1268561E+00
          1   -1    0    0  501    0  0.00000000000E+00  0.00000000000E+00  0.63006779934E+03  0.63006779934E+03  0.00000000000E+00 0. -1.
         -1   -1    0    0    0  501 -0.00000000000E+00 -0.00000000000E+00 -0.18104011310E+02  0.18104011310E+02  0.00000000000E+00 0.  1.
         23    2    1    2    0    0  0.36869098512E+02  0.32620083749E+02  0.36213101358E+03  0.37739931317E+03  0.94169901205E+02 0.  0.
         23    2    1    2    0    0 -0.36869098512E+02 -0.32620083749E+02  0.24983277445E+03  0.27077249749E+03  0.92075674937E+02 0.  0.
          5    1    3    3  502    0  0.67641070622E+02  0.17127279855E+02  0.27046475665E+03  0.27935986244E+03  0.47000000000E+01 0. -1.
         -5    1    4    4    0  503 -0.24670822721E+02  0.28794944154E+02  0.63112751755E+02  0.73777420235E+02  0.47000000000E+01 0.  1.
          5    1    4    4  503    0 -0.12198275791E+02 -0.61415027902E+02  0.18672002270E+03  0.19699507725E+03  0.47000000000E+01 0. -1.
         -5    1    3    3    0  502 -0.30771972110E+02  0.15492803894E+02  0.91666256927E+02  0.98039450728E+02  0.47000000000E+01 0.  1.
<mgrwt>
<rscale>  0 0.10579495E+03</rscale>
<asrwt>0</asrwt>
<pdfrwt beam="1">  1        1 0.96933491E-01 0.10626086E+03</pdfrwt>
<pdfrwt beam="2">  1       -1 0.27852330E-02 0.10626086E+03</pdfrwt>
<totfact> 0.12907023E+04</totfact>
</mgrwt>
</event>
<event>
 8    1  0.3400573E-004  0.1620159E+03  0.7546771E-02  0.1186559E+00
          2   -1    0    0  501    0  0.00000000000E+00  0.00000000000E+00  0.72374702941E+03  0.72374702941E+03  0.00000000000E+00 0. -1.
         -2   -1    0    0    0  501 -0.00000000000E+00 -0.00000000000E+00 -0.36319308176E+02  0.36319308176E+02  0.00000000000E+00 0.  1.
         23    2    1    2    0    0  0.13142113496E+03  0.22244171719E+02  0.36832982579E+03  0.40238787167E+03  0.92102230206E+02 0.  0.
         23    2    1    2    0    0 -0.13142113496E+03 -0.22244171719E+02  0.31909789544E+03  0.35767846591E+03  0.91346046531E+02 0.  0.
          5    1    3    3  502    0  0.10924325165E+03  0.54696016125E+02  0.27016050057E+03  0.29653756638E+03  0.47000000000E+01 0.  1.
         -5    1    3    3    0  502  0.22177883304E+02 -0.32451844406E+02  0.98169325226E+02  0.10585030528E+03  0.47000000000E+01 0. -1.
          5    1    4    4  503    0 -0.56799671408E+02 -0.55605966543E+02  0.15148267619E+03  0.17113537733E+03  0.47000000000E+01 0. -1.
         -5    1    4    4    0  503 -0.74621463548E+02  0.33361794824E+02  0.16761521925E+03  0.18654308859E+03  0.47000000000E+01 0.  1.
<mgrwt>
<rscale>  0 0.16190858E+03</rscale>
<asrwt>0</asrwt>
<pdfrwt beam="1">  1        2 0.11134569E+00 0.16201586E+03</pdfrwt>
<pdfrwt beam="2">  1       -2 0.55875864E-02 0.16201586E+03</pdfrwt>
<totfact> 0.64761294E+03</totfact>
</mgrwt>
</event>
<event>
 8    1  0.3400573E-004  0.9875208E+02  0.7546771E-02  0.1284900E+00
         -2   -1    0    0    0  501 -0.00000000000E+00  0.00000000000E+00  0.48926333236E+02  0.48926333236E+02  0.00000000000E+00 0.  1.
          2   -1    0    0  501    0  0.00000000000E+00 -0.00000000000E+00 -0.20600519661E+03  0.20600519661E+03  0.00000000000E+00 0. -1.
         23    2    1    2    0    0 -0.26370630971E+02 -0.14894773404E+02 -0.11024714181E+03  0.14563750514E+03  0.90214112946E+02 0.  0.
         23    2    1    2    0    0  0.26370630971E+02  0.14894773404E+02 -0.46831721562E+02  0.10929402470E+03  0.93993133995E+02 0.  0.
          5    1    3    3  502    0  0.33132936132E+02 -0.42931743831E+01 -0.30641711291E+02  0.45576608846E+02  0.47000000000E+01 0. -1.
         -5    1    4    4    0  503  0.65550367339E+01  0.37870355834E+02 -0.63488819231E+02  0.74364322931E+02  0.47000000000E+01 0.  1.
          5    1    4    4  503    0  0.19815594237E+02 -0.22975582430E+02  0.16657097669E+02  0.34929701770E+02  0.47000000000E+01 0. -1.
         -5    1    3    3    0  502 -0.59503567103E+02 -0.10601599021E+02 -0.79605430516E+02  0.10006089630E+03  0.47000000000E+01 0.  1.
<mgrwt>
<rscale>  0 0.97842119E+02</rscale>
<asrwt>0</asrwt>
<pdfrwt beam="1">  1        2 0.31693107E-01 0.98752082E+02</pdfrwt>
<pdfrwt beam="2">  1       -2 0.75271283E-02 0.98752082E+02</pdfrwt>
<totfact> 0.15578140E+04</totfact>
</mgrwt>
</event>
<event>
 8    1  0.3400573E-004  0.1131741E+03  0.7546771E-02  0.1255440E+00
          2   -1    0    0  501    0  0.00000000000E+00  0.00000000000E+00  0.14395201985E+03  0.14395201985E+03  0.00000000000E+00 0. -1.
         -2   -1    0    0    0  501 -0.00000000000E+00 -0.00000000000E+00 -0.31498724050E+03  0.31498724050E+03  0.00000000000E+00 0.  1.
         23    2    1    2    0    0  0.64515871371E+02  0.45476118972E+01 -0.28022047343E+03  0.30168214639E+03  0.91135203359E+02 0.  0.
         23    2    1    2    0    0 -0.64515871371E+02 -0.45476118972E+01  0.10918525277E+03  0.15725711396E+03  0.92873042561E+02 0.  0.
          5    1    3    3  502    0  0.99941920421E+01 -0.35755835707E+02 -0.15227402500E+03  0.15680507757E+03  0.47000000000E+01 0. -1.
         -5    1    3    3    0  502  0.54521679329E+02  0.40303447604E+02 -0.12794644843E+03  0.14487706882E+03  0.47000000000E+01 0.  1.
          5    1    4    4  503    0 -0.25966362615E+02 -0.14662340727E+00  0.11478067287E+03  0.11777506676E+03  0.47000000000E+01 0. -1.
         -5    1    4    4    0  503 -0.38549508756E+02 -0.44009884899E+01 -0.55954200954E+01  0.39482047199E+02  0.47000000000E+01 0.  1.
<mgrwt>
<rscale>  0 0.11281701E+03</rscale>
<asrwt>0</asrwt>
<pdfrwt beam="1">  1        2 0.22146465E-01 0.11317412E+03</pdfrwt>
<pdfrwt beam="2">  1       -2 0.48459575E-01 0.11317412E+03</pdfrwt>
<totfact> 0.98795475E+02</totfact>
</mgrwt>
</event>
<event>
 8    1  0.3400573E-004  0.9348939E+02  0.7546771E-02  0.1295737E+00
          1   -1    0    0  501    0  0.00000000000E+00  0.00000000000E+00  0.31228605633E+03  0.31228605633E+03  0.00000000000E+00 0. -1.
         -1   -1    0    0    0  501 -0.00000000000E+00 -0.00000000000E+00 -0.27933760334E+02  0.27933760334E+02  0.00000000000E+00 0.  1.
         23    2    1    2    0    0  0.14416067898E+02 -0.10351124331E+02  0.11751256071E+03  0.14897190774E+03  0.89824598985E+02 0.  0.
         23    2    1    2    0    0 -0.14416067898E+02  0.10351124331E+02  0.16683973529E+03  0.19124790892E+03  0.91789414469E+02 0.  0.
          5    1    3    3  502    0 -0.32776322103E+02  0.97665085295E+01  0.73543780292E+02  0.81243151091E+02  0.47000000000E+01 0. -1.
         -5    1    4    4    0  503  0.18732607109E+02 -0.82539714990E+01  0.14627267333E+03  0.14777287835E+03  0.47000000000E+01 0.  1.
          5    1    4    4  503    0 -0.33148675006E+02  0.18605095830E+02  0.20567061961E+02  0.43475030572E+02  0.47000000000E+01 0. -1.
         -5    1    3    3    0  502  0.47192390001E+02 -0.20117632860E+02  0.43968780413E+02  0.67728756646E+02  0.47000000000E+01 0.  1.
<mgrwt>
<rscale>  0 0.93003530E+02</rscale>
<asrwt>0</asrwt>
<pdfrwt beam="1">  1        1 0.48044006E-01 0.93489387E+02</pdfrwt>
<pdfrwt beam="2">  1       -1 0.42975018E-02 0.93489387E+02</pdfrwt>
<totfact> 0.16638491E+04</totfact>
</mgrwt>
</event>
<event>
 8    1  0.3400573E-004  0.9882150E+02  0.7546771E-02  0.1284077E+00
          2   -1    0    0  501    0  0.00000000000E+00  0.00000000000E+00  0.30592466004E+02  0.30592466004E+02  0.00000000000E+00 0. -1.
         -2   -1    0    0    0  501 -0.00000000000E+00 -0.00000000000E+00 -0.31179143297E+03  0.31179143297E+03  0.00000000000E+00 0.  1.
         23    2    1    2    0    0  0.10584066856E+02  0.31789907138E+02 -0.13810675691E+03  0.16982098030E+03  0.92968104095E+02 0.  0.
         23    2    1    2    0    0 -0.10584066856E+02 -0.31789907138E+02 -0.14309221005E+03  0.17256291867E+03  0.90443129398E+02 0.  0.
          5    1    4    4  502    0  0.21737624565E+02 -0.43426145183E+01  0.60317205027E+00  0.22667960629E+02  0.47000000000E+01 0. -1.
         -5    1    4    4    0  502 -0.32321691421E+02 -0.27447292619E+02 -0.14369538210E+03  0.14989495804E+03  0.47000000000E+01 0.  1.
          5    1    3    3  503    0 -0.32053609439E+02 -0.12337208835E+02 -0.32099044768E+02  0.47244886230E+02  0.47000000000E+01 0. -1.
         -5    1    3    3    0  503  0.42637676295E+02  0.44127115973E+02 -0.10600771214E+03  0.12257609407E+03  0.47000000000E+01 0.  1.
<mgrwt>
<rscale>  0 0.98223185E+02</rscale>
<asrwt>0</asrwt>
<pdfrwt beam="1">  1        2 0.47065332E-02 0.98821501E+02</pdfrwt>
<pdfrwt beam="2">  1       -2 0.47967913E-01 0.98821501E+02</pdfrwt>
<totfact> 0.65223247E+03</totfact>
</mgrwt>
</event>
<event>
 8    1  0.3400573E-004  0.1018542E+03  0.7546771E-02  0.1282288E+00
          2   -1    0    0  501    0  0.00000000000E+00  0.00000000000E+00  0.43954463562E+03  0.43954463562E+03  0.00000000000E+00 0. -1.
         -2   -1    0    0    0  501 -0.00000000000E+00 -0.00000000000E+00 -0.26381339764E+02  0.26381339764E+02  0.00000000000E+00 0.  1.
         23    2    1    2    0    0 -0.11186246526E+02 -0.46969238702E+02  0.30065804912E+03  0.31416393853E+03  0.77281797828E+02 0.  0.
         23    2    1    2    0    0  0.11186246526E+02  0.46969238702E+02  0.11250524674E+03  0.15176203686E+03  0.89683018417E+02 0.  0.
          5    1    3    3  502    0 -0.37955059269E+02 -0.67596992516E+01  0.17936136738E+03  0.18351803771E+03  0.47000000000E+01 0. -1.
         -5    1    4    4    0  503  0.27415363371E+02 -0.18408247469E+02  0.27700272745E+02  0.43357361933E+02  0.47000000000E+01 0.  1.
          5    1    4    4  503    0 -0.16229116845E+02  0.65377486171E+02  0.84804973999E+02  0.10840467493E+03  0.47000000000E+01 0. -1.
         -5    1    3    3    0  502  0.26768812743E+02 -0.40209539450E+02  0.12129668174E+03  0.13064590082E+03  0.47000000000E+01 0.  1.
<mgrwt>
<rscale>  0 0.99058875E+02</rscale>
<asrwt>0</asrwt>
<pdfrwt beam="1">  1        2 0.67622246E-01 0.10185424E+03</pdfrwt>
<pdfrwt beam="2">  1       -2 0.40586680E-02 0.10185424E+03</pdfrwt>
<totfact> 0.17726477E+04</totfact>
</mgrwt>
</event>
<event>
 7    1  0.3400573E-004  0.1887227E+03  0.7546771E-02  0.1176899E+00
         -1   -1    0    0    0  501 -0.00000000000E+00  0.00000000000E+00  0.11797763956E+03  0.11797763956E+03  0.00000000000E+00 0.  1.
          1   -1    0    0  501    0  0.00000000000E+00 -0.00000000000E+00 -0.30983349872E+03  0.30983349872E+03  0.00000000000E+00 0. -1.
         23    2    1    2    0    0  0.67318559900E+02 -0.15123919751E+02  0.35994376896E+02  0.13195310150E+03  0.10656220893E+03 0.  0.
          5    1    1    2  502    0 -0.11280691788E+03 -0.37504436528E+02 -0.14622769077E+03  0.18851156737E+03  0.47000000000E+01 0. -1.
         -5    1    3    3    0  503 -0.20569406529E+02 -0.30015331530E+02  0.18106540897E+02  0.40914024919E+02  0.47000000000E+01 0.  1.
          5    1    3    3  503    0  0.87887966429E+02  0.14891411779E+02  0.17887835999E+02  0.91039076580E+02  0.47000000000E+01 0. -1.
         -5    1    1    2    0  502  0.45488357984E+02  0.52628356279E+02 -0.81622545279E+02  0.10734646941E+03  0.47000000000E+01 0.  1.
<mgrwt>
<rscale>  0 0.17091308E+03</rscale>
<asrwt>0</asrwt>
<pdfrwt beam="1">  1        1 0.47666692E-01 0.18872267E+03</pdfrwt>
<pdfrwt beam="2">  1       -1 0.18150406E-01 0.18872267E+03</pdfrwt>
<totfact> 0.19646745E+03</totfact>
</mgrwt>
</event>
<event>
 8    1  0.3400573E-004  0.1698071E+03  0.7546771E-02  0.1178203E+00
         -2   -1    0    0    0  501 -0.00000000000E+00  0.00000000000E+00  0.65074112701E+02  0.65074112701E+02  0.00000000000E+00 0.  1.
          2   -1    0    0  501    0  0.00000000000E+00 -0.00000000000E+00 -0.45603432468E+03  0.45603432468E+03  0.00000000000E+00 0. -1.
         23    2    1    2    0    0 -0.10336494295E+02  0.14208577977E+03 -0.14874940141E+03  0.22530356494E+03  0.91324148120E+02 0.  0.
         23    2    1    2    0    0  0.10336494295E+02 -0.14208577977E+03 -0.24221081057E+03  0.29580487243E+03  0.92407975162E+02 0.  0.
          5    1    4    4  502    0 -0.19414924875E+02 -0.12955264126E+03 -0.22081086599E+03  0.25678854083E+03  0.47000000000E+01 0. -1.
         -5    1    3    3    0  503  0.74213709708E+01  0.13014317528E+03 -0.79699368475E+02  0.15286072797E+03  0.47000000000E+01 0.  1.
          5    1    3    3  503    0 -0.17757865266E+02  0.11942604487E+02 -0.69050032936E+02  0.72442836976E+02  0.47000000000E+01 0. -1.
         -5    1    4    4    0  502  0.29751419171E+02 -0.12533138510E+02 -0.21399944578E+02  0.39016331600E+02  0.47000000000E+01 0.  1.
<mgrwt>
<rscale>  0 0.16966005E+03</rscale>
<asrwt>0</asrwt>
<pdfrwt beam="1">  1        2 0.70159125E-01 0.16980708E+03</pdfrwt>
<pdfrwt beam="2">  1       -2 0.10011402E-01 0.16980708E+03</pdfrwt>
<totfact> 0.44618701E+03</totfact>
</mgrwt>
</event>
<event>
 8    1  0.3400573E-004  0.1604168E+03  0.7546771E-02  0.1192062E+00
         -2   -1    0    0    0  501 -0.00000000000E+00  0.00000000000E+00  0.11617004360E+03  0.11617004360E+03  0.00000000000E+00 0.  1.
          2   -1    0    0  501    0  0.00000000000E+00 -0.00000000000E+00 -0.36677813438E+03  0.36677813438E+03  0.00000000000E+00 0. -1.
         23    2    1    2    0    0  0.12026307871E+03  0.24849565187E+01 -0.28319704882E+03  0.31925456561E+03  0.85167635248E+02 0.  0.
         23    2    1    2    0    0 -0.12026307871E+03 -0.24849565187E+01  0.32588958042E+02  0.16369361237E+03  0.10613281978E+03 0.  0.
          5    1    3    3  502    0  0.72924470388E+02  0.19606839100E+02 -0.24346957308E+03  0.25495475979E+03  0.47000000000E+01 0. -1.
         -5    1    4    4    0  503 -0.92516565580E+02  0.83121482570E+01  0.69450749068E+02  0.11607714358E+03  0.47000000000E+01 0.  1.
          5    1    4    4  503    0 -0.27746513127E+02 -0.10797104776E+02 -0.36861791027E+02  0.47616468789E+02  0.47000000000E+01 0. -1.
         -5    1    3    3    0  502  0.47338608319E+02 -0.17121882581E+02 -0.39727475743E+02  0.64299805829E+02  0.47000000000E+01 0.  1.
<mgrwt>
<rscale>  0 0.15705515E+03</rscale>
<asrwt>0</asrwt>
<pdfrwt beam="1">  1        2 0.56427405E-01 0.16041683E+03</pdfrwt>
<pdfrwt beam="2">  1       -2 0.17872315E-01 0.16041683E+03</pdfrwt>
<totfact> 0.21983992E+03</totfact>
</mgrwt>
</event>
<event>
 8    1  0.3400573E-004  0.1025046E+03  0.7546771E-02  0.1279108E+00
          2   -1    0    0  501    0  0.00000000000E+00  0.00000000000E+00  0.21638030161E+03  0.21638030161E+03  0.00000000000E+00 0.  1.
         -2   -1    0    0    0  501 -0.00000000000E+00 -0.00000000000E+00 -0.90365506710E+02  0.90365506710E+02  0.00000000000E+00 0. -1.
         23    2    1    2    0    0  0.77645785957E+01 -0.31048967836E+02  0.17277004148E+03  0.20088972034E+03  0.97380005249E+02 0.  0.
         23    2    1    2    0    0 -0.77645785957E+01  0.31048967836E+02 -0.46755246579E+02  0.10585608798E+03  0.89415497507E+02 0.  0.
          5    1    4    4  502    0  0.18437226365E+02  0.49240194259E+02 -0.48900501848E+01  0.53014438010E+02  0.47000000000E+01 0. -1.
         -5    1    3    3    0  503 -0.33028771065E+02 -0.51679392296E+00  0.12995516608E+03  0.13417004876E+03  0.47000000000E+01 0.  1.
          5    1    3    3  503    0  0.40793349661E+02 -0.30532173913E+02  0.42814875399E+02  0.66719671581E+02  0.47000000000E+01 0. -1.
         -5    1    4    4    0  502 -0.26201804961E+02 -0.18191226423E+02 -0.41865196394E+02  0.52841649966E+02  0.47000000000E+01 0.  1.
<mgrwt>
<rscale>  0 0.10056690E+03</rscale>
<asrwt>0</asrwt>
<pdfrwt beam="1">  1        2 0.33289277E-01 0.10250460E+03</pdfrwt>
<pdfrwt beam="2">  1       -2 0.13902386E-01 0.10250460E+03</pdfrwt>
<totfact> 0.56808428E+03</totfact>
</mgrwt>
</event>
<event>
 8    1  0.3400573E-004  0.1644043E+03  0.7546771E-02  0.1185666E+00
          1   -1    0    0  501    0  0.00000000000E+00  0.00000000000E+00  0.67657529503E+03  0.67657529503E+03  0.00000000000E+00 0. -1.
         -1   -1    0    0    0  501 -0.00000000000E+00 -0.00000000000E+00 -0.39001370874E+02  0.39001370874E+02  0.00000000000E+00 0.  1.
         23    2    1    2    0    0 -0.12517274978E+03 -0.35109986892E+02  0.26603135251E+03  0.30928533164E+03  0.89352153774E+02 0.  0.
         23    2    1    2    0    0  0.12517274978E+03  0.35109986892E+02  0.37154257164E+03  0.40629133426E+03  0.10063715659E+03 0.  0.
          5    1    3    3  502    0 -0.91021306540E+02  0.19435837440E+02  0.15418171253E+03  0.18015748805E+03  0.47000000000E+01 0. -1.
         -5    1    3    3    0  502 -0.34151443236E+02 -0.54545824333E+02  0.11184963998E+03  0.12912784359E+03  0.47000000000E+01 0.  1.
          5    1    4    4  503    0  0.84697370886E+02  0.58346505730E+01  0.33111201934E+03  0.34185515520E+03  0.47000000000E+01 0. -1.
         -5    1    4    4    0  503  0.40475378889E+02  0.29275336319E+02  0.40430552299E+02  0.64436179062E+02  0.47000000000E+01 0.  1.
<mgrwt>
<rscale>  0 0.16271458E+03</rscale>
<asrwt>0</asrwt>
<pdfrwt beam="1">  1        1 0.10408850E+00 0.16440428E+03</pdfrwt>
<pdfrwt beam="2">  1       -1 0.60002114E-02 0.16440428E+03</pdfrwt>
<totfact> 0.38823617E+03</totfact>
</mgrwt>
</event>
<event>
 8    1  0.3400573E-004  0.1386224E+03  0.7546771E-02  0.1217767E+00
          1   -1    0    0  501    0  0.00000000000E+00  0.00000000000E+00  0.50632816750E+03  0.50632816750E+03  0.00000000000E+00 0. -1.
         -1   -1    0    0    0  501 -0.00000000000E+00 -0.00000000000E+00 -0.38204963034E+02  0.38204963034E+02  0.00000000000E+00 0.  1.
         23    2    1    2    0    0 -0.69526714188E+02 -0.65626831975E+02  0.30584906897E+03  0.33579729871E+03  0.10037593224E+03 0.  0.
         23    2    1    2    0    0  0.69526714188E+02  0.65626831975E+02  0.16227413550E+03  0.20873583182E+03  0.89982817099E+02 0.  0.
          5    1    3    3  502    0 -0.42701074844E+02  0.12198398483E+01  0.21752670280E+03  0.22173142815E+03  0.47000000000E+01 0. -1.
         -5    1    3    3    0  502 -0.26825639344E+02 -0.66846671824E+02  0.88322366171E+02  0.11406587056E+03  0.47000000000E+01 0.  1.
          5    1    4    4  503    0  0.38522244217E+02  0.61559637769E+02  0.16146273105E+03  0.17710408188E+03  0.47000000000E+01 0. -1.
         -5    1    4    4    0  503  0.31004469971E+02  0.40671942059E+01  0.81140444839E+00  0.31631749937E+02  0.47000000000E+01 0.  1.
<mgrwt>
<rscale>  0 0.13675247E+03</rscale>
<asrwt>0</asrwt>
<pdfrwt beam="1">  1        1 0.77896636E-01 0.13862241E+03</pdfrwt>
<pdfrwt beam="2">  1       -1 0.58776870E-02 0.13862241E+03</pdfrwt>
<totfact> 0.58917881E+03</totfact>
</mgrwt>
</event>
<event>
 8    1  0.3400573E-004  0.9761928E+02  0.7546771E-02  0.1285945E+00
          2   -1    0    0  501    0  0.00000000000E+00  0.00000000000E+00  0.51757486152E+02  0.51757486152E+02  0.00000000000E+00 0.  1.
         -2   -1    0    0    0  501 -0.00000000000E+00 -0.00000000000E+00 -0.19241168572E+03  0.19241168572E+03  0.00000000000E+00 0. -1.
         23    2    1    2    0    0 -0.33362414327E+02  0.32433703784E+01 -0.41828800244E+02  0.10525918952E+03  0.90588510907E+02 0.  0.
         23    2    1    2    0    0  0.33362414327E+02 -0.32433703784E+01 -0.98825399324E+02  0.13890998235E+03  0.91683987168E+02 0.  0.
          5    1    3    3  502    0  0.16257186496E+02 -0.11823380202E+02  0.16966839267E+02  0.26721752691E+02  0.47000000000E+01 0. -1.
         -5    1    4    4    0  503  0.42621433851E+01 -0.41706646990E+02 -0.20738427652E+02  0.47008325335E+02  0.47000000000E+01 0.  1.
          5    1    4    4  503    0  0.29100270942E+02  0.38463276612E+02 -0.78086971672E+02  0.91901657012E+02  0.47000000000E+01 0. -1.
         -5    1    3    3    0  502 -0.49619600823E+02  0.15066750581E+02 -0.58795639511E+02  0.78537436834E+02  0.47000000000E+01 0.  1.
<mgrwt>
<rscale>  0 0.97361223E+02</rscale>
<asrwt>0</asrwt>
<pdfrwt beam="1">  1        2 0.79626902E-02 0.97619279E+02</pdfrwt>
<pdfrwt beam="2">  1       -2 0.29601798E-01 0.97619279E+02</pdfrwt>
<totfact> 0.81927525E+03</totfact>
</mgrwt>
</event>
<event>
 8    1  0.3400573E-004  0.9703015E+02  0.7546771E-02  0.1290828E+00
         -1   -1    0    0    0  501 -0.00000000000E+00  0.00000000000E+00  0.16477668746E+03  0.16477668746E+03  0.00000000000E+00 0.  1.
          1   -1    0    0  501    0  0.00000000000E+00 -0.00000000000E+00 -0.64995142231E+02  0.64995142231E+02  0.00000000000E+00 0. -1.
         23    2    1    2    0    0 -0.69180302364E+01  0.29106391296E+02  0.10095103588E+03  0.14002128780E+03  0.92302807309E+02 0.  0.
         23    2    1    2    0    0  0.69180302364E+01 -0.29106391296E+02 -0.11694906468E+01  0.89750541888E+02  0.84609401984E+02 0.  0.
          5    1    3    3  502    0 -0.44752924524E+02  0.28149444642E+02  0.34196046853E+02  0.63140122802E+02  0.47000000000E+01 0. -1.
         -5    1    3    3    0  502  0.37834894287E+02  0.95694665367E+00  0.66754989022E+02  0.76881165002E+02  0.47000000000E+01 0.  1.
          5    1    4    4  503    0 -0.23956491784E+02 -0.38719080668E+01 -0.31059833509E+02  0.39695194020E+02  0.47000000000E+01 0. -1.
         -5    1    4    4    0  503  0.30874522020E+02 -0.25234483229E+02  0.29890342862E+02  0.50055347868E+02  0.47000000000E+01 0.  1.
<mgrwt>
<rscale>  0 0.95154661E+02</rscale>
<asrwt>0</asrwt>
<pdfrwt beam="1">  1        1 0.99992527E-02 0.97030147E+02</pdfrwt>
<pdfrwt beam="2">  1       -1 0.25350260E-01 0.97030147E+02</pdfrwt>
<totfact> 0.80080380E+03</totfact>
</mgrwt>
</event>
<event>
 8    1  0.3400573E-004  0.9284899E+02  0.7546771E-02  0.1296610E+00
          1   -1    0    0  501    0  0.00000000000E+00  0.00000000000E+00  0.16653652859E+02  0.16653652859E+02  0.00000000000E+00 0. -1.
         -1   -1    0    0    0  501 -0.00000000000E+00 -0.00000000000E+00 -0.69488713565E+03  0.69488713565E+03  0.00000000000E+00 0.  1.
         23    2    1    2    0    0 -0.83491491282E+01 -0.15320023679E+02 -0.52006009341E+03  0.52812934790E+03  0.90297818022E+02 0.  0.
         23    2    1    2    0    0  0.83491491282E+01  0.15320023679E+02 -0.15817338938E+03  0.18341144061E+03  0.91194978050E+02 0.  0.
          5    1    4    4  502    0  0.22333494495E+02  0.44970387837E+02 -0.53051329318E+02  0.73195999214E+02  0.47000000000E+01 0. -1.
         -5    1    4    4    0  502 -0.13984345367E+02 -0.29650364158E+02 -0.10512206007E+03  0.11021544140E+03  0.47000000000E+01 0.  1.
          5    1    3    3  503    0  0.34906853503E+02  0.12990960072E+02 -0.28110982060E+03  0.28360549131E+03  0.47000000000E+01 0. -1.
         -5    1    3    3    0  503 -0.43256002631E+02 -0.28310983750E+02 -0.23895027281E+03  0.24452385659E+03  0.47000000000E+01 0.  1.
<mgrwt>
<rscale>  0 0.92627949E+02</rscale>
<asrwt>0</asrwt>
<pdfrwt beam="1">  1        1 0.25621011E-02 0.92848993E+02</pdfrwt>
<pdfrwt beam="2">  1       -1 0.10690568E+00 0.92848993E+02</pdfrwt>
<totfact> 0.34523691E+03</totfact>
</mgrwt>
</event>
<event>
 8    1  0.3400573E-004  0.9328264E+02  0.7546771E-02  0.1295676E+00
          1   -1    0    0  501    0  0.00000000000E+00  0.00000000000E+00  0.76940963337E+03  0.76940963337E+03  0.00000000000E+00 0. -1.
         -1   -1    0    0    0  501 -0.00000000000E+00 -0.00000000000E+00 -0.11263531080E+02  0.11263531080E+02  0.00000000000E+00 0.  1.
         23    2    1    2    0    0 -0.45895442647E+01 -0.11751213458E+02  0.40903847901E+03  0.41931768303E+03  0.91409447328E+02 0.  0.
         23    2    1    2    0    0  0.45895442647E+01  0.11751213458E+02  0.34910762328E+03  0.36135548142E+03  0.92425626221E+02 0.  0.
          5    1    3    3  502    0  0.39921659560E+02  0.10441661860E+02  0.15880941903E+03  0.16415020188E+03  0.47000000000E+01 0. -1.
         -5    1    4    4    0  503 -0.35019058851E+02  0.24264236000E+02  0.10051159043E+03  0.10926919713E+03  0.47000000000E+01 0.  1.
          5    1    4    4  503    0  0.39608603116E+02 -0.12513022542E+02  0.24859603286E+03  0.25208628429E+03  0.47000000000E+01 0. -1.
         -5    1    3    3    0  502 -0.44511203825E+02 -0.22192875318E+02  0.25022905998E+03  0.25516748115E+03  0.47000000000E+01 0.  1.
<mgrwt>
<rscale>  0 0.93029932E+02</rscale>
<asrwt>0</asrwt>
<pdfrwt beam="1">  1        1 0.11837067E+00 0.93282642E+02</pdfrwt>
<pdfrwt beam="2">  1       -1 0.17328515E-02 0.93282642E+02</pdfrwt>
<totfact> 0.19011666E+04</totfact>
</mgrwt>
</event>
<event>
 8    1  0.3400573E-004  0.9524227E+02  0.7546771E-02  0.1291952E+00
          2   -1    0    0  501    0  0.00000000000E+00  0.00000000000E+00  0.43539244319E+02  0.43539244319E+02  0.00000000000E+00 0. -1.
         -2   -1    0    0    0  501 -0.00000000000E+00 -0.00000000000E+00 -0.23757831689E+03  0.23757831689E+03  0.00000000000E+00 0.  1.
         23    2    1    2    0    0  0.29614625300E+02  0.91212092604E+01 -0.14938764078E+03  0.17592801910E+03  0.87600103867E+02 0.  0.
         23    2    1    2    0    0 -0.29614625300E+02 -0.91212092604E+01 -0.44651431791E+02  0.10518954210E+03  0.90060351528E+02 0.  0.
          5    1    3    3  502    0 -0.22569910237E+02  0.16486355490E+02 -0.16269722107E+02  0.32680187008E+02  0.47000000000E+01 0. -1.
         -5    1    4    4    0  503  0.22886830574E+02  0.15474105921E+02 -0.37159030185E+02  0.46541792961E+02  0.47000000000E+01 0.  1.
          5    1    4    4  503    0 -0.52501455874E+02 -0.24595315182E+02 -0.74924016062E+01  0.58647749144E+02  0.47000000000E+01 0. -1.
         -5    1    3    3    0  502  0.52184535537E+02 -0.73651462292E+01 -0.13311791867E+03  0.14324783209E+03  0.47000000000E+01 0.  1.
<mgrwt>
<rscale>  0 0.94656143E+02</rscale>
<asrwt>0</asrwt>
<pdfrwt beam="1">  1        2 0.66983453E-02 0.95242267E+02</pdfrwt>
<pdfrwt beam="2">  1       -2 0.36550510E-01 0.95242267E+02</pdfrwt>
<totfact> 0.69260422E+03</totfact>
</mgrwt>
</event>
<event>
 8    1  0.3400573E-004  0.9689405E+02  0.7546771E-02  0.1287020E+00
         -1   -1    0    0    0  501 -0.00000000000E+00  0.00000000000E+00  0.17942938077E+03  0.17942938077E+03  0.00000000000E+00 0.  1.
          1   -1    0    0  501    0  0.00000000000E+00 -0.00000000000E+00 -0.62405356016E+02  0.62405356016E+02  0.00000000000E+00 0. -1.
         23    2    1    2    0    0 -0.10225637537E+02  0.37378692304E+02  0.10721441449E+03  0.14444538666E+03  0.88700669390E+02 0.  0.
         23    2    1    2    0    0  0.10225637537E+02 -0.37378692304E+02  0.98096102637E+01  0.97389350132E+02  0.88807244999E+02 0.  0.
          5    1    4    4  502    0  0.31749062190E+02 -0.42824894391E+02 -0.22376941985E+02  0.58006827719E+02  0.47000000000E+01 0. -1.
         -5    1    4    4    0  502 -0.21523424652E+02  0.54462020870E+01  0.32186552248E+02  0.39382522413E+02  0.47000000000E+01 0.  1.
          5    1    3    3  503    0  0.20846655687E+02 -0.19801114725E+02  0.19227616704E+02  0.34906424077E+02  0.47000000000E+01 0. -1.
         -5    1    3    3    0  503 -0.31072293225E+02  0.57179807029E+02  0.87986797790E+02  0.10953896258E+03  0.47000000000E+01 0.  1.
<mgrwt>
<rscale>  0 0.96869624E+02</rscale>
<asrwt>0</asrwt>
<pdfrwt beam="1">  1        1 0.96008241E-02 0.96894051E+02</pdfrwt>
<pdfrwt beam="2">  1       -1 0.27604520E-01 0.96894051E+02</pdfrwt>
<totfact> 0.73458450E+03</totfact>
</mgrwt>
</event>
<event>
 8    1  0.3400573E-004  0.1426861E+03  0.7546771E-02  0.1209806E+00
          3   -1    0    0  501    0  0.00000000000E+00  0.00000000000E+00  0.77093377413E+03  0.77093377413E+03  0.00000000000E+00 0. -1.
         -3   -1    0    0    0  501 -0.00000000000E+00 -0.00000000000E+00 -0.43296129073E+02  0.43296129073E+02  0.00000000000E+00 0.  1.
         23    2    1    2    0    0 -0.93369732016E+02  0.56602644154E+02  0.10947335441E+03  0.17984362529E+03  0.91856126902E+02 0.  0.
         23    2    1    2    0    0  0.93369732016E+02 -0.56602644154E+02  0.61816429065E+03  0.63438627791E+03  0.91635654594E+02 0.  0.
          5    1    3    3  502    0 -0.42421889817E+02  0.44226353801E+02  0.11133193819E+03  0.12717105633E+03  0.47000000000E+01 0. -1.
         -5    1    3    3    0  502 -0.50947842199E+02  0.12376290353E+02 -0.18585837773E+01  0.52672568965E+02  0.47000000000E+01 0.  1.
          5    1    4    4  503    0  0.67466738991E+02 -0.35972772220E+02  0.57346790478E+03  0.57856143064E+03  0.47000000000E+01 0. -1.
         -5    1    4    4    0  503  0.25902993025E+02 -0.20629871934E+02  0.44696385868E+02  0.55824847276E+02  0.47000000000E+01 0.  1.
<mgrwt>
<rscale>  0 0.14265060E+03</rscale>
<asrwt>0</asrwt>
<pdfrwt beam="1">  1        3 0.11860519E+00 0.14268607E+03</pdfrwt>
<pdfrwt beam="2">  1       -3 0.66609435E-02 0.14268607E+03</pdfrwt>
<totfact> 0.20621181E+02</totfact>
</mgrwt>
</event>
<event>
 8    1  0.3400573E-004  0.1073304E+03  0.7546771E-02  0.1269348E+00
          2   -1    0    0  501    0  0.00000000000E+00  0.00000000000E+00  0.79260234799E+02  0.79260234799E+02  0.00000000000E+00 0. -1.
         -2   -1    0    0    0  501 -0.00000000000E+00 -0.00000000000E+00 -0.28865943594E+03  0.28865943594E+03  0.00000000000E+00 0.  1.
         23    2    1    2    0    0 -0.26064192820E+02  0.16450784832E+02  0.27555367421E+02  0.11081120339E+03  0.10280979551E+03 0.  0.
         23    2    1    2    0    0  0.26064192820E+02 -0.16450784832E+02 -0.23695456856E+03  0.25710846735E+03  0.94906933114E+02 0.  0.
          5    1    3    3  502    0 -0.57616995506E+02 -0.28764556260E+01 -0.90119808783E+01  0.58577282008E+02  0.47000000000E+01 0. -1.
         -5    1    4    4    0  503  0.57456732109E+02 -0.16418102476E+02 -0.10056334670E+03  0.11707222921E+03  0.47000000000E+01 0. -1.
          5    1    4    4  503    0 -0.31392539289E+02 -0.32682355222E-01 -0.13639122186E+03  0.14003623814E+03  0.47000000000E+01 0.  1.
         -5    1    3    3    0  502  0.31552802685E+02  0.19327240457E+02  0.36567348299E+02  0.52233921379E+02  0.47000000000E+01 0.  1.
<mgrwt>
<rscale>  0 0.10539254E+03</rscale>
<asrwt>0</asrwt>
<pdfrwt beam="1">  1        2 0.12193882E-01 0.10733045E+03</pdfrwt>
<pdfrwt beam="2">  1       -2 0.44409144E-01 0.10733045E+03</pdfrwt>
<totfact> 0.23199961E+03</totfact>
</mgrwt>
</event>
<event>
 8    1  0.3400573E-004  0.1400131E+03  0.7546771E-02  0.1214878E+00
          2   -1    0    0  501    0  0.00000000000E+00  0.00000000000E+00  0.11511661697E+03  0.11511661697E+03  0.00000000000E+00 0. -1.
         -2   -1    0    0    0  501 -0.00000000000E+00 -0.00000000000E+00 -0.17121765647E+03  0.17121765647E+03  0.00000000000E+00 0.  1.
         23    2    1    2    0    0  0.94151054402E+02 -0.34335924049E+02 -0.56266640923E+02  0.15089596384E+03  0.97776685850E+02 0.  0.
         23    2    1    2    0    0 -0.94151054402E+02  0.34335924049E+02  0.16560142468E+00  0.13543830960E+03  0.91105057814E+02 0.  0.
          5    1    3    3  502    0  0.92351118497E+02  0.82516456120E+01 -0.20547407067E+02  0.95084723695E+02  0.47000000000E+01 0. -1.
         -5    1    3    3    0  502  0.17999359057E+01 -0.42587569661E+02 -0.35719233856E+02  0.55811240142E+02  0.47000000000E+01 0.  1.
          5    1    4    4  503    0 -0.78584570046E+02 -0.14472186804E+02 -0.15766769595E+02  0.81582227621E+02  0.47000000000E+01 0. -1.
         -5    1    4    4    0  503 -0.15566484357E+02  0.48808110854E+02  0.15932371020E+02  0.53856081984E+02  0.47000000000E+01 0.  1.
<mgrwt>
<rscale>  0 0.13885506E+03</rscale>
<asrwt>0</asrwt>
<pdfrwt beam="1">  1        2 0.17710249E-01 0.14001306E+03</pdfrwt>
<pdfrwt beam="2">  1       -2 0.26341178E-01 0.14001306E+03</pdfrwt>
<totfact> 0.39752741E+03</totfact>
</mgrwt>
</event>
<event>
 8    1  0.3400573E-004  0.1115008E+03  0.7546771E-02  0.1259169E+00
          1   -1    0    0  501    0  0.00000000000E+00  0.00000000000E+00  0.13580493183E+03  0.13580493183E+03  0.00000000000E+00 0. -1.
         -1   -1    0    0    0  501 -0.00000000000E+00 -0.00000000000E+00 -0.91436124531E+02  0.91436124531E+02  0.00000000000E+00 0.  1.
         23    2    1    2    0    0 -0.59114698555E+01  0.58585247825E+02  0.45240652816E+01  0.11159257739E+03  0.94685053851E+02 0.  0.
         23    2    1    2    0    0  0.59114698555E+01 -0.58585247825E+02  0.39844742020E+02  0.11564847897E+03  0.91212885515E+02 0.  0.
          5    1    4    4  502    0  0.40294099865E+02 -0.61128068181E+02  0.22292091379E+02  0.76676479716E+02  0.47000000000E+01 0. -1.
         -5    1    3    3    0  503 -0.38878155255E+02  0.66361961096E+02  0.65738190700E+01  0.77335153286E+02  0.47000000000E+01 0.  1.
          5    1    3    3  503    0  0.32966685399E+02 -0.77767132715E+01 -0.20497537884E+01  0.34257424102E+02  0.47000000000E+01 0. -1.
         -5    1    4    4    0  502 -0.34382630010E+02  0.25428203566E+01  0.17552650641E+02  0.38971999259E+02  0.47000000000E+01 0.  1.
<mgrwt>
<rscale>  0 0.11076023E+03</rscale>
<asrwt>0</asrwt>
<pdfrwt beam="1">  1        1 0.20893067E-01 0.11150083E+03</pdfrwt>
<pdfrwt beam="2">  1       -1 0.14067096E-01 0.11150083E+03</pdfrwt>
<totfact> 0.79960727E+03</totfact>
</mgrwt>
</event>
<event>
 8    1  0.3400573E-004  0.1016816E+03  0.7546771E-02  0.1278600E+00
          2   -1    0    0  501    0  0.00000000000E+00  0.00000000000E+00  0.63549370331E+03  0.63549370331E+03  0.00000000000E+00 0. -1.
         -2   -1    0    0    0  501 -0.00000000000E+00 -0.00000000000E+00 -0.34744279471E+02  0.34744279471E+02  0.00000000000E+00 0.  1.
         23    2    1    2    0    0 -0.44293977928E+02 -0.17841988394E-01  0.54777744693E+02  0.11549787461E+03  0.91527050249E+02 0.  0.
         23    2    1    2    0    0  0.44293977928E+02  0.17841988394E-01  0.54597167914E+03  0.55474010817E+03  0.87690115650E+02 0.  0.
          5    1    4    4  502    0  0.44082775446E+02 -0.30928603351E+02  0.46150565510E+03  0.46466055275E+03  0.47000000000E+01 0. -1.
         -5    1    4    4    0  502  0.21120248216E+00  0.30946445339E+02  0.84466024042E+02  0.90079555411E+02  0.47000000000E+01 0.  1.
          5    1    3    3  503    0  0.74819428638E+01 -0.36465583272E+02  0.14047082571E+02  0.40064058221E+02  0.47000000000E+01 0. -1.
         -5    1    3    3    0  503 -0.51775920792E+02  0.36447741283E+02  0.40730662122E+02  0.75433816391E+02  0.47000000000E+01 0.  1.
<mgrwt>
<rscale>  0 0.10081064E+03</rscale>
<asrwt>0</asrwt>
<pdfrwt beam="1">  1        2 0.97768253E-01 0.10168165E+03</pdfrwt>
<pdfrwt beam="2">  1       -2 0.53452742E-02 0.10168165E+03</pdfrwt>
<totfact> 0.78541356E+03</totfact>
</mgrwt>
</event>
<event>
 8    1  0.3400573E-004  0.9443874E+02  0.7546771E-02  0.1293081E+00
          2   -1    0    0  501    0  0.00000000000E+00  0.00000000000E+00  0.67349282698E+03  0.67349282698E+03  0.00000000000E+00 0. -1.
         -2   -1    0    0    0  501 -0.00000000000E+00 -0.00000000000E+00 -0.95811946564E+02  0.95811946564E+02  0.00000000000E+00 0.  1.
         23    2    1    2    0    0 -0.30862392091E+01 -0.16513232369E+02 -0.68811266645E+02  0.11595129165E+03  0.91801415581E+02 0.  0.
         23    2    1    2    0    0  0.30862392091E+01  0.16513232369E+02  0.64649214706E+03  0.65335348189E+03  0.92932579722E+02 0.  0.
          5    1    3    3  502    0 -0.55485764712E+01  0.24854412232E+02  0.92075647255E+01  0.27484500295E+02  0.47000000000E+01 0. -1.
         -5    1    3    3    0  502  0.24623372621E+01 -0.41367644601E+02 -0.78018831371E+02  0.88466791357E+02  0.47000000000E+01 0.  1.
          5    1    4    4  503    0 -0.34020040077E+02  0.36906338957E+02  0.40590887206E+03  0.40902755824E+03  0.47000000000E+01 0. -1.
         -5    1    4    4    0  503  0.37106279286E+02 -0.20393106589E+02  0.24058327500E+03  0.24432592365E+03  0.47000000000E+01 0.  1.
<mgrwt>
<rscale>  0 0.94159278E+02</rscale>
<asrwt>0</asrwt>
<pdfrwt beam="1">  1        2 0.10361428E+00 0.94438743E+02</pdfrwt>
<pdfrwt beam="2">  1       -2 0.14740300E-01 0.94438743E+02</pdfrwt>
<totfact> 0.15240937E+03</totfact>
</mgrwt>
</event>
<event>
 8    1  0.3400573E-004  0.9437462E+02  0.7546771E-02  0.1300039E+00
         -1   -1    0    0    0  501 -0.00000000000E+00  0.00000000000E+00  0.82804688476E+02  0.82804688476E+02  0.00000000000E+00 0.  1.
          1   -1    0    0  501    0  0.00000000000E+00 -0.00000000000E+00 -0.15930726186E+03  0.15930726186E+03  0.00000000000E+00 0. -1.
         23    2    1    2    0    0  0.15153616548E+02  0.25664265991E+02 -0.11713051439E+03  0.15041983467E+03  0.89544863718E+02 0.  0.
         23    2    1    2    0    0 -0.15153616548E+02 -0.25664265991E+02  0.40627941004E+02  0.91692115666E+02  0.76606317245E+02 0.  0.
          5    1    4    4  502    0  0.20746461371E+02  0.20238019980E+01  0.40861623186E+02  0.46111535252E+02  0.47000000000E+01 0. -1.
         -5    1    4    4    0  502 -0.35900077919E+02 -0.27688067989E+02 -0.23368218176E+00  0.45580580414E+02  0.47000000000E+01 0.  1.
          5    1    3    3  503    0  0.39120328813E+02  0.29668983709E+02 -0.11553072735E+03  0.12561881898E+03  0.47000000000E+01 0. -1.
         -5    1    3    3    0  503 -0.23966712265E+02 -0.40047177182E+01 -0.15997870444E+01  0.24801015693E+02  0.47000000000E+01 0.  1.
<mgrwt>
<rscale>  0 0.91171514E+02</rscale>
<asrwt>0</asrwt>
<pdfrwt beam="1">  1        1 0.24508810E-01 0.94374622E+02</pdfrwt>
<pdfrwt beam="2">  1       -1 0.12739183E-01 0.94374622E+02</pdfrwt>
<totfact> 0.75282945E+03</totfact>
</mgrwt>
</event>
<event>
 8    1  0.3400573E-004  0.9614286E+02  0.7546771E-02  0.1290229E+00
         -2   -1    0    0    0  501 -0.00000000000E+00  0.00000000000E+00  0.17946274898E+02  0.17946274898E+02  0.00000000000E+00 0.  1.
          2   -1    0    0  501    0  0.00000000000E+00 -0.00000000000E+00 -0.50025702232E+03  0.50025702232E+03  0.00000000000E+00 0. -1.
         23    2    1    2    0    0 -0.26653811719E+02  0.16507917390E+02 -0.23780459178E+03  0.25650433526E+03  0.90887365014E+02 0.  0.
         23    2    1    2    0    0  0.26653811719E+02 -0.16507917390E+02 -0.24450615565E+03  0.26169896196E+03  0.87864381452E+02 0.  0.
          5    1    3    3  502    0  0.16045044180E+02  0.40726726914E+02 -0.14325554866E+03  0.14986778156E+03  0.47000000000E+01 0. -1.
         -5    1    3    3    0  502 -0.42698855899E+02 -0.24218809523E+02 -0.94549043115E+02  0.10663655369E+03  0.47000000000E+01 0.  1.
          5    1    4    4  503    0  0.48752859923E+02  0.16026207759E+02 -0.10984159059E+03  0.12132990443E+03  0.47000000000E+01 0. -1.
         -5    1    4    4    0  503 -0.22099048204E+02 -0.32534125149E+02 -0.13466456506E+03  0.14036905753E+03  0.47000000000E+01 0.  1.
<mgrwt>
<rscale>  0 0.95421656E+02</rscale>
<asrwt>0</asrwt>
<pdfrwt beam="1">  1        2 0.76962630E-01 0.96142863E+02</pdfrwt>
<pdfrwt beam="2">  1       -2 0.27609650E-02 0.96142863E+02</pdfrwt>
<totfact> 0.26953755E+04</totfact>
</mgrwt>
</event>
<event>
 8    1  0.3400573E-004  0.1011388E+03  0.7546771E-02  0.1279917E+00
          2   -1    0    0  501    0  0.00000000000E+00  0.00000000000E+00  0.15800028172E+03  0.15800028172E+03  0.00000000000E+00 0. -1.
         -2   -1    0    0    0  501 -0.00000000000E+00 -0.00000000000E+00 -0.10775150579E+03  0.10775150579E+03  0.00000000000E+00 0.  1.
         23    2    1    2    0    0  0.19089572051E+02 -0.27536872938E+02  0.11109637855E+03  0.14772002471E+03  0.91411756576E+02 0.  0.
         23    2    1    2    0    0 -0.19089572051E+02  0.27536872938E+02 -0.60847602619E+02  0.11803176280E+03  0.95427329172E+02 0.  0.
          5    1    4    4  502    0  0.16260973371E+02  0.54002314441E+02 -0.37129919085E+02  0.67685966870E+02  0.47000000000E+01 0. -1.
         -5    1    4    4    0  502 -0.35350545422E+02 -0.26465441503E+02 -0.23717683534E+02  0.50345795930E+02  0.47000000000E+01 0.  1.
          5    1    3    3  503    0  0.41275793522E+02 -0.50239440518E+02  0.71613043144E+02  0.96841160995E+02  0.47000000000E+01 0. -1.
         -5    1    3    3    0  503 -0.22186221472E+02  0.22702567580E+02  0.39483335404E+02  0.50878863711E+02  0.47000000000E+01 0.  1.
<mgrwt>
<rscale>  0 0.10018038E+03</rscale>
<asrwt>0</asrwt>
<pdfrwt beam="1">  1        2 0.24307736E-01 0.10113885E+03</pdfrwt>
<pdfrwt beam="2">  1       -2 0.16577155E-01 0.10113885E+03</pdfrwt>
<totfact> 0.59869969E+03</totfact>
</mgrwt>
</event>
<event>
 8    1  0.3400573E-004  0.1117777E+03  0.7546771E-02  0.1258340E+00
          2   -1    0    0  501    0  0.00000000000E+00  0.00000000000E+00  0.66860444711E+03  0.66860444711E+03  0.00000000000E+00 0. -1.
         -2   -1    0    0    0  501 -0.00000000000E+00 -0.00000000000E+00 -0.18859408735E+02  0.18859408735E+02  0.00000000000E+00 0.  1.
         23    2    1    2    0    0 -0.57654304386E+02  0.23911744556E+02  0.38012435983E+03  0.39559135556E+03  0.90012228695E+02 0.  0.
         23    2    1    2    0    0  0.57654304386E+02 -0.23911744556E+02  0.26962067854E+03  0.29187250028E+03  0.92727858719E+02 0.  0.
          5    1    3    3  502    0 -0.14250568941E+02 -0.28734892855E+02  0.20567748044E+03  0.20821644686E+03  0.47000000000E+01 0. -1.
         -5    1    3    3    0  502 -0.43403735444E+02  0.52646637410E+02  0.17444687939E+03  0.18737490870E+03  0.47000000000E+01 0.  1.
          5    1    4    4  503    0  0.48850844889E+02 -0.57981607670E+02  0.17329236467E+03  0.18921047943E+03  0.47000000000E+01 0. -1.
         -5    1    4    4    0  503  0.88034594968E+01  0.34069863114E+02  0.96328313871E+02  0.10266202085E+03  0.47000000000E+01 0.  1.
<mgrwt>
<rscale>  0 0.11121282E+03</rscale>
<asrwt>0</asrwt>
<pdfrwt beam="1">  1        2 0.10286220E+00 0.11177766E+03</pdfrwt>
<pdfrwt beam="2">  1       -2 0.29014480E-02 0.11177766E+03</pdfrwt>
<totfact> 0.18392471E+04</totfact>
</mgrwt>
</event>
<event>
 8    1  0.3400573E-004  0.1127524E+03  0.7546771E-02  0.1257038E+00
          1   -1    0    0  501    0  0.00000000000E+00  0.00000000000E+00  0.16684917329E+03  0.16684917329E+03  0.00000000000E+00 0. -1.
         -1   -1    0    0    0  501 -0.00000000000E+00 -0.00000000000E+00 -0.11658472930E+03  0.11658472930E+03  0.00000000000E+00 0.  1.
         23    2    1    2    0    0  0.26383015605E+02 -0.56639746225E+02 -0.60267826549E+02  0.12784879478E+03  0.93856161470E+02 0.  0.
         23    2    1    2    0    0 -0.26383015605E+02  0.56639746225E+02  0.11053227054E+03  0.15558510780E+03  0.89917843476E+02 0.  0.
          5    1    4    4  502    0 -0.57104160949E+02  0.45025190093E+02  0.92717085148E+02  0.11792667560E+03  0.47000000000E+01 0. -1.
         -5    1    3    3    0  503 -0.43610055125E+01 -0.40356835620E+02 -0.78345555977E+02  0.88361805616E+02  0.47000000000E+01 0.  1.
          5    1    3    3  503    0  0.30744021118E+02 -0.16282910604E+02  0.18077729428E+02  0.39486989168E+02  0.47000000000E+01 0. -1.
         -5    1    4    4    0  502  0.30721145343E+02  0.11614556132E+02  0.17815185390E+02  0.37658432201E+02  0.47000000000E+01 0.  1.
<mgrwt>
<rscale>  0 0.11192929E+03</rscale>
<asrwt>0</asrwt>
<pdfrwt beam="1">  1        1 0.25669104E-01 0.11275240E+03</pdfrwt>
<pdfrwt beam="2">  1       -1 0.17936112E-01 0.11275240E+03</pdfrwt>
<totfact> 0.42256137E+03</totfact>
</mgrwt>
</event>
<event>
 8    1  0.3400573E-004  0.1269717E+03  0.7546771E-02  0.1233278E+00
         -1   -1    0    0    0  501 -0.00000000000E+00  0.00000000000E+00  0.51359619034E+02  0.51359619034E+02  0.00000000000E+00 0.  1.
          1   -1    0    0  501    0  0.00000000000E+00 -0.00000000000E+00 -0.30633552762E+03  0.30633552762E+03  0.00000000000E+00 0. -1.
         23    2    1    2    0    0 -0.70357934160E+02 -0.46024715392E+02 -0.11939242414E+03  0.17194075567E+03  0.90777525814E+02 0.  0.
         23    2    1    2    0    0  0.70357934160E+02  0.46024715392E+02 -0.13558348445E+03  0.18575439098E+03  0.95148826520E+02 0.  0.
          5    1    3    3  502    0 -0.83872464967E+02 -0.11203730092E+02 -0.93826091011E+02  0.12643393256E+03  0.47000000000E+01 0. -1.
         -5    1    4    4    0  503  0.65672326423E+02  0.37402001812E+01 -0.12551360389E+03  0.14178363205E+03  0.47000000000E+01 0.  1.
          5    1    4    4  503    0  0.46856077364E+01  0.42284515211E+02 -0.10069880551E+02  0.43970758929E+02  0.47000000000E+01 0. -1.
         -5    1    3    3    0  502  0.13514530808E+02 -0.34820985300E+02 -0.25566333126E+02  0.45506823112E+02  0.47000000000E+01 0.  1.
<mgrwt>
<rscale>  0 0.12615336E+03</rscale>
<asrwt>0</asrwt>
<pdfrwt beam="1">  1        1 0.47128542E-01 0.12697170E+03</pdfrwt>
<pdfrwt beam="2">  1       -1 0.79014800E-02 0.12697170E+03</pdfrwt>
<totfact> 0.70978654E+03</totfact>
</mgrwt>
</event>
<event>
 8    1  0.3400573E-004  0.1051179E+03  0.7546771E-02  0.1269954E+00
         -1   -1    0    0    0  501 -0.00000000000E+00  0.00000000000E+00  0.51909444567E+02  0.51909444567E+02  0.00000000000E+00 0.  1.
          1   -1    0    0  501    0  0.00000000000E+00 -0.00000000000E+00 -0.22104054754E+03  0.22104054754E+03  0.00000000000E+00 0. -1.
         23    2    1    2    0    0  0.10988414749E+02  0.51011037758E+02 -0.11119411004E+03  0.15292306232E+03  0.91095892610E+02 0.  0.
         23    2    1    2    0    0 -0.10988414749E+02 -0.51011037758E+02 -0.57936992933E+02  0.12002692979E+03  0.91251835555E+02 0.  0.
          5    1    3    3  502    0  0.13666985089E+02  0.31088578262E+02 -0.12398504283E+03  0.12863773562E+03  0.47000000000E+01 0. -1.
         -5    1    4    4    0  503 -0.50563165311E+02 -0.37106977078E+02 -0.33666989413E+02  0.71338051629E+02  0.47000000000E+01 0.  1.
          5    1    4    4  503    0  0.39574750562E+02 -0.13904060680E+02 -0.24270003520E+02  0.48688878158E+02  0.47000000000E+01 0. -1.
         -5    1    3    3    0  502 -0.26785703404E+01  0.19922459495E+02  0.12790932789E+02  0.24285326702E+02  0.47000000000E+01 0.  1.
<mgrwt>
<rscale>  0 0.10508403E+03</rscale>
<asrwt>0</asrwt>
<pdfrwt beam="1">  1        1 0.34006238E-01 0.10511788E+03</pdfrwt>
<pdfrwt beam="2">  1       -1 0.79860684E-02 0.10511788E+03</pdfrwt>
<totfact> 0.10286678E+04</totfact>
</mgrwt>
</event>
<event>
 8    1  0.3400573E-004  0.1451366E+03  0.7546771E-02  0.1207437E+00
          2   -1    0    0  501    0  0.00000000000E+00  0.00000000000E+00  0.79068035836E+03  0.79068035836E+03  0.00000000000E+00 0. -1.
         -2   -1    0    0    0  501 -0.00000000000E+00 -0.00000000000E+00 -0.27585056521E+02  0.27585056521E+02  0.00000000000E+00 0.  1.
         23    2    1    2    0    0  0.89016228554E+02 -0.67976951762E+02  0.28515196456E+03  0.31877121044E+03  0.88083408184E+02 0.  0.
         23    2    1    2    0    0 -0.89016228554E+02  0.67976951762E+02  0.47794333728E+03  0.49949420444E+03  0.92303151094E+02 0.  0.
          5    1    4    4  502    0  0.11945216573E+02  0.37200575260E+02  0.12047330434E+03  0.12673783199E+03  0.47000000000E+01 0. -1.
         -5    1    4    4    0  502 -0.10096144513E+03  0.30776376502E+02  0.35747003294E+03  0.37275637245E+03  0.47000000000E+01 0.  1.
          5    1    3    3  503    0  0.71259709987E+02 -0.57370406645E+02  0.28299451075E+03  0.29745132869E+03  0.47000000000E+01 0. -1.
         -5    1    3    3    0  503  0.17756518567E+02 -0.10606545117E+02  0.21574538117E+01  0.21319881752E+02  0.47000000000E+01 0.  1.
<mgrwt>
<rscale>  0 0.14447040E+03</rscale>
<asrwt>0</asrwt>
<pdfrwt beam="1">  1        2 0.12164311E+00 0.14513658E+03</pdfrwt>
<pdfrwt beam="2">  1       -2 0.42438554E-02 0.14513658E+03</pdfrwt>
<totfact> 0.87395659E+03</totfact>
</mgrwt>
</event>
<event>
 8    1  0.3400573E-004  0.1394220E+03  0.7546771E-02  0.1214244E+00
         -1   -1    0    0    0  501 -0.00000000000E+00  0.00000000000E+00  0.32500236802E+02  0.32500236802E+02  0.00000000000E+00 0.  1.
          1   -1    0    0  501    0  0.00000000000E+00 -0.00000000000E+00 -0.62216288450E+03  0.62216288450E+03  0.00000000000E+00 0. -1.
         23    2    1    2    0    0  0.47518812382E+02 -0.95248978649E+02 -0.36104235371E+03  0.38688385869E+03  0.89426693328E+02 0.  0.
         23    2    1    2    0    0 -0.47518812382E+02  0.95248978649E+02 -0.22862029399E+03  0.26777926261E+03  0.90044928774E+02 0.  0.
          5    1    4    4  502    0 -0.64977102789E+02  0.50334035467E+02 -0.95277814947E+02  0.12591858891E+03  0.47000000000E+01 0. -1.
         -5    1    3    3    0  503  0.22835348118E+02 -0.69206006075E+02 -0.10268792595E+03  0.12600724002E+03  0.47000000000E+01 0.  1.
          5    1    3    3  503    0  0.24683464264E+02 -0.26042972573E+02 -0.25835442776E+03  0.26087661867E+03  0.47000000000E+01 0. -1.
         -5    1    4    4    0  502  0.17458290407E+02  0.44914943182E+02 -0.13334247904E+03  0.14186067370E+03  0.47000000000E+01 0.  1.
<mgrwt>
<rscale>  0 0.13932227E+03</rscale>
<asrwt>0</asrwt>
<pdfrwt beam="1">  1        1 0.95717359E-01 0.13942200E+03</pdfrwt>
<pdfrwt beam="2">  1       -1 0.50000368E-02 0.13942200E+03</pdfrwt>
<totfact> 0.56852363E+03</totfact>
</mgrwt>
</event>
<event>
 8    1  0.3400573E-004  0.9312882E+02  0.7546771E-02  0.1295988E+00
         -1   -1    0    0    0  501 -0.00000000000E+00  0.00000000000E+00  0.25133091133E+03  0.25133091133E+03  0.00000000000E+00 0.  1.
          1   -1    0    0  501    0  0.00000000000E+00 -0.00000000000E+00 -0.11918385627E+03  0.11918385627E+03  0.00000000000E+00 0. -1.
         23    2    1    2    0    0  0.10759805591E+02 -0.14411235729E+02 -0.90489256226E+02  0.12918531749E+03  0.90427228379E+02 0.  0.
         23    2    1    2    0    0 -0.10759805591E+02  0.14411235729E+02  0.22263631128E+03  0.24132945011E+03  0.91375703861E+02 0.  0.
          5    1    4    4  502    0 -0.47303905472E+02  0.24953745533E+02  0.11108811020E+03  0.12338155096E+03  0.47000000000E+01 0. -1.
         -5    1    3    3    0  503 -0.10484123121E+02  0.32737584770E+02 -0.59032887472E+02  0.68473630673E+02  0.47000000000E+01 0.  1.
          5    1    3    3  503    0  0.21243928712E+02 -0.47148820499E+02 -0.31456368754E+02  0.60711686822E+02  0.47000000000E+01 0. -1.
         -5    1    4    4    0  502  0.36544099881E+02 -0.10542509804E+02  0.11154820108E+03  0.11794789915E+03  0.47000000000E+01 0.  1.
<mgrwt>
<rscale>  0 0.92895330E+02</rscale>
<asrwt>0</asrwt>
<pdfrwt beam="1">  1        1 0.18335978E-01 0.93128816E+02</pdfrwt>
<pdfrwt beam="2">  1       -1 0.38666294E-01 0.93128816E+02</pdfrwt>
<totfact> 0.18028991E+03</totfact>
</mgrwt>
</event>
<event>
 8    1  0.3400573E-004  0.1870534E+03  0.7546771E-02  0.1161379E+00
          2   -1    0    0  501    0  0.00000000000E+00  0.00000000000E+00  0.74007226812E+03  0.74007226812E+03  0.00000000000E+00 0. -1.
         -2   -1    0    0    0  501 -0.00000000000E+00 -0.00000000000E+00 -0.49463697940E+02  0.49463697940E+02  0.00000000000E+00 0.  1.
         23    2    1    2    0    0  0.10677563181E+02  0.16317491091E+03  0.25850176069E+03  0.31908012083E+03  0.90823462385E+02 0.  0.
         23    2    1    2    0    0 -0.10677563181E+02 -0.16317491091E+03  0.43210680949E+03  0.47045584524E+03  0.88726239643E+02 0.  0.
          5    1    4    4  502    0  0.30363597712E+02 -0.11633211975E+03  0.24035954293E+03  0.26879343375E+03  0.47000000000E+01 0. -1.
         -5    1    4    4    0  502 -0.41041160893E+02 -0.46842791166E+02  0.19174726657E+03  0.20166241149E+03  0.47000000000E+01 0.  1.
          5    1    3    3  503    0 -0.59048896918E+01  0.50206746881E+02  0.16115263491E+03  0.16896108100E+03  0.47000000000E+01 0. -1.
         -5    1    3    3    0  503  0.16582452873E+02  0.11296816403E+03  0.97349125781E+02  0.15011903983E+03  0.47000000000E+01 0.  1.
<mgrwt>
<rscale>  0 0.18680054E+03</rscale>
<asrwt>0</asrwt>
<pdfrwt beam="1">  1        2 0.11385726E+00 0.18705337E+03</pdfrwt>
<pdfrwt beam="2">  1       -2 0.76098002E-02 0.18705337E+03</pdfrwt>
<totfact> 0.39476201E+03</totfact>
</mgrwt>
</event>
<event>
 8    1  0.3907655E-004  0.1141350E+03  0.7546771E-02  0.1262173E+00
         -2   -1    0    0    0  501 -0.00000000000E+00  0.00000000000E+00  0.72297569006E+02  0.72297569006E+02  0.00000000000E+00 0.  1.
          2   -1    0    0  501    0  0.00000000000E+00 -0.00000000000E+00 -0.28361107512E+03  0.28361107512E+03  0.00000000000E+00 0. -1.
         23    2    1    2    0    0  0.29884340859E+01 -0.42113641139E+02 -0.23174086483E+03  0.25832273916E+03  0.10603923625E+03 0.  0.
         23    2    1    2    0    0 -0.29884340859E+01  0.42113641139E+02  0.20427358718E+02  0.97585904967E+02  0.85575944960E+02 0.  0.
          5    1    4    4  502    0 -0.17564138084E+02 -0.22298997432E+02  0.10548030878E+02  0.30644660033E+02  0.47000000000E+01 0. -1.
         -5    1    3    3    0  503  0.96171914609E+01  0.20162082352E+02 -0.54370725615E+01  0.23465968858E+02  0.47000000000E+01 0.  1.
          5    1    3    3  503    0 -0.66287573750E+01 -0.62275723491E+02 -0.22630379227E+03  0.23485677030E+03  0.47000000000E+01 0. -1.
         -5    1    4    4    0  502  0.14575703999E+02  0.64412638571E+02  0.98793278405E+01  0.66941244934E+02  0.47000000000E+01 0.  1.
<mgrwt>
<rscale>  0 0.10913866E+03</rscale>
<asrwt>0</asrwt>
<pdfrwt beam="1">  1        2 0.43632473E-01 0.11413505E+03</pdfrwt>
<pdfrwt beam="2">  1       -2 0.11122703E-01 0.11413505E+03</pdfrwt>
<totfact> 0.61329843E+03</totfact>
</mgrwt>
</event>
<event>
 8    1  0.3400573E-004  0.9920047E+02  0.7546771E-02  0.1284512E+00
          2   -1    0    0  501    0  0.00000000000E+00  0.00000000000E+00  0.54101610773E+03  0.54101610773E+03  0.00000000000E+00 0. -1.
         -2   -1    0    0    0  501 -0.00000000000E+00 -0.00000000000E+00 -0.17353625390E+02  0.17353625390E+02  0.00000000000E+00 0.  1.
         23    2    1    2    0    0 -0.13007911187E+02 -0.21319590149E+02  0.25959206225E+03  0.27628123612E+03  0.91211578059E+02 0.  0.
         23    2    1    2    0    0  0.13007911187E+02  0.21319590149E+02  0.26407042009E+03  0.28208849700E+03  0.96005222226E+02 0.  0.
          5    1    3    3  502    0 -0.28580650005E+02 -0.41819939015E+02  0.80081122141E+02  0.94872740961E+02  0.47000000000E+01 0. -1.
         -5    1    3    3    0  502  0.15572738817E+02  0.20500348867E+02  0.17951094011E+03  0.18140849516E+03  0.47000000000E+01 0.  1.
          5    1    4    4  503    0  0.48938901227E+02  0.23576285319E+02  0.20997211786E+03  0.21693602182E+03  0.47000000000E+01 0. -1.
         -5    1    4    4    0  503 -0.35930990039E+02 -0.22566951700E+01  0.54098302234E+02  0.65152475186E+02  0.47000000000E+01 0.  1.
<mgrwt>
<rscale>  0 0.98021743E+02</rscale>
<asrwt>0</asrwt>
<pdfrwt beam="1">  1        2 0.83233234E-01 0.99200471E+02</pdfrwt>
<pdfrwt beam="2">  1       -2 0.26697889E-02 0.99200471E+02</pdfrwt>
<totfact> 0.26066601E+04</totfact>
</mgrwt>
</event>
<event>
 8    1  0.3400573E-004  0.9732144E+02  0.7546771E-02  0.1286679E+00
          2   -1    0    0  501    0  0.00000000000E+00  0.00000000000E+00  0.73832730939E+02  0.73832730939E+02  0.00000000000E+00 0.  1.
         -2   -1    0    0    0  501 -0.00000000000E+00 -0.00000000000E+00 -0.28568701774E+03  0.28568701774E+03  0.00000000000E+00 0. -1.
         23    2    1    2    0    0 -0.33229699918E+02  0.13265954554E+02 -0.24029902204E+03  0.25925871721E+03  0.90505601742E+02 0.  0.
         23    2    1    2    0    0  0.33229699918E+02 -0.13265954554E+02  0.28444735239E+02  0.10026103147E+03  0.89235491608E+02 0.  0.
          5    1    4    4  502    0 -0.16108937176E+02  0.23829021547E+02 -0.54996203555E+01  0.29658994401E+02  0.47000000000E+01 0. -1.
         -5    1    4    4    0  502  0.49338637094E+02 -0.37094976100E+02  0.33944355595E+02  0.70602037073E+02  0.47000000000E+01 0.  1.
          5    1    3    3  503    0  0.10546062718E+01  0.43414350004E+02 -0.16829543601E+03  0.17387168189E+03  0.47000000000E+01 0. -1.
         -5    1    3    3    0  503 -0.34284306190E+02 -0.30148395450E+02 -0.72003586030E+02  0.85387035317E+02  0.47000000000E+01 0.  1.
<mgrwt>
<rscale>  0 0.97025082E+02</rscale>
<asrwt>0</asrwt>
<pdfrwt beam="1">  1        2 0.11358882E-01 0.97321439E+02</pdfrwt>
<pdfrwt beam="2">  1       -2 0.43951849E-01 0.97321439E+02</pdfrwt>
<totfact> 0.25603771E+03</totfact>
</mgrwt>
</event>
<event>
 8    1  0.3400573E-004  0.1233174E+03  0.7546771E-02  0.1237978E+00
         -1   -1    0    0    0  501 -0.00000000000E+00  0.00000000000E+00  0.84585822350E+03  0.84585822350E+03  0.00000000000E+00 0.  1.
          1   -1    0    0  501    0  0.00000000000E+00 -0.00000000000E+00 -0.22929601229E+02  0.22929601229E+02  0.00000000000E+00 0. -1.
         23    2    1    2    0    0 -0.42528928042E+02 -0.67516289373E+02  0.61437400236E+03  0.62650244630E+03  0.93181228705E+02 0.  0.
         23    2    1    2    0    0  0.42528928042E+02  0.67516289373E+02  0.20855461991E+03  0.24228537843E+03  0.94021359630E+02 0.  0.
          5    1    3    3  502    0  0.18841902537E+02 -0.16593018442E+02  0.46645729610E+02  0.53181384366E+02  0.47000000000E+01 0. -1.
         -5    1    3    3    0  502 -0.61370830579E+02 -0.50923270931E+02  0.56772827275E+03  0.57332106193E+03  0.47000000000E+01 0.  1.
          5    1    4    4  503    0  0.59687755000E+02  0.34558780094E+02  0.68541979151E+02  0.97350039982E+02  0.47000000000E+01 0. -1.
         -5    1    4    4    0  503 -0.17158826958E+02  0.32957509279E+02  0.14001264076E+03  0.14493533845E+03  0.47000000000E+01 0.  1.
<mgrwt>
<rscale>  0 0.12315723E+03</rscale>
<asrwt>0</asrwt>
<pdfrwt beam="1">  1        1 0.35276316E-02 0.12331738E+03</pdfrwt>
<pdfrwt beam="2">  1       -1 0.13013201E+00 0.12331738E+03</pdfrwt>
<totfact> 0.14319505E+03</totfact>
</mgrwt>
</event>
<event>
 8    1  0.3400573E-004  0.1124941E+03  0.7546771E-02  0.1257050E+00
         -1   -1    0    0    0  501 -0.00000000000E+00  0.00000000000E+00  0.43893535747E+02  0.43893535747E+02  0.00000000000E+00 0.  1.
          1   -1    0    0  501    0  0.00000000000E+00 -0.00000000000E+00 -0.36291963795E+03  0.36291963795E+03  0.00000000000E+00 0. -1.
         23    2    1    2    0    0 -0.51432548979E+02 -0.33542952618E+02 -0.65046511786E+02  0.12994605820E+03  0.94257586335E+02 0.  0.
         23    2    1    2    0    0  0.51432548979E+02  0.33542952618E+02 -0.25397959042E+03  0.27686711550E+03  0.91538683245E+02 0.  0.
          5    1    4    4  502    0  0.41314301269E+02  0.57753047109E+02 -0.11412685229E+03  0.13449652171E+03  0.47000000000E+01 0. -1.
         -5    1    4    4    0  502  0.10118247710E+02 -0.24210094491E+02 -0.13985273813E+03  0.14237059379E+03  0.47000000000E+01 0.  1.
          5    1    3    3  503    0  0.10268208276E+02  0.24900024421E+02 -0.17264265238E+02  0.32335617693E+02  0.47000000000E+01 0. -1.
         -5    1    3    3    0  503 -0.61700757254E+02 -0.58442977039E+02 -0.47782246548E+02  0.97610440508E+02  0.47000000000E+01 0.  1.
<mgrwt>
<rscale>  0 0.11192275E+03</rscale>
<asrwt>0</asrwt>
<pdfrwt beam="1">  1        1 0.55833791E-01 0.11249413E+03</pdfrwt>
<pdfrwt beam="2">  1       -1 0.67528516E-02 0.11249413E+03</pdfrwt>
<totfact> 0.72188339E+03</totfact>
</mgrwt>
</event>
<event>
 8    1  0.3400573E-004  0.2129474E+03  0.7546771E-02  0.1139332E+00
          1   -1    0    0  501    0  0.00000000000E+00  0.00000000000E+00  0.70100959064E+03  0.70100959064E+03  0.00000000000E+00 0. -1.
         -1   -1    0    0    0  501 -0.00000000000E+00 -0.00000000000E+00 -0.12097834980E+03  0.12097834980E+03  0.00000000000E+00 0.  1.
         23    2    1    2    0    0 -0.15084704748E+03 -0.11933586278E+03  0.57052362401E+03  0.60882836262E+03  0.90437214103E+02 0.  0.
         23    2    1    2    0    0  0.15084704748E+03  0.11933586278E+03  0.95076168347E+01  0.21315957782E+03  0.91382333954E+02 0.  0.
          5    1    4    4  502    0  0.23268536813E+02 -0.14550863306E+02  0.35259287424E+01  0.28065541182E+02  0.47000000000E+01 0. -1.
         -5    1    4    4    0  502  0.12757851067E+03  0.13388672608E+03  0.59816880924E+01  0.18509403664E+03  0.47000000000E+01 0.  1.
          5    1    3    3  503    0 -0.12070540285E+03 -0.43801789344E+02  0.39380832645E+03  0.41424084662E+03  0.47000000000E+01 0. -1.
         -5    1    3    3    0  503 -0.30141644638E+02 -0.75534073433E+02  0.17671529756E+03  0.19458751600E+03  0.47000000000E+01 0.  1.
<mgrwt>
<rscale>  0 0.21284640E+03</rscale>
<asrwt>0</asrwt>
<pdfrwt beam="1">  1        1 0.10784763E+00 0.21294744E+03</pdfrwt>
<pdfrwt beam="2">  1       -1 0.18612054E-01 0.21294744E+03</pdfrwt>
<totfact> 0.64245268E+02</totfact>
</mgrwt>
</event>
<event>
 8    1  0.3400573E-004  0.1080222E+03  0.7546771E-02  0.1265289E+00
         -2   -1    0    0    0  501 -0.00000000000E+00  0.00000000000E+00  0.63353358068E+02  0.63353358068E+02  0.00000000000E+00 0.  1.
          2   -1    0    0  501    0  0.00000000000E+00 -0.00000000000E+00 -0.38394827335E+03  0.38394827335E+03  0.00000000000E+00 0. -1.
         23    2    1    2    0    0 -0.41901449192E+02  0.39657021507E+02  0.32031194209E+01  0.10596021477E+03  0.88819459250E+02 0.  0.
         23    2    1    2    0    0  0.41901449192E+02 -0.39657021507E+02 -0.32379803470E+03  0.34134141665E+03  0.91325706357E+02 0.  0.
          5    1    3    3  502    0 -0.37280737451E+02 -0.10414783186E+02 -0.26709104614E+02  0.47262959735E+02  0.47000000000E+01 0. -1.
         -5    1    4    4    0  503  0.28792921413E+02  0.13545498942E+02 -0.35748671605E+02  0.48089191994E+02  0.47000000000E+01 0.  1.
          5    1    4    4  503    0  0.13108527779E+02 -0.53202520449E+02 -0.28804936310E+03  0.29325222465E+03  0.47000000000E+01 0. -1.
         -5    1    3    3    0  502 -0.46207117410E+01  0.50071804693E+02  0.29912224035E+02  0.58697255037E+02  0.47000000000E+01 0.  1.
<mgrwt>
<rscale>  0 0.10749069E+03</rscale>
<asrwt>0</asrwt>
<pdfrwt beam="1">  1        2 0.59068966E-01 0.10802220E+03</pdfrwt>
<pdfrwt beam="2">  1       -2 0.97466703E-02 0.10802220E+03</pdfrwt>
<totfact> 0.54633276E+03</totfact>
</mgrwt>
</event>
<event>
 7    1  0.3400573E-004  0.1580655E+03  0.7546771E-02  0.1205165E+00
          1   -1    0    0  501    0  0.00000000000E+00  0.00000000000E+00  0.42615067226E+03  0.42615067226E+03  0.00000000000E+00 0. -1.
         -1   -1    0    0    0  501 -0.00000000000E+00 -0.00000000000E+00 -0.45323647454E+02  0.45323647454E+02  0.00000000000E+00 0.  1.
         23    2    1    2    0    0  0.41657206667E+02 -0.66570881439E+02  0.12221636516E+03  0.16838328879E+03  0.85141569801E+02 0.  0.
          5    1    1    2  502    0 -0.35219540689E+02  0.10474114240E+03  0.22837421338E+03  0.25374789515E+03  0.47000000000E+01 0. -1.
         -5    1    3    3    0  503  0.57515162472E+02 -0.32988977051E+02  0.38833717708E+02  0.76983206948E+02  0.47000000000E+01 0.  1.
          5    1    3    3  503    0 -0.15857955805E+02 -0.33581904388E+02  0.83382647452E+02  0.91400081842E+02  0.47000000000E+01 0. -1.
         -5    1    1    2    0  502 -0.64376659782E+01 -0.38170260959E+02  0.30236446266E+02  0.49343135771E+02  0.47000000000E+01 0.  1.
<mgrwt>
<rscale>  0 0.14624501E+03</rscale>
<asrwt>0</asrwt>
<pdfrwt beam="1">  1        1 0.65561639E-01 0.15806549E+03</pdfrwt>
<pdfrwt beam="2">  1       -1 0.69728691E-02 0.15806549E+03</pdfrwt>
<totfact> 0.57411311E+03</totfact>
</mgrwt>
</event>
<event>
 8    1  0.3400573E-004  0.9410873E+02  0.7546771E-02  0.1295680E+00
          2   -1    0    0  501    0  0.00000000000E+00  0.00000000000E+00  0.48674919930E+03  0.48674919930E+03  0.00000000000E+00 0. -1.
         -2   -1    0    0    0  501 -0.00000000000E+00 -0.00000000000E+00 -0.19764264203E+02  0.19764264203E+02  0.00000000000E+00 0.  1.
         23    2    1    2    0    0 -0.33867101624E+01 -0.17180923293E+02  0.15034765906E+03  0.17737212853E+03  0.92465125657E+02 0.  0.
         23    2    1    2    0    0  0.33867101624E+01  0.17180923293E+02  0.31663727603E+03  0.32914133497E+03  0.88137392078E+02 0.  0.
          5    1    3    3  502    0  0.99959418397E+01 -0.52359604674E+02  0.10793889241E+03  0.12047548111E+03  0.47000000000E+01 0. -1.
         -5    1    4    4    0  503  0.43172778107E+02  0.20249112724E+02  0.13935846950E+03  0.14736617101E+03  0.47000000000E+01 0.  1.
          5    1    4    4  503    0 -0.39786067945E+02 -0.30681894309E+01  0.17727880653E+03  0.18177516397E+03  0.47000000000E+01 0. -1.
         -5    1    3    3    0  502 -0.13382652002E+02  0.35178681380E+02  0.42408766654E+02  0.56896647418E+02  0.47000000000E+01 0.  1.
<mgrwt>
<rscale>  0 0.93028126E+02</rscale>
<asrwt>0</asrwt>
<pdfrwt beam="1">  1        2 0.74884483E-01 0.94108732E+02</pdfrwt>
<pdfrwt beam="2">  1       -2 0.30406564E-02 0.94108732E+02</pdfrwt>
<totfact> 0.24074967E+04</totfact>
</mgrwt>
</event>
<event>
 8    1  0.3400573E-004  0.9320555E+02  0.7546771E-02  0.1295692E+00
         -1   -1    0    0    0  501 -0.00000000000E+00  0.00000000000E+00  0.64838835615E+02  0.64838835615E+02  0.00000000000E+00 0.  1.
          1   -1    0    0  501    0  0.00000000000E+00 -0.00000000000E+00 -0.30157864766E+03  0.30157864766E+03  0.00000000000E+00 0. -1.
         23    2    1    2    0    0 -0.53444214798E+00  0.19543321892E+02  0.18427015904E+02  0.95009626187E+02  0.91132031109E+02 0.  0.
         23    2    1    2    0    0  0.53444214798E+00 -0.19543321892E+02 -0.25516682795E+03  0.27140785709E+03  0.90387431342E+02 0.  0.
          5    1    4    4  502    0  0.14115661543E+02  0.16640089566E+02 -0.21241620126E+03  0.21358576038E+03  0.47000000000E+01 0. -1.
         -5    1    3    3    0  503 -0.10535783075E+02  0.54359102653E+02  0.18223405263E+02  0.58481597666E+02  0.47000000000E+01 0.  1.
          5    1    3    3  503    0  0.10001340927E+02 -0.34815780760E+02  0.20361064143E+00  0.36528028521E+02  0.47000000000E+01 0. -1.
         -5    1    4    4    0  502 -0.13581219395E+02 -0.36183411458E+02 -0.42750626694E+02  0.57822096709E+02  0.47000000000E+01 0.  1.
<mgrwt>
<rscale>  0 0.93023037E+02</rscale>
<asrwt>0</asrwt>
<pdfrwt beam="1">  1        1 0.46396715E-01 0.93205548E+02</pdfrwt>
<pdfrwt beam="2">  1       -1 0.99752055E-02 0.93205548E+02</pdfrwt>
<totfact> 0.49871584E+03</totfact>
</mgrwt>
</event>
<event>
 8    1  0.3400573E-004  0.1654620E+03  0.7546771E-02  0.1188332E+00
          2   -1    0    0  501    0  0.00000000000E+00  0.00000000000E+00  0.28380678174E+03  0.28380678174E+03  0.00000000000E+00 0.  1.
         -2   -1    0    0    0  501 -0.00000000000E+00 -0.00000000000E+00 -0.11929086379E+03  0.11929086379E+03  0.00000000000E+00 0. -1.
         23    2    1    2    0    0 -0.72090337408E+01  0.10856605451E+03 -0.21357360778E+02  0.16683464394E+03  0.12465593929E+03 0.  0.
         23    2    1    2    0    0  0.72090337408E+01 -0.10856605451E+03  0.18587327873E+03  0.23626300159E+03  0.97122457823E+02 0.  0.
          5    1    4    4  502    0  0.26670221350E+02 -0.11679265032E+03  0.13262099946E+03  0.17877987407E+03  0.47000000000E+01 0. -1.
         -5    1    4    4    0  502 -0.19461187609E+02  0.82265958047E+01  0.53252279269E+02  0.57483127516E+02  0.47000000000E+01 0.  1.
          5    1    3    3  503    0  0.15216265128E+02 -0.23775789097E+02  0.72289123486E+01  0.29515589870E+02  0.47000000000E+01 0. -1.
         -5    1    3    3    0  503 -0.22425298868E+02  0.13234184361E+03 -0.28586273127E+02  0.13731905407E+03  0.47000000000E+01 0. -1.
<mgrwt>
<rscale>  0 0.16032379E+03</rscale>
<asrwt>0</asrwt>
<pdfrwt beam="1">  1        2 0.43662582E-01 0.16546196E+03</pdfrwt>
<pdfrwt beam="2">  1       -2 0.18352441E-01 0.16546196E+03</pdfrwt>
<totfact> 0.27678424E+03</totfact>
</mgrwt>
</event>
<event>
 8    1  0.3400573E-004  0.1052007E+03  0.7546771E-02  0.1270116E+00
          2   -1    0    0  501    0  0.00000000000E+00  0.00000000000E+00  0.14757759032E+03  0.14757759032E+03  0.00000000000E+00 0. -1.
         -2   -1    0    0    0  501 -0.00000000000E+00 -0.00000000000E+00 -0.89761629973E+02  0.89761629973E+02  0.00000000000E+00 0.  1.
         23    2    1    2    0    0  0.51906702600E+02  0.44239870523E+01 -0.20230568513E+02  0.10634894934E+03  0.90481742286E+02 0.  0.
         23    2    1    2    0    0 -0.51906702600E+02 -0.44239870523E+01  0.78046528857E+02  0.13099027095E+03  0.91396460439E+02 0.  0.
          5    1    4    4  502    0 -0.20668978878E+02 -0.23118814197E+02  0.87612432698E+02  0.93057587659E+02  0.47000000000E+01 0. -1.
         -5    1    3    3    0  503  0.73028956445E+02 -0.23479320698E+01  0.37920944294E+01  0.73315832155E+02  0.47000000000E+01 0.  1.
          5    1    3    3  503    0 -0.21122253845E+02  0.67719191221E+01 -0.24022662943E+02  0.33033117185E+02  0.47000000000E+01 0. -1.
         -5    1    4    4    0  502 -0.31237723723E+02  0.18694827145E+02 -0.95659038411E+01  0.37932683291E+02  0.47000000000E+01 0.  1.
<mgrwt>
<rscale>  0 0.10500172E+03</rscale>
<asrwt>0</asrwt>
<pdfrwt beam="1">  1        2 0.22704245E-01 0.10520071E+03</pdfrwt>
<pdfrwt beam="2">  1       -2 0.13809482E-01 0.10520071E+03</pdfrwt>
<totfact> 0.87116580E+03</totfact>
</mgrwt>
</event>
<event>
 8    1  0.3400573E-004  0.1008563E+03  0.7546771E-02  0.1280225E+00
          1   -1    0    0  501    0  0.00000000000E+00  0.00000000000E+00  0.29445114803E+03  0.29445114803E+03  0.00000000000E+00 0. -1.
         -1   -1    0    0    0  501 -0.00000000000E+00 -0.00000000000E+00 -0.34168552674E+02  0.34168552674E+02  0.00000000000E+00 0.  1.
         23    2    1    2    0    0 -0.13044274933E+02 -0.36518468754E+02  0.15202649114E+03  0.18066235488E+03  0.89571651731E+02 0.  0.
         23    2    1    2    0    0  0.13044274933E+02  0.36518468754E+02  0.10825610422E+03  0.14795734583E+03  0.93103385624E+02 0.  0.
          5    1    4    4  502    0 -0.28222169645E+01  0.64335516464E+02  0.90095327011E+02  0.11084350020E+03  0.47000000000E+01 0. -1.
         -5    1    3    3    0  503 -0.41766464988E+02 -0.34648369349E+02  0.47923434204E+02  0.72551310409E+02  0.47000000000E+01 0.  1.
          5    1    3    3  503    0  0.28722190055E+02 -0.18700994052E+01  0.10410305694E+03  0.10811104447E+03  0.47000000000E+01 0. -1.
         -5    1    4    4    0  502  0.15866491897E+02 -0.27817047710E+02  0.18160777209E+02  0.37113845628E+02  0.47000000000E+01 0.  1.
<mgrwt>
<rscale>  0 0.10003358E+03</rscale>
<asrwt>0</asrwt>
<pdfrwt beam="1">  1        1 0.45300175E-01 0.10085629E+03</pdfrwt>
<pdfrwt beam="2">  1       -1 0.52567006E-02 0.10085629E+03</pdfrwt>
<totfact> 0.13411511E+04</totfact>
</mgrwt>
</event>
<event>
 8    1  0.3400573E-004  0.1332562E+03  0.7546771E-02  0.1223473E+00
          3   -1    0    0  501    0  0.00000000000E+00  0.00000000000E+00  0.39506205844E+02  0.39506205844E+02  0.00000000000E+00 0. -1.
         -3   -1    0    0    0  501 -0.00000000000E+00 -0.00000000000E+00 -0.48466574184E+03  0.48466574184E+03  0.00000000000E+00 0.  1.
         23    2    1    2    0    0 -0.45192776234E+01 -0.94541887725E+02 -0.30167076851E+03  0.32979156850E+03  0.93801032368E+02 0.  0.
         23    2    1    2    0    0  0.45192776234E+01  0.94541887725E+02 -0.14348876749E+03  0.19438037919E+03  0.90753033084E+02 0.  0.
          5    1    4    4  502    0 -0.19538690724E+02  0.40382517074E+02 -0.71832063480E+01  0.45674900918E+02  0.47000000000E+01 0. -1.
         -5    1    4    4    0  502  0.24057968347E+02  0.54159370651E+02 -0.13630556114E+03  0.14870547827E+03  0.47000000000E+01 0.  1.
          5    1    3    3  503    0  0.32615573380E+02 -0.89296186474E+02 -0.20606469602E+03  0.22698531559E+03  0.47000000000E+01 0. -1.
         -5    1    3    3    0  503 -0.37134851003E+02 -0.52457012503E+01 -0.95606072489E+02  0.10280625291E+03  0.47000000000E+01 0.  1.
<mgrwt>
<rscale>  0 0.13272111E+03</rscale>
<asrwt>0</asrwt>
<pdfrwt beam="1">  1        3 0.60778783E-02 0.13325624E+03</pdfrwt>
<pdfrwt beam="2">  1       -3 0.74563954E-01 0.13325624E+03</pdfrwt>
<totfact> 0.66859588E+02</totfact>
</mgrwt>
</event>
<event>
 8    1  0.3400573E-004  0.9855671E+02  0.7546771E-02  0.1284164E+00
         -1   -1    0    0    0  501 -0.00000000000E+00  0.00000000000E+00  0.19780759657E+02  0.19780759657E+02  0.00000000000E+00 0.  1.
          1   -1    0    0  501    0  0.00000000000E+00 -0.00000000000E+00 -0.48614758518E+03  0.48614758518E+03  0.00000000000E+00 0. -1.
         23    2    1    2    0    0  0.80573936841E+01 -0.33831058370E+02 -0.24944832954E+03  0.26766995709E+03  0.90627119100E+02 0.  0.
         23    2    1    2    0    0 -0.80573936841E+01  0.33831058370E+02 -0.21691849599E+03  0.23825838775E+03  0.92216936229E+02 0.  0.
          5    1    3    3  502    0  0.29033332161E+02 -0.39152369224E+02 -0.23752291672E+03  0.24251818151E+03  0.47000000000E+01 0. -1.
         -5    1    3    3    0  502 -0.20975938477E+02  0.53213108547E+01 -0.11925412811E+02  0.25151775581E+02  0.47000000000E+01 0.  1.
          5    1    4    4  503    0 -0.23735217671E+02 -0.19689001861E+02 -0.30529297040E+02  0.43647970513E+02  0.47000000000E+01 0. -1.
         -5    1    4    4    0  503  0.15677823987E+02  0.53520060231E+02 -0.18638919895E+03  0.19461041723E+03  0.47000000000E+01 0.  1.
<mgrwt>
<rscale>  0 0.98183110E+02</rscale>
<asrwt>0</asrwt>
<pdfrwt beam="1">  1        1 0.74791937E-01 0.98556712E+02</pdfrwt>
<pdfrwt beam="2">  1       -1 0.30431938E-02 0.98556712E+02</pdfrwt>
<totfact> 0.15892545E+04</totfact>
</mgrwt>
</event>
<event>
 8    1  0.3400573E-004  0.1179185E+03  0.7546771E-02  0.1246703E+00
          1   -1    0    0  501    0  0.00000000000E+00  0.00000000000E+00  0.10692221002E+03  0.10692221002E+03  0.00000000000E+00 0. -1.
         -1   -1    0    0    0  501 -0.00000000000E+00 -0.00000000000E+00 -0.13938929083E+03  0.13938929083E+03  0.00000000000E+00 0.  1.
         23    2    1    2    0    0  0.34234127616E+02  0.67763227631E+02 -0.48723884892E+02  0.12758837255E+03  0.90227187352E+02 0.  0.
         23    2    1    2    0    0 -0.34234127616E+02 -0.67763227631E+02  0.16256804087E+02  0.11872312830E+03  0.89816852549E+02 0.  0.
          5    1    3    3  502    0  0.60532194344E+02  0.21723774318E+02 -0.22932218387E+02  0.68440087397E+02  0.47000000000E+01 0. -1.
         -5    1    3    3    0  502 -0.26298066728E+02  0.46039453313E+02 -0.25791666505E+02  0.59148285149E+02  0.47000000000E+01 0.  1.
          5    1    4    4  503    0  0.32685946038E+01 -0.77968464950E+02  0.69792961292E+01  0.78489271954E+02  0.47000000000E+01 0. -1.
         -5    1    4    4    0  503 -0.37502722220E+02  0.10205237319E+02  0.92775079579E+01  0.40233856347E+02  0.47000000000E+01 0.  1.
<mgrwt>
<rscale>  0 0.11784002E+03</rscale>
<asrwt>0</asrwt>
<pdfrwt beam="1">  1        1 0.16449571E-01 0.11791851E+03</pdfrwt>
<pdfrwt beam="2">  1       -1 0.21444506E-01 0.11791851E+03</pdfrwt>
<totfact> 0.55904680E+03</totfact>
</mgrwt>
</event>
<event>
 8    1  0.3400573E-004  0.9161764E+02  0.7546771E-02  0.1299806E+00
          2   -1    0    0  501    0  0.00000000000E+00  0.00000000000E+00  0.24148601298E+03  0.24148601298E+03  0.00000000000E+00 0. -1.
         -2   -1    0    0    0  501 -0.00000000000E+00 -0.00000000000E+00 -0.35825106510E+02  0.35825106510E+02  0.00000000000E+00 0.  1.
         23    2    1    2    0    0 -0.12605309383E+00 -0.15358137998E+02  0.13278548561E+03  0.16132506673E+03  0.90321114217E+02 0.  0.
         23    2    1    2    0    0  0.12605309383E+00  0.15358137998E+02  0.72875420856E+02  0.11598605276E+03  0.88915966945E+02 0.  0.
          5    1    4    4  502    0 -0.41646544470E+02 -0.68247701870E+01  0.30180836061E+02  0.52095921335E+02  0.47000000000E+01 0. -1.
         -5    1    4    4    0  502  0.41772597563E+02  0.22182908185E+02  0.42694584795E+02  0.63890131425E+02  0.47000000000E+01 0.  1.
          5    1    3    3  503    0 -0.21854217552E+02 -0.47354022629E+02  0.69711766316E+02  0.87188477718E+02  0.47000000000E+01 0. -1.
         -5    1    3    3    0  503  0.21728164459E+02  0.31995884631E+02  0.63073719298E+02  0.74136589011E+02  0.47000000000E+01 0.  1.
<mgrwt>
<rscale>  0 0.91269421E+02</rscale>
<asrwt>0</asrwt>
<pdfrwt beam="1">  1        2 0.37151693E-01 0.91617640E+02</pdfrwt>
<pdfrwt beam="2">  1       -2 0.55115550E-02 0.91617640E+02</pdfrwt>
<totfact> 0.20905058E+04</totfact>
</mgrwt>
</event>
<event>
 8    1  0.3400573E-004  0.1855745E+03  0.7546771E-02  0.1162658E+00
         -2   -1    0    0    0  501 -0.00000000000E+00  0.00000000000E+00  0.35739815666E+02  0.35739815666E+02  0.00000000000E+00 0.  1.
          2   -1    0    0  501    0  0.00000000000E+00 -0.00000000000E+00 -0.11966643780E+04  0.11966643780E+04  0.00000000000E+00 0. -1.
         23    2    1    2    0    0 -0.15461781442E+03  0.43213737464E+02 -0.85350304035E+03  0.87331385693E+03  0.91845289404E+02 0.  0.
         23    2    1    2    0    0  0.15461781442E+03 -0.43213737464E+02 -0.30742152201E+03  0.35909033675E+03  0.93079439811E+02 0.  0.
          5    1    3    3  502    0 -0.11732377318E+03  0.66897363657E+02 -0.72116231760E+03  0.73371472886E+03  0.47000000000E+01 0. -1.
         -5    1    4    4    0  503  0.49499512970E+02 -0.31383578902E+02 -0.39047050413E+02  0.70582525847E+02  0.47000000000E+01 0.  1.
          5    1    4    4  503    0  0.10511830145E+03 -0.11830158562E+02 -0.26837447159E+03  0.28850781091E+03  0.47000000000E+01 0. -1.
         -5    1    3    3    0  502 -0.37294041239E+02 -0.23683626193E+02 -0.13234072275E+03  0.13959912807E+03  0.47000000000E+01 0.  1.
<mgrwt>
<rscale>  0 0.18542028E+03</rscale>
<asrwt>0</asrwt>
<pdfrwt beam="1">  1        2 0.18410218E+00 0.18557445E+03</pdfrwt>
<pdfrwt beam="2">  1       -2 0.54984340E-02 0.18557445E+03</pdfrwt>
<totfact> 0.33751886E+03</totfact>
</mgrwt>
</event>
<event>
 8    1  0.3400573E-004  0.9660270E+02  0.7546771E-02  0.1293089E+00
          2   -1    0    0  501    0  0.00000000000E+00  0.00000000000E+00  0.10065847507E+03  0.10065847507E+03  0.00000000000E+00 0. -1.
         -2   -1    0    0    0  501 -0.00000000000E+00 -0.00000000000E+00 -0.10316641852E+03  0.10316641852E+03  0.00000000000E+00 0.  1.
         23    2    1    2    0    0  0.25210545375E+02 -0.13570074000E+02  0.42700464448E+02  0.10561918478E+03  0.92262473538E+02 0.  0.
         23    2    1    2    0    0 -0.25210545375E+02  0.13570074000E+02 -0.45208407891E+02  0.98205708812E+02  0.82345871741E+02 0.  0.
          5    1    4    4  502    0  0.16918896647E+02 -0.20435418400E+02 -0.32827081660E+02  0.42468372693E+02  0.47000000000E+01 0. -1.
         -5    1    4    4    0  502 -0.42129442021E+02  0.34005492400E+02 -0.12381326232E+02  0.55737336119E+02  0.47000000000E+01 0.  1.
          5    1    3    3  503    0  0.48521977298E+02  0.12524894215E+01 -0.63017369774E+01  0.49170650795E+02  0.47000000000E+01 0. -1.
         -5    1    3    3    0  503 -0.23311431923E+02 -0.14822563421E+02  0.49002201425E+02  0.56448533986E+02  0.47000000000E+01 0.  1.
<mgrwt>
<rscale>  0 0.94155929E+02</rscale>
<asrwt>0</asrwt>
<pdfrwt beam="1">  1        2 0.15485919E-01 0.96602705E+02</pdfrwt>
<pdfrwt beam="2">  1       -2 0.15871757E-01 0.96602705E+02</pdfrwt>
<totfact> 0.10631208E+04</totfact>
</mgrwt>
</event>
<event>
 8    1  0.3400573E-004  0.2494673E+03  0.7546771E-02  0.1113857E+00
         -1   -1    0    0    0  501 -0.00000000000E+00  0.00000000000E+00  0.12017594180E+03  0.12017594180E+03  0.00000000000E+00 0.  1.
          1   -1    0    0  501    0  0.00000000000E+00 -0.00000000000E+00 -0.11208855514E+04  0.11208855514E+04  0.00000000000E+00 0. -1.
         23    2    1    2    0    0 -0.16888752345E+03 -0.15833610104E+03 -0.95718041655E+03  0.98915533919E+03  0.92954928608E+02 0.  0.
         23    2    1    2    0    0  0.16888752345E+03  0.15833610104E+03 -0.43529193012E+02  0.25190615397E+03  0.89267033626E+02 0.  0.
          5    1    3    3  502    0 -0.83319981357E+02 -0.13687668961E+03 -0.65443139139E+03  0.67378036739E+03  0.47000000000E+01 0. -1.
         -5    1    4    4    0  503  0.78740938852E+02  0.13007659395E+03 -0.39790429451E+02  0.15724320024E+03  0.47000000000E+01 0.  1.
          5    1    4    4  503    0  0.90146584603E+02  0.28259507090E+02 -0.37387635604E+01  0.94662953733E+02  0.47000000000E+01 0. -1.
         -5    1    3    3    0  502 -0.85567542097E+02 -0.21459411431E+02 -0.30274902516E+03  0.31537497179E+03  0.47000000000E+01 0.  1.
<mgrwt>
<rscale>  0 0.24912898E+03</rscale>
<asrwt>0</asrwt>
<pdfrwt beam="1">  1        1 0.17244393E+00 0.24946730E+03</pdfrwt>
<pdfrwt beam="2">  1       -1 0.18488607E-01 0.24946730E+03</pdfrwt>
<totfact> 0.30181446E+02</totfact>
</mgrwt>
</event>
<event>
 8    1  0.3400573E-004  0.1192880E+03  0.7546771E-02  0.1252928E+00
          3   -1    0    0  501    0  0.00000000000E+00  0.00000000000E+00  0.25655609663E+03  0.25655609663E+03  0.00000000000E+00 0. -1.
         -3   -1    0    0    0  501 -0.00000000000E+00 -0.00000000000E+00 -0.55656074058E+02  0.55656074058E+02  0.00000000000E+00 0.  1.
         23    2    1    2    0    0  0.25365688686E+02  0.38156305888E+02  0.16917393574E+03  0.20700105309E+03  0.11013761212E+03 0.  0.
         23    2    1    2    0    0 -0.25365688686E+02 -0.38156305888E+02  0.31726086829E+02  0.10521111760E+03  0.89238516569E+02 0.  0.
          5    1    3    3  502    0  0.21583912845E+02  0.76513265605E+02  0.12471905515E+03  0.14797661242E+03  0.47000000000E+01 0. -1.
         -5    1    3    3    0  502  0.37817758408E+01 -0.38356959716E+02  0.44454880594E+02  0.59024440665E+02  0.47000000000E+01 0.  1.
          5    1    4    4  503    0 -0.34055788560E+02 -0.33043895936E+01  0.52956280168E+02  0.63223202499E+02  0.47000000000E+01 0. -1.
         -5    1    4    4    0  503  0.86900998738E+01 -0.34851916295E+02 -0.21230193339E+02  0.41987915100E+02  0.47000000000E+01 0.  1.
<mgrwt>
<rscale>  0 0.11423192E+03</rscale>
<asrwt>0</asrwt>
<pdfrwt beam="1">  1        3 0.39470168E-01 0.11928795E+03</pdfrwt>
<pdfrwt beam="2">  1       -3 0.85624730E-02 0.11928795E+03</pdfrwt>
<totfact> 0.13683892E+03</totfact>
</mgrwt>
</event>
<event>
 8    1  0.3400573E-004  0.9479887E+02  0.7546771E-02  0.1292300E+00
          1   -1    0    0  501    0  0.00000000000E+00  0.00000000000E+00  0.24947747366E+02  0.24947747366E+02  0.00000000000E+00 0. -1.
         -1   -1    0    0    0  501 -0.00000000000E+00 -0.00000000000E+00 -0.35821635306E+03  0.35821635306E+03  0.00000000000E+00 0.  1.
         23    2    1    2    0    0  0.22053753902E+02 -0.15776711876E+02 -0.18146484432E+03  0.20419145356E+03  0.89606848422E+02 0.  0.
         23    2    1    2    0    0 -0.22053753902E+02  0.15776711876E+02 -0.15180376138E+03  0.17897264687E+03  0.90838062839E+02 0.  0.
          5    1    3    3  502    0  0.51696324975E+02 -0.29964933237E+02 -0.12645744297E+03  0.13994278160E+03  0.47000000000E+01 0. -1.
         -5    1    4    4    0  503  0.27285647956E+02  0.31396958071E+02 -0.80601068333E+02  0.90823442882E+02  0.47000000000E+01 0.  1.
          5    1    4    4  503    0 -0.49339401858E+02 -0.15620246195E+02 -0.71202693042E+02  0.88149203986E+02  0.47000000000E+01 0. -1.
         -5    1    3    3    0  502 -0.29642571072E+02  0.14188221361E+02 -0.55007401351E+02  0.64248671959E+02  0.47000000000E+01 0.  1.
<mgrwt>
<rscale>  0 0.94502711E+02</rscale>
<asrwt>0</asrwt>
<pdfrwt beam="1">  1        1 0.38381153E-02 0.94798873E+02</pdfrwt>
<pdfrwt beam="2">  1       -1 0.55110203E-01 0.94798873E+02</pdfrwt>
<totfact> 0.75603436E+03</totfact>
</mgrwt>
</event>
<event>
 8    1  0.3400573E-004  0.1051192E+03  0.7546771E-02  0.1270471E+00
          1   -1    0    0  501    0  0.00000000000E+00  0.00000000000E+00  0.76322076243E+02  0.76322076243E+02  0.00000000000E+00 0. -1.
         -1   -1    0    0    0  501 -0.00000000000E+00 -0.00000000000E+00 -0.19387424463E+03  0.19387424463E+03  0.00000000000E+00 0.  1.
         23    2    1    2    0    0 -0.33622288489E+02 -0.38103557618E+02 -0.12811972743E+03  0.16572479027E+03  0.92020118259E+02 0.  0.
         23    2    1    2    0    0  0.33622288489E+02  0.38103557618E+02  0.10567559050E+02  0.10447153060E+03  0.90665804007E+02 0.  0.
          5    1    3    3  502    0 -0.18253871599E+02 -0.62123513737E+02 -0.48541334512E+02  0.81061001373E+02  0.47000000000E+01 0. -1.
         -5    1    4    4    0  503 -0.13291909401E+02  0.52272589990E+02  0.10956435958E+02  0.55237958042E+02  0.47000000000E+01 0.  1.
          5    1    4    4  503    0  0.46914197890E+02 -0.14169032372E+02 -0.38887690821E+00  0.49233572562E+02  0.47000000000E+01 0. -1.
         -5    1    3    3    0  502 -0.15368416890E+02  0.24019956119E+02 -0.79578392922E+02  0.84663788893E+02  0.47000000000E+01 0.  1.
<mgrwt>
<rscale>  0 0.10482205E+03</rscale>
<asrwt>0</asrwt>
<pdfrwt beam="1">  1        1 0.11741858E-01 0.10511918E+03</pdfrwt>
<pdfrwt beam="2">  1       -1 0.29826806E-01 0.10511918E+03</pdfrwt>
<totfact> 0.49957496E+03</totfact>
</mgrwt>
</event>
<event>
 8    1  0.3400573E-004  0.9376144E+02  0.7546771E-02  0.1294074E+00
         -2   -1    0    0    0  501 -0.00000000000E+00  0.00000000000E+00  0.15361063714E+03  0.15361063714E+03  0.00000000000E+00 0.  1.
          2   -1    0    0  501    0  0.00000000000E+00 -0.00000000000E+00 -0.68024382727E+02  0.68024382727E+02  0.00000000000E+00 0. -1.
         23    2    1    2    0    0  0.13278788025E+02 -0.13036847506E+02 -0.15611352997E+01  0.93627693039E+02  0.91746510321E+02 0.  0.
         23    2    1    2    0    0 -0.13278788025E+02  0.13036847506E+02  0.87147389710E+02  0.12800732682E+03  0.91896259897E+02 0.  0.
          5    1    4    4  502    0 -0.18964114143E+02 -0.17316204377E+02 -0.84464639903E+01  0.27439411677E+02  0.47000000000E+01 0. -1.
         -5    1    3    3    0  503  0.37909880975E+02 -0.40147917508E+02 -0.84591365879E+01  0.56059444767E+02  0.47000000000E+01 0.  1.
          5    1    3    3  503    0 -0.24631092950E+02  0.27111070001E+02  0.68980012881E+01  0.37568248273E+02  0.47000000000E+01 0. -1.
         -5    1    4    4    0  502  0.56853261186E+01  0.30353051883E+02  0.95593853701E+02  0.10056791515E+03  0.47000000000E+01 0.  1.
<mgrwt>
<rscale>  0 0.93724730E+02</rscale>
<asrwt>0</asrwt>
<pdfrwt beam="1">  1        2 0.10465290E-01 0.93761443E+02</pdfrwt>
<pdfrwt beam="2">  1       -2 0.23632406E-01 0.93761443E+02</pdfrwt>
<totfact> 0.86565996E+03</totfact>
</mgrwt>
</event>
<event>
 8    1  0.3400573E-004  0.9626133E+02  0.7546771E-02  0.1290718E+00
         -3   -1    0    0    0  501 -0.00000000000E+00  0.00000000000E+00  0.18500022507E+02  0.18500022507E+02  0.00000000000E+00 0.  1.
          3   -1    0    0  501    0  0.00000000000E+00 -0.00000000000E+00 -0.54041203253E+03  0.54041203253E+03  0.00000000000E+00 0. -1.
         23    2    1    2    0    0  0.19042375052E+02  0.15004616444E+02 -0.17223797619E+03  0.19731235351E+03  0.93158434103E+02 0.  0.
         23    2    1    2    0    0 -0.19042375052E+02 -0.15004616444E+02 -0.34967403384E+03  0.36159970153E+03  0.88851919751E+02 0.  0.
          5    1    4    4  502    0 -0.30411169160E+02  0.31449170116E+02 -0.16148769188E+03  0.16737459228E+03  0.47000000000E+01 0. -1.
         -5    1    4    4    0  502  0.11368794107E+02 -0.46453786560E+02 -0.18818634196E+03  0.19422510926E+03  0.47000000000E+01 0.  1.
          5    1    3    3  503    0  0.48096528800E+02  0.24532587048E+02 -0.59838006011E+02  0.80732898333E+02  0.47000000000E+01 0. -1.
         -5    1    3    3    0  503 -0.29054153748E+02 -0.95279706036E+01 -0.11239997018E+03  0.11657945518E+03  0.47000000000E+01 0.  1.
<mgrwt>
<rscale>  0 0.95203703E+02</rscale>
<asrwt>0</asrwt>
<pdfrwt beam="1">  1        3 0.83140299E-01 0.96261334E+02</pdfrwt>
<pdfrwt beam="2">  1       -3 0.28461578E-02 0.96261334E+02</pdfrwt>
<totfact> 0.16378148E+03</totfact>
</mgrwt>
</event>
<event>
 8    1  0.3400573E-004  0.9674909E+02  0.7546771E-02  0.1287953E+00
         -1   -1    0    0    0  501 -0.00000000000E+00  0.00000000000E+00  0.41508859287E+03  0.41508859287E+03  0.00000000000E+00 0.  1.
          1   -1    0    0  501    0  0.00000000000E+00 -0.00000000000E+00 -0.24408064759E+02  0.24408064759E+02  0.00000000000E+00 0. -1.
         23    2    1    2    0    0 -0.29698354433E+02  0.11519283917E+02  0.25926348172E+03  0.27630711361E+03  0.90074313304E+02 0.  0.
         23    2    1    2    0    0  0.29698354433E+02 -0.11519283917E+02  0.13141704639E+03  0.16318954402E+03  0.91354808514E+02 0.  0.
          5    1    3    3  502    0  0.21988726342E+02  0.30126979521E+02  0.73820587745E+02  0.82841463992E+02  0.47000000000E+01 0. -1.
         -5    1    4    4    0  503 -0.39264562421E+01  0.21254156577E+02  0.10849691614E+03  0.11072861889E+03  0.47000000000E+01 0.  1.
          5    1    4    4  503    0  0.33624810675E+02 -0.32773440494E+02  0.22920130251E+02  0.52460925130E+02  0.47000000000E+01 0. -1.
         -5    1    3    3    0  502 -0.51687080775E+02 -0.18607695604E+02  0.18544289398E+03  0.19346564961E+03  0.47000000000E+01 0.  1.
<mgrwt>
<rscale>  0 0.96445627E+02</rscale>
<asrwt>0</asrwt>
<pdfrwt beam="1">  1        1 0.37550872E-02 0.96749094E+02</pdfrwt>
<pdfrwt beam="2">  1       -1 0.63859778E-01 0.96749094E+02</pdfrwt>
<totfact> 0.59169750E+03</totfact>
</mgrwt>
</event>
<event>
 8    1  0.3400573E-004  0.9581157E+02  0.7546771E-02  0.1290295E+00
         -3   -1    0    0    0  501 -0.00000000000E+00  0.00000000000E+00  0.18550025437E+03  0.18550025437E+03  0.00000000000E+00 0.  1.
          3   -1    0    0  501    0  0.00000000000E+00 -0.00000000000E+00 -0.59459620621E+02  0.59459620621E+02  0.00000000000E+00 0. -1.
         23    2    1    2    0    0  0.25781355159E+02 -0.96491374717E+01  0.11204192169E+02  0.96464455738E+02  0.91771853915E+02 0.  0.
         23    2    1    2    0    0 -0.25781355159E+02  0.96491374717E+01  0.11483644158E+03  0.14849541926E+03  0.90031644975E+02 0.  0.
          5    1    4    4  502    0 -0.18448510287E+02  0.49665863218E+02  0.65450877826E+02  0.84338324084E+02  0.47000000000E+01 0. -1.
         -5    1    4    4    0  502 -0.73328448719E+01 -0.40016725747E+02  0.49385563756E+02  0.64157095172E+02  0.47000000000E+01 0.  1.
          5    1    3    3  503    0  0.56773825830E+02  0.71709217549E+01 -0.44673950327E+01  0.57591119425E+02  0.47000000000E+01 0. -1.
         -5    1    3    3    0  503 -0.30992470672E+02 -0.16820059227E+02  0.15671587202E+02  0.38873336314E+02  0.47000000000E+01 0.  1.
<mgrwt>
<rscale>  0 0.95392453E+02</rscale>
<asrwt>0</asrwt>
<pdfrwt beam="1">  1        3 0.91476340E-02 0.95811572E+02</pdfrwt>
<pdfrwt beam="2">  1       -3 0.28538501E-01 0.95811572E+02</pdfrwt>
<totfact> 0.21612729E+03</totfact>
</mgrwt>
</event>
<event>
 8    1  0.3400573E-004  0.1004950E+03  0.7546771E-02  0.1280411E+00
          3   -1    0    0  501    0  0.00000000000E+00  0.00000000000E+00  0.54236897151E+02  0.54236897151E+02  0.00000000000E+00 0. -1.
         -3   -1    0    0    0  501 -0.00000000000E+00 -0.00000000000E+00 -0.19636390933E+03  0.19636390933E+03  0.00000000000E+00 0.  1.
         23    2    1    2    0    0  0.37275964668E+02  0.20756735679E+02 -0.36673239779E+02  0.10493085995E+03  0.88573242213E+02 0.  0.
         23    2    1    2    0    0 -0.37275964668E+02 -0.20756735679E+02 -0.10545377240E+03  0.14566994653E+03  0.90988436576E+02 0.  0.
          5    1    4    4  502    0  0.64391923376E+01 -0.41066357959E+02 -0.17668690255E+02  0.45411249369E+02  0.47000000000E+01 0. -1.
         -5    1    4    4    0  502 -0.43715157006E+02  0.20309622280E+02 -0.87785082141E+02  0.10025869716E+03  0.47000000000E+01 0.  1.
          5    1    3    3  503    0  0.58755819051E+02 -0.46823625173E+01 -0.60268338213E+01  0.59435540857E+02  0.47000000000E+01 0. -1.
         -5    1    3    3    0  503 -0.21479854382E+02  0.25439098196E+02 -0.30646405958E+02  0.45495319094E+02  0.47000000000E+01 0.  1.
<mgrwt>
<rscale>  0 0.99945111E+02</rscale>
<asrwt>0</asrwt>
<pdfrwt beam="1">  1        3 0.83441380E-02 0.10049495E+03</pdfrwt>
<pdfrwt beam="2">  1       -3 0.30209832E-01 0.10049495E+03</pdfrwt>
<totfact> 0.22824783E+03</totfact>
</mgrwt>
</event>
<event>
 8    1  0.3400573E-004  0.9607630E+02  0.7546771E-02  0.1290783E+00
         -1   -1    0    0    0  501 -0.00000000000E+00  0.00000000000E+00  0.68443216656E+02  0.68443216656E+02  0.00000000000E+00 0.  1.
          1   -1    0    0  501    0  0.00000000000E+00 -0.00000000000E+00 -0.13622159904E+03  0.13622159904E+03  0.00000000000E+00 0. -1.
         23    2    1    2    0    0 -0.12083903255E+02 -0.11708435405E+02 -0.11277121621E+02  0.93206087799E+02  0.90978531276E+02 0.  0.
         23    2    1    2    0    0  0.12083903255E+02  0.11708435405E+02 -0.56501260768E+02  0.11145872790E+03  0.94591476252E+02 0.  0.
          5    1    4    4  502    0  0.27429878915E+02  0.48431800277E+02 -0.35859555404E+02  0.66377972620E+02  0.47000000000E+01 0. -1.
         -5    1    3    3    0  503 -0.50383048684E+02  0.31839255650E+01 -0.15927784059E+01  0.50726875714E+02  0.47000000000E+01 0.  1.
          5    1    3    3  503    0  0.38299145429E+02 -0.14892360970E+02 -0.96843432149E+01  0.42479212085E+02  0.47000000000E+01 0. -1.
         -5    1    4    4    0  502 -0.15345975660E+02 -0.36723364872E+02 -0.20641705364E+02  0.45080755282E+02  0.47000000000E+01 0.  1.
<mgrwt>
<rscale>  0 0.95174960E+02</rscale>
<asrwt>0</asrwt>
<pdfrwt beam="1">  1        1 0.20957169E-01 0.96076301E+02</pdfrwt>
<pdfrwt beam="2">  1       -1 0.10529726E-01 0.96076301E+02</pdfrwt>
<totfact> 0.12257301E+04</totfact>
</mgrwt>
</event>
<event>
 8    1  0.3400573E-004  0.1006530E+03  0.7546771E-02  0.1285793E+00
         -3   -1    0    0    0  501 -0.00000000000E+00  0.00000000000E+00  0.13322236552E+03  0.13322236552E+03  0.00000000000E+00 0.  1.
          3   -1    0    0  501    0  0.00000000000E+00 -0.00000000000E+00 -0.69463384103E+02  0.69463384103E+02  0.00000000000E+00 0. -1.
         23    2    1    2    0    0 -0.27439355460E+02  0.31332559737E+02  0.15025099043E+02  0.10176827486E+03  0.91631766535E+02 0.  0.
         23    2    1    2    0    0  0.27439355460E+02 -0.31332559737E+02  0.48733882373E+02  0.10091747477E+03  0.77940348307E+02 0.  0.
          5    1    3    3  502    0  0.14263044488E+02  0.50060937009E+02  0.19068936077E+02  0.55634936644E+02  0.47000000000E+01 0. -1.
         -5    1    4    4    0  503  0.24982756783E+02 -0.53971268477E+02  0.17873859016E+02  0.62278413545E+02  0.47000000000E+01 0.  1.
          5    1    4    4  503    0  0.24565986767E+01  0.22638708740E+02  0.30860023357E+02  0.38639061222E+02  0.47000000000E+01 0. -1.
         -5    1    3    3    0  502 -0.41702399948E+02 -0.18728377272E+02 -0.40438370346E+01  0.46133338212E+02  0.47000000000E+01 0.  1.
<mgrwt>
<rscale>  0 0.97430942E+02</rscale>
<asrwt>0</asrwt>
<pdfrwt beam="1">  1        3 0.10686675E-01 0.10065301E+03</pdfrwt>
<pdfrwt beam="2">  1       -3 0.20495748E-01 0.10065301E+03</pdfrwt>
<totfact> 0.30562955E+03</totfact>
</mgrwt>
</event>
<event>
 8    1  0.3400573E-004  0.1050155E+03  0.7546771E-02  0.1270625E+00
         -1   -1    0    0    0  501 -0.00000000000E+00  0.00000000000E+00  0.17705257217E+02  0.17705257217E+02  0.00000000000E+00 0.  1.
          1   -1    0    0  501    0  0.00000000000E+00 -0.00000000000E+00 -0.85691135710E+03  0.85691135710E+03  0.00000000000E+00 0. -1.
         23    2    1    2    0    0  0.42860125027E+02 -0.28298782012E+02 -0.64968018261E+03  0.65794098555E+03  0.90355904135E+02 0.  0.
         23    2    1    2    0    0 -0.42860125027E+02  0.28298782012E+02 -0.18952591728E+03  0.21667562877E+03  0.91599363547E+02 0.  0.
          5    1    3    3  502    0  0.53524778868E+02 -0.53657356833E+02 -0.46272244759E+03  0.46891168400E+03  0.47000000000E+01 0. -1.
         -5    1    3    3    0  502 -0.10664653841E+02  0.25358574821E+02 -0.18695773502E+03  0.18902930155E+03  0.47000000000E+01 0.  1.
          5    1    4    4  503    0 -0.12456192329E+02  0.44622816104E+02 -0.17100036244E+03  0.17722744257E+03  0.47000000000E+01 0.  1.
         -5    1    4    4    0  503 -0.30403932697E+02 -0.16324034092E+02 -0.18525554834E+02  0.39448186199E+02  0.47000000000E+01 0.  1.
<mgrwt>
<rscale>  0 0.10474374E+03</rscale>
<asrwt>0</asrwt>
<pdfrwt beam="1">  1        1 0.13183251E+00 0.10501550E+03</pdfrwt>
<pdfrwt beam="2">  1       -1 0.27238858E-02 0.10501550E+03</pdfrwt>
<totfact> 0.85399452E+03</totfact>
</mgrwt>
</event>
<event>
 8    1  0.3400573E-004  0.1204708E+03  0.7546771E-02  0.1243319E+00
          4   -1    0    0  501    0  0.00000000000E+00  0.00000000000E+00  0.19936708429E+03  0.19936708429E+03  0.00000000000E+00 0. -1.
         -4   -1    0    0    0  501 -0.00000000000E+00 -0.00000000000E+00 -0.76851356802E+02  0.76851356802E+02  0.00000000000E+00 0.  1.
         23    2    1    2    0    0 -0.77166747208E+02  0.77381849261E+01  0.98775562248E+02  0.15578775853E+03  0.92188001552E+02 0.  0.
         23    2    1    2    0    0  0.77166747208E+02 -0.77381849261E+01  0.23740165243E+02  0.12043068256E+03  0.89024533002E+02 0.  0.
          5    1    3    3  502    0  0.79589604423E+01 -0.20324567082E+02  0.47335065604E+02  0.52336712871E+02  0.47000000000E+01 0. -1.
         -5    1    3    3    0  502 -0.85125707650E+02  0.28062752008E+02  0.51440496644E+02  0.10345104566E+03  0.47000000000E+01 0.  1.
          5    1    4    4  503    0  0.74086808236E+02  0.29122927493E+02  0.86715156664E+01  0.80213996562E+02  0.47000000000E+01 0. -1.
         -5    1    4    4    0  503  0.30799389712E+01 -0.36861112419E+02  0.15068649576E+02  0.40216686001E+02  0.47000000000E+01 0.  1.
<mgrwt>
<rscale>  0 0.11986545E+03</rscale>
<asrwt>0</asrwt>
<pdfrwt beam="1">  1        4 0.30671859E-01 0.12047080E+03</pdfrwt>
<pdfrwt beam="2">  1       -4 0.11823286E-01 0.12047080E+03</pdfrwt>
<totfact> 0.93539816E+02</totfact>
</mgrwt>
</event>
<event>
 8    1  0.3400573E-004  0.9129039E+02  0.7546771E-02  0.1301072E+00
         -2   -1    0    0    0  501 -0.00000000000E+00  0.00000000000E+00  0.14801737918E+02  0.14801737918E+02  0.00000000000E+00 0.  1.
          2   -1    0    0  501    0  0.00000000000E+00 -0.00000000000E+00 -0.55680470465E+03  0.55680470465E+03  0.00000000000E+00 0. -1.
         23    2    1    2    0    0  0.80090071420E+01  0.38344290015E+00 -0.30666289800E+03  0.31996260378E+03  0.90937580700E+02 0.  0.
         23    2    1    2    0    0 -0.80090071420E+01 -0.38344290015E+00 -0.23534006873E+03  0.25164383879E+03  0.88743351442E+02 0.  0.
          5    1    3    3  502    0 -0.13253346089E+02  0.42015033418E+02 -0.14988329122E+03  0.15629461028E+03  0.47000000000E+01 0. -1.
         -5    1    3    3    0  502  0.21262353231E+02 -0.41631590518E+02 -0.15677960678E+03  0.16366799350E+03  0.47000000000E+01 0.  1.
          5    1    4    4  503    0  0.22458881766E+02  0.27335299341E+02 -0.17390426104E+03  0.17752859479E+03  0.47000000000E+01 0. -1.
         -5    1    4    4    0  503 -0.30467888908E+02 -0.27718742241E+02 -0.61435807685E+02  0.74115243991E+02  0.47000000000E+01 0.  1.
<mgrwt>
<rscale>  0 0.90739027E+02</rscale>
<asrwt>0</asrwt>
<pdfrwt beam="1">  1        2 0.85662271E-01 0.91290387E+02</pdfrwt>
<pdfrwt beam="2">  1       -2 0.22771902E-02 0.91290387E+02</pdfrwt>
<totfact> 0.31512137E+04</totfact>
</mgrwt>
</event>
<event>
 8    1  0.3400573E-004  0.9863075E+02  0.7546771E-02  0.1284105E+00
          3   -1    0    0  501    0  0.00000000000E+00  0.00000000000E+00  0.23843070479E+03  0.23843070479E+03  0.00000000000E+00 0. -1.
         -3   -1    0    0    0  501 -0.00000000000E+00 -0.00000000000E+00 -0.54475816187E+02  0.54475816187E+02  0.00000000000E+00 0.  1.
         23    2    1    2    0    0  0.29741600299E+02  0.15036920985E+02  0.16198081214E+02  0.98303410931E+02  0.91052243161E+02 0.  0.
         23    2    1    2    0    0 -0.29741600299E+02 -0.15036920985E+02  0.16775680739E+03  0.19460311005E+03  0.92829694781E+02 0.  0.
          5    1    4    4  502    0 -0.42086693084E+02  0.18238023627E+02  0.14506483852E+03  0.15221633491E+03  0.47000000000E+01 0. -1.
         -5    1    4    4    0  502  0.12345092786E+02 -0.33274944612E+02  0.22691968872E+02  0.42386775133E+02  0.47000000000E+01 0.  1.
          5    1    3    3  503    0  0.74560237430E+01  0.52151162347E+02  0.13952746434E+02  0.54700138548E+02  0.47000000000E+01 0. -1.
         -5    1    3    3    0  503  0.22285576556E+02 -0.37114241361E+02  0.22453347809E+01  0.43603272383E+02  0.47000000000E+01 0.  1.
<mgrwt>
<rscale>  0 0.98210303E+02</rscale>
<asrwt>0</asrwt>
<pdfrwt beam="1">  1        3 0.36681646E-01 0.98630746E+02</pdfrwt>
<pdfrwt beam="2">  1       -3 0.83808949E-02 0.98630746E+02</pdfrwt>
<totfact> 0.15733381E+03</totfact>
</mgrwt>
</event>
<event>
 8    1  0.3400573E-004  0.9853896E+02  0.7546771E-02  0.1284109E+00
          3   -1    0    0  501    0  0.00000000000E+00  0.00000000000E+00  0.10696809652E+03  0.10696809652E+03  0.00000000000E+00 0. -1.
         -3   -1    0    0    0  501 -0.00000000000E+00 -0.00000000000E+00 -0.33380117163E+03  0.33380117163E+03  0.00000000000E+00 0.  1.
         23    2    1    2    0    0 -0.19575646840E+02  0.27924469200E+02 -0.30213270861E+03  0.31779569070E+03  0.92449691642E+02 0.  0.
         23    2    1    2    0    0  0.19575646840E+02 -0.27924469200E+02  0.75299633493E+02  0.12297357745E+03  0.91046603549E+02 0.  0.
          5    1    4    4  502    0  0.45220826981E+02 -0.11406287832E+02  0.79029458290E+02  0.91884557313E+02  0.47000000000E+01 0. -1.
         -5    1    4    4    0  502 -0.25645180142E+02 -0.16518181368E+02 -0.37298247966E+01  0.31089020139E+02  0.47000000000E+01 0.  1.
          5    1    3    3  503    0  0.25910060546E+02 -0.19222871406E+02 -0.11126659371E+03  0.11594479246E+03  0.47000000000E+01 0. -1.
         -5    1    3    3    0  503 -0.45485707386E+02  0.47147340606E+02 -0.19086611490E+03  0.20185089824E+03  0.47000000000E+01 0.  1.
<mgrwt>
<rscale>  0 0.98208513E+02</rscale>
<asrwt>0</asrwt>
<pdfrwt beam="1">  1        3 0.16456631E-01 0.98538964E+02</pdfrwt>
<pdfrwt beam="2">  1       -3 0.51354025E-01 0.98538964E+02</pdfrwt>
<totfact> 0.26681791E+02</totfact>
</mgrwt>
</event>
<event>
 8    1  0.3400573E-004  0.3130155E+03  0.7546771E-02  0.1079630E+00
         -1   -1    0    0    0  501 -0.00000000000E+00  0.00000000000E+00  0.74556601591E+03  0.74556601591E+03  0.00000000000E+00 0.  1.
          1   -1    0    0  501    0  0.00000000000E+00 -0.00000000000E+00 -0.21058689119E+03  0.21058689119E+03  0.00000000000E+00 0. -1.
         23    2    1    2    0    0  0.18826748334E+03  0.22507222796E+03  0.56683227773E+03  0.64751645743E+03  0.10897971596E+03 0.  0.
         23    2    1    2    0    0 -0.18826748334E+03 -0.22507222796E+03 -0.31853153009E+02  0.30863644967E+03  0.90220184145E+02 0.  0.
          5    1    4    4  502    0 -0.14989576096E+03 -0.18268642746E+03  0.11641510820E+02  0.23664463802E+03  0.47000000000E+01 0. -1.
         -5    1    4    4    0  502 -0.38371722380E+02 -0.42385800493E+02 -0.43494663829E+02  0.71991811641E+02  0.47000000000E+01 0.  1.
          5    1    3    3  503    0  0.72092211711E+02  0.91350120580E+02  0.12189036141E+03  0.16858671870E+03  0.47000000000E+01 0. -1.
         -5    1    3    3    0  503  0.11617527163E+03  0.13372210738E+03  0.44494191632E+03  0.47892973873E+03  0.47000000000E+01 0.  1.
<mgrwt>
<rscale>  0 0.31149774E+03</rscale>
<asrwt>0</asrwt>
<pdfrwt beam="1">  1        1 0.32397983E-01 0.31301555E+03</pdfrwt>
<pdfrwt beam="2">  1       -1 0.11470246E+00 0.31301555E+03</pdfrwt>
<totfact> 0.10129850E+02</totfact>
</mgrwt>
</event>
<event>
 8    1  0.3400573E-004  0.9857042E+02  0.7546771E-02  0.1283561E+00
         -1   -1    0    0    0  501 -0.00000000000E+00  0.00000000000E+00  0.43655382530E+02  0.43655382530E+02  0.00000000000E+00 0.  1.
          1   -1    0    0  501    0  0.00000000000E+00 -0.00000000000E+00 -0.60106667506E+03  0.60106667506E+03  0.00000000000E+00 0. -1.
         23    2    1    2    0    0 -0.10838738817E+02 -0.32347560022E+02 -0.22794840990E+02  0.10117179989E+03  0.92478567343E+02 0.  0.
         23    2    1    2    0    0  0.10838738817E+02  0.32347560022E+02 -0.53461645154E+03  0.54355025771E+03  0.92023309520E+02 0.  0.
          5    1    3    3  502    0 -0.21662107680E+02 -0.12023403492E+02 -0.55464194176E+02  0.60927629006E+02  0.47000000000E+01 0. -1.
         -5    1    4    4    0  503 -0.38394515366E+02  0.27292087918E+02 -0.30126516400E+03  0.30496194175E+03  0.47000000000E+01 0.  1.
          5    1    4    4  503    0  0.49233254184E+02  0.50554721040E+01 -0.23335128754E+03  0.23858831596E+03  0.47000000000E+01 0. -1.
         -5    1    3    3    0  502  0.10823368863E+02 -0.20324156529E+02  0.32669353186E+02  0.40244170879E+02  0.47000000000E+01 0.  1.
<mgrwt>
<rscale>  0 0.98463500E+02</rscale>
<asrwt>0</asrwt>
<pdfrwt beam="1">  1        1 0.92471788E-01 0.98570423E+02</pdfrwt>
<pdfrwt beam="2">  1       -1 0.67162133E-02 0.98570423E+02</pdfrwt>
<totfact> 0.37813488E+03</totfact>
</mgrwt>
</event>
<event>
 8    1  0.3400573E-004  0.1119210E+03  0.7546771E-02  0.1258187E+00
          2   -1    0    0  501    0  0.00000000000E+00  0.00000000000E+00  0.33927698286E+03  0.33927698286E+03  0.00000000000E+00 0. -1.
         -2   -1    0    0    0  501 -0.00000000000E+00 -0.00000000000E+00 -0.42151223423E+02  0.42151223423E+02  0.00000000000E+00 0.  1.
         23    2    1    2    0    0  0.46607941050E+02 -0.38321339168E+02  0.21934461817E+03  0.24513357646E+03  0.91310369540E+02 0.  0.
         23    2    1    2    0    0 -0.46607941050E+02  0.38321339168E+02  0.77781141267E+02  0.13629462982E+03  0.94262903500E+02 0.  0.
          5    1    4    4  502    0  0.13801975949E+02  0.41080645483E+02  0.88574386603E+01  0.44482110933E+02  0.47000000000E+01 0. -1.
         -5    1    3    3    0  503  0.17730734938E+02 -0.59548751746E+02  0.81280252509E+02  0.10241583005E+03  0.47000000000E+01 0.  1.
          5    1    3    3  503    0  0.28877206112E+02  0.21227412578E+02  0.13806436566E+03  0.14271774642E+03  0.47000000000E+01 0. -1.
         -5    1    4    4    0  502 -0.60409917000E+02 -0.27593063157E+01  0.68923702606E+02  0.91812518886E+02  0.47000000000E+01 0.  1.
<mgrwt>
<rscale>  0 0.11129706E+03</rscale>
<asrwt>0</asrwt>
<pdfrwt beam="1">  1        2 0.52196457E-01 0.11192104E+03</pdfrwt>
<pdfrwt beam="2">  1       -2 0.64848038E-02 0.11192104E+03</pdfrwt>
<totfact> 0.11670760E+04</totfact>
</mgrwt>
</event>
<event>
 8    1  0.3400573E-004  0.1009369E+03  0.7546771E-02  0.1279979E+00
         -4   -1    0    0    0  501 -0.00000000000E+00  0.00000000000E+00  0.69327657505E+02  0.69327657505E+02  0.00000000000E+00 0.  1.
          4   -1    0    0  501    0  0.00000000000E+00 -0.00000000000E+00 -0.17995217305E+03  0.17995217305E+03  0.00000000000E+00 0. -1.
         23    2    1    2    0    0 -0.41348863919E+02  0.17171834157E+02  0.88235400301E+00  0.10094074035E+03  0.90463551102E+02 0.  0.
         23    2    1    2    0    0  0.41348863919E+02 -0.17171834157E+02 -0.11150686954E+03  0.14833909020E+03  0.86983350652E+02 0.  0.
          5    1    3    3  502    0 -0.94911625144E+01  0.48992164448E+02  0.16934565739E+02  0.52907313861E+02  0.47000000000E+01 0. -1.
         -5    1    4    4    0  503 -0.99087736286E+01 -0.39941688918E+02 -0.43575152482E+02  0.60119931989E+02  0.47000000000E+01 0.  1.
          5    1    4    4  503    0  0.51257637548E+02  0.22769854762E+02 -0.67931717061E+02  0.88219158212E+02  0.47000000000E+01 0. -1.
         -5    1    3    3    0  502 -0.31857701405E+02 -0.31820330291E+02 -0.16052211736E+02  0.48033426489E+02  0.47000000000E+01 0.  1.
<mgrwt>
<rscale>  0 0.10015103E+03</rscale>
<asrwt>0</asrwt>
<pdfrwt beam="1">  1        4 0.27684950E-01 0.10093688E+03</pdfrwt>
<pdfrwt beam="2">  1       -4 0.10665794E-01 0.10093688E+03</pdfrwt>
<totfact> 0.12956721E+03</totfact>
</mgrwt>
</event>
<event>
 8    1  0.3400573E-004  0.1441068E+03  0.7546771E-02  0.1208579E+00
         -2   -1    0    0    0  501 -0.00000000000E+00  0.00000000000E+00  0.30282021642E+02  0.30282021642E+02  0.00000000000E+00 0.  1.
          2   -1    0    0  501    0  0.00000000000E+00 -0.00000000000E+00 -0.68778002707E+03  0.68778002707E+03  0.00000000000E+00 0. -1.
         23    2    1    2    0    0 -0.10857693436E+03 -0.21411601203E+02 -0.28411517501E+03  0.31857213076E+03  0.92300392623E+02 0.  0.
         23    2    1    2    0    0  0.10857693436E+03  0.21411601203E+02 -0.37338283041E+03  0.39948991795E+03  0.89050823462E+02 0.  0.
          5    1    4    4  502    0  0.19033793199E+02  0.45201093649E+02 -0.13166712627E+03  0.14058359183E+03  0.47000000000E+01 0. -1.
         -5    1    3    3    0  503 -0.47649239615E+02 -0.27304705894E+02 -0.43408357241E+02  0.70159621422E+02  0.47000000000E+01 0.  1.
          5    1    3    3  503    0 -0.60927694750E+02  0.58931046906E+01 -0.24070681777E+03  0.24841250933E+03  0.47000000000E+01 0. -1.
         -5    1    4    4    0  502  0.89543141166E+02 -0.23789492446E+02 -0.24171570414E+03  0.25890632612E+03  0.47000000000E+01 0.  1.
<mgrwt>
<rscale>  0 0.14358916E+03</rscale>
<asrwt>0</asrwt>
<pdfrwt beam="1">  1        2 0.10581231E+00 0.14410680E+03</pdfrwt>
<pdfrwt beam="2">  1       -2 0.46587726E-02 0.14410680E+03</pdfrwt>
<totfact> 0.89964869E+03</totfact>
</mgrwt>
</event>
<event>
 8    1  0.3400573E-004  0.9324916E+02  0.7546771E-02  0.1296142E+00
         -2   -1    0    0    0  501 -0.00000000000E+00  0.00000000000E+00  0.11287555875E+02  0.11287555875E+02  0.00000000000E+00 0.  1.
          2   -1    0    0  501    0  0.00000000000E+00 -0.00000000000E+00 -0.77519107003E+03  0.77519107003E+03  0.00000000000E+00 0. -1.
         23    2    1    2    0    0  0.19538645974E+02  0.18359131490E+01 -0.32445921787E+03  0.33759323268E+03  0.91160723030E+02 0.  0.
         23    2    1    2    0    0 -0.19538645974E+02 -0.18359131490E+01 -0.43944429629E+03  0.44888539323E+03  0.89452095861E+02 0.  0.
          5    1    3    3  502    0  0.55512601200E+01  0.34834737095E+02 -0.26932410145E+03  0.27166493520E+03  0.47000000000E+01 0. -1.
         -5    1    3    3    0  502  0.13987385854E+02 -0.32998823946E+02 -0.55135116426E+02  0.65928297476E+02  0.47000000000E+01 0.  1.
          5    1    4    4  503    0 -0.19812269438E+02  0.41861025915E+02 -0.19154992924E+03  0.19712518079E+03  0.47000000000E+01 0. -1.
         -5    1    4    4    0  503  0.27362346357E+00 -0.43696939064E+02 -0.24789436705E+03  0.25176021244E+03  0.47000000000E+01 0.  1.
<mgrwt>
<rscale>  0 0.92828919E+02</rscale>
<asrwt>0</asrwt>
<pdfrwt beam="1">  1        2 0.11926018E+00 0.93249165E+02</pdfrwt>
<pdfrwt beam="2">  1       -2 0.17365468E-02 0.93249165E+02</pdfrwt>
<totfact> 0.31876616E+04</totfact>
</mgrwt>
</event>
<event>
 8    1  0.3400573E-004  0.2653296E+03  0.7546771E-02  0.1105484E+00
          1   -1    0    0  501    0  0.00000000000E+00  0.00000000000E+00  0.21660391459E+04  0.21660391459E+04  0.00000000000E+00 0. -1.
         -1   -1    0    0    0  501 -0.00000000000E+00 -0.00000000000E+00 -0.32187499468E+02  0.32187499468E+02  0.00000000000E+00 0.  1.
         23    2    1    2    0    0 -0.20331086425E+03  0.14219628746E+03  0.12312089796E+04  0.12573953252E+04  0.60102917639E+02 0.  0.
         23    2    1    2    0    0  0.20331086425E+03 -0.14219628746E+03  0.90264266679E+03  0.94083132012E+03  0.94046250985E+02 0.  0.
          5    1    4    4  502    0  0.28367273618E+02  0.92749927459E+01  0.16450499697E+03  0.16725642508E+03  0.47000000000E+01 0. -1.
         -5    1    4    4    0  502  0.17494359063E+03 -0.15147128021E+03  0.73813766981E+03  0.77357489503E+03  0.47000000000E+01 0.  1.
          5    1    3    3  503    0 -0.10120457107E+03  0.10164997231E+03  0.76981846627E+03  0.78308214325E+03  0.47000000000E+01 0. -1.
         -5    1    3    3    0  503 -0.10210629318E+03  0.40546315150E+02  0.46139051333E+03  0.47431318195E+03  0.47000000000E+01 0.  1.
<mgrwt>
<rscale>  0 0.26278048E+03</rscale>
<asrwt>0</asrwt>
<pdfrwt beam="1">  1        1 0.33323668E+00 0.26532959E+03</pdfrwt>
<pdfrwt beam="2">  1       -1 0.49519247E-02 0.26532959E+03</pdfrwt>
<totfact> 0.47002835E+02</totfact>
</mgrwt>
</event>
<event>
 8    1  0.3400573E-004  0.1072176E+03  0.7546771E-02  0.1268581E+00
         -1   -1    0    0    0  501 -0.00000000000E+00  0.00000000000E+00  0.12590768491E+03  0.12590768491E+03  0.00000000000E+00 0.  1.
          1   -1    0    0  501    0  0.00000000000E+00 -0.00000000000E+00 -0.10651707877E+03  0.10651707877E+03  0.00000000000E+00 0. -1.
         23    2    1    2    0    0  0.34617878552E+02 -0.29013221094E+02  0.60168577046E+02  0.12294664581E+03  0.97239166684E+02 0.  0.
         23    2    1    2    0    0 -0.34617878552E+02  0.29013221094E+02 -0.40777970906E+02  0.10947811788E+03  0.91007971464E+02 0.  0.
          5    1    4    4  502    0 -0.64127453949E+02  0.74483574730E+01 -0.27039865112E+02  0.70150215141E+02  0.47000000000E+01 0. -1.
         -5    1    4    4    0  502  0.29509575398E+02  0.21564863621E+02 -0.13738105794E+02  0.39327902740E+02  0.47000000000E+01 0.  1.
          5    1    3    3  503    0 -0.59066664546E+01  0.29450300301E+02  0.37209625299E+02  0.48050547461E+02  0.47000000000E+01 0. -1.
         -5    1    3    3    0  503  0.40524545006E+02 -0.58463521395E+02  0.22958951747E+02  0.74896098344E+02  0.47000000000E+01 0.  1.
<mgrwt>
<rscale>  0 0.10578482E+03</rscale>
<asrwt>0</asrwt>
<pdfrwt beam="1">  1        1 0.16387243E-01 0.10721763E+03</pdfrwt>
<pdfrwt beam="2">  1       -1 0.19370413E-01 0.10721763E+03</pdfrwt>
<totfact> 0.65653600E+03</totfact>
</mgrwt>
</event>
<event>
 8    1  0.3400573E-004  0.1058837E+03  0.7546771E-02  0.1272780E+00
          1   -1    0    0  501    0  0.00000000000E+00  0.00000000000E+00  0.46743157027E+03  0.46743157027E+03  0.00000000000E+00 0. -1.
         -1   -1    0    0    0  501 -0.00000000000E+00 -0.00000000000E+00 -0.29098909703E+02  0.29098909703E+02  0.00000000000E+00 0.  1.
         23    2    1    2    0    0  0.99609657660E-01 -0.30640978448E+02  0.33402094873E+03  0.34789574151E+03  0.92317784240E+02 0.  0.
         23    2    1    2    0    0 -0.99609657660E-01  0.30640978448E+02  0.10431171184E+03  0.14863473847E+03  0.10135320799E+03 0.  0.
          5    1    3    3  502    0  0.28585800516E+02  0.22516091289E+02  0.11902199031E+03  0.12454897244E+03  0.47000000000E+01 0. -1.
         -5    1    4    4    0  503 -0.35400728056E+02 -0.18788484633E+02  0.63739284515E+02  0.75438750601E+02  0.47000000000E+01 0.  1.
          5    1    4    4  503    0  0.35301118398E+02  0.49429463081E+02  0.40572427323E+02  0.73195987865E+02  0.47000000000E+01 0. -1.
         -5    1    3    3    0  502 -0.28486190858E+02 -0.53157069736E+02  0.21499895842E+03  0.22334676907E+03  0.47000000000E+01 0.  1.
<mgrwt>
<rscale>  0 0.10366126E+03</rscale>
<asrwt>0</asrwt>
<pdfrwt beam="1">  1        1 0.71912544E-01 0.10588367E+03</pdfrwt>
<pdfrwt beam="2">  1       -1 0.44767557E-02 0.10588367E+03</pdfrwt>
<totfact> 0.95930504E+03</totfact>
</mgrwt>
</event>
<event>
 8    1  0.3400573E-004  0.9574144E+02  0.7546771E-02  0.1290421E+00
          1   -1    0    0  501    0  0.00000000000E+00  0.00000000000E+00  0.96261947294E+03  0.96261947294E+03  0.00000000000E+00 0. -1.
         -1   -1    0    0    0  501 -0.00000000000E+00 -0.00000000000E+00 -0.12407315694E+02  0.12407315694E+02  0.00000000000E+00 0.  1.
         23    2    1    2    0    0 -0.33660581431E+00  0.22816881346E+02  0.23666155271E+03  0.25529417278E+03  0.92982260376E+02 0.  0.
         23    2    1    2    0    0  0.33660581431E+00 -0.22816881346E+02  0.71355060454E+03  0.71973261586E+03  0.91322777647E+02 0.  0.
          5    1    4    4  502    0 -0.58632538948E+01 -0.57794195059E+02  0.44864526587E+03  0.45241486637E+03  0.47000000000E+01 0. -1.
         -5    1    4    4    0  502  0.61998597091E+01  0.34977313713E+02  0.26490533867E+03  0.26731774949E+03  0.47000000000E+01 0.  1.
          5    1    3    3  503    0 -0.37729825967E+02 -0.69301331890E+00  0.17627505747E+03  0.18033026901E+03  0.47000000000E+01 0. -1.
         -5    1    3    3    0  503  0.37393220153E+02  0.23509894665E+02  0.60386495238E+02  0.74963903765E+02  0.47000000000E+01 0.  1.
<mgrwt>
<rscale>  0 0.95336171E+02</rscale>
<asrwt>0</asrwt>
<pdfrwt beam="1">  1        1 0.14809524E+00 0.95741444E+02</pdfrwt>
<pdfrwt beam="2">  1       -1 0.19088186E-02 0.95741444E+02</pdfrwt>
<totfact> 0.11760862E+04</totfact>
</mgrwt>
</event>
<event>
 8    1  0.3400573E-004  0.1320946E+03  0.7546771E-02  0.1232113E+00
          1   -1    0    0  501    0  0.00000000000E+00  0.00000000000E+00  0.36734352575E+03  0.36734352575E+03  0.00000000000E+00 0. -1.
         -1   -1    0    0    0  501 -0.00000000000E+00 -0.00000000000E+00 -0.15334295120E+03  0.15334295120E+03  0.00000000000E+00 0.  1.
         23    2    1    2    0    0 -0.46790327668E+02  0.47584285858E+02 -0.11818416946E+03  0.16320126391E+03  0.90628668780E+02 0.  0.
         23    2    1    2    0    0  0.46790327668E+02 -0.47584285858E+02  0.33218474401E+03  0.35748521304E+03  0.11399725594E+03 0.  0.
          5    1    3    3  502    0 -0.36962472395E+01  0.33992417622E+02  0.21456381503E+01  0.34580926282E+02  0.47000000000E+01 0. -1.
         -5    1    4    4    0  503 -0.29091281234E+02 -0.37879965474E+00  0.28912990543E+02  0.41285556253E+02  0.47000000000E+01 0.  1.
          5    1    4    4  503    0  0.75881608901E+02 -0.47205486203E+02  0.30327175347E+03  0.31619965678E+03  0.47000000000E+01 0. -1.
         -5    1    3    3    0  502 -0.43094080428E+02  0.13591868235E+02 -0.12032980761E+03  0.12862033762E+03  0.47000000000E+01 0.  1.
<mgrwt>
<rscale>  0 0.12691080E+03</rscale>
<asrwt>0</asrwt>
<pdfrwt beam="1">  1        1 0.56514388E-01 0.13209456E+03</pdfrwt>
<pdfrwt beam="2">  1       -1 0.23591223E-01 0.13209456E+03</pdfrwt>
<totfact> 0.10310954E+03</totfact>
</mgrwt>
</event>
<event>
 8    1  0.3577147E-004  0.1181243E+03  0.7546771E-02  0.1248765E+00
         -1   -1    0    0    0  501 -0.00000000000E+00  0.00000000000E+00  0.32175995268E+02  0.32175995268E+02  0.00000000000E+00 0.  1.
          1   -1    0    0  501    0  0.00000000000E+00 -0.00000000000E+00 -0.86235284006E+03  0.86235284006E+03  0.00000000000E+00 0. -1.
         23    2    1    2    0    0  0.53079656550E+02  0.45304174698E+02 -0.73306632552E+03  0.74161120453E+03  0.87926235464E+02 0.  0.
         23    2    1    2    0    0 -0.53079656550E+02 -0.45304174698E+02 -0.97110519275E+02  0.15291763080E+03  0.95307033699E+02 0.  0.
          5    1    4    4  502    0 -0.19946673399E+02  0.28020452655E+02 -0.45417151136E+02  0.57164877014E+02  0.47000000000E+01 0. -1.
         -5    1    4    4    0  502 -0.33132983151E+02 -0.73324627354E+02 -0.51693368139E+02  0.95752753791E+02  0.47000000000E+01 0.  1.
          5    1    3    3  503    0  0.38021377755E+02  0.70253296198E+02 -0.45504089718E+03  0.46202322333E+03  0.47000000000E+01 0. -1.
         -5    1    3    3    0  503  0.15058278796E+02 -0.24949121499E+02 -0.27802542834E+03  0.27958798119E+03  0.47000000000E+01 0.  1.
<mgrwt>
<rscale>  0 0.11662853E+03</rscale>
<asrwt>0</asrwt>
<pdfrwt beam="1">  1        1 0.13266965E+00 0.11812429E+03</pdfrwt>
<pdfrwt beam="2">  1       -1 0.49501539E-02 0.11812429E+03</pdfrwt>
<totfact> 0.35622985E+03</totfact>
</mgrwt>
</event>
<event>
 8    1  0.3400573E-004  0.9614580E+02  0.7546771E-02  0.1288811E+00
          1   -1    0    0  501    0  0.00000000000E+00  0.00000000000E+00  0.19557376730E+03  0.19557376730E+03  0.00000000000E+00 0. -1.
         -1   -1    0    0    0  501 -0.00000000000E+00 -0.00000000000E+00 -0.15042677046E+03  0.15042677046E+03  0.00000000000E+00 0.  1.
         23    2    1    2    0    0  0.50363460255E+01  0.28515932116E+02 -0.12079852604E+03  0.15439008652E+03  0.91681468988E+02 0.  0.
         23    2    1    2    0    0 -0.50363460255E+01 -0.28515932116E+02  0.16594552288E+03  0.19161045124E+03  0.91313335798E+02 0.  0.
          5    1    3    3  502    0 -0.91315339947E+01 -0.31638191125E+02 -0.32451345871E+02  0.46470849998E+02  0.47000000000E+01 0. -1.
         -5    1    3    3    0  502  0.14167880020E+02  0.60154123240E+02 -0.88347180166E+02  0.10791923652E+03  0.47000000000E+01 0.  1.
          5    1    4    4  503    0 -0.33678119872E+02 -0.13804049952E+02  0.15172155489E+03  0.15609704601E+03  0.47000000000E+01 0. -1.
         -5    1    4    4    0  503  0.28641773847E+02 -0.14711882163E+02  0.14223967988E+02  0.35513405232E+02  0.47000000000E+01 0.  1.
<mgrwt>
<rscale>  0 0.96057936E+02</rscale>
<asrwt>0</asrwt>
<pdfrwt beam="1">  1        1 0.30088272E-01 0.96145800E+02</pdfrwt>
<pdfrwt beam="2">  1       -1 0.23142580E-01 0.96145800E+02</pdfrwt>
<totfact> 0.22902039E+03</totfact>
</mgrwt>
</event>
<event>
 8    1  0.3400573E-004  0.1791724E+03  0.7546771E-02  0.1168753E+00
         -1   -1    0    0    0  501 -0.00000000000E+00  0.00000000000E+00  0.30989267071E+02  0.30989267071E+02  0.00000000000E+00 0.  1.
          1   -1    0    0  501    0  0.00000000000E+00 -0.00000000000E+00 -0.14082494785E+04  0.14082494785E+04  0.00000000000E+00 0. -1.
         23    2    1    2    0    0 -0.76453606305E+02  0.13381617013E+03 -0.31605079739E+03  0.36301006153E+03  0.90201313374E+02 0.  0.
         23    2    1    2    0    0  0.76453606305E+02 -0.13381617013E+03 -0.10612094141E+04  0.10762286841E+04  0.91382922945E+02 0.  0.
          5    1    4    4  502    0  0.80139523203E+02 -0.71717835356E+02 -0.82198224431E+03  0.82900101994E+03  0.47000000000E+01 0. -1.
         -5    1    3    3    0  503 -0.96218785290E+02  0.12036685345E+03 -0.27544896674E+03  0.31565876723E+03  0.47000000000E+01 0.  1.
          5    1    3    3  503    0  0.19765178985E+02  0.13449316686E+02 -0.40601830659E+02  0.47351294307E+02  0.47000000000E+01 0. -1.
         -5    1    4    4    0  502 -0.36859168976E+01 -0.62098334776E+02 -0.23922716974E+03  0.24722766412E+03  0.47000000000E+01 0.  1.
<mgrwt>
<rscale>  0 0.17902230E+03</rscale>
<asrwt>0</asrwt>
<pdfrwt beam="1">  1        1 0.21665373E+00 0.17917243E+03</pdfrwt>
<pdfrwt beam="2">  1       -1 0.47675803E-02 0.17917243E+03</pdfrwt>
<totfact> 0.15610883E+03</totfact>
</mgrwt>
</event>
<event>
 8    1  0.3400573E-004  0.1005352E+03  0.7546771E-02  0.1280946E+00
          1   -1    0    0  501    0  0.00000000000E+00  0.00000000000E+00  0.22214856320E+03  0.22214856320E+03  0.00000000000E+00 0. -1.
         -1   -1    0    0    0  501 -0.00000000000E+00 -0.00000000000E+00 -0.15783498504E+03  0.15783498504E+03  0.00000000000E+00 0.  1.
         23    2    1    2    0    0 -0.30016644360E+02 -0.16875626388E+02 -0.12933665186E+03  0.16179158301E+03  0.90899731113E+02 0.  0.
         23    2    1    2    0    0  0.30016644360E+02  0.16875626388E+02  0.19365023002E+03  0.21819196523E+03  0.94453885034E+02 0.  0.
          5    1    3    3  502    0  0.27215255313E+02  0.42731900589E+01 -0.74693851424E+02  0.79750810125E+02  0.47000000000E+01 0. -1.
         -5    1    4    4    0  503  0.44634267774E+02  0.78806887342E+00  0.32262710609E+02  0.55279394064E+02  0.47000000000E+01 0.  1.
          5    1    4    4  503    0 -0.14617623414E+02  0.16087557515E+02  0.16138751941E+03  0.16291257116E+03  0.47000000000E+01 0. -1.
         -5    1    3    3    0  502 -0.57231899673E+02 -0.21148816447E+02 -0.54642800432E+02  0.82040772889E+02  0.47000000000E+01 0.  1.
<mgrwt>
<rscale>  0 0.99691738E+02</rscale>
<asrwt>0</asrwt>
<pdfrwt beam="1">  1        1 0.34176702E-01 0.10053518E+03</pdfrwt>
<pdfrwt beam="2">  1       -1 0.24282305E-01 0.10053518E+03</pdfrwt>
<totfact> 0.18152271E+03</totfact>
</mgrwt>
</event>
<event>
 8    1  0.3400573E-004  0.9886902E+02  0.7546771E-02  0.1285619E+00
          1   -1    0    0  501    0  0.00000000000E+00  0.00000000000E+00  0.74747382157E+02  0.74747382157E+02  0.00000000000E+00 0. -1.
         -1   -1    0    0    0  501 -0.00000000000E+00 -0.00000000000E+00 -0.12720783826E+03  0.12720783826E+03  0.00000000000E+00 0.  1.
         23    2    1    2    0    0 -0.25027333110E+02 -0.11648379380E+02 -0.43385181763E+02  0.10796924548E+03  0.94936988724E+02 0.  0.
         23    2    1    2    0    0  0.25027333110E+02  0.11648379380E+02 -0.90752743420E+01  0.93985974941E+02  0.89380930497E+02 0.  0.
          5    1    4    4  502    0  0.50535913565E+02  0.31205481940E+02  0.21441500747E+01  0.59618353236E+02  0.47000000000E+01 0. -1.
         -5    1    4    4    0  502 -0.25508580456E+02 -0.19557102561E+02 -0.11219424417E+02  0.34367621705E+02  0.47000000000E+01 0.  1.
          5    1    3    3  503    0  0.32647167705E+02 -0.18151090466E+02 -0.44242782146E+01  0.37907306446E+02  0.47000000000E+01 0. -1.
         -5    1    3    3    0  503 -0.57674500815E+02  0.65027110869E+01 -0.38960903549E+02  0.70061939033E+02  0.47000000000E+01 0.  1.
<mgrwt>
<rscale>  0 0.97510732E+02</rscale>
<asrwt>0</asrwt>
<pdfrwt beam="1">  1        1 0.11499597E-01 0.98869024E+02</pdfrwt>
<pdfrwt beam="2">  1       -1 0.19570436E-01 0.98869024E+02</pdfrwt>
<totfact> 0.10131763E+04</totfact>
</mgrwt>
</event>
<event>
 8    1  0.3400573E-004  0.9194616E+02  0.7546771E-02  0.1299430E+00
         -1   -1    0    0    0  501 -0.00000000000E+00  0.00000000000E+00  0.78640012878E+02  0.78640012878E+02  0.00000000000E+00 0.  1.
          1   -1    0    0  501    0  0.00000000000E+00 -0.00000000000E+00 -0.12107983990E+03  0.12107983990E+03  0.00000000000E+00 0. -1.
         23    2    1    2    0    0  0.53879788334E+01 -0.56137020014E+01  0.15247860605E+02  0.91175092263E+02  0.89553650010E+02 0.  0.
         23    2    1    2    0    0 -0.53879788334E+01  0.56137020014E+01 -0.57687687631E+02  0.10854476052E+03  0.91616329144E+02 0.  0.
          5    1    4    4  502    0  0.13574410633E+02  0.44042082160E+02 -0.42415442325E+02  0.62810264867E+02  0.47000000000E+01 0. -1.
         -5    1    4    4    0  502 -0.18962389467E+02 -0.38428380159E+02 -0.15272245306E+02  0.45734495653E+02  0.47000000000E+01 0.  1.
          5    1    3    3  503    0 -0.31158164136E+02 -0.29105755506E+02 -0.46730640884E+01  0.43149782431E+02  0.47000000000E+01 0. -1.
         -5    1    3    3    0  503  0.36546142969E+02  0.23492053504E+02  0.19920924694E+02  0.48025309832E+02  0.47000000000E+01 0.  1.
<mgrwt>
<rscale>  0 0.91428016E+02</rscale>
<asrwt>0</asrwt>
<pdfrwt beam="1">  1        1 0.18627668E-01 0.91946157E+02</pdfrwt>
<pdfrwt beam="2">  1       -1 0.12098464E-01 0.91946157E+02</pdfrwt>
<totfact> 0.11459227E+04</totfact>
</mgrwt>
</event>
<event>
 8    1  0.3400573E-004  0.1037101E+03  0.7546771E-02  0.1274216E+00
          2   -1    0    0  501    0  0.00000000000E+00  0.00000000000E+00  0.46986629286E+02  0.46986629286E+02  0.00000000000E+00 0. -1.
         -2   -1    0    0    0  501 -0.00000000000E+00 -0.00000000000E+00 -0.28337778982E+03  0.28337778982E+03  0.00000000000E+00 0.  1.
         23    2    1    2    0    0  0.33071185581E+02  0.23291148923E+02 -0.40151746086E+02  0.10840564911E+03  0.92214104734E+02 0.  0.
         23    2    1    2    0    0 -0.33071185581E+02 -0.23291148923E+02 -0.19623941445E+03  0.22195877000E+03  0.95496632715E+02 0.  0.
          5    1    3    3  502    0  0.50413730968E+02  0.47166250795E+02 -0.36695909320E+02  0.78325469964E+02  0.47000000000E+01 0. -1.
         -5    1    4    4    0  503 -0.43869515731E+02  0.25418252903E+02 -0.73803478731E+02  0.89664181610E+02  0.47000000000E+01 0.  1.
          5    1    4    4  503    0  0.10798330150E+02 -0.48709401826E+02 -0.12243593572E+03  0.13229458839E+03  0.47000000000E+01 0. -1.
         -5    1    3    3    0  502 -0.17342545387E+02 -0.23875101872E+02 -0.34558367658E+01  0.30080179149E+02  0.47000000000E+01 0.  1.
<mgrwt>
<rscale>  0 0.10294815E+03</rscale>
<asrwt>0</asrwt>
<pdfrwt beam="1">  1        2 0.72287121E-02 0.10371011E+03</pdfrwt>
<pdfrwt beam="2">  1       -2 0.43596584E-01 0.10371011E+03</pdfrwt>
<totfact> 0.45505499E+03</totfact>
</mgrwt>
</event>
<event>
 8    1  0.3400573E-004  0.1145680E+03  0.7546771E-02  0.1252944E+00
         -1   -1    0    0    0  501 -0.00000000000E+00  0.00000000000E+00  0.16259369981E+03  0.16259369981E+03  0.00000000000E+00 0.  1.
          1   -1    0    0  501    0  0.00000000000E+00 -0.00000000000E+00 -0.14447361279E+03  0.14447361279E+03  0.00000000000E+00 0. -1.
         23    2    1    2    0    0  0.54133154174E+02 -0.36844374326E+02  0.11184396143E+03  0.16010899765E+03  0.94010175613E+02 0.  0.
         23    2    1    2    0    0 -0.54133154174E+02  0.36844374326E+02 -0.93723874405E+02  0.14695831495E+03  0.92329168732E+02 0.  0.
          5    1    4    4  502    0 -0.31768619813E+02  0.66572963604E+02 -0.49407451435E+02  0.88906641738E+02  0.47000000000E+01 0. -1.
         -5    1    4    4    0  502 -0.22364534361E+02 -0.29728589278E+02 -0.44316422970E+02  0.58051673210E+02  0.47000000000E+01 0.  1.
          5    1    3    3  503    0 -0.14402761132E+02 -0.35595105555E+02  0.15275271526E+02  0.41591765866E+02  0.47000000000E+01 0. -1.
         -5    1    3    3    0  503  0.68535915306E+02 -0.12492687716E+01  0.96568689904E+02  0.11851723178E+03  0.47000000000E+01 0.  1.
<mgrwt>
<rscale>  0 0.11422259E+03</rscale>
<asrwt>0</asrwt>
<pdfrwt beam="1">  1        1 0.22226710E-01 0.11456797E+03</pdfrwt>
<pdfrwt beam="2">  1       -1 0.25014415E-01 0.11456797E+03</pdfrwt>
<totfact> 0.29668817E+03</totfact>
</mgrwt>
</event>
<event>
 8    1  0.3400573E-004  0.9607685E+02  0.7546771E-02  0.1309016E+00
          1   -1    0    0  501    0  0.00000000000E+00  0.00000000000E+00  0.73043021117E+03  0.73043021117E+03  0.00000000000E+00 0. -1.
         -1   -1    0    0    0  501 -0.00000000000E+00 -0.00000000000E+00 -0.18803535252E+02  0.18803535252E+02  0.00000000000E+00 0.  1.
         23    2    1    2    0    0 -0.21423381739E+02  0.12537567337E+02  0.56087331820E+02  0.86691225487E+02  0.61265225910E+02 0.  0.
         23    2    1    2    0    0  0.21423381739E+02 -0.12537567337E+02  0.65553934410E+03  0.66254252094E+03  0.92814915331E+02 0.  0.
          5    1    4    4  502    0 -0.11271282675E+02  0.34040048544E+02  0.18078997751E+03  0.18437156149E+03  0.47000000000E+01 0. -1.
         -5    1    4    4    0  502  0.32694664414E+02 -0.46577615881E+02  0.47474936659E+03  0.47817095945E+03  0.47000000000E+01 0.  1.
          5    1    3    3  503    0  0.18560182578E+02  0.13171758182E+02  0.94748678668E+01  0.25096587657E+02  0.47000000000E+01 0. -1.
         -5    1    3    3    0  503 -0.39983564317E+02 -0.63419084480E+00  0.46612463953E+02  0.61594637829E+02  0.47000000000E+01 0.  1.
<mgrwt>
<rscale>  0 0.87502208E+02</rscale>
<asrwt>0</asrwt>
<pdfrwt beam="1">  1        1 0.11237386E+00 0.96076846E+02</pdfrwt>
<pdfrwt beam="2">  1       -1 0.28928521E-02 0.96076846E+02</pdfrwt>
<totfact> 0.98618943E+03</totfact>
</mgrwt>
</event>
<event>
 8    1  0.3400573E-004  0.1201277E+03  0.7546771E-02  0.1249979E+00
         -1   -1    0    0    0  501 -0.00000000000E+00  0.00000000000E+00  0.20901193311E+02  0.20901193311E+02  0.00000000000E+00 0.  1.
          1   -1    0    0  501    0  0.00000000000E+00 -0.00000000000E+00 -0.67183196309E+03  0.67183196309E+03  0.00000000000E+00 0. -1.
         23    2    1    2    0    0  0.31700327585E+02  0.39935963758E+02 -0.23459506917E+03  0.26356308909E+03  0.10876977284E+03 0.  0.
         23    2    1    2    0    0 -0.31700327585E+02 -0.39935963758E+02 -0.41633570061E+03  0.42917006731E+03  0.90839083550E+02 0.  0.
          5    1    4    4  502    0 -0.30538487238E+02 -0.68077073587E+02 -0.27515042304E+03  0.28512616935E+03  0.47000000000E+01 0. -1.
         -5    1    3    3    0  503  0.32200925629E+02  0.12054585902E+02 -0.85298737206E+01  0.35735995836E+02  0.47000000000E+01 0.  1.
          5    1    3    3  503    0 -0.50059804433E+00  0.27881377856E+02 -0.22606519545E+03  0.22782709326E+03  0.47000000000E+01 0. -1.
         -5    1    4    4    0  502 -0.11618403472E+01  0.28141109829E+02 -0.14118527757E+03  0.14404389795E+03  0.47000000000E+01 0.  1.
<mgrwt>
<rscale>  0 0.11592274E+03</rscale>
<asrwt>0</asrwt>
<pdfrwt beam="1">  1        1 0.10335874E+00 0.12012766E+03</pdfrwt>
<pdfrwt beam="2">  1       -1 0.32155690E-02 0.12012766E+03</pdfrwt>
<totfact> 0.96770841E+03</totfact>
</mgrwt>
</event>
<event>
 8    1  0.3400573E-004  0.1063622E+03  0.7546771E-02  0.1267677E+00
         -1   -1    0    0    0  501 -0.00000000000E+00  0.00000000000E+00  0.46710891164E+02  0.46710891164E+02  0.00000000000E+00 0.  1.
          1   -1    0    0  501    0  0.00000000000E+00 -0.00000000000E+00 -0.27355055111E+03  0.27355055111E+03  0.00000000000E+00 0. -1.
         23    2    1    2    0    0 -0.35632545942E+02 -0.39512512924E+02 -0.58111803693E+02  0.12080716566E+03  0.91577685813E+02 0.  0.
         23    2    1    2    0    0  0.35632545942E+02  0.39512512924E+02 -0.16872785625E+03  0.19945427661E+03  0.92097784858E+02 0.  0.
          5    1    4    4  502    0  0.16734010909E+01  0.63543905877E+02 -0.89973681578E+02  0.11026323785E+03  0.47000000000E+01 0. -1.
         -5    1    3    3    0  503  0.29370289816E+02 -0.10903362078E+01 -0.11278514859E+02  0.31829195000E+02  0.47000000000E+01 0.  1.
          5    1    3    3  503    0 -0.65002835758E+02 -0.38422176716E+02 -0.46833288834E+02  0.88977970662E+02  0.47000000000E+01 0. -1.
         -5    1    4    4    0  502  0.33959144851E+02 -0.24031392953E+02 -0.78754174676E+02  0.89191038760E+02  0.47000000000E+01 0.  1.
<mgrwt>
<rscale>  0 0.10624952E+03</rscale>
<asrwt>0</asrwt>
<pdfrwt beam="1">  1        1 0.42084699E-01 0.10636221E+03</pdfrwt>
<pdfrwt beam="2">  1       -1 0.71862911E-02 0.10636221E+03</pdfrwt>
<totfact> 0.92817872E+03</totfact>
</mgrwt>
</event>
<event>
 8    1  0.3400573E-004  0.9271211E+02  0.7546771E-02  0.1297079E+00
          1   -1    0    0  501    0  0.00000000000E+00  0.00000000000E+00  0.16272281318E+03  0.16272281318E+03  0.00000000000E+00 0. -1.
         -1   -1    0    0    0  501 -0.00000000000E+00 -0.00000000000E+00 -0.52241308071E+02  0.52241308071E+02  0.00000000000E+00 0.  1.
         23    2    1    2    0    0 -0.47678658047E+01  0.63735911458E+01  0.51165241210E+02  0.10490070953E+03  0.91230048467E+02 0.  0.
         23    2    1    2    0    0  0.47678658047E+01 -0.63735911458E+01  0.59316263901E+02  0.11006341172E+03  0.92369801497E+02 0.  0.
          5    1    3    3  502    0  0.34691240273E+02 -0.74222924916E+01  0.51646470187E+02  0.62833275104E+02  0.47000000000E+01 0. -1.
         -5    1    3    3    0  502 -0.39459106078E+02  0.13795883637E+02 -0.48122897718E+00  0.42067434425E+02  0.47000000000E+01 0.  1.
          5    1    4    4  503    0  0.11809567190E+02  0.30438180662E+02  0.64001082062E+02  0.72001230714E+02  0.47000000000E+01 0. -1.
         -5    1    4    4    0  503 -0.70417013849E+01 -0.36811771808E+02 -0.46848181611E+01  0.38062181010E+02  0.47000000000E+01 0.  1.
<mgrwt>
<rscale>  0 0.92426924E+02</rscale>
<asrwt>0</asrwt>
<pdfrwt beam="1">  1        1 0.25034279E-01 0.92712111E+02</pdfrwt>
<pdfrwt beam="2">  1       -1 0.80371244E-02 0.92712111E+02</pdfrwt>
<totfact> 0.14693980E+04</totfact>
</mgrwt>
</event>
<event>
 8    1  0.3400573E-004  0.9364810E+02  0.7546771E-02  0.1295580E+00
          3   -1    0    0  501    0  0.00000000000E+00  0.00000000000E+00  0.69830073194E+02  0.69830073194E+02  0.00000000000E+00 0. -1.
         -3   -1    0    0    0  501 -0.00000000000E+00 -0.00000000000E+00 -0.12733887041E+03  0.12733887041E+03  0.00000000000E+00 0.  1.
         23    2    1    2    0    0  0.12197479317E+02 -0.51247673966E+01 -0.92833290882E+01  0.91832995799E+02  0.90399541901E+02 0.  0.
         23    2    1    2    0    0 -0.12197479317E+02  0.51247673966E+01 -0.48225468127E+02  0.10533594780E+03  0.92708815013E+02 0.  0.
          5    1    3    3  502    0  0.36984636409E+02  0.17097556964E+02  0.21446892088E+02  0.46284435447E+02  0.47000000000E+01 0. -1.
         -5    1    3    3    0  502 -0.24787157092E+02 -0.22222324360E+02 -0.30730221176E+02  0.45548560353E+02  0.47000000000E+01 0.  1.
          5    1    4    4  503    0 -0.47119807919E+02 -0.18248915583E+02 -0.20275285936E+02  0.54648663644E+02  0.47000000000E+01 0.  1.
         -5    1    4    4    0  503  0.34922328602E+02  0.23373682979E+02 -0.27950182191E+02  0.50687284160E+02  0.47000000000E+01 0. -1.
<mgrwt>
<rscale>  0 0.93071410E+02</rscale>
<asrwt>0</asrwt>
<pdfrwt beam="1">  1        3 0.10743088E-01 0.93648097E+02</pdfrwt>
<pdfrwt beam="2">  1       -3 0.19590595E-01 0.93648097E+02</pdfrwt>
<totfact> 0.32303317E+03</totfact>
</mgrwt>
</event>
<event>
 8    1  0.3400573E-004  0.1008146E+03  0.7546771E-02  0.1280550E+00
          1   -1    0    0  501    0  0.00000000000E+00  0.00000000000E+00  0.11544754417E+03  0.11544754417E+03  0.00000000000E+00 0. -1.
         -1   -1    0    0    0  501 -0.00000000000E+00 -0.00000000000E+00 -0.97247912042E+02  0.97247912042E+02  0.00000000000E+00 0.  1.
         23    2    1    2    0    0  0.19777118840E+02  0.33731991177E+02 -0.28727593047E+02  0.10482776269E+03  0.92922567604E+02 0.  0.
         23    2    1    2    0    0 -0.19777118840E+02 -0.33731991177E+02  0.46927225177E+02  0.10786769352E+03  0.88906091943E+02 0.  0.
          5    1    3    3  502    0 -0.16179246875E+02  0.23081052483E+02  0.25788633838E+02  0.38492163467E+02  0.47000000000E+01 0. -1.
         -5    1    3    3    0  502  0.35956365715E+02  0.10650938695E+02 -0.54516226886E+02  0.66335599224E+02  0.47000000000E+01 0.  1.
          5    1    4    4  503    0 -0.20897580037E+02  0.60595245572E+01  0.61353497928E+02  0.65266901238E+02  0.47000000000E+01 0. -1.
         -5    1    4    4    0  503  0.11204611969E+01 -0.39791515735E+02 -0.14426272750E+02  0.42600792284E+02  0.47000000000E+01 0.  1.
<mgrwt>
<rscale>  0 0.99879282E+02</rscale>
<asrwt>0</asrwt>
<pdfrwt beam="1">  1        1 0.17761161E-01 0.10081461E+03</pdfrwt>
<pdfrwt beam="2">  1       -1 0.14961217E-01 0.10081461E+03</pdfrwt>
<totfact> 0.88478804E+03</totfact>
</mgrwt>
</event>
<event>
 8    1  0.3400573E-004  0.1221413E+03  0.7546771E-02  0.1239827E+00
          1   -1    0    0  501    0  0.00000000000E+00  0.00000000000E+00  0.38490412146E+03  0.38490412146E+03  0.00000000000E+00 0. -1.
         -1   -1    0    0    0  501 -0.00000000000E+00 -0.00000000000E+00 -0.76691167211E+02  0.76691167211E+02  0.00000000000E+00 0.  1.
         23    2    1    2    0    0  0.79760407742E+02 -0.70803825806E+01 -0.87538494385E+01  0.12190948627E+03  0.91506494312E+02 0.  0.
         23    2    1    2    0    0 -0.79760407742E+02  0.70803825806E+01  0.31696680368E+03  0.33968580240E+03  0.92231422267E+02 0.  0.
          5    1    4    4  502    0 -0.16528410216E+02 -0.20700955385E+02  0.21355084854E+03  0.21523887384E+03  0.47000000000E+01 0. -1.
         -5    1    3    3    0  503  0.29292946489E+02  0.21171965784E+02 -0.41537485248E+02  0.55261030843E+02  0.47000000000E+01 0.  1.
          5    1    3    3  503    0  0.50467461254E+02 -0.28252348364E+02  0.32783635810E+02  0.66648455424E+02  0.47000000000E+01 0. -1.
         -5    1    4    4    0  502 -0.63231997526E+02  0.27781337966E+02  0.10341595514E+03  0.12444692856E+03  0.47000000000E+01 0.  1.
<mgrwt>
<rscale>  0 0.12200442E+03</rscale>
<asrwt>0</asrwt>
<pdfrwt beam="1">  1        1 0.59216018E-01 0.12214127E+03</pdfrwt>
<pdfrwt beam="2">  1       -1 0.11798641E-01 0.12214127E+03</pdfrwt>
<totfact> 0.28990808E+03</totfact>
</mgrwt>
</event>
<event>
 8    1  0.3400573E-004  0.9075303E+02  0.7546771E-02  0.1301645E+00
         -2   -1    0    0    0  501 -0.00000000000E+00  0.00000000000E+00  0.13171261052E+02  0.13171261052E+02  0.00000000000E+00 0.  1.
          2   -1    0    0  501    0  0.00000000000E+00 -0.00000000000E+00 -0.74758676909E+03  0.74758676909E+03  0.00000000000E+00 0. -1.
         23    2    1    2    0    0 -0.14902867240E+01  0.10881667570E+02 -0.52363987307E+03  0.53127495638E+03  0.89071493547E+02 0.  0.
         23    2    1    2    0    0  0.14902867240E+01 -0.10881667570E+02 -0.21077563496E+03  0.22948307376E+03  0.90085965633E+02 0.  0.
          5    1    4    4  502    0  0.45790374885E+01  0.22059951658E+02 -0.18714287809E+03  0.18855279333E+03  0.47000000000E+01 0. -1.
         -5    1    4    4    0  502 -0.30887507645E+01 -0.32941619229E+02 -0.23632756870E+02  0.40930280429E+02  0.47000000000E+01 0.  1.
          5    1    3    3  503    0  0.40730527967E+02 -0.45691582061E-01 -0.34028405090E+03  0.34274524548E+03  0.47000000000E+01 0. -1.
         -5    1    3    3    0  503 -0.42220814691E+02  0.10927359152E+02 -0.18335582217E+03  0.18852971090E+03  0.47000000000E+01 0.  1.
<mgrwt>
<rscale>  0 0.90500245E+02</rscale>
<asrwt>0</asrwt>
<pdfrwt beam="1">  1        2 0.11501335E+00 0.90753032E+02</pdfrwt>
<pdfrwt beam="2">  1       -2 0.20263478E-02 0.90753032E+02</pdfrwt>
<totfact> 0.26609483E+04</totfact>
</mgrwt>
</event>
<event>
 8    1  0.3400573E-004  0.1172660E+03  0.7546771E-02  0.1248330E+00
          1   -1    0    0  501    0  0.00000000000E+00  0.00000000000E+00  0.12529821160E+03  0.12529821160E+03  0.00000000000E+00 0. -1.
         -1   -1    0    0    0  501 -0.00000000000E+00 -0.00000000000E+00 -0.13493141976E+03  0.13493141976E+03  0.00000000000E+00 0.  1.
         23    2    1    2    0    0 -0.72887782837E+02  0.97551603267E+00  0.52934508934E+02  0.12865995172E+03  0.91857174033E+02 0.  0.
         23    2    1    2    0    0  0.72887782837E+02 -0.97551603267E+00 -0.62567717096E+02  0.13156967965E+03  0.89901506449E+02 0.  0.
          5    1    3    3  502    0 -0.26494834742E+02  0.76460470384E+01  0.72457081101E+02  0.77669536531E+02  0.47000000000E+01 0. -1.
         -5    1    3    3    0  502 -0.46392948095E+02 -0.66705310058E+01 -0.19522572167E+02  0.50990415186E+02  0.47000000000E+01 0.  1.
          5    1    4    4  503    0  0.54865575995E+02  0.31526635574E+02 -0.68801326574E+02  0.93594191691E+02  0.47000000000E+01 0.  1.
         -5    1    4    4    0  503  0.18022206842E+02 -0.32502151606E+02  0.62336094780E+01  0.37975487958E+02  0.47000000000E+01 0. -1.
<mgrwt>
<rscale>  0 0.11688277E+03</rscale>
<asrwt>0</asrwt>
<pdfrwt beam="1">  1        1 0.19276648E-01 0.11726603E+03</pdfrwt>
<pdfrwt beam="2">  1       -1 0.20758680E-01 0.11726603E+03</pdfrwt>
<totfact> 0.48101545E+03</totfact>
</mgrwt>
</event>
<event>
 8    1  0.3400573E-004  0.1166299E+03  0.7546771E-02  0.1251456E+00
          1   -1    0    0  501    0  0.00000000000E+00  0.00000000000E+00  0.13906995996E+03  0.13906995996E+03  0.00000000000E+00 0. -1.
         -1   -1    0    0    0  501 -0.00000000000E+00 -0.00000000000E+00 -0.13019560038E+03  0.13019560038E+03  0.00000000000E+00 0.  1.
         23    2    1    2    0    0 -0.70247288206E+02 -0.41157904772E+01 -0.67827530262E+02  0.12967428991E+03  0.85224564356E+02 0.  0.
         23    2    1    2    0    0  0.70247288206E+02  0.41157904772E+01  0.76701889844E+02  0.13959127044E+03  0.93010330856E+02 0.  0.
          5    1    3    3  502    0 -0.20503615047E+02 -0.22382798484E+02  0.12636295276E+02  0.33213760044E+02  0.47000000000E+01 0. -1.
         -5    1    4    4    0  503  0.57282256476E+01 -0.34704796975E+02  0.56077468836E+01  0.35927320068E+02  0.47000000000E+01 0.  1.
          5    1    4    4  503    0  0.64519062559E+02  0.38820587452E+02  0.71094142961E+02  0.10366395037E+03  0.47000000000E+01 0. -1.
         -5    1    3    3    0  502 -0.49743673160E+02  0.18267008007E+02 -0.80463825539E+02  0.96460529862E+02  0.47000000000E+01 0.  1.
<mgrwt>
<rscale>  0 0.11507170E+03</rscale>
<asrwt>0</asrwt>
<pdfrwt beam="1">  1        1 0.21395378E-01 0.11662994E+03</pdfrwt>
<pdfrwt beam="2">  1       -1 0.20030092E-01 0.11662994E+03</pdfrwt>
<totfact> 0.44629243E+03</totfact>
</mgrwt>
</event>
<event>
 8    1  0.3400573E-004  0.1097087E+03  0.7546771E-02  0.1262795E+00
          2   -1    0    0  501    0  0.00000000000E+00  0.00000000000E+00  0.22001388438E+02  0.22001388438E+02  0.00000000000E+00 0. -1.
         -2   -1    0    0    0  501 -0.00000000000E+00 -0.00000000000E+00 -0.87285536631E+03  0.87285536631E+03  0.00000000000E+00 0.  1.
         23    2    1    2    0    0  0.50308787981E+02 -0.20845980456E+02 -0.14054250457E+03  0.17612287453E+03  0.91112799834E+02 0.  0.
         23    2    1    2    0    0 -0.50308787981E+02  0.20845980456E+02 -0.71031147330E+03  0.71873388022E+03  0.95239027805E+02 0.  0.
          5    1    3    3  502    0 -0.44011724715E+01 -0.45107946924E+02 -0.69601698711E+02  0.83190045428E+02  0.47000000000E+01 0.  1.
         -5    1    4    4    0  503 -0.55453209539E+02  0.52929114867E+02 -0.50957662539E+03  0.51533190934E+03  0.47000000000E+01 0.  1.
          5    1    4    4  503    0  0.51444215580E+01 -0.32083134411E+02 -0.20073484792E+03  0.20340197088E+03  0.47000000000E+01 0. -1.
         -5    1    3    3    0  502  0.54709960452E+02  0.24261966468E+02 -0.70940805861E+02  0.92932829106E+02  0.47000000000E+01 0. -1.
<mgrwt>
<rscale>  0 0.10880710E+03</rscale>
<asrwt>0</asrwt>
<pdfrwt beam="1">  1        2 0.33848295E-02 0.10970871E+03</pdfrwt>
<pdfrwt beam="2">  1       -2 0.13428542E+00 0.10970871E+03</pdfrwt>
<totfact> 0.10677630E+03</totfact>
</mgrwt>
</event>
<event>
 8    1  0.3400573E-004  0.9488005E+02  0.7546771E-02  0.1293130E+00
          2   -1    0    0  501    0  0.00000000000E+00  0.00000000000E+00  0.62235917827E+03  0.62235917827E+03  0.00000000000E+00 0. -1.
         -2   -1    0    0    0  501 -0.00000000000E+00 -0.00000000000E+00 -0.50871994574E+02  0.50871994574E+02  0.00000000000E+00 0.  1.
         23    2    1    2    0    0  0.10006161725E+02 -0.20004858630E+02  0.49273621650E+00  0.94881330803E+02  0.92205783467E+02 0.  0.
         23    2    1    2    0    0 -0.10006161725E+02  0.20004858630E+02  0.57099444748E+03  0.57834984205E+03  0.89182751112E+02 0.  0.
          5    1    3    3  502    0  0.30245346293E+02  0.16591106223E+02  0.27938333987E+02  0.44639514828E+02  0.47000000000E+01 0. -1.
         -5    1    4    4    0  503  0.30494054906E+02 -0.16303231356E+02  0.29077576550E+03  0.29286228596E+03  0.47000000000E+01 0.  1.
          5    1    4    4  503    0 -0.40500216630E+02  0.36308089986E+02  0.28021868199E+03  0.28548755608E+03  0.47000000000E+01 0. -1.
         -5    1    3    3    0  502 -0.20239184569E+02 -0.36595964853E+02 -0.27445597771E+02  0.50241815975E+02  0.47000000000E+01 0.  1.
<mgrwt>
<rscale>  0 0.94137616E+02</rscale>
<asrwt>0</asrwt>
<pdfrwt beam="1">  1        2 0.95747561E-01 0.94880051E+02</pdfrwt>
<pdfrwt beam="2">  1       -2 0.78264611E-02 0.94880051E+02</pdfrwt>
<totfact> 0.45025194E+03</totfact>
</mgrwt>
</event>
<event>
 8    1  0.3400573E-004  0.1138745E+03  0.7546771E-02  0.1254168E+00
          4   -1    0    0  501    0  0.00000000000E+00  0.00000000000E+00  0.11450694300E+03  0.11450694300E+03  0.00000000000E+00 0. -1.
         -4   -1    0    0    0  501 -0.00000000000E+00 -0.00000000000E+00 -0.14950242715E+03  0.14950242715E+03  0.00000000000E+00 0.  1.
         23    2    1    2    0    0 -0.66103191905E+02  0.96093551254E+01  0.48794457835E+02  0.12262990581E+03  0.90527470951E+02 0.  0.
         23    2    1    2    0    0  0.66103191905E+02 -0.96093551254E+01 -0.83789941991E+02  0.14137946434E+03  0.92224871223E+02 0.  0.
          5    1    3    3  502    0  0.21451558810E+02 -0.59205512660E+01  0.45379485679E+01  0.23192785083E+02  0.47000000000E+01 0. -1.
         -5    1    3    3    0  502 -0.87554750715E+02  0.15529906391E+02  0.44256509267E+02  0.99437120724E+02  0.47000000000E+01 0.  1.
          5    1    4    4  503    0  0.56487148479E+02 -0.41545523967E+02 -0.81505615675E+02  0.10762009056E+03  0.47000000000E+01 0. -1.
         -5    1    4    4    0  503  0.96160434259E+01  0.31936168841E+02 -0.22843263160E+01  0.33759373782E+02  0.47000000000E+01 0.  1.
<mgrwt>
<rscale>  0 0.11353036E+03</rscale>
<asrwt>0</asrwt>
<pdfrwt beam="1">  1        4 0.17616453E-01 0.11387449E+03</pdfrwt>
<pdfrwt beam="2">  1       -4 0.23000373E-01 0.11387449E+03</pdfrwt>
<totfact> 0.78912541E+02</totfact>
</mgrwt>
</event>
<event>
 8    1  0.3400573E-004  0.1074649E+03  0.7546771E-02  0.1266517E+00
         -1   -1    0    0    0  501 -0.00000000000E+00  0.00000000000E+00  0.17466172899E+03  0.17466172899E+03  0.00000000000E+00 0.  1.
          1   -1    0    0  501    0  0.00000000000E+00 -0.00000000000E+00 -0.64891568824E+02  0.64891568824E+02  0.00000000000E+00 0. -1.
         23    2    1    2    0    0  0.44647383110E+02 -0.28727842894E+02  0.46632361005E+02  0.11491343558E+03  0.90619218754E+02 0.  0.
         23    2    1    2    0    0 -0.44647383110E+02  0.28727842894E+02  0.63137799164E+02  0.12463986224E+03  0.93434660590E+02 0.  0.
          5    1    3    3  502    0  0.56605285330E+02 -0.45056908003E+01  0.61404949426E+02  0.83768236169E+02  0.47000000000E+01 0. -1.
         -5    1    4    4    0  503 -0.51175520139E+02  0.57002687779E+02  0.36567859788E+02  0.85014931895E+02  0.47000000000E+01 0.  1.
          5    1    4    4  503    0  0.65281370291E+01 -0.28274844885E+02  0.26569939376E+02  0.39624930344E+02  0.47000000000E+01 0. -1.
         -5    1    3    3    0  502 -0.11957902220E+02 -0.24222152094E+02 -0.14772588420E+02  0.31145199409E+02  0.47000000000E+01 0.  1.
<mgrwt>
<rscale>  0 0.10685002E+03</rscale>
<asrwt>0</asrwt>
<pdfrwt beam="1">  1        1 0.99833184E-02 0.10746494E+03</pdfrwt>
<pdfrwt beam="2">  1       -1 0.26871035E-01 0.10746494E+03</pdfrwt>
<totfact> 0.73582814E+03</totfact>
</mgrwt>
</event>
<event>
 8    1  0.3400573E-004  0.9656851E+02  0.7546771E-02  0.1288503E+00
         -4   -1    0    0    0  501 -0.00000000000E+00  0.00000000000E+00  0.28356569580E+03  0.28356569580E+03  0.00000000000E+00 0.  1.
          4   -1    0    0  501    0  0.00000000000E+00 -0.00000000000E+00 -0.17651850945E+03  0.17651850945E+03  0.00000000000E+00 0. -1.
         23    2    1    2    0    0  0.22854020725E+02  0.68008180725E+01  0.26146947786E+03  0.27873242650E+03  0.93578418153E+02 0.  0.
         23    2    1    2    0    0 -0.22854020725E+02 -0.68008180725E+01 -0.15442229151E+03  0.18135177875E+03  0.92052518429E+02 0.  0.
          5    1    3    3  502    0 -0.11807376621E+02  0.43554065557E+02  0.10992771790E+03  0.11892251230E+03  0.47000000000E+01 0. -1.
         -5    1    3    3    0  502  0.34661397345E+02 -0.36753247485E+02  0.15154175995E+03  0.15980991420E+03  0.47000000000E+01 0.  1.
          5    1    4    4  503    0  0.23074032437E+02 -0.19118823848E+02 -0.11639973869E+03  0.12028686364E+03  0.47000000000E+01 0. -1.
         -5    1    4    4    0  503 -0.45928053161E+02  0.12318005776E+02 -0.38022552822E+02  0.61064915104E+02  0.47000000000E+01 0.  1.
<mgrwt>
<rscale>  0 0.96196897E+02</rscale>
<asrwt>0</asrwt>
<pdfrwt beam="1">  1        4 0.27156694E-01 0.96568513E+02</pdfrwt>
<pdfrwt beam="2">  1       -4 0.43625492E-01 0.96568513E+02</pdfrwt>
<totfact> 0.10369419E+02</totfact>
</mgrwt>
</event>
<event>
 8    1  0.3400573E-004  0.1197792E+03  0.7546771E-02  0.1244595E+00
         -1   -1    0    0    0  501 -0.00000000000E+00  0.00000000000E+00  0.27591270178E+03  0.27591270178E+03  0.00000000000E+00 0.  1.
          1   -1    0    0  501    0  0.00000000000E+00 -0.00000000000E+00 -0.51404765575E+02  0.51404765575E+02  0.00000000000E+00 0. -1.
         23    2    1    2    0    0  0.63468243587E+02  0.37137287241E+02  0.96214169123E+02  0.15363662485E+03  0.94549722936E+02 0.  0.
         23    2    1    2    0    0 -0.63468243587E+02 -0.37137287241E+02  0.12829376709E+03  0.17368084251E+03  0.91095270647E+02 0.  0.
          5    1    4    4  502    0  0.96332922815E+00 -0.35120505261E+02  0.94108938082E+02  0.10056321455E+03  0.47000000000E+01 0. -1.
         -5    1    4    4    0  502 -0.64431572816E+02 -0.20167819804E+01  0.34184829004E+02  0.73117627964E+02  0.47000000000E+01 0.  1.
          5    1    3    3  503    0  0.72512517593E+02  0.69079822997E+01  0.27721700460E+02  0.78079242462E+02  0.47000000000E+01 0. -1.
         -5    1    3    3    0  503 -0.90442740055E+01  0.30229304941E+02  0.68492468663E+02  0.75557382387E+02  0.47000000000E+01 0.  1.
<mgrwt>
<rscale>  0 0.11909644E+03</rscale>
<asrwt>0</asrwt>
<pdfrwt beam="1">  1        1 0.79084256E-02 0.11977916E+03</pdfrwt>
<pdfrwt beam="2">  1       -1 0.42448107E-01 0.11977916E+03</pdfrwt>
<totfact> 0.46419883E+03</totfact>
</mgrwt>
</event>
<event>
 8    1  0.3400573E-004  0.9802160E+02  0.7546771E-02  0.1284978E+00
         -3   -1    0    0    0  501 -0.00000000000E+00  0.00000000000E+00  0.69962628850E+03  0.69962628850E+03  0.00000000000E+00 0.  1.
          3   -1    0    0  501    0  0.00000000000E+00 -0.00000000000E+00 -0.13613318509E+02  0.13613318509E+02  0.00000000000E+00 0. -1.
         23    2    1    2    0    0  0.28633371642E+02 -0.20654145624E+02  0.34123687107E+03  0.35480022221E+03  0.90521443853E+02 0.  0.
         23    2    1    2    0    0 -0.28633371642E+02  0.20654145624E+02  0.34477609892E+03  0.35843938480E+03  0.91442716971E+02 0.  0.
          5    1    4    4  502    0 -0.52205746695E+02  0.29779367140E+02  0.14525237932E+03  0.15726599885E+03  0.47000000000E+01 0. -1.
         -5    1    4    4    0  502  0.23572375053E+02 -0.91252215163E+01  0.19952371959E+03  0.20117338595E+03  0.47000000000E+01 0.  1.
          5    1    3    3  503    0  0.54932314050E+02  0.88649088268E+01  0.22903620409E+03  0.23574524071E+03  0.47000000000E+01 0. -1.
         -5    1    3    3    0  503 -0.26298942408E+02 -0.29519054451E+02  0.11220066699E+03  0.11905498150E+03  0.47000000000E+01 0.  1.
<mgrwt>
<rscale>  0 0.97806173E+02</rscale>
<asrwt>0</asrwt>
<pdfrwt beam="1">  1        3 0.20943572E-02 0.98021601E+02</pdfrwt>
<pdfrwt beam="2">  1       -3 0.10763479E+00 0.98021601E+02</pdfrwt>
<totfact> 0.14728325E+03</totfact>
</mgrwt>
</event>
<event>
 8    1  0.3400573E-004  0.3258433E+03  0.7546771E-02  0.1073409E+00
         -2   -1    0    0    0  501 -0.00000000000E+00  0.00000000000E+00  0.24198502275E+03  0.24198502275E+03  0.00000000000E+00 0.  1.
          2   -1    0    0  501    0  0.00000000000E+00 -0.00000000000E+00 -0.50219947079E+03  0.50219947079E+03  0.00000000000E+00 0. -1.
         23    2    1    2    0    0  0.27039947601E+03 -0.15657411797E+03 -0.26678777853E+03  0.41827490883E+03  0.78401846529E+02 0.  0.
         23    2    1    2    0    0 -0.27039947601E+03  0.15657411797E+03  0.65733304884E+01  0.32590958471E+03  0.92425741486E+02 0.  0.
          5    1    4    4  502    0 -0.16120960057E+03  0.96613402879E+02 -0.41106568207E+02  0.19244356285E+03  0.47000000000E+01 0. -1.
         -5    1    3    3    0  503  0.14480527922E+03 -0.44346523209E+02 -0.10241459444E+03  0.18288253652E+03  0.47000000000E+01 0.  1.
          5    1    3    3  503    0  0.12559419679E+03 -0.11222759476E+03 -0.16437318409E+03  0.23539237231E+03  0.47000000000E+01 0. -1.
         -5    1    4    4    0  502 -0.10918987544E+03  0.59960715092E+02  0.47679898695E+02  0.13346602186E+03  0.47000000000E+01 0.  1.
<mgrwt>
<rscale>  0 0.32491506E+03</rscale>
<asrwt>0</asrwt>
<pdfrwt beam="1">  1        2 0.77261455E-01 0.32584329E+03</pdfrwt>
<pdfrwt beam="2">  1       -2 0.37228466E-01 0.32584329E+03</pdfrwt>
<totfact> 0.42499583E+02</totfact>
</mgrwt>
</event>
<event>
 8    1  0.3400573E-004  0.1609044E+03  0.7546771E-02  0.1187978E+00
          1   -1    0    0  501    0  0.00000000000E+00  0.00000000000E+00  0.99039989213E+03  0.99039989213E+03  0.00000000000E+00 0. -1.
         -1   -1    0    0    0  501 -0.00000000000E+00 -0.00000000000E+00 -0.29751702467E+02  0.29751702467E+02  0.00000000000E+00 0.  1.
         23    2    1    2    0    0  0.10177069850E+03 -0.85282363217E+02  0.29983413451E+03  0.34028037926E+03  0.90883836528E+02 0.  0.
         23    2    1    2    0    0 -0.10177069850E+03  0.85282363217E+02  0.66081405516E+03  0.67987121534E+03  0.88990434378E+02 0.  0.
          5    1    3    3  502    0  0.50979740798E+01 -0.51460000890E+02  0.59381805643E+02  0.78882253218E+02  0.47000000000E+01 0. -1.
         -5    1    4    4    0  503 -0.74257813636E+02  0.29123548957E+02  0.51473297703E+03  0.52089781304E+03  0.47000000000E+01 0. -1.
          5    1    4    4  503    0 -0.27512884861E+02  0.56158814260E+02  0.14608107813E+03  0.15897340230E+03  0.47000000000E+01 0.  1.
         -5    1    3    3    0  502  0.96672724417E+02 -0.33822362327E+02  0.24045232887E+03  0.26139812604E+03  0.47000000000E+01 0.  1.
<mgrwt>
<rscale>  0 0.16063829E+03</rscale>
<asrwt>0</asrwt>
<pdfrwt beam="1">  1        1 0.15236919E+00 0.16090441E+03</pdfrwt>
<pdfrwt beam="2">  1       -1 0.45771858E-02 0.16090441E+03</pdfrwt>
<totfact> 0.32284126E+03</totfact>
</mgrwt>
</event>
<event>
 8    1  0.3400573E-004  0.2158632E+03  0.7546771E-02  0.1137648E+00
         -1   -1    0    0    0  501 -0.00000000000E+00  0.00000000000E+00  0.34794192021E+03  0.34794192021E+03  0.00000000000E+00 0.  1.
          1   -1    0    0  501    0  0.00000000000E+00 -0.00000000000E+00 -0.20892728673E+03  0.20892728673E+03  0.00000000000E+00 0. -1.
         23    2    1    2    0    0  0.18378545536E+03 -0.55436759426E+02 -0.99255195681E+02  0.23758897168E+03  0.98724858549E+02 0.  0.
         23    2    1    2    0    0 -0.18378545536E+03  0.55436759426E+02  0.23826982916E+03  0.31928023526E+03  0.91197747989E+02 0.  0.
          5    1    3    3  502    0  0.11174660953E+03 -0.82127864122E+02 -0.59801807479E+02  0.15109810384E+03  0.47000000000E+01 0. -1.
         -5    1    4    4    0  503 -0.11398249257E+03  0.78929976808E+02  0.15471909885E+03  0.20780288593E+03  0.47000000000E+01 0.  1.
          5    1    4    4  503    0 -0.69802962794E+02 -0.23493217381E+02  0.83550730314E+02  0.11147734933E+03  0.47000000000E+01 0. -1.
         -5    1    3    3    0  502  0.72038845832E+02  0.26691104696E+02 -0.39453388202E+02  0.86490867837E+02  0.47000000000E+01 0.  1.
<mgrwt>
<rscale>  0 0.21502406E+03</rscale>
<asrwt>0</asrwt>
<pdfrwt beam="1">  1        1 0.32142659E-01 0.21586321E+03</pdfrwt>
<pdfrwt beam="2">  1       -1 0.53529526E-01 0.21586321E+03</pdfrwt>
<totfact> 0.50398422E+02</totfact>
</mgrwt>
</event>
<event>
 8    1  0.3400573E-004  0.1035797E+03  0.7546771E-02  0.1273937E+00
          3   -1    0    0  501    0  0.00000000000E+00  0.00000000000E+00  0.15871822322E+03  0.15871822322E+03  0.00000000000E+00 0. -1.
         -3   -1    0    0    0  501 -0.00000000000E+00 -0.00000000000E+00 -0.12117053214E+03  0.12117053214E+03  0.00000000000E+00 0.  1.
         23    2    1    2    0    0  0.86544974233E+01  0.48086895480E+02 -0.75474874433E+02  0.12658234634E+03  0.89103220428E+02 0.  0.
         23    2    1    2    0    0 -0.86544974233E+01 -0.48086895480E+02  0.11302256551E+03  0.15330640903E+03  0.91331839426E+02 0.  0.
          5    1    3    3  502    0  0.45639381810E+02  0.43606090340E+02 -0.39692261164E+02  0.74712849518E+02  0.47000000000E+01 0. -1.
         -5    1    4    4    0  503 -0.33482319764E+02  0.11455169160E+02  0.23037984092E+02  0.42486766743E+02  0.47000000000E+01 0.  1.
          5    1    4    4  503    0  0.24827822340E+02 -0.59542064640E+02  0.89984581419E+02  0.11081964229E+03  0.47000000000E+01 0. -1.
         -5    1    3    3    0  502 -0.36984884387E+02  0.44808051396E+01 -0.35782613269E+02  0.51869496818E+02  0.47000000000E+01 0.  1.
<mgrwt>
<rscale>  0 0.10308627E+03</rscale>
<asrwt>0</asrwt>
<pdfrwt beam="1">  1        3 0.24418188E-01 0.10357970E+03</pdfrwt>
<pdfrwt beam="2">  1       -3 0.18641620E-01 0.10357970E+03</pdfrwt>
<totfact> 0.87973132E+02</totfact>
</mgrwt>
</event>
<event>
 8    1  0.3400573E-004  0.1096506E+03  0.7546771E-02  0.1262769E+00
         -2   -1    0    0    0  501 -0.00000000000E+00  0.00000000000E+00  0.14493902667E+02  0.14493902667E+02  0.00000000000E+00 0.  1.
          2   -1    0    0  501    0  0.00000000000E+00 -0.00000000000E+00 -0.88222900653E+03  0.88222900653E+03  0.00000000000E+00 0. -1.
         23    2    1    2    0    0 -0.62277980872E+01  0.57629462132E+02 -0.57260248820E+03  0.58300674528E+03  0.93076931520E+02 0.  0.
         23    2    1    2    0    0  0.62277980872E+01 -0.57629462132E+02 -0.29513261567E+03  0.31371616392E+03  0.89188734137E+02 0.  0.
          5    1    3    3  502    0 -0.43172845561E+02  0.56449626890E+02 -0.41436458510E+03  0.42044090471E+03  0.47000000000E+01 0. -1.
         -5    1    4    4    0  503  0.10082683506E+02  0.20319153118E+02 -0.34086702768E+02  0.41213126498E+02  0.47000000000E+01 0.  1.
          5    1    4    4  503    0 -0.38548854189E+01 -0.77948615250E+02 -0.26104591290E+03  0.27250303742E+03  0.47000000000E+01 0. -1.
         -5    1    3    3    0  502  0.36945047473E+02  0.11798352419E+01 -0.15823790310E+03  0.16256584058E+03  0.47000000000E+01 0.  1.
<mgrwt>
<rscale>  0 0.10882108E+03</rscale>
<asrwt>0</asrwt>
<pdfrwt beam="1">  1        2 0.13572753E+00 0.10965061E+03</pdfrwt>
<pdfrwt beam="2">  1       -2 0.22298313E-02 0.10965061E+03</pdfrwt>
<totfact> 0.19217871E+04</totfact>
</mgrwt>
</event>
<event>
 8    1  0.3400573E-004  0.9616907E+02  0.7546771E-02  0.1289551E+00
         -2   -1    0    0    0  501 -0.00000000000E+00  0.00000000000E+00  0.10845178827E+03  0.10845178827E+03  0.00000000000E+00 0.  1.
          2   -1    0    0  501    0  0.00000000000E+00 -0.00000000000E+00 -0.91777779101E+02  0.91777779101E+02  0.00000000000E+00 0. -1.
         23    2    1    2    0    0 -0.25058883557E+02  0.77289394332E+01 -0.21396021594E+02  0.96799314768E+02  0.90689764856E+02 0.  0.
         23    2    1    2    0    0  0.25058883557E+02 -0.77289394332E+01  0.38070030760E+02  0.10343025260E+03  0.92524622458E+02 0.  0.
          5    1    3    3  502    0 -0.43925096239E+02 -0.28343325985E+02 -0.18751303231E+02  0.55735622185E+02  0.47000000000E+01 0. -1.
         -5    1    4    4    0  503  0.58631671094E+02  0.13285755183E+01  0.34390287114E+02  0.68148512940E+02  0.47000000000E+01 0.  1.
          5    1    4    4  503    0 -0.33572787537E+02 -0.90575149515E+01  0.36797436460E+01  0.35281739660E+02  0.47000000000E+01 0. -1.
         -5    1    3    3    0  502  0.18866212682E+02  0.36072265418E+02 -0.26447183628E+01  0.41063692583E+02  0.47000000000E+01 0.  1.
<mgrwt>
<rscale>  0 0.95725004E+02</rscale>
<asrwt>0</asrwt>
<pdfrwt beam="1">  1        2 0.14119658E-01 0.96169069E+02</pdfrwt>
<pdfrwt beam="2">  1       -2 0.16684891E-01 0.96169069E+02</pdfrwt>
<totfact> 0.10901076E+04</totfact>
</mgrwt>
</event>
<event>
 8    1  0.3400573E-004  0.9631869E+02  0.7546771E-02  0.1290787E+00
         -1   -1    0    0    0  501 -0.00000000000E+00  0.00000000000E+00  0.24942808072E+02  0.24942808072E+02  0.00000000000E+00 0.  1.
          1   -1    0    0  501    0  0.00000000000E+00 -0.00000000000E+00 -0.35494608387E+03  0.35494608387E+03  0.00000000000E+00 0. -1.
         23    2    1    2    0    0 -0.16820868448E+02  0.23550324451E+02 -0.15672707212E+03  0.18164174055E+03  0.87136601817E+02 0.  0.
         23    2    1    2    0    0  0.16820868448E+02 -0.23550324451E+02 -0.17327620368E+03  0.19824715139E+03  0.91868007915E+02 0.  0.
          5    1    4    4  502    0  0.38794835520E+02 -0.45813031271E+02 -0.82651317936E+02  0.10226046868E+03  0.47000000000E+01 0. -1.
         -5    1    4    4    0  502 -0.21973967072E+02  0.22262706820E+02 -0.90624885741E+02  0.95986682719E+02  0.47000000000E+01 0.  1.
          5    1    3    3  503    0  0.27560327723E+02 -0.10252628688E+01 -0.10644204466E+03  0.11005735641E+03  0.47000000000E+01 0. -1.
         -5    1    3    3    0  503 -0.44381196170E+02  0.24575587320E+02 -0.50285027457E+02  0.71584384134E+02  0.47000000000E+01 0.  1.
<mgrwt>
<rscale>  0 0.95172967E+02</rscale>
<asrwt>0</asrwt>
<pdfrwt beam="1">  1        1 0.54607090E-01 0.96318691E+02</pdfrwt>
<pdfrwt beam="2">  1       -1 0.38373551E-02 0.96318691E+02</pdfrwt>
<totfact> 0.16811858E+04</totfact>
</mgrwt>
</event>
<event>
 8    1  0.3400573E-004  0.9250091E+02  0.7546771E-02  0.1297654E+00
          1   -1    0    0  501    0  0.00000000000E+00  0.00000000000E+00  0.19903420533E+02  0.19903420533E+02  0.00000000000E+00 0. -1.
         -1   -1    0    0    0  501 -0.00000000000E+00 -0.00000000000E+00 -0.43818253147E+03  0.43818253147E+03  0.00000000000E+00 0.  1.
         23    2    1    2    0    0  0.93408895007E+01  0.51452707814E+01 -0.24893337147E+03  0.26512378639E+03  0.90603932865E+02 0.  0.
         23    2    1    2    0    0 -0.93408895007E+01 -0.51452707814E+01 -0.16934573947E+03  0.19296216561E+03  0.91884121883E+02 0.  0.
          5    1    4    4  502    0 -0.40511237987E+02 -0.96604017502E+01 -0.34138905630E+02  0.54055884442E+02  0.47000000000E+01 0. -1.
         -5    1    4    4    0  502  0.31170348486E+02  0.45151309688E+01 -0.13520683384E+03  0.13890628117E+03  0.47000000000E+01 0.  1.
          5    1    3    3  503    0 -0.85073871489E+00 -0.26519826483E+02 -0.19545251540E+02  0.33288613831E+02  0.47000000000E+01 0. -1.
         -5    1    3    3    0  503  0.10191628216E+02  0.31665097264E+02 -0.22938811993E+03  0.23183517256E+03  0.47000000000E+01 0.  1.
<mgrwt>
<rscale>  0 0.92181372E+02</rscale>
<asrwt>0</asrwt>
<pdfrwt beam="1">  1        1 0.30620648E-02 0.92500907E+02</pdfrwt>
<pdfrwt beam="2">  1       -1 0.67412695E-01 0.92500907E+02</pdfrwt>
<totfact> 0.70195729E+03</totfact>
</mgrwt>
</event>
<event>
 8    1  0.3400573E-004  0.9391098E+02  0.7546771E-02  0.1295156E+00
          2   -1    0    0  501    0  0.00000000000E+00  0.00000000000E+00  0.47877444425E+03  0.47877444425E+03  0.00000000000E+00 0. -1.
         -2   -1    0    0    0  501 -0.00000000000E+00 -0.00000000000E+00 -0.26442421662E+02  0.26442421662E+02  0.00000000000E+00 0.  1.
         23    2    1    2    0    0 -0.75701810054E+01 -0.12236406734E+02  0.37176005889E+03  0.38343814839E+03  0.92802127996E+02 0.  0.
         23    2    1    2    0    0  0.75701810054E+01  0.12236406734E+02  0.80571963697E+02  0.12177871753E+03  0.90173041527E+02 0.  0.
          5    1    4    4  502    0 -0.26022980800E+02  0.13565207916E+02 -0.46155704382E+01  0.30076633555E+02  0.47000000000E+01 0. -1.
         -5    1    3    3    0  503  0.25387141443E+02 -0.17924638406E+02  0.44729265631E+02  0.54668060296E+02  0.47000000000E+01 0.  1.
          5    1    3    3  503    0 -0.32957322448E+02  0.56882316712E+01  0.32703079326E+03  0.32877008809E+03  0.47000000000E+01 0. -1.
         -5    1    4    4    0  502  0.33593161806E+02 -0.13288011818E+01  0.85187534136E+02  0.91702083972E+02  0.47000000000E+01 0.  1.
<mgrwt>
<rscale>  0 0.93254847E+02</rscale>
<asrwt>0</asrwt>
<pdfrwt beam="1">  1        2 0.73657600E-01 0.93910980E+02</pdfrwt>
<pdfrwt beam="2">  1       -2 0.40680652E-02 0.93910980E+02</pdfrwt>
<totfact> 0.15999634E+04</totfact>
</mgrwt>
</event>
<event>
 8    1  0.3400573E-004  0.9416534E+02  0.7546771E-02  0.1294800E+00
         -1   -1    0    0    0  501 -0.00000000000E+00  0.00000000000E+00  0.72070197079E+02  0.72070197079E+02  0.00000000000E+00 0.  1.
          1   -1    0    0  501    0  0.00000000000E+00 -0.00000000000E+00 -0.15497709521E+03  0.15497709521E+03  0.00000000000E+00 0. -1.
         23    2    1    2    0    0 -0.12168367294E+01 -0.11080391209E+02  0.13630655464E+02  0.92189549880E+02  0.90492334359E+02 0.  0.
         23    2    1    2    0    0  0.12168367294E+01  0.11080391209E+02 -0.96537553591E+02  0.13485774241E+03  0.93503238834E+02 0.  0.
          5    1    3    3  502    0  0.35617668101E+02  0.15953195460E+01 -0.19435359444E+02  0.40877702016E+02  0.47000000000E+01 0. -1.
         -5    1    3    3    0  502 -0.36834504831E+02 -0.12675710755E+02  0.33066014909E+02  0.51311847864E+02  0.47000000000E+01 0.  1.
          5    1    4    4  503    0  0.35597496350E+02  0.32928243663E+02 -0.31642073770E+02  0.58092700140E+02  0.47000000000E+01 0. -1.
         -5    1    4    4    0  503 -0.34380659620E+02 -0.21847852454E+02 -0.64895479821E+02  0.76765042265E+02  0.47000000000E+01 0.  1.
<mgrwt>
<rscale>  0 0.93409018E+02</rscale>
<asrwt>0</asrwt>
<pdfrwt beam="1">  1        1 0.23842630E-01 0.94165341E+02</pdfrwt>
<pdfrwt beam="2">  1       -1 0.11087723E-01 0.94165341E+02</pdfrwt>
<totfact> 0.96287850E+03</totfact>
</mgrwt>
</event>
<event>
 8    1  0.3400573E-004  0.1603232E+03  0.7546771E-02  0.1188642E+00
          1   -1    0    0  501    0  0.00000000000E+00  0.00000000000E+00  0.39226845121E+03  0.39226845121E+03  0.00000000000E+00 0. -1.
         -1   -1    0    0    0  501 -0.00000000000E+00 -0.00000000000E+00 -0.65320045702E+02  0.65320045702E+02  0.00000000000E+00 0.  1.
         23    2    1    2    0    0  0.92859163373E+02  0.92326683345E+02  0.17796860040E+03  0.23953357923E+03  0.92501200910E+02 0.  0.
         23    2    1    2    0    0 -0.92859163373E+02 -0.92326683345E+02  0.14897980511E+03  0.21805491768E+03  0.90586555936E+02 0.  0.
          5    1    4    4  502    0 -0.11604360772E+02 -0.31647593359E+02  0.99418757465E+02  0.10508287534E+03  0.47000000000E+01 0. -1.
         -5    1    4    4    0  502 -0.81254802601E+02 -0.60679089986E+02  0.49561047640E+02  0.11297204234E+03  0.47000000000E+01 0.  1.
          5    1    3    3  503    0 -0.80017278555E+01  0.44259741552E+02  0.74672514433E+02  0.87298492442E+02  0.47000000000E+01 0. -1.
         -5    1    3    3    0  503  0.10086089123E+03  0.48066941793E+02  0.10329608597E+03  0.15223508679E+03  0.47000000000E+01 0.  1.
<mgrwt>
<rscale>  0 0.16004819E+03</rscale>
<asrwt>0</asrwt>
<pdfrwt beam="1">  1        1 0.60348991E-01 0.16032315E+03</pdfrwt>
<pdfrwt beam="2">  1       -1 0.10049238E-01 0.16032315E+03</pdfrwt>
<totfact> 0.36647006E+03</totfact>
</mgrwt>
</event>
<event>
 8    1  0.4819793E-004  0.1194332E+03  0.7546771E-02  0.1247955E+00
         -1   -1    0    0    0  501 -0.00000000000E+00  0.00000000000E+00  0.45111538791E+02  0.45111538791E+02  0.00000000000E+00 0.  1.
          1   -1    0    0  501    0  0.00000000000E+00 -0.00000000000E+00 -0.63787596359E+03  0.63787596359E+03  0.00000000000E+00 0. -1.
         23    2    1    2    0    0  0.44331252744E+02 -0.42054441035E+02 -0.55286345231E+03  0.56561673780E+03  0.10261803543E+03 0.  0.
         23    2    1    2    0    0 -0.44331252744E+02  0.42054441035E+02 -0.39900972487E+02  0.11737076458E+03  0.91923733564E+02 0.  0.
          5    1    4    4  502    0  0.23088920223E+02 -0.89654452905E+01 -0.45942347111E+01  0.25625659775E+02  0.47000000000E+01 0. -1.
         -5    1    3    3    0  503  0.74608474229E+01  0.29965488297E+02 -0.80438617920E+02  0.86290532424E+02  0.47000000000E+01 0.  1.
          5    1    3    3  503    0  0.36870405321E+02 -0.72019929332E+02 -0.47242483440E+03  0.47932620538E+03  0.47000000000E+01 0. -1.
         -5    1    4    4    0  502 -0.67420172967E+02  0.51019886326E+02 -0.35306737776E+02  0.91745104807E+02  0.47000000000E+01 0.  1.
<mgrwt>
<rscale>  0 0.11710266E+03</rscale>
<asrwt>0</asrwt>
<pdfrwt beam="1">  1        1 0.98134766E-01 0.11943323E+03</pdfrwt>
<pdfrwt beam="2">  1       -1 0.69402366E-02 0.11943323E+03</pdfrwt>
<totfact> 0.33497768E+03</totfact>
</mgrwt>
</event>
<event>
 7    1  0.3400573E-004  0.1338017E+03  0.7546771E-02  0.1235906E+00
          1   -1    0    0  501    0  0.00000000000E+00  0.00000000000E+00  0.43102040100E+03  0.43102040100E+03  0.00000000000E+00 0. -1.
         -1   -1    0    0    0  501 -0.00000000000E+00 -0.00000000000E+00 -0.37862174278E+02  0.37862174278E+02  0.00000000000E+00 0.  1.
         23    2    1    2    0    0  0.23137210733E+02  0.15176341361E+02  0.26621697793E+03  0.28444564188E+03  0.96292221856E+02 0.  0.
          5    1    1    2  502    0 -0.60721346274E+02  0.34787473671E+02  0.78016930730E+02  0.10490939757E+03  0.47000000000E+01 0. -1.
         -5    1    1    2    0  502  0.37584135540E+02 -0.49963815032E+02  0.48924318063E+02  0.79527535827E+02  0.47000000000E+01 0.  1.
          5    1    3    3  503    0 -0.33285411135E+02  0.22151286599E+02  0.78039943991E+02  0.87811849716E+02  0.47000000000E+01 0. -1.
         -5    1    3    3    0  503  0.56422621868E+02 -0.69749452388E+01  0.18817703393E+03  0.19663379216E+03  0.47000000000E+01 0.  1.
<mgrwt>
<rscale>  0 0.12446617E+03</rscale>
<asrwt>0</asrwt>
<pdfrwt beam="1">  1        1 0.66310827E-01 0.13380173E+03</pdfrwt>
<pdfrwt beam="2">  1       -1 0.58249502E-02 0.13380173E+03</pdfrwt>
<totfact> 0.73333172E+03</totfact>
</mgrwt>
</event>
<event>
 8    1  0.3400573E-004  0.1040693E+03  0.7546771E-02  0.1271965E+00
         -2   -1    0    0    0  501 -0.00000000000E+00  0.00000000000E+00  0.67240493720E+02  0.67240493720E+02  0.00000000000E+00 0.  1.
          2   -1    0    0  501    0  0.00000000000E+00 -0.00000000000E+00 -0.17042513726E+03  0.17042513726E+03  0.00000000000E+00 0. -1.
         23    2    1    2    0    0  0.46208958662E+02  0.23189658143E+02 -0.23747854849E+02  0.10674340887E+03  0.90317033948E+02 0.  0.
         23    2    1    2    0    0 -0.46208958662E+02 -0.23189658143E+02 -0.79436788696E+02  0.13092222212E+03  0.90318307892E+02 0.  0.
          5    1    4    4  502    0 -0.37400580259E+02  0.99726979069E+01 -0.87119979694E+02  0.95447571834E+02  0.47000000000E+01 0. -1.
         -5    1    3    3    0  503  0.52378316232E+02  0.51444813390E+02 -0.95502691552E+01  0.74184597303E+02  0.47000000000E+01 0.  1.
          5    1    3    3  503    0 -0.61693575703E+01 -0.28255155248E+02 -0.14197585694E+02  0.32558811564E+02  0.47000000000E+01 0. -1.
         -5    1    4    4    0  502 -0.88083784030E+01 -0.33162356049E+02  0.76831909974E+01  0.35474650284E+02  0.47000000000E+01 0.  1.
<mgrwt>
<rscale>  0 0.10406905E+03</rscale>
<asrwt>0</asrwt>
<pdfrwt beam="1">  1        2 0.26219252E-01 0.10406933E+03</pdfrwt>
<pdfrwt beam="2">  1       -2 0.10344691E-01 0.10406933E+03</pdfrwt>
<totfact> 0.11752148E+04</totfact>
</mgrwt>
</event>
<event>
 8    1  0.3400573E-004  0.1115587E+03  0.7546771E-02  0.1257727E+00
         -2   -1    0    0    0  501 -0.00000000000E+00  0.00000000000E+00  0.71608455574E+02  0.71608455574E+02  0.00000000000E+00 0.  1.
          2   -1    0    0  501    0  0.00000000000E+00 -0.00000000000E+00 -0.34698343977E+03  0.34698343977E+03  0.00000000000E+00 0. -1.
         23    2    1    2    0    0 -0.38576122027E+01  0.64615338747E+02 -0.28556481034E+03  0.30656879339E+03  0.90813770997E+02 0.  0.
         23    2    1    2    0    0  0.38576122027E+01 -0.64615338747E+02  0.10189826142E+02  0.11202310196E+03  0.90858789567E+02 0.  0.
          5    1    4    4  502    0  0.30963247089E+02 -0.74558764078E+02  0.15367754426E+02  0.82316400839E+02  0.47000000000E+01 0. -1.
         -5    1    3    3    0  503 -0.39032996166E+02  0.11437893943E+02 -0.64102423958E+02  0.76063203751E+02  0.47000000000E+01 0.  1.
          5    1    3    3  503    0  0.35175383963E+02  0.53177444804E+02 -0.22146238638E+03  0.23050558964E+03  0.47000000000E+01 0. -1.
         -5    1    4    4    0  502 -0.27105634886E+02  0.99434253305E+01 -0.51779282838E+01  0.29706701116E+02  0.47000000000E+01 0.  1.
<mgrwt>
<rscale>  0 0.11154953E+03</rscale>
<asrwt>0</asrwt>
<pdfrwt beam="1">  1        2 0.53382067E-01 0.11155870E+03</pdfrwt>
<pdfrwt beam="2">  1       -2 0.11016686E-01 0.11155870E+03</pdfrwt>
<totfact> 0.50275296E+03</totfact>
</mgrwt>
</event>
<event>
 8    1  0.3400573E-004  0.1304701E+03  0.7546771E-02  0.1228081E+00
         -1   -1    0    0    0  501 -0.00000000000E+00  0.00000000000E+00  0.43635815319E+02  0.43635815319E+02  0.00000000000E+00 0.  1.
          1   -1    0    0  501    0  0.00000000000E+00 -0.00000000000E+00 -0.46954492824E+03  0.46954492824E+03  0.00000000000E+00 0. -1.
         23    2    1    2    0    0 -0.50274699820E+02 -0.80421626405E+02 -0.98322255564E+02  0.16056822873E+03  0.84378354463E+02 0.  0.
         23    2    1    2    0    0  0.50274699820E+02  0.80421626405E+02 -0.32758685735E+03  0.35261251483E+03  0.89594938842E+02 0.  0.
          5    1    3    3  502    0 -0.32854616817E+02  0.83833104202E+01 -0.40693712857E+02  0.53176818313E+02  0.47000000000E+01 0. -1.
         -5    1    4    4    0  503 -0.13043092271E+00  0.25568129164E+02 -0.12576210192E+02  0.28879011479E+02  0.47000000000E+01 0.  1.
          5    1    4    4  503    0  0.50405130743E+02  0.54853497241E+02 -0.31501064716E+03  0.32373350335E+03  0.47000000000E+01 0. -1.
         -5    1    3    3    0  502 -0.17420083003E+02 -0.88804936825E+02 -0.57628542707E+02  0.10739141041E+03  0.47000000000E+01 0.  1.
<mgrwt>
<rscale>  0 0.12957958E+03</rscale>
<asrwt>0</asrwt>
<pdfrwt beam="1">  1        1 0.72237683E-01 0.13047006E+03</pdfrwt>
<pdfrwt beam="2">  1       -1 0.67132022E-02 0.13047006E+03</pdfrwt>
<totfact> 0.53109715E+03</totfact>
</mgrwt>
</event>
<event>
 8    1  0.3400573E-004  0.2192797E+03  0.7546771E-02  0.1134573E+00
          2   -1    0    0  501    0  0.00000000000E+00  0.00000000000E+00  0.44772887591E+03  0.44772887591E+03  0.00000000000E+00 0. -1.
         -2   -1    0    0    0  501 -0.00000000000E+00 -0.00000000000E+00 -0.31530924270E+03  0.31530924270E+03  0.00000000000E+00 0.  1.
         23    2    1    2    0    0  0.32768446753E+02  0.19598660737E+03 -0.24384990458E+03  0.32794261904E+03  0.92731138513E+02 0.  0.
         23    2    1    2    0    0 -0.32768446753E+02 -0.19598660737E+03  0.37626953779E+03  0.43509549957E+03  0.90800921286E+02 0.  0.
          5    1    3    3  502    0  0.22585036567E+02  0.37434230217E+02 -0.98463564141E+01  0.45060472737E+02  0.47000000000E+01 0. -1.
         -5    1    3    3    0  502  0.10183410186E+02  0.15855237715E+03 -0.23400354817E+03  0.28288214631E+03  0.47000000000E+01 0.  1.
          5    1    4    4  503    0 -0.51804230440E+02 -0.17980230666E+03  0.35735590433E+03  0.40340783351E+03  0.47000000000E+01 0. -1.
         -5    1    4    4    0  503  0.19035783688E+02 -0.16184300709E+02  0.18913633456E+02  0.31687666064E+02  0.47000000000E+01 0.  1.
<mgrwt>
<rscale>  0 0.21907710E+03</rscale>
<asrwt>0</asrwt>
<pdfrwt beam="1">  1        2 0.68881366E-01 0.21927970E+03</pdfrwt>
<pdfrwt beam="2">  1       -2 0.48509114E-01 0.21927970E+03</pdfrwt>
<totfact> 0.29072135E+02</totfact>
</mgrwt>
</event>
<event>
 8    1  0.3400573E-004  0.9478458E+02  0.7546771E-02  0.1293034E+00
          1   -1    0    0  501    0  0.00000000000E+00  0.00000000000E+00  0.32417749387E+03  0.32417749387E+03  0.00000000000E+00 0. -1.
         -1   -1    0    0    0  501 -0.00000000000E+00 -0.00000000000E+00 -0.38261770550E+02  0.38261770550E+02  0.00000000000E+00 0.  1.
         23    2    1    2    0    0 -0.14437453414E+02 -0.20131102533E+02  0.23990050171E+03  0.25707552328E+03  0.89004902098E+02 0.  0.
         23    2    1    2    0    0  0.14437453414E+02  0.20131102533E+02  0.46015221615E+02  0.10536374115E+03  0.91489977473E+02 0.  0.
          5    1    4    4  502    0  0.43954301636E+02  0.73127970093E+01  0.55649580917E+02  0.71445248188E+02  0.47000000000E+01 0. -1.
         -5    1    3    3    0  503 -0.28578858390E+02  0.17375171783E+02  0.36578570107E+02  0.49786840956E+02  0.47000000000E+01 0.  1.
          5    1    3    3  503    0  0.14141404976E+02 -0.37506274316E+02  0.20332193160E+03  0.20728868232E+03  0.47000000000E+01 0. -1.
         -5    1    4    4    0  502 -0.29516848222E+02  0.12818305524E+02 -0.96343593020E+01  0.33918492959E+02  0.47000000000E+01 0.  1.
<mgrwt>
<rscale>  0 0.94179715E+02</rscale>
<asrwt>0</asrwt>
<pdfrwt beam="1">  1        1 0.49873459E-01 0.94784584E+02</pdfrwt>
<pdfrwt beam="2">  1       -1 0.58864265E-02 0.94784584E+02</pdfrwt>
<totfact> 0.10036297E+04</totfact>
</mgrwt>
</event>
<event>
 8    1  0.3400573E-004  0.9494457E+02  0.7546771E-02  0.1291813E+00
          3   -1    0    0  501    0  0.00000000000E+00  0.00000000000E+00  0.31737374791E+03  0.31737374791E+03  0.00000000000E+00 0. -1.
         -3   -1    0    0    0  501 -0.00000000000E+00 -0.00000000000E+00 -0.28823968815E+02  0.28823968815E+02  0.00000000000E+00 0.  1.
         23    2    1    2    0    0  0.47498451390E+01  0.25583648709E+02  0.11816166926E+03  0.15158051114E+03  0.91309293981E+02 0.  0.
         23    2    1    2    0    0 -0.47498451390E+01 -0.25583648709E+02  0.17038810984E+03  0.19461720558E+03  0.90369600106E+02 0.  0.
          5    1    4    4  502    0  0.37031743954E+02 -0.15005826847E+02  0.12724362158E+03  0.13345244146E+03  0.47000000000E+01 0. -1.
         -5    1    4    4    0  502 -0.41781589093E+02 -0.10577821861E+02  0.43144488261E+02  0.61164764119E+02  0.47000000000E+01 0.  1.
          5    1    3    3  503    0  0.15411668394E+02 -0.30755810038E+02  0.62683968035E+02  0.71657583147E+02  0.47000000000E+01 0. -1.
         -5    1    3    3    0  503 -0.10661823255E+02  0.56339458746E+02  0.55477701220E+02  0.79922927997E+02  0.47000000000E+01 0.  1.
<mgrwt>
<rscale>  0 0.94717919E+02</rscale>
<asrwt>0</asrwt>
<pdfrwt beam="1">  1        3 0.48826728E-01 0.94944569E+02</pdfrwt>
<pdfrwt beam="2">  1       -3 0.44344570E-02 0.94944569E+02</pdfrwt>
<totfact> 0.24717920E+03</totfact>
</mgrwt>
</event>
<event>
 8    1  0.3400573E-004  0.1245505E+03  0.7546771E-02  0.1247466E+00
         -1   -1    0    0    0  501 -0.00000000000E+00  0.00000000000E+00  0.55892191885E+02  0.55892191885E+02  0.00000000000E+00 0.  1.
          1   -1    0    0  501    0  0.00000000000E+00 -0.00000000000E+00 -0.22997792871E+03  0.22997792871E+03  0.00000000000E+00 0. -1.
         23    2    1    2    0    0 -0.67308924966E+01  0.30856235313E+02 -0.10340242904E+03  0.14266064436E+03  0.93073008693E+02 0.  0.
         23    2    1    2    0    0  0.67308924966E+01 -0.30856235313E+02 -0.70683307783E+02  0.14320947623E+03  0.12047992327E+03 0.  0.
          5    1    3    3  502    0 -0.19338016180E+02 -0.11006310990E+02 -0.95265700760E+02  0.97942541792E+02  0.47000000000E+01 0. -1.
         -5    1    3    3    0  502  0.12607123684E+02  0.41862546302E+02 -0.81367282817E+01  0.44718102572E+02  0.47000000000E+01 0.  1.
          5    1    4    4  503    0  0.37793712067E+02 -0.66749369479E+02 -0.43753553670E+02  0.88432496609E+02  0.47000000000E+01 0. -1.
         -5    1    4    4    0  503 -0.31062819571E+02  0.35893134166E+02 -0.26929754112E+02  0.54776979622E+02  0.47000000000E+01 0.  1.
<mgrwt>
<rscale>  0 0.11739003E+03</rscale>
<asrwt>0</asrwt>
<pdfrwt beam="1">  1        1 0.35381220E-01 0.12455049E+03</pdfrwt>
<pdfrwt beam="2">  1       -1 0.85987987E-02 0.12455049E+03</pdfrwt>
<totfact> 0.88865852E+03</totfact>
</mgrwt>
</event>
<event>
 8    1  0.3400573E-004  0.9427374E+02  0.7546771E-02  0.1293230E+00
         -1   -1    0    0    0  501 -0.00000000000E+00  0.00000000000E+00  0.17045842475E+02  0.17045842475E+02  0.00000000000E+00 0.  1.
          1   -1    0    0  501    0  0.00000000000E+00 -0.00000000000E+00 -0.54393815079E+03  0.54393815079E+03  0.00000000000E+00 0. -1.
         23    2    1    2    0    0  0.23305508330E+02 -0.14776418050E+02 -0.20056646218E+03  0.22131342348E+03  0.89393715732E+02 0.  0.
         23    2    1    2    0    0 -0.23305508330E+02  0.14776418050E+02 -0.32632584614E+03  0.33967056979E+03  0.90144599797E+02 0.  0.
          5    1    4    4  502    0  0.17926053736E+02  0.24094377693E+02 -0.40187784780E+02  0.50388793243E+02  0.47000000000E+01 0. -1.
         -5    1    3    3    0  503 -0.32367011548E+02  0.43717922015E+01 -0.91734203145E+02  0.97488409723E+02  0.47000000000E+01 0.  1.
          5    1    3    3  503    0  0.55672519878E+02 -0.19148210252E+02 -0.10883225903E+03  0.12382501375E+03  0.47000000000E+01 0. -1.
         -5    1    4    4    0  502 -0.41231562066E+02 -0.93179596431E+01 -0.28613806136E+03  0.28928177655E+03  0.47000000000E+01 0.  1.
<mgrwt>
<rscale>  0 0.94093791E+02</rscale>
<asrwt>0</asrwt>
<pdfrwt beam="1">  1        1 0.83682786E-01 0.94273740E+02</pdfrwt>
<pdfrwt beam="2">  1       -1 0.26224375E-02 0.94273740E+02</pdfrwt>
<totfact> 0.16956076E+04</totfact>
</mgrwt>
</event>
<event>
 8    1  0.3400573E-004  0.1413295E+03  0.7546771E-02  0.1211784E+00
         -1   -1    0    0    0  501 -0.00000000000E+00  0.00000000000E+00  0.52204163699E+02  0.52204163699E+02  0.00000000000E+00 0.  1.
          1   -1    0    0  501    0  0.00000000000E+00 -0.00000000000E+00 -0.79911926570E+03  0.79911926570E+03  0.00000000000E+00 0. -1.
         23    2    1    2    0    0 -0.10231613668E+03 -0.34909924708E+02 -0.65013591357E+02  0.15493007182E+03  0.89940343707E+02 0.  0.
         23    2    1    2    0    0  0.10231613668E+03  0.34909924708E+02 -0.68190151064E+03  0.69639335758E+03  0.91031552727E+02 0.  0.
          5    1    3    3  502    0 -0.51935355136E+02 -0.44115579834E+02 -0.76163084124E+02  0.10230528276E+03  0.47000000000E+01 0. -1.
         -5    1    4    4    0  503  0.81182731125E+02  0.39644115929E+02 -0.65641285494E+03  0.66261770116E+03  0.47000000000E+01 0. -1.
          5    1    4    4  503    0  0.21133405552E+02 -0.47341912212E+01 -0.25488655700E+02  0.33775656413E+02  0.47000000000E+01 0.  1.
         -5    1    3    3    0  502 -0.50380781541E+02  0.92056551262E+01  0.11149492767E+02  0.52624789063E+02  0.47000000000E+01 0.  1.
<mgrwt>
<rscale>  0 0.14115412E+03</rscale>
<asrwt>0</asrwt>
<pdfrwt beam="1">  1        1 0.12294141E+00 0.14132954E+03</pdfrwt>
<pdfrwt beam="2">  1       -1 0.80314107E-02 0.14132954E+03</pdfrwt>
<totfact> 0.19547766E+03</totfact>
</mgrwt>
</event>
<event>
 8    1  0.3400573E-004  0.1429164E+03  0.7546771E-02  0.1209773E+00
          2   -1    0    0  501    0  0.00000000000E+00  0.00000000000E+00  0.16059605403E+03  0.16059605403E+03  0.00000000000E+00 0. -1.
         -2   -1    0    0    0  501 -0.00000000000E+00 -0.00000000000E+00 -0.14435842463E+03  0.14435842463E+03  0.00000000000E+00 0.  1.
         23    2    1    2    0    0  0.13262957707E+02 -0.10825104309E+03 -0.45786465980E+02  0.14915948254E+03  0.90873298531E+02 0.  0.
         23    2    1    2    0    0 -0.13262957707E+02  0.10825104309E+03  0.62024095382E+02  0.15579499612E+03  0.92362860662E+02 0.  0.
          5    1    3    3  502    0 -0.37845535472E+02 -0.30772018807E+02 -0.16967380762E+02  0.51857339949E+02  0.47000000000E+01 0. -1.
         -5    1    3    3    0  502  0.51108493179E+02 -0.77479024288E+02 -0.28819085218E+02  0.97302142589E+02  0.47000000000E+01 0.  1.
          5    1    4    4  503    0  0.12859883490E+02  0.11458840075E+03  0.53538852070E+02  0.12721783236E+03  0.47000000000E+01 0. -1.
         -5    1    4    4    0  503 -0.26122841198E+02 -0.63373576568E+01  0.84852433124E+01  0.28577163757E+02  0.47000000000E+01 0.  1.
<mgrwt>
<rscale>  0 0.14267625E+03</rscale>
<asrwt>0</asrwt>
<pdfrwt beam="1">  1        2 0.24707085E-01 0.14291638E+03</pdfrwt>
<pdfrwt beam="2">  1       -2 0.22208988E-01 0.14291638E+03</pdfrwt>
<totfact> 0.36803063E+03</totfact>
</mgrwt>
</event>
<event>
 8    1  0.3400573E-004  0.1370995E+03  0.7546771E-02  0.1218128E+00
          2   -1    0    0  501    0  0.00000000000E+00  0.00000000000E+00  0.43713926441E+03  0.43713926441E+03  0.00000000000E+00 0. -1.
         -2   -1    0    0    0  501 -0.00000000000E+00 -0.00000000000E+00 -0.59741637209E+02  0.59741637209E+02  0.00000000000E+00 0.  1.
         23    2    1    2    0    0 -0.18636067216E+02  0.98102856531E+02  0.32432745346E+03  0.35211442427E+03  0.93940391992E+02 0.  0.
         23    2    1    2    0    0  0.18636067216E+02 -0.98102856531E+02  0.53070173735E+02  0.14476647735E+03  0.90384822633E+02 0.  0.
          5    1    4    4  502    0  0.21453220844E+01 -0.35675344606E+02  0.69219157200E+02  0.78043028792E+02  0.47000000000E+01 0. -1.
         -5    1    4    4    0  502  0.16490745131E+02 -0.62427511924E+02 -0.16148983465E+02  0.66723448554E+02  0.47000000000E+01 0.  1.
          5    1    3    3  503    0 -0.48129523196E+02  0.23895365682E+02  0.16900151193E+03  0.17740079070E+03  0.47000000000E+01 0. -1.
         -5    1    3    3    0  503  0.29493455981E+02  0.74207490849E+02  0.15532594153E+03  0.17471363357E+03  0.47000000000E+01 0.  1.
<mgrwt>
<rscale>  0 0.13649263E+03</rscale>
<asrwt>0</asrwt>
<pdfrwt beam="1">  1        2 0.67252192E-01 0.13709949E+03</pdfrwt>
<pdfrwt beam="2">  1       -2 0.91910214E-02 0.13709949E+03</pdfrwt>
<totfact> 0.52862678E+03</totfact>
</mgrwt>
</event>
<event>
 8    1  0.3400573E-004  0.9535027E+02  0.7546771E-02  0.1292966E+00
          2   -1    0    0  501    0  0.00000000000E+00  0.00000000000E+00  0.29269941858E+03  0.29269941858E+03  0.00000000000E+00 0. -1.
         -2   -1    0    0    0  501 -0.00000000000E+00 -0.00000000000E+00 -0.32725110795E+02  0.32725110795E+02  0.00000000000E+00 0.  1.
         23    2    1    2    0    0 -0.78099657137E+01  0.15282693315E+02  0.77041855259E+02  0.11913358074E+03  0.89234557874E+02 0.  0.
         23    2    1    2    0    0  0.78099657137E+01 -0.15282693315E+02  0.18293245252E+03  0.20629094863E+03  0.93792947614E+02 0.  0.
          5    1    4    4  502    0 -0.41659907534E+00 -0.51040536984E+02  0.14275027487E+03  0.15167412748E+03  0.47000000000E+01 0. -1.
         -5    1    4    4    0  502  0.82265647891E+01  0.35757843670E+02  0.40182177652E+02  0.54616821154E+02  0.47000000000E+01 0.  1.
          5    1    3    3  503    0  0.34940781278E+02  0.29007131516E+02  0.41077066563E+02  0.61414064126E+02  0.47000000000E+01 0. -1.
         -5    1    3    3    0  503 -0.42750746992E+02 -0.13724438201E+02  0.35964788696E+02  0.57719516615E+02  0.47000000000E+01 0.  1.
<mgrwt>
<rscale>  0 0.94209913E+02</rscale>
<asrwt>0</asrwt>
<pdfrwt beam="1">  1        2 0.45030678E-01 0.95350266E+02</pdfrwt>
<pdfrwt beam="2">  1       -2 0.50346326E-02 0.95350266E+02</pdfrwt>
<totfact> 0.19634341E+04</totfact>
</mgrwt>
</event>
<event>
 8    1  0.3400573E-004  0.9264732E+02  0.7546771E-02  0.1296831E+00
         -2   -1    0    0    0  501 -0.00000000000E+00  0.00000000000E+00  0.56049676490E+02  0.56049676490E+02  0.00000000000E+00 0.  1.
          2   -1    0    0  501    0  0.00000000000E+00 -0.00000000000E+00 -0.16027223730E+03  0.16027223730E+03  0.00000000000E+00 0. -1.
         23    2    1    2    0    0 -0.19268044328E+02 -0.59879967163E+01 -0.75978416708E+02  0.11946502563E+03  0.89955871995E+02 0.  0.
         23    2    1    2    0    0  0.19268044328E+02  0.59879967163E+01 -0.28244144102E+02  0.96856888161E+02  0.90423511717E+02 0.  0.
          5    1    3    3  502    0  0.25513331141E+01 -0.37293624977E+02 -0.40324733942E+01  0.37890296993E+02  0.47000000000E+01 0. -1.
         -5    1    3    3    0  502 -0.21819377442E+02  0.31305628261E+02 -0.71945943314E+02  0.81574728636E+02  0.47000000000E+01 0.  1.
          5    1    4    4  503    0  0.53857224661E+02  0.96511443147E+01 -0.58610554042E+01  0.55228499937E+02  0.47000000000E+01 0. -1.
         -5    1    4    4    0  503 -0.34589180334E+02 -0.36631475984E+01 -0.22383088698E+02  0.41628388224E+02  0.47000000000E+01 0.  1.
<mgrwt>
<rscale>  0 0.92533015E+02</rscale>
<asrwt>0</asrwt>
<pdfrwt beam="1">  1        2 0.24657267E-01 0.92647316E+02</pdfrwt>
<pdfrwt beam="2">  1       -2 0.86230272E-02 0.92647316E+02</pdfrwt>
<totfact> 0.16479926E+04</totfact>
</mgrwt>
</event>
<event>
 8    1  0.3400573E-004  0.1137693E+03  0.7546771E-02  0.1256203E+00
         -1   -1    0    0    0  501 -0.00000000000E+00  0.00000000000E+00  0.18556194446E+02  0.18556194446E+02  0.00000000000E+00 0.  1.
          1   -1    0    0  501    0  0.00000000000E+00 -0.00000000000E+00 -0.87142728246E+03  0.87142728246E+03  0.00000000000E+00 0. -1.
         23    2    1    2    0    0 -0.45511996042E+02 -0.43423819240E+02 -0.20185619414E+03  0.22910235996E+03  0.88232637773E+02 0.  0.
         23    2    1    2    0    0  0.45511996042E+02  0.43423819240E+02 -0.65101489388E+03  0.66088111695E+03  0.94797092890E+02 0.  0.
          5    1    4    4  502    0 -0.11792984034E+02 -0.20821679077E+02 -0.88549298125E+02  0.91845985162E+02  0.47000000000E+01 0. -1.
         -5    1    3    3    0  503 -0.57975128920E+02 -0.18774552826E+02 -0.64269708262E+02  0.88692078605E+02  0.47000000000E+01 0.  1.
          5    1    3    3  503    0  0.12463132878E+02 -0.24649266414E+02 -0.13758648587E+03  0.14041028136E+03  0.47000000000E+01 0. -1.
         -5    1    4    4    0  502  0.57304980076E+02  0.64245498317E+02 -0.56246559576E+03  0.56903513178E+03  0.47000000000E+01 0.  1.
<mgrwt>
<rscale>  0 0.11239228E+03</rscale>
<asrwt>0</asrwt>
<pdfrwt beam="1">  1        1 0.13406571E+00 0.11376932E+03</pdfrwt>
<pdfrwt beam="2">  1       -1 0.28547997E-02 0.11376932E+03</pdfrwt>
<totfact> 0.78132666E+03</totfact>
</mgrwt>
</event>
<event>
 8    1  0.3400573E-004  0.1042410E+03  0.7546771E-02  0.1275913E+00
          2   -1    0    0  501    0  0.00000000000E+00  0.00000000000E+00  0.46354600106E+03  0.46354600106E+03  0.00000000000E+00 0. -1.
         -2   -1    0    0    0  501 -0.00000000000E+00 -0.00000000000E+00 -0.30756674577E+02  0.30756674577E+02  0.00000000000E+00 0.  1.
         23    2    1    2    0    0 -0.28826391891E+02  0.10355785794E+02  0.75518114065E+02  0.12213482784E+03  0.90971025334E+02 0.  0.
         23    2    1    2    0    0  0.28826391891E+02 -0.10355785794E+02  0.35727121242E+03  0.37216784780E+03  0.99639272099E+02 0.  0.
          5    1    3    3  502    0  0.36957812707E+01  0.20715499347E+02  0.83940963650E+02  0.86665830007E+02  0.47000000000E+01 0. -1.
         -5    1    4    4    0  503 -0.11460400334E+02 -0.42013246368E+02  0.91269229659E+02  0.10123544798E+03  0.47000000000E+01 0.  1.
          5    1    4    4  503    0  0.40286792224E+02  0.31657460573E+02  0.26600198276E+03  0.27093239982E+03  0.47000000000E+01 0. -1.
         -5    1    3    3    0  502 -0.32522173161E+02 -0.10359713552E+02 -0.84228495846E+01  0.35468997831E+02  0.47000000000E+01 0.  1.
<mgrwt>
<rscale>  0 0.10211383E+03</rscale>
<asrwt>0</asrwt>
<pdfrwt beam="1">  1        2 0.71314764E-01 0.10424101E+03</pdfrwt>
<pdfrwt beam="2">  1       -2 0.47317964E-02 0.10424101E+03</pdfrwt>
<totfact> 0.13368297E+04</totfact>
</mgrwt>
</event>
<event>
 8    1  0.3400573E-004  0.1208539E+03  0.7546771E-02  0.1253560E+00
         -1   -1    0    0    0  501 -0.00000000000E+00  0.00000000000E+00  0.27592883945E+02  0.27592883945E+02  0.00000000000E+00 0.  1.
          1   -1    0    0  501    0  0.00000000000E+00 -0.00000000000E+00 -0.43180333675E+03  0.43180333675E+03  0.00000000000E+00 0. -1.
         23    2    1    2    0    0 -0.18943354051E+02 -0.15107936301E+02 -0.25782404624E+03  0.28474356825E+03  0.11840000185E+03 0.  0.
         23    2    1    2    0    0  0.18943354051E+02  0.15107936301E+02 -0.14638640656E+03  0.17465265244E+03  0.92127458325E+02 0.  0.
          5    1    4    4  502    0  0.11838391465E+02 -0.16857293255E+02  0.32733506675E+01  0.21380380561E+02  0.47000000000E+01 0. -1.
         -5    1    4    4    0  502  0.71049625863E+01  0.31965229555E+02 -0.14965975723E+03  0.15327227188E+03  0.47000000000E+01 0.  1.
          5    1    3    3  503    0 -0.97389458550E+01 -0.66670854893E+02 -0.16020079693E+03  0.17385693916E+03  0.47000000000E+01 0. -1.
         -5    1    3    3    0  503 -0.92044081960E+01  0.51562918593E+02 -0.97623249308E+02  0.11088662908E+03  0.47000000000E+01 0.  1.
<mgrwt>
<rscale>  0 0.11387377E+03</rscale>
<asrwt>0</asrwt>
<pdfrwt beam="1">  1        1 0.66431281E-01 0.12085388E+03</pdfrwt>
<pdfrwt beam="2">  1       -1 0.42450592E-02 0.12085388E+03</pdfrwt>
<totfact> 0.11588296E+04</totfact>
</mgrwt>
</event>
<event>
 8    1  0.3400573E-004  0.9828363E+02  0.7546771E-02  0.1284808E+00
          2   -1    0    0  501    0  0.00000000000E+00  0.00000000000E+00  0.66047239170E+03  0.66047239170E+03  0.00000000000E+00 0. -1.
         -2   -1    0    0    0  501 -0.00000000000E+00 -0.00000000000E+00 -0.15588569417E+02  0.15588569417E+02  0.00000000000E+00 0.  1.
         23    2    1    2    0    0 -0.11033846063E+02  0.21716671824E+02  0.41373422377E+03  0.42488411302E+03  0.93579602381E+02 0.  0.
         23    2    1    2    0    0  0.11033846063E+02 -0.21716671824E+02  0.23114959851E+03  0.25117684810E+03  0.95217186128E+02 0.  0.
          5    1    4    4  502    0 -0.36643919544E+02  0.12580404572E+02  0.10243033543E+03  0.10961344368E+03  0.47000000000E+01 0. -1.
         -5    1    3    3    0  503  0.26375603348E+02 -0.70642248165E+01  0.43169266665E+02  0.51295724077E+02  0.47000000000E+01 0.  1.
          5    1    3    3  503    0 -0.37409449410E+02  0.28780896640E+02  0.37056495711E+03  0.37358838894E+03  0.47000000000E+01 0. -1.
         -5    1    4    4    0  502  0.47677765606E+02 -0.34297076396E+02  0.12871926309E+03  0.14156340442E+03  0.47000000000E+01 0.  1.
<mgrwt>
<rscale>  0 0.97884800E+02</rscale>
<asrwt>0</asrwt>
<pdfrwt beam="1">  1        2 0.10161112E+00 0.98283631E+02</pdfrwt>
<pdfrwt beam="2">  1       -2 0.23982420E-02 0.98283631E+02</pdfrwt>
<totfact> 0.24316705E+04</totfact>
</mgrwt>
</event>
<event>
 8    1  0.3400573E-004  0.9756643E+02  0.7546771E-02  0.1285911E+00
          2   -1    0    0  501    0  0.00000000000E+00  0.00000000000E+00  0.92625661156E+03  0.92625661156E+03  0.00000000000E+00 0. -1.
         -2   -1    0    0    0  501 -0.00000000000E+00 -0.00000000000E+00 -0.64048464545E+02  0.64048464545E+02  0.00000000000E+00 0.  1.
         23    2    1    2    0    0 -0.23950280812E+02 -0.21156202005E+02 -0.23189498477E+02  0.99547983271E+02  0.91382970512E+02 0.  0.
         23    2    1    2    0    0  0.23950280812E+02  0.21156202005E+02  0.88539764550E+03  0.89075709284E+03  0.92184635153E+02 0.  0.
          5    1    4    4  502    0  0.50698940475E+02  0.39483951815E+02  0.62252138230E+03  0.62584688738E+03  0.47000000000E+01 0. -1.
         -5    1    4    4    0  502 -0.26748659664E+02 -0.18327749810E+02  0.26287626319E+03  0.26491020546E+03  0.47000000000E+01 0.  1.
          5    1    3    3  503    0 -0.37662131431E+02  0.24153545332E+02  0.32810481245E+01  0.45107484665E+02  0.47000000000E+01 0. -1.
         -5    1    3    3    0  503  0.13711850620E+02 -0.45309747336E+02 -0.26470546601E+02  0.54440498606E+02  0.47000000000E+01 0.  1.
<mgrwt>
<rscale>  0 0.97376602E+02</rscale>
<asrwt>0</asrwt>
<pdfrwt beam="1">  1        2 0.14250101E+00 0.97566428E+02</pdfrwt>
<pdfrwt beam="2">  1       -2 0.98536106E-02 0.97566428E+02</pdfrwt>
<totfact> 0.19556720E+03</totfact>
</mgrwt>
</event>
<event>
 7    1  0.3931919E-004  0.1637107E+03  0.7546771E-02  0.1198653E+00
         -1   -1    0    0    0  501 -0.00000000000E+00  0.00000000000E+00  0.11556090641E+03  0.11556090641E+03  0.00000000000E+00 0.  1.
          1   -1    0    0  501    0  0.00000000000E+00 -0.00000000000E+00 -0.19494162903E+03  0.19494162903E+03  0.00000000000E+00 0. -1.
         23    2    1    2    0    0  0.36861647794E+02  0.81460810849E+02 -0.84359422892E+02  0.14671617853E+03  0.80090449058E+02 0.  0.
          5    1    1    2  502    0  0.44992402857E+02 -0.46327065183E+02 -0.25402392607E+02  0.69554905172E+02  0.47000000000E+01 0. -1.
         -5    1    1    2    0  502 -0.81854050651E+02 -0.35133745666E+02  0.30381092874E+02  0.94231451738E+02  0.47000000000E+01 0.  1.
          5    1    3    3  503    0  0.59228484594E+02  0.57650574558E+02 -0.41455815135E+02  0.92586590513E+02  0.47000000000E+01 0. -1.
         -5    1    3    3    0  503 -0.22366836801E+02  0.23810236291E+02 -0.42903607756E+02  0.54129588020E+02  0.47000000000E+01 0.  1.
<mgrwt>
<rscale>  0 0.15149121E+03</rscale>
<asrwt>0</asrwt>
<pdfrwt beam="1">  1        1 0.29991020E-01 0.16371067E+03</pdfrwt>
<pdfrwt beam="2">  1       -1 0.17778601E-01 0.16371067E+03</pdfrwt>
<totfact> 0.36012289E+03</totfact>
</mgrwt>
</event>
<event>
 8    1  0.3400573E-004  0.1151763E+03  0.7546771E-02  0.1257003E+00
         -1   -1    0    0    0  501 -0.00000000000E+00  0.00000000000E+00  0.38326686351E+02  0.38326686351E+02  0.00000000000E+00 0.  1.
          1   -1    0    0  501    0  0.00000000000E+00 -0.00000000000E+00 -0.37608430361E+03  0.37608430361E+03  0.00000000000E+00 0. -1.
         23    2    1    2    0    0 -0.19591291253E+01 -0.64024169569E+02 -0.24776865113E+03  0.26824809658E+03  0.80404007116E+02 0.  0.
         23    2    1    2    0    0  0.19591291253E+01  0.64024169569E+02 -0.89988966129E+02  0.14616289338E+03  0.95721705482E+02 0.  0.
          5    1    4    4  502    0 -0.27154621082E+02  0.54070982672E+02 -0.11555180456E+02  0.61779096858E+02  0.47000000000E+01 0. -1.
         -5    1    3    3    0  503 -0.16355492241E+02 -0.78894103269E+02 -0.20914107783E+03  0.22417373194E+03  0.47000000000E+01 0.  1.
          5    1    3    3  503    0  0.14396363116E+02  0.14869933700E+02 -0.38627573303E+02  0.44074364641E+02  0.47000000000E+01 0. -1.
         -5    1    4    4    0  502  0.29113750207E+02  0.99531868973E+01 -0.78433785673E+02  0.84383796523E+02  0.47000000000E+01 0.  1.
<mgrwt>
<rscale>  0 0.11194896E+03</rscale>
<asrwt>0</asrwt>
<pdfrwt beam="1">  1        1 0.57859125E-01 0.11517629E+03</pdfrwt>
<pdfrwt beam="2">  1       -1 0.58964131E-02 0.11517629E+03</pdfrwt>
<totfact> 0.84613747E+03</totfact>
</mgrwt>
</event>
<event>
 8    1  0.3400573E-004  0.1719195E+03  0.7546771E-02  0.1178419E+00
          1   -1    0    0  501    0  0.00000000000E+00  0.00000000000E+00  0.90633622961E+02  0.90633622961E+02  0.00000000000E+00 0. -1.
         -1   -1    0    0    0  501 -0.00000000000E+00 -0.00000000000E+00 -0.32050309052E+03  0.32050309052E+03  0.00000000000E+00 0.  1.
         23    2    1    2    0    0  0.10676924055E+03  0.97167808002E+02 -0.71243203385E+02  0.17721664833E+03  0.74087062147E+02 0.  0.
         23    2    1    2    0    0 -0.10676924055E+03 -0.97167808002E+02 -0.15862626418E+03  0.23392006515E+03  0.93354440470E+02 0.  0.
          5    1    4    4  502    0 -0.17041766150E+02 -0.32561546544E+02 -0.10420583018E+03  0.11059665976E+03  0.47000000000E+01 0. -1.
         -5    1    3    3    0  503  0.33116698542E+02 -0.11455972978E+00 -0.38079787366E+02  0.50684209100E+02  0.47000000000E+01 0.  1.
          5    1    3    3  503    0  0.73652542006E+02  0.97282367731E+02 -0.33163416019E+02  0.12653243923E+03  0.47000000000E+01 0. -1.
         -5    1    4    4    0  502 -0.89727474399E+02 -0.64606261458E+02 -0.54420434000E+02  0.12332340540E+03  0.47000000000E+01 0.  1.
<mgrwt>
<rscale>  0 0.16945347E+03</rscale>
<asrwt>0</asrwt>
<pdfrwt beam="1">  1        1 0.13943634E-01 0.17191947E+03</pdfrwt>
<pdfrwt beam="2">  1       -1 0.49308168E-01 0.17191947E+03</pdfrwt>
<totfact> 0.17043683E+03</totfact>
</mgrwt>
</event>
<event>
 8    1  0.3400573E-004  0.9708477E+02  0.7546771E-02  0.1287650E+00
          1   -1    0    0  501    0  0.00000000000E+00  0.00000000000E+00  0.10889278621E+03  0.10889278621E+03  0.00000000000E+00 0. -1.
         -1   -1    0    0    0  501 -0.00000000000E+00 -0.00000000000E+00 -0.52832959135E+03  0.52832959135E+03  0.00000000000E+00 0.  1.
         23    2    1    2    0    0 -0.18787228870E+02 -0.23703527345E+02  0.82555037631E+02  0.12592866358E+03  0.90154738623E+02 0.  0.
         23    2    1    2    0    0  0.18787228870E+02  0.23703527345E+02 -0.50199184278E+03  0.51129371397E+03  0.92253100538E+02 0.  0.
          5    1    3    3  502    0  0.30901459823E+02  0.79743153352E+01  0.13346040462E+02  0.34909837013E+02  0.47000000000E+01 0.  1.
         -5    1    3    3    0  502 -0.49688688693E+02 -0.31677842680E+02  0.69208997169E+02  0.91018826570E+02  0.47000000000E+01 0. -1.
          5    1    4    4  503    0 -0.34227971280E+02 -0.73294317281E+01 -0.19712751427E+03  0.20026637629E+03  0.47000000000E+01 0. -1.
         -5    1    4    4    0  503  0.53015200150E+02  0.31032959073E+02 -0.30486432850E+03  0.31102733769E+03  0.47000000000E+01 0.  1.
<mgrwt>
<rscale>  0 0.96582968E+02</rscale>
<asrwt>0</asrwt>
<pdfrwt beam="1">  1        1 0.16752736E-01 0.97084766E+02</pdfrwt>
<pdfrwt beam="2">  1       -1 0.81281477E-01 0.97084766E+02</pdfrwt>
<totfact> 0.50718532E+02</totfact>
</mgrwt>
</event>
<event>
 8    1  0.3400573E-004  0.9703531E+02  0.7546771E-02  0.1287675E+00
          3   -1    0    0  501    0  0.00000000000E+00  0.00000000000E+00  0.24586983846E+03  0.24586983846E+03  0.00000000000E+00 0. -1.
         -3   -1    0    0    0  501 -0.00000000000E+00 -0.00000000000E+00 -0.38872710700E+02  0.38872710700E+02  0.00000000000E+00 0.  1.
         23    2    1    2    0    0  0.11561972042E+02 -0.23633259593E+02  0.78422843906E+02  0.12476375006E+03  0.93400432152E+02 0.  0.
         23    2    1    2    0    0 -0.11561972042E+02  0.23633259593E+02  0.12857428385E+03  0.15997879910E+03  0.91485843363E+02 0.  0.
          5    1    4    4  502    0 -0.44689992445E+02  0.30600126836E+02  0.10567356234E+03  0.11883835645E+03  0.47000000000E+01 0. -1.
         -5    1    3    3    0  503 -0.23414769310E+02  0.26147393521E+02  0.35618908577E+02  0.50226828070E+02  0.47000000000E+01 0. -1.
          5    1    3    3  503    0  0.34976741352E+02 -0.49780653114E+02  0.42803935330E+02  0.74536921990E+02  0.47000000000E+01 0.  1.
         -5    1    4    4    0  502  0.33128020403E+02 -0.69668672426E+01  0.22900721511E+02  0.41140442641E+02  0.47000000000E+01 0.  1.
<mgrwt>
<rscale>  0 0.96571631E+02</rscale>
<asrwt>0</asrwt>
<pdfrwt beam="1">  1        3 0.37826128E-01 0.97035307E+02</pdfrwt>
<pdfrwt beam="2">  1       -3 0.59804172E-02 0.97035307E+02</pdfrwt>
<totfact> 0.25406844E+03</totfact>
</mgrwt>
</event>
<event>
 8    1  0.3400573E-004  0.9480606E+02  0.7546771E-02  0.1294282E+00
          1   -1    0    0  501    0  0.00000000000E+00  0.00000000000E+00  0.39016209633E+03  0.39016209633E+03  0.00000000000E+00 0. -1.
         -1   -1    0    0    0  501 -0.00000000000E+00 -0.00000000000E+00 -0.59934170062E+02  0.59934170062E+02  0.00000000000E+00 0.  1.
         23    2    1    2    0    0  0.22729475749E+02 -0.11025267771E+02 -0.12563431487E+02  0.95634868576E+02  0.91378349075E+02 0.  0.
         23    2    1    2    0    0 -0.22729475749E+02  0.11025267771E+02  0.34279135776E+03  0.35446139782E+03  0.86595507925E+02 0.  0.
          5    1    4    4  502    0 -0.45556776221E+02 -0.83015885144E+01  0.28908901029E+03  0.29281202520E+03  0.47000000000E+01 0. -1.
         -5    1    4    4    0  502  0.22827300472E+02  0.19326856286E+02  0.53702347471E+02  0.61649372622E+02  0.47000000000E+01 0.  1.
          5    1    3    3  503    0  0.23140034037E+02 -0.46921683866E+02  0.92934113589E+01  0.53343819574E+02  0.47000000000E+01 0. -1.
         -5    1    3    3    0  503 -0.41055828822E+00  0.35896416094E+02 -0.21856842846E+02  0.42291049002E+02  0.47000000000E+01 0.  1.
<mgrwt>
<rscale>  0 0.93634282E+02</rscale>
<asrwt>0</asrwt>
<pdfrwt beam="1">  1        1 0.60024936E-01 0.94806056E+02</pdfrwt>
<pdfrwt beam="2">  1       -1 0.92206418E-02 0.94806056E+02</pdfrwt>
<totfact> 0.40942592E+03</totfact>
</mgrwt>
</event>
<event>
 8    1  0.3511191E-004  0.9254586E+02  0.7546771E-02  0.1297377E+00
         -1   -1    0    0    0  501 -0.00000000000E+00  0.00000000000E+00  0.59889000787E+02  0.59889000787E+02  0.00000000000E+00 0.  1.
          1   -1    0    0  501    0  0.00000000000E+00 -0.00000000000E+00 -0.33666674532E+03  0.33666674532E+03  0.00000000000E+00 0. -1.
         23    2    1    2    0    0 -0.14700748094E+02 -0.32675651530E+01 -0.28904438098E+03  0.30320047949E+03  0.90316596542E+02 0.  0.
         23    2    1    2    0    0  0.14700748094E+02  0.32675651530E+01  0.12266636450E+02  0.93355266612E+02  0.91312356545E+02 0.  0.
          5    1    4    4  502    0  0.12709519690E+02 -0.40951703767E+02 -0.89349058781E+01  0.44051066675E+02  0.47000000000E+01 0. -1.
         -5    1    4    4    0  502  0.19912284031E+01  0.44219268920E+02  0.21201542328E+02  0.49304199937E+02  0.47000000000E+01 0.  1.
          5    1    3    3  503    0 -0.38550823249E+02 -0.28956730370E+02 -0.22383867149E+03  0.22902073937E+03  0.47000000000E+01 0. -1.
         -5    1    3    3    0  503  0.23850075155E+02  0.25689165217E+02 -0.65205709493E+02  0.74179740124E+02  0.47000000000E+01 0.  1.
<mgrwt>
<rscale>  0 0.92299286E+02</rscale>
<asrwt>0</asrwt>
<pdfrwt beam="1">  1        1 0.51794884E-01 0.92545856E+02</pdfrwt>
<pdfrwt beam="2">  1       -1 0.92136924E-02 0.92545856E+02</pdfrwt>
<totfact> 0.49100583E+03</totfact>
</mgrwt>
</event>
<event>
 8    1  0.3400573E-004  0.9305803E+02  0.7546771E-02  0.1296835E+00
          2   -1    0    0  501    0  0.00000000000E+00  0.00000000000E+00  0.37632970131E+03  0.37632970131E+03  0.00000000000E+00 0. -1.
         -2   -1    0    0    0  501 -0.00000000000E+00 -0.00000000000E+00 -0.25952606885E+02  0.25952606885E+02  0.00000000000E+00 0.  1.
         23    2    1    2    0    0  0.26483079538E+01 -0.15304701705E+02  0.24685244327E+03  0.26308047766E+03  0.89632368856E+02 0.  0.
         23    2    1    2    0    0 -0.26483079538E+01  0.15304701705E+02  0.10352465116E+03  0.13920183054E+03  0.91752650093E+02 0.  0.
          5    1    3    3  502    0 -0.33394560911E+02 -0.35845683035E+02  0.13274061518E+03  0.14157072652E+03  0.47000000000E+01 0. -1.
         -5    1    3    3    0  502  0.36042868865E+02  0.20540981330E+02  0.11411182809E+03  0.12150975113E+03  0.47000000000E+01 0.  1.
          5    1    4    4  503    0 -0.32647180771E+02 -0.25781863723E+02  0.49912652707E+02  0.65145266977E+02  0.47000000000E+01 0. -1.
         -5    1    4    4    0  503  0.29998872817E+02  0.41086565427E+02  0.53611998448E+02  0.74056563561E+02  0.47000000000E+01 0.  1.
<mgrwt>
<rscale>  0 0.92531105E+02</rscale>
<asrwt>0</asrwt>
<pdfrwt beam="1">  1        2 0.57896873E-01 0.93058026E+02</pdfrwt>
<pdfrwt beam="2">  1       -2 0.39927090E-02 0.93058026E+02</pdfrwt>
<totfact> 0.21211220E+04</totfact>
</mgrwt>
</event>
<event>
 8    1  0.3400573E-004  0.1062098E+03  0.7546771E-02  0.1267920E+00
         -1   -1    0    0    0  501 -0.00000000000E+00  0.00000000000E+00  0.66176515272E+02  0.66176515272E+02  0.00000000000E+00 0.  1.
          1   -1    0    0  501    0  0.00000000000E+00 -0.00000000000E+00 -0.18469380096E+03  0.18469380096E+03  0.00000000000E+00 0. -1.
         23    2    1    2    0    0  0.51779163053E+02  0.15628694378E+02 -0.23863470225E+02  0.10885766191E+03  0.91406714913E+02 0.  0.
         23    2    1    2    0    0 -0.51779163053E+02 -0.15628694378E+02 -0.94653815460E+02  0.14201265432E+03  0.91010501542E+02 0.  0.
          5    1    3    3  502    0 -0.16744392471E+02  0.25997232787E+02 -0.23950649987E+02  0.39394852793E+02  0.47000000000E+01 0. -1.
         -5    1    3    3    0  502  0.68523555524E+02 -0.10368538409E+02  0.87179761029E-01  0.69462809119E+02  0.47000000000E+01 0.  1.
          5    1    4    4  503    0 -0.39344059095E+02  0.29923425858E+02 -0.76510195128E+02  0.91210012387E+02  0.47000000000E+01 0. -1.
         -5    1    4    4    0  503 -0.12435103958E+02 -0.45552120236E+02 -0.18143620333E+02  0.50802641932E+02  0.47000000000E+01 0.  1.
<mgrwt>
<rscale>  0 0.10612452E+03</rscale>
<asrwt>0</asrwt>
<pdfrwt beam="1">  1        1 0.28414430E-01 0.10620982E+03</pdfrwt>
<pdfrwt beam="2">  1       -1 0.10181003E-01 0.10620982E+03</pdfrwt>
<totfact> 0.89089839E+03</totfact>
</mgrwt>
</event>
<event>
 8    1  0.3400573E-004  0.1692998E+03  0.7546771E-02  0.1178814E+00
         -3   -1    0    0    0  501 -0.00000000000E+00  0.00000000000E+00  0.26574958600E+03  0.26574958600E+03  0.00000000000E+00 0.  1.
          3   -1    0    0  501    0  0.00000000000E+00 -0.00000000000E+00 -0.11329523810E+03  0.11329523810E+03  0.00000000000E+00 0. -1.
         23    2    1    2    0    0  0.28860759684E+02  0.14049034878E+03  0.12005351263E+03  0.20754583511E+03  0.89955245695E+02 0.  0.
         23    2    1    2    0    0 -0.28860759684E+02 -0.14049034878E+03  0.32400835269E+02  0.17149898899E+03  0.88270082983E+02 0.  0.
          5    1    4    4  502    0 -0.40519574632E+02 -0.91000618539E+02 -0.16169056682E+02  0.10102710971E+03  0.47000000000E+01 0. -1.
         -5    1    4    4    0  502  0.11658814948E+02 -0.49489730238E+02  0.48569891951E+02  0.70471879279E+02  0.47000000000E+01 0.  1.
          5    1    3    3  503    0 -0.25448095538E+02  0.11329300031E+02  0.28359978683E+02  0.40029201798E+02  0.47000000000E+01 0. -1.
         -5    1    3    3    0  503  0.54308855222E+02  0.12916104875E+03  0.91693533947E+02  0.16751663331E+03  0.47000000000E+01 0.  1.
<mgrwt>
<rscale>  0 0.16907704E+03</rscale>
<asrwt>0</asrwt>
<pdfrwt beam="1">  1        3 0.17430037E-01 0.16929982E+03</pdfrwt>
<pdfrwt beam="2">  1       -3 0.40884551E-01 0.16929982E+03</pdfrwt>
<totfact> 0.40720751E+02</totfact>
</mgrwt>
</event>
<event>
 8    1  0.3400573E-004  0.2406769E+03  0.7546771E-02  0.1119481E+00
         -4   -1    0    0    0  501 -0.00000000000E+00  0.00000000000E+00  0.28621649647E+03  0.28621649647E+03  0.00000000000E+00 0.  1.
          4   -1    0    0  501    0  0.00000000000E+00 -0.00000000000E+00 -0.24595535007E+03  0.24595535007E+03  0.00000000000E+00 0. -1.
         23    2    1    2    0    0  0.19347185497E+03  0.10937818682E+03  0.13304888678E+03  0.27500436398E+03  0.92360421790E+02 0.  0.
         23    2    1    2    0    0 -0.19347185497E+03 -0.10937818682E+03 -0.92787740372E+02  0.25716748256E+03  0.90169855851E+02 0.  0.
          5    1    3    3  502    0  0.16671271342E+01  0.32868260642E+02  0.10654596204E+02  0.34910060022E+02  0.47000000000E+01 0. -1.
         -5    1    3    3    0  502  0.19180472784E+03  0.76509926182E+02  0.12239429057E+03  0.24009430395E+03  0.47000000000E+01 0.  1.
          5    1    4    4  503    0 -0.13392549287E+03 -0.48817589015E+02 -0.96205953320E+02  0.17203740899E+03  0.47000000000E+01 0. -1.
         -5    1    4    4    0  503 -0.59546362105E+02 -0.60560597809E+02  0.34182129475E+01  0.85130073574E+02  0.47000000000E+01 0.  1.
<mgrwt>
<rscale>  0 0.24046865E+03</rscale>
<asrwt>0</asrwt>
<pdfrwt beam="1">  1        4 0.37839284E-01 0.24067695E+03</pdfrwt>
<pdfrwt beam="2">  1       -4 0.44033307E-01 0.24067695E+03</pdfrwt>
<totfact> 0.61890773E+01</totfact>
</mgrwt>
</event>
<event>
 8    1  0.3400573E-004  0.1031756E+03  0.7546771E-02  0.1274289E+00
          2   -1    0    0  501    0  0.00000000000E+00  0.00000000000E+00  0.16530508297E+03  0.16530508297E+03  0.00000000000E+00 0. -1.
         -2   -1    0    0    0  501 -0.00000000000E+00 -0.00000000000E+00 -0.83337882406E+02  0.83337882406E+02  0.00000000000E+00 0.  1.
         23    2    1    2    0    0  0.42445057095E+01 -0.43009376440E+02 -0.19458710783E+02  0.10396253475E+03  0.92529697478E+02 0.  0.
         23    2    1    2    0    0 -0.42445057095E+01  0.43009376440E+02  0.10142591135E+03  0.14468043063E+03  0.93687721843E+02 0.  0.
          5    1    3    3  502    0 -0.15573541135E+02  0.22361010728E+02  0.10026555474E+02  0.29413802864E+02  0.47000000000E+01 0. -1.
         -5    1    4    4    0  503  0.29504649121E+02  0.50693417313E+02  0.32044553530E+02  0.67002166305E+02  0.47000000000E+01 0.  1.
          5    1    4    4  503    0 -0.33749154831E+02 -0.76840408727E+01  0.69381357817E+02  0.77678264325E+02  0.47000000000E+01 0. -1.
         -5    1    3    3    0  502  0.19818046845E+02 -0.65370387168E+02 -0.29485266257E+02  0.74548731883E+02  0.47000000000E+01 0.  1.
<mgrwt>
<rscale>  0 0.10291203E+03</rscale>
<asrwt>0</asrwt>
<pdfrwt beam="1">  1        2 0.25431551E-01 0.10317563E+03</pdfrwt>
<pdfrwt beam="2">  1       -2 0.12821213E-01 0.10317563E+03</pdfrwt>
<totfact> 0.86486525E+03</totfact>
</mgrwt>
</event>
<event>
 8    1  0.3400573E-004  0.1003051E+03  0.7546771E-02  0.1281068E+00
         -1   -1    0    0    0  501 -0.00000000000E+00  0.00000000000E+00  0.32675181750E+03  0.32675181750E+03  0.00000000000E+00 0.  1.
          1   -1    0    0  501    0  0.00000000000E+00 -0.00000000000E+00 -0.33513805363E+02  0.33513805363E+02  0.00000000000E+00 0. -1.
         23    2    1    2    0    0  0.31351008364E+02  0.22994201737E+02  0.20686376898E+03  0.22989938583E+03  0.92463450323E+02 0.  0.
         23    2    1    2    0    0 -0.31351008364E+02 -0.22994201737E+02  0.86374243150E+02  0.13036623704E+03  0.89572466976E+02 0.  0.
          5    1    3    3  502    0 -0.14522286304E+02 -0.27762112247E+02  0.68698951163E+02  0.75652280645E+02  0.47000000000E+01 0. -1.
         -5    1    4    4    0  503 -0.23329870944E+02  0.12330628795E+02  0.89765263951E+02  0.93681481077E+02  0.47000000000E+01 0.  1.
          5    1    4    4  503    0 -0.80211374205E+01 -0.35324830532E+02 -0.33910208005E+01  0.36684755958E+02  0.47000000000E+01 0. -1.
         -5    1    3    3    0  502  0.45873294668E+02  0.50756313984E+02  0.13816481782E+03  0.15424710518E+03  0.47000000000E+01 0.  1.
<mgrwt>
<rscale>  0 0.99633732E+02</rscale>
<asrwt>0</asrwt>
<pdfrwt beam="1">  1        1 0.51559703E-02 0.10030508E+03</pdfrwt>
<pdfrwt beam="2">  1       -1 0.50269508E-01 0.10030508E+03</pdfrwt>
<totfact> 0.60193167E+03</totfact>
</mgrwt>
</event>
<event>
 8    1  0.3400573E-004  0.1047648E+03  0.7546771E-02  0.1274916E+00
         -1   -1    0    0    0  501 -0.00000000000E+00  0.00000000000E+00  0.55413563030E+03  0.55413563030E+03  0.00000000000E+00 0.  1.
          1   -1    0    0  501    0  0.00000000000E+00 -0.00000000000E+00 -0.18253608618E+02  0.18253608618E+02  0.00000000000E+00 0. -1.
         23    2    1    2    0    0  0.32251954968E+02  0.12570584068E+01  0.27995778084E+03  0.29891809905E+03  0.99668962533E+02 0.  0.
         23    2    1    2    0    0 -0.32251954968E+02 -0.12570584068E+01  0.25592424084E+03  0.27347113987E+03  0.90815629130E+02 0.  0.
          5    1    4    4  502    0  0.29320262833E+02 -0.11343664979E+01  0.12824680913E+03  0.13164459219E+03  0.47000000000E+01 0. -1.
         -5    1    3    3    0  503 -0.11035064158E+02  0.26437031355E+02  0.21405256469E+03  0.21601222122E+03  0.47000000000E+01 0.  1.
          5    1    3    3  503    0  0.43287019126E+02 -0.25179972948E+02  0.65905216150E+02  0.82905877827E+02  0.47000000000E+01 0. -1.
         -5    1    4    4    0  502 -0.61572217801E+02 -0.12269190893E+00  0.12767743171E+03  0.14182654768E+03  0.47000000000E+01 0.  1.
<mgrwt>
<rscale>  0 0.10260280E+03</rscale>
<asrwt>0</asrwt>
<pdfrwt beam="1">  1        1 0.28082479E-02 0.10476484E+03</pdfrwt>
<pdfrwt beam="2">  1       -1 0.85251623E-01 0.10476484E+03</pdfrwt>
<totfact> 0.49950637E+03</totfact>
</mgrwt>
</event>
<event>
 8    1  0.3400573E-004  0.9705638E+02  0.7546771E-02  0.1287390E+00
          1   -1    0    0  501    0  0.00000000000E+00  0.00000000000E+00  0.45172436642E+03  0.45172436642E+03  0.00000000000E+00 0. -1.
         -1   -1    0    0    0  501 -0.00000000000E+00 -0.00000000000E+00 -0.23647281941E+02  0.23647281941E+02  0.00000000000E+00 0.  1.
         23    2    1    2    0    0 -0.44945056672E+01  0.32647363949E+02  0.30141219540E+03  0.31665320626E+03  0.91290144836E+02 0.  0.
         23    2    1    2    0    0  0.44945056672E+01 -0.32647363949E+02  0.12666488909E+03  0.15871844211E+03  0.89785849577E+02 0.  0.
          5    1    4    4  502    0 -0.38554853970E+02 -0.28872709778E+02  0.44413365620E+02  0.65686735193E+02  0.47000000000E+01 0. -1.
         -5    1    3    3    0  503 -0.24878817629E+02  0.58160360919E+02  0.21478200689E+03  0.22395308355E+03  0.47000000000E+01 0.  1.
          5    1    3    3  503    0  0.20384311962E+02 -0.25512996970E+02  0.86630188510E+02  0.92700122707E+02  0.47000000000E+01 0. -1.
         -5    1    4    4    0  502  0.43049359637E+02 -0.37746541703E+01  0.82251523465E+02  0.93031706915E+02  0.47000000000E+01 0.  1.
<mgrwt>
<rscale>  0 0.96701047E+02</rscale>
<asrwt>0</asrwt>
<pdfrwt beam="1">  1        1 0.69496050E-01 0.97056383E+02</pdfrwt>
<pdfrwt beam="2">  1       -1 0.36380437E-02 0.97056383E+02</pdfrwt>
<totfact> 0.13457789E+04</totfact>
</mgrwt>
</event>
<event>
 8    1  0.3400573E-004  0.9816819E+02  0.7546771E-02  0.1284464E+00
          4   -1    0    0  501    0  0.00000000000E+00  0.00000000000E+00  0.10996119831E+03  0.10996119831E+03  0.00000000000E+00 0. -1.
         -4   -1    0    0    0  501 -0.00000000000E+00 -0.00000000000E+00 -0.90470041890E+02  0.90470041890E+02  0.00000000000E+00 0.  1.
         23    2    1    2    0    0 -0.18123775235E+02 -0.32284770031E+02  0.28830087598E+02  0.10231405999E+03  0.90918729176E+02 0.  0.
         23    2    1    2    0    0  0.18123775235E+02  0.32284770031E+02 -0.93389311768E+01  0.98117180216E+02  0.90382453017E+02 0.  0.
          5    1    4    4  502    0  0.16209269075E+02 -0.25012489968E+02  0.17240239082E+02  0.34751703584E+02  0.47000000000E+01 0. -1.
         -5    1    4    4    0  502  0.19145061594E+01  0.57297259999E+02 -0.26579170259E+02  0.63365476633E+02  0.47000000000E+01 0.  1.
          5    1    3    3  503    0 -0.39917117385E+02 -0.50947623562E+02  0.56663038197E+01  0.65140107506E+02  0.47000000000E+01 0. -1.
         -5    1    3    3    0  503  0.21793342150E+02  0.18662853531E+02  0.23163783778E+02  0.37173952479E+02  0.47000000000E+01 0.  1.
<mgrwt>
<rscale>  0 0.98043835E+02</rscale>
<asrwt>0</asrwt>
<pdfrwt beam="1">  1        4 0.16917108E-01 0.98168187E+02</pdfrwt>
<pdfrwt beam="2">  1       -4 0.13918468E-01 0.98168187E+02</pdfrwt>
<totfact> 0.19892524E+03</totfact>
</mgrwt>
</event>
<event>
 7    1  0.3400573E-004  0.2395106E+03  0.7546771E-02  0.1123606E+00
         -1   -1    0    0    0  501 -0.00000000000E+00  0.00000000000E+00  0.58706596166E+02  0.58706596166E+02  0.00000000000E+00 0.  1.
          1   -1    0    0  501    0  0.00000000000E+00 -0.00000000000E+00 -0.92023717803E+03  0.92023717803E+03  0.00000000000E+00 0. -1.
         23    2    1    2    0    0 -0.15375523349E+03  0.12770863384E+03 -0.48937796775E+03  0.53637976485E+03  0.90897138772E+02 0.  0.
          5    1    1    2  502    0  0.11110804225E+03 -0.83028921822E+01 -0.15292800456E+03  0.18926964799E+03  0.47000000000E+01 0. -1.
         -5    1    1    2    0  502  0.42647191239E+02 -0.11940574166E+03 -0.21922460955E+03  0.25329436136E+03  0.47000000000E+01 0.  1.
          5    1    3    3  503    0 -0.16381398620E+03  0.10744127276E+03 -0.42568165099E+03  0.46862096321E+03  0.47000000000E+01 0. -1.
         -5    1    3    3    0  503  0.10058752709E+02  0.20267361078E+02 -0.63696316761E+02  0.67758801642E+02  0.47000000000E+01 0.  1.
<mgrwt>
<rscale>  0 0.23436269E+03</rscale>
<asrwt>0</asrwt>
<pdfrwt beam="1">  1        1 0.14157495E+00 0.23951061E+03</pdfrwt>
<pdfrwt beam="2">  1       -1 0.90317843E-02 0.23951061E+03</pdfrwt>
<totfact> 0.13153790E+03</totfact>
</mgrwt>
</event>
<event>
 8    1  0.3400573E-004  0.1114692E+03  0.7546771E-02  0.1258520E+00
         -1   -1    0    0    0  501 -0.00000000000E+00  0.00000000000E+00  0.75502722455E+02  0.75502722455E+02  0.00000000000E+00 0.  1.
          1   -1    0    0  501    0  0.00000000000E+00 -0.00000000000E+00 -0.16306695972E+03  0.16306695972E+03  0.00000000000E+00 0. -1.
         23    2    1    2    0    0 -0.18691021437E+02  0.59031643172E+02 -0.36418553660E+02  0.11592684788E+03  0.90986998142E+02 0.  0.
         23    2    1    2    0    0  0.18691021437E+02 -0.59031643172E+02 -0.51145683601E+02  0.12264283429E+03  0.92689237099E+02 0.  0.
          5    1    3    3  502    0 -0.22563157167E+02 -0.19921073024E+02 -0.57124024194E+01  0.30994624585E+02  0.47000000000E+01 0. -1.
         -5    1    4    4    0  503 -0.34423577388E+02 -0.41680073805E+02 -0.33882712275E+02  0.63971395355E+02  0.47000000000E+01 0.  1.
          5    1    4    4  503    0  0.53114598825E+02 -0.17351569367E+02 -0.17262971326E+02  0.58671438936E+02  0.47000000000E+01 0. -1.
         -5    1    3    3    0  502  0.38721357299E+01  0.78952716196E+02 -0.30706151241E+02  0.84932223296E+02  0.47000000000E+01 0.  1.
<mgrwt>
<rscale>  0 0.11111467E+03</rscale>
<asrwt>0</asrwt>
<pdfrwt beam="1">  1        1 0.25087225E-01 0.11146921E+03</pdfrwt>
<pdfrwt beam="2">  1       -1 0.11615803E-01 0.11146921E+03</pdfrwt>
<totfact> 0.85396911E+03</totfact>
</mgrwt>
</event>
<event>
 8    1  0.3400573E-004  0.9247438E+02  0.7546771E-02  0.1297306E+00
         -1   -1    0    0    0  501 -0.00000000000E+00  0.00000000000E+00  0.12407984138E+02  0.12407984138E+02  0.00000000000E+00 0.  1.
          1   -1    0    0  501    0  0.00000000000E+00 -0.00000000000E+00 -0.95027281946E+03  0.95027281946E+03  0.00000000000E+00 0. -1.
         23    2    1    2    0    0 -0.18709645933E+00  0.44430061534E+01 -0.72223929559E+03  0.72806221003E+03  0.91788922406E+02 0.  0.
         23    2    1    2    0    0  0.18709645933E+00 -0.44430061534E+01 -0.21562553973E+03  0.23461859356E+03  0.92367395508E+02 0.  0.
          5    1    4    4  502    0  0.33571407208E+02  0.28940792303E+02 -0.11611490180E+03  0.12437591914E+03  0.47000000000E+01 0. -1.
         -5    1    3    3    0  503 -0.28942335482E+02 -0.33170558715E+02 -0.33667552520E+03  0.33957391540E+03  0.47000000000E+01 0.  1.
          5    1    3    3  503    0  0.28755239023E+02  0.37613564869E+02 -0.38556377038E+03  0.38848829463E+03  0.47000000000E+01 0. -1.
         -5    1    4    4    0  502 -0.33384310749E+02 -0.33383798456E+02 -0.99510637933E+02  0.11024267443E+03  0.47000000000E+01 0.  1.
<mgrwt>
<rscale>  0 0.92329591E+02</rscale>
<asrwt>0</asrwt>
<pdfrwt beam="1">  1        1 0.14619589E+00 0.92474381E+02</pdfrwt>
<pdfrwt beam="2">  1       -1 0.19089197E-02 0.92474381E+02</pdfrwt>
<totfact> 0.11978049E+04</totfact>
</mgrwt>
</event>
<event>
 8    1  0.5045854E-004  0.9149305E+02  0.7546771E-02  0.1300668E+00
         -2   -1    0    0    0  501 -0.00000000000E+00  0.00000000000E+00  0.28641737466E+03  0.28641737466E+03  0.00000000000E+00 0.  1.
          2   -1    0    0  501    0  0.00000000000E+00 -0.00000000000E+00 -0.70013178291E+02  0.70013178291E+02  0.00000000000E+00 0. -1.
         23    2    1    2    0    0 -0.21716466483E+01  0.41991271812E+01 -0.29603446370E+02  0.93960100054E+02  0.89049355118E+02 0.  0.
         23    2    1    2    0    0  0.21716466483E+01 -0.41991271812E+01  0.24600764274E+03  0.26247045290E+03  0.91370835828E+02 0.  0.
          5    1    4    4  502    0  0.13847237518E+02  0.38039043541E+02  0.69720113121E+02  0.80757036808E+02  0.47000000000E+01 0. -1.
         -5    1    3    3    0  503  0.21493838242E+01 -0.40433325413E+02 -0.14151799804E+01  0.40786840882E+02  0.47000000000E+01 0.  1.
          5    1    3    3  503    0 -0.43210304726E+01  0.44632452594E+02 -0.28188266389E+02  0.53173259172E+02  0.47000000000E+01 0. -1.
         -5    1    4    4    0  502 -0.11675590870E+02 -0.42238170722E+02  0.17628752962E+03  0.18171341609E+03  0.47000000000E+01 0.  1.
<mgrwt>
<rscale>  0 0.90907886E+02</rscale>
<asrwt>0</asrwt>
<pdfrwt beam="1">  1        2 0.10771258E-01 0.91493051E+02</pdfrwt>
<pdfrwt beam="2">  1       -2 0.44064211E-01 0.91493051E+02</pdfrwt>
<totfact> 0.27048761E+03</totfact>
</mgrwt>
</event>
<event>
 8    1  0.3400573E-004  0.1414881E+03  0.7546771E-02  0.1212750E+00
          2   -1    0    0  501    0  0.00000000000E+00  0.00000000000E+00  0.82147204896E+03  0.82147204896E+03  0.00000000000E+00 0. -1.
         -2   -1    0    0    0  501 -0.00000000000E+00 -0.00000000000E+00 -0.36127979134E+02  0.36127979134E+02  0.00000000000E+00 0.  1.
         23    2    1    2    0    0 -0.10452277327E+03 -0.27611304166E+02  0.13688302991E+03  0.19388276155E+03  0.84653216701E+02 0.  0.
         23    2    1    2    0    0  0.10452277327E+03  0.27611304166E+02  0.64846103992E+03  0.66371726655E+03  0.91277025439E+02 0.  0.
          5    1    4    4  502    0  0.57723566403E+02 -0.30926126496E+02  0.33656022020E+03  0.34290422459E+03  0.47000000000E+01 0. -1.
         -5    1    4    4    0  502  0.46799206869E+02  0.58537430662E+02  0.31190081972E+03  0.32081304196E+03  0.47000000000E+01 0.  1.
          5    1    3    3  503    0 -0.41943070618E+02 -0.13591249729E+02  0.11921939548E+03  0.12719786752E+03  0.47000000000E+01 0. -1.
         -5    1    3    3    0  503 -0.62579702654E+02 -0.14020054437E+02  0.17663634430E+02  0.66684894031E+02  0.47000000000E+01 0.  1.
<mgrwt>
<rscale>  0 0.14043138E+03</rscale>
<asrwt>0</asrwt>
<pdfrwt beam="1">  1        2 0.12638030E+00 0.14148813E+03</pdfrwt>
<pdfrwt beam="2">  1       -2 0.55581513E-02 0.14148813E+03</pdfrwt>
<totfact> 0.55495662E+03</totfact>
</mgrwt>
</event>
<event>
 8    1  0.3400573E-004  0.9888266E+02  0.7546771E-02  0.1286627E+00
          2   -1    0    0  501    0  0.00000000000E+00  0.00000000000E+00  0.10155178579E+04  0.10155178579E+04  0.00000000000E+00 0. -1.
         -2   -1    0    0    0  501 -0.00000000000E+00 -0.00000000000E+00 -0.10536653600E+02  0.10536653600E+02  0.00000000000E+00 0.  1.
         23    2    1    2    0    0 -0.23201015723E+02 -0.25376352114E+02  0.68571752460E+03  0.69182842510E+03  0.85063504801E+02 0.  0.
         23    2    1    2    0    0  0.23201015723E+02  0.25376352114E+02  0.31926367972E+03  0.33422608642E+03  0.92712098891E+02 0.  0.
          5    1    4    4  502    0  0.20353115979E+02  0.48406779676E+02  0.29727380715E+03  0.30191268948E+03  0.47000000000E+01 0. -1.
         -5    1    3    3    0  503 -0.70162506482E+01 -0.55629534545E+02  0.46867071828E+03  0.47203623278E+03  0.47000000000E+01 0.  1.
          5    1    3    3  503    0 -0.16184765075E+02  0.30253182431E+02  0.21704680632E+03  0.21979219232E+03  0.47000000000E+01 0. -1.
         -5    1    4    4    0  502  0.28478997439E+01 -0.23030427561E+02  0.21989872563E+02  0.32313396942E+02  0.47000000000E+01 0.  1.
<mgrwt>
<rscale>  0 0.97049099E+02</rscale>
<asrwt>0</asrwt>
<pdfrwt beam="1">  1        2 0.15623344E+00 0.98882656E+02</pdfrwt>
<pdfrwt beam="2">  1       -2 0.16210244E-02 0.98882656E+02</pdfrwt>
<totfact> 0.25030445E+04</totfact>
</mgrwt>
</event>
<event>
 8    1  0.3400573E-004  0.1132996E+03  0.7546771E-02  0.1255169E+00
          1   -1    0    0  501    0  0.00000000000E+00  0.00000000000E+00  0.16647042909E+03  0.16647042909E+03  0.00000000000E+00 0. -1.
         -1   -1    0    0    0  501 -0.00000000000E+00 -0.00000000000E+00 -0.10808751956E+03  0.10808751956E+03  0.00000000000E+00 0.  1.
         23    2    1    2    0    0 -0.34883245318E+02  0.55614918298E+02  0.10361382480E+03  0.15256358503E+03  0.90719142669E+02 0.  0.
         23    2    1    2    0    0  0.34883245318E+02 -0.55614918298E+02 -0.45230915265E+02  0.12199436362E+03  0.92341372730E+02 0.  0.
          5    1    4    4  502    0 -0.72675228257E+00 -0.72778770593E+02 -0.34969463584E+02  0.80884059006E+02  0.47000000000E+01 0. -1.
         -5    1    4    4    0  502  0.35609997601E+02  0.17163852295E+02 -0.10261451681E+02  0.41110304612E+02  0.47000000000E+01 0.  1.
          5    1    3    3  503    0 -0.46808527681E+02  0.48489334779E+01  0.14960640594E+02  0.49603036062E+02  0.47000000000E+01 0. -1.
         -5    1    3    3    0  503  0.11925282363E+02  0.50765984820E+02  0.88653184208E+02  0.10296054897E+03  0.47000000000E+01 0.  1.
<mgrwt>
<rscale>  0 0.11296856E+03</rscale>
<asrwt>0</asrwt>
<pdfrwt beam="1">  1        1 0.25610835E-01 0.11329955E+03</pdfrwt>
<pdfrwt beam="2">  1       -1 0.16628849E-01 0.11329955E+03</pdfrwt>
<totfact> 0.47761728E+03</totfact>
</mgrwt>
</event>
<event>
 8    1  0.3400573E-004  0.9508598E+02  0.7546771E-02  0.1292524E+00
         -1   -1    0    0    0  501 -0.00000000000E+00  0.00000000000E+00  0.21940508750E+03  0.21940508750E+03  0.00000000000E+00 0.  1.
          1   -1    0    0  501    0  0.00000000000E+00 -0.00000000000E+00 -0.70387946312E+02  0.70387946312E+02  0.00000000000E+00 0. -1.
         23    2    1    2    0    0 -0.16704973928E+02  0.15564946765E+02 -0.20006208589E+02  0.97167859014E+02  0.92303958320E+02 0.  0.
         23    2    1    2    0    0  0.16704973928E+02 -0.15564946765E+02  0.16902334978E+03  0.19262517480E+03  0.89522295961E+02 0.  0.
          5    1    4    4  502    0 -0.59796369534E+01  0.26913268108E+02  0.16189273176E+02  0.32315052596E+02  0.47000000000E+01 0. -1.
         -5    1    4    4    0  502  0.22684610881E+02 -0.42478214873E+02  0.15283407660E+03  0.16031012220E+03  0.47000000000E+01 0.  1.
          5    1    3    3  503    0 -0.33639437901E+02  0.45546310296E+02 -0.24971224999E+02  0.62062309350E+02  0.47000000000E+01 0. -1.
         -5    1    3    3    0  503  0.16934463974E+02 -0.29981363531E+02  0.49650164099E+01  0.35105549664E+02  0.47000000000E+01 0.  1.
<mgrwt>
<rscale>  0 0.94404222E+02</rscale>
<asrwt>0</asrwt>
<pdfrwt beam="1">  1        1 0.10828915E-01 0.95085984E+02</pdfrwt>
<pdfrwt beam="2">  1       -1 0.33754629E-01 0.95085984E+02</pdfrwt>
<totfact> 0.44784872E+03</totfact>
</mgrwt>
</event>
<event>
 8    1  0.3400573E-004  0.9377443E+02  0.7546771E-02  0.1295791E+00
          3   -1    0    0  501    0  0.00000000000E+00  0.00000000000E+00  0.36226689304E+03  0.36226689304E+03  0.00000000000E+00 0. -1.
         -3   -1    0    0    0  501 -0.00000000000E+00 -0.00000000000E+00 -0.25976330893E+02  0.25976330893E+02  0.00000000000E+00 0.  1.
         23    2    1    2    0    0  0.57341566980E+01 -0.49216383290E+01  0.11042473919E+03  0.14486982643E+03  0.93469462973E+02 0.  0.
         23    2    1    2    0    0 -0.57341566980E+01  0.49216383290E+01  0.22586582296E+03  0.24337339751E+03  0.90322408924E+02 0.  0.
          5    1    3    3  502    0 -0.40510515764E+02 -0.19283271530E+02  0.51966442328E+02  0.68815314986E+02  0.47000000000E+01 0. -1.
         -5    1    4    4    0  503  0.40916071087E+02 -0.48561021448E+00  0.13253425568E+03  0.13878681357E+03  0.47000000000E+01 0.  1.
          5    1    4    4  503    0 -0.46650227785E+02  0.54072485435E+01  0.93331567281E+02  0.10458658394E+03  0.47000000000E+01 0. -1.
         -5    1    3    3    0  502  0.46244672462E+02  0.14361633201E+02  0.58458296858E+02  0.76054511443E+02  0.47000000000E+01 0.  1.
<mgrwt>
<rscale>  0 0.92980282E+02</rscale>
<asrwt>0</asrwt>
<pdfrwt beam="1">  1        3 0.55733364E-01 0.93774429E+02</pdfrwt>
<pdfrwt beam="2">  1       -3 0.39963589E-02 0.93774429E+02</pdfrwt>
<totfact> 0.22270193E+03</totfact>
</mgrwt>
</event>
<event>
 8    1  0.3400573E-004  0.9575513E+02  0.7546771E-02  0.1290417E+00
         -1   -1    0    0    0  501 -0.00000000000E+00  0.00000000000E+00  0.44974839479E+03  0.44974839479E+03  0.00000000000E+00 0.  1.
          1   -1    0    0  501    0  0.00000000000E+00 -0.00000000000E+00 -0.45948979817E+02  0.45948979817E+02  0.00000000000E+00 0. -1.
         23    2    1    2    0    0 -0.12088640150E+02  0.20171607164E+02  0.16543897443E+02  0.97173793009E+02  0.92822500230E+02 0.  0.
         23    2    1    2    0    0  0.12088640150E+02 -0.20171607164E+02  0.38725551753E+03  0.39852358160E+03  0.91110813169E+02 0.  0.
          5    1    4    4  502    0 -0.26093860225E+02 -0.38352147259E+02  0.13803288088E+03  0.14569469086E+03  0.47000000000E+01 0. -1.
         -5    1    4    4    0  502  0.38182500375E+02  0.18180540095E+02  0.24922263665E+03  0.25282889074E+03  0.47000000000E+01 0.  1.
          5    1    3    3  503    0 -0.27544831503E+02 -0.79369783923E+01 -0.29146367888E+02  0.41149898294E+02  0.47000000000E+01 0. -1.
         -5    1    3    3    0  503  0.15456191353E+02  0.28108585556E+02  0.45690265331E+02  0.56023894716E+02  0.47000000000E+01 0.  1.
<mgrwt>
<rscale>  0 0.95337832E+02</rscale>
<asrwt>0</asrwt>
<pdfrwt beam="1">  1        1 0.70690741E-02 0.95755133E+02</pdfrwt>
<pdfrwt beam="2">  1       -1 0.69192058E-01 0.95755133E+02</pdfrwt>
<totfact> 0.21548409E+03</totfact>
</mgrwt>
</event>
<event>
 8    1  0.3400573E-004  0.1024590E+03  0.7546771E-02  0.1276300E+00
          2   -1    0    0  501    0  0.00000000000E+00  0.00000000000E+00  0.33644682974E+02  0.33644682974E+02  0.00000000000E+00 0. -1.
         -2   -1    0    0    0  501 -0.00000000000E+00 -0.00000000000E+00 -0.33568917052E+03  0.33568917052E+03  0.00000000000E+00 0.  1.
         23    2    1    2    0    0  0.18570986531E+02  0.40150097132E+02 -0.94293950696E+02  0.13769158579E+03  0.90059490445E+02 0.  0.
         23    2    1    2    0    0 -0.18570986531E+02 -0.40150097132E+02 -0.20775053685E+03  0.23164226770E+03  0.92417221256E+02 0.  0.
          5    1    3    3  502    0  0.15541500261E+01  0.64144928099E+02 -0.84765013274E+02  0.10641515239E+03  0.47000000000E+01 0. -1.
         -5    1    3    3    0  502  0.17016836505E+02 -0.23994830967E+02 -0.95289374216E+01  0.31276433399E+02  0.47000000000E+01 0.  1.
          5    1    4    4  503    0 -0.29290909864E+02  0.14122871816E+02 -0.26905839589E+02  0.42466776579E+02  0.47000000000E+01 0. -1.
         -5    1    4    4    0  503  0.10719923333E+02 -0.54272968948E+02 -0.18084469726E+03  0.18917549112E+03  0.47000000000E+01 0.  1.
<mgrwt>
<rscale>  0 0.10192450E+03</rscale>
<asrwt>0</asrwt>
<pdfrwt beam="1">  1        2 0.51761053E-02 0.10245904E+03</pdfrwt>
<pdfrwt beam="2">  1       -2 0.51644486E-01 0.10245904E+03</pdfrwt>
<totfact> 0.50043417E+03</totfact>
</mgrwt>
</event>
<event>
 8    1  0.3400573E-004  0.1248546E+03  0.7546771E-02  0.1240213E+00
          1   -1    0    0  501    0  0.00000000000E+00  0.00000000000E+00  0.13789994843E+03  0.13789994843E+03  0.00000000000E+00 0. -1.
         -1   -1    0    0    0  501 -0.00000000000E+00 -0.00000000000E+00 -0.11270860721E+03  0.11270860721E+03  0.00000000000E+00 0.  1.
         23    2    1    2    0    0  0.32058438120E+02  0.60697744417E+02 -0.25609488772E+02  0.11581463750E+03  0.89695176642E+02 0.  0.
         23    2    1    2    0    0 -0.32058438120E+02 -0.60697744417E+02  0.50800830000E+02  0.13479391814E+03  0.10429149729E+03 0.  0.
          5    1    3    3  502    0 -0.28448501389E+02  0.34772381198E+02 -0.20548104547E+02  0.49626105286E+02  0.47000000000E+01 0. -1.
         -5    1    3    3    0  502  0.60506939509E+02  0.25925363219E+02 -0.50613842252E+01  0.66188532217E+02  0.47000000000E+01 0.  1.
          5    1    4    4  503    0 -0.83020667393E+01  0.25766528578E+02  0.33541718879E+02  0.43358680935E+02  0.47000000000E+01 0. -1.
         -5    1    4    4    0  503 -0.23756371380E+02 -0.86464272994E+02  0.17259111121E+02  0.91435237203E+02  0.47000000000E+01 0.  1.
<mgrwt>
<rscale>  0 0.12176510E+03</rscale>
<asrwt>0</asrwt>
<pdfrwt beam="1">  1        1 0.21215377E-01 0.12485462E+03</pdfrwt>
<pdfrwt beam="2">  1       -1 0.17339786E-01 0.12485462E+03</pdfrwt>
<totfact> 0.56990491E+03</totfact>
</mgrwt>
</event>
<event>
 8    1  0.3400573E-004  0.1158678E+03  0.7546771E-02  0.1253400E+00
          1   -1    0    0  501    0  0.00000000000E+00  0.00000000000E+00  0.42051227558E+03  0.42051227558E+03  0.00000000000E+00 0. -1.
         -1   -1    0    0    0  501 -0.00000000000E+00 -0.00000000000E+00 -0.36900866051E+02  0.36900866051E+02  0.00000000000E+00 0.  1.
         23    2    1    2    0    0 -0.47869016084E+02  0.34829113777E+02  0.28614419756E+03  0.30600241126E+03  0.90854081003E+02 0.  0.
         23    2    1    2    0    0  0.47869016084E+02 -0.34829113777E+02  0.97467211971E+02  0.15141073037E+03  0.99603423605E+02 0.  0.
          5    1    3    3  502    0 -0.21626902934E+01  0.56001765314E+02  0.12420273062E+03  0.13634252176E+03  0.47000000000E+01 0. -1.
         -5    1    4    4    0  503  0.43850628368E+02 -0.67275820833E+02  0.82233795798E+02  0.11503651963E+03  0.47000000000E+01 0.  1.
          5    1    4    4  503    0  0.40183877163E+01  0.32446707056E+02  0.15233416173E+02  0.36374210739E+02  0.47000000000E+01 0. -1.
         -5    1    3    3    0  502 -0.45706325791E+02 -0.21172651537E+02  0.16194146694E+03  0.16965988950E+03  0.47000000000E+01 0.  1.
<mgrwt>
<rscale>  0 0.11396416E+03</rscale>
<asrwt>0</asrwt>
<pdfrwt beam="1">  1        1 0.64694193E-01 0.11586782E+03</pdfrwt>
<pdfrwt beam="2">  1       -1 0.56770566E-02 0.11586782E+03</pdfrwt>
<totfact> 0.77847753E+03</totfact>
</mgrwt>
</event>
<event>
 8    1  0.3400573E-004  0.9824940E+02  0.7546771E-02  0.1284633E+00
         -2   -1    0    0    0  501 -0.00000000000E+00  0.00000000000E+00  0.35487022646E+02  0.35487022646E+02  0.00000000000E+00 0.  1.
          2   -1    0    0  501    0  0.00000000000E+00 -0.00000000000E+00 -0.32565760522E+03  0.32565760522E+03  0.00000000000E+00 0. -1.
         23    2    1    2    0    0 -0.16522952200E+02 -0.33132371649E+02 -0.69005416476E+02  0.11913847912E+03  0.89785676497E+02 0.  0.
         23    2    1    2    0    0  0.16522952200E+02  0.33132371649E+02 -0.22116516609E+03  0.24200614874E+03  0.91006501601E+02 0.  0.
          5    1    3    3  502    0  0.17297120410E+02 -0.38945852695E+02 -0.72602265466E+02  0.84315768202E+02  0.47000000000E+01 0. -1.
         -5    1    3    3    0  502 -0.33820072610E+02  0.58134810460E+01  0.35968489895E+01  0.34822710921E+02  0.47000000000E+01 0.  1.
          5    1    4    4  503    0  0.39154655277E+02  0.31988150071E+02 -0.21047487671E+03  0.21651349265E+03  0.47000000000E+01 0. -1.
         -5    1    4    4    0  503 -0.22631703077E+02  0.11442215781E+01 -0.10690289384E+02  0.25492656085E+02  0.47000000000E+01 0.  1.
<mgrwt>
<rscale>  0 0.97965743E+02</rscale>
<asrwt>0</asrwt>
<pdfrwt beam="1">  1        2 0.50101172E-01 0.98249404E+02</pdfrwt>
<pdfrwt beam="2">  1       -2 0.54595417E-02 0.98249404E+02</pdfrwt>
<totfact> 0.15605428E+04</totfact>
</mgrwt>
</event>
<event>
 8    1  0.3400573E-004  0.9224999E+02  0.7546771E-02  0.1298284E+00
          4   -1    0    0  501    0  0.00000000000E+00  0.00000000000E+00  0.21993854867E+03  0.21993854867E+03  0.00000000000E+00 0. -1.
         -4   -1    0    0    0  501 -0.00000000000E+00 -0.00000000000E+00 -0.80548609899E+02  0.80548609899E+02  0.00000000000E+00 0.  1.
         23    2    1    2    0    0  0.72705801819E+01  0.29876863364E+00  0.17896082497E+03  0.20133811711E+03  0.91962546330E+02 0.  0.
         23    2    1    2    0    0 -0.72705801819E+01 -0.29876863364E+00 -0.39570886198E+02  0.99149041463E+02  0.90618578612E+02 0.  0.
          5    1    4    4  502    0 -0.27264602407E+02  0.14960162188E+02  0.17935765451E+02  0.36206997658E+02  0.47000000000E+01 0. -1.
         -5    1    4    4    0  502  0.19994022225E+02 -0.15258930821E+02 -0.57506651649E+02  0.62942043805E+02  0.47000000000E+01 0.  1.
          5    1    3    3  503    0 -0.34158006616E+02 -0.21601250313E+01  0.14007265239E+03  0.14427014072E+03  0.47000000000E+01 0. -1.
         -5    1    3    3    0  503  0.41428586798E+02  0.24588936650E+01  0.38888172577E+02  0.57067976384E+02  0.47000000000E+01 0.  1.
<mgrwt>
<rscale>  0 0.91913220E+02</rscale>
<asrwt>0</asrwt>
<pdfrwt beam="1">  1        4 0.33836700E-01 0.92249989E+02</pdfrwt>
<pdfrwt beam="2">  1       -4 0.12392094E-01 0.92249989E+02</pdfrwt>
<totfact> 0.67470159E+02</totfact>
</mgrwt>
</event>
<event>
 8    1  0.3400573E-004  0.9238845E+02  0.7546771E-02  0.1297465E+00
          1   -1    0    0  501    0  0.00000000000E+00  0.00000000000E+00  0.44489008099E+03  0.44489008099E+03  0.00000000000E+00 0. -1.
         -1   -1    0    0    0  501 -0.00000000000E+00 -0.00000000000E+00 -0.54128765933E+02  0.54128765933E+02  0.00000000000E+00 0.  1.
         23    2    1    2    0    0  0.34209724438E+01 -0.14926255950E+02 -0.55805066668E+01  0.92051445887E+02  0.90597077580E+02 0.  0.
         23    2    1    2    0    0 -0.34209724438E+01  0.14926255950E+02  0.39634182172E+03  0.40696740103E+03  0.91110535556E+02 0.  0.
          5    1    4    4  502    0  0.32793709439E+01  0.42853842161E+02  0.34699579503E+03  0.34967896395E+03  0.47000000000E+01 0. -1.
         -5    1    3    3    0  503 -0.19442097529E+02 -0.45222228860E+02 -0.16751452384E+02  0.52208680278E+02  0.47000000000E+01 0.  1.
          5    1    3    3  503    0  0.22863069973E+02  0.30295972910E+02  0.11170945718E+02  0.39842765609E+02  0.47000000000E+01 0. -1.
         -5    1    4    4    0  502 -0.67003433877E+01 -0.27927586210E+02  0.49346026691E+02  0.57288437081E+02  0.47000000000E+01 0.  1.
<mgrwt>
<rscale>  0 0.92261611E+02</rscale>
<asrwt>0</asrwt>
<pdfrwt beam="1">  1        1 0.68444625E-01 0.92388451E+02</pdfrwt>
<pdfrwt beam="2">  1       -1 0.83275028E-02 0.92388451E+02</pdfrwt>
<totfact> 0.40425765E+03</totfact>
</mgrwt>
</event>
<event>
 8    1  0.3400573E-004  0.9268643E+02  0.7546771E-02  0.1297385E+00
         -2   -1    0    0    0  501 -0.00000000000E+00  0.00000000000E+00  0.11184714071E+03  0.11184714071E+03  0.00000000000E+00 0.  1.
          2   -1    0    0  501    0  0.00000000000E+00 -0.00000000000E+00 -0.79144115247E+02  0.79144115247E+02  0.00000000000E+00 0. -1.
         23    2    1    2    0    0 -0.90167963119E+01 -0.25562611471E+01 -0.41925059539E+01  0.91231270088E+02  0.90651698544E+02 0.  0.
         23    2    1    2    0    0  0.90167963119E+01  0.25562611471E+01  0.36895531419E+02  0.99759985871E+02  0.92211373786E+02 0.  0.
          5    1    3    3  502    0 -0.21998419540E+02  0.33495098409E+02 -0.24911032308E+02  0.47418367858E+02  0.47000000000E+01 0. -1.
         -5    1    4    4    0  503  0.50298188673E+02  0.34278118251E+01  0.15117300302E+02  0.52842032948E+02  0.47000000000E+01 0.  1.
          5    1    4    4  503    0 -0.41281392361E+02 -0.87155067803E+00  0.21778231117E+02  0.46917952922E+02  0.47000000000E+01 0. -1.
         -5    1    3    3    0  502  0.12981623228E+02 -0.36051359557E+02  0.20718526354E+02  0.43812902229E+02  0.47000000000E+01 0.  1.
<mgrwt>
<rscale>  0 0.92296086E+02</rscale>
<asrwt>0</asrwt>
<pdfrwt beam="1">  1        2 0.12176018E-01 0.92686431E+02</pdfrwt>
<pdfrwt beam="2">  1       -2 0.17207252E-01 0.92686431E+02</pdfrwt>
<totfact> 0.12291686E+04</totfact>
</mgrwt>
</event>
<event>
 8    1  0.3400573E-004  0.1023177E+03  0.7546771E-02  0.1275901E+00
          1   -1    0    0  501    0  0.00000000000E+00  0.00000000000E+00  0.49382353266E+02  0.49382353266E+02  0.00000000000E+00 0. -1.
         -1   -1    0    0    0  501 -0.00000000000E+00 -0.00000000000E+00 -0.39787256004E+03  0.39787256004E+03  0.00000000000E+00 0.  1.
         23    2    1    2    0    0  0.24156588598E+02  0.39242236644E+02 -0.20367100337E+02  0.10354910174E+03  0.90466036639E+02 0.  0.
         23    2    1    2    0    0 -0.24156588598E+02 -0.39242236644E+02 -0.32812310643E+03  0.34370581156E+03  0.91353259484E+02 0.  0.
          5    1    3    3  502    0  0.51392392889E+02  0.37056890422E+02 -0.34643415420E+02  0.72364683421E+02  0.47000000000E+01 0. -1.
         -5    1    4    4    0  503 -0.20238391014E+02  0.17443984619E+02 -0.21816032578E+03  0.21984063049E+03  0.47000000000E+01 0.  1.
          5    1    4    4  503    0 -0.39181975839E+01 -0.56686221263E+02 -0.10996278065E+03  0.12386518107E+03  0.47000000000E+01 0. -1.
         -5    1    3    3    0  502 -0.27235804291E+02  0.21853462214E+01  0.14276315083E+02  0.31184418318E+02  0.47000000000E+01 0.  1.
<mgrwt>
<rscale>  0 0.10211928E+03</rscale>
<asrwt>0</asrwt>
<pdfrwt beam="1">  1        1 0.75972853E-02 0.10231770E+03</pdfrwt>
<pdfrwt beam="2">  1       -1 0.61211162E-01 0.10231770E+03</pdfrwt>
<totfact> 0.24862363E+03</totfact>
</mgrwt>
</event>
<event>
 8    1  0.3400573E-004  0.1243192E+03  0.7546771E-02  0.1236860E+00
          2   -1    0    0  501    0  0.00000000000E+00  0.00000000000E+00  0.60465003396E+03  0.60465003396E+03  0.00000000000E+00 0. -1.
         -2   -1    0    0    0  501 -0.00000000000E+00 -0.00000000000E+00 -0.50698453689E+02  0.50698453689E+02  0.00000000000E+00 0.  1.
         23    2    1    2    0    0 -0.30308390919E+02  0.75898230605E+02  0.45555787719E+02  0.13240318231E+03  0.93681016877E+02 0.  0.
         23    2    1    2    0    0  0.30308390919E+02 -0.75898230605E+02  0.50839579255E+03  0.52294530534E+03  0.91248948044E+02 0.  0.
          5    1    3    3  502    0 -0.59332061552E+02  0.46287807156E+02  0.49951852107E+02  0.90444082992E+02  0.47000000000E+01 0. -1.
         -5    1    3    3    0  502  0.29023670633E+02  0.29610423449E+02 -0.43960643880E+01  0.41959099322E+02  0.47000000000E+01 0.  1.
          5    1    4    4  503    0 -0.23231766857E+02 -0.15205151157E+02  0.26303804557E+03  0.26454114052E+03  0.47000000000E+01 0. -1.
         -5    1    4    4    0  503  0.53540157776E+02 -0.60693079448E+02  0.24535774699E+03  0.25840416481E+03  0.47000000000E+01 0.  1.
<mgrwt>
<rscale>  0 0.12386115E+03</rscale>
<asrwt>0</asrwt>
<pdfrwt beam="1">  1        2 0.93023077E-01 0.12431924E+03</pdfrwt>
<pdfrwt beam="2">  1       -2 0.77997625E-02 0.12431924E+03</pdfrwt>
<totfact> 0.47417393E+03</totfact>
</mgrwt>
</event>
<event>
 8    1  0.3400573E-004  0.1392660E+03  0.7546771E-02  0.1215277E+00
         -2   -1    0    0    0  501 -0.00000000000E+00  0.00000000000E+00  0.22143974774E+02  0.22143974774E+02  0.00000000000E+00 0.  1.
          2   -1    0    0  501    0  0.00000000000E+00 -0.00000000000E+00 -0.10561827356E+04  0.10561827356E+04  0.00000000000E+00 0. -1.
         23    2    1    2    0    0 -0.81366997967E+02  0.61066598054E+02 -0.75460557647E+03  0.76734907435E+03  0.95106824731E+02 0.  0.
         23    2    1    2    0    0  0.81366997967E+02 -0.61066598054E+02 -0.27943318437E+03  0.31097763604E+03  0.90964101891E+02 0.  0.
          5    1    3    3  502    0 -0.85236886495E+02  0.10106418422E+02 -0.53227097160E+03  0.53916782519E+03  0.47000000000E+01 0. -1.
         -5    1    4    4    0  503  0.66622448813E+02  0.63285594818E+01 -0.12850565410E+03  0.14496342465E+03  0.47000000000E+01 0.  1.
          5    1    4    4  503    0  0.14744549154E+02 -0.67395157536E+02 -0.15092753027E+03  0.16601421139E+03  0.47000000000E+01 0. -1.
         -5    1    3    3    0  502  0.38698885282E+01  0.50960179632E+02 -0.22233460487E+03  0.22818124916E+03  0.47000000000E+01 0.  1.
<mgrwt>
<rscale>  0 0.13856181E+03</rscale>
<asrwt>0</asrwt>
<pdfrwt beam="1">  1        2 0.16248963E+00 0.13926603E+03</pdfrwt>
<pdfrwt beam="2">  1       -2 0.34067658E-02 0.13926603E+03</pdfrwt>
<totfact> 0.82407196E+03</totfact>
</mgrwt>
</event>
<event>
 8    1  0.3400573E-004  0.1425430E+03  0.7546771E-02  0.1210035E+00
          1   -1    0    0  501    0  0.00000000000E+00  0.00000000000E+00  0.42708189795E+03  0.42708189795E+03  0.00000000000E+00 0. -1.
         -1   -1    0    0    0  501 -0.00000000000E+00 -0.00000000000E+00 -0.74039649882E+02  0.74039649882E+02  0.00000000000E+00 0.  1.
         23    2    1    2    0    0  0.70595972238E+02 -0.84220206725E+02  0.32646715284E+03  0.35612240533E+03  0.90363328725E+02 0.  0.
         23    2    1    2    0    0 -0.70595972238E+02  0.84220206725E+02  0.26575095233E+02  0.14499914250E+03  0.90783705165E+02 0.  0.
          5    1    3    3  502    0  0.37041277524E+02 -0.89477703190E+02  0.29127804131E+03  0.30699072129E+03  0.47000000000E+01 0. -1.
         -5    1    3    3    0  502  0.33554694714E+02  0.52574964650E+01  0.35189111530E+02  0.49131684041E+02  0.47000000000E+01 0.  1.
          5    1    4    4  503    0 -0.10395601945E+02 -0.18756639900E+02 -0.26094812907E+01  0.22108357532E+02  0.47000000000E+01 0. -1.
         -5    1    4    4    0  503 -0.60200370293E+02  0.10297684663E+03  0.29184576524E+02  0.12289078497E+03  0.47000000000E+01 0.  1.
<mgrwt>
<rscale>  0 0.14247614E+03</rscale>
<asrwt>0</asrwt>
<pdfrwt beam="1">  1        1 0.65704906E-01 0.14254303E+03</pdfrwt>
<pdfrwt beam="2">  1       -1 0.11390716E-01 0.14254303E+03</pdfrwt>
<totfact> 0.27008040E+03</totfact>
</mgrwt>
</event>
<event>
 8    1  0.3400573E-004  0.1065211E+03  0.7546771E-02  0.1267416E+00
         -1   -1    0    0    0  501 -0.00000000000E+00  0.00000000000E+00  0.96601817410E+01  0.96601817410E+01  0.00000000000E+00 0.  1.
          1   -1    0    0  501    0  0.00000000000E+00 -0.00000000000E+00 -0.12713558745E+04  0.12713558745E+04  0.00000000000E+00 0. -1.
         23    2    1    2    0    0  0.46145125234E+01  0.55119841504E+02 -0.81446798772E+03  0.82140419830E+03  0.91034407288E+02 0.  0.
         23    2    1    2    0    0 -0.46145125234E+01 -0.55119841504E+02 -0.44722770501E+03  0.45961185791E+03  0.90393302584E+02 0.  0.
          5    1    3    3  502    0  0.33990921668E+02 -0.80424772438E+01 -0.34094299737E+03  0.34275980169E+03  0.47000000000E+01 0. -1.
         -5    1    4    4    0  503 -0.44382886892E+02 -0.35779890710E+02 -0.18505686298E+03  0.19369608608E+03  0.47000000000E+01 0.  1.
          5    1    4    4  503    0  0.39768374368E+02 -0.19339950793E+02 -0.26217084203E+03  0.26591577183E+03  0.47000000000E+01 0. -1.
         -5    1    3    3    0  502 -0.29376409145E+02  0.63162318747E+02 -0.47352499035E+03  0.47864439661E+03  0.47000000000E+01 0.  1.
<mgrwt>
<rscale>  0 0.10638404E+03</rscale>
<asrwt>0</asrwt>
<pdfrwt beam="1">  1        1 0.19559309E+00 0.10652114E+03</pdfrwt>
<pdfrwt beam="2">  1       -1 0.14861827E-02 0.10652114E+03</pdfrwt>
<totfact> 0.10327174E+04</totfact>
</mgrwt>
</event>
<event>
 8    1  0.3400573E-004  0.9531805E+02  0.7546771E-02  0.1293005E+00
         -1   -1    0    0    0  501 -0.00000000000E+00  0.00000000000E+00  0.52324464530E+02  0.52324464530E+02  0.00000000000E+00 0.  1.
          1   -1    0    0  501    0  0.00000000000E+00 -0.00000000000E+00 -0.20120898895E+03  0.20120898895E+03  0.00000000000E+00 0. -1.
         23    2    1    2    0    0  0.24146510663E+01 -0.23410665642E+02 -0.22637434660E+02  0.97969302593E+02  0.92366882577E+02 0.  0.
         23    2    1    2    0    0 -0.24146510663E+01  0.23410665642E+02 -0.12624708976E+03  0.15556415088E+03  0.87795145440E+02 0.  0.
          5    1    4    4  502    0 -0.25073412954E+02  0.36144502729E+02 -0.12073059130E+03  0.12858097367E+03  0.47000000000E+01 0. -1.
         -5    1    4    4    0  502  0.22658761888E+02 -0.12733837087E+02 -0.55164984553E+01  0.26983177212E+02  0.47000000000E+01 0.  1.
          5    1    3    3  503    0 -0.69523796405E+01  0.34709381864E+02 -0.13662433624E+02  0.38233870646E+02  0.47000000000E+01 0. -1.
         -5    1    3    3    0  503  0.93670307068E+01 -0.58120047505E+02 -0.89750010363E+01  0.59735431947E+02  0.47000000000E+01 0.  1.
<mgrwt>
<rscale>  0 0.94192475E+02</rscale>
<asrwt>0</asrwt>
<pdfrwt beam="1">  1        1 0.30955229E-01 0.95318051E+02</pdfrwt>
<pdfrwt beam="2">  1       -1 0.80499176E-02 0.95318051E+02</pdfrwt>
<totfact> 0.11310676E+04</totfact>
</mgrwt>
</event>
<event>
 8    1  0.3400573E-004  0.9626362E+02  0.7546771E-02  0.1288994E+00
         -1   -1    0    0    0  501 -0.00000000000E+00  0.00000000000E+00  0.10138756317E+03  0.10138756317E+03  0.00000000000E+00 0.  1.
          1   -1    0    0  501    0  0.00000000000E+00 -0.00000000000E+00 -0.21817642849E+03  0.21817642849E+03  0.00000000000E+00 0. -1.
         23    2    1    2    0    0 -0.27950100057E+02  0.10516674179E+02  0.63779875242E+02  0.11547535098E+03  0.91514346791E+02 0.  0.
         23    2    1    2    0    0  0.27950100057E+02 -0.10516674179E+02 -0.18056874056E+03  0.20408864069E+03  0.90306670083E+02 0.  0.
          5    1    4    4  502    0  0.31891998527E+02 -0.42412648155E+02 -0.15115886054E+03  0.16027171745E+03  0.47000000000E+01 0. -1.
         -5    1    4    4    0  502 -0.39418984708E+01  0.31895973976E+02 -0.29409880014E+02  0.43816923235E+02  0.47000000000E+01 0.  1.
          5    1    3    3  503    0 -0.53667908315E+02 -0.55163855588E+01  0.65220462865E+02  0.84773071602E+02  0.47000000000E+01 0.  1.
         -5    1    3    3    0  503  0.25717808258E+02  0.16033059738E+02 -0.14405876230E+01  0.30702279375E+02  0.47000000000E+01 0. -1.
<mgrwt>
<rscale>  0 0.95975488E+02</rscale>
<asrwt>0</asrwt>
<pdfrwt beam="1">  1        1 0.33565604E-01 0.96263618E+02</pdfrwt>
<pdfrwt beam="2">  1       -1 0.15598087E-01 0.96263618E+02</pdfrwt>
<totfact> 0.37412257E+03</totfact>
</mgrwt>
</event>
<event>
 8    1  0.3400573E-004  0.1043956E+03  0.7546771E-02  0.1271942E+00
         -3   -1    0    0    0  501 -0.00000000000E+00  0.00000000000E+00  0.18619057182E+03  0.18619057182E+03  0.00000000000E+00 0.  1.
          3   -1    0    0  501    0  0.00000000000E+00 -0.00000000000E+00 -0.68180464097E+02  0.68180464097E+02  0.00000000000E+00 0. -1.
         23    2    1    2    0    0  0.45123217282E+02 -0.99004272575E+01  0.97590936987E+01  0.10485074079E+03  0.93617918887E+02 0.  0.
         23    2    1    2    0    0 -0.45123217282E+02  0.99004272575E+01  0.10825101402E+03  0.14952029513E+03  0.92216665628E+02 0.  0.
          5    1    3    3  502    0  0.13547583679E+02 -0.15564783750E+02 -0.40120304221E+02  0.45359985973E+02  0.47000000000E+01 0. -1.
         -5    1    4    4    0  503 -0.45784334881E+02 -0.12114500076E+02  0.98839204929E+01  0.48608109580E+02  0.47000000000E+01 0.  1.
          5    1    4    4  503    0  0.66111759890E+00  0.22014927333E+02  0.98367093531E+02  0.10091218555E+03  0.47000000000E+01 0. -1.
         -5    1    3    3    0  502  0.31575633603E+02  0.56643564924E+01  0.49879397919E+02  0.59490754817E+02  0.47000000000E+01 0.  1.
<mgrwt>
<rscale>  0 0.10408048E+03</rscale>
<asrwt>0</asrwt>
<pdfrwt beam="1">  1        3 0.10489302E-01 0.10439558E+03</pdfrwt>
<pdfrwt beam="2">  1       -3 0.28644703E-01 0.10439558E+03</pdfrwt>
<totfact> 0.17442433E+03</totfact>
</mgrwt>
</event>
<event>
 8    1  0.3400573E-004  0.1060765E+03  0.7546771E-02  0.1272667E+00
          2   -1    0    0  501    0  0.00000000000E+00  0.00000000000E+00  0.56383848721E+03  0.56383848721E+03  0.00000000000E+00 0. -1.
         -2   -1    0    0    0  501 -0.00000000000E+00 -0.00000000000E+00 -0.19485699277E+02  0.19485699277E+02  0.00000000000E+00 0.  1.
         23    2    1    2    0    0  0.10080072244E+01  0.33116867701E+02  0.33328726313E+03  0.34710207966E+03  0.91113725269E+02 0.  0.
         23    2    1    2    0    0 -0.10080072244E+01 -0.33116867701E+02  0.21106552480E+03  0.23622210683E+03  0.10076946457E+03 0.  0.
          5    1    3    3  502    0  0.34505549789E+02  0.36520050673E+02  0.10732056491E+03  0.11859232994E+03  0.47000000000E+01 0. -1.
         -5    1    3    3    0  502 -0.33497542565E+02 -0.34031829725E+01  0.22596669822E+03  0.22850974972E+03  0.47000000000E+01 0.  1.
          5    1    4    4  503    0 -0.41726319856E+02  0.57097710233E+01  0.49968339450E+02  0.65518029589E+02  0.47000000000E+01 0.  1.
         -5    1    4    4    0  503  0.40718312632E+02 -0.38826638724E+02  0.16109718535E+03  0.17070407724E+03  0.47000000000E+01 0. -1.
<mgrwt>
<rscale>  0 0.10371756E+03</rscale>
<asrwt>0</asrwt>
<pdfrwt beam="1">  1        2 0.86744370E-01 0.10607652E+03</pdfrwt>
<pdfrwt beam="2">  1       -2 0.29978003E-02 0.10607652E+03</pdfrwt>
<totfact> 0.21176645E+04</totfact>
</mgrwt>
</event>
<event>
 8    1  0.3400573E-004  0.1047958E+03  0.7546771E-02  0.1271226E+00
          1   -1    0    0  501    0  0.00000000000E+00  0.00000000000E+00  0.87110064443E+03  0.87110064443E+03  0.00000000000E+00 0. -1.
         -1   -1    0    0    0  501 -0.00000000000E+00 -0.00000000000E+00 -0.32021160037E+02  0.32021160037E+02  0.00000000000E+00 0.  1.
         23    2    1    2    0    0  0.15437802750E+02  0.46711396385E+02  0.67513079442E+02  0.12466024346E+03  0.92530427953E+02 0.  0.
         23    2    1    2    0    0 -0.15437802750E+02 -0.46711396385E+02  0.77156640495E+03  0.77846156101E+03  0.90925268299E+02 0.  0.
          5    1    3    3  502    0  0.42486278822E+02  0.20908589955E+02  0.72431794811E+02  0.86664340542E+02  0.47000000000E+01 0. -1.
         -5    1    3    3    0  502 -0.27048476073E+02  0.25802806430E+02 -0.49187153685E+01  0.37995902916E+02  0.47000000000E+01 0.  1.
          5    1    4    4  503    0  0.37138477131E+02 -0.92281797895E+01  0.30344124339E+03  0.30588086566E+03  0.47000000000E+01 0. -1.
         -5    1    4    4    0  503 -0.52576279881E+02 -0.37483216596E+02  0.46812516156E+03  0.47258069535E+03  0.47000000000E+01 0.  1.
<mgrwt>
<rscale>  0 0.10444036E+03</rscale>
<asrwt>0</asrwt>
<pdfrwt beam="1">  1        1 0.13401547E+00 0.10479580E+03</pdfrwt>
<pdfrwt beam="2">  1       -1 0.49263330E-02 0.10479580E+03</pdfrwt>
<totfact> 0.35160801E+03</totfact>
</mgrwt>
</event>
<event>
 8    1  0.3400573E-004  0.1458322E+03  0.7546771E-02  0.1208428E+00
          2   -1    0    0  501    0  0.00000000000E+00  0.00000000000E+00  0.15308129916E+04  0.15308129916E+04  0.00000000000E+00 0. -1.
         -2   -1    0    0    0  501 -0.00000000000E+00 -0.00000000000E+00 -0.21844606122E+02  0.21844606122E+02  0.00000000000E+00 0.  1.
         23    2    1    2    0    0  0.82902755914E+02  0.59880272298E+02  0.25044661269E+03  0.28571479179E+03  0.91928899111E+02 0.  0.
         23    2    1    2    0    0 -0.82902755914E+02 -0.59880272298E+02  0.12585217728E+04  0.12669428059E+04  0.10396396959E+03 0.  0.
          5    1    3    3  502    0  0.34205375466E+02  0.18434281792E+01  0.17610634583E+03  0.17946849579E+03  0.47000000000E+01 0. -1.
         -5    1    3    3    0  502  0.48697380448E+02  0.58036844119E+02  0.74340266858E+02  0.10624629600E+03  0.47000000000E+01 0.  1.
          5    1    4    4  503    0 -0.23835143214E+01  0.24350852232E+02  0.12652664107E+03  0.12895629510E+03  0.47000000000E+01 0. -1.
         -5    1    4    4    0  503 -0.80519241593E+02 -0.84231124530E+02  0.11319951317E+04  0.11379865108E+04  0.47000000000E+01 0. -1.
<mgrwt>
<rscale>  0 0.14370597E+03</rscale>
<asrwt>0</asrwt>
<pdfrwt beam="1">  1        2 0.23550961E+00 0.14583217E+03</pdfrwt>
<pdfrwt beam="2">  1       -2 0.33607098E-02 0.14583217E+03</pdfrwt>
<totfact> 0.46438597E+03</totfact>
</mgrwt>
</event>
<event>
 8    1  0.3400573E-004  0.1088160E+03  0.7546771E-02  0.1263573E+00
          1   -1    0    0  501    0  0.00000000000E+00  0.00000000000E+00  0.90598316307E+02  0.90598316307E+02  0.00000000000E+00 0. -1.
         -1   -1    0    0    0  501 -0.00000000000E+00 -0.00000000000E+00 -0.24647936596E+03  0.24647936596E+03  0.00000000000E+00 0.  1.
         23    2    1    2    0    0 -0.43644068584E+02  0.36727050372E+02 -0.19476562798E+03  0.22310214109E+03  0.92667332769E+02 0.  0.
         23    2    1    2    0    0  0.43644068584E+02 -0.36727050372E+02  0.38884578334E+02  0.11397554118E+03  0.90690311513E+02 0.  0.
          5    1    3    3  502    0 -0.24842968090E+02 -0.26840596921E+02 -0.38588089561E+02  0.53373414380E+02  0.47000000000E+01 0. -1.
         -5    1    4    4    0  503  0.61618939688E+02 -0.16781522717E+02 -0.28824013371E+01  0.64100791497E+02  0.47000000000E+01 0.  1.
          5    1    4    4  503    0 -0.17974871105E+02 -0.19945527655E+02  0.41766979671E+02  0.49874749679E+02  0.47000000000E+01 0. -1.
         -5    1    3    3    0  502 -0.18801100494E+02  0.63567647293E+02 -0.15617753842E+03  0.16972872671E+03  0.47000000000E+01 0.  1.
<mgrwt>
<rscale>  0 0.10839387E+03</rscale>
<asrwt>0</asrwt>
<pdfrwt beam="1">  1        1 0.13938203E-01 0.10881597E+03</pdfrwt>
<pdfrwt beam="2">  1       -1 0.37919902E-01 0.10881597E+03</pdfrwt>
<totfact> 0.26673410E+03</totfact>
</mgrwt>
</event>
<event>
 8    1  0.3400573E-004  0.9497690E+02  0.7546771E-02  0.1291637E+00
         -1   -1    0    0    0  501 -0.00000000000E+00  0.00000000000E+00  0.41529550788E+02  0.41529550788E+02  0.00000000000E+00 0.  1.
          1   -1    0    0  501    0  0.00000000000E+00 -0.00000000000E+00 -0.49213262742E+03  0.49213262742E+03  0.00000000000E+00 0. -1.
         23    2    1    2    0    0  0.23362064355E+01 -0.24082772328E+02 -0.25646558688E+02  0.98378642755E+02  0.91843201132E+02 0.  0.
         23    2    1    2    0    0 -0.23362064355E+01  0.24082772328E+02 -0.42495651794E+03  0.43528353545E+03  0.91094875327E+02 0.  0.
          5    1    4    4  502    0 -0.34380797021E+02  0.41772717839E+02 -0.30436499213E+03  0.30917169598E+03  0.47000000000E+01 0. -1.
         -5    1    3    3    0  503  0.40493690418E+02 -0.54202416010E+00  0.87216074476E+01  0.41691596159E+02  0.47000000000E+01 0.  1.
          5    1    3    3  503    0 -0.38157483982E+02 -0.23540748168E+02 -0.34368166136E+02  0.56687046595E+02  0.47000000000E+01 0. -1.
         -5    1    4    4    0  502  0.32044590585E+02 -0.17689945511E+02 -0.12059152581E+03  0.12611183948E+03  0.47000000000E+01 0.  1.
<mgrwt>
<rscale>  0 0.94795520E+02</rscale>
<asrwt>0</asrwt>
<pdfrwt beam="1">  1        1 0.75712706E-01 0.94976899E+02</pdfrwt>
<pdfrwt beam="2">  1       -1 0.63891622E-02 0.94976899E+02</pdfrwt>
<totfact> 0.52818948E+03</totfact>
</mgrwt>
</event>
<event>
 8    1  0.3400573E-004  0.1764201E+03  0.7546771E-02  0.1172775E+00
         -1   -1    0    0    0  501 -0.00000000000E+00  0.00000000000E+00  0.80043013333E+02  0.80043013333E+02  0.00000000000E+00 0.  1.
          1   -1    0    0  501    0  0.00000000000E+00 -0.00000000000E+00 -0.10062477889E+04  0.10062477889E+04  0.00000000000E+00 0. -1.
         23    2    1    2    0    0 -0.14937290619E+03 -0.61561391077E+01 -0.36225922971E+02  0.18010097157E+03  0.93668987991E+02 0.  0.
         23    2    1    2    0    0  0.14937290619E+03  0.61561391077E+01 -0.88997885262E+03  0.90618983069E+03  0.82264743263E+02 0.  0.
          5    1    3    3  502    0 -0.66264529031E+01 -0.30036818732E+02 -0.11640814020E+02  0.33222265254E+02  0.47000000000E+01 0. -1.
         -5    1    4    4    0  503  0.35989604744E+02  0.37810571193E+02 -0.30400172363E+03  0.30848667543E+03  0.47000000000E+01 0.  1.
          5    1    4    4  503    0  0.11338330145E+03 -0.31654432085E+02 -0.58597712898E+03  0.59770315526E+03  0.47000000000E+01 0. -1.
         -5    1    3    3    0  502 -0.14274645329E+03  0.23880679624E+02 -0.24585108951E+02  0.14687870631E+03  0.47000000000E+01 0.  1.
<mgrwt>
<rscale>  0 0.17495669E+03</rscale>
<asrwt>0</asrwt>
<pdfrwt beam="1">  1        1 0.15480736E+00 0.17642007E+03</pdfrwt>
<pdfrwt beam="2">  1       -1 0.12314309E-01 0.17642007E+03</pdfrwt>
<totfact> 0.70252084E+02</totfact>
</mgrwt>
</event>
<event>
 8    1  0.3400573E-004  0.9511001E+02  0.7546771E-02  0.1292577E+00
          1   -1    0    0  501    0  0.00000000000E+00  0.00000000000E+00  0.19344138354E+03  0.19344138354E+03  0.00000000000E+00 0. -1.
         -1   -1    0    0    0  501 -0.00000000000E+00 -0.00000000000E+00 -0.45616791766E+02  0.45616791766E+02  0.00000000000E+00 0.  1.
         23    2    1    2    0    0  0.27078459555E+02 -0.10108726239E+01  0.63748046835E+02  0.11211417748E+03  0.88156170983E+02 0.  0.
         23    2    1    2    0    0 -0.27078459555E+02  0.10108726239E+01  0.84076544934E+02  0.12694399782E+03  0.91168241940E+02 0.  0.
          5    1    4    4  502    0  0.29421660526E+02 -0.15855633126E+02  0.17968469044E+02  0.38235992072E+02  0.47000000000E+01 0. -1.
         -5    1    4    4    0  502 -0.56500120082E+02  0.16866505750E+02  0.66108075890E+02  0.88708005746E+02  0.47000000000E+01 0.  1.
          5    1    3    3  503    0  0.59207828645E+02 -0.43272204968E+01  0.42648733675E+02  0.73248182873E+02  0.47000000000E+01 0. -1.
         -5    1    3    3    0  503 -0.32129369090E+02  0.33163478729E+01  0.21099313160E+02  0.38865994612E+02  0.47000000000E+01 0.  1.
<mgrwt>
<rscale>  0 0.94380852E+02</rscale>
<asrwt>0</asrwt>
<pdfrwt beam="1">  1        1 0.29760213E-01 0.95110006E+02</pdfrwt>
<pdfrwt beam="2">  1       -1 0.70179680E-02 0.95110006E+02</pdfrwt>
<totfact> 0.14560837E+04</totfact>
</mgrwt>
</event>
<event>
 8    1  0.3400573E-004  0.1064577E+03  0.7546771E-02  0.1269981E+00
         -3   -1    0    0    0  501 -0.00000000000E+00  0.00000000000E+00  0.26672574146E+03  0.26672574146E+03  0.00000000000E+00 0.  1.
          3   -1    0    0  501    0  0.00000000000E+00 -0.00000000000E+00 -0.57649753469E+02  0.57649753469E+02  0.00000000000E+00 0. -1.
         23    2    1    2    0    0 -0.48874027543E+02 -0.41126464889E+01  0.19145383456E+03  0.21646916553E+03  0.88310500084E+02 0.  0.
         23    2    1    2    0    0  0.48874027543E+02  0.41126464889E+01  0.17622153423E+02  0.10790632940E+03  0.94486248755E+02 0.  0.
          5    1    3    3  502    0 -0.19417939607E+02 -0.43555106082E+02  0.65512545117E+02  0.81167032791E+02  0.47000000000E+01 0. -1.
         -5    1    3    3    0  502 -0.29456087936E+02  0.39442459593E+02  0.12594128945E+03  0.13530213274E+03  0.47000000000E+01 0.  1.
          5    1    4    4  503    0  0.13787095438E+02 -0.42574656135E+02 -0.46237270004E+01  0.45234435964E+02  0.47000000000E+01 0. -1.
         -5    1    4    4    0  503  0.35086932105E+02  0.46687302624E+02  0.22245880423E+02  0.62671893435E+02  0.47000000000E+01 0.  1.
<mgrwt>
<rscale>  0 0.10507049E+03</rscale>
<asrwt>0</asrwt>
<pdfrwt beam="1">  1        3 0.88691930E-02 0.10645767E+03</pdfrwt>
<pdfrwt beam="2">  1       -3 0.41034729E-01 0.10645767E+03</pdfrwt>
<totfact> 0.11752143E+03</totfact>
</mgrwt>
</event>
<event>
 8    1  0.3400573E-004  0.1029315E+03  0.7546771E-02  0.1275979E+00
         -2   -1    0    0    0  501 -0.00000000000E+00  0.00000000000E+00  0.30957439955E+02  0.30957439955E+02  0.00000000000E+00 0. -1.
          2   -1    0    0  501    0  0.00000000000E+00 -0.00000000000E+00 -0.87609704626E+03  0.87609704626E+03  0.00000000000E+00 0.  1.
         23    2    1    2    0    0  0.29643618680E+02  0.27839667730E+02 -0.77758526267E+03  0.78393471209E+03  0.90890048229E+02 0.  0.
         23    2    1    2    0    0 -0.29643618680E+02 -0.27839667730E+02 -0.67554343638E+02  0.12311977413E+03  0.94557380513E+02 0.  0.
          5    1    4    4  502    0 -0.34789037412E+02 -0.60216468252E+02 -0.43097587687E+02  0.81949937384E+02  0.47000000000E+01 0. -1.
         -5    1    3    3    0  503  0.54403620408E+02  0.43024356019E+02 -0.58467370049E+03  0.58879221731E+03  0.47000000000E+01 0.  1.
          5    1    3    3  503    0 -0.24760001728E+02 -0.15184688289E+02 -0.19291156218E+03  0.19514249478E+03  0.47000000000E+01 0. -1.
         -5    1    4    4    0  502  0.51454187315E+01  0.32376800522E+02 -0.24456755951E+02  0.41169836745E+02  0.47000000000E+01 0.  1.
<mgrwt>
<rscale>  0 0.10208140E+03</rscale>
<asrwt>0</asrwt>
<pdfrwt beam="1">  1        2 0.13478414E+00 0.10293148E+03</pdfrwt>
<pdfrwt beam="2">  1       -2 0.47626838E-02 0.10293148E+03</pdfrwt>
<totfact> 0.63487404E+03</totfact>
</mgrwt>
</event>
<event>
 8    1  0.3400573E-004  0.9972705E+02  0.7546771E-02  0.1281670E+00
          2   -1    0    0  501    0  0.00000000000E+00  0.00000000000E+00  0.25367472374E+03  0.25367472374E+03  0.00000000000E+00 0. -1.
         -2   -1    0    0    0  501 -0.00000000000E+00 -0.00000000000E+00 -0.38711660814E+02  0.38711660814E+02  0.00000000000E+00 0.  1.
         23    2    1    2    0    0 -0.40383892768E+02 -0.34273928503E+01  0.10107792153E+03  0.14199377128E+03  0.91120135239E+02 0.  0.
         23    2    1    2    0    0  0.40383892768E+02  0.34273928503E+01  0.11388514140E+03  0.15039261327E+03  0.89473498188E+02 0.  0.
          5    1    4    4  502    0  0.20067487456E+02 -0.14021763607E+02  0.11996764720E+03  0.12253016071E+03  0.47000000000E+01 0. -1.
         -5    1    4    4    0  502  0.20316405312E+02  0.17449156458E+02 -0.60825058064E+01  0.27862452562E+02  0.47000000000E+01 0.  1.
          5    1    3    3  503    0  0.53898924003E+01  0.36493330910E+02  0.26323314547E+02  0.45561178977E+02  0.47000000000E+01 0. -1.
         -5    1    3    3    0  503 -0.45773785168E+02 -0.39920723760E+02  0.74754606978E+02  0.96432592305E+02  0.47000000000E+01 0.  1.
<mgrwt>
<rscale>  0 0.99349350E+02</rscale>
<asrwt>0</asrwt>
<pdfrwt beam="1">  1        2 0.39026880E-01 0.99727052E+02</pdfrwt>
<pdfrwt beam="2">  1       -2 0.59556403E-02 0.99727052E+02</pdfrwt>
<totfact> 0.17826804E+04</totfact>
</mgrwt>
</event>
<event>
 8    1  0.3400573E-004  0.1008738E+03  0.7546771E-02  0.1279327E+00
         -3   -1    0    0    0  501 -0.00000000000E+00  0.00000000000E+00  0.55998534112E+02  0.55998534112E+02  0.00000000000E+00 0.  1.
          3   -1    0    0  501    0  0.00000000000E+00 -0.00000000000E+00 -0.18358205161E+03  0.18358205161E+03  0.00000000000E+00 0. -1.
         23    2    1    2    0    0 -0.12636394951E+02 -0.39773984294E+02 -0.43900400493E+02  0.10851424559E+03  0.90035815259E+02 0.  0.
         23    2    1    2    0    0  0.12636394951E+02  0.39773984294E+02 -0.83683117000E+02  0.13106634012E+03  0.91836121100E+02 0.  0.
          5    1    3    3  502    0  0.20141821337E+02  0.13283605890E+02 -0.38579953856E+02  0.45745491491E+02  0.47000000000E+01 0. -1.
         -5    1    4    4    0  503  0.19315322014E+02 -0.21923953729E+02 -0.38549629595E+01  0.29844466003E+02  0.47000000000E+01 0.  1.
          5    1    4    4  503    0 -0.66789270629E+01  0.61697938023E+02 -0.79828154041E+02  0.10122187412E+03  0.47000000000E+01 0. -1.
         -5    1    3    3    0  502 -0.32778216288E+02 -0.53057590185E+02 -0.53204466374E+01  0.62768754103E+02  0.47000000000E+01 0.  1.
<mgrwt>
<rscale>  0 0.10046222E+03</rscale>
<asrwt>0</asrwt>
<pdfrwt beam="1">  1        3 0.28243393E-01 0.10087379E+03</pdfrwt>
<pdfrwt beam="2">  1       -3 0.86151590E-02 0.10087379E+03</pdfrwt>
<totfact> 0.24534376E+03</totfact>
</mgrwt>
</event>
<event>
 8    1  0.3400573E-004  0.1068825E+03  0.7546771E-02  0.1271180E+00
         -1   -1    0    0    0  501 -0.00000000000E+00  0.00000000000E+00  0.55630476237E+02  0.55630476237E+02  0.00000000000E+00 0.  1.
          1   -1    0    0  501    0  0.00000000000E+00 -0.00000000000E+00 -0.27053166645E+03  0.27053166645E+03  0.00000000000E+00 0. -1.
         23    2    1    2    0    0 -0.19884506369E+02 -0.45047355377E+02 -0.13908238431E+02  0.98517600204E+02  0.84188007660E+02 0.  0.
         23    2    1    2    0    0  0.19884506369E+02  0.45047355377E+02 -0.20099295178E+03  0.22764454248E+03  0.94864183104E+02 0.  0.
          5    1    3    3  502    0 -0.75059341811E+01 -0.26553705637E+02 -0.49156716683E+02  0.56567756947E+02  0.47000000000E+01 0. -1.
         -5    1    3    3    0  502 -0.12378572188E+02 -0.18493649740E+02  0.35248478253E+02  0.41949843257E+02  0.47000000000E+01 0.  1.
          5    1    4    4  503    0 -0.22540183826E+02  0.56947677340E+02 -0.10002047004E+03  0.11737666833E+03  0.47000000000E+01 0. -1.
         -5    1    4    4    0  503  0.42424690195E+02 -0.11900321963E+02 -0.10097248174E+03  0.11026787415E+03  0.47000000000E+01 0.  1.
<mgrwt>
<rscale>  0 0.10446374E+03</rscale>
<asrwt>0</asrwt>
<pdfrwt beam="1">  1        1 0.41620257E-01 0.10688251E+03</pdfrwt>
<pdfrwt beam="2">  1       -1 0.85585348E-02 0.10688251E+03</pdfrwt>
<totfact> 0.72452200E+03</totfact>
</mgrwt>
</event>
<event>
 8    1  0.3400573E-004  0.9343604E+02  0.7546771E-02  0.1299102E+00
          2   -1    0    0  501    0  0.00000000000E+00  0.00000000000E+00  0.28813309005E+03  0.28813309005E+03  0.00000000000E+00 0. -1.
         -2   -1    0    0    0  501 -0.00000000000E+00 -0.00000000000E+00 -0.18760814120E+03  0.18760814120E+03  0.00000000000E+00 0.  1.
         23    2    1    2    0    0 -0.30814570489E+01 -0.23002329880E+02 -0.16942230016E+03  0.19008092339E+03  0.82995416068E+02 0.  0.
         23    2    1    2    0    0  0.30814570489E+01  0.23002329880E+02  0.26994724901E+03  0.28566030785E+03  0.90507964700E+02 0.  0.
          5    1    3    3  502    0 -0.26828170672E+02  0.19541665178E+02 -0.43065116559E+02  0.54574001904E+02  0.47000000000E+01 0. -1.
         -5    1    4    4    0  503  0.24331061694E+02  0.51641677004E+02  0.17447339930E+03  0.18363529190E+03  0.47000000000E+01 0. -1.
          5    1    4    4  503    0 -0.21249604645E+02 -0.28639347123E+02  0.95473849712E+02  0.10202501595E+03  0.47000000000E+01 0.  1.
         -5    1    3    3    0  502  0.23746713623E+02 -0.42543995059E+02 -0.12635718360E+03  0.13550692149E+03  0.47000000000E+01 0.  1.
<mgrwt>
<rscale>  0 0.91566444E+02</rscale>
<asrwt>0</asrwt>
<pdfrwt beam="1">  1        2 0.44328168E-01 0.93436044E+02</pdfrwt>
<pdfrwt beam="2">  1       -2 0.28862791E-01 0.93436044E+02</pdfrwt>
<totfact> 0.12226471E+03</totfact>
</mgrwt>
</event>
<event>
 8    1  0.3400573E-004  0.9753720E+02  0.7546771E-02  0.1286188E+00
          1   -1    0    0  501    0  0.00000000000E+00  0.00000000000E+00  0.11672381868E+03  0.11672381868E+03  0.00000000000E+00 0. -1.
         -1   -1    0    0    0  501 -0.00000000000E+00 -0.00000000000E+00 -0.88732877022E+02  0.88732877022E+02  0.00000000000E+00 0.  1.
         23    2    1    2    0    0  0.35392625208E+02 -0.19103077853E+02 -0.17124884953E+02  0.99029118362E+02  0.88859096869E+02 0.  0.
         23    2    1    2    0    0 -0.35392625208E+02  0.19103077853E+02  0.45115826616E+02  0.10642757734E+03  0.87600376172E+02 0.  0.
          5    1    4    4  502    0 -0.96843832239E+01 -0.19266955806E+02  0.54734679935E+02  0.59016760772E+02  0.47000000000E+01 0. -1.
         -5    1    4    4    0  502 -0.25708241984E+02  0.38370033658E+02 -0.96188533193E+01  0.47410816572E+02  0.47000000000E+01 0.  1.
          5    1    3    3  503    0  0.20405958401E+02 -0.54501447165E+02 -0.57582919002E+01  0.58669061752E+02  0.47000000000E+01 0. -1.
         -5    1    3    3    0  503  0.14986666807E+02  0.35398369312E+02 -0.11366593053E+02  0.40360056610E+02  0.47000000000E+01 0.  1.
<mgrwt>
<rscale>  0 0.97249593E+02</rscale>
<asrwt>0</asrwt>
<pdfrwt beam="1">  1        1 0.17957511E-01 0.97537196E+02</pdfrwt>
<pdfrwt beam="2">  1       -1 0.13651212E-01 0.97537196E+02</pdfrwt>
<totfact> 0.10026274E+04</totfact>
</mgrwt>
</event>
<event>
 8    1  0.3400573E-004  0.2322921E+03  0.7546771E-02  0.1125130E+00
          1   -1    0    0  501    0  0.00000000000E+00  0.00000000000E+00  0.15822903892E+04  0.15822903892E+04  0.00000000000E+00 0. -1.
         -1   -1    0    0    0  501 -0.00000000000E+00 -0.00000000000E+00 -0.34029006405E+02  0.34029006405E+02  0.00000000000E+00 0.  1.
         23    2    1    2    0    0  0.10578870490E+02 -0.21282274715E+03  0.78521763350E+03  0.81885672961E+03  0.92488796379E+02 0.  0.
         23    2    1    2    0    0 -0.10578870490E+02  0.21282274715E+03  0.76304374934E+03  0.79746266604E+03  0.91134549548E+02 0.  0.
          5    1    3    3  502    0 -0.34821937441E+02 -0.91922112778E+02  0.42238155067E+03  0.43369402404E+03  0.47000000000E+01 0. -1.
         -5    1    3    3    0  502  0.45400807931E+02 -0.12090063437E+03  0.36283608283E+03  0.38516270557E+03  0.47000000000E+01 0.  1.
          5    1    4    4  503    0 -0.21579776646E+01  0.17554591514E+03  0.71305488829E+03  0.73436393491E+03  0.47000000000E+01 0. -1.
         -5    1    4    4    0  503 -0.84208928255E+01  0.37276832014E+02  0.49988861047E+02  0.63098731126E+02  0.47000000000E+01 0.  1.
<mgrwt>
<rscale>  0 0.23215800E+03</rscale>
<asrwt>0</asrwt>
<pdfrwt beam="1">  1        1 0.24342923E+00 0.23229208E+03</pdfrwt>
<pdfrwt beam="2">  1       -1 0.52352330E-02 0.23229208E+03</pdfrwt>
<totfact> 0.10399044E+03</totfact>
</mgrwt>
</event>
<event>
 8    1  0.3400573E-004  0.9074900E+02  0.7546771E-02  0.1302870E+00
         -1   -1    0    0    0  501 -0.00000000000E+00  0.00000000000E+00  0.37872169508E+02  0.37872169508E+02  0.00000000000E+00 0.  1.
          1   -1    0    0  501    0  0.00000000000E+00 -0.00000000000E+00 -0.21225466341E+03  0.21225466341E+03  0.00000000000E+00 0. -1.
         23    2    1    2    0    0  0.24025884524E+01 -0.65134957922E+01 -0.76791214956E+02  0.11887923068E+03  0.90483052195E+02 0.  0.
         23    2    1    2    0    0 -0.24025884524E+01  0.65134957922E+01 -0.97591278947E+02  0.13124760224E+03  0.87485297666E+02 0.  0.
          5    1    3    3  502    0 -0.43658110066E+02 -0.45438513169E+01 -0.41984423874E+02  0.60921744947E+02  0.47000000000E+01 0. -1.
         -5    1    4    4    0  503  0.20371151651E+02  0.30876951502E+02 -0.88990602621E+02  0.96487239096E+02  0.47000000000E+01 0.  1.
          5    1    4    4  503    0 -0.22773740103E+02 -0.24363455709E+02 -0.86006763261E+01  0.34760363140E+02  0.47000000000E+01 0. -1.
         -5    1    3    3    0  502  0.46060698519E+02 -0.19696444753E+01 -0.34806791082E+02  0.57957485736E+02  0.47000000000E+01 0.  1.
<mgrwt>
<rscale>  0 0.89992423E+02</rscale>
<asrwt>0</asrwt>
<pdfrwt beam="1">  1        1 0.32654564E-01 0.90748999E+02</pdfrwt>
<pdfrwt beam="2">  1       -1 0.58264875E-02 0.90748999E+02</pdfrwt>
<totfact> 0.17026543E+04</totfact>
</mgrwt>
</event>
<event>
 8    1  0.3400573E-004  0.9752337E+02  0.7546771E-02  0.1286121E+00
         -1   -1    0    0    0  501 -0.00000000000E+00  0.00000000000E+00  0.23386568757E+02  0.23386568757E+02  0.00000000000E+00 0.  1.
          1   -1    0    0  501    0  0.00000000000E+00 -0.00000000000E+00 -0.46073187778E+03  0.46073187778E+03  0.00000000000E+00 0. -1.
         23    2    1    2    0    0  0.30302618080E+02  0.11502663335E+02 -0.30366088621E+03  0.31864237053E+03  0.90953100847E+02 0.  0.
         23    2    1    2    0    0 -0.30302618080E+02 -0.11502663335E+02 -0.13368442281E+03  0.16547607601E+03  0.91979600472E+02 0.  0.
          5    1    4    4  502    0 -0.25240928652E+01 -0.46341073008E+02 -0.39293929302E+02  0.60991548368E+02  0.47000000000E+01 0. -1.
         -5    1    3    3    0  503 -0.19278018239E+02 -0.11181639672E+02 -0.21834113160E+02  0.31551379534E+02  0.47000000000E+01 0.  1.
          5    1    3    3  503    0  0.49580636319E+02  0.22684303007E+02 -0.28182677305E+03  0.28709099099E+03  0.47000000000E+01 0. -1.
         -5    1    4    4    0  502 -0.27778525215E+02  0.34838409673E+02 -0.94390493511E+02  0.10448452764E+03  0.47000000000E+01 0.  1.
<mgrwt>
<rscale>  0 0.97280574E+02</rscale>
<asrwt>0</asrwt>
<pdfrwt beam="1">  1        1 0.70881817E-01 0.97523366E+02</pdfrwt>
<pdfrwt beam="2">  1       -1 0.35979342E-02 0.97523366E+02</pdfrwt>
<totfact> 0.13343607E+04</totfact>
</mgrwt>
</event>
<event>
 8    1  0.3400573E-004  0.1296614E+03  0.7546771E-02  0.1228007E+00
         -1   -1    0    0    0  501 -0.00000000000E+00  0.00000000000E+00  0.35368569960E+03  0.35368569960E+03  0.00000000000E+00 0.  1.
          1   -1    0    0  501    0  0.00000000000E+00 -0.00000000000E+00 -0.47543613689E+02  0.47543613689E+02  0.00000000000E+00 0. -1.
         23    2    1    2    0    0  0.73753294792E+02 -0.57358572540E+02  0.14602585188E+03  0.19519705266E+03  0.89715024446E+02 0.  0.
         23    2    1    2    0    0 -0.73753294792E+02  0.57358572540E+02  0.16011623403E+03  0.20603226063E+03  0.89902890306E+02 0.  0.
          5    1    3    3  502    0  0.43676883849E+02 -0.94841698632E-02  0.10868786382E+02  0.45253627370E+02  0.47000000000E+01 0. -1.
         -5    1    3    3    0  502  0.30076410943E+02 -0.57349088370E+02  0.13515706550E+03  0.14994342529E+03  0.47000000000E+01 0.  1.
          5    1    4    4  503    0 -0.80622507771E+02  0.11355264866E+02  0.11564407851E+03  0.14150821070E+03  0.47000000000E+01 0. -1.
         -5    1    4    4    0  503  0.68692129792E+01  0.46003307674E+02  0.44472155513E+02  0.64524049934E+02  0.47000000000E+01 0.  1.
<mgrwt>
<rscale>  0 0.12962886E+03</rscale>
<asrwt>0</asrwt>
<pdfrwt beam="1">  1        1 0.73144024E-02 0.12966142E+03</pdfrwt>
<pdfrwt beam="2">  1       -1 0.54413183E-01 0.12966142E+03</pdfrwt>
<totfact> 0.33063357E+03</totfact>
</mgrwt>
</event>
<event>
 8    1  0.3400573E-004  0.1026445E+03  0.7546771E-02  0.1276154E+00
         -1   -1    0    0    0  501 -0.00000000000E+00  0.00000000000E+00  0.93851159631E+02  0.93851159631E+02  0.00000000000E+00 0.  1.
          1   -1    0    0  501    0  0.00000000000E+00 -0.00000000000E+00 -0.11374763095E+03  0.11374763095E+03  0.00000000000E+00 0. -1.
         23    2    1    2    0    0 -0.25026089245E+02 -0.40166236797E+02  0.10304888596E+02  0.10060337782E+03  0.88177191943E+02 0.  0.
         23    2    1    2    0    0  0.25026089245E+02  0.40166236797E+02 -0.30201359919E+02  0.10699541276E+03  0.91083832210E+02 0.  0.
          5    1    3    3  502    0  0.22711670506E+02 -0.42167192326E+02  0.19132338537E+02  0.51788304314E+02  0.47000000000E+01 0. -1.
         -5    1    4    4    0  503 -0.29772160884E+02  0.12168052154E+02  0.91916520440E+01  0.33778980509E+02  0.47000000000E+01 0.  1.
          5    1    4    4  503    0  0.54798250129E+02  0.27998184643E+02 -0.39393011963E+02  0.73216432254E+02  0.47000000000E+01 0. -1.
         -5    1    3    3    0  502 -0.47737759751E+02  0.20009555290E+01 -0.88274499412E+01  0.48815073508E+02  0.47000000000E+01 0.  1.
<mgrwt>
<rscale>  0 0.10199582E+03</rscale>
<asrwt>0</asrwt>
<pdfrwt beam="1">  1        1 0.17499636E-01 0.10264451E+03</pdfrwt>
<pdfrwt beam="2">  1       -1 0.14438640E-01 0.10264451E+03</pdfrwt>
<totfact> 0.95429673E+03</totfact>
</mgrwt>
</event>
<event>
 8    1  0.3400573E-004  0.9842351E+02  0.7546771E-02  0.1284900E+00
         -1   -1    0    0    0  501 -0.00000000000E+00  0.00000000000E+00  0.72339739525E+02  0.72339739525E+02  0.00000000000E+00 0.  1.
          1   -1    0    0  501    0  0.00000000000E+00 -0.00000000000E+00 -0.19520901335E+03  0.19520901335E+03  0.00000000000E+00 0. -1.
         23    2    1    2    0    0 -0.18600741740E+02  0.24920174630E+02 -0.13778752214E+03  0.16800106782E+03  0.90950287707E+02 0.  0.
         23    2    1    2    0    0  0.18600741740E+02 -0.24920174630E+02  0.14918248316E+02  0.99547685055E+02  0.93381929569E+02 0.  0.
          5    1    4    4  502    0  0.39415863731E+02 -0.18936692084E+01 -0.26359743855E+02  0.47687759360E+02  0.47000000000E+01 0. -1.
         -5    1    3    3    0  503 -0.47369221919E+02 -0.44825958703E+01 -0.10434811080E+03  0.11478046470E+03  0.47000000000E+01 0.  1.
          5    1    3    3  503    0  0.28768480179E+02  0.29402770500E+02 -0.33439411344E+02  0.53220603115E+02  0.47000000000E+01 0. -1.
         -5    1    4    4    0  502 -0.20815121991E+02 -0.23026505421E+02  0.41277992170E+02  0.51859925694E+02  0.47000000000E+01 0.  1.
<mgrwt>
<rscale>  0 0.97842380E+02</rscale>
<asrwt>0</asrwt>
<pdfrwt beam="1">  1        1 0.30032156E-01 0.98423511E+02</pdfrwt>
<pdfrwt beam="2">  1       -1 0.11129191E-01 0.98423511E+02</pdfrwt>
<totfact> 0.72223613E+03</totfact>
</mgrwt>
</event>
<event>
 8    1  0.3400573E-004  0.1007238E+03  0.7546771E-02  0.1280187E+00
         -1   -1    0    0    0  501 -0.00000000000E+00  0.00000000000E+00  0.51178964786E+03  0.51178964786E+03  0.00000000000E+00 0.  1.
          1   -1    0    0  501    0  0.00000000000E+00 -0.00000000000E+00 -0.21249401309E+02  0.21249401309E+02  0.00000000000E+00 0. -1.
         23    2    1    2    0    0  0.44288490455E+02  0.13847740484E+02  0.32890931263E+03  0.34398636975E+03  0.89398301628E+02 0.  0.
         23    2    1    2    0    0 -0.44288490455E+02 -0.13847740484E+02  0.16163093392E+03  0.18905267942E+03  0.86389388773E+02 0.  0.
          5    1    3    3  502    0 -0.20950939820E+02 -0.16490248366E+02  0.65189658815E+02  0.70587901137E+02  0.47000000000E+01 0. -1.
         -5    1    4    4    0  503 -0.38554514043E+02  0.15071763271E+02  0.15211648990E+03  0.15771849955E+03  0.47000000000E+01 0.  1.
          5    1    4    4  503    0 -0.57339764119E+01 -0.28919503756E+02  0.95144440188E+01  0.31334179867E+02  0.47000000000E+01 0. -1.
         -5    1    3    3    0  502  0.65239430276E+02  0.30337988850E+02  0.26371965382E+03  0.27339846861E+03  0.47000000000E+01 0.  1.
<mgrwt>
<rscale>  0 0.10005192E+03</rscale>
<asrwt>0</asrwt>
<pdfrwt beam="1">  1        1 0.32691391E-02 0.10072381E+03</pdfrwt>
<pdfrwt beam="2">  1       -1 0.78736859E-01 0.10072381E+03</pdfrwt>
<totfact> 0.47552259E+03</totfact>
</mgrwt>
</event>
<event>
 8    1  0.3400573E-004  0.9580102E+02  0.7546771E-02  0.1292589E+00
          2   -1    0    0  501    0  0.00000000000E+00  0.00000000000E+00  0.62276773811E+03  0.62276773811E+03  0.00000000000E+00 0. -1.
         -2   -1    0    0    0  501 -0.00000000000E+00 -0.00000000000E+00 -0.18502981072E+02  0.18502981072E+02  0.00000000000E+00 0.  1.
         23    2    1    2    0    0 -0.30137362733E+02  0.14613577910E+02  0.46894060370E+03  0.47862629062E+03  0.89755328467E+02 0.  0.
         23    2    1    2    0    0  0.30137362733E+02 -0.14613577910E+02  0.13532415335E+03  0.16264442856E+03  0.83778078113E+02 0.  0.
          5    1    4    4  502    0 -0.11986350557E+02 -0.37919380513E+02  0.77681270027E+02  0.87395776392E+02  0.47000000000E+01 0. -1.
         -5    1    4    4    0  502  0.42123713291E+02  0.23305802603E+02  0.57642883318E+02  0.75248652171E+02  0.47000000000E+01 0.  1.
          5    1    3    3  503    0 -0.17587722409E+00 -0.35437098683E+02  0.13823074366E+03  0.14277831554E+03  0.47000000000E+01 0.  1.
         -5    1    3    3    0  503 -0.29961485509E+02  0.50050676593E+02  0.33070986004E+03  0.33584797508E+03  0.47000000000E+01 0. -1.
<mgrwt>
<rscale>  0 0.94375564E+02</rscale>
<asrwt>0</asrwt>
<pdfrwt beam="1">  1        2 0.95810405E-01 0.95801024E+02</pdfrwt>
<pdfrwt beam="2">  1       -2 0.28466129E-02 0.95801024E+02</pdfrwt>
<totfact> 0.20232321E+04</totfact>
</mgrwt>
</event>
<event>
 8    1  0.3400573E-004  0.9656599E+02  0.7546771E-02  0.1288709E+00
          1   -1    0    0  501    0  0.00000000000E+00  0.00000000000E+00  0.60756983648E+03  0.60756983648E+03  0.00000000000E+00 0. -1.
         -1   -1    0    0    0  501 -0.00000000000E+00 -0.00000000000E+00 -0.17135452035E+02  0.17135452035E+02  0.00000000000E+00 0.  1.
         23    2    1    2    0    0  0.55338379175E+01  0.30214434635E+02  0.40646603199E+03  0.41777939762E+03  0.91550283991E+02 0.  0.
         23    2    1    2    0    0 -0.55338379175E+01 -0.30214434635E+02  0.18396835246E+03  0.20692589089E+03  0.89612689905E+02 0.  0.
          5    1    4    4  502    0  0.83824503030E+01  0.25178779822E+02  0.11055926911E+03  0.11379665379E+03  0.47000000000E+01 0. -1.
         -5    1    3    3    0  503  0.15958121590E+02 -0.28158327514E+02  0.20918156584E+03  0.21172286258E+03  0.47000000000E+01 0.  1.
          5    1    3    3  503    0 -0.10424283673E+02  0.58372762149E+02  0.19728446615E+03  0.20605653504E+03  0.47000000000E+01 0. -1.
         -5    1    4    4    0  502 -0.13916288220E+02 -0.55393214457E+02  0.73409083345E+02  0.93129237102E+02  0.47000000000E+01 0.  1.
<mgrwt>
<rscale>  0 0.96103945E+02</rscale>
<asrwt>0</asrwt>
<pdfrwt beam="1">  1        1 0.93472266E-01 0.96565987E+02</pdfrwt>
<pdfrwt beam="2">  1       -1 0.26362239E-02 0.96565987E+02</pdfrwt>
<totfact> 0.14560898E+04</totfact>
</mgrwt>
</event>
<event>
 8    1  0.3400573E-004  0.1122704E+03  0.7546771E-02  0.1258965E+00
         -2   -1    0    0    0  501 -0.00000000000E+00  0.00000000000E+00  0.14248022409E+02  0.14248022409E+02  0.00000000000E+00 0.  1.
          2   -1    0    0  501    0  0.00000000000E+00 -0.00000000000E+00 -0.89433171119E+03  0.89433171119E+03  0.00000000000E+00 0. -1.
         23    2    1    2    0    0 -0.52126445024E+02 -0.22752540858E+02 -0.56039408812E+03  0.57152968629E+03  0.96797747536E+02 0.  0.
         23    2    1    2    0    0  0.52126445024E+02  0.22752540858E+02 -0.31968960067E+03  0.33705004731E+03  0.90368408371E+02 0.  0.
          5    1    4    4  502    0  0.36577395524E+02  0.52647561835E+02 -0.26464418596E+03  0.27233858851E+03  0.47000000000E+01 0. -1.
         -5    1    3    3    0  503 -0.38383884864E+02 -0.59912671610E+02 -0.32016625409E+03  0.32801123623E+03  0.47000000000E+01 0.  1.
          5    1    3    3  503    0 -0.13742560160E+02  0.37160130752E+02 -0.24022783403E+03  0.24351845006E+03  0.47000000000E+01 0. -1.
         -5    1    4    4    0  502  0.15549049499E+02 -0.29895020977E+02 -0.55045414705E+02  0.64711458796E+02  0.47000000000E+01 0.  1.
<mgrwt>
<rscale>  0 0.11087108E+03</rscale>
<asrwt>0</asrwt>
<pdfrwt beam="1">  1        2 0.13758945E+00 0.11227042E+03</pdfrwt>
<pdfrwt beam="2">  1       -2 0.21920042E-02 0.11227042E+03</pdfrwt>
<totfact> 0.19394092E+04</totfact>
</mgrwt>
</event>
<event>
 8    1  0.3400573E-004  0.1351914E+03  0.7546771E-02  0.1223740E+00
          2   -1    0    0  501    0  0.00000000000E+00  0.00000000000E+00  0.42840327084E+03  0.42840327084E+03  0.00000000000E+00 0. -1.
         -2   -1    0    0    0  501 -0.00000000000E+00 -0.00000000000E+00 -0.77300437985E+02  0.77300437985E+02  0.00000000000E+00 0.  1.
         23    2    1    2    0    0  0.58928229277E+02  0.62296322684E+02  0.22905854649E+01  0.13521078389E+03  0.10451478974E+03 0.  0.
         23    2    1    2    0    0 -0.58928229277E+02 -0.62296322684E+02  0.34881224739E+03  0.37049292493E+03  0.90783563863E+02 0.  0.
          5    1    3    3  502    0  0.41789738986E+02 -0.20581189966E+02 -0.14063676559E+02  0.48886037508E+02  0.47000000000E+01 0. -1.
         -5    1    3    3    0  502  0.17138490291E+02  0.82877512649E+02  0.16354262024E+02  0.86324746387E+02  0.47000000000E+01 0.  1.
          5    1    4    4  503    0 -0.82215421835E+02 -0.56509349873E+02  0.26537007793E+03  0.28354197303E+03  0.47000000000E+01 0. -1.
         -5    1    4    4    0  503  0.23287192558E+02 -0.57869728106E+01  0.83442169461E+02  0.86950951898E+02  0.47000000000E+01 0.  1.
<mgrwt>
<rscale>  0 0.13253635E+03</rscale>
<asrwt>0</asrwt>
<pdfrwt beam="1">  1        2 0.65908194E-01 0.13519138E+03</pdfrwt>
<pdfrwt beam="2">  1       -2 0.11892375E-01 0.13519138E+03</pdfrwt>
<totfact> 0.35955207E+03</totfact>
</mgrwt>
</event>
<event>
 8    1  0.3400573E-004  0.9513547E+02  0.7546771E-02  0.1292480E+00
          2   -1    0    0  501    0  0.00000000000E+00  0.00000000000E+00  0.50198244106E+03  0.50198244106E+03  0.00000000000E+00 0. -1.
         -2   -1    0    0    0  501 -0.00000000000E+00 -0.00000000000E+00 -0.22100766035E+02  0.22100766035E+02  0.00000000000E+00 0.  1.
         23    2    1    2    0    0 -0.95502584533E+01  0.42824514754E+01  0.35663237120E+03  0.36838751519E+03  0.91723314002E+02 0.  0.
         23    2    1    2    0    0  0.95502584533E+01 -0.42824514754E+01  0.12324930383E+03  0.15569569191E+03  0.94557975644E+02 0.  0.
          5    1    3    3  502    0 -0.69341413661E+01 -0.30947459512E+02  0.29838514889E+03  0.30010267351E+03  0.47000000000E+01 0. -1.
         -5    1    4    4    0  503  0.44293687831E+02 -0.14127580466E+02  0.29852864033E+02  0.55450904433E+02  0.47000000000E+01 0.  1.
          5    1    4    4  503    0 -0.34743429378E+02  0.98451289902E+01  0.93396439793E+02  0.10024478747E+03  0.47000000000E+01 0. -1.
         -5    1    3    3    0  502 -0.26161170872E+01  0.35229910988E+02  0.58247222308E+02  0.68284841681E+02  0.47000000000E+01 0.  1.
<mgrwt>
<rscale>  0 0.94423280E+02</rscale>
<asrwt>0</asrwt>
<pdfrwt beam="1">  1        2 0.77228059E-01 0.95135470E+02</pdfrwt>
<pdfrwt beam="2">  1       -2 0.34001182E-02 0.95135470E+02</pdfrwt>
<totfact> 0.19804075E+04</totfact>
</mgrwt>
</event>
<event>
 8    1  0.3400573E-004  0.1140881E+03  0.7546771E-02  0.1254936E+00
         -1   -1    0    0    0  501 -0.00000000000E+00  0.00000000000E+00  0.71012892158E+02  0.71012892158E+02  0.00000000000E+00 0.  1.
          1   -1    0    0  501    0  0.00000000000E+00 -0.00000000000E+00 -0.47818493179E+03  0.47818493179E+03  0.00000000000E+00 0. -1.
         23    2    1    2    0    0 -0.54023957612E+02 -0.35685122483E+02  0.15617422945E+02  0.11128570603E+03  0.89154856878E+02 0.  0.
         23    2    1    2    0    0  0.54023957612E+02  0.35685122483E+02 -0.42278946257E+03  0.43791211791E+03  0.93936560448E+02 0.  0.
          5    1    4    4  502    0  0.77523718845E+02  0.35498611205E+02 -0.37306450720E+03  0.38271307126E+03  0.47000000000E+01 0. -1.
         -5    1    3    3    0  503 -0.77003408949E+02 -0.23902567291E+02  0.23078822308E+02  0.83997498487E+02  0.47000000000E+01 0.  1.
          5    1    3    3  503    0  0.22979451337E+02 -0.11782555192E+02 -0.74613993631E+01  0.27288207545E+02  0.47000000000E+01 0. -1.
         -5    1    4    4    0  502 -0.23499761233E+02  0.18651127723E+00 -0.49724955378E+02  0.55199046656E+02  0.47000000000E+01 0.  1.
<mgrwt>
<rscale>  0 0.11309940E+03</rscale>
<asrwt>0</asrwt>
<pdfrwt beam="1">  1        1 0.73566910E-01 0.11408809E+03</pdfrwt>
<pdfrwt beam="2">  1       -1 0.10925061E-01 0.11408809E+03</pdfrwt>
<totfact> 0.24712424E+03</totfact>
</mgrwt>
</event>
<event>
 8    1  0.3400573E-004  0.1284557E+03  0.7546771E-02  0.1229983E+00
         -1   -1    0    0    0  501 -0.00000000000E+00  0.00000000000E+00  0.10281335277E+03  0.10281335277E+03  0.00000000000E+00 0.  1.
          1   -1    0    0  501    0  0.00000000000E+00 -0.00000000000E+00 -0.20440223856E+03  0.20440223856E+03  0.00000000000E+00 0. -1.
         23    2    1    2    0    0 -0.73231343240E+02 -0.50205238461E+02  0.21069846046E+02  0.12960359405E+03  0.92031285862E+02 0.  0.
         23    2    1    2    0    0  0.73231343240E+02  0.50205238461E+02 -0.12265873183E+03  0.17761199728E+03  0.92830283215E+02 0.  0.
          5    1    3    3  502    0 -0.32184136390E+02  0.68667312681E+01 -0.28229676846E+02  0.43611641660E+02  0.47000000000E+01 0. -1.
         -5    1    4    4    0  503 -0.31158103922E+01  0.45898070253E+02 -0.22262734249E+02  0.51323098733E+02  0.47000000000E+01 0. -1.
          5    1    4    4  503    0  0.76347153632E+02  0.43071682084E+01 -0.10039599758E+03  0.12628889855E+03  0.47000000000E+01 0.  1.
         -5    1    3    3    0  502 -0.41047206851E+02 -0.57071969729E+02  0.49299522892E+02  0.85991952393E+02  0.47000000000E+01 0.  1.
<mgrwt>
<rscale>  0 0.12831137E+03</rscale>
<asrwt>0</asrwt>
<pdfrwt beam="1">  1        1 0.31446498E-01 0.12845566E+03</pdfrwt>
<pdfrwt beam="2">  1       -1 0.15817439E-01 0.12845566E+03</pdfrwt>
<totfact> 0.40339698E+03</totfact>
</mgrwt>
</event>
<event>
 8    1  0.3400573E-004  0.9445163E+02  0.7546771E-02  0.1293339E+00
          2   -1    0    0  501    0  0.00000000000E+00  0.00000000000E+00  0.20343205393E+03  0.20343205393E+03  0.00000000000E+00 0. -1.
         -2   -1    0    0    0  501 -0.00000000000E+00 -0.00000000000E+00 -0.53470467800E+02  0.53470467800E+02  0.00000000000E+00 0.  1.
         23    2    1    2    0    0  0.24974789113E+00  0.17272009176E+02  0.13204734310E+03  0.16235027586E+03  0.92858637606E+02 0.  0.
         23    2    1    2    0    0 -0.24974789113E+00 -0.17272009176E+02  0.17914243033E+02  0.94552245870E+02  0.91218542088E+02 0.  0.
          5    1    3    3  502    0  0.36100663722E+02  0.23905105659E+02  0.11267046898E+03  0.12079501885E+03  0.47000000000E+01 0. -1.
         -5    1    4    4    0  503 -0.12687981105E+02 -0.51522230919E+02  0.21901331670E+02  0.57595863326E+02  0.47000000000E+01 0.  1.
          5    1    4    4  503    0  0.12438233214E+02  0.34250221743E+02 -0.39870886371E+01  0.36956382544E+02  0.47000000000E+01 0. -1.
         -5    1    3    3    0  502 -0.35850915831E+02 -0.66330964823E+01  0.19376874113E+02  0.41555257011E+02  0.47000000000E+01 0.  1.
<mgrwt>
<rscale>  0 0.94046042E+02</rscale>
<asrwt>0</asrwt>
<pdfrwt beam="1">  1        2 0.31297239E-01 0.94451634E+02</pdfrwt>
<pdfrwt beam="2">  1       -2 0.82262259E-02 0.94451634E+02</pdfrwt>
<totfact> 0.13724501E+04</totfact>
</mgrwt>
</event>
<event>
 8    1  0.3400573E-004  0.9253311E+02  0.7546771E-02  0.1296879E+00
          1   -1    0    0  501    0  0.00000000000E+00  0.00000000000E+00  0.70064985070E+02  0.70064985070E+02  0.00000000000E+00 0. -1.
         -1   -1    0    0    0  501 -0.00000000000E+00 -0.00000000000E+00 -0.18519038881E+03  0.18519038881E+03  0.00000000000E+00 0.  1.
         23    2    1    2    0    0  0.70810723626E+01  0.76934380467E+01 -0.13204029634E+03  0.16118895933E+03  0.91858098055E+02 0.  0.
         23    2    1    2    0    0 -0.70810723626E+01 -0.76934380467E+01  0.16914892601E+02  0.94066414547E+02  0.91940449092E+02 0.  0.
          5    1    3    3  502    0 -0.22902073474E+02 -0.31885940258E+02 -0.38522683868E+02  0.55202403281E+02  0.47000000000E+01 0. -1.
         -5    1    4    4    0  503  0.34730087490E+02  0.16580012203E+02 -0.78284679423E+01  0.39553137575E+02  0.47000000000E+01 0.  1.
          5    1    4    4  503    0 -0.41811159852E+02 -0.24273450250E+02  0.24743360543E+02  0.54513276972E+02  0.47000000000E+01 0. -1.
         -5    1    3    3    0  502  0.29983145837E+02  0.39579378305E+02 -0.93517612474E+02  0.10598655605E+03  0.47000000000E+01 0.  1.
<mgrwt>
<rscale>  0 0.92512649E+02</rscale>
<asrwt>0</asrwt>
<pdfrwt beam="1">  1        1 0.10779229E-01 0.92533112E+02</pdfrwt>
<pdfrwt beam="2">  1       -1 0.28490828E-01 0.92533112E+02</pdfrwt>
<totfact> 0.59687701E+03</totfact>
</mgrwt>
</event>
<event>
 8    1  0.3400573E-004  0.1648516E+03  0.7546771E-02  0.1183596E+00
          1   -1    0    0  501    0  0.00000000000E+00  0.00000000000E+00  0.39658693931E+03  0.39658693931E+03  0.00000000000E+00 0. -1.
         -1   -1    0    0    0  501 -0.00000000000E+00 -0.00000000000E+00 -0.73494844172E+02  0.73494844172E+02  0.00000000000E+00 0.  1.
         23    2    1    2    0    0  0.45305954909E+02 -0.12962207203E+03  0.98393866440E+02  0.19198285631E+03  0.91222546871E+02 0.  0.
         23    2    1    2    0    0 -0.45305954909E+02  0.12962207203E+03  0.22469822870E+03  0.27809892717E+03  0.89415928155E+02 0.  0.
          5    1    3    3  502    0 -0.19440190331E+02 -0.48923378039E+01  0.27942008485E+02  0.34708814550E+02  0.47000000000E+01 0. -1.
         -5    1    4    4    0  503 -0.51894751969E+02  0.25163679304E+02  0.96670770792E+02  0.11266589530E+03  0.47000000000E+01 0.  1.
          5    1    4    4  503    0  0.65887970602E+01  0.10445839272E+03  0.12802745790E+03  0.16543303187E+03  0.47000000000E+01 0. -1.
         -5    1    3    3    0  502  0.64746145240E+02 -0.12472973422E+03  0.70451857956E+02  0.15727404176E+03  0.47000000000E+01 0.  1.
<mgrwt>
<rscale>  0 0.16460288E+03</rscale>
<asrwt>0</asrwt>
<pdfrwt beam="1">  1        1 0.61013374E-01 0.16485164E+03</pdfrwt>
<pdfrwt beam="2">  1       -1 0.11306899E-01 0.16485164E+03</pdfrwt>
<totfact> 0.30178168E+03</totfact>
</mgrwt>
</event>
<event>
 8    1  0.3400573E-004  0.1029580E+03  0.7546771E-02  0.1274229E+00
         -1   -1    0    0    0  501 -0.00000000000E+00  0.00000000000E+00  0.60698696607E+02  0.60698696607E+02  0.00000000000E+00 0.  1.
          1   -1    0    0  501    0  0.00000000000E+00 -0.00000000000E+00 -0.18031655642E+03  0.18031655642E+03  0.00000000000E+00 0. -1.
         23    2    1    2    0    0  0.19772865302E+02 -0.43124024541E+02 -0.81382600608E+02  0.13118680034E+03  0.91302799556E+02 0.  0.
         23    2    1    2    0    0 -0.19772865302E+02  0.43124024541E+02 -0.38235259207E+02  0.10982845269E+03  0.91376727226E+02 0.  0.
          5    1    3    3  502    0  0.36913474734E+02  0.16428091866E+02 -0.34540105330E+02  0.53362868134E+02  0.47000000000E+01 0. -1.
         -5    1    3    3    0  502 -0.17140609431E+02 -0.59552116407E+02 -0.46842495278E+02  0.77823932206E+02  0.47000000000E+01 0.  1.
          5    1    4    4  503    0 -0.10996364707E+01  0.69753781053E+02 -0.28975006772E+02  0.75686459747E+02  0.47000000000E+01 0. -1.
         -5    1    4    4    0  503 -0.18673228832E+02 -0.26629756512E+02 -0.92602524354E+01  0.34141992942E+02  0.47000000000E+01 0.  1.
<mgrwt>
<rscale>  0 0.10294161E+03</rscale>
<asrwt>0</asrwt>
<pdfrwt beam="1">  1        1 0.27741008E-01 0.10295802E+03</pdfrwt>
<pdfrwt beam="2">  1       -1 0.93382612E-02 0.10295802E+03</pdfrwt>
<totfact> 0.10431496E+04</totfact>
</mgrwt>
</event>
<event>
 8    1  0.3400573E-004  0.1054661E+03  0.7546771E-02  0.1274416E+00
         -1   -1    0    0    0  501 -0.00000000000E+00  0.00000000000E+00  0.31162700007E+03  0.31162700007E+03  0.00000000000E+00 0.  1.
          1   -1    0    0  501    0  0.00000000000E+00 -0.00000000000E+00 -0.50665382694E+02  0.50665382694E+02  0.00000000000E+00 0. -1.
         23    2    1    2    0    0 -0.45864302869E+02 -0.24583561553E+02  0.23508505853E+03  0.25369822107E+03  0.79936955509E+02 0.  0.
         23    2    1    2    0    0  0.45864302869E+02  0.24583561553E+02  0.25876558845E+02  0.10859416169E+03  0.91734453064E+02 0.  0.
          5    1    3    3  502    0  0.11790063580E+02 -0.29228091416E+02  0.46379522707E+02  0.56271103184E+02  0.47000000000E+01 0. -1.
         -5    1    4    4    0  503 -0.57283069557E+01  0.44614894081E+02  0.27673788158E+02  0.53021041347E+02  0.47000000000E+01 0.  1.
          5    1    4    4  503    0  0.51592609825E+02 -0.20031332529E+02 -0.17972293122E+01  0.55573120343E+02  0.47000000000E+01 0. -1.
         -5    1    3    3    0  502 -0.57654366449E+02  0.46445298629E+01  0.18870553582E+03  0.19742711789E+03  0.47000000000E+01 0.  1.
<mgrwt>
<rscale>  0 0.10284938E+03</rscale>
<asrwt>0</asrwt>
<pdfrwt beam="1">  1        1 0.77946744E-02 0.10546609E+03</pdfrwt>
<pdfrwt beam="2">  1       -1 0.47942614E-01 0.10546609E+03</pdfrwt>
<totfact> 0.37775445E+03</totfact>
</mgrwt>
</event>
<event>
 8    1  0.3400573E-004  0.1050914E+03  0.7546771E-02  0.1270414E+00
          1   -1    0    0  501    0  0.00000000000E+00  0.00000000000E+00  0.97467848321E+02  0.97467848321E+02  0.00000000000E+00 0. -1.
         -1   -1    0    0    0  501 -0.00000000000E+00 -0.00000000000E+00 -0.13780685065E+03  0.13780685065E+03  0.00000000000E+00 0.  1.
         23    2    1    2    0    0 -0.34982370376E+02  0.40698947415E+02  0.30384546027E+02  0.10939567969E+03  0.90354986244E+02 0.  0.
         23    2    1    2    0    0  0.34982370376E+02 -0.40698947415E+02 -0.70723548357E+02  0.12587901929E+03  0.89238649958E+02 0.  0.
          5    1    3    3  502    0 -0.63692591293E+02  0.22622743428E+02  0.74211316233E+01  0.68159356660E+02  0.47000000000E+01 0. -1.
         -5    1    4    4    0  503  0.32098027557E+02  0.22873602105E+02 -0.33937243542E+02  0.52223668442E+02  0.47000000000E+01 0.  1.
          5    1    4    4  503    0  0.28843428191E+01 -0.63572549520E+02 -0.36786304815E+02  0.73655350844E+02  0.47000000000E+01 0. -1.
         -5    1    3    3    0  502  0.28710220917E+02  0.18076203987E+02  0.22963414404E+02  0.41236323026E+02  0.47000000000E+01 0.  1.
<mgrwt>
<rscale>  0 0.10485098E+03</rscale>
<asrwt>0</asrwt>
<pdfrwt beam="1">  1        1 0.14995054E-01 0.10509136E+03</pdfrwt>
<pdfrwt beam="2">  1       -1 0.21201054E-01 0.10509136E+03</pdfrwt>
<totfact> 0.63582467E+03</totfact>
</mgrwt>
</event>
<event>
 8    1  0.3400573E-004  0.1153270E+03  0.7546771E-02  0.1252757E+00
          1   -1    0    0  501    0  0.00000000000E+00  0.00000000000E+00  0.23160354957E+03  0.23160354957E+03  0.00000000000E+00 0. -1.
         -1   -1    0    0    0  501 -0.00000000000E+00 -0.00000000000E+00 -0.56265706658E+02  0.56265706658E+02  0.00000000000E+00 0.  1.
         23    2    1    2    0    0 -0.53077906463E+02  0.29561582124E+02  0.10615759406E+03  0.15674741826E+03  0.98026359020E+02 0.  0.
         23    2    1    2    0    0  0.53077906463E+02 -0.29561582124E+02  0.69180248855E+02  0.13112183797E+03  0.93358868188E+02 0.  0.
          5    1    4    4  502    0  0.91236954378E+01 -0.34265657197E+02  0.77991251537E+02  0.85802694584E+02  0.47000000000E+01 0. -1.
         -5    1    3    3    0  503 -0.79142110427E+02  0.34570655613E+02  0.92109667356E+02  0.12635222472E+03  0.47000000000E+01 0.  1.
          5    1    3    3  503    0  0.26064203964E+02 -0.50090734891E+01  0.14047926706E+02  0.30395193538E+02  0.47000000000E+01 0. -1.
         -5    1    4    4    0  502  0.43954211025E+02  0.47040750731E+01 -0.88110026820E+01  0.45319143388E+02  0.47000000000E+01 0.  1.
<mgrwt>
<rscale>  0 0.11432909E+03</rscale>
<asrwt>0</asrwt>
<pdfrwt beam="1">  1        1 0.35631315E-01 0.11532701E+03</pdfrwt>
<pdfrwt beam="2">  1       -1 0.86562627E-02 0.11532701E+03</pdfrwt>
<totfact> 0.86700496E+03</totfact>
</mgrwt>
</event>
<event>
 8    1  0.3400573E-004  0.9563384E+02  0.7546771E-02  0.1290798E+00
         -1   -1    0    0    0  501 -0.00000000000E+00  0.00000000000E+00  0.74102756609E+02  0.74102756609E+02  0.00000000000E+00 0.  1.
          1   -1    0    0  501    0  0.00000000000E+00 -0.00000000000E+00 -0.16029192357E+03  0.16029192357E+03  0.00000000000E+00 0. -1.
         23    2    1    2    0    0  0.17527173999E+02 -0.21582183894E+02 -0.10140077570E+03  0.13938417770E+03  0.91503219556E+02 0.  0.
         23    2    1    2    0    0 -0.17527173999E+02  0.21582183894E+02  0.15211608742E+02  0.95010502483E+02  0.89569023951E+02 0.  0.
          5    1    4    4  502    0 -0.28946593149E+01  0.43021126465E+02  0.39860481288E+02  0.58907931073E+02  0.47000000000E+01 0. -1.
         -5    1    3    3    0  503  0.33478655972E+02  0.47773607432E+01 -0.89247243774E+00  0.34154503194E+02  0.47000000000E+01 0.  1.
          5    1    3    3  503    0 -0.15951481973E+02 -0.26359544637E+02 -0.10050830327E+03  0.10522967450E+03  0.47000000000E+01 0. -1.
         -5    1    4    4    0  502 -0.14632514684E+02 -0.21438942571E+02 -0.24648872547E+02  0.36102571409E+02  0.47000000000E+01 0.  1.
<mgrwt>
<rscale>  0 0.95168210E+02</rscale>
<asrwt>0</asrwt>
<pdfrwt beam="1">  1        1 0.24660296E-01 0.95633842E+02</pdfrwt>
<pdfrwt beam="2">  1       -1 0.11400424E-01 0.95633842E+02</pdfrwt>
<totfact> 0.88626294E+03</totfact>
</mgrwt>
</event>
<event>
 8    1  0.3400573E-004  0.9638334E+02  0.7546771E-02  0.1289252E+00
         -1   -1    0    0    0  501 -0.00000000000E+00  0.00000000000E+00  0.44212640211E+02  0.44212640211E+02  0.00000000000E+00 0.  1.
          1   -1    0    0  501    0  0.00000000000E+00 -0.00000000000E+00 -0.23992131736E+03  0.23992131736E+03  0.00000000000E+00 0. -1.
         23    2    1    2    0    0  0.13554567329E+02 -0.28508829616E+02 -0.15249140081E+03  0.18039782634E+03  0.91067385846E+02 0.  0.
         23    2    1    2    0    0 -0.13554567329E+02  0.28508829616E+02 -0.43217276340E+02  0.10373613123E+03  0.88864910327E+02 0.  0.
          5    1    3    3  502    0  0.28598891148E+02  0.42643135697E+01 -0.13828727851E+03  0.14135608350E+03  0.47000000000E+01 0. -1.
         -5    1    3    3    0  502 -0.15044323819E+02 -0.32773143186E+02 -0.14204122301E+02  0.39041742838E+02  0.47000000000E+01 0.  1.
          5    1    4    4  503    0  0.37064886598E+02  0.48325843437E+01 -0.22911646544E+02  0.44093006672E+02  0.47000000000E+01 0. -1.
         -5    1    4    4    0  503 -0.50619453927E+02  0.23676245273E+02 -0.20305629796E+02  0.59643124562E+02  0.47000000000E+01 0.  1.
<mgrwt>
<rscale>  0 0.95859526E+02</rscale>
<asrwt>0</asrwt>
<pdfrwt beam="1">  1        1 0.36910972E-01 0.96383341E+02</pdfrwt>
<pdfrwt beam="2">  1       -1 0.68019447E-02 0.96383341E+02</pdfrwt>
<totfact> 0.11727218E+04</totfact>
</mgrwt>
</event>
<event>
 8    1  0.3400573E-004  0.1016462E+03  0.7546771E-02  0.1278086E+00
         -1   -1    0    0    0  501 -0.00000000000E+00  0.00000000000E+00  0.31000816638E+03  0.31000816638E+03  0.00000000000E+00 0.  1.
          1   -1    0    0  501    0  0.00000000000E+00 -0.00000000000E+00 -0.32611078559E+02  0.32611078559E+02  0.00000000000E+00 0. -1.
         23    2    1    2    0    0 -0.11111705148E+02 -0.37344231901E+02  0.14653431451E+03  0.17833749816E+03  0.93882353375E+02 0.  0.
         23    2    1    2    0    0  0.11111705148E+02  0.37344231901E+02  0.13086277332E+03  0.16428174678E+03  0.91352970596E+02 0.  0.
          5    1    4    4  502    0 -0.31934242416E+02  0.11966261449E+02  0.14122035684E+02  0.37208992779E+02  0.47000000000E+01 0. -1.
         -5    1    4    4    0  502  0.43045947564E+02  0.25377970452E+02  0.11674073763E+03  0.12707275400E+03  0.47000000000E+01 0.  1.
          5    1    3    3  503    0 -0.28926295151E+02 -0.62981318191E+02  0.91367423503E+02  0.11477575123E+03  0.47000000000E+01 0. -1.
         -5    1    3    3    0  503  0.17814590003E+02  0.25637086290E+02  0.55166891002E+02  0.63561746933E+02  0.47000000000E+01 0.  1.
<mgrwt>
<rscale>  0 0.10105829E+03</rscale>
<asrwt>0</asrwt>
<pdfrwt beam="1">  1        1 0.50170892E-02 0.10164624E+03</pdfrwt>
<pdfrwt beam="2">  1       -1 0.47693562E-01 0.10164624E+03</pdfrwt>
<totfact> 0.68754973E+03</totfact>
</mgrwt>
</event>
<event>
 8    1  0.3400573E-004  0.1000793E+03  0.7546771E-02  0.1280221E+00
         -2   -1    0    0    0  501 -0.00000000000E+00  0.00000000000E+00  0.62333633252E+02  0.62333633252E+02  0.00000000000E+00 0.  1.
          2   -1    0    0  501    0  0.00000000000E+00 -0.00000000000E+00 -0.37373985898E+03  0.37373985898E+03  0.00000000000E+00 0. -1.
         23    2    1    2    0    0  0.23524585687E+02 -0.34505105931E+02  0.89713300473E+01  0.10048060570E+03  0.90949760258E+02 0.  0.
         23    2    1    2    0    0 -0.23524585687E+02  0.34505105931E+02 -0.32037755578E+03  0.33559288654E+03  0.90756811218E+02 0.  0.
          5    1    4    4  502    0 -0.13117765859E+01 -0.29759273100E+02 -0.12780422671E+03  0.13131391951E+03  0.47000000000E+01 0. -1.
         -5    1    3    3    0  503 -0.24407638035E+02  0.13327178180E+02  0.15683502523E+02  0.32270864942E+02  0.47000000000E+01 0.  1.
          5    1    3    3  503    0  0.47932223722E+02 -0.47832284112E+02 -0.67121724759E+01  0.68209740753E+02  0.47000000000E+01 0. -1.
         -5    1    4    4    0  502 -0.22212809101E+02  0.64264379032E+02 -0.19257332907E+03  0.20427896703E+03  0.47000000000E+01 0.  1.
<mgrwt>
<rscale>  0 0.10003545E+03</rscale>
<asrwt>0</asrwt>
<pdfrwt beam="1">  1        2 0.57498439E-01 0.10007931E+03</pdfrwt>
<pdfrwt beam="2">  1       -2 0.95897899E-02 0.10007931E+03</pdfrwt>
<totfact> 0.57359449E+03</totfact>
</mgrwt>
</event>
<event>
 8    1  0.3400573E-004  0.1102641E+03  0.7546771E-02  0.1262743E+00
         -1   -1    0    0    0  501 -0.00000000000E+00  0.00000000000E+00  0.91050647261E+02  0.91050647261E+02  0.00000000000E+00 0.  1.
          1   -1    0    0  501    0  0.00000000000E+00 -0.00000000000E+00 -0.16756245817E+03  0.16756245817E+03  0.00000000000E+00 0. -1.
         23    2    1    2    0    0  0.45606096306E+02 -0.27190192769E+02  0.24726913113E+02  0.11300261991E+03  0.96638239175E+02 0.  0.
         23    2    1    2    0    0 -0.45606096306E+02  0.27190192769E+02 -0.10123872402E+03  0.14561048552E+03  0.90188201275E+02 0.  0.
          5    1    4    4  502    0 -0.62635660692E+02  0.40184955141E+02 -0.98452801454E+02  0.12350344418E+03  0.47000000000E+01 0. -1.
         -5    1    3    3    0  503  0.33215781751E+02 -0.42965554229E+02  0.54312774874E+02  0.76949948161E+02  0.47000000000E+01 0.  1.
          5    1    3    3  503    0  0.12390314554E+02  0.15775361460E+02 -0.29585861761E+02  0.36052671746E+02  0.47000000000E+01 0. -1.
         -5    1    4    4    0  502  0.17029564386E+02 -0.12994762372E+02 -0.27859225650E+01  0.22107041340E+02  0.47000000000E+01 0.  1.
<mgrwt>
<rscale>  0 0.10883483E+03</rscale>
<asrwt>0</asrwt>
<pdfrwt beam="1">  1        1 0.25778840E-01 0.11026410E+03</pdfrwt>
<pdfrwt beam="2">  1       -1 0.14007792E-01 0.11026410E+03</pdfrwt>
<totfact> 0.61809654E+03</totfact>
</mgrwt>
</event>
<event>
 8    1  0.3400573E-004  0.1302273E+03  0.7546771E-02  0.1227561E+00
          3   -1    0    0  501    0  0.00000000000E+00  0.00000000000E+00  0.67537963350E+02  0.67537963350E+02  0.00000000000E+00 0. -1.
         -3   -1    0    0    0  501 -0.00000000000E+00 -0.00000000000E+00 -0.29687196735E+03  0.29687196735E+03  0.00000000000E+00 0.  1.
         23    2    1    2    0    0 -0.23011873752E+02  0.88847897465E+02 -0.41803155012E+02  0.13677222637E+03  0.92388543228E+02 0.  0.
         23    2    1    2    0    0  0.23011873752E+02 -0.88847897465E+02 -0.18753084899E+03  0.22763770433E+03  0.90706173402E+02 0.  0.
          5    1    3    3  502    0  0.13913922697E+02  0.82274151546E+02 -0.50951186155E+02  0.97881288447E+02  0.47000000000E+01 0. -1.
         -5    1    3    3    0  502 -0.36925796449E+02  0.65737459189E+01  0.91480311425E+01  0.38890937924E+02  0.47000000000E+01 0.  1.
          5    1    4    4  503    0  0.49449522187E+02 -0.38770380281E+02 -0.55773319572E+02  0.84149574020E+02  0.47000000000E+01 0. -1.
         -5    1    4    4    0  503 -0.26437648435E+02 -0.50077517184E+02 -0.13175752942E+03  0.14348813031E+03  0.47000000000E+01 0.  1.
<mgrwt>
<rscale>  0 0.12992921E+03</rscale>
<asrwt>0</asrwt>
<pdfrwt beam="1">  1        3 0.10390456E-01 0.13022726E+03</pdfrwt>
<pdfrwt beam="2">  1       -3 0.45672610E-01 0.13022726E+03</pdfrwt>
<totfact> 0.76093610E+02</totfact>
</mgrwt>
</event>
<event>
 8    1  0.3400573E-004  0.1053365E+03  0.7546771E-02  0.1270252E+00
         -2   -1    0    0    0  501 -0.00000000000E+00  0.00000000000E+00  0.43205048175E+02  0.43205048175E+02  0.00000000000E+00 0.  1.
          2   -1    0    0  501    0  0.00000000000E+00 -0.00000000000E+00 -0.42354841744E+03  0.42354841744E+03  0.00000000000E+00 0. -1.
         23    2    1    2    0    0  0.45900556952E+02  0.24795326410E+02 -0.42919547683E+02  0.11374476851E+03  0.91510193151E+02 0.  0.
         23    2    1    2    0    0 -0.45900556952E+02 -0.24795326410E+02 -0.33742382158E+03  0.35300869710E+03  0.89658438074E+02 0.  0.
          5    1    3    3  502    0  0.10374162078E+02 -0.28546806634E+02 -0.38594700912E+02  0.49337453788E+02  0.47000000000E+01 0. -1.
         -5    1    4    4    0  503 -0.65313909405E+02 -0.12081139264E+02 -0.15026234129E+03  0.16435547420E+03  0.47000000000E+01 0.  1.
          5    1    4    4  503    0  0.19413352453E+02 -0.12714187146E+02 -0.18716148029E+03  0.18865322291E+03  0.47000000000E+01 0. -1.
         -5    1    3    3    0  502  0.35526394874E+02  0.53342133044E+02 -0.43248467707E+01  0.64407314724E+02  0.47000000000E+01 0.  1.
<mgrwt>
<rscale>  0 0.10493306E+03</rscale>
<asrwt>0</asrwt>
<pdfrwt beam="1">  1        2 0.65161297E-01 0.10533653E+03</pdfrwt>
<pdfrwt beam="2">  1       -2 0.66469303E-02 0.10533653E+03</pdfrwt>
<totfact> 0.88481638E+03</totfact>
</mgrwt>
</event>
<event>
 8    1  0.3400573E-004  0.1216891E+03  0.7546771E-02  0.1240537E+00
         -2   -1    0    0    0  501 -0.00000000000E+00  0.00000000000E+00  0.22559384095E+03  0.22559384095E+03  0.00000000000E+00 0.  1.
          2   -1    0    0  501    0  0.00000000000E+00 -0.00000000000E+00 -0.73118400322E+02  0.73118400322E+02  0.00000000000E+00 0. -1.
         23    2    1    2    0    0 -0.72133258525E+02  0.23585245662E+02  0.27492111230E+02  0.12427297345E+03  0.94490660663E+02 0.  0.
         23    2    1    2    0    0  0.72133258525E+02 -0.23585245662E+02  0.12498332940E+03  0.17443926782E+03  0.95124942743E+02 0.  0.
          5    1    4    4  502    0  0.93180108814E+02 -0.17893464258E+02  0.79867131261E+02  0.12411106880E+03  0.47000000000E+01 0. -1.
         -5    1    3    3    0  503 -0.71344858171E+02  0.50146822624E+02  0.23097896880E+01  0.87362564838E+02  0.47000000000E+01 0.  1.
          5    1    3    3  503    0 -0.78840035422E+00 -0.26561576962E+02  0.25182321542E+02  0.36910408614E+02  0.47000000000E+01 0. -1.
         -5    1    4    4    0  502 -0.21046850289E+02 -0.56917814036E+01  0.45116198141E+02  0.50328199027E+02  0.47000000000E+01 0.  1.
<mgrwt>
<rscale>  0 0.12156507E+03</rscale>
<asrwt>0</asrwt>
<pdfrwt beam="1">  1        2 0.11248985E-01 0.12168905E+03</pdfrwt>
<pdfrwt beam="2">  1       -2 0.34706744E-01 0.12168905E+03</pdfrwt>
<totfact> 0.40938034E+03</totfact>
</mgrwt>
</event>
<event>
 8    1  0.3400573E-004  0.1100514E+03  0.7546771E-02  0.1260824E+00
          2   -1    0    0  501    0  0.00000000000E+00  0.00000000000E+00  0.59738847715E+03  0.59738847715E+03  0.00000000000E+00 0. -1.
         -2   -1    0    0    0  501 -0.00000000000E+00 -0.00000000000E+00 -0.93774726666E+02  0.93774726666E+02  0.00000000000E+00 0.  1.
         23    2    1    2    0    0 -0.35145153986E+02  0.50654984104E+02 -0.54618271914E+02  0.12218666501E+03  0.90251405620E+02 0.  0.
         23    2    1    2    0    0  0.35145153986E+02 -0.50654984104E+02  0.55823202239E+03  0.56897653880E+03  0.91160307247E+02 0.  0.
          5    1    4    4  502    0  0.50521779245E+02 -0.33454567572E+02  0.52349840494E+03  0.52701454273E+03  0.47000000000E+01 0. -1.
         -5    1    3    3    0  503 -0.57511366391E+02  0.52313289426E+02 -0.60390231432E+02  0.98556113799E+02  0.47000000000E+01 0.  1.
          5    1    3    3  503    0  0.22366212405E+02 -0.16583053223E+01  0.57719595180E+01  0.23630551212E+02  0.47000000000E+01 0. -1.
         -5    1    4    4    0  502 -0.15376625259E+02 -0.17200416532E+02  0.34733617453E+02  0.41961996075E+02  0.47000000000E+01 0.  1.
<mgrwt>
<rscale>  0 0.10986299E+03</rscale>
<asrwt>0</asrwt>
<pdfrwt beam="1">  1        2 0.91905917E-01 0.11005140E+03</pdfrwt>
<pdfrwt beam="2">  1       -2 0.14426881E-01 0.11005140E+03</pdfrwt>
<totfact> 0.18164093E+03</totfact>
</mgrwt>
</event>
<event>
 8    1  0.3400573E-004  0.2004773E+03  0.7546771E-02  0.1149505E+00
         -1   -1    0    0    0  501 -0.00000000000E+00  0.00000000000E+00  0.22260900738E+03  0.22260900738E+03  0.00000000000E+00 0.  1.
          1   -1    0    0  501    0  0.00000000000E+00 -0.00000000000E+00 -0.20156169550E+03  0.20156169550E+03  0.00000000000E+00 0. -1.
         23    2    1    2    0    0  0.77048244730E+02  0.16125778375E+03  0.80185451996E+02  0.21591862194E+03  0.90833032272E+02 0.  0.
         23    2    1    2    0    0 -0.77048244730E+02 -0.16125778375E+03 -0.59138140113E+02  0.20825208094E+03  0.89056750249E+02 0.  0.
          5    1    3    3  502    0  0.67355998433E+02  0.41325067519E+02  0.41876155163E+02  0.89556094721E+02  0.47000000000E+01 0. -1.
         -5    1    3    3    0  502  0.96922462967E+01  0.11993271623E+03  0.38309296833E+02  0.12636252722E+03  0.47000000000E+01 0.  1.
          5    1    4    4  503    0  0.25318412556E+01 -0.96817158311E+02 -0.24004238212E+02  0.99891269967E+02  0.47000000000E+01 0. -1.
         -5    1    4    4    0  503 -0.79580085985E+02 -0.64440625440E+02 -0.35133901901E+02  0.10836081098E+03  0.47000000000E+01 0.  1.
<mgrwt>
<rscale>  0 0.20027736E+03</rscale>
<asrwt>0</asrwt>
<pdfrwt beam="1">  1        1 0.31009491E-01 0.20047729E+03</pdfrwt>
<pdfrwt beam="2">  1       -1 0.34247540E-01 0.20047729E+03</pdfrwt>
<totfact> 0.11743764E+03</totfact>
</mgrwt>
</event>
<event>
 8    1  0.3400573E-004  0.9912525E+02  0.7546771E-02  0.1286513E+00
         -1   -1    0    0    0  501 -0.00000000000E+00  0.00000000000E+00  0.11985303103E+03  0.11985303103E+03  0.00000000000E+00 0.  1.
          1   -1    0    0  501    0  0.00000000000E+00 -0.00000000000E+00 -0.97533506447E+02  0.97533506447E+02  0.00000000000E+00 0. -1.
         23    2    1    2    0    0  0.63593806573E+01  0.11327022238E+02 -0.39974191233E+02  0.10688195387E+03  0.98270407257E+02 0.  0.
         23    2    1    2    0    0 -0.63593806573E+01 -0.11327022238E+02  0.62293715821E+02  0.11050458361E+03  0.90343858750E+02 0.  0.
          5    1    4    4  502    0 -0.29231827199E+02 -0.39764768450E+02  0.52959084801E+02  0.72543029949E+02  0.47000000000E+01 0. -1.
         -5    1    3    3    0  503  0.39701656761E+02 -0.26383635275E+02 -0.25653436527E+02  0.54336972363E+02  0.47000000000E+01 0.  1.
          5    1    3    3  503    0 -0.33342276104E+02  0.37710657513E+02 -0.14320754706E+02  0.52544981504E+02  0.47000000000E+01 0. -1.
         -5    1    4    4    0  502  0.22872446542E+02  0.28437746211E+02  0.93346310197E+01  0.37961553665E+02  0.47000000000E+01 0.  1.
<mgrwt>
<rscale>  0 0.97101019E+02</rscale>
<asrwt>0</asrwt>
<pdfrwt beam="1">  1        1 0.15005155E-01 0.99125255E+02</pdfrwt>
<pdfrwt beam="2">  1       -1 0.18438928E-01 0.99125255E+02</pdfrwt>
<totfact> 0.78959329E+03</totfact>
</mgrwt>
</event>
<event>
 8    1  0.3400573E-004  0.2004302E+03  0.7546771E-02  0.1149582E+00
         -1   -1    0    0    0  501 -0.00000000000E+00  0.00000000000E+00  0.53292093777E+02  0.53292093777E+02  0.00000000000E+00 0.  1.
          1   -1    0    0  501    0  0.00000000000E+00 -0.00000000000E+00 -0.75631449912E+03  0.75631449912E+03  0.00000000000E+00 0. -1.
         23    2    1    2    0    0  0.70884953419E+02  0.16383037682E+03 -0.31582693242E+03  0.37405737643E+03  0.91143845808E+02 0.  0.
         23    2    1    2    0    0 -0.70884953419E+02 -0.16383037682E+03 -0.38719547292E+03  0.43554921647E+03  0.88981552717E+02 0.  0.
          5    1    4    4  502    0  0.18681330617E+02 -0.42025849619E+02 -0.11856038729E+03  0.12725493933E+03  0.47000000000E+01 0. -1.
         -5    1    3    3    0  503  0.52157231113E+01  0.24082965159E+02 -0.31255675632E+01  0.25279480830E+02  0.47000000000E+01 0.  1.
          5    1    3    3  503    0  0.65669230307E+02  0.13974741166E+03 -0.31270136485E+03  0.34877789560E+03  0.47000000000E+01 0. -1.
         -5    1    4    4    0  502 -0.89566284035E+02 -0.12180452720E+03 -0.26863508563E+03  0.30829427714E+03  0.47000000000E+01 0.  1.
<mgrwt>
<rscale>  0 0.20018627E+03</rscale>
<asrwt>0</asrwt>
<pdfrwt beam="1">  1        1 0.11635607E+00 0.20043021E+03</pdfrwt>
<pdfrwt beam="2">  1       -1 0.81987843E-02 0.20043021E+03</pdfrwt>
<totfact> 0.20706676E+03</totfact>
</mgrwt>
</event>
<event>
 8    1  0.3400573E-004  0.1360897E+03  0.7546771E-02  0.1221482E+00
         -1   -1    0    0    0  501 -0.00000000000E+00  0.00000000000E+00  0.41705035877E+02  0.41705035877E+02  0.00000000000E+00 0.  1.
          1   -1    0    0  501    0  0.00000000000E+00 -0.00000000000E+00 -0.42055455530E+03  0.42055455530E+03  0.00000000000E+00 0. -1.
         23    2    1    2    0    0  0.13758957198E+00 -0.93354649924E+02 -0.17056204708E+03  0.21345431572E+03  0.88069423757E+02 0.  0.
         23    2    1    2    0    0 -0.13758957198E+00  0.93354649924E+02 -0.20828747234E+03  0.24880527546E+03  0.99021635861E+02 0.  0.
          5    1    3    3  502    0 -0.37437072177E+02 -0.75896536996E+02 -0.13064053104E+03  0.15572686682E+03  0.47000000000E+01 0. -1.
         -5    1    3    3    0  502  0.37574661749E+02 -0.17458112927E+02 -0.39921516045E+02  0.57727448895E+02  0.47000000000E+01 0.  1.
          5    1    4    4  503    0 -0.24766441072E+02  0.17632980006E+02 -0.14139867862E+03  0.14470651300E+03  0.47000000000E+01 0. -1.
         -5    1    4    4    0  503  0.24628851500E+02  0.75721669917E+02 -0.66888793722E+02  0.10409876247E+03  0.47000000000E+01 0.  1.
<mgrwt>
<rscale>  0 0.13410962E+03</rscale>
<asrwt>0</asrwt>
<pdfrwt beam="1">  1        1 0.64700700E-01 0.13608965E+03</pdfrwt>
<pdfrwt beam="2">  1       -1 0.64161594E-02 0.13608965E+03</pdfrwt>
<totfact> 0.65574683E+03</totfact>
</mgrwt>
</event>
<event>
 8    1  0.3400573E-004  0.1137553E+03  0.7546771E-02  0.1259740E+00
          2   -1    0    0  501    0  0.00000000000E+00  0.00000000000E+00  0.53958729980E+03  0.53958729980E+03  0.00000000000E+00 0. -1.
         -2   -1    0    0    0  501 -0.00000000000E+00 -0.00000000000E+00 -0.22415201575E+02  0.22415201575E+02  0.00000000000E+00 0.  1.
         23    2    1    2    0    0 -0.24857758858E+02 -0.32540325785E+02  0.21305206080E+03  0.24151906210E+03  0.10612961779E+03 0.  0.
         23    2    1    2    0    0  0.24857758858E+02  0.32540325785E+02  0.30412003743E+03  0.32048343927E+03  0.92432984929E+02 0.  0.
          5    1    3    3  502    0  0.19499076925E+02  0.13363572228E+02  0.14911253519E+03  0.15104779778E+03  0.47000000000E+01 0. -1.
         -5    1    3    3    0  502 -0.44356835783E+02 -0.45903898013E+02  0.63939525605E+02  0.90471264323E+02  0.47000000000E+01 0.  1.
          5    1    4    4  503    0  0.56012130275E+02  0.37240655242E+02  0.23289764970E+03  0.24246160599E+03  0.47000000000E+01 0. -1.
         -5    1    4    4    0  503 -0.31154371417E+02 -0.47003294571E+01  0.71222387724E+02  0.78021833281E+02  0.47000000000E+01 0.  1.
<mgrwt>
<rscale>  0 0.11044946E+03</rscale>
<asrwt>0</asrwt>
<pdfrwt beam="1">  1        2 0.83013421E-01 0.11375534E+03</pdfrwt>
<pdfrwt beam="2">  1       -2 0.34484930E-02 0.11375534E+03</pdfrwt>
<totfact> 0.18223619E+04</totfact>
</mgrwt>
</event>
<event>
 8    1  0.3400573E-004  0.9196146E+02  0.7546771E-02  0.1299095E+00
         -1   -1    0    0    0  501 -0.00000000000E+00  0.00000000000E+00  0.15074902529E+02  0.15074902529E+02  0.00000000000E+00 0.  1.
          1   -1    0    0  501    0  0.00000000000E+00 -0.00000000000E+00 -0.63143778593E+03  0.63143778593E+03  0.00000000000E+00 0. -1.
         23    2    1    2    0    0 -0.82597774222E+01  0.72438971098E+01 -0.19548731064E+03  0.21603749181E+03  0.91302854717E+02 0.  0.
         23    2    1    2    0    0  0.82597774222E+01 -0.72438971098E+01 -0.42087557276E+03  0.43047519665E+03  0.89732654093E+02 0.  0.
          5    1    4    4  502    0 -0.35521010011E+02 -0.23790279833E+02 -0.22012390772E+03  0.22428629989E+03  0.47000000000E+01 0. -1.
         -5    1    4    4    0  502  0.43780787433E+02  0.16546382724E+02 -0.20075166504E+03  0.20618889676E+03  0.47000000000E+01 0.  1.
          5    1    3    3  503    0 -0.75532555954E+01  0.47893527870E+02 -0.12984504537E+03  0.13868189315E+03  0.47000000000E+01 0. -1.
         -5    1    3    3    0  503 -0.70652182683E+00 -0.40649630760E+02 -0.65642265267E+02  0.77355598656E+02  0.47000000000E+01 0.  1.
<mgrwt>
<rscale>  0 0.91569263E+02</rscale>
<asrwt>0</asrwt>
<pdfrwt beam="1">  1        1 0.97144240E-01 0.91961455E+02</pdfrwt>
<pdfrwt beam="2">  1       -1 0.23192166E-02 0.91961455E+02</pdfrwt>
<totfact> 0.16538182E+04</totfact>
</mgrwt>
</event>
<event>
 8    1  0.3400573E-004  0.9315873E+02  0.7546771E-02  0.1295450E+00
         -1   -1    0    0    0  501 -0.00000000000E+00  0.00000000000E+00  0.97303758855E+03  0.97303758855E+03  0.00000000000E+00 0.  1.
          1   -1    0    0  501    0  0.00000000000E+00 -0.00000000000E+00 -0.17360670297E+02  0.17360670297E+02  0.00000000000E+00 0. -1.
         23    2    1    2    0    0 -0.36643367339E+01  0.75613589119E+01  0.13244772316E+03  0.16192883725E+03  0.92779024842E+02 0.  0.
         23    2    1    2    0    0  0.36643367339E+01 -0.75613589119E+01  0.82322919509E+03  0.82846942159E+03  0.92653512369E+02 0.  0.
          5    1    3    3  502    0  0.25412159330E+01 -0.35432275043E+02  0.19435337232E+02  0.40764276352E+02  0.47000000000E+01 0. -1.
         -5    1    4    4    0  503 -0.43265891822E+01 -0.49340439044E+02  0.48440862947E+03  0.48695688577E+03  0.47000000000E+01 0.  1.
          5    1    4    4  503    0  0.79909259161E+01  0.41779080132E+02  0.33882056562E+03  0.34151253582E+03  0.47000000000E+01 0. -1.
         -5    1    3    3    0  502 -0.62055526669E+01  0.42993633955E+02  0.11301238593E+03  0.12116456090E+03  0.47000000000E+01 0.  1.
<mgrwt>
<rscale>  0 0.93127464E+02</rscale>
<asrwt>0</asrwt>
<pdfrwt beam="1">  1        1 0.26708731E-02 0.93158730E+02</pdfrwt>
<pdfrwt beam="2">  1       -1 0.14969805E+00 0.93158730E+02</pdfrwt>
<totfact> 0.14615551E+03</totfact>
</mgrwt>
</event>
<event>
 8    1  0.3400573E-004  0.1844142E+03  0.7546771E-02  0.1163919E+00
          1   -1    0    0  501    0  0.00000000000E+00  0.00000000000E+00  0.14587579694E+04  0.14587579694E+04  0.00000000000E+00 0. -1.
         -1   -1    0    0    0  501 -0.00000000000E+00 -0.00000000000E+00 -0.27145947555E+02  0.27145947555E+02  0.00000000000E+00 0.  1.
         23    2    1    2    0    0 -0.86695877744E+02 -0.13207428754E+03  0.42818419788E+03  0.46567061653E+03  0.92453356562E+02 0.  0.
         23    2    1    2    0    0  0.86695877744E+02  0.13207428754E+03  0.10034278240E+04  0.10202333004E+04  0.95125163563E+02 0.  0.
          5    1    3    3  502    0 -0.18047329304E+02 -0.55642742620E+02  0.27482529258E+03  0.28102108879E+03  0.47000000000E+01 0. -1.
         -5    1    4    4    0  503 -0.71751130366E+00  0.34330817692E+02  0.75509124177E+02  0.83083317820E+02  0.47000000000E+01 0.  1.
          5    1    4    4  503    0  0.87413389047E+02  0.97743469846E+02  0.92791869979E+03  0.93714998260E+03  0.47000000000E+01 0. -1.
         -5    1    3    3    0  502 -0.68648548440E+02 -0.76431544917E+02  0.15335890530E+03  0.18464952775E+03  0.47000000000E+01 0.  1.
<mgrwt>
<rscale>  0 0.18407226E+03</rscale>
<asrwt>0</asrwt>
<pdfrwt beam="1">  1        1 0.22442424E+00 0.18441418E+03</pdfrwt>
<pdfrwt beam="2">  1       -1 0.41763008E-02 0.18441418E+03</pdfrwt>
<totfact> 0.17595900E+03</totfact>
</mgrwt>
</event>
<event>
 8    1  0.3400573E-004  0.1121677E+03  0.7546771E-02  0.1256756E+00
         -2   -1    0    0    0  501 -0.00000000000E+00  0.00000000000E+00  0.29528077637E+03  0.29528077637E+03  0.00000000000E+00 0.  1.
          2   -1    0    0  501    0  0.00000000000E+00 -0.00000000000E+00 -0.46117206578E+02  0.46117206578E+02  0.00000000000E+00 0. -1.
         23    2    1    2    0    0  0.17040634698E+02 -0.62481291153E+02  0.76500592761E+02  0.13549972365E+03  0.91178612844E+02 0.  0.
         23    2    1    2    0    0 -0.17040634698E+02  0.62481291153E+02  0.17266297703E+03  0.20589825930E+03  0.91582173875E+02 0.  0.
          5    1    4    4  502    0  0.36840948261E+02  0.36168857830E+02  0.85751790679E+02  0.10020429806E+03  0.47000000000E+01 0. -1.
         -5    1    3    3    0  503  0.18064590116E+00 -0.49047868274E+02  0.94796415306E+02  0.10683714883E+03  0.47000000000E+01 0.  1.
          5    1    3    3  503    0  0.16859988797E+02 -0.13433422879E+02 -0.18295822545E+02  0.28662574816E+02  0.47000000000E+01 0. -1.
         -5    1    4    4    0  502 -0.53881582959E+02  0.26312433323E+02  0.86911186352E+02  0.10569396124E+03  0.47000000000E+01 0.  1.
<mgrwt>
<rscale>  0 0.11208528E+03</rscale>
<asrwt>0</asrwt>
<pdfrwt beam="1">  1        2 0.70949550E-02 0.11216768E+03</pdfrwt>
<pdfrwt beam="2">  1       -2 0.45427811E-01 0.11216768E+03</pdfrwt>
<totfact> 0.43310628E+03</totfact>
</mgrwt>
</event>
<event>
 8    1  0.3400573E-004  0.9282189E+02  0.7546771E-02  0.1297953E+00
         -2   -1    0    0    0  501 -0.00000000000E+00  0.00000000000E+00  0.17842799413E+03  0.17842799413E+03  0.00000000000E+00 0.  1.
          2   -1    0    0  501    0  0.00000000000E+00 -0.00000000000E+00 -0.67274225943E+02  0.67274225943E+02  0.00000000000E+00 0. -1.
         23    2    1    2    0    0  0.15225385820E+02  0.28456249885E+02 -0.11676901925E+02  0.93553479772E+02  0.87030644074E+02 0.  0.
         23    2    1    2    0    0 -0.15225385820E+02 -0.28456249885E+02  0.12283067012E+03  0.15214874031E+03  0.83787201435E+02 0.  0.
          5    1    4    4  502    0 -0.35829035414E+02  0.35337704688E+01  0.17996665646E+02  0.40523786679E+02  0.47000000000E+01 0. -1.
         -5    1    4    4    0  502  0.20603649594E+02 -0.31990020354E+02  0.10483400447E+03  0.11162495363E+03  0.47000000000E+01 0.  1.
          5    1    3    3  503    0 -0.23149423566E+02  0.42480468288E+02 -0.18221317793E+02  0.51909463680E+02  0.47000000000E+01 0. -1.
         -5    1    3    3    0  503  0.38374809386E+02 -0.14024218403E+02  0.65444158681E+01  0.41644016092E+02  0.47000000000E+01 0.  1.
<mgrwt>
<rscale>  0 0.92053913E+02</rscale>
<asrwt>0</asrwt>
<pdfrwt beam="1">  1        2 0.10349881E-01 0.92821891E+02</pdfrwt>
<pdfrwt beam="2">  1       -2 0.27450460E-01 0.92821891E+02</pdfrwt>
<totfact> 0.67583388E+03</totfact>
</mgrwt>
</event>
<event>
 8    1  0.3400573E-004  0.1041201E+03  0.7546771E-02  0.1272017E+00
         -1   -1    0    0    0  501 -0.00000000000E+00  0.00000000000E+00  0.67867160489E+02  0.67867160489E+02  0.00000000000E+00 0.  1.
          1   -1    0    0  501    0  0.00000000000E+00 -0.00000000000E+00 -0.21491802738E+03  0.21491802738E+03  0.00000000000E+00 0. -1.
         23    2    1    2    0    0 -0.42954316432E+02 -0.24870830331E+02 -0.14539527943E+03  0.17865195784E+03  0.91176220909E+02 0.  0.
         23    2    1    2    0    0  0.42954316432E+02  0.24870830331E+02 -0.16555874669E+01  0.10413323003E+03  0.91527903535E+02 0.  0.
          5    1    3    3  502    0 -0.63714644545E+02 -0.38888428635E+02 -0.12638037879E+03  0.14685351870E+03  0.47000000000E+01 0. -1.
         -5    1    3    3    0  502  0.20760328113E+02  0.14017598304E+02 -0.19014900637E+02  0.31798439141E+02  0.47000000000E+01 0.  1.
          5    1    4    4  503    0 -0.27397572111E+02  0.13173383161E+02 -0.95906466403E+01  0.32221661727E+02  0.47000000000E+01 0. -1.
         -5    1    4    4    0  503  0.70351888543E+02  0.11697447170E+02  0.79350591734E+01  0.71911568304E+02  0.47000000000E+01 0.  1.
<mgrwt>
<rscale>  0 0.10404273E+03</rscale>
<asrwt>0</asrwt>
<pdfrwt beam="1">  1        1 0.33064312E-01 0.10412007E+03</pdfrwt>
<pdfrwt beam="2">  1       -1 0.10441101E-01 0.10412007E+03</pdfrwt>
<totfact> 0.71013087E+03</totfact>
</mgrwt>
</event>
<event>
 8    1  0.3400573E-004  0.1005881E+03  0.7546771E-02  0.1279246E+00
          1   -1    0    0  501    0  0.00000000000E+00  0.00000000000E+00  0.23121737418E+03  0.23121737418E+03  0.00000000000E+00 0. -1.
         -1   -1    0    0    0  501 -0.00000000000E+00 -0.00000000000E+00 -0.70267013577E+02  0.70267013577E+02  0.00000000000E+00 0.  1.
         23    2    1    2    0    0  0.35544389919E+02 -0.22902202645E+02 -0.12461268972E+02  0.10101105736E+03  0.90884739883E+02 0.  0.
         23    2    1    2    0    0 -0.35544389919E+02  0.22902202645E+02  0.17341162958E+03  0.20047333040E+03  0.91269098763E+02 0.  0.
          5    1    3    3  502    0 -0.28478246890E+02  0.28225603717E+01  0.55936216107E+01  0.29535673273E+02  0.47000000000E+01 0. -1.
         -5    1    4    4    0  503 -0.56502047926E+02  0.68103134932E+01  0.55809136399E+02  0.79847426354E+02  0.47000000000E+01 0.  1.
          5    1    4    4  503    0  0.20957658007E+02  0.16091889152E+02  0.11760249318E+03  0.12062590405E+03  0.47000000000E+01 0. -1.
         -5    1    3    3    0  502  0.64022636808E+02 -0.25724763017E+02 -0.18054890583E+02  0.71475384085E+02  0.47000000000E+01 0.  1.
<mgrwt>
<rscale>  0 0.10050082E+03</rscale>
<asrwt>0</asrwt>
<pdfrwt beam="1">  1        1 0.35571903E-01 0.10058809E+03</pdfrwt>
<pdfrwt beam="2">  1       -1 0.10810310E-01 0.10058809E+03</pdfrwt>
<totfact> 0.61418318E+03</totfact>
</mgrwt>
</event>
<event>
 8    1  0.3400573E-004  0.1021623E+03  0.7546771E-02  0.1277433E+00
          1   -1    0    0  501    0  0.00000000000E+00  0.00000000000E+00  0.57200326388E+02  0.57200326388E+02  0.00000000000E+00 0. -1.
         -1   -1    0    0    0  501 -0.00000000000E+00 -0.00000000000E+00 -0.30967240191E+03  0.30967240191E+03  0.00000000000E+00 0.  1.
         23    2    1    2    0    0 -0.30038070034E+02  0.27807813571E+02 -0.24520415795E+03  0.26445223282E+03  0.90190599380E+02 0.  0.
         23    2    1    2    0    0  0.30038070034E+02 -0.27807813571E+02 -0.72679175721E+01  0.10242049549E+03  0.93603285854E+02 0.  0.
          5    1    4    4  502    0  0.60700668356E+02 -0.13857053156E+02  0.11624848831E+02  0.63512330861E+02  0.47000000000E+01 0. -1.
         -5    1    3    3    0  503 -0.32557154243E+02  0.58566541116E+02 -0.18096259674E+03  0.19302735415E+03  0.47000000000E+01 0.  1.
          5    1    3    3  503    0  0.25190842089E+01 -0.30758727545E+02 -0.64241561213E+02  0.71424878666E+02  0.47000000000E+01 0. -1.
         -5    1    4    4    0  502 -0.30662598323E+02 -0.13950760415E+02 -0.18892766403E+02  0.38908164624E+02  0.47000000000E+01 0.  1.
<mgrwt>
<rscale>  0 0.10137388E+03</rscale>
<asrwt>0</asrwt>
<pdfrwt beam="1">  1        1 0.88000502E-02 0.10216230E+03</pdfrwt>
<pdfrwt beam="2">  1       -1 0.47641908E-01 0.10216230E+03</pdfrwt>
<totfact> 0.32452232E+03</totfact>
</mgrwt>
</event>
<event>
 8    1  0.3400573E-004  0.1516057E+03  0.7546771E-02  0.1198618E+00
          1   -1    0    0  501    0  0.00000000000E+00  0.00000000000E+00  0.69147154449E+03  0.69147154449E+03  0.00000000000E+00 0. -1.
         -1   -1    0    0    0  501 -0.00000000000E+00 -0.00000000000E+00 -0.34058125252E+02  0.34058125252E+02  0.00000000000E+00 0.  1.
         23    2    1    2    0    0  0.50865642641E+02 -0.10925957676E+03  0.26958476893E+03  0.30912200488E+03  0.91408410700E+02 0.  0.
         23    2    1    2    0    0 -0.50865642641E+02  0.10925957676E+03  0.38782865031E+03  0.41640766486E+03  0.91974521684E+02 0.  0.
          5    1    4    4  502    0  0.32609134260E+01  0.93653427046E+02  0.21536506981E+03  0.23491658360E+03  0.47000000000E+01 0. -1.
         -5    1    4    4    0  502 -0.54126556067E+02  0.15606149717E+02  0.17246358050E+03  0.18149108126E+03  0.47000000000E+01 0.  1.
          5    1    3    3  503    0  0.15576297506E+02 -0.15377720473E+02  0.15568045960E+03  0.15728188336E+03  0.47000000000E+01 0. -1.
         -5    1    3    3    0  503  0.35289345134E+02 -0.93881856289E+02  0.11390430933E+03  0.15184012152E+03  0.47000000000E+01 0.  1.
<mgrwt>
<rscale>  0 0.15151991E+03</rscale>
<asrwt>0</asrwt>
<pdfrwt beam="1">  1        1 0.10638023E+00 0.15160568E+03</pdfrwt>
<pdfrwt beam="2">  1       -1 0.52397121E-02 0.15160568E+03</pdfrwt>
<totfact> 0.45917504E+03</totfact>
</mgrwt>
</event>
<event>
 8    1  0.3400573E-004  0.1372555E+03  0.7546771E-02  0.1217251E+00
          1   -1    0    0  501    0  0.00000000000E+00  0.00000000000E+00  0.28533813390E+03  0.28533813390E+03  0.00000000000E+00 0. -1.
         -1   -1    0    0    0  501 -0.00000000000E+00 -0.00000000000E+00 -0.86033208307E+02  0.86033208307E+02  0.00000000000E+00 0.  1.
         23    2    1    2    0    0  0.92879357113E+02 -0.42213448512E+02  0.18961678622E+03  0.23377432525E+03  0.91034934592E+02 0.  0.
         23    2    1    2    0    0 -0.92879357113E+02  0.42213448512E+02  0.96881393780E+01  0.13759701696E+03  0.91817911214E+02 0.  0.
          5    1    3    3  502    0  0.36251557621E+02 -0.39011748523E+00  0.14671258760E+03  0.15119854822E+03  0.47000000000E+01 0. -1.
         -5    1    4    4    0  503 -0.95525924053E+02  0.20598033921E+02 -0.20618056948E+02  0.99983375818E+02  0.47000000000E+01 0.  1.
          5    1    4    4  503    0  0.26465669400E+01  0.21615414591E+02  0.30306196326E+02  0.37613641146E+02  0.47000000000E+01 0. -1.
         -5    1    3    3    0  502  0.56627799492E+02 -0.41823331027E+02  0.42904198616E+02  0.82575777031E+02  0.47000000000E+01 0.  1.
<mgrwt>
<rscale>  0 0.13712470E+03</rscale>
<asrwt>0</asrwt>
<pdfrwt beam="1">  1        1 0.43898174E-01 0.13725552E+03</pdfrwt>
<pdfrwt beam="2">  1       -1 0.13235878E-01 0.13725552E+03</pdfrwt>
<totfact> 0.35395730E+03</totfact>
</mgrwt>
</event>
<event>
 8    1  0.3400573E-004  0.1080400E+03  0.7546771E-02  0.1264723E+00
         -2   -1    0    0    0  501 -0.00000000000E+00  0.00000000000E+00  0.18640149711E+03  0.18640149711E+03  0.00000000000E+00 0.  1.
          2   -1    0    0  501    0  0.00000000000E+00 -0.00000000000E+00 -0.79334887047E+02  0.79334887047E+02  0.00000000000E+00 0. -1.
         23    2    1    2    0    0  0.34497846096E+02  0.44330769722E+02  0.11576660240E+03  0.15834948113E+03  0.92289400342E+02 0.  0.
         23    2    1    2    0    0 -0.34497846096E+02 -0.44330769722E+02 -0.86999923313E+01  0.10738690303E+03  0.91109486583E+02 0.  0.
          5    1    4    4  502    0 -0.65311979238E+02 -0.31909068788E+02 -0.49349503621E+00  0.72843509253E+02  0.47000000000E+01 0. -1.
         -5    1    4    4    0  502  0.30814133143E+02 -0.12421700934E+02 -0.82064972951E+01  0.34543393772E+02  0.47000000000E+01 0.  1.
          5    1    3    3  503    0  0.44751906567E+02 -0.15018716813E+02  0.55603407391E+02  0.73089834516E+02  0.47000000000E+01 0. -1.
         -5    1    3    3    0  503 -0.10254060471E+02  0.59349486535E+02  0.60163195004E+02  0.85259646617E+02  0.47000000000E+01 0.  1.
<mgrwt>
<rscale>  0 0.10778763E+03</rscale>
<asrwt>0</asrwt>
<pdfrwt beam="1">  1        2 0.12205367E-01 0.10804005E+03</pdfrwt>
<pdfrwt beam="2">  1       -2 0.28677153E-01 0.10804005E+03</pdfrwt>
<totfact> 0.51966807E+03</totfact>
</mgrwt>
</event>
<event>
 8    1  0.3400573E-004  0.9597318E+02  0.7546771E-02  0.1292421E+00
          1   -1    0    0  501    0  0.00000000000E+00  0.00000000000E+00  0.18386007279E+02  0.18386007279E+02  0.00000000000E+00 0. -1.
         -1   -1    0    0    0  501 -0.00000000000E+00 -0.00000000000E+00 -0.51628969770E+03  0.51628969770E+03  0.00000000000E+00 0.  1.
         23    2    1    2    0    0 -0.15008450827E+02  0.88766430603E+01 -0.16201287305E+03  0.18534278027E+03  0.88316061824E+02 0.  0.
         23    2    1    2    0    0  0.15008450827E+02 -0.88766430603E+01 -0.33589081737E+03  0.34933292471E+03  0.94375858690E+02 0.  0.
          5    1    3    3  502    0  0.15039347135E+02  0.16622240107E+02 -0.14999963317E+03  0.15173813225E+03  0.47000000000E+01 0. -1.
         -5    1    4    4    0  503  0.24598658060E+02 -0.35938247712E+02 -0.29976741341E+03  0.30295089333E+03  0.47000000000E+01 0.  1.
          5    1    4    4  503    0 -0.95902072326E+01  0.27061604652E+02 -0.36123403961E+02  0.46382031379E+02  0.47000000000E+01 0. -1.
         -5    1    3    3    0  502 -0.30047797963E+02 -0.77455970464E+01 -0.12013239881E+02  0.33604648019E+02  0.47000000000E+01 0.  1.
<mgrwt>
<rscale>  0 0.94449211E+02</rscale>
<asrwt>0</asrwt>
<pdfrwt beam="1">  1        1 0.28286159E-02 0.95973179E+02</pdfrwt>
<pdfrwt beam="2">  1       -1 0.79429201E-01 0.95973179E+02</pdfrwt>
<totfact> 0.56755168E+03</totfact>
</mgrwt>
</event>
<event>
 8    1  0.3400573E-004  0.1098376E+03  0.7546771E-02  0.1261331E+00
         -1   -1    0    0    0  501 -0.00000000000E+00  0.00000000000E+00  0.15813617294E+03  0.15813617294E+03  0.00000000000E+00 0.  1.
          1   -1    0    0  501    0  0.00000000000E+00 -0.00000000000E+00 -0.81199094540E+02  0.81199094540E+02  0.00000000000E+00 0. -1.
         23    2    1    2    0    0 -0.60606052433E+02  0.60175171487E+01  0.72255029221E+01  0.11007498395E+03  0.91405634924E+02 0.  0.
         23    2    1    2    0    0  0.60606052433E+02 -0.60175171487E+01  0.69711575479E+02  0.12926028353E+03  0.90217587185E+02 0.  0.
          5    1    3    3  502    0 -0.32530094939E+02  0.44947904510E+02  0.21638169213E+02  0.59739614691E+02  0.47000000000E+01 0. -1.
         -5    1    3    3    0  502 -0.28075957494E+02 -0.38930387361E+02 -0.14412666291E+02  0.50335369263E+02  0.47000000000E+01 0.  1.
          5    1    4    4  503    0  0.10798202923E+01 -0.38282547595E+02  0.38669047946E+02  0.54626959748E+02  0.47000000000E+01 0. -1.
         -5    1    4    4    0  503  0.59526232141E+02  0.32265030447E+02  0.31042527533E+02  0.74633323779E+02  0.47000000000E+01 0.  1.
<mgrwt>
<rscale>  0 0.10959007E+03</rscale>
<asrwt>0</asrwt>
<pdfrwt beam="1">  1        1 0.12492168E-01 0.10983758E+03</pdfrwt>
<pdfrwt beam="2">  1       -1 0.24328642E-01 0.10983758E+03</pdfrwt>
<totfact> 0.64683413E+03</totfact>
</mgrwt>
</event>
<event>
 8    1  0.3400573E-004  0.9338142E+02  0.7546771E-02  0.1297919E+00
         -1   -1    0    0    0  501 -0.00000000000E+00  0.00000000000E+00  0.15799750646E+02  0.15799750646E+02  0.00000000000E+00 0.  1.
          1   -1    0    0  501    0  0.00000000000E+00 -0.00000000000E+00 -0.67650956271E+03  0.67650956271E+03  0.00000000000E+00 0. -1.
         23    2    1    2    0    0 -0.13448765519E+01 -0.26387404357E+02 -0.48854980134E+03  0.49645436993E+03  0.84189840410E+02 0.  0.
         23    2    1    2    0    0  0.13448765519E+01  0.26387404357E+02 -0.17216001072E+03  0.19585494343E+03  0.89565538973E+02 0.  0.
          5    1    4    4  502    0  0.20811447815E+02 -0.26402223231E+02 -0.42186038206E+02  0.54147442887E+02  0.47000000000E+01 0. -1.
         -5    1    3    3    0  503 -0.41040307652E+02 -0.92740034669E+01 -0.18346421614E+03  0.18828574719E+03  0.47000000000E+01 0.  1.
          5    1    3    3  503    0  0.39695431100E+02 -0.17113400890E+02 -0.30508558520E+03  0.30816862273E+03  0.47000000000E+01 0. -1.
         -5    1    4    4    0  502 -0.19466571263E+02  0.52789627589E+02 -0.12997397252E+03  0.14170750054E+03  0.47000000000E+01 0.  1.
<mgrwt>
<rscale>  0 0.92068249E+02</rscale>
<asrwt>0</asrwt>
<pdfrwt beam="1">  1        1 0.10407838E+00 0.93381420E+02</pdfrwt>
<pdfrwt beam="2">  1       -1 0.24307311E-02 0.93381420E+02</pdfrwt>
<totfact> 0.14081429E+04</totfact>
</mgrwt>
</event>
<event>
 8    1  0.3400573E-004  0.1213404E+03  0.7546771E-02  0.1241065E+00
         -1   -1    0    0    0  501 -0.00000000000E+00  0.00000000000E+00  0.25383515508E+03  0.25383515508E+03  0.00000000000E+00 0.  1.
          1   -1    0    0  501    0  0.00000000000E+00 -0.00000000000E+00 -0.17647438368E+03  0.17647438368E+03  0.00000000000E+00 0. -1.
         23    2    1    2    0    0 -0.80627207567E+02 -0.11898817811E+02  0.21512849508E+03  0.24698938327E+03  0.89895258977E+02 0.  0.
         23    2    1    2    0    0  0.80627207567E+02  0.11898817811E+02 -0.13776772368E+03  0.18332015549E+03  0.89353261019E+02 0.  0.
          5    1    3    3  502    0 -0.27547802624E+02  0.16875667168E+02  0.11605521759E+02  0.34647477644E+02  0.47000000000E+01 0. -1.
         -5    1    3    3    0  502 -0.53079404943E+02 -0.28774484980E+02  0.20352297332E+03  0.21234190562E+03  0.47000000000E+01 0.  1.
          5    1    4    4  503    0  0.72189945272E+02 -0.19784663277E+02 -0.12873362594E+03  0.14898744090E+03  0.47000000000E+01 0. -1.
         -5    1    4    4    0  503  0.84372622950E+01  0.31683481088E+02 -0.90340977434E+01  0.34332714587E+02  0.47000000000E+01 0.  1.
<mgrwt>
<rscale>  0 0.12124000E+03</rscale>
<asrwt>0</asrwt>
<pdfrwt beam="1">  1        1 0.27149905E-01 0.12134037E+03</pdfrwt>
<pdfrwt beam="2">  1       -1 0.39051562E-01 0.12134037E+03</pdfrwt>
<totfact> 0.10931641E+03</totfact>
</mgrwt>
</event>
<event>
 8    1  0.3400573E-004  0.1081151E+03  0.7546771E-02  0.1264725E+00
         -1   -1    0    0    0  501 -0.00000000000E+00  0.00000000000E+00  0.29836837570E+02  0.29836837570E+02  0.00000000000E+00 0.  1.
          1   -1    0    0  501    0  0.00000000000E+00 -0.00000000000E+00 -0.47293904964E+03  0.47293904964E+03  0.00000000000E+00 0. -1.
         23    2    1    2    0    0  0.11590163959E+02 -0.56627022931E+02 -0.32758626554E+03  0.34455832122E+03  0.89814941570E+02 0.  0.
         23    2    1    2    0    0 -0.11590163959E+02  0.56627022931E+02 -0.11551594653E+03  0.15821756599E+03  0.91366912264E+02 0.  0.
          5    1    3    3  502    0  0.26303234901E+02 -0.21737804488E+02 -0.28620867390E+03  0.28827397962E+03  0.47000000000E+01 0. -1.
         -5    1    3    3    0  502 -0.14713070942E+02 -0.34889218442E+02 -0.41377591636E+02  0.56284341603E+02  0.47000000000E+01 0.  1.
          5    1    4    4  503    0 -0.14929394854E+02  0.26343925202E+02 -0.12278014168E+03  0.12654620665E+03  0.47000000000E+01 0. -1.
         -5    1    4    4    0  503  0.33392308954E+01  0.30283097729E+02  0.72641951504E+01  0.31671359336E+02  0.47000000000E+01 0.  1.
<mgrwt>
<rscale>  0 0.10778647E+03</rscale>
<asrwt>0</asrwt>
<pdfrwt beam="1">  1        1 0.72759842E-01 0.10811505E+03</pdfrwt>
<pdfrwt beam="2">  1       -1 0.45902834E-02 0.10811505E+03</pdfrwt>
<totfact> 0.91246111E+03</totfact>
</mgrwt>
</event>
<event>
 8    1  0.3400573E-004  0.9792306E+02  0.7546771E-02  0.1284874E+00
          1   -1    0    0  501    0  0.00000000000E+00  0.00000000000E+00  0.21552311833E+03  0.21552311833E+03  0.00000000000E+00 0. -1.
         -1   -1    0    0    0  501 -0.00000000000E+00 -0.00000000000E+00 -0.65055404342E+02  0.65055404342E+02  0.00000000000E+00 0.  1.
         23    2    1    2    0    0  0.21574715285E+02  0.24290610927E+02  0.15427563133E+03  0.18258145502E+03  0.92084282998E+02 0.  0.
         23    2    1    2    0    0 -0.21574715285E+02 -0.24290610927E+02 -0.38079173415E+01  0.97997067655E+02  0.92376527948E+02 0.  0.
          5    1    3    3  502    0 -0.19791497818E+02 -0.24876660130E+02  0.39094047311E+02  0.50606186778E+02  0.47000000000E+01 0. -1.
         -5    1    4    4    0  503 -0.41169834533E+02 -0.10240054233E+01 -0.34944776927E+02  0.54214677875E+02  0.47000000000E+01 0.  1.
          5    1    4    4  503    0  0.19595119248E+02 -0.23266605503E+02  0.31136859586E+02  0.43782389780E+02  0.47000000000E+01 0. -1.
         -5    1    3    3    0  502  0.41366213103E+02  0.49167271056E+02  0.11518158402E+03  0.13197526824E+03  0.47000000000E+01 0.  1.
<mgrwt>
<rscale>  0 0.97854073E+02</rscale>
<asrwt>0</asrwt>
<pdfrwt beam="1">  1        1 0.33157402E-01 0.97923057E+02</pdfrwt>
<pdfrwt beam="2">  1       -1 0.10008524E-01 0.97923057E+02</pdfrwt>
<totfact> 0.75097418E+03</totfact>
</mgrwt>
</event>
<event>
 8    1  0.3400573E-004  0.9532122E+02  0.7546771E-02  0.1290850E+00
         -2   -1    0    0    0  501 -0.00000000000E+00  0.00000000000E+00  0.29508825186E+03  0.29508825186E+03  0.00000000000E+00 0.  1.
          2   -1    0    0  501    0  0.00000000000E+00 -0.00000000000E+00 -0.49819737897E+02  0.49819737897E+02  0.00000000000E+00 0. -1.
         23    2    1    2    0    0  0.17337405460E+02 -0.21193442596E+02  0.15142530188E+02  0.95821450611E+02  0.90568794513E+02 0.  0.
         23    2    1    2    0    0 -0.17337405460E+02  0.21193442596E+02  0.23012598378E+03  0.24908653915E+03  0.91303822147E+02 0.  0.
          5    1    3    3  502    0  0.40255257873E+02 -0.13136260258E+02  0.41635627863E+02  0.59570652401E+02  0.47000000000E+01 0. -1.
         -5    1    4    4    0  503 -0.14265615989E+02 -0.19897492324E+02  0.18914855451E+03  0.19078439054E+03  0.47000000000E+01 0.  1.
          5    1    4    4  503    0 -0.30717894713E+01  0.41090934920E+02  0.40977429266E+02  0.58302148609E+02  0.47000000000E+01 0. -1.
         -5    1    3    3    0  502 -0.22917852413E+02 -0.80571823382E+01 -0.26493097675E+02  0.36250798210E+02  0.47000000000E+01 0.  1.
<mgrwt>
<rscale>  0 0.95144780E+02</rscale>
<asrwt>0</asrwt>
<pdfrwt beam="1">  1        2 0.76645753E-02 0.95321223E+02</pdfrwt>
<pdfrwt beam="2">  1       -2 0.45398191E-01 0.95321223E+02</pdfrwt>
<totfact> 0.38868033E+03</totfact>
</mgrwt>
</event>
<event>
 8    1  0.3400573E-004  0.9677470E+02  0.7546771E-02  0.1287565E+00
         -4   -1    0    0    0  501 -0.00000000000E+00  0.00000000000E+00  0.31860886190E+03  0.31860886190E+03  0.00000000000E+00 0.  1.
          4   -1    0    0  501    0  0.00000000000E+00 -0.00000000000E+00 -0.46707029464E+02  0.46707029464E+02  0.00000000000E+00 0. -1.
         23    2    1    2    0    0  0.32663374006E+02  0.16760747807E+01  0.24748115316E+03  0.26550750991E+03  0.90430146643E+02 0.  0.
         23    2    1    2    0    0 -0.32663374006E+02 -0.16760747807E+01  0.24420679280E+02  0.99808381456E+02  0.91080394181E+02 0.  0.
          5    1    3    3  502    0  0.98153114468E+01  0.28435735416E+02  0.22795915174E+02  0.38035182872E+02  0.47000000000E+01 0. -1.
         -5    1    3    3    0  502  0.22848062559E+02 -0.26759660636E+02  0.22468523798E+03  0.22747232704E+03  0.47000000000E+01 0.  1.
          5    1    4    4  503    0 -0.52594472264E+02 -0.17252992056E+02  0.41138292019E+02  0.69125200310E+02  0.47000000000E+01 0. -1.
         -5    1    4    4    0  503  0.19931098259E+02  0.15576917275E+02 -0.16717612738E+02  0.30683181146E+02  0.47000000000E+01 0.  1.
<mgrwt>
<rscale>  0 0.96621407E+02</rscale>
<asrwt>0</asrwt>
<pdfrwt beam="1">  1        4 0.71856970E-02 0.96774705E+02</pdfrwt>
<pdfrwt beam="2">  1       -4 0.49016747E-01 0.96774705E+02</pdfrwt>
<totfact> 0.81797711E+02</totfact>
</mgrwt>
</event>
<event>
 8    1  0.3400573E-004  0.1347976E+03  0.7546771E-02  0.1233042E+00
          1   -1    0    0  501    0  0.00000000000E+00  0.00000000000E+00  0.10657590741E+04  0.10657590741E+04  0.00000000000E+00 0. -1.
         -1   -1    0    0    0  501 -0.00000000000E+00 -0.00000000000E+00 -0.31838651331E+02  0.31838651331E+02  0.00000000000E+00 0.  1.
         23    2    1    2    0    0 -0.15469215731E+02 -0.47133045509E+02  0.96159314524E+03  0.97099524405E+03  0.12533780903E+03 0.  0.
         23    2    1    2    0    0  0.15469215731E+02  0.47133045509E+02  0.72327277542E+02  0.12660248140E+03  0.91302423875E+02 0.  0.
          5    1    4    4  502    0  0.13587067437E+00 -0.24987104183E+02  0.35675918510E+01  0.25674725858E+02  0.47000000000E+01 0. -1.
         -5    1    4    4    0  502  0.15333345056E+02  0.72120149692E+02  0.68759685691E+02  0.10092775554E+03  0.47000000000E+01 0.  1.
          5    1    3    3  503    0  0.51256827533E+02 -0.35703016656E+02  0.58425431399E+03  0.58760289412E+03  0.47000000000E+01 0. -1.
         -5    1    3    3    0  503 -0.66726043264E+02 -0.11430028853E+02  0.37733883126E+03  0.38339234993E+03  0.47000000000E+01 0.  1.
<mgrwt>
<rscale>  0 0.12630607E+03</rscale>
<asrwt>0</asrwt>
<pdfrwt beam="1">  1        1 0.16396291E+00 0.13479758E+03</pdfrwt>
<pdfrwt beam="2">  1       -1 0.48982549E-02 0.13479758E+03</pdfrwt>
<totfact> 0.25640705E+03</totfact>
</mgrwt>
</event>
<event>
 8    1  0.3400573E-004  0.9279948E+02  0.7546771E-02  0.1298455E+00
          2   -1    0    0  501    0  0.00000000000E+00  0.00000000000E+00  0.16735619183E+03  0.16735619183E+03  0.00000000000E+00 0. -1.
         -2   -1    0    0    0  501 -0.00000000000E+00 -0.00000000000E+00 -0.50859604065E+02  0.50859604065E+02  0.00000000000E+00 0.  1.
         23    2    1    2    0    0  0.70158808198E+00 -0.13090924809E+02  0.40843206107E+02  0.10138989934E+03  0.91868817697E+02 0.  0.
         23    2    1    2    0    0 -0.70158808198E+00  0.13090924809E+02  0.75653381654E+02  0.11682589655E+03  0.88051072742E+02 0.  0.
          5    1    4    4  502    0 -0.39234575384E+02 -0.13668558098E+02  0.37721658842E+02  0.56313363706E+02  0.47000000000E+01 0. -1.
         -5    1    3    3    0  503 -0.24534742115E+02  0.31154210100E+02  0.83708675559E+01  0.40800732851E+02  0.47000000000E+01 0.  1.
          5    1    3    3  503    0  0.25236330197E+02 -0.44245134908E+02  0.32472338551E+02  0.60589166489E+02  0.47000000000E+01 0. -1.
         -5    1    4    4    0  502  0.38532987303E+02  0.26759482906E+02  0.37931722812E+02  0.60512532845E+02  0.47000000000E+01 0.  1.
<mgrwt>
<rscale>  0 0.91840257E+02</rscale>
<asrwt>0</asrwt>
<pdfrwt beam="1">  1        2 0.25747106E-01 0.92799484E+02</pdfrwt>
<pdfrwt beam="2">  1       -2 0.78245545E-02 0.92799484E+02</pdfrwt>
<totfact> 0.18248222E+04</totfact>
</mgrwt>
</event>
<event>
 8    1  0.3400573E-004  0.9344031E+02  0.7546771E-02  0.1296790E+00
          3   -1    0    0  501    0  0.00000000000E+00  0.00000000000E+00  0.90143964888E+03  0.90143964888E+03  0.00000000000E+00 0. -1.
         -3   -1    0    0    0  501 -0.00000000000E+00 -0.00000000000E+00 -0.22725581742E+02  0.22725581742E+02  0.00000000000E+00 0.  1.
         23    2    1    2    0    0 -0.15586844719E+01  0.12153218448E+02  0.81106969226E+02  0.12110348058E+03  0.89093110482E+02 0.  0.
         23    2    1    2    0    0  0.15586844719E+01 -0.12153218448E+02  0.79760709791E+03  0.80306175004E+03  0.92633479513E+02 0.  0.
          5    1    3    3  502    0  0.32362428557E+02 -0.12692030494E+02  0.68495182618E+02  0.76955145780E+02  0.47000000000E+01 0. -1.
         -5    1    3    3    0  502 -0.33921113029E+02  0.24845248941E+02  0.12611786608E+02  0.44148334799E+02  0.47000000000E+01 0.  1.
          5    1    4    4  503    0  0.41765943152E+02 -0.27350611687E+02  0.44204434109E+03  0.44487946621E+03  0.47000000000E+01 0. -1.
         -5    1    4    4    0  503 -0.40207258680E+02  0.15197393239E+02  0.35556275682E+03  0.35818228383E+03  0.47000000000E+01 0.  1.
<mgrwt>
<rscale>  0 0.92550532E+02</rscale>
<asrwt>0</asrwt>
<pdfrwt beam="1">  1        3 0.13868300E+00 0.93440311E+02</pdfrwt>
<pdfrwt beam="2">  1       -3 0.34962440E-02 0.93440311E+02</pdfrwt>
<totfact> 0.36967317E+02</totfact>
</mgrwt>
</event>
<event>
 8    1  0.3400573E-004  0.1152226E+03  0.7546771E-02  0.1251345E+00
         -1   -1    0    0    0  501 -0.00000000000E+00  0.00000000000E+00  0.13443096951E+03  0.13443096951E+03  0.00000000000E+00 0.  1.
          1   -1    0    0  501    0  0.00000000000E+00 -0.00000000000E+00 -0.12810502669E+03  0.12810502669E+03  0.00000000000E+00 0. -1.
         23    2    1    2    0    0  0.24786181389E+02 -0.64136548490E+02  0.66312153926E+02  0.13294192484E+03  0.92457568547E+02 0.  0.
         23    2    1    2    0    0 -0.24786181389E+02  0.64136548490E+02 -0.59986211103E+02  0.12959407136E+03  0.92024052119E+02 0.  0.
          5    1    3    3  502    0  0.34623054399E+02 -0.14216555129E+02 -0.11867963667E+02  0.39544973097E+02  0.47000000000E+01 0. -1.
         -5    1    4    4    0  503 -0.55328346159E+02  0.61159992057E+02 -0.51741230982E+02  0.97473152717E+02  0.47000000000E+01 0.  1.
          5    1    4    4  503    0  0.30542164771E+02  0.29765564330E+01 -0.82449801219E+01  0.32120918640E+02  0.47000000000E+01 0. -1.
         -5    1    3    3    0  502 -0.98368730107E+01 -0.49919993361E+02  0.78180117593E+02  0.93396951742E+02  0.47000000000E+01 0.  1.
<mgrwt>
<rscale>  0 0.11513563E+03</rscale>
<asrwt>0</asrwt>
<pdfrwt beam="1">  1        1 0.19708466E-01 0.11522263E+03</pdfrwt>
<pdfrwt beam="2">  1       -1 0.20681687E-01 0.11522263E+03</pdfrwt>
<totfact> 0.46996528E+03</totfact>
</mgrwt>
</event>
<event>
 8    1  0.3400573E-004  0.1125372E+03  0.7546771E-02  0.1256530E+00
         -3   -1    0    0    0  501 -0.00000000000E+00  0.00000000000E+00  0.15104562354E+03  0.15104562354E+03  0.00000000000E+00 0.  1.
          3   -1    0    0  501    0  0.00000000000E+00 -0.00000000000E+00 -0.83372455438E+02  0.83372455438E+02  0.00000000000E+00 0. -1.
         23    2    1    2    0    0 -0.36534308635E+02  0.53943692738E+02  0.25029860386E+02  0.11528709280E+03  0.91760242812E+02 0.  0.
         23    2    1    2    0    0  0.36534308635E+02 -0.53943692738E+02  0.42643307717E+02  0.11913098618E+03  0.90161313667E+02 0.  0.
          5    1    4    4  502    0  0.43660881301E+02 -0.74083130534E+02  0.21620990128E+02  0.88792679877E+02  0.47000000000E+01 0. -1.
         -5    1    4    4    0  502 -0.71265726660E+01  0.20139437796E+02  0.21022317589E+02  0.30338306305E+02  0.47000000000E+01 0.  1.
          5    1    3    3  503    0 -0.63242970891E+02  0.20679404781E+02  0.27832694469E+02  0.72277659278E+02  0.47000000000E+01 0. -1.
         -5    1    3    3    0  503  0.26708662256E+02  0.33264287957E+02 -0.28028340822E+01  0.43009433520E+02  0.47000000000E+01 0.  1.
<mgrwt>
<rscale>  0 0.11221081E+03</rscale>
<asrwt>0</asrwt>
<pdfrwt beam="1">  1        3 0.12826532E-01 0.11253719E+03</pdfrwt>
<pdfrwt beam="2">  1       -3 0.23237788E-01 0.11253719E+03</pdfrwt>
<totfact> 0.18464902E+03</totfact>
</mgrwt>
</event>
<event>
 8    1  0.3400573E-004  0.1067427E+03  0.7546771E-02  0.1266787E+00
         -1   -1    0    0    0  501 -0.00000000000E+00  0.00000000000E+00  0.14576992527E+02  0.14576992527E+02  0.00000000000E+00 0.  1.
          1   -1    0    0  501    0  0.00000000000E+00 -0.00000000000E+00 -0.87298739181E+03  0.87298739181E+03  0.00000000000E+00 0. -1.
         23    2    1    2    0    0  0.48905461764E+02 -0.21735925316E+02 -0.28466901708E+03  0.30397790850E+03  0.92205883389E+02 0.  0.
         23    2    1    2    0    0 -0.48905461764E+02  0.21735925316E+02 -0.57374138220E+03  0.58358647584E+03  0.92356951482E+02 0.  0.
          5    1    3    3  502    0  0.43643004188E+02 -0.50614695071E+02 -0.12759062660E+03  0.14411112784E+03  0.47000000000E+01 0. -1.
         -5    1    3    3    0  502  0.52624575767E+01  0.28878769755E+02 -0.15707839048E+03  0.15986678066E+03  0.47000000000E+01 0.  1.
          5    1    4    4  503    0 -0.19728956722E+02 -0.32140317356E+02 -0.33155567567E+03  0.33372666630E+03  0.47000000000E+01 0. -1.
         -5    1    4    4    0  503 -0.29176505043E+02  0.53876242671E+02 -0.24218570653E+03  0.24985980953E+03  0.47000000000E+01 0.  1.
<mgrwt>
<rscale>  0 0.10671000E+03</rscale>
<asrwt>0</asrwt>
<pdfrwt beam="1">  1        1 0.13430579E+00 0.10674269E+03</pdfrwt>
<pdfrwt beam="2">  1       -1 0.22426137E-02 0.10674269E+03</pdfrwt>
<totfact> 0.10990108E+04</totfact>
</mgrwt>
</event>
<event>
 8    1  0.3400573E-004  0.9345640E+02  0.7546771E-02  0.1295162E+00
          1   -1    0    0  501    0  0.00000000000E+00  0.00000000000E+00  0.22367889653E+02  0.22367889653E+02  0.00000000000E+00 0. -1.
         -1   -1    0    0    0  501 -0.00000000000E+00 -0.00000000000E+00 -0.40044482270E+03  0.40044482270E+03  0.00000000000E+00 0.  1.
         23    2    1    2    0    0  0.20532101186E+02  0.14462097494E+02 -0.14961420662E+03  0.17597406852E+03  0.89172543560E+02 0.  0.
         23    2    1    2    0    0 -0.20532101186E+02 -0.14462097494E+02 -0.22846272642E+03  0.24683864383E+03  0.90018771825E+02 0.  0.
          5    1    3    3  502    0  0.32076980205E+02  0.47249315922E+02 -0.99132801044E+02  0.11450254476E+03  0.47000000000E+01 0. -1.
         -5    1    3    3    0  502 -0.11544879019E+02 -0.32787218429E+02 -0.50481405577E+02  0.61471523756E+02  0.47000000000E+01 0.  1.
          5    1    4    4  503    0  0.30464279191E+02  0.39524069410E+01 -0.13637874458E+03  0.13987475040E+03  0.47000000000E+01 0. -1.
         -5    1    4    4    0  503 -0.50996380377E+02 -0.18414504435E+02 -0.92083981841E+02  0.10696389343E+03  0.47000000000E+01 0.  1.
<mgrwt>
<rscale>  0 0.93252025E+02</rscale>
<asrwt>0</asrwt>
<pdfrwt beam="1">  1        1 0.34412138E-02 0.93456400E+02</pdfrwt>
<pdfrwt beam="2">  1       -1 0.61606896E-01 0.93456400E+02</pdfrwt>
<totfact> 0.71157541E+03</totfact>
</mgrwt>
</event>
<event>
 8    1  0.3400573E-004  0.9556679E+02  0.7546771E-02  0.1290159E+00
          1   -1    0    0  501    0  0.00000000000E+00  0.00000000000E+00  0.75626427588E+03  0.75626427588E+03  0.00000000000E+00 0. -1.
         -1   -1    0    0    0  501 -0.00000000000E+00 -0.00000000000E+00 -0.14227383643E+02  0.14227383643E+02  0.00000000000E+00 0.  1.
         23    2    1    2    0    0  0.22589493090E+02  0.19088128577E+02  0.52204437285E+03  0.53063812103E+03  0.90398265591E+02 0.  0.
         23    2    1    2    0    0 -0.22589493090E+02 -0.19088128577E+02  0.21999251939E+03  0.23985353849E+03  0.90875571456E+02 0.  0.
          5    1    3    3  502    0  0.35864859146E+02 -0.27468172193E+02  0.21290616833E+03  0.21769684223E+03  0.47000000000E+01 0. -1.
         -5    1    4    4    0  503 -0.48641229427E+02 -0.31697118164E+02  0.94730232498E+02  0.11120514129E+03  0.47000000000E+01 0.  1.
          5    1    4    4  503    0  0.26051736337E+02  0.12608989588E+02  0.12526228689E+03  0.12864839720E+03  0.47000000000E+01 0. -1.
         -5    1    3    3    0  502 -0.13275366056E+02  0.46556300769E+02  0.30913820451E+03  0.31294127880E+03  0.47000000000E+01 0.  1.
<mgrwt>
<rscale>  0 0.95453147E+02</rscale>
<asrwt>0</asrwt>
<pdfrwt beam="1">  1        1 0.11634832E+00 0.95566790E+02</pdfrwt>
<pdfrwt beam="2">  1       -1 0.21888288E-02 0.95566790E+02</pdfrwt>
<totfact> 0.13995203E+04</totfact>
</mgrwt>
</event>
<event>
 8    1  0.3400573E-004  0.1338311E+03  0.7546771E-02  0.1221962E+00
         -2   -1    0    0    0  501 -0.00000000000E+00  0.00000000000E+00  0.50564627504E+02  0.50564627504E+02  0.00000000000E+00 0.  1.
          2   -1    0    0  501    0  0.00000000000E+00 -0.00000000000E+00 -0.62091023742E+03  0.62091023742E+03  0.00000000000E+00 0. -1.
         23    2    1    2    0    0 -0.91729727883E+02 -0.35251945994E+02 -0.65025477916E+02  0.14879207233E+03  0.90850015613E+02 0.  0.
         23    2    1    2    0    0  0.91729727883E+02  0.35251945994E+02 -0.50532013200E+03  0.52268279259E+03  0.90508691256E+02 0.  0.
          5    1    3    3  502    0 -0.62489998731E+02 -0.42316960704E+01 -0.81461030674E+02  0.10286348580E+03  0.47000000000E+01 0. -1.
         -5    1    4    4    0  503  0.44255880011E+02  0.51339506759E+02 -0.16170971864E+03  0.17540368004E+03  0.47000000000E+01 0.  1.
          5    1    4    4  503    0  0.47473847872E+02 -0.16087560766E+02 -0.34361041336E+03  0.34727911255E+03  0.47000000000E+01 0. -1.
         -5    1    3    3    0  502 -0.29239729152E+02 -0.31020249923E+02  0.16435552758E+02  0.45928586530E+02  0.47000000000E+01 0.  1.
<mgrwt>
<rscale>  0 0.13377321E+03</rscale>
<asrwt>0</asrwt>
<pdfrwt beam="1">  1        2 0.95524649E-01 0.13383112E+03</pdfrwt>
<pdfrwt beam="2">  1       -2 0.77791737E-02 0.13383112E+03</pdfrwt>
<totfact> 0.46355039E+03</totfact>
</mgrwt>
</event>
<event>
 8    1  0.3400573E-004  0.9510906E+02  0.7546771E-02  0.1293950E+00
          2   -1    0    0  501    0  0.00000000000E+00  0.00000000000E+00  0.70099533816E+02  0.70099533816E+02  0.00000000000E+00 0. -1.
         -2   -1    0    0    0  501 -0.00000000000E+00 -0.00000000000E+00 -0.64872796984E+03  0.64872796984E+03  0.00000000000E+00 0.  1.
         23    2    1    2    0    0  0.25977412356E+02  0.81125991187E+01 -0.61159512137E+03  0.61816700214E+03  0.85680860391E+02 0.  0.
         23    2    1    2    0    0 -0.25977412356E+02 -0.81125991187E+01  0.32966685347E+02  0.10066050151E+03  0.91132288487E+02 0.  0.
          5    1    4    4  502    0 -0.36133487929E+02  0.30891849614E+02  0.36224277416E+02  0.59951843981E+02  0.47000000000E+01 0. -1.
         -5    1    4    4    0  502  0.10156075572E+02 -0.39004448732E+02 -0.32575920686E+01  0.40708657532E+02  0.47000000000E+01 0.  1.
          5    1    3    3  503    0 -0.16719601907E+02 -0.28062927038E+02 -0.18948789000E+03  0.19234038427E+03  0.47000000000E+01 0. -1.
         -5    1    3    3    0  503  0.42697014263E+02  0.36175526157E+02 -0.42210723136E+03  0.42582661787E+03  0.47000000000E+01 0.  1.
<mgrwt>
<rscale>  0 0.93778932E+02</rscale>
<asrwt>0</asrwt>
<pdfrwt beam="1">  1        2 0.10784544E-01 0.95109065E+02</pdfrwt>
<pdfrwt beam="2">  1       -2 0.99804303E-01 0.95109065E+02</pdfrwt>
<totfact> 0.49056638E+02</totfact>
</mgrwt>
</event>
<event>
 7    1  0.3400573E-004  0.1554909E+03  0.7546771E-02  0.1216917E+00
         -2   -1    0    0    0  501 -0.00000000000E+00  0.00000000000E+00  0.39207319959E+02  0.39207319959E+02  0.00000000000E+00 0.  1.
          2   -1    0    0  501    0  0.00000000000E+00 -0.00000000000E+00 -0.68693400572E+03  0.68693400572E+03  0.00000000000E+00 0. -1.
         23    2    1    2    0    0  0.15935920971E+02 -0.19516640639E+02 -0.47221711363E+02  0.10583200644E+03  0.91299894439E+02 0.  0.
          5    1    1    2  502    0 -0.79476781457E+02  0.38260831645E+02 -0.31236035396E+03  0.32460981309E+03  0.47000000000E+01 0. -1.
         -5    1    3    3    0  503  0.38291383006E+02  0.13067143354E+02  0.40464709438E+01  0.40932189962E+02  0.47000000000E+01 0.  1.
          5    1    3    3  503    0 -0.22355462035E+02 -0.32583783994E+02 -0.51268182307E+02  0.64899816481E+02  0.47000000000E+01 0. -1.
         -5    1    1    2    0  502  0.63540860486E+02 -0.18744191006E+02 -0.28814462044E+03  0.29569950615E+03  0.47000000000E+01 0.  1.
<mgrwt>
<rscale>  0 0.13736655E+03</rscale>
<asrwt>0</asrwt>
<pdfrwt beam="1">  1        2 0.10568215E+00 0.15549092E+03</pdfrwt>
<pdfrwt beam="2">  1       -2 0.60318954E-02 0.15549092E+03</pdfrwt>
<totfact> 0.61252485E+03</totfact>
</mgrwt>
</event>
<event>
 8    1  0.3400573E-004  0.1008148E+03  0.7546771E-02  0.1279136E+00
          1   -1    0    0  501    0  0.00000000000E+00  0.00000000000E+00  0.12290188513E+04  0.12290188513E+04  0.00000000000E+00 0. -1.
         -1   -1    0    0    0  501 -0.00000000000E+00 -0.00000000000E+00 -0.93149160156E+01  0.93149160156E+01  0.00000000000E+00 0.  1.
         23    2    1    2    0    0 -0.32351592931E+02 -0.27427350644E+02  0.82831505534E+03  0.83442761783E+03  0.91458916253E+02 0.  0.
         23    2    1    2    0    0  0.32351592931E+02  0.27427350644E+02  0.39138887993E+03  0.40390614948E+03  0.90310780759E+02 0.  0.
          5    1    3    3  502    0 -0.42606700156E+02  0.22238205631E+02  0.32961404498E+03  0.33313267227E+03  0.47000000000E+01 0. -1.
         -5    1    4    4    0  503  0.20566931508E+02 -0.31835063600E+02  0.12467720970E+03  0.13039542386E+03  0.47000000000E+01 0.  1.
          5    1    4    4  503    0  0.11784661424E+02  0.59262414243E+02  0.26671167023E+03  0.27351072561E+03  0.47000000000E+01 0. -1.
         -5    1    3    3    0  502  0.10255107225E+02 -0.49665556275E+02  0.49870101036E+03  0.50129494556E+03  0.47000000000E+01 0.  1.
<mgrwt>
<rscale>  0 0.10055366E+03</rscale>
<asrwt>0</asrwt>
<pdfrwt beam="1">  1        1 0.18907969E+00 0.10081477E+03</pdfrwt>
<pdfrwt beam="2">  1       -1 0.14330650E-02 0.10081477E+03</pdfrwt>
<totfact> 0.11569366E+04</totfact>
</mgrwt>
</event>
<event>
 8    1  0.3400573E-004  0.9662020E+02  0.7546771E-02  0.1287699E+00
          1   -1    0    0  501    0  0.00000000000E+00  0.00000000000E+00  0.38693506088E+03  0.38693506088E+03  0.00000000000E+00 0. -1.
         -1   -1    0    0    0  501 -0.00000000000E+00 -0.00000000000E+00 -0.93576209427E+02  0.93576209427E+02  0.00000000000E+00 0.  1.
         23    2    1    2    0    0 -0.28926865865E+02  0.92070885945E+01 -0.60341158941E+02  0.11391452693E+03  0.91727476442E+02 0.  0.
         23    2    1    2    0    0  0.28926865865E+02 -0.92070885945E+01  0.35370001039E+03  0.36659674338E+03  0.91476449717E+02 0.  0.
          5    1    3    3  502    0  0.23311451320E+02  0.31380442899E+02 -0.20266926108E+02  0.44283114762E+02  0.47000000000E+01 0. -1.
         -5    1    4    4    0  503  0.52041835132E+01 -0.31907500932E+02  0.42356666882E+02  0.53491582245E+02  0.47000000000E+01 0.  1.
          5    1    4    4  503    0  0.23722682351E+02  0.22700412337E+02  0.31134334351E+03  0.31310516113E+03  0.47000000000E+01 0. -1.
         -5    1    3    3    0  502 -0.52238317185E+02 -0.22173354304E+02 -0.40074232832E+02  0.69631412168E+02  0.47000000000E+01 0.  1.
<mgrwt>
<rscale>  0 0.96560579E+02</rscale>
<asrwt>0</asrwt>
<pdfrwt beam="1">  1        1 0.59528470E-01 0.96620205E+02</pdfrwt>
<pdfrwt beam="2">  1       -1 0.14396340E-01 0.96620205E+02</pdfrwt>
<totfact> 0.20985352E+03</totfact>
</mgrwt>
</event>
<event>
 8    1  0.3400573E-004  0.9182577E+02  0.7546771E-02  0.1298529E+00
          1   -1    0    0  501    0  0.00000000000E+00  0.00000000000E+00  0.11887360148E+03  0.11887360148E+03  0.00000000000E+00 0. -1.
         -1   -1    0    0    0  501 -0.00000000000E+00 -0.00000000000E+00 -0.82716592981E+02  0.82716592981E+02  0.00000000000E+00 0.  1.
         23    2    1    2    0    0  0.25960553724E+00 -0.10607099394E+02  0.56200789229E+02  0.10760229055E+03  0.91143547598E+02 0.  0.
         23    2    1    2    0    0 -0.25960553724E+00  0.10607099394E+02 -0.20043780728E+02  0.93987903913E+02  0.91210717482E+02 0.  0.
          5    1    4    4  502    0  0.19853537209E+02 -0.35405606096E+02 -0.13980385934E+02  0.43188668347E+02  0.47000000000E+01 0. -1.
         -5    1    3    3    0  503  0.61015998478E+01 -0.43735191843E+02  0.30337402713E+01  0.44511685054E+02  0.47000000000E+01 0.  1.
          5    1    3    3  503    0 -0.58419943106E+01  0.33128092449E+02  0.53167048957E+02  0.63090605495E+02  0.47000000000E+01 0. -1.
         -5    1    4    4    0  502 -0.20113142746E+02  0.46012705490E+02 -0.60633947945E+01  0.50799235566E+02  0.47000000000E+01 0.  1.
<mgrwt>
<rscale>  0 0.91809090E+02</rscale>
<asrwt>0</asrwt>
<pdfrwt beam="1">  1        1 0.18288246E-01 0.91825775E+02</pdfrwt>
<pdfrwt beam="2">  1       -1 0.12725630E-01 0.91825775E+02</pdfrwt>
<totfact> 0.10854308E+04</totfact>
</mgrwt>
</event>
<event>
 8    1  0.3400573E-004  0.2525514E+03  0.7546771E-02  0.1111760E+00
         -1   -1    0    0    0  501 -0.00000000000E+00  0.00000000000E+00  0.14350139915E+03  0.14350139915E+03  0.00000000000E+00 0.  1.
          1   -1    0    0  501    0  0.00000000000E+00 -0.00000000000E+00 -0.75165686161E+03  0.75165686161E+03  0.00000000000E+00 0. -1.
         23    2    1    2    0    0  0.20909249056E+03  0.10759673708E+03 -0.17518860279E+02  0.25279248707E+03  0.91106550879E+02 0.  0.
         23    2    1    2    0    0 -0.20909249056E+03 -0.10759673708E+03 -0.59063660219E+03  0.64236577369E+03  0.92116577931E+02 0.  0.
          5    1    3    3  502    0  0.16978516612E+02  0.15537612360E+02 -0.31449564454E+02  0.39253694457E+02  0.47000000000E+01 0. -1.
         -5    1    4    4    0  503 -0.49037794070E+02 -0.98584161729E+01 -0.23471921251E+03  0.24003560639E+03  0.47000000000E+01 0.  1.
          5    1    4    4  503    0 -0.16005469649E+03 -0.97738320902E+02 -0.35591738968E+03  0.40233016730E+03  0.47000000000E+01 0. -1.
         -5    1    3    3    0  502  0.19211397395E+03  0.92059124715E+02  0.13930704175E+02  0.21353879261E+03  0.47000000000E+01 0.  1.
<mgrwt>
<rscale>  0 0.25245965E+03</rscale>
<asrwt>0</asrwt>
<pdfrwt beam="1">  1        1 0.11563951E+00 0.25255136E+03</pdfrwt>
<pdfrwt beam="2">  1       -1 0.22077139E-01 0.25255136E+03</pdfrwt>
<totfact> 0.43764147E+02</totfact>
</mgrwt>
</event>
<event>
 8    1  0.3400573E-004  0.1192611E+03  0.7546771E-02  0.1244925E+00
         -1   -1    0    0    0  501 -0.00000000000E+00  0.00000000000E+00  0.33084335411E+02  0.33084335411E+02  0.00000000000E+00 0.  1.
          1   -1    0    0  501    0  0.00000000000E+00 -0.00000000000E+00 -0.45003675478E+03  0.45003675478E+03  0.00000000000E+00 0. -1.
         23    2    1    2    0    0 -0.77486352679E+02 -0.35738541229E+01 -0.26696942115E+03  0.29239679771E+03  0.90588675878E+02 0.  0.
         23    2    1    2    0    0  0.77486352679E+02  0.35738541229E+01 -0.14998299821E+03  0.19072429248E+03  0.88678907876E+02 0.  0.
          5    1    3    3  502    0 -0.64576135330E+02  0.22152925104E+02 -0.90112471215E+02  0.11315112378E+03  0.47000000000E+01 0. -1.
         -5    1    3    3    0  502 -0.12910217349E+02 -0.25726779226E+02 -0.17685694994E+03  0.17924567393E+03  0.47000000000E+01 0.  1.
          5    1    4    4  503    0  0.24950302898E+02  0.32422945095E+02 -0.16567000885E+02  0.44388292394E+02  0.47000000000E+01 0. -1.
         -5    1    4    4    0  503  0.52536049781E+02 -0.28849090972E+02 -0.13341599733E+03  0.14633600008E+03  0.47000000000E+01 0.  1.
<mgrwt>
<rscale>  0 0.11889845E+03</rscale>
<asrwt>0</asrwt>
<pdfrwt beam="1">  1        1 0.69236423E-01 0.11926112E+03</pdfrwt>
<pdfrwt beam="2">  1       -1 0.50898978E-02 0.11926112E+03</pdfrwt>
<totfact> 0.84104945E+03</totfact>
</mgrwt>
</event>
<event>
 8    1  0.3400573E-004  0.9131933E+02  0.7546771E-02  0.1301948E+00
         -1   -1    0    0    0  501 -0.00000000000E+00  0.00000000000E+00  0.43751541120E+03  0.43751541120E+03  0.00000000000E+00 0.  1.
          1   -1    0    0  501    0  0.00000000000E+00 -0.00000000000E+00 -0.18383821449E+02  0.18383821449E+02  0.00000000000E+00 0. -1.
         23    2    1    2    0    0 -0.13041320836E+02 -0.36676438139E+01  0.23007580354E+03  0.24753604920E+03  0.90308873429E+02 0.  0.
         23    2    1    2    0    0  0.13041320836E+02  0.36676438139E+01  0.18905578622E+03  0.20836318345E+03  0.86542465041E+02 0.  0.
          5    1    4    4  502    0  0.48321393652E+02  0.13614433227E+02  0.11629241160E+03  0.12675300735E+03  0.47000000000E+01 0. -1.
         -5    1    4    4    0  502 -0.35280072816E+02 -0.99467894134E+01  0.72763374619E+02  0.81610176102E+02  0.47000000000E+01 0.  1.
          5    1    3    3  503    0 -0.13452970716E+02  0.19789518384E+02  0.10317804029E+02  0.26479322857E+02  0.47000000000E+01 0. -1.
         -5    1    3    3    0  503  0.41164988014E+00 -0.23457162198E+02  0.21975799951E+03  0.22105672634E+03  0.47000000000E+01 0.  1.
<mgrwt>
<rscale>  0 0.90374016E+02</rscale>
<asrwt>0</asrwt>
<pdfrwt beam="1">  1        1 0.28282805E-02 0.91319331E+02</pdfrwt>
<pdfrwt beam="2">  1       -1 0.67310056E-01 0.91319331E+02</pdfrwt>
<totfact> 0.78402977E+03</totfact>
</mgrwt>
</event>
<event>
 8    1  0.3400573E-004  0.1127758E+03  0.7546771E-02  0.1255773E+00
         -2   -1    0    0    0  501 -0.00000000000E+00  0.00000000000E+00  0.33939725533E+03  0.33939725533E+03  0.00000000000E+00 0.  1.
          2   -1    0    0  501    0  0.00000000000E+00 -0.00000000000E+00 -0.56161072093E+02  0.56161072093E+02  0.00000000000E+00 0. -1.
         23    2    1    2    0    0  0.50259869856E+02  0.40875770635E+02  0.25652938872E+03  0.28022437521E+03  0.92311917125E+02 0.  0.
         23    2    1    2    0    0 -0.50259869856E+02 -0.40875770635E+02  0.26706794514E+02  0.11533395221E+03  0.91606683794E+02 0.  0.
          5    1    3    3  502    0  0.58723496057E+02 -0.10172289390E+02  0.15597398476E+03  0.16703861345E+03  0.47000000000E+01 0. -1.
         -5    1    4    4    0  503 -0.42934692556E+02  0.16116957915E+02  0.33915004210E+02  0.57231649180E+02  0.47000000000E+01 0.  1.
          5    1    4    4  503    0 -0.73251772997E+01 -0.56992728550E+02 -0.72082096962E+01  0.58102303027E+02  0.47000000000E+01 0. -1.
         -5    1    3    3    0  502 -0.84636262009E+01  0.51048060025E+02  0.10055540396E+03  0.11318576177E+03  0.47000000000E+01 0.  1.
<mgrwt>
<rscale>  0 0.11263135E+03</rscale>
<asrwt>0</asrwt>
<pdfrwt beam="1">  1        2 0.86401652E-02 0.11277577E+03</pdfrwt>
<pdfrwt beam="2">  1       -2 0.52214961E-01 0.11277577E+03</pdfrwt>
<totfact> 0.25775438E+03</totfact>
</mgrwt>
</event>
<event>
 8    1  0.3400573E-004  0.9740322E+02  0.7546771E-02  0.1288213E+00
         -2   -1    0    0    0  501 -0.00000000000E+00  0.00000000000E+00  0.13415313662E+02  0.13415313662E+02  0.00000000000E+00 0.  1.
          2   -1    0    0  501    0  0.00000000000E+00 -0.00000000000E+00 -0.77747623519E+03  0.77747623519E+03  0.00000000000E+00 0. -1.
         23    2    1    2    0    0  0.22484246362E+02 -0.64390225501E+01 -0.53166478909E+03  0.54051349236E+03  0.94553609738E+02 0.  0.
         23    2    1    2    0    0 -0.22484246362E+02  0.64390225501E+01 -0.23239613243E+03  0.25037805649E+03  0.90189835663E+02 0.  0.
          5    1    3    3  502    0 -0.30274272662E+02 -0.23890874267E+02 -0.28415661985E+03  0.28680024419E+03  0.47000000000E+01 0. -1.
         -5    1    3    3    0  502  0.52758519025E+02  0.17451851717E+02 -0.24750816924E+03  0.25371324817E+03  0.47000000000E+01 0.  1.
          5    1    4    4  503    0 -0.56520752805E+02  0.11825490767E+02 -0.15694768994E+03  0.16729944742E+03  0.47000000000E+01 0. -1.
         -5    1    4    4    0  503  0.34036506443E+02 -0.53864682168E+01 -0.75448442493E+02  0.83078609072E+02  0.47000000000E+01 0.  1.
<mgrwt>
<rscale>  0 0.96327994E+02</rscale>
<asrwt>0</asrwt>
<pdfrwt beam="1">  1        2 0.11961175E+00 0.97403221E+02</pdfrwt>
<pdfrwt beam="2">  1       -2 0.20638940E-02 0.97403221E+02</pdfrwt>
<totfact> 0.24892785E+04</totfact>
</mgrwt>
</event>
<event>
 8    1  0.3400573E-004  0.1184801E+03  0.7546771E-02  0.1246209E+00
          2   -1    0    0  501    0  0.00000000000E+00  0.00000000000E+00  0.29234229291E+03  0.29234229291E+03  0.00000000000E+00 0. -1.
         -2   -1    0    0    0  501 -0.00000000000E+00 -0.00000000000E+00 -0.47473690010E+02  0.47473690010E+02  0.00000000000E+00 0.  1.
         23    2    1    2    0    0  0.52035108039E+02 -0.52417537123E+02  0.12471996948E+03  0.17107585811E+03  0.90865987989E+02 0.  0.
         23    2    1    2    0    0 -0.52035108039E+02  0.52417537123E+02  0.12014863342E+03  0.16874012481E+03  0.92640622530E+02 0.  0.
          5    1    4    4  502    0 -0.71350755851E+02  0.34948665896E+02  0.50563579338E+02  0.94292656999E+02  0.47000000000E+01 0. -1.
         -5    1    3    3    0  503  0.71812696651E+02 -0.25723509491E+02  0.11113445508E+03  0.13487668237E+03  0.47000000000E+01 0.  1.
          5    1    3    3  503    0 -0.19777588612E+02 -0.26694027632E+02  0.13585514397E+02  0.36199175736E+02  0.47000000000E+01 0. -1.
         -5    1    4    4    0  502  0.19315647812E+02  0.17468871227E+02  0.69585054084E+02  0.74447467816E+02  0.47000000000E+01 0.  1.
<mgrwt>
<rscale>  0 0.11813299E+03</rscale>
<asrwt>0</asrwt>
<pdfrwt beam="1">  1        2 0.44975736E-01 0.11848011E+03</pdfrwt>
<pdfrwt beam="2">  1       -2 0.73036448E-02 0.11848011E+03</pdfrwt>
<totfact> 0.11445388E+04</totfact>
</mgrwt>
</event>
<event>
 8    1  0.3400573E-004  0.1333514E+03  0.7546771E-02  0.1223835E+00
          2   -1    0    0  501    0  0.00000000000E+00  0.00000000000E+00  0.89143533002E+03  0.89143533002E+03  0.00000000000E+00 0. -1.
         -2   -1    0    0    0  501 -0.00000000000E+00 -0.00000000000E+00 -0.93885472301E+02  0.93885472301E+02  0.00000000000E+00 0.  1.
         23    2    1    2    0    0  0.82389444529E+02 -0.50655713969E+02 -0.38853259132E+02  0.13889624568E+03  0.91807240404E+02 0.  0.
         23    2    1    2    0    0 -0.82389444529E+02  0.50655713969E+02  0.83640311685E+03  0.84642455664E+03  0.86662184860E+02 0.  0.
          5    1    3    3  502    0 -0.67138063205E+01 -0.40696855455E+02 -0.23828877495E+02  0.47866633911E+02  0.47000000000E+01 0. -1.
         -5    1    4    4    0  503 -0.19473775889E+02 -0.16282655021E+02  0.71640467799E+02  0.76149848512E+02  0.47000000000E+01 0.  1.
          5    1    4    4  503    0 -0.62915668640E+02  0.66938368990E+02  0.76476264905E+03  0.77027470813E+03  0.47000000000E+01 0. -1.
         -5    1    3    3    0  502  0.89103250849E+02 -0.99588585136E+01 -0.15024381637E+02  0.91029611767E+02  0.47000000000E+01 0.  1.
<mgrwt>
<rscale>  0 0.13247056E+03</rscale>
<asrwt>0</asrwt>
<pdfrwt beam="1">  1        2 0.13714389E+00 0.13335138E+03</pdfrwt>
<pdfrwt beam="2">  1       -2 0.14443919E-01 0.13335138E+03</pdfrwt>
<totfact> 0.11236208E+03</totfact>
</mgrwt>
</event>
<event>
 8    1  0.3400573E-004  0.1003909E+03  0.7546771E-02  0.1283533E+00
         -1   -1    0    0    0  501 -0.00000000000E+00  0.00000000000E+00  0.24857205372E+02  0.24857205372E+02  0.00000000000E+00 0.  1.
          1   -1    0    0  501    0  0.00000000000E+00 -0.00000000000E+00 -0.44079749634E+03  0.44079749634E+03  0.00000000000E+00 0. -1.
         23    2    1    2    0    0  0.12814883546E+02 -0.24214400315E+02 -0.29038763405E+03  0.30490082293E+03  0.88819904269E+02 0.  0.
         23    2    1    2    0    0 -0.12814883546E+02  0.24214400315E+02 -0.12555265692E+03  0.16075387878E+03  0.96580440360E+02 0.  0.
          5    1    4    4  502    0 -0.40638833279E+02  0.13760838255E+02 -0.12323221080E+03  0.13057236774E+03  0.47000000000E+01 0. -1.
         -5    1    4    4    0  502  0.27823949733E+02  0.10453562061E+02 -0.23204461258E+01  0.30181511041E+02  0.47000000000E+01 0.  1.
          5    1    3    3  503    0 -0.52412965619E+00  0.31595349143E+02 -0.14606965296E+03  0.14952248766E+03  0.47000000000E+01 0. -1.
         -5    1    3    3    0  503  0.13339013202E+02 -0.55809749458E+02 -0.14431798109E+03  0.15537833528E+03  0.47000000000E+01 0.  1.
<mgrwt>
<rscale>  0 0.98476400E+02</rscale>
<asrwt>0</asrwt>
<pdfrwt beam="1">  1        1 0.67814994E-01 0.10039094E+03</pdfrwt>
<pdfrwt beam="2">  1       -1 0.38241857E-02 0.10039094E+03</pdfrwt>
<totfact> 0.12948722E+04</totfact>
</mgrwt>
</event>
<event>
 8    1  0.3400573E-004  0.1152887E+03  0.7546771E-02  0.1252359E+00
         -2   -1    0    0    0  501 -0.00000000000E+00  0.00000000000E+00  0.13553151291E+02  0.13553151291E+02  0.00000000000E+00 0.  1.
          2   -1    0    0  501    0  0.00000000000E+00 -0.00000000000E+00 -0.98273861606E+03  0.98273861606E+03  0.00000000000E+00 0. -1.
         23    2    1    2    0    0 -0.33769870952E+02  0.59443784483E+02 -0.39662033437E+03  0.41223500282E+03  0.89196637929E+02 0.  0.
         23    2    1    2    0    0  0.33769870952E+02 -0.59443784483E+02 -0.57256513040E+03  0.58405676453E+03  0.92830533474E+02 0.  0.
          5    1    4    4  502    0  0.64602674289E+02 -0.47395002274E+02 -0.44514769308E+03  0.45232549168E+03  0.47000000000E+01 0. -1.
         -5    1    3    3    0  503  0.23626255619E+02  0.16479852738E+02 -0.47130298649E+02  0.55435913915E+02  0.47000000000E+01 0.  1.
          5    1    3    3  503    0 -0.57396126571E+02  0.42963931745E+02 -0.34949003572E+03  0.35679908890E+03  0.47000000000E+01 0. -1.
         -5    1    4    4    0  502 -0.30832803337E+02 -0.12048782209E+02 -0.12741743732E+03  0.13173127285E+03  0.47000000000E+01 0.  1.
<mgrwt>
<rscale>  0 0.11455536E+03</rscale>
<asrwt>0</asrwt>
<pdfrwt beam="1">  1        2 0.15119061E+00 0.11528866E+03</pdfrwt>
<pdfrwt beam="2">  1       -2 0.20850995E-02 0.11528866E+03</pdfrwt>
<totfact> 0.18445677E+04</totfact>
</mgrwt>
</event>
<event>
 8    1  0.3400573E-004  0.1018713E+03  0.7546771E-02  0.1278180E+00
         -1   -1    0    0    0  501 -0.00000000000E+00  0.00000000000E+00  0.32544433186E+02  0.32544433186E+02  0.00000000000E+00 0.  1.
          1   -1    0    0  501    0  0.00000000000E+00 -0.00000000000E+00 -0.63003047779E+03  0.63003047779E+03  0.00000000000E+00 0. -1.
         23    2    1    2    0    0  0.33685884988E+02  0.71675674384E+01 -0.53791859540E+03  0.54747983886E+03  0.95873071396E+02 0.  0.
         23    2    1    2    0    0 -0.33685884988E+02 -0.71675674384E+01 -0.59567449212E+02  0.11509507212E+03  0.92263111531E+02 0.  0.
          5    1    3    3  502    0  0.17477608654E+02 -0.36144066139E+02 -0.11273341433E+03  0.11976131691E+03  0.47000000000E+01 0. -1.
         -5    1    4    4    0  503 -0.28314700598E+02  0.39491355315E+02 -0.43041134592E+02  0.65083935664E+02  0.47000000000E+01 0.  1.
          5    1    4    4  503    0 -0.53711843898E+01 -0.46658922754E+02 -0.16526314620E+02  0.50011136452E+02  0.47000000000E+01 0. -1.
         -5    1    3    3    0  502  0.16208276334E+02  0.43311633577E+02 -0.42518518106E+03  0.42771852195E+03  0.47000000000E+01 0.  1.
<mgrwt>
<rscale>  0 0.10101304E+03</rscale>
<asrwt>0</asrwt>
<pdfrwt beam="1">  1        1 0.96927748E-01 0.10187128E+03</pdfrwt>
<pdfrwt beam="2">  1       -1 0.50068368E-02 0.10187128E+03</pdfrwt>
<totfact> 0.54821730E+03</totfact>
</mgrwt>
</event>
<event>
 8    1  0.3400573E-004  0.1187475E+03  0.7546771E-02  0.1254395E+00
          2   -1    0    0  501    0  0.00000000000E+00  0.00000000000E+00  0.14324541743E+03  0.14324541743E+03  0.00000000000E+00 0. -1.
         -2   -1    0    0    0  501 -0.00000000000E+00 -0.00000000000E+00 -0.82711013579E+02  0.82711013579E+02  0.00000000000E+00 0.  1.
         23    2    1    2    0    0  0.30285521102E+02 -0.24222339934E+02  0.37608559863E+02  0.12456071522E+03  0.11223650681E+03 0.  0.
         23    2    1    2    0    0 -0.30285521102E+02  0.24222339934E+02  0.22925843992E+02  0.10139571579E+03  0.90838110496E+02 0.  0.
          5    1    3    3  502    0  0.27760375899E+01 -0.48373685045E+02  0.63107361730E+02  0.79701624162E+02  0.47000000000E+01 0. -1.
         -5    1    4    4    0  503 -0.59615593633E+02 -0.98007282221E+00  0.13330066040E+02  0.61276098175E+02  0.47000000000E+01 0.  1.
          5    1    4    4  503    0  0.29330072531E+02  0.25202412757E+02  0.95957779514E+01  0.40119617619E+02  0.47000000000E+01 0. -1.
         -5    1    3    3    0  502  0.27509483513E+02  0.24151345111E+02 -0.25498801867E+02  0.44859091057E+02  0.47000000000E+01 0.  1.
<mgrwt>
<rscale>  0 0.11340299E+03</rscale>
<asrwt>0</asrwt>
<pdfrwt beam="1">  1        2 0.22037756E-01 0.11874750E+03</pdfrwt>
<pdfrwt beam="2">  1       -2 0.12724771E-01 0.11874750E+03</pdfrwt>
<totfact> 0.10372757E+04</totfact>
</mgrwt>
</event>
<event>
 8    1  0.3400573E-004  0.1191433E+03  0.7546771E-02  0.1246908E+00
          1   -1    0    0  501    0  0.00000000000E+00  0.00000000000E+00  0.63576283422E+02  0.63576283422E+02  0.00000000000E+00 0. -1.
         -1   -1    0    0    0  501 -0.00000000000E+00 -0.00000000000E+00 -0.38446916752E+03  0.38446916752E+03  0.00000000000E+00 0.  1.
         23    2    1    2    0    0  0.58390108814E+02  0.31134981625E+02 -0.31220381349E+03  0.33416513800E+03  0.99077375856E+02 0.  0.
         23    2    1    2    0    0 -0.58390108814E+02 -0.31134981625E+02 -0.86890705982E+01  0.11388031294E+03  0.92273689850E+02 0.  0.
          5    1    4    4  502    0 -0.80849530369E+02 -0.34134280992E+02  0.30364602183E+01  0.87938079297E+02  0.47000000000E+01 0. -1.
         -5    1    3    3    0  503  0.75276927463E+02  0.47247119305E+02 -0.28196865644E+03  0.29568111083E+03  0.47000000000E+01 0.  1.
          5    1    3    3  503    0 -0.16886818650E+02 -0.16112137680E+02 -0.30235157059E+02  0.38484027168E+02  0.47000000000E+01 0. -1.
         -5    1    4    4    0  502  0.22459421555E+02  0.29992993672E+01 -0.11725530817E+02  0.25942233640E+02  0.47000000000E+01 0.  1.
<mgrwt>
<rscale>  0 0.11771921E+03</rscale>
<asrwt>0</asrwt>
<pdfrwt beam="1">  1        1 0.97809667E-02 0.11914327E+03</pdfrwt>
<pdfrwt beam="2">  1       -1 0.59149103E-01 0.11914327E+03</pdfrwt>
<totfact> 0.19112338E+03</totfact>
</mgrwt>
</event>
<event>
 8    1  0.3400573E-004  0.1498700E+03  0.7546771E-02  0.1201221E+00
         -1   -1    0    0    0  501 -0.00000000000E+00  0.00000000000E+00  0.25413270305E+02  0.25413270305E+02  0.00000000000E+00 0.  1.
          1   -1    0    0  501    0  0.00000000000E+00 -0.00000000000E+00 -0.87421063187E+03  0.87421063187E+03  0.00000000000E+00 0. -1.
         23    2    1    2    0    0 -0.10996016868E+03  0.36148527239E+02 -0.44597465203E+03  0.47048315472E+03  0.95200073036E+02 0.  0.
         23    2    1    2    0    0  0.10996016868E+03 -0.36148527239E+02 -0.40282270953E+03  0.42914074745E+03  0.92182921893E+02 0.  0.
          5    1    4    4  502    0  0.10914931524E+03 -0.57389280067E+02 -0.36731029345E+03  0.38748683095E+03  0.47000000000E+01 0. -1.
         -5    1    4    4    0  502  0.81085344347E+00  0.21240752828E+02 -0.35512416087E+02  0.41653916506E+02  0.47000000000E+01 0.  1.
          5    1    3    3  503    0  0.74049034361E+00  0.30010888054E+02 -0.17579850248E+03  0.17840517146E+03  0.47000000000E+01 0.  1.
         -5    1    3    3    0  503 -0.11070065903E+03  0.61376391850E+01 -0.27017614955E+03  0.29207798326E+03  0.47000000000E+01 0.  1.
<mgrwt>
<rscale>  0 0.14939315E+03</rscale>
<asrwt>0</asrwt>
<pdfrwt beam="1">  1        1 0.13449395E+00 0.14986997E+03</pdfrwt>
<pdfrwt beam="2">  1       -1 0.39097336E-02 0.14986997E+03</pdfrwt>
<totfact> 0.49807839E+03</totfact>
</mgrwt>
</event>
<event>
 8    1  0.3400573E-004  0.2061928E+03  0.7546771E-02  0.1144646E+00
          1   -1    0    0  501    0  0.00000000000E+00  0.00000000000E+00  0.80041013025E+03  0.80041013025E+03  0.00000000000E+00 0. -1.
         -1   -1    0    0    0  501 -0.00000000000E+00 -0.00000000000E+00 -0.67042977280E+02  0.67042977280E+02  0.00000000000E+00 0.  1.
         23    2    1    2    0    0 -0.89138902336E+02 -0.16197800083E+03  0.16863940465E+03  0.26626021493E+03  0.90954035611E+02 0.  0.
         23    2    1    2    0    0  0.89138902336E+02  0.16197800083E+03  0.56472774832E+03  0.60119289259E+03  0.91284433040E+02 0.  0.
          5    1    4    4  502    0  0.61145134936E+02  0.34030338699E+02  0.26381165663E+03  0.27297522169E+03  0.47000000000E+01 0. -1.
         -5    1    3    3    0  503 -0.68416012299E+02 -0.12639212572E+03  0.71383920885E+02  0.16054119204E+03  0.47000000000E+01 0.  1.
          5    1    3    3  503    0 -0.20722890037E+02 -0.35585875116E+02  0.97255483760E+02  0.10571902289E+03  0.47000000000E+01 0. -1.
         -5    1    4    4    0  502  0.27993767400E+02  0.12794766213E+03  0.30091609169E+03  0.32821767091E+03  0.47000000000E+01 0.  1.
<mgrwt>
<rscale>  0 0.20615626E+03</rscale>
<asrwt>0</asrwt>
<pdfrwt beam="1">  1        1 0.12314001E+00 0.20619278E+03</pdfrwt>
<pdfrwt beam="2">  1       -1 0.10314305E-01 0.20619278E+03</pdfrwt>
<totfact> 0.13367475E+03</totfact>
</mgrwt>
</event>
<event>
 8    1  0.3400573E-004  0.9665087E+02  0.7546771E-02  0.1288595E+00
         -1   -1    0    0    0  501 -0.00000000000E+00  0.00000000000E+00  0.21407008875E+02  0.21407008875E+02  0.00000000000E+00 0.  1.
          1   -1    0    0  501    0  0.00000000000E+00 -0.00000000000E+00 -0.62053996531E+03  0.62053996531E+03  0.00000000000E+00 0. -1.
         23    2    1    2    0    0 -0.25632490250E+02  0.23224016209E+02 -0.11844577100E+03  0.15163935613E+03  0.88140309602E+02 0.  0.
         23    2    1    2    0    0  0.25632490250E+02 -0.23224016209E+02 -0.48068718544E+03  0.49030761806E+03  0.90249712400E+02 0.  0.
          5    1    3    3  502    0  0.14819457579E+02  0.20244091626E+02 -0.10588497738E+03  0.10891812523E+03  0.47000000000E+01 0. -1.
         -5    1    4    4    0  503  0.34304150590E+01  0.24683512485E+02 -0.47113654648E+02  0.53505420196E+02  0.47000000000E+01 0.  1.
          5    1    4    4  503    0  0.22202075191E+02 -0.47907528694E+02 -0.43357353079E+03  0.43680219786E+03  0.47000000000E+01 0. -1.
         -5    1    3    3    0  502 -0.40451947828E+02  0.29799245832E+01 -0.12560793614E+02  0.42721230903E+02  0.47000000000E+01 0.  1.
<mgrwt>
<rscale>  0 0.96155398E+02</rscale>
<asrwt>0</asrwt>
<pdfrwt beam="1">  1        1 0.95467680E-01 0.96650867E+02</pdfrwt>
<pdfrwt beam="2">  1       -1 0.32933862E-02 0.96650867E+02</pdfrwt>
<totfact> 0.10266294E+04</totfact>
</mgrwt>
</event>
<event>
 8    1  0.3400573E-004  0.9456572E+02  0.7546771E-02  0.1300935E+00
         -1   -1    0    0    0  501 -0.00000000000E+00  0.00000000000E+00  0.86278302541E+02  0.86278302541E+02  0.00000000000E+00 0.  1.
          1   -1    0    0  501    0  0.00000000000E+00 -0.00000000000E+00 -0.11468767657E+03  0.11468767657E+03  0.00000000000E+00 0. -1.
         23    2    1    2    0    0 -0.13763900677E+02 -0.14311157541E+02  0.34424867796E+02  0.87428240017E+02  0.77874074233E+02 0.  0.
         23    2    1    2    0    0  0.13763900677E+02  0.14311157541E+02 -0.62834241826E+02  0.11353773909E+03  0.92457677133E+02 0.  0.
          5    1    3    3  502    0 -0.29080334672E+02  0.24164955769E+02  0.11188094763E+02  0.39709878071E+02  0.47000000000E+01 0. -1.
         -5    1    3    3    0  502  0.15316433996E+02 -0.38476113311E+02  0.23236773033E+02  0.47718361946E+02  0.47000000000E+01 0.  1.
          5    1    4    4  503    0 -0.24950077464E+02 -0.13620239589E+02 -0.58701638997E+02  0.65391052238E+02  0.47000000000E+01 0. -1.
         -5    1    4    4    0  503  0.38713978140E+02  0.27931397130E+02 -0.41326028291E+01  0.48146686856E+02  0.47000000000E+01 0.  1.
<mgrwt>
<rscale>  0 0.90796233E+02</rscale>
<asrwt>0</asrwt>
<pdfrwt beam="1">  1        1 0.17644258E-01 0.94565725E+02</pdfrwt>
<pdfrwt beam="2">  1       -1 0.13273585E-01 0.94565725E+02</pdfrwt>
<totfact> 0.10675010E+04</totfact>
</mgrwt>
</event>
<event>
 8    1  0.3400573E-004  0.1138634E+03  0.7546771E-02  0.1256021E+00
          2   -1    0    0  501    0  0.00000000000E+00  0.00000000000E+00  0.34050221702E+03  0.34050221702E+03  0.00000000000E+00 0. -1.
         -2   -1    0    0    0  501 -0.00000000000E+00 -0.00000000000E+00 -0.95043309238E+02  0.95043309238E+02  0.00000000000E+00 0.  1.
         23    2    1    2    0    0 -0.45286435599E+02  0.48752875724E+02 -0.47327778465E+02  0.12330772479E+03  0.92396819419E+02 0.  0.
         23    2    1    2    0    0  0.45286435599E+02 -0.48752875724E+02  0.29278668625E+03  0.31223780147E+03  0.85677866916E+02 0.  0.
          5    1    4    4  502    0  0.40806332595E+02 -0.27194718338E+02  0.28372164666E+03  0.28796661658E+03  0.47000000000E+01 0. -1.
         -5    1    4    4    0  502  0.44801030039E+01 -0.21558157386E+02  0.90650395932E+01  0.24271184883E+02  0.47000000000E+01 0.  1.
          5    1    3    3  503    0  0.24885816486E+02  0.11962473494E+02  0.47054284947E+01  0.28401332567E+02  0.47000000000E+01 0. -1.
         -5    1    3    3    0  503 -0.70172252085E+02  0.36790402230E+02 -0.52033206959E+02  0.94906392226E+02  0.47000000000E+01 0.  1.
<mgrwt>
<rscale>  0 0.11249360E+03</rscale>
<asrwt>0</asrwt>
<pdfrwt beam="1">  1        2 0.52384956E-01 0.11386341E+03</pdfrwt>
<pdfrwt beam="2">  1       -2 0.14622048E-01 0.11386341E+03</pdfrwt>
<totfact> 0.32651972E+03</totfact>
</mgrwt>
</event>
<event>
 8    1  0.3400573E-004  0.9933204E+02  0.7546771E-02  0.1282117E+00
         -2   -1    0    0    0  501 -0.00000000000E+00  0.00000000000E+00  0.32590133207E+02  0.32590133207E+02  0.00000000000E+00 0.  1.
          2   -1    0    0  501    0  0.00000000000E+00 -0.00000000000E+00 -0.34380875532E+03  0.34380875532E+03  0.00000000000E+00 0. -1.
         23    2    1    2    0    0 -0.37039592985E+02 -0.50807675966E+01 -0.89276378871E+02  0.13355570464E+03  0.92027760861E+02 0.  0.
         23    2    1    2    0    0  0.37039592985E+02  0.50807675966E+01 -0.22194224324E+03  0.24284318389E+03  0.91195981151E+02 0.  0.
          5    1    4    4  502    0  0.46537285620E+02 -0.24357017310E+02 -0.19350954585E+03  0.20056674096E+03  0.47000000000E+01 0. -1.
         -5    1    3    3    0  503 -0.65981390940E+02  0.77581650223E+01 -0.52540520749E+02  0.84831181740E+02  0.47000000000E+01 0.  1.
          5    1    3    3  503    0  0.28941797955E+02 -0.12838932619E+02 -0.36735858122E+02  0.48724522898E+02  0.47000000000E+01 0. -1.
         -5    1    4    4    0  502 -0.94976926350E+01  0.29437784907E+02 -0.28432697395E+02  0.42276442929E+02  0.47000000000E+01 0.  1.
<mgrwt>
<rscale>  0 0.99138949E+02</rscale>
<asrwt>0</asrwt>
<pdfrwt beam="1">  1        2 0.52893655E-01 0.99332041E+02</pdfrwt>
<pdfrwt beam="2">  1       -2 0.50138666E-02 0.99332041E+02</pdfrwt>
<totfact> 0.16757641E+04</totfact>
</mgrwt>
</event>
<event>
 8    1  0.3400573E-004  0.1054642E+03  0.7546771E-02  0.1271781E+00
          1   -1    0    0  501    0  0.00000000000E+00  0.00000000000E+00  0.14520837190E+03  0.14520837190E+03  0.00000000000E+00 0. -1.
         -1   -1    0    0    0  501 -0.00000000000E+00 -0.00000000000E+00 -0.94707028706E+02  0.94707028706E+02  0.00000000000E+00 0.  1.
         23    2    1    2    0    0 -0.28321248831E+01 -0.55367070235E+02 -0.32744951123E+02  0.10555525779E+03  0.83642974751E+02 0.  0.
         23    2    1    2    0    0  0.28321248831E+01  0.55367070235E+02  0.83246294320E+02  0.13436014282E+03  0.89717161472E+02 0.  0.
          5    1    3    3  502    0 -0.18635333900E+02 -0.70444841951E+02 -0.10049254770E+02  0.73707726518E+02  0.47000000000E+01 0. -1.
         -5    1    3    3    0  502  0.15803209017E+02  0.15077771716E+02 -0.22695696353E+02  0.31847531272E+02  0.47000000000E+01 0.  1.
          5    1    4    4  503    0 -0.15953342068E+02  0.35026261459E+02  0.95985695392E+02  0.10352145592E+03  0.47000000000E+01 0. -1.
         -5    1    4    4    0  503  0.18785466951E+02  0.20340808776E+02 -0.12739401073E+02  0.30838686904E+02  0.47000000000E+01 0.  1.
<mgrwt>
<rscale>  0 0.10416117E+03</rscale>
<asrwt>0</asrwt>
<pdfrwt beam="1">  1        1 0.22339749E-01 0.10546422E+03</pdfrwt>
<pdfrwt beam="2">  1       -1 0.14570312E-01 0.10546422E+03</pdfrwt>
<totfact> 0.69298509E+03</totfact>
</mgrwt>
</event>
<event>
 8    1  0.3400573E-004  0.9830877E+02  0.7546771E-02  0.1285895E+00
          2   -1    0    0  501    0  0.00000000000E+00  0.00000000000E+00  0.20890241142E+03  0.20890241142E+03  0.00000000000E+00 0. -1.
         -2   -1    0    0    0  501 -0.00000000000E+00 -0.00000000000E+00 -0.67521421120E+02  0.67521421120E+02  0.00000000000E+00 0.  1.
         23    2    1    2    0    0  0.58834607984E+01 -0.13178590794E+02 -0.90103831397E+01  0.98720820468E+02  0.97243627161E+02 0.  0.
         23    2    1    2    0    0 -0.58834607984E+01  0.13178590794E+02  0.15039137344E+03  0.17770301207E+03  0.93554823113E+02 0.  0.
          5    1    4    4  502    0 -0.14235323576E+02  0.46927711480E+02  0.12510915524E+03  0.13445908399E+03  0.47000000000E+01 0. -1.
         -5    1    3    3    0  503 -0.40324532148E+02  0.14159558397E+02 -0.12315102631E+02  0.44724855950E+02  0.47000000000E+01 0.  1.
          5    1    3    3  503    0  0.46207992946E+02 -0.27338149191E+02  0.33047194916E+01  0.53995964518E+02  0.47000000000E+01 0. -1.
         -5    1    4    4    0  502  0.83518627780E+01 -0.33749120685E+02  0.25282218199E+02  0.43243928082E+02  0.47000000000E+01 0.  1.
<mgrwt>
<rscale>  0 0.97383976E+02</rscale>
<asrwt>0</asrwt>
<pdfrwt beam="1">  1        2 0.32138832E-01 0.98308766E+02</pdfrwt>
<pdfrwt beam="2">  1       -2 0.10387911E-01 0.98308766E+02</pdfrwt>
<totfact> 0.93311047E+03</totfact>
</mgrwt>
</event>
<event>
 8    1  0.3400573E-004  0.1440221E+03  0.7546771E-02  0.1208025E+00
          2   -1    0    0  501    0  0.00000000000E+00  0.00000000000E+00  0.45939127206E+03  0.45939127206E+03  0.00000000000E+00 0. -1.
         -2   -1    0    0    0  501 -0.00000000000E+00 -0.00000000000E+00 -0.51720604287E+02  0.51720604287E+02  0.00000000000E+00 0.  1.
         23    2    1    2    0    0 -0.91361977894E+02 -0.62980282461E+02  0.29494648412E+03  0.32822087714E+03  0.91771393760E+02 0.  0.
         23    2    1    2    0    0  0.91361977894E+02  0.62980282461E+02  0.11272418366E+03  0.18289099921E+03  0.91808763347E+02 0.  0.
          5    1    4    4  502    0  0.42040171739E+02  0.50571027390E+02  0.11411997857E+03  0.13179629873E+03  0.47000000000E+01 0. -1.
         -5    1    3    3    0  503 -0.81541828355E+01  0.22409537523E+02  0.59295381023E+02  0.64083619439E+02  0.47000000000E+01 0.  1.
          5    1    3    3  503    0 -0.83207795058E+02 -0.85389819985E+02  0.23565110310E+03  0.26413725770E+03  0.47000000000E+01 0. -1.
         -5    1    4    4    0  502  0.49321806155E+02  0.12409255071E+02 -0.13957949070E+01  0.51094700481E+02  0.47000000000E+01 0.  1.
<mgrwt>
<rscale>  0 0.14401618E+03</rscale>
<asrwt>0</asrwt>
<pdfrwt beam="1">  1        2 0.70675578E-01 0.14402214E+03</pdfrwt>
<pdfrwt beam="2">  1       -2 0.79570164E-02 0.14402214E+03</pdfrwt>
<totfact> 0.62839813E+03</totfact>
</mgrwt>
</event>
<event>
 8    1  0.3400573E-004  0.1017244E+03  0.7546771E-02  0.1279760E+00
         -1   -1    0    0    0  501 -0.00000000000E+00  0.00000000000E+00  0.21149566464E+03  0.21149566464E+03  0.00000000000E+00 0.  1.
          1   -1    0    0  501    0  0.00000000000E+00 -0.00000000000E+00 -0.56645882212E+02  0.56645882212E+02  0.00000000000E+00 0. -1.
         23    2    1    2    0    0  0.50719347490E+01 -0.36839752440E+02  0.18034735837E+02  0.97653409094E+02  0.88476238217E+02 0.  0.
         23    2    1    2    0    0 -0.50719347490E+01  0.36839752440E+02  0.13681504659E+03  0.17048813776E+03  0.94683452937E+02 0.  0.
          5    1    3    3  502    0  0.28172134934E+02 -0.12395746283E+01 -0.24304050654E+02  0.37523094358E+02  0.47000000000E+01 0. -1.
         -5    1    4    4    0  503  0.33970275059E+02  0.31979929372E+02  0.27839750628E+02  0.54532900026E+02  0.47000000000E+01 0.  1.
          5    1    4    4  503    0 -0.39042209807E+02  0.48598230680E+01  0.10897529596E+03  0.11595523773E+03  0.47000000000E+01 0. -1.
         -5    1    3    3    0  502 -0.23100200185E+02 -0.35600177812E+02  0.42338786491E+02  0.60130314737E+02  0.47000000000E+01 0.  1.
<mgrwt>
<rscale>  0 0.10025516E+03</rscale>
<asrwt>0</asrwt>
<pdfrwt beam="1">  1        1 0.87147512E-02 0.10172437E+03</pdfrwt>
<pdfrwt beam="2">  1       -1 0.32537794E-01 0.10172437E+03</pdfrwt>
<totfact> 0.63726889E+03</totfact>
</mgrwt>
</event>
<event>
 8    1  0.3400573E-004  0.9392081E+02  0.7546771E-02  0.1297731E+00
         -3   -1    0    0    0  501 -0.00000000000E+00  0.00000000000E+00  0.91266097477E+02  0.91266097477E+02  0.00000000000E+00 0.  1.
          3   -1    0    0  501    0  0.00000000000E+00 -0.00000000000E+00 -0.42912778670E+03  0.42912778670E+03  0.00000000000E+00 0. -1.
         23    2    1    2    0    0  0.63224510212E+01 -0.20241084286E+01  0.61102747924E+02  0.11204760129E+03  0.93685904752E+02 0.  0.
         23    2    1    2    0    0 -0.63224510212E+01  0.20241084286E+01 -0.39896443715E+03  0.40834628289E+03  0.86775539396E+02 0.  0.
          5    1    4    4  502    0 -0.48549395389E+01  0.43507291453E+02 -0.23871328701E+03  0.24273973355E+03  0.47000000000E+01 0. -1.
         -5    1    4    4    0  502 -0.14675114823E+01 -0.41483183025E+02 -0.16025115014E+03  0.16560654934E+03  0.47000000000E+01 0.  1.
          5    1    3    3  503    0 -0.75955946904E+01  0.43657690639E+02  0.19915774819E+02  0.48809989729E+02  0.47000000000E+01 0. -1.
         -5    1    3    3    0  503  0.13918045712E+02 -0.45681799068E+02  0.41186973105E+02  0.63237611562E+02  0.47000000000E+01 0.  1.
<mgrwt>
<rscale>  0 0.92148339E+02</rscale>
<asrwt>0</asrwt>
<pdfrwt beam="1">  1        3 0.66019659E-01 0.93920813E+02</pdfrwt>
<pdfrwt beam="2">  1       -3 0.14040938E-01 0.93920813E+02</pdfrwt>
<totfact> 0.20842185E+02</totfact>
</mgrwt>
</event>
<event>
 8    1  0.3400573E-004  0.1237060E+03  0.7546771E-02  0.1237136E+00
         -1   -1    0    0    0  501 -0.00000000000E+00  0.00000000000E+00  0.28171034477E+02  0.28171034477E+02  0.00000000000E+00 0.  1.
          1   -1    0    0  501    0  0.00000000000E+00 -0.00000000000E+00 -0.84485595283E+03  0.84485595283E+03  0.00000000000E+00 0. -1.
         23    2    1    2    0    0 -0.24155095248E+02 -0.77942949440E+02 -0.66922860735E+03  0.68055218571E+03  0.92875059057E+02 0.  0.
         23    2    1    2    0    0  0.24155095248E+02  0.77942949440E+02 -0.14745631100E+03  0.19247480159E+03  0.92976414208E+02 0.  0.
          5    1    3    3  502    0 -0.57089713156E+02 -0.33970523606E+02 -0.30610174362E+03  0.31326282778E+03  0.47000000000E+01 0. -1.
         -5    1    3    3    0  502  0.32934617908E+02 -0.43972425833E+02 -0.36312686373E+03  0.36728935793E+03  0.47000000000E+01 0.  1.
          5    1    4    4  503    0  0.52582993955E+02  0.20177284999E+02 -0.88759337064E+02  0.10522549120E+03  0.47000000000E+01 0. -1.
         -5    1    4    4    0  503 -0.28427898708E+02  0.57765664441E+02 -0.58696973939E+02  0.87249310386E+02  0.47000000000E+01 0.  1.
<mgrwt>
<rscale>  0 0.12368700E+03</rscale>
<asrwt>0</asrwt>
<pdfrwt beam="1">  1        1 0.12997781E+00 0.12370605E+03</pdfrwt>
<pdfrwt beam="2">  1       -1 0.43340062E-02 0.12370605E+03</pdfrwt>
<totfact> 0.44790699E+03</totfact>
</mgrwt>
</event>
<event>
 8    1  0.3400573E-004  0.1059003E+03  0.7546771E-02  0.1269315E+00
         -2   -1    0    0    0  501 -0.00000000000E+00  0.00000000000E+00  0.10747442403E+03  0.10747442403E+03  0.00000000000E+00 0.  1.
          2   -1    0    0  501    0  0.00000000000E+00 -0.00000000000E+00 -0.18111943540E+03  0.18111943540E+03  0.00000000000E+00 0. -1.
         23    2    1    2    0    0 -0.11693418136E+02 -0.51462438308E+02  0.58475822649E+02  0.11926933323E+03  0.89557989200E+02 0.  0.
         23    2    1    2    0    0  0.11693418136E+02  0.51462438308E+02 -0.13212083402E+03  0.16932452620E+03  0.91813734297E+02 0.  0.
          5    1    4    4  502    0  0.49173545815E+02  0.45765043001E+02 -0.90882718697E+02  0.11311160562E+03  0.47000000000E+01 0. -1.
         -5    1    3    3    0  503 -0.44009301120E+02 -0.55260101778E+02  0.35839256560E+02  0.79353889283E+02  0.47000000000E+01 0.  1.
          5    1    3    3  503    0  0.32315882985E+02  0.37976634697E+01  0.22636566089E+02  0.39915443944E+02  0.47000000000E+01 0. -1.
         -5    1    4    4    0  502 -0.37480127679E+02  0.56973953077E+01 -0.41238115324E+02  0.56212920575E+02  0.47000000000E+01 0.  1.
<mgrwt>
<rscale>  0 0.10540953E+03</rscale>
<asrwt>0</asrwt>
<pdfrwt beam="1">  1        2 0.27864528E-01 0.10590033E+03</pdfrwt>
<pdfrwt beam="2">  1       -2 0.16534527E-01 0.10590033E+03</pdfrwt>
<totfact> 0.51986766E+03</totfact>
</mgrwt>
</event>
<event>
 8    1  0.3400573E-004  0.1080712E+03  0.7546771E-02  0.1265234E+00
         -2   -1    0    0    0  501 -0.00000000000E+00  0.00000000000E+00  0.25260668626E+03  0.25260668626E+03  0.00000000000E+00 0.  1.
          2   -1    0    0  501    0  0.00000000000E+00 -0.00000000000E+00 -0.47448681927E+02  0.47448681927E+02  0.00000000000E+00 0. -1.
         23    2    1    2    0    0  0.41113113739E+02  0.35771618173E+02  0.71677774596E+02  0.12968070225E+03  0.93324618275E+02 0.  0.
         23    2    1    2    0    0 -0.41113113739E+02 -0.35771618173E+02  0.13348022974E+03  0.17037466594E+03  0.90778071556E+02 0.  0.
          5    1    3    3  502    0  0.51643887575E+02  0.57801614553E+02  0.34545822466E+02  0.84991891488E+02  0.47000000000E+01 0. -1.
         -5    1    3    3    0  502 -0.10530773836E+02 -0.22029996380E+02  0.37131952130E+02  0.44688810759E+02  0.47000000000E+01 0.  1.
          5    1    4    4  503    0  0.12525083076E+02 -0.47482114890E+02  0.77165031697E+02  0.91585812533E+02  0.47000000000E+01 0. -1.
         -5    1    4    4    0  503 -0.53638196815E+02  0.11710496717E+02  0.56315198040E+02  0.78788853407E+02  0.47000000000E+01 0.  1.
<mgrwt>
<rscale>  0 0.10751915E+03</rscale>
<asrwt>0</asrwt>
<pdfrwt beam="1">  1        2 0.72997974E-02 0.10807119E+03</pdfrwt>
<pdfrwt beam="2">  1       -2 0.38862566E-01 0.10807119E+03</pdfrwt>
<totfact> 0.56066357E+03</totfact>
</mgrwt>
</event>
<event>
 8    1  0.3400573E-004  0.1310149E+03  0.7546771E-02  0.1226111E+00
          2   -1    0    0  501    0  0.00000000000E+00  0.00000000000E+00  0.73473477835E+03  0.73473477835E+03  0.00000000000E+00 0. -1.
         -2   -1    0    0    0  501 -0.00000000000E+00 -0.00000000000E+00 -0.31528859697E+02  0.31528859697E+02  0.00000000000E+00 0.  1.
         23    2    1    2    0    0  0.48716360606E+02 -0.79288109551E+02  0.15613797647E+03  0.20382339745E+03  0.92222673687E+02 0.  0.
         23    2    1    2    0    0 -0.48716360606E+02  0.79288109551E+02  0.54706794217E+03  0.56244024060E+03  0.91628613326E+02 0.  0.
          5    1    4    4  502    0 -0.11683087555E+02  0.90681631008E+02  0.37959018425E+03  0.39047464798E+03  0.47000000000E+01 0. -1.
         -5    1    4    4    0  502 -0.37033273051E+02 -0.11393521456E+02  0.16747775792E+03  0.17196559261E+03  0.47000000000E+01 0.  1.
          5    1    3    3  503    0 -0.13748623834E+02 -0.63170899957E+02  0.93593048358E+02  0.11384786322E+03  0.47000000000E+01 0. -1.
         -5    1    3    3    0  503  0.62464984440E+02 -0.16117209594E+02  0.62544928115E+02  0.89975534225E+02  0.47000000000E+01 0.  1.
<mgrwt>
<rscale>  0 0.13091043E+03</rscale>
<asrwt>0</asrwt>
<pdfrwt beam="1">  1        2 0.11303611E+00 0.13101492E+03</pdfrwt>
<pdfrwt beam="2">  1       -2 0.48505944E-02 0.13101492E+03</pdfrwt>
<totfact> 0.77839203E+03</totfact>
</mgrwt>
</event>
<event>
 8    1  0.3400573E-004  0.1089007E+03  0.7546771E-02  0.1263716E+00
          1   -1    0    0  501    0  0.00000000000E+00  0.00000000000E+00  0.89480790972E+02  0.89480790972E+02  0.00000000000E+00 0. -1.
         -1   -1    0    0    0  501 -0.00000000000E+00 -0.00000000000E+00 -0.13427551988E+03  0.13427551988E+03  0.00000000000E+00 0.  1.
         23    2    1    2    0    0 -0.16531337497E+02 -0.58013568317E+02 -0.16027456817E+01  0.10660295370E+03  0.87879245080E+02 0.  0.
         23    2    1    2    0    0  0.16531337497E+02  0.58013568317E+02 -0.43191983231E+02  0.11715335716E+03  0.90666986544E+02 0.  0.
          5    1    3    3  502    0  0.13661328018E+02 -0.38630244200E+02  0.35761625622E+02  0.54588565811E+02  0.47000000000E+01 0. -1.
         -5    1    4    4    0  503 -0.34413780019E+02  0.43605047816E+02 -0.21814860197E+02  0.59863900438E+02  0.47000000000E+01 0.  1.
          5    1    4    4  503    0  0.50945117516E+02  0.14408520502E+02 -0.21377123035E+02  0.57289456718E+02  0.47000000000E+01 0. -1.
         -5    1    3    3    0  502 -0.30192665515E+02 -0.19383324117E+02 -0.37364371303E+02  0.52014387890E+02  0.47000000000E+01 0.  1.
<mgrwt>
<rscale>  0 0.10831860E+03</rscale>
<asrwt>0</asrwt>
<pdfrwt beam="1">  1        1 0.13766276E-01 0.10890070E+03</pdfrwt>
<pdfrwt beam="2">  1       -1 0.20657772E-01 0.10890070E+03</pdfrwt>
<totfact> 0.74215569E+03</totfact>
</mgrwt>
</event>
<event>
 8    1  0.3400573E-004  0.1015213E+03  0.7546771E-02  0.1281502E+00
         -1   -1    0    0    0  501 -0.00000000000E+00  0.00000000000E+00  0.75698822361E+01  0.75698822361E+01  0.00000000000E+00 0.  1.
          1   -1    0    0  501    0  0.00000000000E+00 -0.00000000000E+00 -0.12572838879E+04  0.12572838879E+04  0.00000000000E+00 0. -1.
         23    2    1    2    0    0 -0.13147476140E+02 -0.84163859988E+01 -0.62304444907E+03  0.63126140397E+03  0.10031392194E+03 0.  0.
         23    2    1    2    0    0  0.13147476140E+02  0.84163859988E+01 -0.62666955654E+03  0.63359236612E+03  0.92091593691E+02 0.  0.
          5    1    4    4  502    0  0.17635847489E+01  0.48930791951E+02 -0.39877697586E+03  0.40179907803E+03  0.47000000000E+01 0. -1.
         -5    1    3    3    0  503  0.42065648628E+02 -0.48912828088E+01 -0.35340812229E+03  0.35596746248E+03  0.47000000000E+01 0.  1.
          5    1    3    3  503    0 -0.55213124769E+02 -0.35251031900E+01 -0.26963632679E+03  0.27529394149E+03  0.47000000000E+01 0. -1.
         -5    1    4    4    0  502  0.11383891391E+02 -0.40514405953E+02 -0.22789258068E+03  0.23179328809E+03  0.47000000000E+01 0.  1.
<mgrwt>
<rscale>  0 0.99428476E+02</rscale>
<asrwt>0</asrwt>
<pdfrwt beam="1">  1        1 0.19342826E+00 0.10152130E+03</pdfrwt>
<pdfrwt beam="2">  1       -1 0.11645975E-02 0.10152130E+03</pdfrwt>
<totfact> 0.14877845E+04</totfact>
</mgrwt>
</event>
<event>
 8    1  0.3400573E-004  0.9967777E+02  0.7546771E-02  0.1282024E+00
         -1   -1    0    0    0  501 -0.00000000000E+00  0.00000000000E+00  0.26702065425E+02  0.26702065425E+02  0.00000000000E+00 0.  1.
          1   -1    0    0  501    0  0.00000000000E+00 -0.00000000000E+00 -0.36553304796E+03  0.36553304796E+03  0.00000000000E+00 0. -1.
         23    2    1    2    0    0 -0.29315039626E+02  0.21209492612E+02 -0.16227981621E+03  0.19044788476E+03  0.92878651660E+02 0.  0.
         23    2    1    2    0    0  0.29315039626E+02 -0.21209492612E+02 -0.17655116633E+03  0.20178722863E+03  0.90766498122E+02 0.  0.
          5    1    3    3  502    0 -0.45731932949E+01  0.36860982888E+02 -0.15561628737E+03  0.16005675571E+03  0.47000000000E+01 0. -1.
         -5    1    3    3    0  502 -0.24741846331E+02 -0.15651490276E+02 -0.66635288421E+01  0.30391129041E+02  0.47000000000E+01 0.  1.
          5    1    4    4  503    0  0.40487122580E+02  0.25016650992E+02 -0.10911182573E+03  0.11913236519E+03  0.47000000000E+01 0. -1.
         -5    1    4    4    0  503 -0.11172082954E+02 -0.46226143604E+02 -0.67439340599E+02  0.82654863441E+02  0.47000000000E+01 0.  1.
<mgrwt>
<rscale>  0 0.99182829E+02</rscale>
<asrwt>0</asrwt>
<pdfrwt beam="1">  1        1 0.56235847E-01 0.99677771E+02</pdfrwt>
<pdfrwt beam="2">  1       -1 0.41080105E-02 0.99677771E+02</pdfrwt>
<totfact> 0.14729582E+04</totfact>
</mgrwt>
</event>
<event>
 8    1  0.3400573E-004  0.1048412E+03  0.7546771E-02  0.1271405E+00
          2   -1    0    0  501    0  0.00000000000E+00  0.00000000000E+00  0.16652633283E+03  0.16652633283E+03  0.00000000000E+00 0. -1.
         -2   -1    0    0    0  501 -0.00000000000E+00 -0.00000000000E+00 -0.14591367881E+03  0.14591367881E+03  0.00000000000E+00 0.  1.
         23    2    1    2    0    0  0.34386048291E+02  0.31762812368E+02  0.12674847163E+03  0.16325393591E+03  0.91626393388E+02 0.  0.
         23    2    1    2    0    0 -0.34386048291E+02 -0.31762812368E+02 -0.10613581761E+03  0.14918607573E+03  0.93810430356E+02 0.  0.
          5    1    3    3  502    0 -0.95804135157E+01  0.23705660534E+02  0.11343888511E+03  0.11637960869E+03  0.47000000000E+01 0. -1.
         -5    1    4    4    0  503  0.45099768696E+00  0.28417567073E+02 -0.10101313095E+02  0.30526841361E+02  0.47000000000E+01 0. -1.
          5    1    4    4  503    0 -0.34837045978E+02 -0.60180379440E+02 -0.96034504520E+02  0.11865923437E+03  0.47000000000E+01 0.  1.
         -5    1    3    3    0  502  0.43966461806E+02  0.80571518343E+01  0.13309586520E+02  0.46874327225E+02  0.47000000000E+01 0.  1.
<mgrwt>
<rscale>  0 0.10435034E+03</rscale>
<asrwt>0</asrwt>
<pdfrwt beam="1">  1        2 0.25619436E-01 0.10484118E+03</pdfrwt>
<pdfrwt beam="2">  1       -2 0.22448258E-01 0.10484118E+03</pdfrwt>
<totfact> 0.34113714E+03</totfact>
</mgrwt>
</event>
<event>
 8    1  0.3400573E-004  0.1475920E+03  0.7546771E-02  0.1207326E+00
          2   -1    0    0  501    0  0.00000000000E+00  0.00000000000E+00  0.42065481082E+02  0.42065481082E+02  0.00000000000E+00 0. -1.
         -2   -1    0    0    0  501 -0.00000000000E+00 -0.00000000000E+00 -0.48108045369E+03  0.48108045369E+03  0.00000000000E+00 0.  1.
         23    2    1    2    0    0 -0.52808854675E+02 -0.86789617206E+02 -0.20557293232E+03  0.25306843617E+03  0.10706161823E+03 0.  0.
         23    2    1    2    0    0  0.52808854675E+02  0.86789617206E+02 -0.23344204028E+03  0.27007749860E+03  0.90141312888E+02 0.  0.
          5    1    3    3  502    0 -0.38718608193E+02 -0.60485615146E+02 -0.35345122282E+02  0.80181094587E+02  0.47000000000E+01 0. -1.
         -5    1    3    3    0  502 -0.14090246482E+02 -0.26304002060E+02 -0.17022781004E+03  0.17288734159E+03  0.47000000000E+01 0.  1.
          5    1    4    4  503    0  0.39995270975E+02 -0.70493945105E+01 -0.65428227667E+02  0.77150882296E+02  0.47000000000E+01 0. -1.
         -5    1    4    4    0  503  0.12813583700E+02  0.93839011716E+02 -0.16801381262E+03  0.19292661630E+03  0.47000000000E+01 0.  1.
<mgrwt>
<rscale>  0 0.14455626E+03</rscale>
<asrwt>0</asrwt>
<pdfrwt beam="1">  1        2 0.64716123E-02 0.14759201E+03</pdfrwt>
<pdfrwt beam="2">  1       -2 0.74012380E-01 0.14759201E+03</pdfrwt>
<totfact> 0.18319749E+03</totfact>
</mgrwt>
</event>
<event>
 8    1  0.3400573E-004  0.1000192E+03  0.7546771E-02  0.1284886E+00
          2   -1    0    0  501    0  0.00000000000E+00  0.00000000000E+00  0.17260588371E+03  0.17260588371E+03  0.00000000000E+00 0. -1.
         -2   -1    0    0    0  501 -0.00000000000E+00 -0.00000000000E+00 -0.56144438232E+02  0.56144438232E+02  0.00000000000E+00 0.  1.
         23    2    1    2    0    0 -0.66771916879E+01  0.29644375142E+02  0.29599837736E+02  0.96278481936E+02  0.86429287996E+02 0.  0.
         23    2    1    2    0    0  0.66771916879E+01 -0.29644375142E+02  0.86861607742E+02  0.13247184001E+03  0.95291529681E+02 0.  0.
          5    1    4    4  502    0  0.93623416687E+01  0.21397711763E+02  0.76479032803E+02  0.80103982227E+02  0.47000000000E+01 0. -1.
         -5    1    3    3    0  503  0.32378472919E+02 -0.11480412062E+02  0.99654339963E+01  0.36077212259E+02  0.47000000000E+01 0.  1.
          5    1    3    3  503    0 -0.39055664607E+02  0.41124787203E+02  0.19634403740E+02  0.60201269676E+02  0.47000000000E+01 0. -1.
         -5    1    4    4    0  502 -0.26851499808E+01 -0.51042086905E+02  0.10382574939E+02  0.52367857779E+02  0.47000000000E+01 0.  1.
<mgrwt>
<rscale>  0 0.97848662E+02</rscale>
<asrwt>0</asrwt>
<pdfrwt beam="1">  1        2 0.26554751E-01 0.10001925E+03</pdfrwt>
<pdfrwt beam="2">  1       -2 0.86376060E-02 0.10001925E+03</pdfrwt>
<totfact> 0.15279180E+04</totfact>
</mgrwt>
</event>
<event>
 8    1  0.3400573E-004  0.3276608E+03  0.7546771E-02  0.1072293E+00
          1   -1    0    0  501    0  0.00000000000E+00  0.00000000000E+00  0.97886131571E+03  0.97886131571E+03  0.00000000000E+00 0. -1.
         -1   -1    0    0    0  501 -0.00000000000E+00 -0.00000000000E+00 -0.11570077982E+03  0.11570077982E+03  0.00000000000E+00 0.  1.
         23    2    1    2    0    0  0.30745276377E+03 -0.63753399621E+02  0.30382542153E+03  0.44684618367E+03  0.93647889346E+02 0.  0.
         23    2    1    2    0    0 -0.30745276377E+03  0.63753399621E+02  0.55933511435E+03  0.64771591186E+03  0.89935723815E+02 0.  0.
          5    1    3    3  502    0  0.16800294083E+03 -0.81890993883E+02  0.17354796371E+03  0.25509235330E+03  0.47000000000E+01 0. -1.
         -5    1    4    4    0  503 -0.15401891288E+03  0.55035749423E+02  0.36434115366E+03  0.39939620114E+03  0.47000000000E+01 0. -1.
          5    1    4    4  503    0 -0.15343385089E+03  0.87176501981E+01  0.19499396069E+03  0.24831971071E+03  0.47000000000E+01 0.  1.
         -5    1    3    3    0  502  0.13944982293E+03  0.18137594263E+02  0.13027745783E+03  0.19175383036E+03  0.47000000000E+01 0.  1.
<mgrwt>
<rscale>  0 0.32740013E+03</rscale>
<asrwt>0</asrwt>
<pdfrwt beam="1">  1        1 0.15059404E+00 0.32766084E+03</pdfrwt>
<pdfrwt beam="2">  1       -1 0.17800121E-01 0.32766084E+03</pdfrwt>
<totfact> 0.40471339E+02</totfact>
</mgrwt>
</event>
<event>
 8    1  0.3400573E-004  0.1114739E+03  0.7546771E-02  0.1259257E+00
          2   -1    0    0  501    0  0.00000000000E+00  0.00000000000E+00  0.70728818571E+03  0.70728818571E+03  0.00000000000E+00 0. -1.
         -2   -1    0    0    0  501 -0.00000000000E+00 -0.00000000000E+00 -0.18712681992E+02  0.18712681992E+02  0.00000000000E+00 0.  1.
         23    2    1    2    0    0  0.46075937434E+02  0.42135774850E+02  0.45525672057E+03  0.46870577425E+03  0.92347201688E+02 0.  0.
         23    2    1    2    0    0 -0.46075937434E+02 -0.42135774850E+02  0.23331878315E+03  0.25729509345E+03  0.88683115706E+02 0.  0.
          5    1    3    3  502    0  0.17487595234E+02  0.58640704043E+02  0.39586563886E+03  0.40059486041E+03  0.47000000000E+01 0. -1.
         -5    1    3    3    0  502  0.28588342200E+02 -0.16504929192E+02  0.59391081706E+02  0.68110913836E+02  0.47000000000E+01 0.  1.
          5    1    4    4  503    0 -0.16971357359E+02 -0.49743731972E+02  0.21581977314E+03  0.22217724978E+03  0.47000000000E+01 0. -1.
         -5    1    4    4    0  503 -0.29104580075E+02  0.76079571213E+01  0.17499010008E+02  0.35117843672E+02  0.47000000000E+01 0.  1.
<mgrwt>
<rscale>  0 0.11071209E+03</rscale>
<asrwt>0</asrwt>
<pdfrwt beam="1">  1        2 0.10881355E+00 0.11147386E+03</pdfrwt>
<pdfrwt beam="2">  1       -2 0.28788747E-02 0.11147386E+03</pdfrwt>
<totfact> 0.17413625E+04</totfact>
</mgrwt>
</event>
<event>
 8    1  0.3400573E-004  0.1369326E+03  0.7546771E-02  0.1217867E+00
         -2   -1    0    0    0  501 -0.00000000000E+00  0.00000000000E+00  0.54895985000E+02  0.54895985000E+02  0.00000000000E+00 0.  1.
          2   -1    0    0  501    0  0.00000000000E+00 -0.00000000000E+00 -0.34402793298E+03  0.34402793298E+03  0.00000000000E+00 0. -1.
         23    2    1    2    0    0  0.63381464952E+02 -0.77435746450E+02 -0.12112230668E+03  0.18281448795E+03  0.93472022019E+02 0.  0.
         23    2    1    2    0    0 -0.63381464952E+02  0.77435746450E+02 -0.16800964130E+03  0.21610943004E+03  0.91992071680E+02 0.  0.
          5    1    3    3  502    0  0.17053087827E+02  0.21241671300E+02 -0.20840421129E+02  0.34618341336E+02  0.47000000000E+01 0. -1.
         -5    1    3    3    0  502  0.46328377125E+02 -0.98677417750E+02 -0.10028188555E+03  0.14819614661E+03  0.47000000000E+01 0.  1.
          5    1    4    4  503    0 -0.69671310796E+02  0.35254860588E+02 -0.15079936484E+03  0.16988094414E+03  0.47000000000E+01 0. -1.
         -5    1    4    4    0  503  0.62898458441E+01  0.42180885863E+02 -0.17210276460E+02  0.46228485901E+02  0.47000000000E+01 0.  1.
<mgrwt>
<rscale>  0 0.13668037E+03</rscale>
<asrwt>0</asrwt>
<pdfrwt beam="1">  1        2 0.52927374E-01 0.13693255E+03</pdfrwt>
<pdfrwt beam="2">  1       -2 0.84455361E-02 0.13693255E+03</pdfrwt>
<totfact> 0.77872985E+03</totfact>
</mgrwt>
</event>
<event>
 8    1  0.3400573E-004  0.2264195E+03  0.7546771E-02  0.1129445E+00
         -1   -1    0    0    0  501 -0.00000000000E+00  0.00000000000E+00  0.33991614452E+03  0.33991614452E+03  0.00000000000E+00 0.  1.
          1   -1    0    0  501    0  0.00000000000E+00 -0.00000000000E+00 -0.30103913520E+03  0.30103913520E+03  0.00000000000E+00 0. -1.
         23    2    1    2    0    0  0.15756521666E+03  0.13296231457E+03  0.24651290169E+03  0.33374450466E+03  0.90061140874E+02 0.  0.
         23    2    1    2    0    0 -0.15756521666E+03 -0.13296231457E+03 -0.20763589238E+03  0.30721077506E+03  0.93594988701E+02 0.  0.
          5    1    3    3  502    0  0.12287214352E+03  0.46116968913E+02  0.14606749895E+03  0.19642337621E+03  0.47000000000E+01 0. -1.
         -5    1    3    3    0  502  0.34693073144E+02  0.86845345659E+02  0.10044540274E+03  0.13732112845E+03  0.47000000000E+01 0.  1.
          5    1    4    4  503    0 -0.12767553540E+03 -0.13789043536E+03 -0.14476129729E+03  0.23726090638E+03  0.47000000000E+01 0. -1.
         -5    1    4    4    0  503 -0.29889681262E+02  0.49281207862E+01 -0.62874595093E+02  0.69949868682E+02  0.47000000000E+01 0.  1.
<mgrwt>
<rscale>  0 0.22605921E+03</rscale>
<asrwt>0</asrwt>
<pdfrwt beam="1">  1        1 0.46313713E-01 0.22641951E+03</pdfrwt>
<pdfrwt beam="2">  1       -1 0.52294792E-01 0.22641951E+03</pdfrwt>
<totfact> 0.33266609E+02</totfact>
</mgrwt>
</event>
<event>
 8    1  0.3400573E-004  0.9528080E+02  0.7546771E-02  0.1290873E+00
          3   -1    0    0  501    0  0.00000000000E+00  0.00000000000E+00  0.14423517811E+03  0.14423517811E+03  0.00000000000E+00 0. -1.
         -3   -1    0    0    0  501 -0.00000000000E+00 -0.00000000000E+00 -0.10456469785E+03  0.10456469785E+03  0.00000000000E+00 0.  1.
         23    2    1    2    0    0 -0.15263802925E+02  0.71610071018E+01 -0.59049201733E+02  0.11159927175E+03  0.93184363108E+02 0.  0.
         23    2    1    2    0    0  0.15263802925E+02 -0.71610071018E+01  0.98719681990E+02  0.13720060421E+03  0.93777217286E+02 0.  0.
          5    1    4    4  502    0  0.28677788706E+02 -0.39783336974E+02  0.86555663243E+02  0.99594690146E+02  0.47000000000E+01 0. -1.
         -5    1    4    4    0  502 -0.13413985780E+02  0.32622329872E+02  0.12164018748E+02  0.37605914068E+02  0.47000000000E+01 0.  1.
          5    1    3    3  503    0  0.25598041194E+02 -0.27167084388E+02 -0.99168512600E+01  0.38906864768E+02  0.47000000000E+01 0. -1.
         -5    1    3    3    0  503 -0.40861844120E+02  0.34328091490E+02 -0.49132350473E+02  0.72692406985E+02  0.47000000000E+01 0.  1.
<mgrwt>
<rscale>  0 0.95134600E+02</rscale>
<asrwt>0</asrwt>
<pdfrwt beam="1">  1        3 0.22190027E-01 0.95280797E+02</pdfrwt>
<pdfrwt beam="2">  1       -3 0.16086877E-01 0.95280797E+02</pdfrwt>
<totfact> 0.13241138E+03</totfact>
</mgrwt>
</event>
<event>
 8    1  0.3400573E-004  0.1132300E+03  0.7546771E-02  0.1264224E+00
         -1   -1    0    0    0  501 -0.00000000000E+00  0.00000000000E+00  0.25172840226E+03  0.25172840226E+03  0.00000000000E+00 0.  1.
          1   -1    0    0  501    0  0.00000000000E+00 -0.00000000000E+00 -0.17483790985E+03  0.17483790985E+03  0.00000000000E+00 0. -1.
         23    2    1    2    0    0  0.12739072399E+01  0.18909886040E+02  0.22460856724E+03  0.25153535722E+03  0.11163252584E+03 0.  0.
         23    2    1    2    0    0 -0.12739072399E+01 -0.18909886040E+02 -0.14771807482E+03  0.17503095489E+03  0.91956505530E+02 0.  0.
          5    1    3    3  502    0  0.45462051102E+02  0.11242940275E+02  0.40841027011E+02  0.62315979362E+02  0.47000000000E+01 0. -1.
         -5    1    4    4    0  503 -0.31758654444E+01  0.35190570181E+02 -0.84249124600E+02  0.91479327429E+02  0.47000000000E+01 0.  1.
          5    1    4    4  503    0  0.19019582045E+01 -0.54100456221E+02 -0.63468950224E+02  0.83551627458E+02  0.47000000000E+01 0. -1.
         -5    1    3    3    0  502 -0.44188143863E+02  0.76669457656E+01  0.18376754023E+03  0.18921937786E+03  0.47000000000E+01 0.  1.
<mgrwt>
<rscale>  0 0.10805009E+03</rscale>
<asrwt>0</asrwt>
<pdfrwt beam="1">  1        1 0.26898140E-01 0.11322998E+03</pdfrwt>
<pdfrwt beam="2">  1       -1 0.38727446E-01 0.11322998E+03</pdfrwt>
<totfact> 0.11201477E+03</totfact>
</mgrwt>
</event>
<event>
 8    1  0.3400573E-004  0.1569619E+03  0.7546771E-02  0.1193167E+00
          1   -1    0    0  501    0  0.00000000000E+00  0.00000000000E+00  0.16503409896E+03  0.16503409896E+03  0.00000000000E+00 0. -1.
         -1   -1    0    0    0  501 -0.00000000000E+00 -0.00000000000E+00 -0.15144762221E+03  0.15144762221E+03  0.00000000000E+00 0.  1.
         23    2    1    2    0    0  0.10069616604E+03  0.71453251324E+02  0.36549560880E+02  0.15784900825E+03  0.91297064721E+02 0.  0.
         23    2    1    2    0    0 -0.10069616604E+03 -0.71453251324E+02 -0.22963084133E+02  0.15863271292E+03  0.96911038568E+02 0.  0.
          5    1    3    3  502    0  0.10284250493E+03  0.26035880126E+02  0.36025998595E+02  0.11213567875E+03  0.47000000000E+01 0. -1.
         -5    1    4    4    0  503 -0.60464336104E+02  0.14106050656E+02 -0.10710076121E+02  0.63179999494E+02  0.47000000000E+01 0.  1.
          5    1    4    4  503    0 -0.40231829935E+02 -0.85559301980E+02 -0.12253008013E+02  0.95452713427E+02  0.47000000000E+01 0. -1.
         -5    1    3    3    0  502 -0.21463388869E+01  0.45417371198E+02  0.52356228537E+00  0.45713329507E+02  0.47000000000E+01 0.  1.
<mgrwt>
<rscale>  0 0.15610422E+03</rscale>
<asrwt>0</asrwt>
<pdfrwt beam="1">  1        1 0.25389861E-01 0.15696189E+03</pdfrwt>
<pdfrwt beam="2">  1       -1 0.23299634E-01 0.15696189E+03</pdfrwt>
<totfact> 0.28618520E+03</totfact>
</mgrwt>
</event>
<event>
 8    1  0.3400573E-004  0.1120493E+03  0.7546771E-02  0.1257678E+00
          1   -1    0    0  501    0  0.00000000000E+00  0.00000000000E+00  0.26144085058E+03  0.26144085058E+03  0.00000000000E+00 0. -1.
         -1   -1    0    0    0  501 -0.00000000000E+00 -0.00000000000E+00 -0.48024475018E+02  0.48024475018E+02  0.00000000000E+00 0.  1.
         23    2    1    2    0    0 -0.56225423187E+02 -0.33766454101E+02  0.12761647974E+03  0.16982641441E+03  0.90849179941E+02 0.  0.
         23    2    1    2    0    0  0.56225423187E+02  0.33766454101E+02  0.85799895823E+02  0.13963891119E+03  0.88520798453E+02 0.  0.
          5    1    3    3  502    0  0.21407708536E+02  0.66434820927E+01  0.38734812727E+02  0.44998906165E+02  0.47000000000E+01 0. -1.
         -5    1    3    3    0  502 -0.77633131723E+02 -0.40409936194E+02  0.88881667009E+02  0.12482750824E+03  0.47000000000E+01 0.  1.
          5    1    4    4  503    0  0.23726083957E+02  0.29707284695E+02 -0.88969597496E+01  0.39328052541E+02  0.47000000000E+01 0. -1.
         -5    1    4    4    0  503  0.32499339231E+02  0.40591694055E+01  0.94696855572E+02  0.10031085864E+03  0.47000000000E+01 0.  1.
<mgrwt>
<rscale>  0 0.11157646E+03</rscale>
<asrwt>0</asrwt>
<pdfrwt beam="1">  1        1 0.40221669E-01 0.11204930E+03</pdfrwt>
<pdfrwt beam="2">  1       -1 0.73883809E-02 0.11204930E+03</pdfrwt>
<totfact> 0.94535448E+03</totfact>
</mgrwt>
</event>
<event>
 8    1  0.3400573E-004  0.1079829E+03  0.7546771E-02  0.1265096E+00
         -4   -1    0    0    0  501 -0.00000000000E+00  0.00000000000E+00  0.75311990986E+02  0.75311990986E+02  0.00000000000E+00 0.  1.
          4   -1    0    0  501    0  0.00000000000E+00 -0.00000000000E+00 -0.20202880666E+03  0.20202880666E+03  0.00000000000E+00 0. -1.
         23    2    1    2    0    0 -0.41325174355E+02 -0.41325348499E+02  0.48816137992E+01  0.10809321602E+03  0.90800653805E+02 0.  0.
         23    2    1    2    0    0  0.41325174355E+02  0.41325348499E+02 -0.13159842947E+03  0.16924758163E+03  0.88944042990E+02 0.  0.
          5    1    3    3  502    0 -0.19988895556E+02  0.13859153062E+02 -0.30268201843E+02  0.39113758602E+02  0.47000000000E+01 0. -1.
         -5    1    4    4    0  503  0.54884565008E+02  0.18526093233E+02 -0.32572802098E+02  0.66622886782E+02  0.47000000000E+01 0.  1.
          5    1    4    4  503    0 -0.13559390653E+02  0.22799255265E+02 -0.99025627371E+02  0.10262469484E+03  0.47000000000E+01 0. -1.
         -5    1    3    3    0  502 -0.21336278799E+02 -0.55184501560E+02  0.35149815643E+02  0.68979457414E+02  0.47000000000E+01 0.  1.
<mgrwt>
<rscale>  0 0.10759170E+03</rscale>
<asrwt>0</asrwt>
<pdfrwt beam="1">  1        4 0.31081355E-01 0.10798293E+03</pdfrwt>
<pdfrwt beam="2">  1       -4 0.11586460E-01 0.10798293E+03</pdfrwt>
<totfact> 0.92157487E+02</totfact>
</mgrwt>
</event>
<event>
 8    1  0.3400573E-004  0.9805725E+02  0.7546771E-02  0.1285690E+00
         -2   -1    0    0    0  501 -0.00000000000E+00  0.00000000000E+00  0.35815920355E+02  0.35815920355E+02  0.00000000000E+00 0.  1.
          2   -1    0    0  501    0  0.00000000000E+00 -0.00000000000E+00 -0.54921026600E+03  0.54921026600E+03  0.00000000000E+00 0. -1.
         23    2    1    2    0    0  0.15795099786E+02  0.24225563209E+02 -0.43799804203E+02  0.10530308025E+03  0.91290485656E+02 0.  0.
         23    2    1    2    0    0 -0.15795099786E+02 -0.24225563209E+02 -0.46959454144E+03  0.47972310611E+03  0.93695582025E+02 0.  0.
          5    1    3    3  502    0  0.21162435025E+02 -0.32136867953E+02 -0.20990659171E+02  0.44083156765E+02  0.47000000000E+01 0. -1.
         -5    1    4    4    0  503 -0.50789354750E+02 -0.27575223052E+02 -0.21546124188E+03  0.22312684338E+03  0.47000000000E+01 0.  1.
          5    1    4    4  503    0  0.34994254964E+02  0.33496598422E+01 -0.25413329956E+03  0.25659626273E+03  0.47000000000E+01 0. -1.
         -5    1    3    3    0  502 -0.53673352394E+01  0.56362431162E+02 -0.22809145032E+02  0.61219923482E+02  0.47000000000E+01 0.  1.
<mgrwt>
<rscale>  0 0.97478275E+02</rscale>
<asrwt>0</asrwt>
<pdfrwt beam="1">  1        2 0.84493894E-01 0.98057255E+02</pdfrwt>
<pdfrwt beam="2">  1       -2 0.55101411E-02 0.98057255E+02</pdfrwt>
<totfact> 0.88153876E+03</totfact>
</mgrwt>
</event>
<event>
 8    1  0.3400573E-004  0.9734390E+02  0.7546771E-02  0.1286621E+00
         -1   -1    0    0    0  501 -0.00000000000E+00  0.00000000000E+00  0.13715450772E+03  0.13715450772E+03  0.00000000000E+00 0.  1.
          1   -1    0    0  501    0  0.00000000000E+00 -0.00000000000E+00 -0.74021745147E+02  0.74021745147E+02  0.00000000000E+00 0. -1.
         23    2    1    2    0    0 -0.15737942661E+02 -0.28875224642E+02  0.61186317902E+02  0.11497651755E+03  0.91620809061E+02 0.  0.
         23    2    1    2    0    0  0.15737942661E+02  0.28875224642E+02  0.19464446727E+01  0.96199735315E+02  0.90383289332E+02 0.  0.
          5    1    3    3  502    0  0.15620403633E+02  0.27893373111E+02  0.19663167675E+02  0.37825486595E+02  0.47000000000E+01 0. -1.
         -5    1    3    3    0  502 -0.31358346293E+02 -0.56768597753E+02  0.41523150227E+02  0.77151030958E+02  0.47000000000E+01 0.  1.
          5    1    4    4  503    0 -0.12926368001E+02  0.34827736997E+02 -0.33320937755E+02  0.50124217170E+02  0.47000000000E+01 0. -1.
         -5    1    4    4    0  503  0.28664310661E+02 -0.59525123549E+01  0.35267382428E+02  0.46075518145E+02  0.47000000000E+01 0.  1.
<mgrwt>
<rscale>  0 0.97051619E+02</rscale>
<asrwt>0</asrwt>
<pdfrwt beam="1">  1        1 0.11387961E-01 0.97343896E+02</pdfrwt>
<pdfrwt beam="2">  1       -1 0.21100693E-01 0.97343896E+02</pdfrwt>
<totfact> 0.90878707E+03</totfact>
</mgrwt>
</event>
<event>
 8    1  0.3400573E-004  0.1012619E+03  0.7546771E-02  0.1281073E+00
          2   -1    0    0  501    0  0.00000000000E+00  0.00000000000E+00  0.28304627629E+02  0.28304627629E+02  0.00000000000E+00 0. -1.
         -2   -1    0    0    0  501 -0.00000000000E+00 -0.00000000000E+00 -0.38134624299E+03  0.38134624299E+03  0.00000000000E+00 0.  1.
         23    2    1    2    0    0  0.26816101348E+02 -0.11381774176E+02 -0.24915863428E+03  0.26894980665E+03  0.96981056856E+02 0.  0.
         23    2    1    2    0    0 -0.26816101348E+02  0.11381774176E+02 -0.10388298109E+03  0.14070106397E+03  0.90313163865E+02 0.  0.
          5    1    3    3  502    0 -0.30455658971E+02 -0.24930627235E+02 -0.71693511951E+02  0.81921505074E+02  0.47000000000E+01 0. -1.
         -5    1    4    4    0  503 -0.14317087180E+02  0.46531875484E+02 -0.28880766521E+02  0.56801259636E+02  0.47000000000E+01 0.  1.
          5    1    4    4  503    0 -0.12499014167E+02 -0.35150101308E+02 -0.75002214566E+02  0.83899804332E+02  0.47000000000E+01 0. -1.
         -5    1    3    3    0  502  0.57271760319E+02  0.13548853059E+02 -0.17746512233E+03  0.18702830158E+03  0.47000000000E+01 0.  1.
<mgrwt>
<rscale>  0 0.99631285E+02</rscale>
<asrwt>0</asrwt>
<pdfrwt beam="1">  1        2 0.43545582E-02 0.10126191E+03</pdfrwt>
<pdfrwt beam="2">  1       -2 0.58668652E-01 0.10126191E+03</pdfrwt>
<totfact> 0.48447850E+03</totfact>
</mgrwt>
</event>
<event>
 8    1  0.3400573E-004  0.1095809E+03  0.7546771E-02  0.1262483E+00
         -2   -1    0    0    0  501 -0.00000000000E+00  0.00000000000E+00  0.13580787186E+02  0.13580787186E+02  0.00000000000E+00 0.  1.
          2   -1    0    0  501    0  0.00000000000E+00 -0.00000000000E+00 -0.88191977821E+03  0.88191977821E+03  0.00000000000E+00 0. -1.
         23    2    1    2    0    0  0.46701285416E+02  0.35629562813E+02 -0.36715220145E+03  0.38247408796E+03  0.89639350358E+02 0.  0.
         23    2    1    2    0    0 -0.46701285416E+02 -0.35629562813E+02 -0.50118678958E+03  0.51302647743E+03  0.92506717002E+02 0.  0.
          5    1    3    3  502    0  0.72075291093E+02  0.15469899052E+02 -0.27164531962E+03  0.28150920951E+03  0.47000000000E+01 0. -1.
         -5    1    3    3    0  502 -0.25374005677E+02  0.20159663761E+02 -0.95506881820E+02  0.10096487846E+03  0.47000000000E+01 0.  1.
          5    1    4    4  503    0 -0.40378223035E+02 -0.63277172669E+02 -0.42485328447E+03  0.43145892597E+03  0.47000000000E+01 0. -1.
         -5    1    4    4    0  503 -0.63230623814E+01  0.27647609856E+02 -0.76333505108E+02  0.81567551457E+02  0.47000000000E+01 0.  1.
<mgrwt>
<rscale>  0 0.10897345E+03</rscale>
<asrwt>0</asrwt>
<pdfrwt beam="1">  1        2 0.13567998E+00 0.10958088E+03</pdfrwt>
<pdfrwt beam="2">  1       -2 0.20893517E-02 0.10958088E+03</pdfrwt>
<totfact> 0.21123363E+04</totfact>
</mgrwt>
</event>
<event>
 8    1  0.3400573E-004  0.1369121E+03  0.7546771E-02  0.1218103E+00
          2   -1    0    0  501    0  0.00000000000E+00  0.00000000000E+00  0.70741287495E+03  0.70741287495E+03  0.00000000000E+00 0. -1.
         -2   -1    0    0    0  501 -0.00000000000E+00 -0.00000000000E+00 -0.11307870766E+03  0.11307870766E+03  0.00000000000E+00 0.  1.
         23    2    1    2    0    0 -0.52382459376E+02 -0.88512114084E+02 -0.62850296081E+02  0.14919704928E+03  0.87927716934E+02 0.  0.
         23    2    1    2    0    0  0.52382459376E+02  0.88512114084E+02  0.65718446337E+03  0.67129453334E+03  0.90369326654E+02 0.  0.
          5    1    4    4  502    0  0.68805149911E+02  0.70735876633E+02  0.61106394493E+03  0.61899834224E+03  0.47000000000E+01 0. -1.
         -5    1    4    4    0  502 -0.16422690535E+02  0.17776237451E+02  0.46120518445E+02  0.52296191103E+02  0.47000000000E+01 0.  1.
          5    1    3    3  503    0  0.13051053226E+02 -0.22238539976E+02  0.12753276881E+02  0.29148219873E+02  0.47000000000E+01 0. -1.
         -5    1    3    3    0  503 -0.65433512602E+02 -0.66273574108E+02 -0.75603572962E+02  0.12004882940E+03  0.47000000000E+01 0.  1.
<mgrwt>
<rscale>  0 0.13651058E+03</rscale>
<asrwt>0</asrwt>
<pdfrwt beam="1">  1        2 0.10883275E+00 0.13691213E+03</pdfrwt>
<pdfrwt beam="2">  1       -2 0.17396725E-01 0.13691213E+03</pdfrwt>
<totfact> 0.11030214E+03</totfact>
</mgrwt>
</event>
<event>
 8    1  0.3400573E-004  0.9637923E+02  0.7546771E-02  0.1289354E+00
         -1   -1    0    0    0  501 -0.00000000000E+00  0.00000000000E+00  0.85652768431E+02  0.85652768431E+02  0.00000000000E+00 0.  1.
          1   -1    0    0  501    0  0.00000000000E+00 -0.00000000000E+00 -0.14645676996E+03  0.14645676996E+03  0.00000000000E+00 0. -1.
         23    2    1    2    0    0 -0.31756706866E+02 -0.10289525273E+01 -0.91699038144E+02  0.13303258911E+03  0.90991257794E+02 0.  0.
         23    2    1    2    0    0  0.31756706866E+02  0.10289525273E+01  0.30895036614E+02  0.99076949279E+02  0.88612591751E+02 0.  0.
          5    1    3    3  502    0 -0.29814052325E+02 -0.38651818559E+02 -0.79030942626E+02  0.93009788121E+02  0.47000000000E+01 0. -1.
         -5    1    3    3    0  502 -0.19426545405E+01  0.37622866032E+02 -0.12668095518E+02  0.40022800991E+02  0.47000000000E+01 0.  1.
          5    1    4    4  503    0  0.26286787683E+02 -0.23914858645E+02  0.53668684121E+02  0.64539393598E+02  0.47000000000E+01 0. -1.
         -5    1    4    4    0  503  0.54699191827E+01  0.24943811172E+02 -0.22773647507E+02  0.34537555681E+02  0.47000000000E+01 0.  1.
<mgrwt>
<rscale>  0 0.95813666E+02</rscale>
<asrwt>0</asrwt>
<pdfrwt beam="1">  1        1 0.22531811E-01 0.96379231E+02</pdfrwt>
<pdfrwt beam="2">  1       -1 0.13177349E-01 0.96379231E+02</pdfrwt>
<totfact> 0.79502408E+03</totfact>
</mgrwt>
</event>
<event>
 8    1  0.3400573E-004  0.1231648E+03  0.7546771E-02  0.1238446E+00
          1   -1    0    0  501    0  0.00000000000E+00  0.00000000000E+00  0.16925230592E+03  0.16925230592E+03  0.00000000000E+00 0. -1.
         -1   -1    0    0    0  501 -0.00000000000E+00 -0.00000000000E+00 -0.90766894200E+02  0.90766894200E+02  0.00000000000E+00 0.  1.
         23    2    1    2    0    0 -0.34859629773E+02 -0.73708267125E+02  0.58401386939E+02  0.13522761650E+03  0.90706580997E+02 0.  0.
         23    2    1    2    0    0  0.34859629773E+02  0.73708267125E+02  0.20084024777E+02  0.12479158362E+03  0.92311802391E+02 0.  0.
          5    1    3    3  502    0 -0.37451672353E+02 -0.83291431256E+01 -0.10539033116E+02  0.40064493086E+02  0.47000000000E+01 0. -1.
         -5    1    4    4    0  503  0.15067603859E+02  0.92863333588E+02  0.22180904887E+02  0.96771452158E+02  0.47000000000E+01 0.  1.
          5    1    4    4  503    0  0.19792025914E+02 -0.19155066463E+02 -0.20968801098E+01  0.28020131462E+02  0.47000000000E+01 0. -1.
         -5    1    3    3    0  502  0.25920425802E+01 -0.65379124000E+02  0.68940420055E+02  0.95163123409E+02  0.47000000000E+01 0.  1.
<mgrwt>
<rscale>  0 0.12286409E+03</rscale>
<asrwt>0</asrwt>
<pdfrwt beam="1">  1        1 0.26038816E-01 0.12316481E+03</pdfrwt>
<pdfrwt beam="2">  1       -1 0.13964138E-01 0.12316481E+03</pdfrwt>
<totfact> 0.61813305E+03</totfact>
</mgrwt>
</event>
<event>
 8    1  0.3400573E-004  0.9416698E+02  0.7546771E-02  0.1293624E+00
          1   -1    0    0  501    0  0.00000000000E+00  0.00000000000E+00  0.51255090287E+03  0.51255090287E+03  0.00000000000E+00 0. -1.
         -1   -1    0    0    0  501 -0.00000000000E+00 -0.00000000000E+00 -0.17247915366E+02  0.17247915366E+02  0.00000000000E+00 0.  1.
         23    2    1    2    0    0 -0.11808027029E+02 -0.38649380686E+00  0.22624364356E+03  0.24505837342E+03  0.93422916099E+02 0.  0.
         23    2    1    2    0    0  0.11808027029E+02  0.38649380686E+00  0.26905934394E+03  0.28474044481E+03  0.92437067620E+02 0.  0.
          5    1    4    4  502    0  0.34251412136E+02 -0.33784073711E+02  0.10489672971E+03  0.11549864403E+03  0.47000000000E+01 0. -1.
         -5    1    4    4    0  502 -0.22443385107E+02  0.34170567518E+02  0.16416261423E+03  0.16924180077E+03  0.47000000000E+01 0.  1.
          5    1    3    3  503    0 -0.24998512937E+02 -0.34326309519E+02  0.18487295609E+03  0.18974541119E+03  0.47000000000E+01 0. -1.
         -5    1    3    3    0  503  0.13190485908E+02  0.33939815712E+02  0.41370687475E+02  0.55312962235E+02  0.47000000000E+01 0.  1.
<mgrwt>
<rscale>  0 0.93921528E+02</rscale>
<asrwt>0</asrwt>
<pdfrwt beam="1">  1        1 0.78853973E-01 0.94166980E+02</pdfrwt>
<pdfrwt beam="2">  1       -1 0.26535258E-02 0.94166980E+02</pdfrwt>
<totfact> 0.18009502E+04</totfact>
</mgrwt>
</event>
<event>
 8    1  0.3400573E-004  0.9264299E+02  0.7546771E-02  0.1297694E+00
          1   -1    0    0  501    0  0.00000000000E+00  0.00000000000E+00  0.10899140256E+03  0.10899140256E+03  0.00000000000E+00 0. -1.
         -1   -1    0    0    0  501 -0.00000000000E+00 -0.00000000000E+00 -0.10522291257E+03  0.10522291257E+03  0.00000000000E+00 0.  1.
         23    2    1    2    0    0 -0.13926829427E+02 -0.12773183284E+02  0.57201846516E+02  0.10726644348E+03  0.88752058358E+02 0.  0.
         23    2    1    2    0    0  0.13926829427E+02  0.12773183284E+02 -0.53433356526E+02  0.10694787166E+03  0.90695164550E+02 0.  0.
          5    1    4    4  502    0 -0.26990537321E+02  0.35504104080E+02 -0.19278163134E+02  0.48813605534E+02  0.47000000000E+01 0. -1.
         -5    1    3    3    0  503 -0.15314852895E+02 -0.49886248072E+02  0.40746010450E+02  0.66374014746E+02  0.47000000000E+01 0. -1.
          5    1    3    3  503    0  0.13880234672E+01  0.37113064788E+02  0.16455836066E+02  0.40892428734E+02  0.47000000000E+01 0.  1.
         -5    1    4    4    0  502  0.40917366748E+02 -0.22730920795E+02 -0.34155193393E+02  0.58134266122E+02  0.47000000000E+01 0.  1.
<mgrwt>
<rscale>  0 0.92163941E+02</rscale>
<asrwt>0</asrwt>
<pdfrwt beam="1">  1        1 0.16767908E-01 0.92642990E+02</pdfrwt>
<pdfrwt beam="2">  1       -1 0.16188141E-01 0.92642990E+02</pdfrwt>
<totfact> 0.83580619E+03</totfact>
</mgrwt>
</event>
<event>
 8    1  0.3400573E-004  0.1223235E+03  0.7546771E-02  0.1248762E+00
          1   -1    0    0  501    0  0.00000000000E+00  0.00000000000E+00  0.39382650042E+02  0.39382650042E+02  0.00000000000E+00 0. -1.
         -1   -1    0    0    0  501 -0.00000000000E+00 -0.00000000000E+00 -0.36367237091E+03  0.36367237091E+03  0.00000000000E+00 0.  1.
         23    2    1    2    0    0 -0.19691547699E+02  0.28322229502E+02 -0.22074074225E+03  0.24278824866E+03  0.95025010727E+02 0.  0.
         23    2    1    2    0    0  0.19691547699E+02 -0.28322229502E+02 -0.10354897863E+03  0.16026677230E+03  0.11735902860E+03 0.  0.
          5    1    3    3  502    0  0.61553192292E+01 -0.31023813794E+02 -0.10872220755E+03  0.11332684321E+03  0.47000000000E+01 0. -1.
         -5    1    4    4    0  503  0.45819920711E+02  0.22958818051E+02 -0.13352642822E+02  0.53169121966E+02  0.47000000000E+01 0.  1.
          5    1    4    4  503    0 -0.26128373012E+02 -0.51281047554E+02 -0.90196335805E+02  0.10709765033E+03  0.47000000000E+01 0. -1.
         -5    1    3    3    0  502 -0.25846866928E+02  0.59346043297E+02 -0.11201853469E+03  0.12946140545E+03  0.47000000000E+01 0.  1.
<mgrwt>
<rscale>  0 0.11663048E+03</rscale>
<asrwt>0</asrwt>
<pdfrwt beam="1">  1        1 0.60588689E-02 0.12232354E+03</pdfrwt>
<pdfrwt beam="2">  1       -1 0.55949598E-01 0.12232354E+03</pdfrwt>
<totfact> 0.40329915E+03</totfact>
</mgrwt>
</event>
<event>
 8    1  0.3400573E-004  0.1025884E+03  0.7546771E-02  0.1275087E+00
          1   -1    0    0  501    0  0.00000000000E+00  0.00000000000E+00  0.89403954726E+03  0.89403954726E+03  0.00000000000E+00 0. -1.
         -1   -1    0    0    0  501 -0.00000000000E+00 -0.00000000000E+00 -0.12219002708E+02  0.12219002708E+02  0.00000000000E+00 0.  1.
         23    2    1    2    0    0  0.21636441222E+02  0.41265273507E+02  0.53121462079E+03  0.54102989583E+03  0.91397026495E+02 0.  0.
         23    2    1    2    0    0 -0.21636441222E+02 -0.41265273507E+02  0.35060592376E+03  0.36522865414E+03  0.91085112077E+02 0.  0.
          5    1    3    3  502    0  0.56061261552E+02  0.28648234263E+02  0.38901423994E+03  0.39410373666E+03  0.47000000000E+01 0. -1.
         -5    1    3    3    0  502 -0.34424820330E+02  0.12617039243E+02  0.14220038085E+03  0.14692615917E+03  0.47000000000E+01 0.  1.
          5    1    4    4  503    0  0.18264525483E+02 -0.34017465107E+02  0.28716313437E+03  0.28978532842E+03  0.47000000000E+01 0. -1.
         -5    1    4    4    0  503 -0.39900966705E+02 -0.72478083997E+01  0.63442789385E+02  0.75443325719E+02  0.47000000000E+01 0.  1.
<mgrwt>
<rscale>  0 0.10251886E+03</rscale>
<asrwt>0</asrwt>
<pdfrwt beam="1">  1        1 0.13754449E+00 0.10258838E+03</pdfrwt>
<pdfrwt beam="2">  1       -1 0.18798473E-02 0.10258838E+03</pdfrwt>
<totfact> 0.13596377E+04</totfact>
</mgrwt>
</event>
<event>
 8    1  0.3400573E-004  0.1531799E+03  0.7546771E-02  0.1196847E+00
          1   -1    0    0  501    0  0.00000000000E+00  0.00000000000E+00  0.79128155194E+03  0.79128155194E+03  0.00000000000E+00 0. -1.
         -1   -1    0    0    0  501 -0.00000000000E+00 -0.00000000000E+00 -0.29579051668E+02  0.29579051668E+02  0.00000000000E+00 0.  1.
         23    2    1    2    0    0  0.12188674787E+03  0.37296756704E+01  0.35951303074E+03  0.39048813552E+03  0.91438913600E+02 0.  0.
         23    2    1    2    0    0 -0.12188674787E+03 -0.37296756704E+01  0.40218946953E+03  0.43037246809E+03  0.92702762115E+02 0.  0.
          5    1    3    3  502    0  0.10599934668E+03  0.32324534828E+02  0.32161643263E+03  0.34020575654E+03  0.47000000000E+01 0. -1.
         -5    1    4    4    0  503 -0.76364187017E+02 -0.38053497548E+02  0.15858426215E+03  0.18014054496E+03  0.47000000000E+01 0.  1.
          5    1    4    4  503    0 -0.45522560848E+02  0.34323821877E+02  0.24360520738E+03  0.25023192314E+03  0.47000000000E+01 0. -1.
         -5    1    3    3    0  502  0.15887401190E+02 -0.28594859158E+02  0.37896598114E+02  0.50282378975E+02  0.47000000000E+01 0.  1.
<mgrwt>
<rscale>  0 0.15298919E+03</rscale>
<asrwt>0</asrwt>
<pdfrwt beam="1">  1        1 0.12173561E+00 0.15317993E+03</pdfrwt>
<pdfrwt beam="2">  1       -1 0.45506239E-02 0.15317993E+03</pdfrwt>
<totfact> 0.46463444E+03</totfact>
</mgrwt>
</event>
<event>
 8    1  0.3400573E-004  0.9509720E+02  0.7546771E-02  0.1291250E+00
          2   -1    0    0  501    0  0.00000000000E+00  0.00000000000E+00  0.40532470338E+02  0.40532470338E+02  0.00000000000E+00 0. -1.
         -2   -1    0    0    0  501 -0.00000000000E+00 -0.00000000000E+00 -0.37708280204E+03  0.37708280204E+03  0.00000000000E+00 0.  1.
         23    2    1    2    0    0 -0.20533969875E+02 -0.11210960300E+02 -0.30195599691E+03  0.31642117640E+03  0.91638459474E+02 0.  0.
         23    2    1    2    0    0  0.20533969875E+02  0.11210960300E+02 -0.34594334798E+02  0.10119409598E+03  0.92174549156E+02 0.  0.
          5    1    3    3  502    0 -0.51702973957E+02  0.17263868599E+01 -0.24151108865E+03  0.24703415527E+03  0.47000000000E+01 0. -1.
         -5    1    3    3    0  502  0.31169004082E+02 -0.12937347160E+02 -0.60444908252E+02  0.69387021125E+02  0.47000000000E+01 0.  1.
          5    1    4    4  503    0 -0.31944232481E+02 -0.77932740454E+01  0.35855096081E+01  0.33408307175E+02  0.47000000000E+01 0. -1.
         -5    1    4    4    0  503  0.52478202356E+02  0.19004234345E+02 -0.38179844407E+02  0.67785788809E+02  0.47000000000E+01 0.  1.
<mgrwt>
<rscale>  0 0.94967051E+02</rscale>
<asrwt>0</asrwt>
<pdfrwt beam="1">  1        2 0.62357646E-02 0.95097198E+02</pdfrwt>
<pdfrwt beam="2">  1       -2 0.58012739E-01 0.95097198E+02</pdfrwt>
<totfact> 0.31045444E+03</totfact>
</mgrwt>
</event>
<event>
 8    1  0.3400573E-004  0.9892832E+02  0.7546771E-02  0.1284689E+00
          2   -1    0    0  501    0  0.00000000000E+00  0.00000000000E+00  0.23027000477E+03  0.23027000477E+03  0.00000000000E+00 0. -1.
         -2   -1    0    0    0  501 -0.00000000000E+00 -0.00000000000E+00 -0.43655832036E+02  0.43655832036E+02  0.00000000000E+00 0.  1.
         23    2    1    2    0    0  0.27909066631E+02 -0.20206248621E+02  0.12630386880E+03  0.15806322192E+03  0.88566959798E+02 0.  0.
         23    2    1    2    0    0 -0.27909066631E+02  0.20206248621E+02  0.60310303934E+02  0.11586261488E+03  0.92734051368E+02 0.  0.
          5    1    4    4  502    0 -0.15514952621E+02 -0.34729253103E+02  0.41044721702E+02  0.56156869175E+02  0.47000000000E+01 0. -1.
         -5    1    4    4    0  502 -0.12394114009E+02  0.54935501724E+02  0.19265582233E+02  0.59705745707E+02  0.47000000000E+01 0.  1.
          5    1    3    3  503    0  0.51828446888E+02 -0.28886679262E+02  0.11567318509E+03  0.13008844643E+03  0.47000000000E+01 0. -1.
         -5    1    3    3    0  503 -0.23919380257E+02  0.86804306411E+01  0.10630683714E+02  0.27974775499E+02  0.47000000000E+01 0.  1.
<mgrwt>
<rscale>  0 0.97939832E+02</rscale>
<asrwt>0</asrwt>
<pdfrwt beam="1">  1        2 0.35426154E-01 0.98928321E+02</pdfrwt>
<pdfrwt beam="2">  1       -2 0.67162820E-02 0.98928321E+02</pdfrwt>
<totfact> 0.16458725E+04</totfact>
</mgrwt>
</event>
<event>
 8    1  0.3400573E-004  0.1125617E+03  0.7546771E-02  0.1260837E+00
          1   -1    0    0  501    0  0.00000000000E+00  0.00000000000E+00  0.16569910482E+03  0.16569910482E+03  0.00000000000E+00 0. -1.
         -1   -1    0    0    0  501 -0.00000000000E+00 -0.00000000000E+00 -0.93926295239E+02  0.93926295239E+02  0.00000000000E+00 0.  1.
         23    2    1    2    0    0 -0.42992477113E+02  0.67080106027E+00  0.10068461288E+03  0.14340999626E+03  0.92629545466E+02 0.  0.
         23    2    1    2    0    0  0.42992477113E+02 -0.67080106027E+00 -0.28911803296E+02  0.11621540380E+03  0.10402559613E+03 0.  0.
          5    1    4    4  502    0  0.50187229413E+02 -0.33679481577E+02  0.13179149887E+02  0.62039064042E+02  0.47000000000E+01 0. -1.
         -5    1    4    4    0  502 -0.71947523007E+01  0.33008680517E+02 -0.42090953184E+02  0.54176339762E+02  0.47000000000E+01 0.  1.
          5    1    3    3  503    0 -0.47861651421E+02 -0.19957150026E+02  0.10849155780E+03  0.12033924392E+03  0.47000000000E+01 0. -1.
         -5    1    3    3    0  503  0.48691743079E+01  0.20627951086E+02 -0.78069449180E+01  0.23070752337E+02  0.47000000000E+01 0.  1.
<mgrwt>
<rscale>  0 0.10985590E+03</rscale>
<asrwt>0</asrwt>
<pdfrwt beam="1">  1        1 0.25492170E-01 0.11256166E+03</pdfrwt>
<pdfrwt beam="2">  1       -1 0.14450199E-01 0.11256166E+03</pdfrwt>
<totfact> 0.59808216E+03</totfact>
</mgrwt>
</event>
<event>
 8    1  0.3400573E-004  0.1111509E+03  0.7546771E-02  0.1259027E+00
         -2   -1    0    0    0  501 -0.00000000000E+00  0.00000000000E+00  0.22589467345E+02  0.22589467345E+02  0.00000000000E+00 0.  1.
          2   -1    0    0  501    0  0.00000000000E+00 -0.00000000000E+00 -0.88264621208E+03  0.88264621208E+03  0.00000000000E+00 0. -1.
         23    2    1    2    0    0  0.29694946081E+02 -0.57818558667E+02 -0.71022130114E+03  0.71867420995E+03  0.88620245465E+02 0.  0.
         23    2    1    2    0    0 -0.29694946081E+02  0.57818558667E+02 -0.14983544360E+03  0.18656146948E+03  0.90165105146E+02 0.  0.
          5    1    4    4  502    0  0.21971047488E+01 -0.22125523612E+02 -0.48242068492E+02  0.53326852867E+02  0.47000000000E+01 0. -1.
         -5    1    3    3    0  503  0.57984293210E+02 -0.28793358130E+02 -0.33416929312E+03  0.34041510278E+03  0.47000000000E+01 0.  1.
          5    1    3    3  503    0 -0.28289347129E+02 -0.29025200537E+02 -0.37605200801E+03  0.37825910717E+03  0.47000000000E+01 0. -1.
         -5    1    4    4    0  502 -0.31892050830E+02  0.79944082279E+02 -0.10159337510E+03  0.13323461661E+03  0.47000000000E+01 0.  1.
<mgrwt>
<rscale>  0 0.11083720E+03</rscale>
<asrwt>0</asrwt>
<pdfrwt beam="1">  1        2 0.13579174E+00 0.11115090E+03</pdfrwt>
<pdfrwt beam="2">  1       -2 0.34753023E-02 0.11115090E+03</pdfrwt>
<totfact> 0.10064758E+04</totfact>
</mgrwt>
</event>
<event>
 8    1  0.3400573E-004  0.1119238E+03  0.7546771E-02  0.1261084E+00
          1   -1    0    0  501    0  0.00000000000E+00  0.00000000000E+00  0.47016996672E+02  0.47016996672E+02  0.00000000000E+00 0. -1.
         -1   -1    0    0    0  501 -0.00000000000E+00 -0.00000000000E+00 -0.27311685255E+03  0.27311685255E+03  0.00000000000E+00 0.  1.
         23    2    1    2    0    0 -0.38687598907E+02 -0.53841678017E+02 -0.67143177568E+02  0.13051874258E+03  0.90173606278E+02 0.  0.
         23    2    1    2    0    0  0.38687598907E+02  0.53841678017E+02 -0.15895667831E+03  0.18961510665E+03  0.79315865296E+02 0.  0.
          5    1    4    4  502    0  0.61648724316E+01  0.62524482150E+02 -0.68923978627E+02  0.93380519114E+02  0.47000000000E+01 0. -1.
         -5    1    4    4    0  502  0.32522726475E+02 -0.86828041327E+01 -0.90032699686E+02  0.96234587533E+02  0.47000000000E+01 0.  1.
          5    1    3    3  503    0 -0.18110105069E+02 -0.30299746667E+02  0.17850402919E+02  0.39834375081E+02  0.47000000000E+01 0. -1.
         -5    1    3    3    0  503 -0.20577493837E+02 -0.23541931350E+02 -0.84993580487E+02  0.90684367497E+02  0.47000000000E+01 0.  1.
<mgrwt>
<rscale>  0 0.10972285E+03</rscale>
<asrwt>0</asrwt>
<pdfrwt beam="1">  1        1 0.72333840E-02 0.11192379E+03</pdfrwt>
<pdfrwt beam="2">  1       -1 0.42017978E-01 0.11192379E+03</pdfrwt>
<totfact> 0.53001035E+03</totfact>
</mgrwt>
</event>
<event>
 8    1  0.3400573E-004  0.1049584E+03  0.7546771E-02  0.1271271E+00
         -1   -1    0    0    0  501 -0.00000000000E+00  0.00000000000E+00  0.40026664824E+02  0.40026664824E+02  0.00000000000E+00 0.  1.
          1   -1    0    0  501    0  0.00000000000E+00 -0.00000000000E+00 -0.36596145057E+03  0.36596145057E+03  0.00000000000E+00 0. -1.
         23    2    1    2    0    0 -0.51502318967E+02 -0.74510432534E+01 -0.60061546968E+02  0.12092829858E+03  0.91149641084E+02 0.  0.
         23    2    1    2    0    0  0.51502318967E+02  0.74510432534E+01 -0.26587323878E+03  0.28505981681E+03  0.88670813446E+02 0.  0.
          5    1    3    3  502    0 -0.68441609492E+01 -0.27699209370E+02 -0.65276048789E+02  0.71394266467E+02  0.47000000000E+01 0. -1.
         -5    1    4    4    0  503  0.20730202520E+02  0.78096730753E+01 -0.61340115256E+01  0.23461636504E+02  0.47000000000E+01 0.  1.
          5    1    4    4  503    0  0.30772116447E+02 -0.35862982194E+00 -0.25973922725E+03  0.26159818031E+03  0.47000000000E+01 0. -1.
         -5    1    3    3    0  502 -0.44658158018E+02  0.20248166117E+02  0.52145018203E+01  0.49534032118E+02  0.47000000000E+01 0.  1.
<mgrwt>
<rscale>  0 0.10441789E+03</rscale>
<asrwt>0</asrwt>
<pdfrwt beam="1">  1        1 0.56301762E-01 0.10495839E+03</pdfrwt>
<pdfrwt beam="2">  1       -1 0.61579484E-02 0.10495839E+03</pdfrwt>
<totfact> 0.81518430E+03</totfact>
</mgrwt>
</event>
<event>
 8    1  0.3400573E-004  0.1484622E+03  0.7546771E-02  0.1203022E+00
         -1   -1    0    0    0  501 -0.00000000000E+00  0.00000000000E+00  0.63250790206E+02  0.63250790206E+02  0.00000000000E+00 0.  1.
          1   -1    0    0  501    0  0.00000000000E+00 -0.00000000000E+00 -0.61663088048E+03  0.61663088048E+03  0.00000000000E+00 0. -1.
         23    2    1    2    0    0 -0.10294654329E+03 -0.56779102983E+02 -0.50394356707E+03  0.52535714863E+03  0.90659569348E+02 0.  0.
         23    2    1    2    0    0  0.10294654329E+03  0.56779102983E+02 -0.49436523204E+02  0.15452452206E+03  0.87246780910E+02 0.  0.
          5    1    3    3  502    0 -0.87176170260E+02 -0.29837976776E+01 -0.23789449656E+03  0.25342547071E+03  0.47000000000E+01 0. -1.
         -5    1    3    3    0  502 -0.15770373029E+02 -0.53795305306E+02 -0.26604907051E+03  0.27193167792E+03  0.47000000000E+01 0.  1.
          5    1    4    4  503    0  0.28954982248E+02  0.30047215668E+02 -0.61832079194E+02  0.74743041040E+02  0.47000000000E+01 0. -1.
         -5    1    4    4    0  503  0.73991561041E+02  0.26731887316E+02  0.12395555991E+02  0.79781481016E+02  0.47000000000E+01 0.  1.
<mgrwt>
<rscale>  0 0.14794469E+03</rscale>
<asrwt>0</asrwt>
<pdfrwt beam="1">  1        1 0.94866288E-01 0.14846217E+03</pdfrwt>
<pdfrwt beam="2">  1       -1 0.97308909E-02 0.14846217E+03</pdfrwt>
<totfact> 0.21220165E+03</totfact>
</mgrwt>
</event>
<event>
 8    1  0.3400573E-004  0.1047845E+03  0.7546771E-02  0.1271112E+00
          2   -1    0    0  501    0  0.00000000000E+00  0.00000000000E+00  0.41296086323E+02  0.41296086323E+02  0.00000000000E+00 0. -1.
         -2   -1    0    0    0  501 -0.00000000000E+00 -0.00000000000E+00 -0.28395871984E+03  0.28395871984E+03  0.00000000000E+00 0.  1.
         23    2    1    2    0    0  0.50558323597E+02  0.61523154435E+01 -0.76525651314E+02  0.12883361592E+03  0.90265886204E+02 0.  0.
         23    2    1    2    0    0 -0.50558323597E+02 -0.61523154435E+01 -0.16613698220E+03  0.19642119024E+03  0.91573970373E+02 0.  0.
          5    1    4    4  502    0 -0.46997632014E+01 -0.30257358666E+02 -0.11129305922E+02  0.32917274764E+02  0.47000000000E+01 0. -1.
         -5    1    3    3    0  503  0.24534011127E+02  0.42354620586E+02 -0.12612587417E+02  0.50764150227E+02  0.47000000000E+01 0.  1.
          5    1    3    3  503    0  0.26024312471E+02 -0.36202305142E+02 -0.63913063896E+02  0.78069465694E+02  0.47000000000E+01 0. -1.
         -5    1    4    4    0  502 -0.45858560396E+02  0.24105043222E+02 -0.15500767628E+03  0.16350391547E+03  0.47000000000E+01 0.  1.
<mgrwt>
<rscale>  0 0.10449800E+03</rscale>
<asrwt>0</asrwt>
<pdfrwt beam="1">  1        2 0.63532437E-02 0.10478448E+03</pdfrwt>
<pdfrwt beam="2">  1       -2 0.43685960E-01 0.10478448E+03</pdfrwt>
<totfact> 0.53410011E+03</totfact>
</mgrwt>
</event>
<event>
 8    1  0.3400573E-004  0.1073124E+03  0.7546771E-02  0.1266189E+00
         -1   -1    0    0    0  501 -0.00000000000E+00  0.00000000000E+00  0.73375048653E+02  0.73375048653E+02  0.00000000000E+00 0.  1.
          1   -1    0    0  501    0  0.00000000000E+00 -0.00000000000E+00 -0.17713838093E+03  0.17713838093E+03  0.00000000000E+00 0. -1.
         23    2    1    2    0    0 -0.54207532405E+02 -0.23128061345E+00 -0.95662202197E+02  0.14289564493E+03  0.91265537585E+02 0.  0.
         23    2    1    2    0    0  0.54207532405E+02  0.23128061345E+00 -0.81011300829E+01  0.10761778466E+03  0.92614519409E+02 0.  0.
          5    1    3    3  502    0  0.16285941652E+02  0.18593779762E+02 -0.37329539030E+01  0.25435909384E+02  0.47000000000E+01 0. -1.
         -5    1    3    3    0  502 -0.70493474057E+02 -0.18825060376E+02 -0.91929248294E+02  0.11745973555E+03  0.47000000000E+01 0.  1.
          5    1    4    4  503    0  0.28663025651E+02  0.26248914059E+02 -0.42137927999E+02  0.57517558230E+02  0.47000000000E+01 0. -1.
         -5    1    4    4    0  503  0.25544506755E+02 -0.26017633446E+02  0.34036797916E+02  0.50100226425E+02  0.47000000000E+01 0.  1.
<mgrwt>
<rscale>  0 0.10702074E+03</rscale>
<asrwt>0</asrwt>
<pdfrwt beam="1">  1        1 0.27252058E-01 0.10731244E+03</pdfrwt>
<pdfrwt beam="2">  1       -1 0.11288469E-01 0.10731244E+03</pdfrwt>
<totfact> 0.80238194E+03</totfact>
</mgrwt>
</event>
<event>
 8    1  0.3400573E-004  0.9766232E+02  0.7546771E-02  0.1287828E+00
          2   -1    0    0  501    0  0.00000000000E+00  0.00000000000E+00  0.37338263461E+03  0.37338263461E+03  0.00000000000E+00 0. -1.
         -2   -1    0    0    0  501 -0.00000000000E+00 -0.00000000000E+00 -0.24615970595E+02  0.24615970595E+02  0.00000000000E+00 0.  1.
         23    2    1    2    0    0 -0.88004188254E+01 -0.31840079954E+02  0.19854538846E+03  0.22126500089E+03  0.91905882703E+02 0.  0.
         23    2    1    2    0    0  0.88004188254E+01  0.31840079954E+02  0.15022127556E+03  0.17673360432E+03  0.87046523212E+02 0.  0.
          5    1    3    3  502    0  0.38364526958E+02 -0.22245887282E+02  0.12953620280E+03  0.13699793526E+03  0.47000000000E+01 0. -1.
         -5    1    3    3    0  502 -0.47164945783E+02 -0.95941926716E+01  0.69009185662E+02  0.84267065628E+02  0.47000000000E+01 0.  1.
          5    1    4    4  503    0  0.11410390981E+02  0.60384206219E+02  0.11948631664E+03  0.13444522768E+03  0.47000000000E+01 0. -1.
         -5    1    4    4    0  503 -0.26099721555E+01 -0.28544126265E+02  0.30734958919E+02  0.42288376638E+02  0.47000000000E+01 0.  1.
<mgrwt>
<rscale>  0 0.96502208E+02</rscale>
<asrwt>0</asrwt>
<pdfrwt beam="1">  1        2 0.57443478E-01 0.97662323E+02</pdfrwt>
<pdfrwt beam="2">  1       -2 0.37870727E-02 0.97662323E+02</pdfrwt>
<totfact> 0.23231618E+04</totfact>
</mgrwt>
</event>
<event>
 8    1  0.3400573E-004  0.1099816E+03  0.7546771E-02  0.1260749E+00
          3   -1    0    0  501    0  0.00000000000E+00  0.00000000000E+00  0.90604961154E+02  0.90604961154E+02  0.00000000000E+00 0. -1.
         -3   -1    0    0    0  501 -0.00000000000E+00 -0.00000000000E+00 -0.13981056214E+03  0.13981056214E+03  0.00000000000E+00 0.  1.
         23    2    1    2    0    0  0.53638488181E+02 -0.23020900557E+02 -0.49834967502E+02  0.12074546998E+03  0.93214243852E+02 0.  0.
         23    2    1    2    0    0 -0.53638488181E+02  0.23020900557E+02  0.62936651487E+00  0.10967005332E+03  0.92844360174E+02 0.  0.
          5    1    3    3  502    0 -0.18486218534E+02  0.17894465481E+02 -0.18228800487E+02  0.31879951972E+02  0.47000000000E+01 0. -1.
         -5    1    4    4    0  503 -0.43047191675E+01  0.47580704500E+02 -0.18057374097E+02  0.51289499969E+02  0.47000000000E+01 0.  1.
          5    1    4    4  503    0 -0.49333769014E+02 -0.24559803943E+02  0.18686740612E+02  0.58380553350E+02  0.47000000000E+01 0. -1.
         -5    1    3    3    0  502  0.72124706715E+02 -0.40915366038E+02 -0.31606167015E+02  0.88865518004E+02  0.47000000000E+01 0.  1.
<mgrwt>
<rscale>  0 0.10990315E+03</rscale>
<asrwt>0</asrwt>
<pdfrwt beam="1">  1        3 0.13939225E-01 0.10998156E+03</pdfrwt>
<pdfrwt beam="2">  1       -3 0.21509317E-01 0.10998156E+03</pdfrwt>
<totfact> 0.18333815E+03</totfact>
</mgrwt>
</event>
<event>
 8    1  0.3400573E-004  0.1229107E+03  0.7546771E-02  0.1238707E+00
         -2   -1    0    0    0  501 -0.00000000000E+00  0.00000000000E+00  0.17953134117E+03  0.17953134117E+03  0.00000000000E+00 0.  1.
          2   -1    0    0  501    0  0.00000000000E+00 -0.00000000000E+00 -0.88131806305E+02  0.88131806305E+02  0.00000000000E+00 0. -1.
         23    2    1    2    0    0  0.32767967630E+01  0.84225378141E+02  0.15414275035E+02  0.12387352127E+03  0.89456121521E+02 0.  0.
         23    2    1    2    0    0 -0.32767967630E+01 -0.84225378141E+02  0.75985259833E+02  0.14378962621E+03  0.88300878662E+02 0.  0.
          5    1    4    4  502    0  0.30445389254E+02 -0.74994718506E+02  0.71739380055E+02  0.10825783196E+03  0.47000000000E+01 0. -1.
         -5    1    4    4    0  502 -0.33722186016E+02 -0.92306596354E+01  0.42458797774E+01  0.35531794243E+02  0.47000000000E+01 0.  1.
          5    1    3    3  503    0 -0.66043311992E+01  0.31316608327E+02 -0.36620689841E+02  0.48862174247E+02  0.47000000000E+01 0. -1.
         -5    1    3    3    0  503  0.98811279622E+01  0.52908769814E+02  0.52034964875E+02  0.75011347026E+02  0.47000000000E+01 0.  1.
<mgrwt>
<rscale>  0 0.12270064E+03</rscale>
<asrwt>0</asrwt>
<pdfrwt beam="1">  1        2 0.13558739E-01 0.12291074E+03</pdfrwt>
<pdfrwt beam="2">  1       -2 0.27620206E-01 0.12291074E+03</pdfrwt>
<totfact> 0.49487129E+03</totfact>
</mgrwt>
</event>
<event>
 8    1  0.3400573E-004  0.1061695E+03  0.7546771E-02  0.1268232E+00
          2   -1    0    0  501    0  0.00000000000E+00  0.00000000000E+00  0.11384590587E+03  0.11384590587E+03  0.00000000000E+00 0. -1.
         -2   -1    0    0    0  501 -0.00000000000E+00 -0.00000000000E+00 -0.11483836597E+03  0.11483836597E+03  0.00000000000E+00 0.  1.
         23    2    1    2    0    0  0.46523656167E+02 -0.21301803646E+02  0.42963132918E+02  0.11453296433E+03  0.93025543304E+02 0.  0.
         23    2    1    2    0    0 -0.46523656167E+02  0.21301803646E+02 -0.43955593022E+02  0.11415130751E+03  0.92088052575E+02 0.  0.
          5    1    4    4  502    0  0.67430855064E+01  0.44007751749E+02 -0.31489412278E+02  0.54734125569E+02  0.47000000000E+01 0. -1.
         -5    1    3    3    0  503  0.54775531636E+02 -0.50238794847E+02  0.22342415042E+02  0.77753256418E+02  0.47000000000E+01 0.  1.
          5    1    3    3  503    0 -0.82518754697E+01  0.28936991201E+02  0.20620717875E+02  0.36779707914E+02  0.47000000000E+01 0. -1.
         -5    1    4    4    0  502 -0.53266741673E+02 -0.22705948103E+02 -0.12466180744E+02  0.59417181943E+02  0.47000000000E+01 0.  1.
<mgrwt>
<rscale>  0 0.10596382E+03</rscale>
<asrwt>0</asrwt>
<pdfrwt beam="1">  1        2 0.17514755E-01 0.10616953E+03</pdfrwt>
<pdfrwt beam="2">  1       -2 0.17667441E-01 0.10616953E+03</pdfrwt>
<totfact> 0.78052916E+03</totfact>
</mgrwt>
</event>
<event>
 8    1  0.3400573E-004  0.9496239E+02  0.7546771E-02  0.1292329E+00
         -2   -1    0    0    0  501 -0.00000000000E+00  0.00000000000E+00  0.26826966292E+02  0.26826966292E+02  0.00000000000E+00 0.  1.
          2   -1    0    0  501    0  0.00000000000E+00 -0.00000000000E+00 -0.57209280564E+03  0.57209280564E+03  0.00000000000E+00 0. -1.
         23    2    1    2    0    0 -0.41310267387E+01  0.11924567212E+02 -0.76084140411E+02  0.12022433353E+03  0.92227074466E+02 0.  0.
         23    2    1    2    0    0  0.41310267387E+01 -0.11924567212E+02 -0.46918169894E+03  0.47869543841E+03  0.94120111816E+02 0.  0.
          5    1    4    4  502    0 -0.13597751892E+02  0.33450073261E+02 -0.10277974359E+03  0.10903931379E+03  0.47000000000E+01 0. -1.
         -5    1    4    4    0  502  0.17728778631E+02 -0.45374640473E+02 -0.36640195534E+03  0.36965612462E+03  0.47000000000E+01 0.  1.
          5    1    3    3  503    0  0.29326351161E+02  0.39121783544E+02 -0.47150158479E+02  0.68086535120E+02  0.47000000000E+01 0. -1.
         -5    1    3    3    0  503 -0.33457377900E+02 -0.27197216332E+02 -0.28933981932E+02  0.52137798406E+02  0.47000000000E+01 0.  1.
<mgrwt>
<rscale>  0 0.94489902E+02</rscale>
<asrwt>0</asrwt>
<pdfrwt beam="1">  1        2 0.88014276E-01 0.94962393E+02</pdfrwt>
<pdfrwt beam="2">  1       -2 0.41272257E-02 0.94962393E+02</pdfrwt>
<totfact> 0.12909782E+04</totfact>
</mgrwt>
</event>
<event>
 8    1  0.3400573E-004  0.9311747E+02  0.7546771E-02  0.1297033E+00
         -1   -1    0    0    0  501 -0.00000000000E+00  0.00000000000E+00  0.18081405135E+02  0.18081405135E+02  0.00000000000E+00 0.  1.
          1   -1    0    0  501    0  0.00000000000E+00 -0.00000000000E+00 -0.47060226365E+03  0.47060226365E+03  0.00000000000E+00 0. -1.
         23    2    1    2    0    0  0.15020325526E+02  0.10535161749E+00 -0.19877117731E+03  0.21838797043E+03  0.89205960672E+02 0.  0.
         23    2    1    2    0    0 -0.15020325526E+02 -0.10535161749E+00 -0.25374968120E+03  0.27029569835E+03  0.91898000862E+02 0.  0.
          5    1    4    4  502    0 -0.44058994932E+02  0.28002095025E+02 -0.14039568806E+03  0.14986110765E+03  0.47000000000E+01 0.  1.
         -5    1    3    3    0  503  0.17125473086E+02 -0.38206580145E+02 -0.15188786936E+03  0.15762309302E+03  0.47000000000E+01 0.  1.
          5    1    3    3  503    0 -0.21051475604E+01  0.38311931762E+02 -0.46883307950E+02  0.60764877404E+02  0.47000000000E+01 0. -1.
         -5    1    4    4    0  502  0.29038669406E+02 -0.28107446643E+02 -0.11335399313E+03  0.12043459070E+03  0.47000000000E+01 0. -1.
<mgrwt>
<rscale>  0 0.92446316E+02</rscale>
<asrwt>0</asrwt>
<pdfrwt beam="1">  1        1 0.72400343E-01 0.93117473E+02</pdfrwt>
<pdfrwt beam="2">  1       -1 0.27817548E-02 0.93117473E+02</pdfrwt>
<totfact> 0.18754183E+04</totfact>
</mgrwt>
</event>
<event>
 8    1  0.3400573E-004  0.1040854E+03  0.7546771E-02  0.1273664E+00
          2   -1    0    0  501    0  0.00000000000E+00  0.00000000000E+00  0.81354703029E+03  0.81354703029E+03  0.00000000000E+00 0. -1.
         -2   -1    0    0    0  501 -0.00000000000E+00 -0.00000000000E+00 -0.13226966683E+02  0.13226966683E+02  0.00000000000E+00 0.  1.
         23    2    1    2    0    0 -0.36811107171E+02 -0.26061692021E+02  0.32705572482E+03  0.34219901679E+03  0.90002503045E+02 0.  0.
         23    2    1    2    0    0  0.36811107171E+02  0.26061692021E+02  0.47326433878E+03  0.48457498018E+03  0.93805690905E+02 0.  0.
          5    1    4    4  502    0  0.34565091341E+02 -0.16032362341E+02  0.38213142562E+03  0.38405507239E+03  0.47000000000E+01 0. -1.
         -5    1    3    3    0  503 -0.38558775785E+02  0.21727601332E+02  0.22548181552E+03  0.22983256292E+03  0.47000000000E+01 0.  1.
          5    1    3    3  503    0  0.17476686141E+01 -0.47789293353E+02  0.10157390930E+03  0.11236645387E+03  0.47000000000E+01 0. -1.
         -5    1    4    4    0  502  0.22460158296E+01  0.42094054362E+02  0.91132913162E+02  0.10051990779E+03  0.47000000000E+01 0.  1.
<mgrwt>
<rscale>  0 0.10322121E+03</rscale>
<asrwt>0</asrwt>
<pdfrwt beam="1">  1        2 0.12516104E+00 0.10408543E+03</pdfrwt>
<pdfrwt beam="2">  1       -2 0.20349186E-02 0.10408543E+03</pdfrwt>
<totfact> 0.24181509E+04</totfact>
</mgrwt>
</event>
<event>
 8    1  0.3400573E-004  0.1002328E+03  0.7546771E-02  0.1283510E+00
          1   -1    0    0  501    0  0.00000000000E+00  0.00000000000E+00  0.28936420309E+03  0.28936420309E+03  0.00000000000E+00 0. -1.
         -1   -1    0    0    0  501 -0.00000000000E+00 -0.00000000000E+00 -0.32494498994E+02  0.32494498994E+02  0.00000000000E+00 0.  1.
         23    2    1    2    0    0 -0.65717566782E+01  0.57664981320E+01  0.13246645199E+03  0.16210020924E+03  0.93019763742E+02 0.  0.
         23    2    1    2    0    0  0.65717566782E+01 -0.57664981320E+01  0.12440325210E+03  0.15975849284E+03  0.99850720648E+02 0.  0.
          5    1    3    3  502    0  0.20467348730E+02 -0.30421832709E+02  0.99021921787E+02  0.10569688389E+03  0.47000000000E+01 0. -1.
         -5    1    3    3    0  502 -0.27039105409E+02  0.36188330841E+02  0.33444530205E+02  0.56403325354E+02  0.47000000000E+01 0.  1.
          5    1    4    4  503    0 -0.20982666824E+02 -0.44297316877E+02  0.42587075403E+02  0.65102024400E+02  0.47000000000E+01 0. -1.
         -5    1    4    4    0  503  0.27554423502E+02  0.38530818745E+02  0.81816176699E+02  0.94656468439E+02  0.47000000000E+01 0.  1.
<mgrwt>
<rscale>  0 0.98486923E+02</rscale>
<asrwt>0</asrwt>
<pdfrwt beam="1">  1        1 0.44517568E-01 0.10023276E+03</pdfrwt>
<pdfrwt beam="2">  1       -1 0.49991539E-02 0.10023276E+03</pdfrwt>
<totfact> 0.14741346E+04</totfact>
</mgrwt>
</event>
<event>
 8    1  0.3400573E-004  0.1101789E+03  0.7546771E-02  0.1263446E+00
          1   -1    0    0  501    0  0.00000000000E+00  0.00000000000E+00  0.13050007605E+03  0.13050007605E+03  0.00000000000E+00 0. -1.
         -1   -1    0    0    0  501 -0.00000000000E+00 -0.00000000000E+00 -0.88946600569E+02  0.88946600569E+02  0.00000000000E+00 0.  1.
         23    2    1    2    0    0 -0.53249924051E+02  0.13194522581E+02  0.58711583524E+01  0.10363384736E+03  0.87726016558E+02 0.  0.
         23    2    1    2    0    0  0.53249924051E+02 -0.13194522581E+02  0.35682317131E+02  0.11581282926E+03  0.95549640647E+02 0.  0.
          5    1    3    3  502    0 -0.37091082771E+01  0.31065640379E+02  0.31701089398E+02  0.44787058012E+02  0.47000000000E+01 0. -1.
         -5    1    3    3    0  502 -0.49540815774E+02 -0.17871117799E+02 -0.25829931045E+02  0.58846789350E+02  0.47000000000E+01 0.  1.
          5    1    4    4  503    0  0.22949230147E+02 -0.52203982230E+02  0.33154297279E+02  0.66130328542E+02  0.47000000000E+01 0. -1.
         -5    1    4    4    0  503  0.30300693904E+02  0.39009459650E+02  0.25280198526E+01  0.49682500718E+02  0.47000000000E+01 0.  1.
<mgrwt>
<rscale>  0 0.10846126E+03</rscale>
<asrwt>0</asrwt>
<pdfrwt beam="1">  1        1 0.20076935E-01 0.11017887E+03</pdfrwt>
<pdfrwt beam="2">  1       -1 0.13684092E-01 0.11017887E+03</pdfrwt>
<totfact> 0.87675110E+03</totfact>
</mgrwt>
</event>
<event>
 8    1  0.3400573E-004  0.9238563E+02  0.7546771E-02  0.1297344E+00
          3   -1    0    0  501    0  0.00000000000E+00  0.00000000000E+00  0.22161575052E+03  0.22161575052E+03  0.00000000000E+00 0. -1.
         -3   -1    0    0    0  501 -0.00000000000E+00 -0.00000000000E+00 -0.22244720895E+03  0.22244720895E+03  0.00000000000E+00 0.  1.
         23    2    1    2    0    0  0.10931745181E+02 -0.61508497551E+01 -0.20237965115E+03  0.22246938571E+03  0.91530150086E+02 0.  0.
         23    2    1    2    0    0 -0.10931745181E+02  0.61508497551E+01  0.20154819272E+03  0.22159357375E+03  0.91239804548E+02 0.  0.
          5    1    4    4  502    0 -0.49334981852E+02 -0.91470559566E+01  0.11547411011E+03  0.12599194091E+03  0.47000000000E+01 0. -1.
         -5    1    3    3    0  503 -0.22549426216E+02 -0.17441117067E+02 -0.17540441485E+03  0.17776801720E+03  0.47000000000E+01 0.  1.
          5    1    3    3  503    0  0.33481171397E+02  0.11290267312E+02 -0.26975236294E+02  0.44701368516E+02  0.47000000000E+01 0. -1.
         -5    1    4    4    0  502  0.38403236671E+02  0.15297905712E+02  0.86074082608E+02  0.95601632846E+02  0.47000000000E+01 0.  1.
<mgrwt>
<rscale>  0 0.92313632E+02</rscale>
<asrwt>0</asrwt>
<pdfrwt beam="1">  1        3 0.34094731E-01 0.92385629E+02</pdfrwt>
<pdfrwt beam="2">  1       -3 0.34222647E-01 0.92385629E+02</pdfrwt>
<totfact> 0.15764309E+02</totfact>
</mgrwt>
</event>
<event>
 8    1  0.3400573E-004  0.1732951E+03  0.7546771E-02  0.1174632E+00
         -1   -1    0    0    0  501 -0.00000000000E+00  0.00000000000E+00  0.14300709758E+03  0.14300709758E+03  0.00000000000E+00 0.  1.
          1   -1    0    0  501    0  0.00000000000E+00 -0.00000000000E+00 -0.87665851584E+03  0.87665851584E+03  0.00000000000E+00 0. -1.
         23    2    1    2    0    0 -0.11043873387E+03  0.96622224261E+02  0.78228093179E+02  0.18949723691E+03  0.90868036581E+02 0.  0.
         23    2    1    2    0    0  0.11043873387E+03 -0.96622224261E+02 -0.81187951145E+03  0.83016837651E+03  0.92187982386E+02 0.  0.
          5    1    3    3  502    0 -0.56438275472E+02  0.85259100545E+01 -0.39240417485E+01  0.57406081421E+02  0.47000000000E+01 0. -1.
         -5    1    3    3    0  502 -0.54000458403E+02  0.88096314207E+02  0.82152134928E+02  0.13209115549E+03  0.47000000000E+01 0.  1.
          5    1    4    4  503    0  0.39365411894E+02 -0.93856941369E+02 -0.46197383365E+03  0.47307575934E+03  0.47000000000E+01 0. -1.
         -5    1    4    4    0  503  0.71073321980E+02 -0.27652828921E+01 -0.34990567780E+03  0.35709261718E+03  0.47000000000E+01 0.  1.
<mgrwt>
<rscale>  0 0.17312020E+03</rscale>
<asrwt>0</asrwt>
<pdfrwt beam="1">  1        1 0.13487054E+00 0.17329510E+03</pdfrwt>
<pdfrwt beam="2">  1       -1 0.22001093E-01 0.17329510E+03</pdfrwt>
<totfact> 0.35041425E+02</totfact>
</mgrwt>
</event>
<event>
 8    1  0.3400573E-004  0.1331738E+03  0.7546771E-02  0.1223036E+00
          3   -1    0    0  501    0  0.00000000000E+00  0.00000000000E+00  0.38706798999E+02  0.38706798999E+02  0.00000000000E+00 0. -1.
         -3   -1    0    0    0  501 -0.00000000000E+00 -0.00000000000E+00 -0.49863828211E+03  0.49863828211E+03  0.00000000000E+00 0.  1.
         23    2    1    2    0    0 -0.90191222092E+02 -0.34353357958E+02 -0.15105676852E+03  0.20098389340E+03  0.90894270157E+02 0.  0.
         23    2    1    2    0    0  0.90191222092E+02  0.34353357958E+02 -0.30887471459E+03  0.33636118771E+03  0.91764097200E+02 0.  0.
          5    1    3    3  502    0 -0.97021876168E+02  0.98731570116E-01 -0.11140685303E+03  0.14780673566E+03  0.47000000000E+01 0. -1.
         -5    1    4    4    0  503  0.54012657468E+02 -0.14972495427E+02 -0.22807801819E+03  0.23491107928E+03  0.47000000000E+01 0.  1.
          5    1    4    4  503    0  0.36178564623E+02  0.49325853385E+02 -0.80796696399E+02  0.10145010842E+03  0.47000000000E+01 0. -1.
         -5    1    3    3    0  502  0.68306540768E+01 -0.34452089528E+02 -0.39649915487E+02  0.53177157747E+02  0.47000000000E+01 0.  1.
<mgrwt>
<rscale>  0 0.13302408E+03</rscale>
<asrwt>0</asrwt>
<pdfrwt beam="1">  1        3 0.59548921E-02 0.13317379E+03</pdfrwt>
<pdfrwt beam="2">  1       -3 0.76713582E-01 0.13317379E+03</pdfrwt>
<totfact> 0.64983023E+02</totfact>
</mgrwt>
</event>
<event>
 8    1  0.3400573E-004  0.1350477E+03  0.7546771E-02  0.1220470E+00
          1   -1    0    0  501    0  0.00000000000E+00  0.00000000000E+00  0.15468705246E+03  0.15468705246E+03  0.00000000000E+00 0. -1.
         -1   -1    0    0    0  501 -0.00000000000E+00 -0.00000000000E+00 -0.12532049131E+03  0.12532049131E+03  0.00000000000E+00 0.  1.
         23    2    1    2    0    0  0.13309365411E+02  0.97909953247E+02 -0.21177245454E+02  0.13581126940E+03  0.90734376162E+02 0.  0.
         23    2    1    2    0    0 -0.13309365411E+02 -0.97909953247E+02  0.50543806606E+02  0.14419627437E+03  0.92056455525E+02 0.  0.
          5    1    4    4  502    0  0.42331667635E+01 -0.10897063626E+03  0.55364902969E+02  0.12239232716E+03  0.47000000000E+01 0. -1.
         -5    1    4    4    0  502 -0.17542532175E+02  0.11060683011E+02 -0.48210963627E+01  0.21803947209E+02  0.47000000000E+01 0.  1.
          5    1    3    3  503    0 -0.77231522257E+01  0.19722441186E+02  0.32121633987E+02  0.38762238540E+02  0.47000000000E+01 0. -1.
         -5    1    3    3    0  503  0.21032517637E+02  0.78187512061E+02 -0.53298879441E+02  0.97049030856E+02  0.47000000000E+01 0.  1.
<mgrwt>
<rscale>  0 0.13482274E+03</rscale>
<asrwt>0</asrwt>
<pdfrwt beam="1">  1        1 0.23798008E-01 0.13504773E+03</pdfrwt>
<pdfrwt beam="2">  1       -1 0.19280076E-01 0.13504773E+03</pdfrwt>
<totfact> 0.41858237E+03</totfact>
</mgrwt>
</event>
<event>
 8    1  0.3400573E-004  0.1052271E+03  0.7546771E-02  0.1270330E+00
         -4   -1    0    0    0  501 -0.00000000000E+00  0.00000000000E+00  0.55983674670E+02  0.55983674670E+02  0.00000000000E+00 0.  1.
          4   -1    0    0  501    0  0.00000000000E+00 -0.00000000000E+00 -0.23323125029E+03  0.23323125029E+03  0.00000000000E+00 0. -1.
         23    2    1    2    0    0  0.44368252865E+02 -0.39148548166E+01 -0.30775849218E+02  0.10963526868E+03  0.95335572027E+02 0.  0.
         23    2    1    2    0    0 -0.44368252865E+02  0.39148548166E+01 -0.14647172640E+03  0.17957965628E+03  0.93867024894E+02 0.  0.
          5    1    4    4  502    0  0.18430207037E+01 -0.39447512285E+02 -0.65834044261E+02  0.76913681062E+02  0.47000000000E+01 0. -1.
         -5    1    4    4    0  502 -0.46211273569E+02  0.43362367102E+02 -0.80637682142E+02  0.10266597521E+03  0.47000000000E+01 0.  1.
          5    1    3    3  503    0  0.38453517053E+01 -0.45390833927E+02 -0.21984032990E+02  0.50798644085E+02  0.47000000000E+01 0. -1.
         -5    1    3    3    0  503  0.40522901160E+02  0.41475979111E+02 -0.87918162282E+01  0.58836624599E+02  0.47000000000E+01 0.  1.
<mgrwt>
<rscale>  0 0.10489334E+03</rscale>
<asrwt>0</asrwt>
<pdfrwt beam="1">  1        4 0.35881731E-01 0.10522708E+03</pdfrwt>
<pdfrwt beam="2">  1       -4 0.86128730E-02 0.10522708E+03</pdfrwt>
<totfact> 0.11449911E+03</totfact>
</mgrwt>
</event>
<event>
 8    1  0.3400573E-004  0.1236780E+03  0.7546771E-02  0.1243258E+00
         -1   -1    0    0    0  501 -0.00000000000E+00  0.00000000000E+00  0.24437681387E+02  0.24437681387E+02  0.00000000000E+00 0.  1.
          1   -1    0    0  501    0  0.00000000000E+00 -0.00000000000E+00 -0.94999284964E+03  0.94999284964E+03  0.00000000000E+00 0. -1.
         23    2    1    2    0    0  0.44256869452E+01 -0.44031600772E+02 -0.13224544558E+03  0.17153790883E+03  0.99890078169E+02 0.  0.
         23    2    1    2    0    0 -0.44256869452E+01  0.44031600772E+02 -0.79330972267E+03  0.80289262220E+03  0.11548973169E+03 0.  0.
          5    1    3    3  502    0 -0.19141199281E+02 -0.53939621563E+02 -0.13369195793E+03  0.14550428825E+03  0.47000000000E+01 0. -1.
         -5    1    4    4    0  503 -0.52488641188E+02 -0.35611603892E+01 -0.43782954648E+03  0.44100401482E+03  0.47000000000E+01 0.  1.
          5    1    4    4  503    0  0.48062954243E+02  0.47592761161E+02 -0.35548017619E+03  0.36188860737E+03  0.47000000000E+01 0. -1.
         -5    1    3    3    0  502  0.23566886226E+02  0.99080207915E+01  0.14465123477E+01  0.26033620577E+02  0.47000000000E+01 0.  1.
<mgrwt>
<rscale>  0 0.11990257E+03</rscale>
<asrwt>0</asrwt>
<pdfrwt beam="1">  1        1 0.14615277E+00 0.12367800E+03</pdfrwt>
<pdfrwt beam="2">  1       -1 0.37596426E-02 0.12367800E+03</pdfrwt>
<totfact> 0.45811688E+03</totfact>
</mgrwt>
</event>
<event>
 8    1  0.3400573E-004  0.1033664E+03  0.7546771E-02  0.1274345E+00
         -1   -1    0    0    0  501 -0.00000000000E+00  0.00000000000E+00  0.28992118875E+02  0.28992118875E+02  0.00000000000E+00 0.  1.
          1   -1    0    0  501    0  0.00000000000E+00 -0.00000000000E+00 -0.42981025329E+03  0.42981025329E+03  0.00000000000E+00 0. -1.
         23    2    1    2    0    0  0.12512792368E+02  0.44734166032E+02 -0.10754340884E+03  0.14784468147E+03  0.90192845998E+02 0.  0.
         23    2    1    2    0    0 -0.12512792368E+02 -0.44734166032E+02 -0.29327472557E+03  0.31095769069E+03  0.92341243008E+02 0.  0.
          5    1    3    3  502    0  0.24503055265E+02 -0.14210395876E+02 -0.72715409936E+02  0.78178999164E+02  0.47000000000E+01 0. -1.
         -5    1    3    3    0  502 -0.11990262896E+02  0.58944561908E+02 -0.34827998907E+02  0.69665682303E+02  0.47000000000E+01 0.  1.
          5    1    4    4  503    0 -0.76163489115E+01 -0.72008735035E+02 -0.23991460549E+03  0.25064790966E+03  0.47000000000E+01 0. -1.
         -5    1    4    4    0  503 -0.48964434566E+01  0.27274569003E+02 -0.53360120082E+02  0.60309781031E+02  0.47000000000E+01 0.  1.
<mgrwt>
<rscale>  0 0.10288441E+03</rscale>
<asrwt>0</asrwt>
<pdfrwt beam="1">  1        1 0.66124656E-01 0.10336644E+03</pdfrwt>
<pdfrwt beam="2">  1       -1 0.44603258E-02 0.10336644E+03</pdfrwt>
<totfact> 0.10706752E+04</totfact>
</mgrwt>
</event>
<event>
 8    1  0.3400573E-004  0.1056764E+03  0.7546771E-02  0.1269031E+00
          2   -1    0    0  501    0  0.00000000000E+00  0.00000000000E+00  0.37144197651E+03  0.37144197651E+03  0.00000000000E+00 0. -1.
         -2   -1    0    0    0  501 -0.00000000000E+00 -0.00000000000E+00 -0.33471540086E+02  0.33471540086E+02  0.00000000000E+00 0.  1.
         23    2    1    2    0    0 -0.40392754076E+02 -0.35978955564E+02  0.23451968387E+03  0.25702994486E+03  0.90215578517E+02 0.  0.
         23    2    1    2    0    0  0.40392754076E+02  0.35978955564E+02  0.10345075256E+03  0.14788357174E+03  0.90782337269E+02 0.  0.
          5    1    3    3  502    0  0.25404440270E+02 -0.17691308578E+02  0.11610665967E+03  0.12025478953E+03  0.47000000000E+01 0. -1.
         -5    1    4    4    0  503 -0.14806678642E+02  0.46181594106E+02  0.40039746655E+02  0.63065431726E+02  0.47000000000E+01 0.  1.
          5    1    4    4  503    0  0.55199432718E+02 -0.10202638542E+02  0.63411005900E+02  0.84818140011E+02  0.47000000000E+01 0. -1.
         -5    1    3    3    0  502 -0.65797194346E+02 -0.18287646986E+02  0.11841302420E+03  0.13677515533E+03  0.47000000000E+01 0.  1.
<mgrwt>
<rscale>  0 0.10555453E+03</rscale>
<asrwt>0</asrwt>
<pdfrwt beam="1">  1        2 0.57144917E-01 0.10567636E+03</pdfrwt>
<pdfrwt beam="2">  1       -2 0.51494680E-02 0.10567636E+03</pdfrwt>
<totfact> 0.14930999E+04</totfact>
</mgrwt>
</event>
<event>
 8    1  0.3400573E-004  0.9598090E+02  0.7546771E-02  0.1289793E+00
          1   -1    0    0  501    0  0.00000000000E+00  0.00000000000E+00  0.13858689526E+03  0.13858689526E+03  0.00000000000E+00 0. -1.
         -1   -1    0    0    0  501 -0.00000000000E+00 -0.00000000000E+00 -0.16891168658E+03  0.16891168658E+03  0.00000000000E+00 0.  1.
         23    2    1    2    0    0 -0.24079534887E+02 -0.26502014623E+01  0.10519644856E+03  0.14143130814E+03  0.91376553701E+02 0.  0.
         23    2    1    2    0    0  0.24079534887E+02  0.26502014623E+01 -0.13552123988E+03  0.16606727369E+03  0.92873491182E+02 0.  0.
          5    1    3    3  502    0  0.69671636384E+01  0.23533051501E+02 -0.35626604986E+01  0.25241403129E+02  0.47000000000E+01 0.  1.
         -5    1    4    4    0  503  0.49875962983E+02 -0.10184360005E+02 -0.12497584400E+03  0.13502734707E+03  0.47000000000E+01 0.  1.
          5    1    4    4  503    0 -0.25796428096E+02  0.12834561468E+02 -0.10545395879E+02  0.31039926624E+02  0.47000000000E+01 0. -1.
         -5    1    3    3    0  502 -0.31046698525E+02 -0.26183252963E+02  0.10875910905E+03  0.11618990501E+03  0.47000000000E+01 0. -1.
<mgrwt>
<rscale>  0 0.95616904E+02</rscale>
<asrwt>0</asrwt>
<pdfrwt beam="1">  1        1 0.21321061E-01 0.95980899E+02</pdfrwt>
<pdfrwt beam="2">  1       -1 0.25986413E-01 0.95980899E+02</pdfrwt>
<totfact> 0.29087791E+03</totfact>
</mgrwt>
</event>
<event>
 8    1  0.3400573E-004  0.1300967E+03  0.7546771E-02  0.1227600E+00
         -1   -1    0    0    0  501 -0.00000000000E+00  0.00000000000E+00  0.26275792512E+03  0.26275792512E+03  0.00000000000E+00 0.  1.
          1   -1    0    0  501    0  0.00000000000E+00 -0.00000000000E+00 -0.64032539542E+02  0.64032539542E+02  0.00000000000E+00 0. -1.
         23    2    1    2    0    0 -0.52096046939E+02  0.75936433158E+02  0.99731100137E+02  0.16331254628E+03  0.90798433091E+02 0.  0.
         23    2    1    2    0    0  0.52096046939E+02 -0.75936433158E+02  0.98994285437E+02  0.16347791837E+03  0.91895708600E+02 0.  0.
          5    1    4    4  502    0  0.46437977019E+02 -0.44146082666E+02  0.55316004213E+01  0.64482950673E+02  0.47000000000E+01 0.  1.
         -5    1    3    3    0  503 -0.32808097016E+00  0.25277235707E+02 -0.13326459630E+02  0.28960849580E+02  0.47000000000E+01 0. -1.
          5    1    3    3  503    0 -0.51767965969E+02  0.50659197451E+02  0.11305755977E+03  0.13435169670E+03  0.47000000000E+01 0.  1.
         -5    1    4    4    0  502  0.56580699203E+01 -0.31790350492E+02  0.93462685015E+02  0.98994967700E+02  0.47000000000E+01 0. -1.
<mgrwt>
<rscale>  0 0.12990312E+03</rscale>
<asrwt>0</asrwt>
<pdfrwt beam="1">  1        1 0.98511601E-02 0.13009674E+03</pdfrwt>
<pdfrwt beam="2">  1       -1 0.40424296E-01 0.13009674E+03</pdfrwt>
<totfact> 0.37963910E+03</totfact>
</mgrwt>
</event>
<event>
 8    1  0.3400573E-004  0.1579100E+03  0.7546771E-02  0.1191323E+00
          1   -1    0    0  501    0  0.00000000000E+00  0.00000000000E+00  0.10042950617E+04  0.10042950617E+04  0.00000000000E+00 0. -1.
         -1   -1    0    0    0  501 -0.00000000000E+00 -0.00000000000E+00 -0.25201433834E+02  0.25201433834E+02  0.00000000000E+00 0.  1.
         23    2    1    2    0    0  0.97034455394E+02 -0.85308402181E+02  0.41523944542E+03  0.44394794547E+03  0.89290381534E+02 0.  0.
         23    2    1    2    0    0 -0.97034455394E+02  0.85308402181E+02  0.56385418244E+03  0.58554855007E+03  0.90787424293E+02 0.  0.
          5    1    4    4  502    0 -0.10373995292E+03  0.40308993645E+02  0.42494424635E+03  0.43930228239E+03  0.47000000000E+01 0. -1.
         -5    1    4    4    0  502  0.67054975296E+01  0.44999408537E+02  0.13890993609E+03  0.14624626768E+03  0.47000000000E+01 0.  1.
          5    1    3    3  503    0  0.13492080215E+02  0.16588593203E+02  0.32952143995E+02  0.39561994981E+02  0.47000000000E+01 0.  1.
         -5    1    3    3    0  503  0.83542375178E+02 -0.10189699538E+03  0.38228730143E+03  0.40438595049E+03  0.47000000000E+01 0. -1.
<mgrwt>
<rscale>  0 0.15769558E+03</rscale>
<asrwt>0</asrwt>
<pdfrwt beam="1">  1        1 0.15450690E+00 0.15790999E+03</pdfrwt>
<pdfrwt beam="2">  1       -1 0.38771445E-02 0.15790999E+03</pdfrwt>
<totfact> 0.40268653E+03</totfact>
</mgrwt>
</event>
<event>
 8    1  0.3400573E-004  0.9418446E+02  0.7546771E-02  0.1295581E+00
          1   -1    0    0  501    0  0.00000000000E+00  0.00000000000E+00  0.25614349625E+03  0.25614349625E+03  0.00000000000E+00 0. -1.
         -1   -1    0    0    0  501 -0.00000000000E+00 -0.00000000000E+00 -0.62081298568E+02  0.62081298568E+02  0.00000000000E+00 0.  1.
         23    2    1    2    0    0  0.13064538433E+02  0.22996434944E+02 -0.13004266929E+02  0.90744611583E+02  0.85825144267E+02 0.  0.
         23    2    1    2    0    0 -0.13064538433E+02 -0.22996434944E+02  0.20706646461E+03  0.22748018324E+03  0.90394661422E+02 0.  0.
          5    1    4    4  502    0  0.90638968209E+01 -0.49692896050E+02  0.16573425243E+03  0.17332475464E+03  0.47000000000E+01 0. -1.
         -5    1    4    4    0  502 -0.22128435254E+02  0.26696461106E+02  0.41332212186E+02  0.54155428597E+02  0.47000000000E+01 0.  1.
          5    1    3    3  503    0  0.20475134576E+02 -0.26711135278E+02  0.97837739915E+01  0.35362806976E+02  0.47000000000E+01 0. -1.
         -5    1    3    3    0  503 -0.74105961427E+01  0.49707570222E+02 -0.22788040921E+02  0.55381804607E+02  0.47000000000E+01 0.  1.
<mgrwt>
<rscale>  0 0.93070743E+02</rscale>
<asrwt>0</asrwt>
<pdfrwt beam="1">  1        1 0.39406691E-01 0.94184463E+02</pdfrwt>
<pdfrwt beam="2">  1       -1 0.95509692E-02 0.94184463E+02</pdfrwt>
<totfact> 0.65047215E+03</totfact>
</mgrwt>
</event>
<event>
 8    1  0.3400573E-004  0.1125599E+03  0.7546771E-02  0.1256260E+00
         -1   -1    0    0    0  501 -0.00000000000E+00  0.00000000000E+00  0.19856408716E+02  0.19856408716E+02  0.00000000000E+00 0.  1.
          1   -1    0    0  501    0  0.00000000000E+00 -0.00000000000E+00 -0.76371195808E+03  0.76371195808E+03  0.00000000000E+00 0. -1.
         23    2    1    2    0    0 -0.46031317879E+01 -0.65062992646E+02 -0.53475065903E+03  0.54646865985E+03  0.91735200569E+02 0.  0.
         23    2    1    2    0    0  0.46031317879E+01  0.65062992646E+02 -0.20910489033E+03  0.23709970695E+03  0.90758107303E+02 0.  0.
          5    1    4    4  502    0  0.46143926024E+02  0.22038590089E+02 -0.86234310124E+02  0.10036636690E+03  0.47000000000E+01 0. -1.
         -5    1    4    4    0  502 -0.41540794236E+02  0.43024402557E+02 -0.12287058021E+03  0.13673334005E+03  0.47000000000E+01 0.  1.
          5    1    3    3  503    0 -0.31276956860E+02 -0.56132447670E+02 -0.48386776824E+03  0.48813851196E+03  0.47000000000E+01 0. -1.
         -5    1    3    3    0  503  0.26673825072E+02 -0.89305449761E+01 -0.50882890790E+02  0.58330147888E+02  0.47000000000E+01 0.  1.
<mgrwt>
<rscale>  0 0.11236064E+03</rscale>
<asrwt>0</asrwt>
<pdfrwt beam="1">  1        1 0.11749413E+00 0.11255989E+03</pdfrwt>
<pdfrwt beam="2">  1       -1 0.30548325E-02 0.11255989E+03</pdfrwt>
<totfact> 0.86387880E+03</totfact>
</mgrwt>
</event>
<event>
 8    1  0.3400573E-004  0.9479410E+02  0.7546771E-02  0.1291647E+00
         -2   -1    0    0    0  501 -0.00000000000E+00  0.00000000000E+00  0.37545478002E+02  0.37545478002E+02  0.00000000000E+00 0.  1.
          2   -1    0    0  501    0  0.00000000000E+00 -0.00000000000E+00 -0.25096912969E+03  0.25096912969E+03  0.00000000000E+00 0. -1.
         23    2    1    2    0    0  0.13941730611E+02  0.17399223957E+02 -0.75608736655E+02  0.12124574692E+03  0.92123532502E+02 0.  0.
         23    2    1    2    0    0 -0.13941730611E+02 -0.17399223957E+02 -0.13781491503E+03  0.16726886077E+03  0.92134771569E+02 0.  0.
          5    1    3    3  502    0 -0.26228804602E+02  0.24252928294E+02 -0.71441673873E+02  0.80013483160E+02  0.47000000000E+01 0. -1.
         -5    1    4    4    0  503  0.38835662355E+02 -0.10483112509E+02 -0.70717954874E+02  0.81493701966E+02  0.47000000000E+01 0.  1.
          5    1    4    4  503    0 -0.52777392967E+02 -0.69161114486E+01 -0.67096960158E+02  0.85775158807E+02  0.47000000000E+01 0. -1.
         -5    1    3    3    0  502  0.40170535213E+02 -0.68537043369E+01 -0.41670627824E+01  0.41232263759E+02  0.47000000000E+01 0.  1.
<mgrwt>
<rscale>  0 0.94791367E+02</rscale>
<asrwt>0</asrwt>
<pdfrwt beam="1">  1        2 0.38610634E-01 0.94794098E+02</pdfrwt>
<pdfrwt beam="2">  1       -2 0.57762275E-02 0.94794098E+02</pdfrwt>
<totfact> 0.18779875E+04</totfact>
</mgrwt>
</event>
<event>
 8    1  0.3400573E-004  0.1551394E+03  0.7546771E-02  0.1197088E+00
          1   -1    0    0  501    0  0.00000000000E+00  0.00000000000E+00  0.95245979845E+03  0.95245979845E+03  0.00000000000E+00 0. -1.
         -1   -1    0    0    0  501 -0.00000000000E+00 -0.00000000000E+00 -0.27467450535E+02  0.27467450535E+02  0.00000000000E+00 0.  1.
         23    2    1    2    0    0  0.77746410301E+02 -0.88478803097E+02  0.29562845649E+03  0.33386286219E+03  0.10097139967E+03 0.  0.
         23    2    1    2    0    0 -0.77746410301E+02  0.88478803097E+02  0.62936389142E+03  0.64606438679E+03  0.86181675211E+02 0.  0.
          5    1    3    3  502    0 -0.22689844159E+02 -0.51131948204E+01  0.34239229059E+02  0.41657995580E+02  0.47000000000E+01 0. -1.
         -5    1    3    3    0  502  0.10043625446E+03 -0.83365608277E+02  0.26138922743E+03  0.29220486661E+03  0.47000000000E+01 0.  1.
          5    1    4    4  503    0 -0.53730573500E+02  0.60029987307E+02  0.57101956713E+03  0.57669403496E+03  0.47000000000E+01 0. -1.
         -5    1    4    4    0  503 -0.24015836801E+02  0.28448815790E+02  0.58344324291E+02  0.69370351837E+02  0.47000000000E+01 0.  1.
<mgrwt>
<rscale>  0 0.15278816E+03</rscale>
<asrwt>0</asrwt>
<pdfrwt beam="1">  1        1 0.14653225E+00 0.15513938E+03</pdfrwt>
<pdfrwt beam="2">  1       -1 0.42257624E-02 0.15513938E+03</pdfrwt>
<totfact> 0.38736388E+03</totfact>
</mgrwt>
</event>
<event>
 8    1  0.3400573E-004  0.9730808E+02  0.7546771E-02  0.1286379E+00
          2   -1    0    0  501    0  0.00000000000E+00  0.00000000000E+00  0.28747890341E+03  0.28747890341E+03  0.00000000000E+00 0. -1.
         -2   -1    0    0    0  501 -0.00000000000E+00 -0.00000000000E+00 -0.50564346364E+02  0.50564346364E+02  0.00000000000E+00 0.  1.
         23    2    1    2    0    0  0.27866716714E+02 -0.14493675952E+02  0.17877120833E+02  0.98363754388E+02  0.91483420274E+02 0.  0.
         23    2    1    2    0    0 -0.27866716714E+02  0.14493675952E+02  0.21903743621E+03  0.23967949539E+03  0.92099085244E+02 0.  0.
          5    1    4    4  502    0  0.42813563039E+01  0.45105355714E+02  0.65481816350E+02  0.79767044564E+02  0.47000000000E+01 0. -1.
         -5    1    4    4    0  502 -0.32148073018E+02 -0.30611679762E+02  0.15355561986E+03  0.15991245082E+03  0.47000000000E+01 0.  1.
          5    1    3    3  503    0  0.36232749097E+02  0.14945246757E+02  0.43086693265E+02  0.58435653879E+02  0.47000000000E+01 0. -1.
         -5    1    3    3    0  503 -0.83660323827E+01 -0.29438922709E+02 -0.25209572431E+02  0.39928100509E+02  0.47000000000E+01 0.  1.
<mgrwt>
<rscale>  0 0.97162124E+02</rscale>
<asrwt>0</asrwt>
<pdfrwt beam="1">  1        2 0.44227523E-01 0.97308078E+02</pdfrwt>
<pdfrwt beam="2">  1       -2 0.77791304E-02 0.97308078E+02</pdfrwt>
<totfact> 0.10405483E+04</totfact>
</mgrwt>
</event>
<event>
 8    1  0.3400573E-004  0.1029728E+03  0.7546771E-02  0.1275664E+00
          3   -1    0    0  501    0  0.00000000000E+00  0.00000000000E+00  0.10499869283E+03  0.10499869283E+03  0.00000000000E+00 0. -1.
         -3   -1    0    0    0  501 -0.00000000000E+00 -0.00000000000E+00 -0.12610584448E+03  0.12610584448E+03  0.00000000000E+00 0.  1.
         23    2    1    2    0    0 -0.36420050661E+02  0.28449400377E+02 -0.65078721488E+02  0.12181398083E+03  0.92019658029E+02 0.  0.
         23    2    1    2    0    0  0.36420050661E+02 -0.28449400377E+02  0.43971569836E+02  0.10929055648E+03  0.88741976032E+02 0.  0.
          5    1    4    4  502    0  0.17767192550E+02  0.28433251914E+02 -0.16232354090E+01  0.33894657967E+02  0.47000000000E+01 0. -1.
         -5    1    3    3    0  503 -0.37310291644E+02 -0.26640969503E+02 -0.40290872784E+02  0.61214733098E+02  0.47000000000E+01 0.  1.
          5    1    3    3  503    0  0.89024098334E+00  0.55090369880E+02 -0.24787848704E+02  0.60599247734E+02  0.47000000000E+01 0. -1.
         -5    1    4    4    0  502  0.18652858111E+02 -0.56882652291E+02  0.45594805245E+02  0.75395898513E+02  0.47000000000E+01 0.  1.
<mgrwt>
<rscale>  0 0.10223540E+03</rscale>
<asrwt>0</asrwt>
<pdfrwt beam="1">  1        3 0.16153645E-01 0.10297284E+03</pdfrwt>
<pdfrwt beam="2">  1       -3 0.19400899E-01 0.10297284E+03</pdfrwt>
<totfact> 0.16887378E+03</totfact>
</mgrwt>
</event>
<event>
 8    1  0.3400573E-004  0.9966548E+02  0.7546771E-02  0.1283391E+00
          1   -1    0    0  501    0  0.00000000000E+00  0.00000000000E+00  0.53801112964E+03  0.53801112964E+03  0.00000000000E+00 0. -1.
         -1   -1    0    0    0  501 -0.00000000000E+00 -0.00000000000E+00 -0.51937718132E+02  0.51937718132E+02  0.00000000000E+00 0.  1.
         23    2    1    2    0    0 -0.36307995322E+02  0.17282824607E+02  0.52731722781E+01  0.99804880865E+02  0.91193428206E+02 0.  0.
         23    2    1    2    0    0  0.36307995322E+02 -0.17282824607E+02  0.48080023923E+03  0.49014396691E+03  0.86343915253E+02 0.  0.
          5    1    4    4  502    0  0.42150355108E+02 -0.41378137430E+02  0.42225009505E+03  0.42638718961E+03  0.47000000000E+01 0. -1.
         -5    1    3    3    0  503 -0.34299585385E+01 -0.21381669513E+02 -0.30379678434E+02  0.37602596566E+02  0.47000000000E+01 0.  1.
          5    1    3    3  503    0 -0.32878036783E+02  0.38664494120E+02  0.35652850712E+02  0.62202284300E+02  0.47000000000E+01 0. -1.
         -5    1    4    4    0  502 -0.58423597868E+01  0.24095312823E+02  0.58550144175E+02  0.63756777293E+02  0.47000000000E+01 0.  1.
<mgrwt>
<rscale>  0 0.98542342E+02</rscale>
<asrwt>0</asrwt>
<pdfrwt beam="1">  1        1 0.82770940E-01 0.99665480E+02</pdfrwt>
<pdfrwt beam="2">  1       -1 0.79904185E-02 0.99665480E+02</pdfrwt>
<totfact> 0.33830951E+03</totfact>
</mgrwt>
</event>
<event>
 8    1  0.3400573E-004  0.9462867E+02  0.7546771E-02  0.1292323E+00
          1   -1    0    0  501    0  0.00000000000E+00  0.00000000000E+00  0.67974326054E+02  0.67974326054E+02  0.00000000000E+00 0. -1.
         -1   -1    0    0    0  501 -0.00000000000E+00 -0.00000000000E+00 -0.14260914069E+03  0.14260914069E+03  0.00000000000E+00 0.  1.
         23    2    1    2    0    0 -0.15209682882E+02  0.14446059622E+02 -0.73497334560E+01  0.94913669154E+02  0.92274389288E+02 0.  0.
         23    2    1    2    0    0  0.15209682882E+02 -0.14446059622E+02 -0.67285081178E+02  0.11566979759E+03  0.91718028941E+02 0.  0.
          5    1    3    3  502    0  0.71706882055E+00 -0.35926173250E+02  0.12422304958E+02  0.38309369253E+02  0.47000000000E+01 0. -1.
         -5    1    4    4    0  503  0.22253443802E+02  0.75863184926E+01 -0.83604092162E+02  0.86974146823E+02  0.47000000000E+01 0.  1.
          5    1    4    4  503    0 -0.70437609208E+01 -0.22032378115E+02  0.16319010984E+02  0.28695650765E+02  0.47000000000E+01 0. -1.
         -5    1    3    3    0  502 -0.15926751702E+02  0.50372232872E+02 -0.19772038414E+02  0.56604299902E+02  0.47000000000E+01 0.  1.
<mgrwt>
<rscale>  0 0.94492772E+02</rscale>
<asrwt>0</asrwt>
<pdfrwt beam="1">  1        1 0.10457589E-01 0.94628674E+02</pdfrwt>
<pdfrwt beam="2">  1       -1 0.21939868E-01 0.94628674E+02</pdfrwt>
<totfact> 0.95178357E+03</totfact>
</mgrwt>
</event>
<event>
 8    1  0.3400573E-004  0.9320874E+02  0.7546771E-02  0.1295288E+00
          1   -1    0    0  501    0  0.00000000000E+00  0.00000000000E+00  0.13782744063E+03  0.13782744063E+03  0.00000000000E+00 0. -1.
         -1   -1    0    0    0  501 -0.00000000000E+00 -0.00000000000E+00 -0.79857408179E+02  0.79857408179E+02  0.00000000000E+00 0.  1.
         23    2    1    2    0    0  0.16883336089E+02  0.12801073638E+01 -0.21010331815E+02  0.95547384309E+02  0.91657966882E+02 0.  0.
         23    2    1    2    0    0 -0.16883336089E+02 -0.12801073638E+01  0.78980364262E+02  0.12213746449E+03  0.91613190000E+02 0.  0.
          5    1    3    3  502    0 -0.33821748301E+02 -0.16110483789E+02 -0.17522516210E+02  0.41624354894E+02  0.47000000000E+01 0. -1.
         -5    1    3    3    0  502  0.50705084390E+02  0.17390591152E+02 -0.34878156057E+01  0.53923029415E+02  0.47000000000E+01 0.  1.
          5    1    4    4  503    0 -0.18663494332E+02 -0.42863884445E+02  0.23257987047E+02  0.52427688981E+02  0.47000000000E+01 0. -1.
         -5    1    4    4    0  503  0.17801582432E+01  0.41583777081E+02  0.55722377215E+02  0.69709775514E+02  0.47000000000E+01 0.  1.
<mgrwt>
<rscale>  0 0.93197727E+02</rscale>
<asrwt>0</asrwt>
<pdfrwt beam="1">  1        1 0.21204222E-01 0.93208737E+02</pdfrwt>
<pdfrwt beam="2">  1       -1 0.12285755E-01 0.93208737E+02</pdfrwt>
<totfact> 0.95234036E+03</totfact>
</mgrwt>
</event>
<event>
 8    1  0.3400573E-004  0.1050150E+03  0.7546771E-02  0.1270148E+00
          2   -1    0    0  501    0  0.00000000000E+00  0.00000000000E+00  0.62857429141E+03  0.62857429141E+03  0.00000000000E+00 0. -1.
         -2   -1    0    0    0  501 -0.00000000000E+00 -0.00000000000E+00 -0.21832138980E+02  0.21832138980E+02  0.00000000000E+00 0.  1.
         23    2    1    2    0    0  0.47560031392E+02 -0.12544327875E+02  0.44794892032E+03  0.46009388025E+03  0.92783762980E+02 0.  0.
         23    2    1    2    0    0 -0.47560031392E+02  0.12544327875E+02  0.15879323211E+03  0.19031255015E+03  0.92651278632E+02 0.  0.
          5    1    3    3  502    0  0.33833032354E+02 -0.41842412112E+02  0.13444255246E+03  0.14488737502E+03  0.47000000000E+01 0. -1.
         -5    1    4    4    0  503 -0.62843053123E+02 -0.21758073395E+02  0.10894434458E+03  0.12772479516E+03  0.47000000000E+01 0.  1.
          5    1    4    4  503    0  0.15283021731E+02  0.34302401270E+02  0.49848887535E+02  0.62587754989E+02  0.47000000000E+01 0. -1.
         -5    1    3    3    0  502  0.13726999039E+02  0.29298084237E+02  0.31350636786E+03  0.31520650522E+03  0.47000000000E+01 0.  1.
<mgrwt>
<rscale>  0 0.10498570E+03</rscale>
<asrwt>0</asrwt>
<pdfrwt beam="1">  1        2 0.96703723E-01 0.10501497E+03</pdfrwt>
<pdfrwt beam="2">  1       -2 0.33587911E-02 0.10501497E+03</pdfrwt>
<totfact> 0.15854398E+04</totfact>
</mgrwt>
</event>
<event>
 8    1  0.3400573E-004  0.1159007E+03  0.7546771E-02  0.1250967E+00
         -3   -1    0    0    0  501 -0.00000000000E+00  0.00000000000E+00  0.23008623130E+03  0.23008623130E+03  0.00000000000E+00 0.  1.
          3   -1    0    0  501    0  0.00000000000E+00 -0.00000000000E+00 -0.62898011209E+02  0.62898011209E+02  0.00000000000E+00 0. -1.
         23    2    1    2    0    0  0.64359916837E+02 -0.21065772482E+02  0.40579005084E+02  0.12279911281E+03  0.94058496627E+02 0.  0.
         23    2    1    2    0    0 -0.64359916837E+02  0.21065772482E+02  0.12660921501E+03  0.17018512970E+03  0.91362571004E+02 0.  0.
          5    1    3    3  502    0  0.35788052474E+02  0.36030688972E+02  0.25534962560E+02  0.57036125049E+02  0.47000000000E+01 0. -1.
         -5    1    3    3    0  502  0.28571864363E+02 -0.57096461454E+02  0.15044042524E+02  0.65762987761E+02  0.47000000000E+01 0.  1.
          5    1    4    4  503    0 -0.32215334192E+02  0.48334412163E+02  0.31954618107E+02  0.66462250749E+02  0.47000000000E+01 0. -1.
         -5    1    4    4    0  503 -0.32144582645E+02 -0.27268639681E+02  0.94654596898E+02  0.10372287895E+03  0.47000000000E+01 0.  1.
<mgrwt>
<rscale>  0 0.11535256E+03</rscale>
<asrwt>0</asrwt>
<pdfrwt beam="1">  1        3 0.96766173E-02 0.11590067E+03</pdfrwt>
<pdfrwt beam="2">  1       -3 0.35397881E-01 0.11590067E+03</pdfrwt>
<totfact> 0.13705654E+03</totfact>
</mgrwt>
</event>
<event>
 8    1  0.3400573E-004  0.9352895E+02  0.7546771E-02  0.1294919E+00
          2   -1    0    0  501    0  0.00000000000E+00  0.00000000000E+00  0.28873330854E+03  0.28873330854E+03  0.00000000000E+00 0. -1.
         -2   -1    0    0    0  501 -0.00000000000E+00 -0.00000000000E+00 -0.53573635963E+02  0.53573635963E+02  0.00000000000E+00 0.  1.
         23    2    1    2    0    0 -0.14148151817E+02 -0.64330413520E+01  0.23117356249E+03  0.24937698647E+03  0.92228581080E+02 0.  0.
         23    2    1    2    0    0  0.14148151817E+02  0.64330413520E+01  0.39861100929E+01  0.92929958035E+02  0.91534331296E+02 0.  0.
          5    1    4    4  502    0  0.40627737338E+02  0.12192082247E+02  0.32250639241E+02  0.53492556886E+02  0.47000000000E+01 0. -1.
         -5    1    4    4    0  502 -0.26479585522E+02 -0.57590408945E+01 -0.28264529148E+02  0.39437401149E+02  0.47000000000E+01 0.  1.
          5    1    3    3  503    0  0.19757915344E+02 -0.39015506484E+02  0.13902233185E+03  0.14581455249E+03  0.47000000000E+01 0. -1.
         -5    1    3    3    0  503 -0.33906067161E+02  0.32582465132E+02  0.92151230643E+02  0.10356243399E+03  0.47000000000E+01 0.  1.
<mgrwt>
<rscale>  0 0.93357352E+02</rscale>
<asrwt>0</asrwt>
<pdfrwt beam="1">  1        2 0.44420508E-01 0.93528955E+02</pdfrwt>
<pdfrwt beam="2">  1       -2 0.82420980E-02 0.93528955E+02</pdfrwt>
<totfact> 0.94497642E+03</totfact>
</mgrwt>
</event>
<event>
 8    1  0.3400573E-004  0.9433319E+02  0.7546771E-02  0.1294332E+00
         -3   -1    0    0    0  501 -0.00000000000E+00  0.00000000000E+00  0.96272760745E+01  0.96272760745E+01  0.00000000000E+00 0.  1.
          3   -1    0    0  501    0  0.00000000000E+00 -0.00000000000E+00 -0.10045443762E+04  0.10045443762E+04  0.00000000000E+00 0. -1.
         23    2    1    2    0    0  0.12345032492E+02 -0.15081093141E+02 -0.65684463226E+03  0.66318483762E+03  0.89383548394E+02 0.  0.
         23    2    1    2    0    0 -0.12345032492E+02  0.15081093141E+02 -0.33807246783E+03  0.35098681462E+03  0.92297948697E+02 0.  0.
          5    1    4    4  502    0 -0.47951061054E+02  0.26891793136E+01 -0.25651189430E+03  0.26101145158E+03  0.47000000000E+01 0. -1.
         -5    1    3    3    0  503  0.32898714173E+02 -0.43422230510E+02 -0.45484401894E+03  0.45811896606E+03  0.47000000000E+01 0.  1.
          5    1    3    3  503    0 -0.20553681681E+02  0.28341137369E+02 -0.20200061332E+03  0.20506587156E+03  0.47000000000E+01 0. -1.
         -5    1    4    4    0  502  0.35606028562E+02  0.12391913828E+02 -0.81560573528E+02  0.89975363031E+02  0.47000000000E+01 0.  1.
<mgrwt>
<rscale>  0 0.93612589E+02</rscale>
<asrwt>0</asrwt>
<pdfrwt beam="1">  1        3 0.15454521E+00 0.94333189E+02</pdfrwt>
<pdfrwt beam="2">  1       -3 0.14811202E-02 0.94333189E+02</pdfrwt>
<totfact> 0.10466368E+03</totfact>
</mgrwt>
</event>
<event>
 8    1  0.3400573E-004  0.9450474E+02  0.7546771E-02  0.1292539E+00
         -2   -1    0    0    0  501 -0.00000000000E+00  0.00000000000E+00  0.39808155627E+02  0.39808155627E+02  0.00000000000E+00 0.  1.
          2   -1    0    0  501    0  0.00000000000E+00 -0.00000000000E+00 -0.42225128610E+03  0.42225128610E+03  0.00000000000E+00 0. -1.
         23    2    1    2    0    0  0.12918345231E+02 -0.12379504899E+02 -0.32884193875E+02  0.10006256339E+03  0.92795531146E+02 0.  0.
         23    2    1    2    0    0 -0.12918345231E+02  0.12379504899E+02 -0.34955893660E+03  0.36199687833E+03  0.92358832736E+02 0.  0.
          5    1    4    4  502    0 -0.39919466378E+02  0.24534394695E+02 -0.30287891047E+03  0.30651790278E+03  0.47000000000E+01 0. -1.
         -5    1    4    4    0  502  0.27001121147E+02 -0.12154889795E+02 -0.46680026129E+02  0.55478975554E+02  0.47000000000E+01 0.  1.
          5    1    3    3  503    0 -0.25241406130E+02 -0.37620437766E+02 -0.39334477567E+01  0.45716385819E+02  0.47000000000E+01 0. -1.
         -5    1    3    3    0  503  0.38159751361E+02  0.25240932867E+02 -0.28950746118E+02  0.54346177572E+02  0.47000000000E+01 0.  1.
<mgrwt>
<rscale>  0 0.94397369E+02</rscale>
<asrwt>0</asrwt>
<pdfrwt beam="1">  1        2 0.64961738E-01 0.94504743E+02</pdfrwt>
<pdfrwt beam="2">  1       -2 0.61243315E-02 0.94504743E+02</pdfrwt>
<totfact> 0.99607823E+03</totfact>
</mgrwt>
</event>
<event>
 8    1  0.3400573E-004  0.9494657E+02  0.7546771E-02  0.1291873E+00
          2   -1    0    0  501    0  0.00000000000E+00  0.00000000000E+00  0.19619866918E+03  0.19619866918E+03  0.00000000000E+00 0. -1.
         -2   -1    0    0    0  501 -0.00000000000E+00 -0.00000000000E+00 -0.48275973110E+02  0.48275973110E+02  0.00000000000E+00 0.  1.
         23    2    1    2    0    0 -0.23983276174E+02  0.15600834457E+01  0.10387561390E+03  0.14073021738E+03  0.91854338625E+02 0.  0.
         23    2    1    2    0    0  0.23983276174E+02 -0.15600834457E+01  0.44047082171E+02  0.10374442491E+03  0.90802691897E+02 0.  0.
          5    1    3    3  502    0 -0.22648435698E+02  0.36085448215E+02  0.95780072593E+02  0.10493342422E+03  0.47000000000E+01 0. -1.
         -5    1    3    3    0  502 -0.13348404764E+01 -0.34525364770E+02  0.80955413085E+01  0.35796793162E+02  0.47000000000E+01 0.  1.
          5    1    4    4  503    0 -0.33922158500E+02  0.39570026594E+01  0.88400156087E+01  0.35589416732E+02  0.47000000000E+01 0. -1.
         -5    1    4    4    0  503  0.57905434674E+02 -0.55170861051E+01  0.35207066562E+02  0.68155008179E+02  0.47000000000E+01 0.  1.
<mgrwt>
<rscale>  0 0.94691286E+02</rscale>
<asrwt>0</asrwt>
<pdfrwt beam="1">  1        2 0.30184410E-01 0.94946569E+02</pdfrwt>
<pdfrwt beam="2">  1       -2 0.74270729E-02 0.94946569E+02</pdfrwt>
<totfact> 0.16684551E+04</totfact>
</mgrwt>
</event>
<event>
 8    1  0.3400573E-004  0.9301948E+02  0.7546771E-02  0.1309126E+00
         -3   -1    0    0    0  501 -0.00000000000E+00  0.00000000000E+00  0.52215972925E+03  0.52215972925E+03  0.00000000000E+00 0.  1.
          3   -1    0    0  501    0  0.00000000000E+00 -0.00000000000E+00 -0.20635831445E+02  0.20635831445E+02  0.00000000000E+00 0. -1.
         23    2    1    2    0    0  0.69285976882E-01  0.15825316190E+02  0.43306590704E+03  0.44294322810E+03  0.91663395326E+02 0.  0.
         23    2    1    2    0    0 -0.69285976882E-01 -0.15825316190E+02  0.68457990770E+02  0.99852332604E+02  0.70947490393E+02 0.  0.
          5    1    4    4  502    0 -0.61220401857E+01 -0.43360950436E+02  0.43588073816E+02  0.61965002847E+02  0.47000000000E+01 0. -1.
         -5    1    4    4    0  502  0.60527542088E+01  0.27535634246E+02  0.24869916953E+02  0.37887329757E+02  0.47000000000E+01 0.  1.
          5    1    3    3  503    0  0.36559244195E+02 -0.80376458408E+01  0.97845388724E+02  0.10486654462E+03  0.47000000000E+01 0. -1.
         -5    1    3    3    0  503 -0.36489958218E+02  0.23862962031E+02  0.33522051832E+03  0.33807668347E+03  0.47000000000E+01 0.  1.
<mgrwt>
<rscale>  0 0.87458232E+02</rscale>
<asrwt>0</asrwt>
<pdfrwt beam="1">  1        3 0.31747437E-02 0.93019479E+02</pdfrwt>
<pdfrwt beam="2">  1       -3 0.80332256E-01 0.93019479E+02</pdfrwt>
<totfact> 0.14801183E+03</totfact>
</mgrwt>
</event>
<event>
 8    1  0.3400573E-004  0.4010976E+03  0.7546771E-02  0.1043402E+00
          1   -1    0    0  501    0  0.00000000000E+00  0.00000000000E+00  0.15116132542E+04  0.15116132542E+04  0.00000000000E+00 0. -1.
         -1   -1    0    0    0  501 -0.00000000000E+00 -0.00000000000E+00 -0.10732179975E+03  0.10732179975E+03  0.00000000000E+00 0.  1.
         23    2    1    2    0    0  0.37392781579E+03 -0.11291629801E+03  0.62812610810E+03  0.74526617318E+03  0.91143619772E+02 0.  0.
         23    2    1    2    0    0 -0.37392781579E+03  0.11291629801E+03  0.77616534630E+03  0.87366888074E+03  0.91063530513E+02 0.  0.
          5    1    4    4  502    0 -0.30289068117E+03  0.52356006920E+02  0.60652103972E+03  0.67998071872E+03  0.47000000000E+01 0. -1.
         -5    1    4    4    0  502 -0.71037134615E+02  0.60560291087E+02  0.16964430659E+03  0.19368816202E+03  0.47000000000E+01 0.  1.
          5    1    3    3  503    0  0.98819341459E+02 -0.22132626451E+02  0.24318492264E+03  0.26346937583E+03  0.47000000000E+01 0. -1.
         -5    1    3    3    0  503  0.27510847433E+03 -0.90783671556E+02  0.38494118546E+03  0.48179679734E+03  0.47000000000E+01 0.  1.
<mgrwt>
<rscale>  0 0.40109302E+03</rscale>
<asrwt>0</asrwt>
<pdfrwt beam="1">  1        1 0.23255587E+00 0.40109757E+03</pdfrwt>
<pdfrwt beam="2">  1       -1 0.16511047E-01 0.40109757E+03</pdfrwt>
<totfact> 0.19065871E+02</totfact>
</mgrwt>
</event>
<event>
 8    1  0.3400573E-004  0.9766241E+02  0.7546771E-02  0.1285432E+00
         -1   -1    0    0    0  501 -0.00000000000E+00  0.00000000000E+00  0.21186334522E+03  0.21186334522E+03  0.00000000000E+00 0.  1.
          1   -1    0    0  501    0  0.00000000000E+00 -0.00000000000E+00 -0.96441746482E+02  0.96441746482E+02  0.00000000000E+00 0. -1.
         23    2    1    2    0    0  0.35513809527E+02 -0.10582993939E+02  0.17044144859E+03  0.19643888135E+03  0.90358819602E+02 0.  0.
         23    2    1    2    0    0 -0.35513809527E+02  0.10582993939E+02 -0.55019849848E+02  0.11186621036E+03  0.90075716565E+02 0.  0.
          5    1    3    3  502    0  0.18322773483E+02 -0.50464656981E+02  0.90013749436E+02  0.10491411116E+03  0.47000000000E+01 0. -1.
         -5    1    4    4    0  503 -0.28846134287E+02 -0.90872300643E+01  0.18202391098E+02  0.35610311080E+02  0.47000000000E+01 0.  1.
          5    1    4    4  503    0 -0.66676752400E+01  0.19670224003E+02 -0.73222240946E+02  0.76255899277E+02  0.47000000000E+01 0. -1.
         -5    1    3    3    0  502  0.17191036044E+02  0.39881663042E+02  0.80427699154E+02  0.91524770191E+02  0.47000000000E+01 0.  1.
<mgrwt>
<rscale>  0 0.97596878E+02</rscale>
<asrwt>0</asrwt>
<pdfrwt beam="1">  1        1 0.14837192E-01 0.97662412E+02</pdfrwt>
<pdfrwt beam="2">  1       -1 0.32594361E-01 0.97662412E+02</pdfrwt>
<totfact> 0.31659953E+03</totfact>
</mgrwt>
</event>
<event>
 8    1  0.3400573E-004  0.1038218E+03  0.7546771E-02  0.1279602E+00
         -1   -1    0    0    0  501 -0.00000000000E+00  0.00000000000E+00  0.24117862846E+03  0.24117862846E+03  0.00000000000E+00 0.  1.
          1   -1    0    0  501    0  0.00000000000E+00 -0.00000000000E+00 -0.96510360087E+02  0.96510360087E+02  0.00000000000E+00 0. -1.
         23    2    1    2    0    0  0.15315724889E+02  0.25140413365E+02  0.20437175054E+03  0.22923085395E+03  0.99560836546E+02 0.  0.
         23    2    1    2    0    0 -0.15315724889E+02 -0.25140413365E+02 -0.59703482165E+02  0.10845813459E+03  0.85627386761E+02 0.  0.
          5    1    3    3  502    0 -0.29651463714E+02 -0.12027388268E+01  0.16646078156E+02  0.34348767067E+02  0.47000000000E+01 0. -1.
         -5    1    4    4    0  503 -0.17475439725E+02  0.15600129100E+02  0.11302851054E+02  0.26431032206E+02  0.47000000000E+01 0.  1.
          5    1    4    4  503    0  0.21597148358E+01 -0.40740542465E+02 -0.71006333219E+02  0.82027102386E+02  0.47000000000E+01 0. -1.
         -5    1    3    3    0  502  0.44967188603E+02  0.26343152192E+02  0.18772567238E+03  0.19488208689E+03  0.47000000000E+01 0.  1.
<mgrwt>
<rscale>  0 0.10033082E+03</rscale>
<asrwt>0</asrwt>
<pdfrwt beam="1">  1        1 0.14847748E-01 0.10382183E+03</pdfrwt>
<pdfrwt beam="2">  1       -1 0.37104404E-01 0.10382183E+03</pdfrwt>
<totfact> 0.25460865E+03</totfact>
</mgrwt>
</event>
<event>
 8    1  0.3400573E-004  0.1664480E+03  0.7546771E-02  0.1182106E+00
         -1   -1    0    0    0  501 -0.00000000000E+00  0.00000000000E+00  0.21235519241E+02  0.21235519241E+02  0.00000000000E+00 0.  1.
          1   -1    0    0  501    0  0.00000000000E+00 -0.00000000000E+00 -0.12970642938E+04  0.12970642938E+04  0.00000000000E+00 0. -1.
         23    2    1    2    0    0  0.11749015512E+02  0.13567832399E+03 -0.68987460672E+03  0.70967028421E+03  0.95698967227E+02 0.  0.
         23    2    1    2    0    0 -0.11749015512E+02 -0.13567832399E+03 -0.58595416781E+03  0.60862952880E+03  0.92417366275E+02 0.  0.
          5    1    4    4  502    0 -0.39720033417E+02 -0.12916631700E+03 -0.46838240213E+03  0.48750977747E+03  0.47000000000E+01 0. -1.
         -5    1    4    4    0  502  0.27971017905E+02 -0.65120069840E+01 -0.11757176568E+03  0.12111975133E+03  0.47000000000E+01 0.  1.
          5    1    3    3  503    0  0.35202314808E+02  0.28742029202E+02 -0.33949118179E+03  0.34255168913E+03  0.47000000000E+01 0. -1.
         -5    1    3    3    0  503 -0.23453299296E+02  0.10693629479E+03 -0.35038342493E+03  0.36711859509E+03  0.47000000000E+01 0.  1.
<mgrwt>
<rscale>  0 0.16597982E+03</rscale>
<asrwt>0</asrwt>
<pdfrwt beam="1">  1        1 0.19954838E+00 0.16644801E+03</pdfrwt>
<pdfrwt beam="2">  1       -1 0.32670026E-02 0.16644801E+03</pdfrwt>
<totfact> 0.32346992E+03</totfact>
</mgrwt>
</event>
<event>
 8    1  0.3400573E-004  0.2752578E+03  0.7546771E-02  0.1098577E+00
         -1   -1    0    0    0  501 -0.00000000000E+00  0.00000000000E+00  0.37878170728E+02  0.37878170728E+02  0.00000000000E+00 0.  1.
          1   -1    0    0  501    0  0.00000000000E+00 -0.00000000000E+00 -0.20586839762E+04  0.20586839762E+04  0.00000000000E+00 0. -1.
         23    2    1    2    0    0 -0.25551306431E+03  0.45005004740E+02 -0.81045942163E+03  0.85531067525E+03  0.86020349969E+02 0.  0.
         23    2    1    2    0    0  0.25551306431E+03 -0.45005004740E+02 -0.12103463839E+04  0.12412514717E+04  0.91948195033E+02 0.  0.
          5    1    4    4  502    0  0.20124109486E+03 -0.41271816249E+01 -0.78088770611E+03  0.80642588713E+03  0.47000000000E+01 0. -1.
         -5    1    3    3    0  503 -0.21732459204E+03  0.51722674242E+01 -0.66618950134E+03  0.70077619277E+03  0.47000000000E+01 0.  1.
          5    1    3    3  503    0 -0.38188472274E+02  0.39832737316E+02 -0.14426992029E+03  0.15453448249E+03  0.47000000000E+01 0. -1.
         -5    1    4    4    0  502  0.54271969457E+02 -0.40877823115E+02 -0.42945867776E+03  0.43482558457E+03  0.47000000000E+01 0.  1.
<mgrwt>
<rscale>  0 0.27477576E+03</rscale>
<asrwt>0</asrwt>
<pdfrwt beam="1">  1        1 0.31672062E+00 0.27525778E+03</pdfrwt>
<pdfrwt beam="2">  1       -1 0.58274107E-02 0.27525778E+03</pdfrwt>
<totfact> 0.43122813E+02</totfact>
</mgrwt>
</event>
<event>
 8    1  0.3400573E-004  0.9328665E+02  0.7546771E-02  0.1296825E+00
         -1   -1    0    0    0  501 -0.00000000000E+00  0.00000000000E+00  0.16036841063E+02  0.16036841063E+02  0.00000000000E+00 0.  1.
          1   -1    0    0  501    0  0.00000000000E+00 -0.00000000000E+00 -0.52799951585E+03  0.52799951585E+03  0.00000000000E+00 0. -1.
         23    2    1    2    0    0 -0.85538776035E+01 -0.94068701185E+01 -0.27873461090E+03  0.29393091331E+03  0.92416126617E+02 0.  0.
         23    2    1    2    0    0  0.85538776035E+01  0.94068701185E+01 -0.23322806389E+03  0.25010544360E+03  0.89418930364E+02 0.  0.
          5    1    3    3  502    0  0.37862731413E+02  0.10893593083E+02 -0.88088166291E+02  0.96611965309E+02  0.47000000000E+01 0. -1.
         -5    1    3    3    0  502 -0.46416609016E+02 -0.20300463202E+02 -0.19064644461E+03  0.19731894800E+03  0.47000000000E+01 0.  1.
          5    1    4    4  503    0  0.34546503495E+02 -0.26796941553E+02 -0.13846319801E+03  0.14527795492E+03  0.47000000000E+01 0. -1.
         -5    1    4    4    0  503 -0.25992625892E+02  0.36203811672E+02 -0.94764865875E+02  0.10482748869E+03  0.47000000000E+01 0.  1.
<mgrwt>
<rscale>  0 0.92535548E+02</rscale>
<asrwt>0</asrwt>
<pdfrwt beam="1">  1        1 0.81230692E-01 0.93286647E+02</pdfrwt>
<pdfrwt beam="2">  1       -1 0.24672064E-02 0.93286647E+02</pdfrwt>
<totfact> 0.19221458E+04</totfact>
</mgrwt>
</event>
<event>
 8    1  0.3400573E-004  0.1171968E+03  0.7546771E-02  0.1248810E+00
         -1   -1    0    0    0  501 -0.00000000000E+00  0.00000000000E+00  0.13233346880E+02  0.13233346880E+02  0.00000000000E+00 0.  1.
          1   -1    0    0  501    0  0.00000000000E+00 -0.00000000000E+00 -0.11430828991E+04  0.11430828991E+04  0.00000000000E+00 0. -1.
         23    2    1    2    0    0  0.70685312702E+02 -0.83634220700E+01 -0.75172437165E+03  0.76044536862E+03  0.90118075109E+02 0.  0.
         23    2    1    2    0    0 -0.70685312702E+02  0.83634220700E+01 -0.37812518055E+03  0.39587087734E+03  0.93106063715E+02 0.  0.
          5    1    4    4  502    0  0.21030997537E+02 -0.66010161445E+01 -0.50755590753E+02  0.55534640219E+02  0.47000000000E+01 0. -1.
         -5    1    3    3    0  503 -0.16332398390E+02  0.12853843852E+02 -0.81214087787E+02  0.83963007295E+02  0.47000000000E+01 0.  1.
          5    1    3    3  503    0  0.87017711092E+02 -0.21217265922E+02 -0.67051028386E+03  0.67648236132E+03  0.47000000000E+01 0. -1.
         -5    1    4    4    0  502 -0.91716310239E+02  0.14964438214E+02 -0.32736958979E+03  0.34033623712E+03  0.47000000000E+01 0.  1.
<mgrwt>
<rscale>  0 0.11660247E+03</rscale>
<asrwt>0</asrwt>
<pdfrwt beam="1">  1        1 0.17585892E+00 0.11719684E+03</pdfrwt>
<pdfrwt beam="2">  1       -1 0.20358993E-02 0.11719684E+03</pdfrwt>
<totfact> 0.80837557E+03</totfact>
</mgrwt>
</event>
<event>
 8    1  0.3400573E-004  0.1065778E+03  0.7546771E-02  0.1267151E+00
         -1   -1    0    0    0  501 -0.00000000000E+00  0.00000000000E+00  0.87611703413E+02  0.87611703413E+02  0.00000000000E+00 0.  1.
          1   -1    0    0  501    0  0.00000000000E+00 -0.00000000000E+00 -0.33129191327E+03  0.33129191327E+03  0.00000000000E+00 0. -1.
         23    2    1    2    0    0 -0.13116458843E+02 -0.57540220492E+02  0.41627117966E+02  0.11441868551E+03  0.88746268523E+02 0.  0.
         23    2    1    2    0    0  0.13116458843E+02  0.57540220492E+02 -0.28530732782E+03  0.30448493117E+03  0.88475327271E+02 0.  0.
          5    1    3    3  502    0  0.32821488317E+02 -0.37010425637E+02  0.12038889393E+01  0.49704738706E+02  0.47000000000E+01 0. -1.
         -5    1    3    3    0  502 -0.45937947160E+02 -0.20529794855E+02  0.40423229026E+02  0.64713946804E+02  0.47000000000E+01 0.  1.
          5    1    4    4  503    0  0.41853657205E+02  0.40408450985E+02 -0.24516818236E+03  0.25202003725E+03  0.47000000000E+01 0. -1.
         -5    1    4    4    0  503 -0.28737198362E+02  0.17131769507E+02 -0.40139145458E+02  0.52464893922E+02  0.47000000000E+01 0.  1.
<mgrwt>
<rscale>  0 0.10652134E+03</rscale>
<asrwt>0</asrwt>
<pdfrwt beam="1">  1        1 0.50967987E-01 0.10657776E+03</pdfrwt>
<pdfrwt beam="2">  1       -1 0.13478724E-01 0.10657776E+03</pdfrwt>
<totfact> 0.28275394E+03</totfact>
</mgrwt>
</event>
<event>
 8    1  0.3400573E-004  0.1046774E+03  0.7546771E-02  0.1272145E+00
          1   -1    0    0  501    0  0.00000000000E+00  0.00000000000E+00  0.20478641298E+03  0.20478641298E+03  0.00000000000E+00 0. -1.
         -1   -1    0    0    0  501 -0.00000000000E+00 -0.00000000000E+00 -0.65009501520E+02  0.65009501520E+02  0.00000000000E+00 0.  1.
         23    2    1    2    0    0 -0.79848839322E+01 -0.52035475060E+02  0.90314807726E+01  0.10230943589E+03  0.87259406321E+02 0.  0.
         23    2    1    2    0    0  0.79848839322E+01  0.52035475060E+02  0.13074543069E+03  0.16748647861E+03  0.90475984852E+02 0.  0.
          5    1    4    4  502    0  0.48654368733E+02  0.20877736357E+02  0.63234873268E+02  0.82606698696E+02  0.47000000000E+01 0. -1.
         -5    1    4    4    0  502 -0.40669484800E+02  0.31157738703E+02  0.67510557420E+02  0.84879779914E+02  0.47000000000E+01 0.  1.
          5    1    3    3  503    0  0.18387372097E+02  0.17664464150E+02 -0.48029088141E+01  0.26368289277E+02  0.47000000000E+01 0. -1.
         -5    1    3    3    0  503 -0.26372256030E+02 -0.69699939210E+02  0.13834389587E+02  0.75941146615E+02  0.47000000000E+01 0.  1.
<mgrwt>
<rscale>  0 0.10397857E+03</rscale>
<asrwt>0</asrwt>
<pdfrwt beam="1">  1        1 0.31505602E-01 0.10467738E+03</pdfrwt>
<pdfrwt beam="2">  1       -1 0.10001462E-01 0.10467738E+03</pdfrwt>
<totfact> 0.80478222E+03</totfact>
</mgrwt>
</event>
<event>
 8    1  0.3400573E-004  0.1161575E+03  0.7546771E-02  0.1252183E+00
         -1   -1    0    0    0  501 -0.00000000000E+00  0.00000000000E+00  0.21248587397E+03  0.21248587397E+03  0.00000000000E+00 0.  1.
          1   -1    0    0  501    0  0.00000000000E+00 -0.00000000000E+00 -0.63141004298E+02  0.63141004298E+02  0.00000000000E+00 0. -1.
         23    2    1    2    0    0  0.56340423719E+02  0.25719874193E+02  0.10565076121E+03  0.15701797916E+03  0.98269054957E+02 0.  0.
         23    2    1    2    0    0 -0.56340423719E+02 -0.25719874193E+02  0.43694108465E+02  0.11860889911E+03  0.91231247715E+02 0.  0.
          5    1    4    4  502    0  0.19270898777E+02 -0.27362279782E+02  0.19736616654E+02  0.39136759338E+02  0.47000000000E+01 0. -1.
         -5    1    4    4    0  502 -0.75611322496E+02  0.16424055883E+01  0.23957491810E+02  0.79472139769E+02  0.47000000000E+01 0.  1.
          5    1    3    3  503    0  0.13078402778E+02 -0.24800107566E+02 -0.39767119430E+01  0.28705299029E+02  0.47000000000E+01 0. -1.
         -5    1    3    3    0  503  0.43262020941E+02  0.50519981759E+02  0.10962747315E+03  0.12831268013E+03  0.47000000000E+01 0.  1.
<mgrwt>
<rscale>  0 0.11465610E+03</rscale>
<asrwt>0</asrwt>
<pdfrwt beam="1">  1        1 0.97140008E-02 0.11615749E+03</pdfrwt>
<pdfrwt beam="2">  1       -1 0.32690134E-01 0.11615749E+03</pdfrwt>
<totfact> 0.55329752E+03</totfact>
</mgrwt>
</event>
<event>
 8    1  0.3400573E-004  0.1116811E+03  0.7546771E-02  0.1258681E+00
          1   -1    0    0  501    0  0.00000000000E+00  0.00000000000E+00  0.95488788494E+02  0.95488788494E+02  0.00000000000E+00 0. -1.
         -1   -1    0    0    0  501 -0.00000000000E+00 -0.00000000000E+00 -0.12769014256E+03  0.12769014256E+03  0.00000000000E+00 0.  1.
         23    2    1    2    0    0 -0.54997099294E+02 -0.35454010405E+02 -0.13327270753E+02  0.11247350271E+03  0.90504170520E+02 0.  0.
         23    2    1    2    0    0  0.54997099294E+02  0.35454010405E+02 -0.18874083309E+02  0.11070542834E+03  0.87279969400E+02 0.  0.
          5    1    3    3  502    0 -0.58468032916E+02  0.11757524016E+02  0.79702364077E+01  0.60352008354E+02  0.47000000000E+01 0. -1.
         -5    1    4    4    0  503 -0.68151923080E+01 -0.19284011197E+02  0.98201915197E+01  0.23169939480E+02  0.47000000000E+01 0.  1.
          5    1    4    4  503    0  0.61812291602E+02  0.54738021601E+02 -0.28694274829E+02  0.87535488859E+02  0.47000000000E+01 0. -1.
         -5    1    3    3    0  502  0.34709336217E+01 -0.47211534421E+02 -0.21297507160E+02  0.52121494355E+02  0.47000000000E+01 0.  1.
<mgrwt>
<rscale>  0 0.11102627E+03</rscale>
<asrwt>0</asrwt>
<pdfrwt beam="1">  1        1 0.14690583E-01 0.11168112E+03</pdfrwt>
<pdfrwt beam="2">  1       -1 0.19644637E-01 0.11168112E+03</pdfrwt>
<totfact> 0.74104014E+03</totfact>
</mgrwt>
</event>
<event>
 8    1  0.3400573E-004  0.9603742E+02  0.7546771E-02  0.1291118E+00
          1   -1    0    0  501    0  0.00000000000E+00  0.00000000000E+00  0.15170082763E+03  0.15170082763E+03  0.00000000000E+00 0. -1.
         -1   -1    0    0    0  501 -0.00000000000E+00 -0.00000000000E+00 -0.91308874693E+02  0.91308874693E+02  0.00000000000E+00 0.  1.
         23    2    1    2    0    0 -0.24088214073E+02  0.43394551364E+01 -0.43253339462E+02  0.10171026215E+03  0.88741496069E+02 0.  0.
         23    2    1    2    0    0  0.24088214073E+02 -0.43394551364E+01  0.10364529240E+03  0.14129944017E+03  0.92866098376E+02 0.  0.
          5    1    4    4  502    0  0.35819157871E+02 -0.42169064886E+02  0.68148580044E+02  0.87906547344E+02  0.47000000000E+01 0. -1.
         -5    1    3    3    0  503 -0.14904190050E+02 -0.38673398671E+02 -0.28608990009E+01  0.41809584892E+02  0.47000000000E+01 0.  1.
          5    1    3    3  503    0 -0.91840240224E+01  0.43012853807E+02 -0.40392440461E+02  0.59900677261E+02  0.47000000000E+01 0. -1.
         -5    1    4    4    0  502 -0.11730943798E+02  0.37829609750E+02  0.35496712356E+02  0.53392892826E+02  0.47000000000E+01 0.  1.
<mgrwt>
<rscale>  0 0.95025948E+02</rscale>
<asrwt>0</asrwt>
<pdfrwt beam="1">  1        1 0.23338589E-01 0.96037415E+02</pdfrwt>
<pdfrwt beam="2">  1       -1 0.14047519E-01 0.96037415E+02</pdfrwt>
<totfact> 0.68924584E+03</totfact>
</mgrwt>
</event>
<event>
 8    1  0.3400573E-004  0.1075267E+03  0.7546771E-02  0.1265334E+00
         -1   -1    0    0    0  501 -0.00000000000E+00  0.00000000000E+00  0.69482229866E+03  0.69482229866E+03  0.00000000000E+00 0.  1.
          1   -1    0    0  501    0  0.00000000000E+00 -0.00000000000E+00 -0.17723057279E+02  0.17723057279E+02  0.00000000000E+00 0. -1.
         23    2    1    2    0    0 -0.35556107875E+02  0.41568834495E+02  0.42845909561E+03  0.44174562202E+03  0.92573177318E+02 0.  0.
         23    2    1    2    0    0  0.35556107875E+02 -0.41568834495E+02  0.24864014577E+03  0.27079973391E+03  0.92295010645E+02 0.  0.
          5    1    4    4  502    0  0.37521509664E+02  0.13421715572E+02  0.47321834111E+02  0.62043953130E+02  0.47000000000E+01 0. -1.
         -5    1    4    4    0  502 -0.19654017899E+01 -0.54990550066E+02  0.20131831166E+03  0.20875578078E+03  0.47000000000E+01 0.  1.
          5    1    3    3  503    0  0.25598686246E+02 -0.50183353662E+00  0.53696144585E+02  0.59673365229E+02  0.47000000000E+01 0. -1.
         -5    1    3    3    0  503 -0.61154794120E+02  0.42070668031E+02  0.37476295102E+03  0.38207225679E+03  0.47000000000E+01 0.  1.
<mgrwt>
<rscale>  0 0.10746683E+03</rscale>
<asrwt>0</asrwt>
<pdfrwt beam="1">  1        1 0.27266247E-02 0.10752673E+03</pdfrwt>
<pdfrwt beam="2">  1       -1 0.10689572E+00 0.10752673E+03</pdfrwt>
<totfact> 0.32028536E+03</totfact>
</mgrwt>
</event>
<event>
 8    1  0.3400573E-004  0.1052844E+03  0.7546771E-02  0.1271753E+00
          1   -1    0    0  501    0  0.00000000000E+00  0.00000000000E+00  0.61238554900E+03  0.61238554900E+03  0.00000000000E+00 0. -1.
         -1   -1    0    0    0  501 -0.00000000000E+00 -0.00000000000E+00 -0.20626801329E+02  0.20626801329E+02  0.00000000000E+00 0.  1.
         23    2    1    2    0    0 -0.75935535778E+01  0.48433828463E+02  0.16463184335E+03  0.19310076319E+03  0.88208633959E+02 0.  0.
         23    2    1    2    0    0  0.75935535778E+01 -0.48433828463E+02  0.42712690432E+03  0.43991158714E+03  0.93173570863E+02 0.  0.
          5    1    3    3  502    0 -0.52369162596E+01  0.74158333758E+02  0.11668311693E+03  0.13843382366E+03  0.47000000000E+01 0.  1.
         -5    1    3    3    0  502 -0.23566373182E+01 -0.25724505295E+02  0.47948726421E+02  0.54666939530E+02  0.47000000000E+01 0. -1.
          5    1    4    4  503    0 -0.42180658492E+00 -0.76015773970E+02  0.31257284877E+03  0.32171796904E+03  0.47000000000E+01 0. -1.
         -5    1    4    4    0  503  0.80153601627E+01  0.27581945507E+02  0.11455405555E+03  0.11819361810E+03  0.47000000000E+01 0.  1.
<mgrwt>
<rscale>  0 0.10417519E+03</rscale>
<asrwt>0</asrwt>
<pdfrwt beam="1">  1        1 0.94213148E-01 0.10528443E+03</pdfrwt>
<pdfrwt beam="2">  1       -1 0.31733545E-02 0.10528443E+03</pdfrwt>
<totfact> 0.11102098E+04</totfact>
</mgrwt>
</event>
<event>
 8    1  0.3400573E-004  0.9689635E+02  0.7546771E-02  0.1287995E+00
         -2   -1    0    0    0  501 -0.00000000000E+00  0.00000000000E+00  0.37585225197E+02  0.37585225197E+02  0.00000000000E+00 0.  1.
          2   -1    0    0  501    0  0.00000000000E+00 -0.00000000000E+00 -0.28602753958E+03  0.28602753958E+03  0.00000000000E+00 0. -1.
         23    2    1    2    0    0 -0.71386796057E+01  0.25411483957E+02 -0.63989615385E+02  0.11611879222E+03  0.93231962146E+02 0.  0.
         23    2    1    2    0    0  0.71386796057E+01 -0.25411483957E+02 -0.18445269900E+03  0.20749397256E+03  0.91292092851E+02 0.  0.
          5    1    3    3  502    0  0.76656414771E+01  0.40917272011E+02 -0.79074920517E+02  0.89486972587E+02  0.47000000000E+01 0. -1.
         -5    1    4    4    0  503  0.32079597253E+02 -0.27130689427E+02 -0.32230183280E+02  0.53160601792E+02  0.47000000000E+01 0.  1.
          5    1    4    4  503    0 -0.24940917647E+02  0.17192054700E+01 -0.15222251572E+03  0.15433337077E+03  0.47000000000E+01 0. -1.
         -5    1    3    3    0  502 -0.14804321083E+02 -0.15505788055E+02  0.15085305132E+02  0.26631819631E+02  0.47000000000E+01 0.  1.
<mgrwt>
<rscale>  0 0.96426689E+02</rscale>
<asrwt>0</asrwt>
<pdfrwt beam="1">  1        2 0.44004236E-01 0.96896352E+02</pdfrwt>
<pdfrwt beam="2">  1       -2 0.57823424E-02 0.96896352E+02</pdfrwt>
<totfact> 0.16382028E+04</totfact>
</mgrwt>
</event>
<event>
 8    1  0.3400573E-004  0.1030421E+03  0.7546771E-02  0.1278970E+00
          1   -1    0    0  501    0  0.00000000000E+00  0.00000000000E+00  0.65427624318E+02  0.65427624318E+02  0.00000000000E+00 0. -1.
         -1   -1    0    0    0  501 -0.00000000000E+00 -0.00000000000E+00 -0.14796632394E+03  0.14796632394E+03  0.00000000000E+00 0.  1.
         23    2    1    2    0    0  0.88946108371E+01  0.10977205218E+02 -0.43871537664E+02  0.11199281501E+03  0.10206892603E+03 0.  0.
         23    2    1    2    0    0 -0.88946108371E+01 -0.10977205218E+02 -0.38667161963E+02  0.10140113325E+03  0.92668372563E+02 0.  0.
          5    1    3    3  502    0 -0.24970193699E+02 -0.21462685695E+02  0.15078431851E+02  0.36518578254E+02  0.47000000000E+01 0. -1.
         -5    1    4    4    0  503 -0.32349216320E+02  0.27281572635E+02 -0.36741512103E+02  0.56238640751E+02  0.47000000000E+01 0.  1.
          5    1    4    4  503    0  0.23454605483E+02 -0.38258777853E+02 -0.19256498596E+01  0.45162492497E+02  0.47000000000E+01 0. -1.
         -5    1    3    3    0  502  0.33864804536E+02  0.32439890913E+02 -0.58949969515E+02  0.75474236760E+02  0.47000000000E+01 0.  1.
<mgrwt>
<rscale>  0 0.10063323E+03</rscale>
<asrwt>0</asrwt>
<pdfrwt beam="1">  1        1 0.10065788E-01 0.10304212E+03</pdfrwt>
<pdfrwt beam="2">  1       -1 0.22764050E-01 0.10304212E+03</pdfrwt>
<totfact> 0.95036636E+03</totfact>
</mgrwt>
</event>
<event>
 8    1  0.3400573E-004  0.1030897E+03  0.7546771E-02  0.1276719E+00
         -1   -1    0    0    0  501 -0.00000000000E+00  0.00000000000E+00  0.31795008618E+02  0.31795008618E+02  0.00000000000E+00 0.  1.
          1   -1    0    0  501    0  0.00000000000E+00 -0.00000000000E+00 -0.32796214880E+03  0.32796214880E+03  0.00000000000E+00 0. -1.
         23    2    1    2    0    0  0.35174225050E+02  0.28626646720E+00 -0.17702477011E+03  0.20220591312E+03  0.91171015193E+02 0.  0.
         23    2    1    2    0    0 -0.35174225050E+02 -0.28626646720E+00 -0.11914237007E+03  0.15755124430E+03  0.96902952366E+02 0.  0.
          5    1    4    4  502    0 -0.11977846352E+02 -0.26537673696E+02  0.37012284313E+01  0.29723829167E+02  0.47000000000E+01 0. -1.
         -5    1    3    3    0  503  0.52812525681E+02  0.26018557527E+02 -0.75287934910E+02  0.95689557150E+02  0.47000000000E+01 0.  1.
          5    1    3    3  503    0 -0.17638300631E+02 -0.25732291060E+02 -0.10173683520E+03  0.10651635597E+03  0.47000000000E+01 0. -1.
         -5    1    4    4    0  502 -0.23196378698E+02  0.26251407229E+02 -0.12284359850E+03  0.12782741513E+03  0.47000000000E+01 0.  1.
<mgrwt>
<rscale>  0 0.10172059E+03</rscale>
<asrwt>0</asrwt>
<pdfrwt beam="1">  1        1 0.50455717E-01 0.10308972E+03</pdfrwt>
<pdfrwt beam="2">  1       -1 0.48915396E-02 0.10308972E+03</pdfrwt>
<totfact> 0.13085956E+04</totfact>
</mgrwt>
</event>
<event>
 8    1  0.3400573E-004  0.1009833E+03  0.7546771E-02  0.1281132E+00
          1   -1    0    0  501    0  0.00000000000E+00  0.00000000000E+00  0.97444338907E+03  0.97444338907E+03  0.00000000000E+00 0. -1.
         -1   -1    0    0    0  501 -0.00000000000E+00 -0.00000000000E+00 -0.10311324929E+02  0.10311324929E+02  0.00000000000E+00 0.  1.
         23    2    1    2    0    0 -0.21005977101E+02 -0.21304878257E+02  0.56615640636E+03  0.57416701286E+03  0.90771874952E+02 0.  0.
         23    2    1    2    0    0  0.21005977101E+02  0.21304878257E+02  0.39797565778E+03  0.41058770114E+03  0.96449402433E+02 0.  0.
          5    1    4    4  502    0  0.41665112299E+02 -0.84651913055E+01  0.33546381323E+03  0.33817998319E+03  0.47000000000E+01 0. -1.
         -5    1    3    3    0  503 -0.54131056858E+02  0.19580750594E+01  0.35095108614E+03  0.35513766378E+03  0.47000000000E+01 0.  1.
          5    1    3    3  503    0  0.33125079757E+02 -0.23262953316E+02  0.21520532022E+03  0.21902934908E+03  0.47000000000E+01 0. -1.
         -5    1    4    4    0  502 -0.20659135198E+02  0.29770069562E+02  0.62511844552E+02  0.72407717946E+02  0.47000000000E+01 0.  1.
<mgrwt>
<rscale>  0 0.99603362E+02</rscale>
<asrwt>0</asrwt>
<pdfrwt beam="1">  1        1 0.14991430E+00 0.10098335E+03</pdfrwt>
<pdfrwt beam="2">  1       -1 0.15863584E-02 0.10098335E+03</pdfrwt>
<totfact> 0.15070191E+04</totfact>
</mgrwt>
</event>
<event>
 8    1  0.3400573E-004  0.1256271E+03  0.7546771E-02  0.1240403E+00
         -1   -1    0    0    0  501 -0.00000000000E+00  0.00000000000E+00  0.29342263759E+03  0.29342263759E+03  0.00000000000E+00 0.  1.
          1   -1    0    0  501    0  0.00000000000E+00 -0.00000000000E+00 -0.51520597665E+02  0.51520597665E+02  0.00000000000E+00 0. -1.
         23    2    1    2    0    0 -0.42123762756E+02 -0.49054617801E+02  0.17629457075E+03  0.21647617194E+03  0.10770975084E+03 0.  0.
         23    2    1    2    0    0  0.42123762756E+02  0.49054617801E+02  0.65607469181E+02  0.12846706332E+03  0.89547079397E+02 0.  0.
          5    1    3    3  502    0 -0.40061203828E+00 -0.53952554463E+02  0.25486292407E+02  0.59855490339E+02  0.47000000000E+01 0. -1.
         -5    1    4    4    0  503 -0.15568264506E+02 -0.14513225018E+02  0.25656020243E+02  0.33664906577E+02  0.47000000000E+01 0.  1.
          5    1    4    4  503    0  0.57692027262E+02  0.63567842819E+02  0.39951448938E+02  0.94802156740E+02  0.47000000000E+01 0. -1.
         -5    1    3    3    0  502 -0.41723150718E+02  0.48979366625E+01  0.15080827834E+03  0.15662068160E+03  0.47000000000E+01 0.  1.
<mgrwt>
<rscale>  0 0.12164798E+03</rscale>
<asrwt>0</asrwt>
<pdfrwt beam="1">  1        1 0.79262460E-02 0.12562706E+03</pdfrwt>
<pdfrwt beam="2">  1       -1 0.45141943E-01 0.12562706E+03</pdfrwt>
<totfact> 0.41621531E+03</totfact>
</mgrwt>
</event>
<event>
 8    1  0.3400573E-004  0.1094162E+03  0.7546771E-02  0.1262456E+00
         -1   -1    0    0    0  501 -0.00000000000E+00  0.00000000000E+00  0.29908103789E+02  0.29908103789E+02  0.00000000000E+00 0.  1.
          1   -1    0    0  501    0  0.00000000000E+00 -0.00000000000E+00 -0.39424431514E+03  0.39424431514E+03  0.00000000000E+00 0. -1.
         23    2    1    2    0    0  0.48909013119E+02  0.37087664468E+02 -0.17930920903E+03  0.21005641648E+03  0.90577697258E+02 0.  0.
         23    2    1    2    0    0 -0.48909013119E+02 -0.37087664468E+02 -0.18502700232E+03  0.21409600245E+03  0.88512825385E+02 0.  0.
          5    1    4    4  502    0  0.47279954050E+01 -0.51018647706E+02 -0.77269292657E+02  0.92832590947E+02  0.47000000000E+01 0. -1.
         -5    1    4    4    0  502 -0.53637008524E+02  0.13930983238E+02 -0.10775770967E+03  0.12126341151E+03  0.47000000000E+01 0.  1.
          5    1    3    3  503    0  0.74530413813E+02  0.28367965698E+02 -0.14960621698E+03  0.16959844993E+03  0.47000000000E+01 0. -1.
         -5    1    3    3    0  503 -0.25621400694E+02  0.87196987700E+01 -0.29702992055E+02  0.40457966548E+02  0.47000000000E+01 0.  1.
<mgrwt>
<rscale>  0 0.10898791E+03</rscale>
<asrwt>0</asrwt>
<pdfrwt beam="1">  1        1 0.60652973E-01 0.10941620E+03</pdfrwt>
<pdfrwt beam="2">  1       -1 0.46012466E-02 0.10941620E+03</pdfrwt>
<totfact> 0.11454192E+04</totfact>
</mgrwt>
</event>
<event>
 8    1  0.3400573E-004  0.9899643E+02  0.7546771E-02  0.1283252E+00
          1   -1    0    0  501    0  0.00000000000E+00  0.00000000000E+00  0.44422054028E+02  0.44422054028E+02  0.00000000000E+00 0. -1.
         -1   -1    0    0    0  501 -0.00000000000E+00 -0.00000000000E+00 -0.50911369761E+03  0.50911369761E+03  0.00000000000E+00 0.  1.
         23    2    1    2    0    0  0.17253688087E+02  0.26583723147E+02 -0.44114175043E+03  0.45177676777E+03  0.92151070736E+02 0.  0.
         23    2    1    2    0    0 -0.17253688087E+02 -0.26583723147E+02 -0.23549893155E+02  0.10175898387E+03  0.93786508846E+02 0.  0.
          5    1    3    3  502    0  0.35319985223E+02 -0.57943393180E+01 -0.70020745187E+02  0.78778616901E+02  0.47000000000E+01 0. -1.
         -5    1    3    3    0  502 -0.18066297136E+02  0.32378062465E+02 -0.37112100524E+03  0.37299815087E+03  0.47000000000E+01 0.  1.
          5    1    4    4  503    0 -0.44310367911E+02  0.41140279733E+01  0.13098716959E+02  0.46626176302E+02  0.47000000000E+01 0. -1.
         -5    1    4    4    0  503  0.27056679824E+02 -0.30697751120E+02 -0.36648610114E+02  0.55132807567E+02  0.47000000000E+01 0.  1.
<mgrwt>
<rscale>  0 0.98607150E+02</rscale>
<asrwt>0</asrwt>
<pdfrwt beam="1">  1        1 0.68341620E-02 0.98996431E+02</pdfrwt>
<pdfrwt beam="2">  1       -1 0.78325186E-01 0.98996431E+02</pdfrwt>
<totfact> 0.17660219E+03</totfact>
</mgrwt>
</event>
<event>
 8    1  0.3400573E-004  0.1105910E+03  0.7546771E-02  0.1262733E+00
          1   -1    0    0  501    0  0.00000000000E+00  0.00000000000E+00  0.47178286543E+03  0.47178286543E+03  0.00000000000E+00 0. -1.
         -1   -1    0    0    0  501 -0.00000000000E+00 -0.00000000000E+00 -0.39825010819E+02  0.39825010819E+02  0.00000000000E+00 0.  1.
         23    2    1    2    0    0 -0.20255497694E+02 -0.45398469029E+02  0.60759738023E+02  0.12618287716E+03  0.98787987871E+02 0.  0.
         23    2    1    2    0    0  0.20255497694E+02  0.45398469029E+02  0.37119811658E+03  0.38542499908E+03  0.91066360334E+02 0.  0.
          5    1    3    3  502    0 -0.51675155244E+02 -0.61840895585E+01  0.74685709704E+01  0.52786685684E+02  0.47000000000E+01 0. -1.
         -5    1    4    4    0  503  0.49834483532E+01 -0.24955045244E+02  0.16392306747E+03  0.16595315932E+03  0.47000000000E+01 0.  1.
          5    1    4    4  503    0  0.15272049341E+02  0.70353514274E+02  0.20727504912E+03  0.21947183976E+03  0.47000000000E+01 0. -1.
         -5    1    3    3    0  502  0.31419657551E+02 -0.39214379471E+02  0.53291167053E+02  0.73396191480E+02  0.47000000000E+01 0.  1.
<mgrwt>
<rscale>  0 0.10884001E+03</rscale>
<asrwt>0</asrwt>
<pdfrwt beam="1">  1        1 0.72581975E-01 0.11059102E+03</pdfrwt>
<pdfrwt beam="2">  1       -1 0.61269251E-02 0.11059102E+03</pdfrwt>
<totfact> 0.59895917E+03</totfact>
</mgrwt>
</event>
<event>
 8    1  0.3400573E-004  0.1005142E+03  0.7546771E-02  0.1279824E+00
         -2   -1    0    0    0  501 -0.00000000000E+00  0.00000000000E+00  0.12838252397E+02  0.12838252397E+02  0.00000000000E+00 0.  1.
          2   -1    0    0  501    0  0.00000000000E+00 -0.00000000000E+00 -0.78249663176E+03  0.78249663176E+03  0.00000000000E+00 0. -1.
         23    2    1    2    0    0 -0.15901388631E+01 -0.39875909926E+02 -0.35231460968E+03  0.36605766270E+03  0.90994568497E+02 0.  0.
         23    2    1    2    0    0  0.15901388631E+01  0.39875909926E+02 -0.41734376969E+03  0.42927722146E+03  0.92252338895E+02 0.  0.
          5    1    4    4  502    0 -0.29467483825E+02 -0.32796708264E+01 -0.51905097807E+02  0.59960970823E+02  0.47000000000E+01 0. -1.
         -5    1    3    3    0  503 -0.45499479120E+02 -0.20426292336E+02 -0.15333294851E+03  0.16130876950E+03  0.47000000000E+01 0.  1.
          5    1    3    3  503    0  0.43909340257E+02 -0.19449617590E+02 -0.19898166117E+03  0.20474889320E+03  0.47000000000E+01 0. -1.
         -5    1    4    4    0  502  0.31057622688E+02  0.43155580752E+02 -0.36543867188E+03  0.36931625064E+03  0.47000000000E+01 0.  1.
<mgrwt>
<rscale>  0 0.10022470E+03</rscale>
<asrwt>0</asrwt>
<pdfrwt beam="1">  1        2 0.12038410E+00 0.10051423E+03</pdfrwt>
<pdfrwt beam="2">  1       -2 0.19751156E-02 0.10051423E+03</pdfrwt>
<totfact> 0.26392047E+04</totfact>
</mgrwt>
</event>
<event>
 8    1  0.3400573E-004  0.9943743E+02  0.7546771E-02  0.1282657E+00
          3   -1    0    0  501    0  0.00000000000E+00  0.00000000000E+00  0.38729435781E+02  0.38729435781E+02  0.00000000000E+00 0. -1.
         -3   -1    0    0    0  501 -0.00000000000E+00 -0.00000000000E+00 -0.27879792802E+03  0.27879792802E+03  0.00000000000E+00 0.  1.
         23    2    1    2    0    0  0.26693967591E+02 -0.23484405516E+02 -0.17011080172E+03  0.19594660239E+03  0.90516854332E+02 0.  0.
         23    2    1    2    0    0 -0.26693967591E+02  0.23484405516E+02 -0.69957690521E+02  0.12158076141E+03  0.92863975117E+02 0.  0.
          5    1    4    4  502    0 -0.50271439040E+02  0.18537172699E+02 -0.72901091452E+01  0.54277804361E+02  0.47000000000E+01 0. -1.
         -5    1    4    4    0  502  0.23577471450E+02  0.49472328166E+01 -0.62667581376E+02  0.67302957052E+02  0.47000000000E+01 0.  1.
          5    1    3    3  503    0 -0.33414629868E+02 -0.71513325767E+01 -0.67915392319E+02  0.76172629997E+02  0.47000000000E+01 0. -1.
         -5    1    3    3    0  503  0.60108597459E+02 -0.16333072939E+02 -0.10219540940E+03  0.11977397239E+03  0.47000000000E+01 0.  1.
<mgrwt>
<rscale>  0 0.98885774E+02</rscale>
<asrwt>0</asrwt>
<pdfrwt beam="1">  1        3 0.59583746E-02 0.99437433E+02</pdfrwt>
<pdfrwt beam="2">  1       -3 0.42891990E-01 0.99437433E+02</pdfrwt>
<totfact> 0.20183314E+03</totfact>
</mgrwt>
</event>
<event>
 8    1  0.3400573E-004  0.1146509E+03  0.7546771E-02  0.1261065E+00
         -3   -1    0    0    0  501 -0.00000000000E+00  0.00000000000E+00  0.15698410034E+03  0.15698410034E+03  0.00000000000E+00 0.  1.
          3   -1    0    0  501    0  0.00000000000E+00 -0.00000000000E+00 -0.22172679517E+03  0.22172679517E+03  0.00000000000E+00 0. -1.
         23    2    1    2    0    0  0.23438307354E+02 -0.91223204037E+01  0.12456359506E+03  0.15739281248E+03  0.92864617720E+02 0.  0.
         23    2    1    2    0    0 -0.23438307354E+02  0.91223204037E+01 -0.18930628989E+03  0.22131808302E+03  0.11185817583E+03 0.  0.
          5    1    4    4  502    0  0.37070156884E+01  0.54866116381E+02 -0.13155151492E+03  0.14266016883E+03  0.47000000000E+01 0. -1.
         -5    1    4    4    0  502 -0.27145323042E+02 -0.45743795978E+02 -0.57754774972E+02  0.78657914195E+02  0.47000000000E+01 0.  1.
          5    1    3    3  503    0 -0.34306758426E+02 -0.51665398735E+01  0.67165011402E+02  0.75742165038E+02  0.47000000000E+01 0. -1.
         -5    1    3    3    0  503  0.57745065779E+02 -0.39557805302E+01  0.57398583661E+02  0.81650647443E+02  0.47000000000E+01 0.  1.
<mgrwt>
<rscale>  0 0.10973327E+03</rscale>
<asrwt>0</asrwt>
<pdfrwt beam="1">  1        3 0.34111815E-01 0.11465087E+03</pdfrwt>
<pdfrwt beam="2">  1       -3 0.24151400E-01 0.11465087E+03</pdfrwt>
<totfact> 0.30696253E+02</totfact>
</mgrwt>
</event>
<event>
 8    1  0.3400573E-004  0.1097810E+03  0.7546771E-02  0.1261130E+00
          1   -1    0    0  501    0  0.00000000000E+00  0.00000000000E+00  0.46264463178E+03  0.46264463178E+03  0.00000000000E+00 0. -1.
         -1   -1    0    0    0  501 -0.00000000000E+00 -0.00000000000E+00 -0.42462326139E+02  0.42462326139E+02  0.00000000000E+00 0.  1.
         23    2    1    2    0    0 -0.41474272083E+01 -0.61773036093E+02  0.52509500389E+02  0.12139460738E+03  0.90256822062E+02 0.  0.
         23    2    1    2    0    0  0.41474272083E+01  0.61773036093E+02  0.36767280525E+03  0.38371235054E+03  0.90657416110E+02 0.  0.
          5    1    4    4  502    0  0.32663411116E+02  0.54826200624E+02  0.13788933433E+03  0.15201437177E+03  0.47000000000E+01 0. -1.
         -5    1    4    4    0  502 -0.28515983908E+02  0.69468354696E+01  0.22978347092E+03  0.23169797877E+03  0.47000000000E+01 0.  1.
          5    1    3    3  503    0 -0.36933943291E+02 -0.51117265898E+02  0.58430856745E+02  0.86100790124E+02  0.47000000000E+01 0. -1.
         -5    1    3    3    0  503  0.32786516083E+02 -0.10655770195E+02 -0.59213563554E+01  0.35293817255E+02  0.47000000000E+01 0.  1.
<mgrwt>
<rscale>  0 0.10969830E+03</rscale>
<asrwt>0</asrwt>
<pdfrwt beam="1">  1        1 0.71176094E-01 0.10978104E+03</pdfrwt>
<pdfrwt beam="2">  1       -1 0.65326659E-02 0.10978104E+03</pdfrwt>
<totfact> 0.55810900E+03</totfact>
</mgrwt>
</event>
<event>
 8    1  0.3400573E-004  0.1003217E+03  0.7546771E-02  0.1280368E+00
          2   -1    0    0  501    0  0.00000000000E+00  0.00000000000E+00  0.30383204451E+03  0.30383204451E+03  0.00000000000E+00 0. -1.
         -2   -1    0    0    0  501 -0.00000000000E+00 -0.00000000000E+00 -0.39374614922E+02  0.39374614922E+02  0.00000000000E+00 0.  1.
         23    2    1    2    0    0 -0.34013724950E+02  0.21645244057E+02  0.20231751548E+03  0.22519894808E+03  0.90314666967E+02 0.  0.
         23    2    1    2    0    0  0.34013724950E+02 -0.21645244057E+02  0.62139914109E+02  0.11800771136E+03  0.91864035067E+02 0.  0.
          5    1    3    3  502    0 -0.59789364023E+02  0.15885585241E+02  0.87337719120E+02  0.10713116750E+03  0.47000000000E+01 0. -1.
         -5    1    3    3    0  502  0.25775639074E+02  0.57596588161E+01  0.11497979636E+03  0.11806778058E+03  0.47000000000E+01 0.  1.
          5    1    4    4  503    0 -0.55464256414E+01  0.31287279450E+02  0.98145206385E+01  0.33586775793E+02  0.47000000000E+01 0. -1.
         -5    1    4    4    0  503  0.39560150591E+02 -0.52932523507E+02  0.52325393471E+02  0.84420935564E+02  0.47000000000E+01 0.  1.
<mgrwt>
<rscale>  0 0.99965649E+02</rscale>
<asrwt>0</asrwt>
<pdfrwt beam="1">  1        2 0.46743390E-01 0.10032174E+03</pdfrwt>
<pdfrwt beam="2">  1       -2 0.60576333E-02 0.10032174E+03</pdfrwt>
<totfact> 0.14387097E+04</totfact>
</mgrwt>
</event>
