<event>
 8    1  0.2018715E-005  0.2127130E+03  0.7546771E-02  0.1139948E+00
          1   -1    0    0  501    0  0.00000000000E+00  0.00000000000E+00  0.17255352472E+04  0.17255352472E+04  0.00000000000E+00 0. -1.
         -1   -1    0    0    0  501 -0.00000000000E+00 -0.00000000000E+00 -0.52710204128E+02  0.52710204128E+02  0.00000000000E+00 0.  1.
         25    2    1    2    0    0  0.16723615550E+03  0.40659878235E+02  0.14730515248E+04  0.14883304738E+04  0.12500258791E+03 0.  0.
         23    2    1    2    0    0 -0.16723615550E+03 -0.40659878235E+02  0.19977351820E+03  0.28991497750E+03  0.12049928715E+03 0.  0.
          5    1    3    3  502    0  0.14786939810E+03  0.33421573566E+02  0.14461301707E+04  0.14540622136E+04  0.47000000000E+01 0.  1.
         -5    1    4    4    0  503 -0.13548410665E+03  0.10424876463E+01  0.19441866656E+03  0.23701843355E+03  0.47000000000E+01 0. -1.
          5    1    4    4  503    0 -0.31752048848E+02 -0.41702365882E+02  0.53548516386E+01  0.52896543954E+02  0.47000000000E+01 0. -1.
         -5    1    3    3    0  502  0.19366757394E+02  0.72383046698E+01  0.26921354143E+02  0.34268260174E+02  0.47000000000E+01 0.  1.
<mgrwt>
<rscale>  0 0.21205623E+03</rscale>
<asrwt>0</asrwt>
<pdfrwt beam="1">  1        1 0.26546692E+00 0.21271296E+03</pdfrwt>
<pdfrwt beam="2">  1       -1 0.81092635E-02 0.21271296E+03</pdfrwt>
<totfact> 0.43376172E+02</totfact>
</mgrwt>
</event>
<event>
 8    1  0.2018715E-005  0.1285524E+03  0.7546771E-02  0.1237116E+00
          2   -1    0    0  501    0  0.00000000000E+00  0.00000000000E+00  0.41237338916E+03  0.41237338916E+03  0.00000000000E+00 0. -1.
         -2   -1    0    0    0  501 -0.00000000000E+00 -0.00000000000E+00 -0.40825432702E+02  0.40825432702E+02  0.00000000000E+00 0.  1.
         25    2    1    2    0    0  0.23725064009E+02 -0.18183164639E+02  0.10931408649E+03  0.16874623232E+03  0.12502885778E+03 0.  0.
         23    2    1    2    0    0 -0.23725064009E+02  0.18183164639E+02  0.26223386997E+03  0.28445258954E+03  0.10608094551E+03 0.  0.
          5    1    3    3  502    0  0.35224767608E+02 -0.59614022101E+02  0.10419217414E+03  0.12519071465E+03  0.47000000000E+01 0.  1.
         -5    1    3    3    0  502 -0.11499703598E+02  0.41430857463E+02  0.51219123494E+01  0.43555517665E+02  0.47000000000E+01 0.  1.
          5    1    4    4  503    0  0.36096634057E+02  0.16236349518E+02  0.16842145210E+03  0.17307357269E+03  0.47000000000E+01 0. -1.
         -5    1    4    4    0  503 -0.59821698066E+02  0.19468151208E+01  0.93812417872E+02  0.11137901686E+03  0.47000000000E+01 0.  1.
<mgrwt>
<rscale>  0 0.12369932E+03</rscale>
<asrwt>0</asrwt>
<pdfrwt beam="1">  1        2 0.63442057E-01 0.12855241E+03</pdfrwt>
<pdfrwt beam="2">  1       -2 0.62808361E-02 0.12855241E+03</pdfrwt>
<totfact> 0.10068199E+04</totfact>
</mgrwt>
</event>
<event>
 7    1  0.2018715E-005  0.1451187E+03  0.7546771E-02  0.1210826E+00
          2   -1    0    0  501    0  0.00000000000E+00  0.00000000000E+00  0.30814154331E+03  0.30814154331E+03  0.00000000000E+00 0. -1.
         -2   -1    0    0    0  501 -0.00000000000E+00 -0.00000000000E+00 -0.72834668622E+02  0.72834668622E+02  0.00000000000E+00 0.  1.
         25    2    1    2    0    0 -0.44164911123E+02  0.16698751825E+01  0.41627085718E+02  0.13896115223E+03  0.12499623877E+03 0.  0.
          5    1    1    2  502    0 -0.46151353472E+02  0.18821596473E+02  0.89443083271E+02  0.10250051252E+03  0.47000000000E+01 0. -1.
         -5    1    3    3    0  503  0.26576259839E+02  0.29301349166E+02 -0.16590336259E+02  0.43153167986E+02  0.47000000000E+01 0. -1.
          5    1    3    3  503    0 -0.70741170962E+02 -0.27631473984E+02  0.58217421978E+02  0.95807984246E+02  0.47000000000E+01 0. -1.
         -5    1    1    2    0  502  0.90316264595E+02 -0.20491471655E+02  0.10423670570E+03  0.13951454718E+03  0.47000000000E+01 0.  1.
<mgrwt>
<rscale>  0 0.14187692E+03</rscale>
<asrwt>0</asrwt>
<pdfrwt beam="1">  1        2 0.47406391E-01 0.14511867E+03</pdfrwt>
<pdfrwt beam="2">  1       -2 0.11205334E-01 0.14511867E+03</pdfrwt>
<totfact> 0.56367481E+03</totfact>
</mgrwt>
</event>
<event>
 7    1  0.2018715E-005  0.1300075E+03  0.7546771E-02  0.1262270E+00
          3   -1    0    0  501    0  0.00000000000E+00  0.00000000000E+00  0.37330946323E+02  0.37330946323E+02  0.00000000000E+00 0. -1.
         -3   -1    0    0    0  501 -0.00000000000E+00 -0.00000000000E+00 -0.26058037990E+03  0.26058037990E+03  0.00000000000E+00 0.  1.
         25    2    1    2    0    0  0.89902649966E+01 -0.34598280176E+02 -0.12458422537E+03  0.18006434742E+03  0.12499629652E+03 0.  0.
          5    1    1    2  502    0  0.12551867286E+02  0.28574006731E+02 -0.23684287787E+02  0.39459583386E+02  0.47000000000E+01 0. -1.
         -5    1    1    2    0  502 -0.21542132282E+02  0.60242734449E+01 -0.74980920421E+02  0.78387395422E+02  0.47000000000E+01 0.  1.
          5    1    3    3  503    0 -0.54511145462E+02  0.81453383793E+00 -0.70911663015E+02  0.89569427800E+02  0.47000000000E+01 0.  1.
         -5    1    3    3    0  503  0.63501410458E+02 -0.35412814014E+02 -0.53672562357E+02  0.90494919617E+02  0.47000000000E+01 0.  1.
<mgrwt>
<rscale>  0 0.10908690E+03</rscale>
<asrwt>0</asrwt>
<pdfrwt beam="1">  1        3 0.57432227E-02 0.13000746E+03</pdfrwt>
<pdfrwt beam="2">  1       -3 0.40089288E-01 0.13000746E+03</pdfrwt>
<totfact> 0.25646437E+03</totfact>
</mgrwt>
</event>
<event>
 7    1  0.2018715E-005  0.1540600E+03  0.7546771E-02  0.1217130E+00
          2   -1    0    0  501    0  0.00000000000E+00  0.00000000000E+00  0.21147007648E+03  0.21147007648E+03  0.00000000000E+00 0. -1.
         -2   -1    0    0    0  501 -0.00000000000E+00 -0.00000000000E+00 -0.74853442712E+02  0.74853442712E+02  0.00000000000E+00 0.  1.
         25    2    1    2    0    0 -0.22003839448E+01  0.90010175906E+02  0.73927569963E+02  0.17087942240E+03  0.12501127126E+03 0.  0.
          5    1    3    3  502    0  0.58784464858E+02  0.33221204886E+02  0.49691652882E+02  0.83967923214E+02  0.47000000000E+01 0.  1.
         -5    1    3    3    0  502 -0.60984848803E+02  0.56788971021E+02  0.24235917081E+02  0.86911499181E+02  0.47000000000E+01 0.  1.
          5    1    1    2  503    0 -0.12980198019E+02 -0.16410378074E+02  0.17047357442E+02  0.27395044167E+02  0.47000000000E+01 0. -1.
         -5    1    1    2    0  503  0.15180581964E+02 -0.73599797832E+02  0.45641706368E+02  0.88049052635E+02  0.47000000000E+01 0.  1.
<mgrwt>
<rscale>  0 0.13721246E+03</rscale>
<asrwt>0</asrwt>
<pdfrwt beam="1">  1        2 0.32533858E-01 0.15406003E+03</pdfrwt>
<pdfrwt beam="2">  1       -2 0.11515914E-01 0.15406003E+03</pdfrwt>
<totfact> 0.81002872E+03</totfact>
</mgrwt>
</event>
<event>
 8    1  0.2018715E-005  0.1852559E+03  0.7546771E-02  0.1170420E+00
         -1   -1    0    0    0  501 -0.00000000000E+00  0.00000000000E+00  0.21986111552E+03  0.21986111552E+03  0.00000000000E+00 0.  1.
          1   -1    0    0  501    0  0.00000000000E+00 -0.00000000000E+00 -0.15206464808E+03  0.15206464808E+03  0.00000000000E+00 0. -1.
         25    2    1    2    0    0 -0.24928677424E+02  0.13443432290E+03 -0.30799826869E+02  0.18779880208E+03  0.12500293835E+03 0.  0.
         23    2    1    2    0    0  0.24928677424E+02 -0.13443432290E+03  0.98596294312E+02  0.18412696152E+03  0.74077544337E+02 0.  0.
          5    1    4    4  502    0  0.32708165052E+02 -0.94305419529E+02  0.30345512439E+02  0.10443311897E+03  0.47000000000E+01 0. -1.
         -5    1    3    3    0  503  0.29103796150E+02  0.91810883628E+02  0.24381128037E+02  0.99462549270E+02  0.47000000000E+01 0. -1.
          5    1    3    3  503    0 -0.54032473574E+02  0.42623439275E+02 -0.55180954906E+02  0.88336252810E+02  0.47000000000E+01 0. -1.
         -5    1    4    4    0  502 -0.77794876285E+01 -0.40128903375E+02  0.68250781873E+02  0.79693842548E+02  0.47000000000E+01 0.  1.
<mgrwt>
<rscale>  0 0.17732277E+03</rscale>
<asrwt>0</asrwt>
<pdfrwt beam="1">  1        1 0.23394561E-01 0.18525593E+03</pdfrwt>
<pdfrwt beam="2">  1       -1 0.33824787E-01 0.18525593E+03</pdfrwt>
<totfact> 0.17095848E+03</totfact>
</mgrwt>
</event>
<event>
 8    1  0.2018715E-005  0.1361091E+03  0.7546771E-02  0.1221730E+00
         -2   -1    0    0    0  501 -0.00000000000E+00  0.00000000000E+00  0.12419129769E+02  0.12419129769E+02  0.00000000000E+00 0.  1.
          2   -1    0    0  501    0  0.00000000000E+00 -0.00000000000E+00 -0.14024517133E+04  0.14024517133E+04  0.00000000000E+00 0. -1.
         25    2    1    2    0    0 -0.47481235619E+02  0.25334016408E+02 -0.68861032649E+03  0.70193294686E+03  0.12501759882E+03 0.  0.
         23    2    1    2    0    0  0.47481235619E+02 -0.25334016408E+02 -0.70142225708E+03  0.71293789625E+03  0.11571940658E+03 0.  0.
          5    1    4    4  502    0  0.80257498894E+01  0.43327889034E+02 -0.34238744619E+03  0.34524335176E+03  0.47000000000E+01 0. -1.
         -5    1    4    4    0  502  0.39455485730E+02 -0.68661905442E+02 -0.35903481090E+03  0.36769454449E+03  0.47000000000E+01 0.  1.
          5    1    3    3  503    0 -0.76448287989E+02  0.46041321597E+02 -0.34259989523E+03  0.35406344381E+03  0.47000000000E+01 0. -1.
         -5    1    3    3    0  503  0.28967052370E+02 -0.20707305188E+02 -0.34601043126E+03  0.34786950305E+03  0.47000000000E+01 0. -1.
<mgrwt>
<rscale>  0 0.13393569E+03</rscale>
<asrwt>0</asrwt>
<pdfrwt beam="1">  1        2 0.21576183E+00 0.13610907E+03</pdfrwt>
<pdfrwt beam="2">  1       -2 0.19106351E-02 0.13610907E+03</pdfrwt>
<totfact> 0.12359696E+04</totfact>
</mgrwt>
</event>
<event>
 8    1  0.2018715E-005  0.3840760E+03  0.7546771E-02  0.1050704E+00
         -2   -1    0    0    0  501 -0.00000000000E+00  0.00000000000E+00  0.18389715652E+03  0.18389715652E+03  0.00000000000E+00 0.  1.
          2   -1    0    0  501    0  0.00000000000E+00 -0.00000000000E+00 -0.88220967967E+03  0.88220967967E+03  0.00000000000E+00 0. -1.
         25    2    1    2    0    0 -0.11028585442E+03 -0.34601351220E+03 -0.16798183506E+03  0.41920431383E+03  0.12500415799E+03 0.  0.
         23    2    1    2    0    0  0.11028585442E+03  0.34601351220E+03 -0.53033068809E+03  0.64690252235E+03  0.73102081970E+02 0.  0.
          5    1    4    4  502    0  0.72543764814E+02  0.29870264239E+03 -0.41367270816E+03  0.51539602818E+03  0.47000000000E+01 0. -1.
         -5    1    3    3    0  503 -0.94748990360E+01 -0.20078073649E+03 -0.12652109258E+03  0.23755495095E+03  0.47000000000E+01 0. -1.
          5    1    3    3  503    0 -0.10081095538E+03 -0.14523277572E+03 -0.41460742487E+02  0.18164936288E+03  0.47000000000E+01 0. -1.
         -5    1    4    4    0  502  0.37742089602E+02  0.47310869816E+02 -0.11665797993E+03  0.13150649418E+03  0.47000000000E+01 0.  1.
<mgrwt>
<rscale>  0 0.38062287E+03</rscale>
<asrwt>0</asrwt>
<pdfrwt beam="1">  1        2 0.13572456E+00 0.38407598E+03</pdfrwt>
<pdfrwt beam="2">  1       -2 0.28291871E-01 0.38407598E+03</pdfrwt>
<totfact> 0.35420245E+02</totfact>
</mgrwt>
</event>
<event>
 8    1  0.2018715E-005  0.1562130E+03  0.7546771E-02  0.1204601E+00
         -1   -1    0    0    0  501 -0.00000000000E+00  0.00000000000E+00  0.55863977182E+03  0.55863977182E+03  0.00000000000E+00 0.  1.
          1   -1    0    0  501    0  0.00000000000E+00 -0.00000000000E+00 -0.34733013331E+02  0.34733013331E+02  0.00000000000E+00 0. -1.
         25    2    1    2    0    0  0.68253423669E+02 -0.64180558567E+02  0.31836279947E+03  0.35462285631E+03  0.12499929676E+03 0.  0.
         23    2    1    2    0    0 -0.68253423669E+02  0.64180558567E+02  0.20554395901E+03  0.23874992884E+03  0.77301587901E+02 0.  0.
          5    1    4    4  502    0 -0.16748271544E+02  0.46656007081E+02  0.38307879209E+02  0.62824129170E+02  0.47000000000E+01 0. -1.
         -5    1    4    4    0  502 -0.51505152125E+02  0.17524551487E+02  0.16723607980E+03  0.17592579967E+03  0.47000000000E+01 0.  1.
          5    1    3    3  503    0  0.62984872551E+02  0.10269298551E+02  0.68192073997E+02  0.93513644025E+02  0.47000000000E+01 0.  1.
         -5    1    3    3    0  503  0.52685511186E+01 -0.74449857118E+02  0.25017072548E+03  0.26110921229E+03  0.47000000000E+01 0.  1.
<mgrwt>
<rscale>  0 0.14668938E+03</rscale>
<asrwt>0</asrwt>
<pdfrwt beam="1">  1        1 0.53435409E-02 0.15621299E+03</pdfrwt>
<pdfrwt beam="2">  1       -1 0.85944573E-01 0.15621299E+03</pdfrwt>
<totfact> 0.20792443E+03</totfact>
</mgrwt>
</event>
<event>
 8    1  0.2018715E-005  0.1450403E+03  0.7546771E-02  0.1212740E+00
         -1   -1    0    0    0  501 -0.00000000000E+00  0.00000000000E+00  0.74350188083E+02  0.74350188083E+02  0.00000000000E+00 0.  1.
          1   -1    0    0  501    0  0.00000000000E+00 -0.00000000000E+00 -0.29179984436E+03  0.29179984436E+03  0.00000000000E+00 0. -1.
         25    2    1    2    0    0  0.23743439777E+02  0.69631424253E+02 -0.45335043296E+02  0.15196035617E+03  0.12499759006E+03 0.  0.
         23    2    1    2    0    0 -0.23743439777E+02 -0.69631424253E+02 -0.17211461298E+03  0.21418967628E+03  0.10412248194E+03 0.  0.
          5    1    4    4  502    0 -0.15843598721E+02 -0.35159246639E+02 -0.17417348666E+03  0.17845359536E+03  0.47000000000E+01 0. -1.
         -5    1    3    3    0  503 -0.50162651622E+02  0.33873659185E+02 -0.32071047936E+02  0.68661186416E+02  0.47000000000E+01 0. -1.
          5    1    3    3  503    0  0.73906091399E+02  0.35757765068E+02 -0.13263995360E+02  0.83299169752E+02  0.47000000000E+01 0. -1.
         -5    1    4    4    0  502 -0.78998410552E+01 -0.34472177614E+02  0.20588736722E+01  0.35736080912E+02  0.47000000000E+01 0.  1.
<mgrwt>
<rscale>  0 0.14043837E+03</rscale>
<asrwt>0</asrwt>
<pdfrwt beam="1">  1        1 0.44892285E-01 0.14504028E+03</pdfrwt>
<pdfrwt beam="2">  1       -1 0.11438490E-01 0.14504028E+03</pdfrwt>
<totfact> 0.43267300E+03</totfact>
</mgrwt>
</event>
<event>
 8    1  0.2018715E-005  0.2020212E+03  0.7546771E-02  0.1149572E+00
          1   -1    0    0  501    0  0.00000000000E+00  0.00000000000E+00  0.30164873340E+02  0.30164873340E+02  0.00000000000E+00 0. -1.
         -1   -1    0    0    0  501 -0.00000000000E+00 -0.00000000000E+00 -0.13053985768E+04  0.13053985768E+04  0.00000000000E+00 0.  1.
         25    2    1    2    0    0  0.74477804294E+02 -0.14014539122E+03 -0.65675982314E+03  0.68712882828E+03  0.12499954937E+03 0.  0.
         23    2    1    2    0    0 -0.74477804294E+02  0.14014539122E+03 -0.61847388028E+03  0.64843462183E+03  0.11300373524E+03 0.  0.
          5    1    3    3  502    0  0.78280502870E+02 -0.43402309988E+02 -0.44914123256E+03  0.45799730832E+03  0.47000000000E+01 0.  1.
         -5    1    3    3    0  502 -0.38026985758E+01 -0.96743081236E+02 -0.20761859058E+03  0.22913151996E+03  0.47000000000E+01 0.  1.
          5    1    4    4  503    0 -0.46367417355E+02  0.81770199411E+01 -0.76946285847E+02  0.90330625775E+02  0.47000000000E+01 0. -1.
         -5    1    4    4    0  503 -0.28110386939E+02  0.13196837128E+03 -0.54152759444E+03  0.55810399605E+03  0.47000000000E+01 0.  1.
<mgrwt>
<rscale>  0 0.20019809E+03</rscale>
<asrwt>0</asrwt>
<pdfrwt beam="1">  1        1 0.46407508E-02 0.20202119E+03</pdfrwt>
<pdfrwt beam="2">  1       -1 0.20083050E+00 0.20202119E+03</pdfrwt>
<totfact> 0.30508151E+02</totfact>
</mgrwt>
</event>
<event>
 8    1  0.2018715E-005  0.1254304E+03  0.7546771E-02  0.1242692E+00
         -3   -1    0    0    0  501 -0.00000000000E+00  0.00000000000E+00  0.88672454124E+02  0.88672454124E+02  0.00000000000E+00 0.  1.
          3   -1    0    0  501    0  0.00000000000E+00 -0.00000000000E+00 -0.15329371530E+03  0.15329371530E+03  0.00000000000E+00 0. -1.
         25    2    1    2    0    0  0.86536399311E+01  0.55976577082E+01 -0.20025965719E+02  0.12701894712E+03  0.12500621732E+03 0.  0.
         23    2    1    2    0    0 -0.86536399311E+01 -0.55976577082E+01 -0.44595295453E+02  0.11494722230E+03  0.10544147325E+03 0.  0.
          5    1    4    4  502    0 -0.42187647366E+02 -0.34294420959E+02 -0.44730873399E+02  0.70560937737E+02  0.47000000000E+01 0. -1.
         -5    1    4    4    0  502  0.33534007435E+02  0.28696763251E+02  0.13557794646E+00  0.44386284561E+02  0.47000000000E+01 0.  1.
          5    1    3    3  503    0  0.46493019605E+02  0.42352014793E+02 -0.34807764651E+02  0.72034467507E+02  0.47000000000E+01 0.  1.
         -5    1    3    3    0  503 -0.37839379674E+02 -0.36754357085E+02  0.14781798932E+02  0.54984479615E+02  0.47000000000E+01 0.  1.
<mgrwt>
<rscale>  0 0.12024611E+03</rscale>
<asrwt>0</asrwt>
<pdfrwt beam="1">  1        3 0.23583648E-01 0.12543035E+03</pdfrwt>
<pdfrwt beam="2">  1       -3 0.13641916E-01 0.12543035E+03</pdfrwt>
<totfact> 0.16526719E+03</totfact>
</mgrwt>
</event>
<event>
 7    1  0.2018715E-005  0.1724553E+03  0.7546771E-02  0.1188783E+00
          2   -1    0    0  501    0  0.00000000000E+00  0.00000000000E+00  0.39974268722E+03  0.39974268722E+03  0.00000000000E+00 0. -1.
         -2   -1    0    0    0  501 -0.00000000000E+00 -0.00000000000E+00 -0.68364549178E+02  0.68364549178E+02  0.00000000000E+00 0.  1.
         25    2    1    2    0    0 -0.22605732493E+01  0.25207573406E+02  0.47778726825E+02  0.13618938302E+03  0.12499683740E+03 0.  0.
          5    1    1    2  502    0  0.39692443483E+02  0.61209174680E+02  0.16448903560E+03  0.18000218323E+03  0.47000000000E+01 0. -1.
         -5    1    3    3    0  503  0.20156706136E+02 -0.33615173912E+02 -0.19417789421E+02  0.43993332056E+02  0.47000000000E+01 0. -1.
          5    1    3    3  503    0 -0.22417279385E+02  0.58822747318E+02  0.67196516246E+02  0.92196050960E+02  0.47000000000E+01 0. -1.
         -5    1    1    2    0  502 -0.37431870233E+02 -0.86416748085E+02  0.11911037562E+03  0.15191567016E+03  0.47000000000E+01 0.  1.
<mgrwt>
<rscale>  0 0.15992388E+03</rscale>
<asrwt>0</asrwt>
<pdfrwt beam="1">  1        2 0.61498874E-01 0.17245531E+03</pdfrwt>
<pdfrwt beam="2">  1       -2 0.10517623E-01 0.17245531E+03</pdfrwt>
<totfact> 0.47638533E+03</totfact>
</mgrwt>
</event>
<event>
 7    1  0.2018715E-005  0.3044923E+03  0.7546771E-02  0.1094871E+00
          3   -1    0    0  501    0  0.00000000000E+00  0.00000000000E+00  0.25359624078E+04  0.25359624078E+04  0.00000000000E+00 0. -1.
         -3   -1    0    0    0  501 -0.00000000000E+00 -0.00000000000E+00 -0.39738010640E+02  0.39738010640E+02  0.00000000000E+00 0.  1.
         25    2    1    2    0    0  0.14522913416E+03 -0.11296151144E+03  0.18266421257E+04  0.18401353273E+04  0.12499905256E+03 0.  0.
          5    1    1    2  502    0  0.51187633747E+02  0.11939504987E+02  0.30297995834E+03  0.30754133183E+03  0.47000000000E+01 0. -1.
         -5    1    1    2    0  502 -0.19641676790E+03  0.10102200645E+03  0.36660231315E+03  0.42802375928E+03  0.47000000000E+01 0.  1.
          5    1    3    3  503    0  0.16794568383E+03 -0.96038480775E+02  0.16153459585E+04  0.16268969845E+04  0.47000000000E+01 0. -1.
         -5    1    3    3    0  503 -0.22716549669E+02 -0.16923030667E+02  0.21129616716E+03  0.21323834283E+03  0.47000000000E+01 0. -1.
<mgrwt>
<rscale>  0 0.28150248E+03</rscale>
<asrwt>0</asrwt>
<pdfrwt beam="1">  1        3 0.39014794E+00 0.30449234E+03</pdfrwt>
<pdfrwt beam="2">  1       -3 0.61135421E-02 0.30449234E+03</pdfrwt>
<totfact> 0.61996208E+00</totfact>
</mgrwt>
</event>
<event>
 8    1  0.2018715E-005  0.1527692E+03  0.7546771E-02  0.1209291E+00
          2   -1    0    0  501    0  0.00000000000E+00  0.00000000000E+00  0.92290872114E+03  0.92290872114E+03  0.00000000000E+00 0. -1.
         -2   -1    0    0    0  501 -0.00000000000E+00 -0.00000000000E+00 -0.32504560101E+02  0.32504560101E+02  0.00000000000E+00 0.  1.
         25    2    1    2    0    0  0.83548990127E+02  0.27085936707E+02  0.18325541698E+03  0.23858117040E+03  0.12499738116E+03 0.  0.
         23    2    1    2    0    0 -0.83548990127E+02 -0.27085936707E+02  0.70714874406E+03  0.71683211085E+03  0.77941306086E+02 0.  0.
          5    1    4    4  502    0 -0.90222354869E+02 -0.23528452241E+01  0.58477662642E+03  0.59171902285E+03  0.47000000000E+01 0. -1.
         -5    1    4    4    0  502  0.66733647414E+01 -0.24733091483E+02  0.12237211764E+03  0.12511308799E+03  0.47000000000E+01 0.  1.
          5    1    3    3  503    0  0.94977996815E+02  0.61022422900E+02  0.11418954488E+03  0.16064214309E+03  0.47000000000E+01 0.  1.
         -5    1    3    3    0  503 -0.11429006688E+02 -0.33936486194E+02  0.69065872103E+02  0.77939027312E+02  0.47000000000E+01 0.  1.
<mgrwt>
<rscale>  0 0.14304351E+03</rscale>
<asrwt>0</asrwt>
<pdfrwt beam="1">  1        2 0.14198594E+00 0.15276920E+03</pdfrwt>
<pdfrwt beam="2">  1       -2 0.50007022E-02 0.15276920E+03</pdfrwt>
<totfact> 0.56175138E+03</totfact>
</mgrwt>
</event>
<event>
 8    1  0.2018715E-005  0.1270528E+03  0.7546771E-02  0.1260096E+00
          1   -1    0    0  501    0  0.00000000000E+00  0.00000000000E+00  0.38431822384E+03  0.38431822384E+03  0.00000000000E+00 0. -1.
         -1   -1    0    0    0  501 -0.00000000000E+00 -0.00000000000E+00 -0.28569189224E+02  0.28569189224E+02  0.00000000000E+00 0.  1.
         25    2    1    2    0    0 -0.17329570151E+02  0.14661292184E+02  0.16007597800E+03  0.20436913730E+03  0.12500863194E+03 0.  0.
         23    2    1    2    0    0  0.17329570151E+02 -0.14661292184E+02  0.19567305662E+03  0.20851827576E+03  0.68386100570E+02 0.  0.
          5    1    4    4  502    0  0.38637391842E+02 -0.21339744901E+02  0.16102375177E+03  0.16702985180E+03  0.47000000000E+01 0. -1.
         -5    1    4    4    0  502 -0.21307821692E+02  0.66784527168E+01  0.34649304850E+02  0.41488423958E+02  0.47000000000E+01 0.  1.
          5    1    3    3  503    0 -0.67813142168E+02  0.16895238825E+02  0.60286371195E+02  0.92415409416E+02  0.47000000000E+01 0.  1.
         -5    1    3    3    0  503  0.50483572018E+02 -0.22339466402E+01  0.99789606805E+02  0.11195372789E+03  0.47000000000E+01 0.  1.
<mgrwt>
<rscale>  0 0.11025654E+03</rscale>
<asrwt>0</asrwt>
<pdfrwt beam="1">  1        1 0.59125877E-01 0.12705285E+03</pdfrwt>
<pdfrwt beam="2">  1       -1 0.43952602E-02 0.12705285E+03</pdfrwt>
<totfact> 0.12803287E+04</totfact>
</mgrwt>
</event>
<event>
 8    1  0.2018715E-005  0.1319432E+03  0.7546771E-02  0.1231401E+00
          1   -1    0    0  501    0  0.00000000000E+00  0.00000000000E+00  0.14416470126E+04  0.14416470126E+04  0.00000000000E+00 0. -1.
         -1   -1    0    0    0  501 -0.00000000000E+00 -0.00000000000E+00 -0.11958381279E+02  0.11958381279E+02  0.00000000000E+00 0.  1.
         25    2    1    2    0    0 -0.41215845555E+02  0.92929236883E+01  0.10088320807E+04  0.10174237918E+04  0.12499560274E+03 0.  0.
         23    2    1    2    0    0  0.41215845555E+02 -0.92929236883E+01  0.42085655063E+03  0.43618160209E+03  0.10653191747E+03 0.  0.
          5    1    3    3  502    0 -0.80651861473E+02  0.28239789195E+02  0.75139719146E+03  0.75625527290E+03  0.47000000000E+01 0.  1.
         -5    1    4    4    0  503  0.35732338964E+02  0.38168169516E+02  0.11292337960E+03  0.12452866687E+03  0.47000000000E+01 0.  1.
          5    1    4    4  503    0  0.54835065911E+01 -0.47461093204E+02  0.30793317103E+03  0.31165293523E+03  0.47000000000E+01 0. -1.
         -5    1    3    3    0  502  0.39436015918E+02 -0.18946865507E+02  0.25743488921E+03  0.26116851886E+03  0.47000000000E+01 0.  1.
<mgrwt>
<rscale>  0 0.12737685E+03</rscale>
<asrwt>0</asrwt>
<pdfrwt beam="1">  1        1 0.22179171E+00 0.13194319E+03</pdfrwt>
<pdfrwt beam="2">  1       -1 0.18397521E-02 0.13194319E+03</pdfrwt>
<totfact> 0.59366028E+03</totfact>
</mgrwt>
</event>
<event>
 8    1  0.2018715E-005  0.1329703E+03  0.7546771E-02  0.1230973E+00
         -1   -1    0    0    0  501 -0.00000000000E+00  0.00000000000E+00  0.37175284723E+03  0.37175284723E+03  0.00000000000E+00 0.  1.
          1   -1    0    0  501    0  0.00000000000E+00 -0.00000000000E+00 -0.51623387222E+02  0.51623387222E+02  0.00000000000E+00 0. -1.
         25    2    1    2    0    0 -0.23468237550E+02  0.38800730402E+02  0.26756581775E+03  0.29878514217E+03  0.12499935800E+03 0.  0.
         23    2    1    2    0    0  0.23468237550E+02 -0.38800730402E+02  0.52563642264E+02  0.12459109228E+03  0.10345892390E+03 0.  0.
          5    1    4    4  502    0 -0.13504593835E+02 -0.65192441206E+02  0.37191051681E+02  0.76404795466E+02  0.47000000000E+01 0. -1.
         -5    1    3    3    0  503 -0.53452272535E+01  0.82920908980E+02  0.19253491898E+03  0.20975279170E+03  0.47000000000E+01 0.  1.
          5    1    3    3  503    0 -0.18123010296E+02 -0.44120178578E+02  0.75030898768E+02  0.89032350468E+02  0.47000000000E+01 0.  1.
         -5    1    4    4    0  502  0.36972831385E+02  0.26391710804E+02  0.15372590583E+02  0.48186296818E+02  0.47000000000E+01 0.  1.
<mgrwt>
<rscale>  0 0.12765778E+03</rscale>
<asrwt>0</asrwt>
<pdfrwt beam="1">  1        1 0.79420598E-02 0.13297028E+03</pdfrwt>
<pdfrwt beam="2">  1       -1 0.57192744E-01 0.13297028E+03</pdfrwt>
<totfact> 0.27013609E+03</totfact>
</mgrwt>
</event>
<event>
 8    1  0.2018715E-005  0.1448004E+03  0.7546771E-02  0.1211168E+00
         -1   -1    0    0    0  501 -0.00000000000E+00  0.00000000000E+00  0.57214107858E+02  0.57214107858E+02  0.00000000000E+00 0. -1.
          1   -1    0    0  501    0  0.00000000000E+00 -0.00000000000E+00 -0.37595149063E+03  0.37595149063E+03  0.00000000000E+00 0.  1.
         25    2    1    2    0    0  0.72805889394E+02 -0.68724607349E+01 -0.23626676339E+03  0.27710850845E+03  0.12497685275E+03 0.  0.
         23    2    1    2    0    0 -0.72805889394E+02  0.68724607349E+01 -0.82470619377E+02  0.15605709003E+03  0.11047390662E+03 0.  0.
          5    1    4    4  502    0 -0.56685791828E+02  0.56290757731E+02 -0.45036428948E+02  0.91827546703E+02  0.47000000000E+01 0. -1.
         -5    1    4    4    0  502 -0.16120097566E+02 -0.49418296996E+02 -0.37434190429E+02  0.64229543332E+02  0.47000000000E+01 0.  1.
          5    1    3    3  503    0 -0.33224749696E+02 -0.14814386868E+02 -0.80380527067E+02  0.88354225604E+02  0.47000000000E+01 0.  1.
         -5    1    3    3    0  503  0.10603063909E+03  0.79419261331E+01 -0.15588623633E+03  0.18875428285E+03  0.47000000000E+01 0.  1.
<mgrwt>
<rscale>  0 0.14161828E+03</rscale>
<asrwt>0</asrwt>
<pdfrwt beam="1">  1        1 0.57838694E-01 0.14480035E+03</pdfrwt>
<pdfrwt beam="2">  1       -1 0.88021700E-02 0.14480035E+03</pdfrwt>
<totfact> 0.47090724E+03</totfact>
</mgrwt>
</event>
<event>
 8    1  0.2400202E-005  0.1519368E+03  0.7546771E-02  0.1203443E+00
         -2   -1    0    0    0  501 -0.00000000000E+00  0.00000000000E+00  0.40134656215E+03  0.40134656215E+03  0.00000000000E+00 0.  1.
          2   -1    0    0  501    0  0.00000000000E+00 -0.00000000000E+00 -0.51452167401E+02  0.51452167401E+02  0.00000000000E+00 0. -1.
         25    2    1    2    0    0  0.77871935060E+02 -0.37363929801E+02  0.19150698439E+03  0.24445802898E+03  0.12499880538E+03 0.  0.
         23    2    1    2    0    0 -0.77871935060E+02  0.37363929801E+02  0.15838741037E+03  0.20834070057E+03  0.10420736169E+03 0.  0.
          5    1    4    4  502    0 -0.28522134318E+02 -0.14131873181E+02 -0.25162720192E+01  0.32274504033E+02  0.47000000000E+01 0. -1.
         -5    1    4    4    0  502 -0.49349800742E+02  0.51495802982E+02  0.16090368239E+03  0.17606619654E+03  0.47000000000E+01 0.  1.
          5    1    3    3  503    0  0.90302262895E+02 -0.66385309176E+00  0.63142754400E+02  0.11029069235E+03  0.47000000000E+01 0. -1.
         -5    1    3    3    0  503 -0.12430327835E+02 -0.36700076710E+02  0.12836422999E+03  0.13416733664E+03  0.47000000000E+01 0. -1.
<mgrwt>
<rscale>  0 0.14760832E+03</rscale>
<asrwt>0</asrwt>
<pdfrwt beam="1">  1        2 0.79157183E-02 0.15193684E+03</pdfrwt>
<pdfrwt beam="2">  1       -2 0.61745623E-01 0.15193684E+03</pdfrwt>
<totfact> 0.20822066E+03</totfact>
</mgrwt>
</event>
<event>
 8    1  0.2018715E-005  0.1546481E+03  0.7546771E-02  0.1196984E+00
          1   -1    0    0  501    0  0.00000000000E+00  0.00000000000E+00  0.80403628102E+03  0.80403628102E+03  0.00000000000E+00 0. -1.
         -1   -1    0    0    0  501 -0.00000000000E+00 -0.00000000000E+00 -0.28623344368E+02  0.28623344368E+02  0.00000000000E+00 0.  1.
         25    2    1    2    0    0 -0.13511458549E+02 -0.90033624683E+02  0.36145394872E+03  0.39314755223E+03  0.12500971040E+03 0.  0.
         23    2    1    2    0    0  0.13511458549E+02  0.90033624683E+02  0.41395898793E+03  0.43951207316E+03  0.11627641926E+03 0.  0.
          5    1    4    4  502    0  0.55647047733E+02  0.30862976935E+02  0.27869105979E+03  0.28590193087E+03  0.47000000000E+01 0. -1.
         -5    1    4    4    0  502 -0.42135589184E+02  0.59170647748E+02  0.13526792815E+03  0.15361014229E+03  0.47000000000E+01 0.  1.
          5    1    3    3  503    0 -0.30371255029E+02 -0.11769025628E+03  0.27473407720E+03  0.30045684004E+03  0.47000000000E+01 0.  1.
         -5    1    3    3    0  503  0.16859796480E+02  0.27656631600E+02  0.86719871524E+02  0.92690712188E+02  0.47000000000E+01 0.  1.
<mgrwt>
<rscale>  0 0.15287536E+03</rscale>
<asrwt>0</asrwt>
<pdfrwt beam="1">  1        1 0.12369787E+00 0.15464812E+03</pdfrwt>
<pdfrwt beam="2">  1       -1 0.44035920E-02 0.15464812E+03</pdfrwt>
<totfact> 0.47628472E+03</totfact>
</mgrwt>
</event>
<event>
 8    1  0.2018715E-005  0.1280037E+03  0.7546771E-02  0.1235637E+00
         -4   -1    0    0    0  501 -0.00000000000E+00  0.00000000000E+00  0.16359760054E+02  0.16359760054E+02  0.00000000000E+00 0.  1.
          4   -1    0    0  501    0  0.00000000000E+00 -0.00000000000E+00 -0.90927266582E+03  0.90927266582E+03  0.00000000000E+00 0. -1.
         25    2    1    2    0    0  0.98517062313E+01 -0.25746751463E+02 -0.50896643525E+03  0.52481595493E+03  0.12500001205E+03 0.  0.
         23    2    1    2    0    0 -0.98517062313E+01  0.25746751463E+02 -0.38394647052E+03  0.40081647095E+03  0.11170944379E+03 0.  0.
          5    1    4    4  502    0 -0.58331726971E+02  0.90341487279E+00 -0.16246614361E+03  0.17268683896E+03  0.47000000000E+01 0. -1.
         -5    1    3    3    0  503  0.16779478473E+02  0.49185864511E+02 -0.22945392044E+03  0.23531254062E+03  0.47000000000E+01 0. -1.
          5    1    3    3  503    0 -0.69277722414E+01 -0.74932615974E+02 -0.27951251481E+03  0.28950341431E+03  0.47000000000E+01 0. -1.
         -5    1    4    4    0  502  0.48480020740E+02  0.24843336590E+02 -0.22148032690E+03  0.22812963198E+03  0.47000000000E+01 0.  1.
<mgrwt>
<rscale>  0 0.12463748E+03</rscale>
<asrwt>0</asrwt>
<pdfrwt beam="1">  1        4 0.13988809E+00 0.12800373E+03</pdfrwt>
<pdfrwt beam="2">  1       -4 0.25168863E-02 0.12800373E+03</pdfrwt>
<totfact> 0.44509200E+02</totfact>
</mgrwt>
</event>
<event>
 8    1  0.2018715E-005  0.1515685E+03  0.7546771E-02  0.1201259E+00
          1   -1    0    0  501    0  0.00000000000E+00  0.00000000000E+00  0.92863236008E+03  0.92863236008E+03  0.00000000000E+00 0. -1.
         -1   -1    0    0    0  501 -0.00000000000E+00 -0.00000000000E+00 -0.24916810327E+02  0.24916810327E+02  0.00000000000E+00 0.  1.
         25    2    1    2    0    0 -0.83864820490E+02 -0.17698280174E+02  0.34473356066E+03  0.37658230855E+03  0.12500587999E+03 0.  0.
         23    2    1    2    0    0  0.83864820490E+02  0.17698280174E+02  0.55898198909E+03  0.57696686186E+03  0.11438250877E+03 0.  0.
          5    1    4    4  502    0 -0.16941872945E+02  0.35670206197E+02  0.18229113078E+03  0.18657850099E+03  0.47000000000E+01 0. -1.
         -5    1    3    3    0  503  0.64348828796E+01 -0.52583502441E+02  0.98093791674E+02  0.11158366552E+03  0.47000000000E+01 0.  1.
          5    1    3    3  503    0 -0.90299703369E+02  0.34885222267E+02  0.24663976899E+03  0.26499864303E+03  0.47000000000E+01 0.  1.
         -5    1    4    4    0  502  0.10080669343E+03 -0.17971926023E+02  0.37669085831E+03  0.39038836087E+03  0.47000000000E+01 0.  1.
<mgrwt>
<rscale>  0 0.14936195E+03</rscale>
<asrwt>0</asrwt>
<pdfrwt beam="1">  1        1 0.14286649E+00 0.15156849E+03</pdfrwt>
<pdfrwt beam="2">  1       -1 0.38333561E-02 0.15156849E+03</pdfrwt>
<totfact> 0.46572159E+03</totfact>
</mgrwt>
</event>
<event>
 8    1  0.3541254E-005  0.2358030E+03  0.7546771E-02  0.1126477E+00
         -2   -1    0    0    0  501 -0.00000000000E+00  0.00000000000E+00  0.84003420715E+02  0.84003420715E+02  0.00000000000E+00 0.  1.
          2   -1    0    0  501    0  0.00000000000E+00 -0.00000000000E+00 -0.60470878483E+03  0.60470878483E+03  0.00000000000E+00 0. -1.
         25    2    1    2    0    0  0.18535715875E+03 -0.74974722035E+02 -0.25403142510E+03  0.34660501356E+03  0.12499834095E+03 0.  0.
         23    2    1    2    0    0 -0.18535715875E+03  0.74974722035E+02 -0.26667393902E+03  0.34210719199E+03  0.77096405996E+02 0.  0.
          5    1    4    4  502    0 -0.10416280137E+03  0.72420581377E+02 -0.12172129215E+03  0.17587720933E+03  0.47000000000E+01 0.  1.
         -5    1    3    3    0  503  0.10555932428E+03 -0.31009541545E+02 -0.22561154179E+03  0.25105182811E+03  0.47000000000E+01 0. -1.
          5    1    3    3  503    0  0.79797834473E+02 -0.43965180490E+02 -0.28419883315E+02  0.95553185450E+02  0.47000000000E+01 0. -1.
         -5    1    4    4    0  502 -0.81194357379E+02  0.25541406581E+01 -0.14495264686E+03  0.16622998267E+03  0.47000000000E+01 0. -1.
<mgrwt>
<rscale>  0 0.23023166E+03</rscale>
<asrwt>0</asrwt>
<pdfrwt beam="1">  1        2 0.93032118E-01 0.23580303E+03</pdfrwt>
<pdfrwt beam="2">  1       -2 0.12923604E-01 0.23580303E+03</pdfrwt>
<totfact> 0.21800773E+03</totfact>
</mgrwt>
</event>
<event>
 8    1  0.2018715E-005  0.1437686E+03  0.7546771E-02  0.1224395E+00
          2   -1    0    0  501    0  0.00000000000E+00  0.00000000000E+00  0.91913738862E+03  0.91913738862E+03  0.00000000000E+00 0. -1.
         -2   -1    0    0    0  501 -0.00000000000E+00 -0.00000000000E+00 -0.16508282496E+02  0.16508282496E+02  0.00000000000E+00 0.  1.
         25    2    1    2    0    0 -0.70804988828E+02 -0.55917356785E+01  0.54383132936E+03  0.56251392711E+03  0.12499915781E+03 0.  0.
         23    2    1    2    0    0  0.70804988828E+02  0.55917356785E+01  0.35879777676E+03  0.37313174400E+03  0.73802708761E+02 0.  0.
          5    1    3    3  502    0 -0.68036671142E+02  0.48264712967E+02  0.40445818698E+03  0.41299756192E+03  0.47000000000E+01 0.  1.
         -5    1    4    4    0  503  0.28563729789E+02  0.24323138489E+02  0.61246700045E+02  0.71977426960E+02  0.47000000000E+01 0.  1.
          5    1    4    4  503    0  0.42241259039E+02 -0.18731402810E+02  0.29755107672E+03  0.30115431704E+03  0.47000000000E+01 0. -1.
         -5    1    3    3    0  502 -0.27683176866E+01 -0.53856448646E+02  0.13937314238E+03  0.14951636519E+03  0.47000000000E+01 0.  1.
<mgrwt>
<rscale>  0 0.13208468E+03</rscale>
<asrwt>0</asrwt>
<pdfrwt beam="1">  1        2 0.14140571E+00 0.14376858E+03</pdfrwt>
<pdfrwt beam="2">  1       -2 0.25397365E-02 0.14376858E+03</pdfrwt>
<totfact> 0.15378242E+04</totfact>
</mgrwt>
</event>
<event>
 8    1  0.2018715E-005  0.2248497E+03  0.7546771E-02  0.1132396E+00
         -2   -1    0    0    0  501 -0.00000000000E+00  0.00000000000E+00  0.33946495407E+02  0.33946495407E+02  0.00000000000E+00 0.  1.
          2   -1    0    0  501    0  0.00000000000E+00 -0.00000000000E+00 -0.14346243896E+04  0.14346243896E+04  0.00000000000E+00 0. -1.
         25    2    1    2    0    0  0.18473642340E+03  0.28374379845E+02 -0.63502943121E+03  0.67366147344E+03  0.12499900290E+03 0.  0.
         23    2    1    2    0    0 -0.18473642340E+03 -0.28374379845E+02 -0.76564846302E+03  0.79490941161E+03  0.10358934394E+03 0.  0.
          5    1    4    4  502    0 -0.15657335508E+03 -0.57817744875E+02 -0.67613353785E+03  0.69644580417E+03  0.47000000000E+01 0. -1.
         -5    1    4    4    0  502 -0.28163068317E+02  0.29443365030E+02 -0.89514925178E+02  0.98463607444E+02  0.47000000000E+01 0.  1.
          5    1    3    3  503    0  0.18379123556E+03  0.57429851172E+02 -0.58145406346E+03  0.61252618229E+03  0.47000000000E+01 0.  1.
         -5    1    3    3    0  503  0.94518783908E+00 -0.29055471327E+02 -0.53575367758E+02  0.61135291154E+02  0.47000000000E+01 0.  1.
<mgrwt>
<rscale>  0 0.22200631E+03</rscale>
<asrwt>0</asrwt>
<pdfrwt beam="1">  1        2 0.22071139E+00 0.22484973E+03</pdfrwt>
<pdfrwt beam="2">  1       -2 0.52225392E-02 0.22484973E+03</pdfrwt>
<totfact> 0.27091847E+03</totfact>
</mgrwt>
</event>
<event>
 7    1  0.2018715E-005  0.1847643E+03  0.7546771E-02  0.1174501E+00
         -1   -1    0    0    0  501 -0.00000000000E+00  0.00000000000E+00  0.18237982681E+02  0.18237982681E+02  0.00000000000E+00 0.  1.
          1   -1    0    0  501    0  0.00000000000E+00 -0.00000000000E+00 -0.14727375358E+04  0.14727375358E+04  0.00000000000E+00 0. -1.
         25    2    1    2    0    0 -0.12739300910E+03  0.47791317503E+02 -0.79568787496E+03  0.81685802121E+03  0.12499937462E+03 0.  0.
          5    1    3    3  502    0 -0.64205077598E+02  0.34393573600E+02 -0.68297348568E+03  0.68686249136E+03  0.47000000000E+01 0.  1.
         -5    1    3    3    0  502 -0.63187931504E+02  0.13397743903E+02 -0.11271438928E+03  0.12999552985E+03  0.47000000000E+01 0.  1.
          5    1    1    2  503    0  0.31413470236E+02  0.28655910401E+01 -0.20625128806E+03  0.20870242344E+03  0.47000000000E+01 0. -1.
         -5    1    1    2    0  503  0.95979538867E+02 -0.50656908543E+02 -0.45256039014E+03  0.46541507387E+03  0.47000000000E+01 0.  1.
<mgrwt>
<rscale>  0 0.17324928E+03</rscale>
<asrwt>0</asrwt>
<pdfrwt beam="1">  1        1 0.22657505E+00 0.18476426E+03</pdfrwt>
<pdfrwt beam="2">  1       -1 0.28058429E-02 0.18476426E+03</pdfrwt>
<totfact> 0.30948257E+03</totfact>
</mgrwt>
</event>
<event>
 8    1  0.2018715E-005  0.1321275E+03  0.7546771E-02  0.1249642E+00
          1   -1    0    0  501    0  0.00000000000E+00  0.00000000000E+00  0.89959303358E+03  0.89959303358E+03  0.00000000000E+00 0. -1.
         -1   -1    0    0    0  501 -0.00000000000E+00 -0.00000000000E+00 -0.13309410937E+02  0.13309410937E+02  0.00000000000E+00 0.  1.
         25    2    1    2    0    0 -0.21661734582E+02 -0.36926625210E+02  0.66505399188E+03  0.67805198038E+03  0.12499947836E+03 0.  0.
         23    2    1    2    0    0  0.21661734582E+02  0.36926625210E+02  0.22122963077E+03  0.23485046414E+03  0.66176918799E+02 0.  0.
          5    1    4    4  502    0  0.43563322518E+02  0.33809449162E+02  0.17176183554E+03  0.18045791773E+03  0.47000000000E+01 0. -1.
         -5    1    3    3    0  503 -0.40390602467E+02  0.35944962845E+02  0.21599670638E+03  0.22271081763E+03  0.47000000000E+01 0.  1.
          5    1    3    3  503    0  0.18728867885E+02 -0.72871588055E+02  0.44905728550E+03  0.45534116275E+03  0.47000000000E+01 0.  1.
         -5    1    4    4    0  502 -0.21901587936E+02  0.31171760477E+01  0.49467795223E+02  0.54392546409E+02  0.47000000000E+01 0.  1.
<mgrwt>
<rscale>  0 0.11611826E+03</rscale>
<asrwt>0</asrwt>
<pdfrwt beam="1">  1        1 0.13839888E+00 0.13212750E+03</pdfrwt>
<pdfrwt beam="2">  1       -1 0.20476024E-02 0.13212750E+03</pdfrwt>
<totfact> 0.12124178E+04</totfact>
</mgrwt>
</event>
<event>
 7    1  0.2018715E-005  0.6334635E+03  0.7546771E-02  0.9839418E-01
         -1   -1    0    0    0  501 -0.00000000000E+00  0.00000000000E+00  0.56360656170E+03  0.56360656170E+03  0.00000000000E+00 0.  1.
          1   -1    0    0  501    0  0.00000000000E+00 -0.00000000000E+00 -0.70998562225E+03  0.70998562225E+03  0.00000000000E+00 0. -1.
         25    2    1    2    0    0  0.13844906021E+03 -0.60299510265E+03 -0.55134208775E+02  0.63359092160E+03  0.12500575530E+03 0.  0.
          5    1    3    3  502    0  0.81996468288E+02 -0.34497833049E+03 -0.93293589535E+02  0.36668685982E+03  0.47000000000E+01 0.  1.
         -5    1    1    2    0  503  0.79869853852E+01  0.17377374163E+03  0.13438958094E+02  0.17453882322E+03  0.47000000000E+01 0.  1.
          5    1    1    2  503    0 -0.14643604560E+03  0.42922136102E+03 -0.10468380987E+03  0.46546243915E+03  0.47000000000E+01 0.  1.
         -5    1    3    3    0  502  0.56452591923E+02 -0.25801677216E+03  0.38159380759E+02  0.26690406178E+03  0.47000000000E+01 0.  1.
<mgrwt>
<rscale>  0 0.63289373E+03</rscale>
<asrwt>0</asrwt>
<pdfrwt beam="1">  1        1 0.10922856E+00 0.63346349E+03</pdfrwt>
<pdfrwt beam="2">  1       -1 0.86708702E-01 0.63346349E+03</pdfrwt>
<totfact> 0.36244742E+01</totfact>
</mgrwt>
</event>
<event>
 8    1  0.2018715E-005  0.2170166E+03  0.7546771E-02  0.1141454E+00
         -2   -1    0    0    0  501 -0.00000000000E+00  0.00000000000E+00  0.99869720621E+03  0.99869720621E+03  0.00000000000E+00 0.  1.
          2   -1    0    0  501    0  0.00000000000E+00 -0.00000000000E+00 -0.45108409106E+02  0.45108409106E+02  0.00000000000E+00 0. -1.
         25    2    1    2    0    0  0.87163534204E+02 -0.15452103375E+03  0.64970991706E+03  0.68499575461E+03  0.12498790317E+03 0.  0.
         23    2    1    2    0    0 -0.87163534204E+02  0.15452103375E+03  0.30387888005E+03  0.35880986071E+03  0.70199080060E+02 0.  0.
          5    1    3    3  502    0  0.70838598004E+02 -0.97876950699E+02  0.21828293508E+03  0.24953463526E+03  0.47000000000E+01 0. -1.
         -5    1    4    4    0  503 -0.95257865471E+02  0.11132499317E+03  0.23273420204E+03  0.27505383807E+03  0.47000000000E+01 0.  1.
          5    1    4    4  503    0  0.80943312666E+01  0.43196040574E+02  0.71144678011E+02  0.83756022645E+02  0.47000000000E+01 0. -1.
         -5    1    3    3    0  502  0.16324936200E+02 -0.56644083046E+02  0.43142698198E+03  0.43546111935E+03  0.47000000000E+01 0. -1.
<mgrwt>
<rscale>  0 0.21014090E+03</rscale>
<asrwt>0</asrwt>
<pdfrwt beam="1">  1        2 0.69397560E-02 0.21701661E+03</pdfrwt>
<pdfrwt beam="2">  1       -2 0.15364571E+00 0.21701661E+03</pdfrwt>
<totfact> 0.30348559E+02</totfact>
</mgrwt>
</event>
<event>
 8    1  0.2018715E-005  0.1563215E+03  0.7546771E-02  0.1196518E+00
          2   -1    0    0  501    0  0.00000000000E+00  0.00000000000E+00  0.23026299615E+03  0.23026299615E+03  0.00000000000E+00 0. -1.
         -2   -1    0    0    0  501 -0.00000000000E+00 -0.00000000000E+00 -0.10673195357E+03  0.10673195357E+03  0.00000000000E+00 0.  1.
         25    2    1    2    0    0  0.76733407479E+02  0.54059259781E+02  0.16445895795E+02  0.15718421253E+03  0.12500395909E+03 0.  0.
         23    2    1    2    0    0 -0.76733407479E+02 -0.54059259781E+02  0.10708514679E+03  0.17981073719E+03  0.10979186289E+03 0.  0.
          5    1    4    4  502    0 -0.92542596712E+02 -0.73741675385E+02  0.83086400019E+02  0.14466308017E+03  0.47000000000E+01 0. -1.
         -5    1    4    4    0  502  0.15809189233E+02  0.19682415604E+02  0.23998746767E+02  0.35147657029E+02  0.47000000000E+01 0.  1.
          5    1    3    3  503    0  0.25666710148E+02  0.82388914719E+02  0.38465056815E+02  0.94595792053E+02  0.47000000000E+01 0.  1.
         -5    1    3    3    0  503  0.51066697331E+02 -0.28329654937E+02 -0.22019161021E+02  0.62588420473E+02  0.47000000000E+01 0.  1.
<mgrwt>
<rscale>  0 0.15326411E+03</rscale>
<asrwt>0</asrwt>
<pdfrwt beam="1">  1        2 0.35425076E-01 0.15632149E+03</pdfrwt>
<pdfrwt beam="2">  1       -2 0.16420301E-01 0.15632149E+03</pdfrwt>
<totfact> 0.41566704E+03</totfact>
</mgrwt>
</event>
<event>
 8    1  0.2018715E-005  0.2860693E+03  0.7546771E-02  0.1093400E+00
          3   -1    0    0  501    0  0.00000000000E+00  0.00000000000E+00  0.68306336973E+02  0.68306336973E+02  0.00000000000E+00 0. -1.
         -3   -1    0    0    0  501 -0.00000000000E+00 -0.00000000000E+00 -0.11833658513E+04  0.11833658513E+04  0.00000000000E+00 0.  1.
         25    2    1    2    0    0 -0.94270621771E+02  0.23942409979E+03 -0.49277784914E+03  0.56979441062E+03  0.12499924832E+03 0.  0.
         23    2    1    2    0    0  0.94270621771E+02 -0.23942409979E+03 -0.62228166520E+03  0.68187777766E+03  0.10729391006E+03 0.  0.
          5    1    3    3  502    0 -0.35646157196E+02  0.19507634450E+03 -0.26915741957E+03  0.33435495393E+03  0.47000000000E+01 0.  1.
         -5    1    3    3    0  502 -0.58624464575E+02  0.44347755291E+02 -0.22362042958E+03  0.23543945670E+03  0.47000000000E+01 0.  1.
          5    1    4    4  503    0  0.82872109918E+02 -0.15647735087E+03 -0.29562564736E+03  0.34462960017E+03  0.47000000000E+01 0. -1.
         -5    1    4    4    0  503  0.11398511853E+02 -0.82946748920E+02 -0.32665601784E+03  0.33724817749E+03  0.47000000000E+01 0.  1.
<mgrwt>
<rscale>  0 0.28423140E+03</rscale>
<asrwt>0</asrwt>
<pdfrwt beam="1">  1        3 0.10508668E-01 0.28606933E+03</pdfrwt>
<pdfrwt beam="2">  1       -3 0.18205627E+00 0.28606933E+03</pdfrwt>
<totfact> 0.35013789E+01</totfact>
</mgrwt>
</event>
<event>
 8    1  0.2018715E-005  0.1366174E+03  0.7546771E-02  0.1222801E+00
         -2   -1    0    0    0  501 -0.00000000000E+00  0.00000000000E+00  0.15213983474E+02  0.15213983474E+02  0.00000000000E+00 0.  1.
          2   -1    0    0  501    0  0.00000000000E+00 -0.00000000000E+00 -0.11204216992E+04  0.11204216992E+04  0.00000000000E+00 0. -1.
         25    2    1    2    0    0  0.47530201394E+02 -0.27932267202E+02 -0.52849561617E+03  0.54586804612E+03  0.12499990346E+03 0.  0.
         23    2    1    2    0    0 -0.47530201394E+02  0.27932267202E+02 -0.57671209955E+03  0.58976763656E+03  0.11040691899E+03 0.  0.
          5    1    3    3  502    0  0.24898567041E+02 -0.77490391338E+02 -0.29539998043E+03  0.30644402071E+03  0.47000000000E+01 0. -1.
         -5    1    4    4    0  503  0.25830510363E+02 -0.22053750148E+02 -0.17683718707E+03  0.18013068560E+03  0.47000000000E+01 0.  1.
          5    1    4    4  503    0 -0.73360711756E+02  0.49986017351E+02 -0.39987491248E+03  0.40963695096E+03  0.47000000000E+01 0. -1.
         -5    1    3    3    0  502  0.22631634353E+02  0.49558124136E+02 -0.23309563574E+03  0.23942402541E+03  0.47000000000E+01 0. -1.
<mgrwt>
<rscale>  0 0.13318749E+03</rscale>
<asrwt>0</asrwt>
<pdfrwt beam="1">  1        2 0.17237264E+00 0.13661738E+03</pdfrwt>
<pdfrwt beam="2">  1       -2 0.23406119E-02 0.13661738E+03</pdfrwt>
<totfact> 0.13115267E+04</totfact>
</mgrwt>
</event>
<event>
 8    1  0.2018715E-005  0.1452964E+03  0.7546771E-02  0.1209135E+00
         -2   -1    0    0    0  501 -0.00000000000E+00  0.00000000000E+00  0.17454332086E+03  0.17454332086E+03  0.00000000000E+00 0. -1.
          2   -1    0    0  501    0  0.00000000000E+00 -0.00000000000E+00 -0.22620439080E+03  0.22620439080E+03  0.00000000000E+00 0.  1.
         25    2    1    2    0    0 -0.19286000709E+02  0.71483917725E+02 -0.16724228436E+03  0.22154234607E+03  0.12501651533E+03 0.  0.
         23    2    1    2    0    0  0.19286000709E+02 -0.71483917725E+02  0.11558121442E+03  0.17920536559E+03  0.11521130853E+03 0.  0.
          5    1    3    3  502    0  0.12720629400E+02  0.55761879854E+02 -0.17549508710E+03  0.18463969577E+03  0.47000000000E+01 0.  1.
         -5    1    3    3    0  502 -0.32006630109E+02  0.15722037871E+02  0.82528027418E+01  0.36902650296E+02  0.47000000000E+01 0.  1.
          5    1    4    4  503    0 -0.42796294245E+02 -0.12632629954E+02  0.67239083220E+02  0.80834958112E+02  0.47000000000E+01 0. -1.
         -5    1    4    4    0  503  0.62082294954E+02 -0.58851287771E+02  0.48342131197E+02  0.98370407479E+02  0.47000000000E+01 0.  1.
<mgrwt>
<rscale>  0 0.14316348E+03</rscale>
<asrwt>0</asrwt>
<pdfrwt beam="1">  1        2 0.34800675E-01 0.14529635E+03</pdfrwt>
<pdfrwt beam="2">  1       -2 0.26852819E-01 0.14529635E+03</pdfrwt>
<totfact> 0.18222676E+03</totfact>
</mgrwt>
</event>
<event>
 8    1  0.2018715E-005  0.1250174E+03  0.7546771E-02  0.1244265E+00
          2   -1    0    0  501    0  0.00000000000E+00  0.00000000000E+00  0.89714153710E+02  0.89714153710E+02  0.00000000000E+00 0. -1.
         -2   -1    0    0    0  501 -0.00000000000E+00 -0.00000000000E+00 -0.16458840252E+03  0.16458840252E+03  0.00000000000E+00 0.  1.
         25    2    1    2    0    0 -0.12138090630E+01 -0.14498404623E+01 -0.83430028314E+02  0.15029944534E+03  0.12500311306E+03 0.  0.
         23    2    1    2    0    0  0.12138090630E+01  0.14498404623E+01  0.85557795073E+01  0.10400311088E+03  0.10363334570E+03 0.  0.
          5    1    3    3  502    0 -0.35446288219E+02 -0.51063103628E+02 -0.28233504772E+02  0.68433184146E+02  0.47000000000E+01 0.  1.
         -5    1    3    3    0  502  0.34232479156E+02  0.49613263165E+02 -0.55196523542E+02  0.81866261196E+02  0.47000000000E+01 0.  1.
          5    1    4    4  503    0  0.45250257661E+02 -0.99173216970E+00  0.30236164084E+02  0.54634100794E+02  0.47000000000E+01 0. -1.
         -5    1    4    4    0  503 -0.44036448598E+02  0.24415726320E+01 -0.21680384576E+02  0.49369010091E+02  0.47000000000E+01 0.  1.
<mgrwt>
<rscale>  0 0.11929461E+03</rscale>
<asrwt>0</asrwt>
<pdfrwt beam="1">  1        2 0.13802178E-01 0.12501741E+03</pdfrwt>
<pdfrwt beam="2">  1       -2 0.25321292E-01 0.12501741E+03</pdfrwt>
<totfact> 0.56525331E+03</totfact>
</mgrwt>
</event>
<event>
 8    1  0.2018715E-005  0.1287963E+03  0.7546771E-02  0.1257719E+00
         -2   -1    0    0    0  501 -0.00000000000E+00  0.00000000000E+00  0.50450277041E+02  0.50450277041E+02  0.00000000000E+00 0.  1.
          2   -1    0    0  501    0  0.00000000000E+00 -0.00000000000E+00 -0.22186688345E+03  0.22186688345E+03  0.00000000000E+00 0. -1.
         25    2    1    2    0    0  0.27149108720E+02  0.15072922496E+02 -0.66921325373E+02  0.14514461434E+03  0.12499691271E+03 0.  0.
         23    2    1    2    0    0 -0.27149108720E+02 -0.15072922496E+02 -0.10449528104E+03  0.12717254615E+03  0.65492943421E+02 0.  0.
          5    1    4    4  502    0 -0.15924733907E+02 -0.37942580125E+02 -0.85648315774E+02  0.95136536260E+02  0.47000000000E+01 0. -1.
         -5    1    3    3    0  503  0.68009994716E+01 -0.25780293166E+02 -0.89858983027E+02  0.93848835583E+02  0.47000000000E+01 0.  1.
          5    1    3    3  503    0  0.20348109249E+02  0.40853215663E+02  0.22937657654E+02  0.51295778761E+02  0.47000000000E+01 0.  1.
         -5    1    4    4    0  502 -0.11224374814E+02  0.22869657629E+02 -0.18846965267E+02  0.32036009892E+02  0.47000000000E+01 0.  1.
<mgrwt>
<rscale>  0 0.11155388E+03</rscale>
<asrwt>0</asrwt>
<pdfrwt beam="1">  1        2 0.34133367E-01 0.12879633E+03</pdfrwt>
<pdfrwt beam="2">  1       -2 0.77615810E-02 0.12879633E+03</pdfrwt>
<totfact> 0.14072144E+04</totfact>
</mgrwt>
</event>
<event>
 8    1  0.2018715E-005  0.1397632E+03  0.7546771E-02  0.1218701E+00
          2   -1    0    0  501    0  0.00000000000E+00  0.00000000000E+00  0.15183522844E+03  0.15183522844E+03  0.00000000000E+00 0.  1.
         -2   -1    0    0    0  501 -0.00000000000E+00 -0.00000000000E+00 -0.21971009184E+03  0.21971009184E+03  0.00000000000E+00 0. -1.
         25    2    1    2    0    0  0.88037852026E+00  0.62517929409E+02  0.92675275233E+02  0.16769752302E+03  0.12499794407E+03 0.  0.
         23    2    1    2    0    0 -0.88037852026E+00 -0.62517929409E+02 -0.16055013863E+03  0.20384779726E+03  0.10894177742E+03 0.  0.
          5    1    3    3  502    0 -0.34756330644E+02  0.78753994287E+02  0.94875978161E+02  0.12819413157E+03  0.47000000000E+01 0. -1.
         -5    1    3    3    0  502  0.35636709164E+02 -0.16236064878E+02 -0.22007029283E+01  0.39503391451E+02  0.47000000000E+01 0. -1.
          5    1    4    4  503    0  0.49819756728E+02 -0.53463646830E+02 -0.83641334830E+02  0.11116803760E+03  0.47000000000E+01 0. -1.
         -5    1    4    4    0  503 -0.50700135248E+02 -0.90542825786E+01 -0.76908803804E+02  0.92679759655E+02  0.47000000000E+01 0.  1.
<mgrwt>
<rscale>  0 0.13608168E+03</rscale>
<asrwt>0</asrwt>
<pdfrwt beam="1">  1        2 0.23359266E-01 0.13976320E+03</pdfrwt>
<pdfrwt beam="2">  1       -2 0.33801552E-01 0.13976320E+03</pdfrwt>
<totfact> 0.18567999E+03</totfact>
</mgrwt>
</event>
<event>
 8    1  0.2018715E-005  0.1893084E+03  0.7546771E-02  0.1161821E+00
          2   -1    0    0  501    0  0.00000000000E+00  0.00000000000E+00  0.91779845507E+03  0.91779845507E+03  0.00000000000E+00 0. -1.
         -2   -1    0    0    0  501 -0.00000000000E+00 -0.00000000000E+00 -0.42607634024E+02  0.42607634024E+02  0.00000000000E+00 0.  1.
         25    2    1    2    0    0 -0.13738248804E+03 -0.36597632517E+02  0.62862370724E+03  0.65651005314E+03  0.12499739933E+03 0.  0.
         23    2    1    2    0    0  0.13738248804E+03  0.36597632517E+02  0.24656711381E+03  0.30389603596E+03  0.10650879933E+03 0.  0.
          5    1    4    4  502    0  0.52136825649E+02 -0.35628214800E+02  0.11450142696E+03  0.13084450716E+03  0.47000000000E+01 0. -1.
         -5    1    4    4    0  502  0.85245662390E+02  0.72225847316E+02  0.13206568686E+03  0.17305152880E+03  0.47000000000E+01 0.  1.
          5    1    3    3  503    0 -0.10899950145E+03  0.31575369437E+02  0.42279541101E+03  0.43778527253E+03  0.47000000000E+01 0. -1.
         -5    1    3    3    0  503 -0.28382986593E+02 -0.68173001954E+02  0.20582829623E+03  0.21872478060E+03  0.47000000000E+01 0. -1.
<mgrwt>
<rscale>  0 0.18632247E+03</rscale>
<asrwt>0</asrwt>
<pdfrwt beam="1">  1        2 0.14119975E+00 0.18930844E+03</pdfrwt>
<pdfrwt beam="2">  1       -2 0.65550213E-02 0.18930844E+03</pdfrwt>
<totfact> 0.37766839E+03</totfact>
</mgrwt>
</event>
<event>
 8    1  0.2018715E-005  0.1492643E+03  0.7546771E-02  0.1204851E+00
          1   -1    0    0  501    0  0.00000000000E+00  0.00000000000E+00  0.88743677622E+03  0.88743677622E+03  0.00000000000E+00 0. -1.
         -1   -1    0    0    0  501 -0.00000000000E+00 -0.00000000000E+00 -0.25502757911E+02  0.25502757911E+02  0.00000000000E+00 0.  1.
         25    2    1    2    0    0  0.80837001940E+02 -0.10958698278E+02  0.57905845561E+03  0.59798705336E+03  0.12500042812E+03 0.  0.
         23    2    1    2    0    0 -0.80837001940E+02  0.10958698278E+02  0.28287556270E+03  0.31495248077E+03  0.11190070249E+03 0.  0.
          5    1    3    3  502    0  0.53717114519E+02  0.13252151786E+02  0.54540612980E+03  0.54822539557E+03  0.47000000000E+01 0.  1.
         -5    1    4    4    0  503 -0.26264545399E+02 -0.22935524666E+02  0.13020773408E+02  0.37516598685E+02  0.47000000000E+01 0.  1.
          5    1    4    4  503    0 -0.54572456540E+02  0.33894222944E+02  0.26985478930E+03  0.27743588208E+03  0.47000000000E+01 0. -1.
         -5    1    3    3    0  502  0.27119887420E+02 -0.24210850064E+02  0.33652325804E+02  0.49761657795E+02  0.47000000000E+01 0.  1.
<mgrwt>
<rscale>  0 0.14649169E+03</rscale>
<asrwt>0</asrwt>
<pdfrwt beam="1">  1        1 0.13652871E+00 0.14926427E+03</pdfrwt>
<pdfrwt beam="2">  1       -1 0.39235019E-02 0.14926427E+03</pdfrwt>
<totfact> 0.48380695E+03</totfact>
</mgrwt>
</event>
<event>
 8    1  0.2018715E-005  0.1969354E+03  0.7546771E-02  0.1153905E+00
          1   -1    0    0  501    0  0.00000000000E+00  0.00000000000E+00  0.34095219996E+03  0.34095219996E+03  0.00000000000E+00 0. -1.
         -1   -1    0    0    0  501 -0.00000000000E+00 -0.00000000000E+00 -0.13577757626E+03  0.13577757626E+03  0.00000000000E+00 0.  1.
         25    2    1    2    0    0  0.73207364121E+02  0.13340958230E+03 -0.34887819806E+00  0.19693567497E+03  0.12500441411E+03 0.  0.
         23    2    1    2    0    0 -0.73207364121E+02 -0.13340958230E+03  0.20552350190E+03  0.27979410126E+03  0.11352266054E+03 0.  0.
          5    1    4    4  502    0 -0.24894185631E+02 -0.54083987523E+02  0.17009502092E+03  0.18027535696E+03  0.47000000000E+01 0. -1.
         -5    1    3    3    0  503  0.20323344680E+02 -0.10895683486E+02 -0.32225553486E+02  0.39904016779E+02  0.47000000000E+01 0. -1.
          5    1    3    3  503    0  0.52884019441E+02  0.14430526579E+03  0.31876675288E+02  0.15703165819E+03  0.47000000000E+01 0. -1.
         -5    1    4    4    0  502 -0.48313178490E+02 -0.79325594778E+02  0.35428480978E+02  0.99518744301E+02  0.47000000000E+01 0.  1.
<mgrwt>
<rscale>  0 0.19514083E+03</rscale>
<asrwt>0</asrwt>
<pdfrwt beam="1">  1        1 0.52454184E-01 0.19693537E+03</pdfrwt>
<pdfrwt beam="2">  1       -1 0.20888858E-01 0.19693537E+03</pdfrwt>
<totfact> 0.13896708E+03</totfact>
</mgrwt>
</event>
<event>
 8    1  0.2018715E-005  0.1615926E+03  0.7546771E-02  0.1197355E+00
          1   -1    0    0  501    0  0.00000000000E+00  0.00000000000E+00  0.32674067251E+03  0.32674067251E+03  0.00000000000E+00 0. -1.
         -1   -1    0    0    0  501 -0.00000000000E+00 -0.00000000000E+00 -0.65243235382E+02  0.65243235382E+02  0.00000000000E+00 0.  1.
         25    2    1    2    0    0  0.87781621060E+02 -0.52737323455E+02  0.16836897710E+03  0.23336725523E+03  0.12500130032E+03 0.  0.
         23    2    1    2    0    0 -0.87781621060E+02  0.52737323455E+02  0.93128460033E+02  0.15861665267E+03  0.77456401634E+02 0.  0.
          5    1    4    4  502    0 -0.38779886415E+02  0.43599542957E+02  0.91374803160E+02  0.10851840576E+03  0.47000000000E+01 0. -1.
         -5    1    3    3    0  503  0.98469407459E+02 -0.81791283777E+02  0.14924101470E+03  0.19667488089E+03  0.47000000000E+01 0. -1.
          5    1    3    3  503    0 -0.10687786399E+02  0.29053960321E+02  0.19127962399E+02  0.36692374330E+02  0.47000000000E+01 0. -1.
         -5    1    4    4    0  502 -0.49001734645E+02  0.91377804983E+01  0.17536568733E+01  0.50098246906E+02  0.47000000000E+01 0.  1.
<mgrwt>
<rscale>  0 0.15256558E+03</rscale>
<asrwt>0</asrwt>
<pdfrwt beam="1">  1        1 0.50267795E-01 0.16159258E+03</pdfrwt>
<pdfrwt beam="2">  1       -1 0.10037421E-01 0.16159258E+03</pdfrwt>
<totfact> 0.46208632E+03</totfact>
</mgrwt>
</event>
<event>
 8    1  0.2018715E-005  0.1516389E+03  0.7546771E-02  0.1210666E+00
          1   -1    0    0  501    0  0.00000000000E+00  0.00000000000E+00  0.10795359817E+03  0.10795359817E+03  0.00000000000E+00 0. -1.
         -1   -1    0    0    0  501 -0.00000000000E+00 -0.00000000000E+00 -0.20426746680E+03  0.20426746680E+03  0.00000000000E+00 0.  1.
         25    2    1    2    0    0  0.83453679151E+02  0.20080928612E+02 -0.11983615060E+03  0.19327455400E+03  0.12500635973E+03 0.  0.
         23    2    1    2    0    0 -0.83453679151E+02 -0.20080928612E+02  0.23522281965E+02  0.11894651097E+03  0.78912701553E+02 0.  0.
          5    1    3    3  502    0 -0.15909429030E+02 -0.13099448657E+02 -0.77258854351E+02  0.80098227588E+02  0.47000000000E+01 0. -1.
         -5    1    3    3    0  502  0.99363108181E+02  0.33180377268E+02 -0.42577296251E+02  0.11317632641E+03  0.47000000000E+01 0. -1.
          5    1    4    4  503    0 -0.31794674308E+02 -0.22242977356E+02  0.47705590739E+02  0.61673047142E+02  0.47000000000E+01 0. -1.
         -5    1    4    4    0  503 -0.51659004843E+02  0.21620487442E+01 -0.24183308774E+02  0.57273463833E+02  0.47000000000E+01 0.  1.
<mgrwt>
<rscale>  0 0.14199735E+03</rscale>
<asrwt>0</asrwt>
<pdfrwt beam="1">  1        1 0.16608246E-01 0.15163888E+03</pdfrwt>
<pdfrwt beam="2">  1       -1 0.31425764E-01 0.15163888E+03</pdfrwt>
<totfact> 0.29826074E+03</totfact>
</mgrwt>
</event>
<event>
 8    1  0.2018715E-005  0.1392435E+03  0.7546771E-02  0.1220569E+00
          2   -1    0    0  501    0  0.00000000000E+00  0.00000000000E+00  0.22930405535E+03  0.22930405535E+03  0.00000000000E+00 0. -1.
         -2   -1    0    0    0  501 -0.00000000000E+00 -0.00000000000E+00 -0.76078460246E+02  0.76078460246E+02  0.00000000000E+00 0.  1.
         25    2    1    2    0    0  0.30271435550E+02  0.53320779114E+02  0.10358833301E+03  0.17354914329E+03  0.12501718724E+03 0.  0.
         23    2    1    2    0    0 -0.30271435550E+02 -0.53320779114E+02  0.49637262103E+02  0.13183337231E+03  0.10562535193E+03 0.  0.
          5    1    4    4  502    0  0.27389648589E+02 -0.55356153902E+02  0.38361417980E+02  0.72857292114E+02  0.47000000000E+01 0. -1.
         -5    1    3    3    0  503  0.69382835016E+02  0.11737756052E+02  0.90603108887E+02  0.11481622730E+03  0.47000000000E+01 0.  1.
          5    1    3    3  503    0 -0.39111399466E+02  0.41583023062E+02  0.12985224120E+02  0.58732915989E+02  0.47000000000E+01 0.  1.
         -5    1    4    4    0  502 -0.57661084139E+02  0.20353747878E+01  0.11275844122E+02  0.58976080196E+02  0.47000000000E+01 0.  1.
<mgrwt>
<rscale>  0 0.13475301E+03</rscale>
<asrwt>0</asrwt>
<pdfrwt beam="1">  1        2 0.35277547E-01 0.13924354E+03</pdfrwt>
<pdfrwt beam="2">  1       -2 0.11704379E-01 0.13924354E+03</pdfrwt>
<totfact> 0.71848155E+03</totfact>
</mgrwt>
</event>
<event>
 8    1  0.2018715E-005  0.2239557E+03  0.7546771E-02  0.1132015E+00
          2   -1    0    0  501    0  0.00000000000E+00  0.00000000000E+00  0.24892352245E+03  0.24892352245E+03  0.00000000000E+00 0. -1.
         -2   -1    0    0    0  501 -0.00000000000E+00 -0.00000000000E+00 -0.30182702564E+03  0.30182702564E+03  0.00000000000E+00 0.  1.
         25    2    1    2    0    0 -0.17809181529E+03 -0.53045204750E+02 -0.18939641317E+03  0.29330382634E+03  0.12500257920E+03 0.  0.
         23    2    1    2    0    0  0.17809181529E+03  0.53045204750E+02  0.13649290997E+03  0.25744672175E+03  0.11453388864E+03 0.  0.
          5    1    3    3  502    0 -0.11765334044E+03 -0.93560913845E+02 -0.11689811878E+03  0.19048153005E+03  0.47000000000E+01 0. -1.
         -5    1    4    4    0  503  0.11934124951E+03 -0.34444615448E+01  0.12842355983E+03  0.17541065780E+03  0.47000000000E+01 0. -1.
          5    1    4    4  503    0  0.58750565783E+02  0.56489666295E+02  0.80693501479E+01  0.82036063958E+02  0.47000000000E+01 0.  1.
         -5    1    3    3    0  502 -0.60438474850E+02  0.40515709095E+02 -0.72498294382E+02  0.10282229629E+03  0.47000000000E+01 0. -1.
<mgrwt>
<rscale>  0 0.22252442E+03</rscale>
<asrwt>0</asrwt>
<pdfrwt beam="1">  1        2 0.38295926E-01 0.22395565E+03</pdfrwt>
<pdfrwt beam="2">  1       -2 0.46434927E-01 0.22395565E+03</pdfrwt>
<totfact> 0.59795990E+02</totfact>
</mgrwt>
</event>
<event>
 8    1  0.2018715E-005  0.1692403E+03  0.7546771E-02  0.1180954E+00
         -2   -1    0    0    0  501 -0.00000000000E+00  0.00000000000E+00  0.18525792908E+03  0.18525792908E+03  0.00000000000E+00 0.  1.
          2   -1    0    0  501    0  0.00000000000E+00 -0.00000000000E+00 -0.14906307177E+03  0.14906307177E+03  0.00000000000E+00 0. -1.
         25    2    1    2    0    0  0.47733604855E+02 -0.10362384264E+03  0.38799633207E+02  0.17363088630E+03  0.12500350132E+03 0.  0.
         23    2    1    2    0    0 -0.47733604855E+02  0.10362384264E+03 -0.26047758925E+01  0.16069011455E+03  0.11312882153E+03 0.  0.
          5    1    4    4  502    0 -0.72626018358E+02  0.57912738575E+02 -0.34803060767E+02  0.99306429150E+02  0.47000000000E+01 0. -1.
         -5    1    3    3    0  503 -0.98554881575E+01 -0.51396012524E+02  0.71858065652E+02  0.89018831432E+02  0.47000000000E+01 0.  1.
          5    1    3    3  503    0  0.57589093013E+02 -0.52227830115E+02 -0.33058432445E+02  0.84612054864E+02  0.47000000000E+01 0.  1.
         -5    1    4    4    0  502  0.24892413503E+02  0.45711104064E+02  0.32198284874E+02  0.61383685403E+02  0.47000000000E+01 0.  1.
<mgrwt>
<rscale>  0 0.16705552E+03</rscale>
<asrwt>0</asrwt>
<pdfrwt beam="1">  1        2 0.22932780E-01 0.16924028E+03</pdfrwt>
<pdfrwt beam="2">  1       -2 0.28501220E-01 0.16924028E+03</pdfrwt>
<totfact> 0.26034617E+03</totfact>
</mgrwt>
</event>
<event>
 8    1  0.2018715E-005  0.1393695E+03  0.7546771E-02  0.1230619E+00
         -1   -1    0    0    0  501 -0.00000000000E+00  0.00000000000E+00  0.12881604757E+03  0.12881604757E+03  0.00000000000E+00 0.  1.
          1   -1    0    0  501    0  0.00000000000E+00 -0.00000000000E+00 -0.12006294528E+03  0.12006294528E+03  0.00000000000E+00 0. -1.
         25    2    1    2    0    0 -0.20934262201E+02  0.57973693899E+02  0.40408111903E+02  0.14510918234E+03  0.12499866708E+03 0.  0.
         23    2    1    2    0    0  0.20934262201E+02 -0.57973693899E+02 -0.31655009607E+02  0.10376981051E+03  0.77245979978E+02 0.  0.
          5    1    3    3  502    0 -0.11918231675E+02 -0.38965788595E+02  0.19516229687E+02  0.45424114172E+02  0.47000000000E+01 0.  1.
         -5    1    3    3    0  502 -0.90160305251E+01  0.96939482493E+02  0.20891882215E+02  0.99685068164E+02  0.47000000000E+01 0.  1.
          5    1    4    4  503    0  0.47327868366E+02 -0.27186694336E+02 -0.49899198700E+01  0.55009388047E+02  0.47000000000E+01 0. -1.
         -5    1    4    4    0  503 -0.26393606165E+02 -0.30786999563E+02 -0.26665089737E+02  0.48760422467E+02  0.47000000000E+01 0.  1.
<mgrwt>
<rscale>  0 0.12789135E+03</rscale>
<asrwt>0</asrwt>
<pdfrwt beam="1">  1        1 0.18471222E-01 0.13936951E+03</pdfrwt>
<pdfrwt beam="2">  1       -1 0.19817854E-01 0.13936951E+03</pdfrwt>
<totfact> 0.55333226E+03</totfact>
</mgrwt>
</event>
<event>
 8    1  0.3733903E-005  0.1648894E+03  0.7546771E-02  0.1184160E+00
          2   -1    0    0  501    0  0.00000000000E+00  0.00000000000E+00  0.21211789401E+04  0.21211789401E+04  0.00000000000E+00 0. -1.
         -2   -1    0    0    0  501 -0.00000000000E+00 -0.00000000000E+00 -0.12611110661E+02  0.12611110661E+02  0.00000000000E+00 0.  1.
         25    2    1    2    0    0 -0.80160636461E+02 -0.71676902888E+02  0.11250137966E+04  0.11370332306E+04  0.12500087577E+03 0.  0.
         23    2    1    2    0    0  0.80160636461E+02  0.71676902888E+02  0.98355403292E+03  0.99675682022E+03  0.12075726455E+03 0.  0.
          5    1    4    4  502    0  0.62811164419E+02  0.10495580153E+03  0.80378940487E+03  0.81305624654E+03  0.47000000000E+01 0. -1.
         -5    1    4    4    0  502  0.17349472042E+02 -0.33278898639E+02  0.17976462805E+03  0.18370057368E+03  0.47000000000E+01 0.  1.
          5    1    3    3  503    0  0.32941789348E+02 -0.21429949354E+02  0.21268760238E+03  0.21633887867E+03  0.47000000000E+01 0.  1.
         -5    1    3    3    0  503 -0.11310242581E+03 -0.50246953533E+02  0.91232619417E+03  0.92069435190E+03  0.47000000000E+01 0.  1.
<mgrwt>
<rscale>  0 0.16408523E+03</rscale>
<asrwt>0</asrwt>
<pdfrwt beam="1">  1        2 0.32633494E+00 0.16488943E+03</pdfrwt>
<pdfrwt beam="2">  1       -2 0.19401726E-02 0.16488943E+03</pdfrwt>
<totfact> 0.51679714E+03</totfact>
</mgrwt>
</event>
<event>
 8    1  0.2018715E-005  0.1598749E+03  0.7546771E-02  0.1202204E+00
          3   -1    0    0  501    0  0.00000000000E+00  0.00000000000E+00  0.29501933992E+03  0.29501933992E+03  0.00000000000E+00 0. -1.
         -3   -1    0    0    0  501 -0.00000000000E+00 -0.00000000000E+00 -0.78170987095E+02  0.78170987095E+02  0.00000000000E+00 0.  1.
         25    2    1    2    0    0  0.56771009849E+02 -0.81925271537E+02  0.19452660575E+03  0.25179475200E+03  0.12500119647E+03 0.  0.
         23    2    1    2    0    0 -0.56771009849E+02  0.81925271537E+02  0.22321747077E+02  0.12139557501E+03  0.65604325799E+02 0.  0.
          5    1    4    4  502    0 -0.25258263553E+02  0.20515157018E+02  0.38213466274E+02  0.50410421044E+02  0.47000000000E+01 0. -1.
         -5    1    3    3    0  503  0.28212669534E+02 -0.21053254631E+02  0.17918225655E+03  0.18266790992E+03  0.47000000000E+01 0.  1.
          5    1    3    3  503    0  0.28558340316E+02 -0.60872016906E+02  0.15344349194E+02  0.69126842080E+02  0.47000000000E+01 0.  1.
         -5    1    4    4    0  502 -0.31512746297E+02  0.61410114519E+02 -0.15891719197E+02  0.70985153965E+02  0.47000000000E+01 0.  1.
<mgrwt>
<rscale>  0 0.14860000E+03</rscale>
<asrwt>0</asrwt>
<pdfrwt beam="1">  1        3 0.45387590E-01 0.15987494E+03</pdfrwt>
<pdfrwt beam="2">  1       -3 0.12026306E-01 0.15987494E+03</pdfrwt>
<totfact> 0.62222697E+02</totfact>
</mgrwt>
</event>
<event>
 7    1  0.2018715E-005  0.2506010E+03  0.7546771E-02  0.1113731E+00
         -2   -1    0    0    0  501 -0.00000000000E+00  0.00000000000E+00  0.10410902675E+03  0.10410902675E+03  0.00000000000E+00 0.  1.
          2   -1    0    0  501    0  0.00000000000E+00 -0.00000000000E+00 -0.84684223159E+03  0.84684223159E+03  0.00000000000E+00 0. -1.
         25    2    1    2    0    0 -0.20677042391E+03  0.43727637639E+02 -0.63000312344E+03  0.67616238740E+03  0.12500209635E+03 0.  0.
          5    1    1    2  502    0  0.11726082262E+02 -0.34156213548E+02 -0.63729795055E+02  0.73401121973E+02  0.47000000000E+01 0. -1.
         -5    1    1    2    0  502  0.19504434165E+03 -0.95714240912E+01 -0.49000286349E+02  0.20138774896E+03  0.47000000000E+01 0.  1.
          5    1    3    3  503    0 -0.12497261323E+03  0.24272091957E+01 -0.50992056627E+03  0.52503820748E+03  0.47000000000E+01 0. -1.
         -5    1    3    3    0  503 -0.81797810681E+02  0.41300428444E+02 -0.12008255716E+03  0.15112417992E+03  0.47000000000E+01 0. -1.
<mgrwt>
<rscale>  0 0.24932694E+03</rscale>
<asrwt>0</asrwt>
<pdfrwt beam="1">  1        2 0.13028342E+00 0.25060098E+03</pdfrwt>
<pdfrwt beam="2">  1       -2 0.16016773E-01 0.25060098E+03</pdfrwt>
<totfact> 0.10128958E+03</totfact>
</mgrwt>
</event>
<event>
 8    1  0.2018715E-005  0.1803592E+03  0.7546771E-02  0.1170353E+00
          2   -1    0    0  501    0  0.00000000000E+00  0.00000000000E+00  0.11392303005E+04  0.11392303005E+04  0.00000000000E+00 0. -1.
         -2   -1    0    0    0  501 -0.00000000000E+00 -0.00000000000E+00 -0.27344638528E+02  0.27344638528E+02  0.00000000000E+00 0.  1.
         25    2    1    2    0    0 -0.25011398840E+02 -0.12759750103E+03  0.66000512607E+03  0.68420479615E+03  0.12499097681E+03 0.  0.
         23    2    1    2    0    0  0.25011398840E+02  0.12759750103E+03  0.45188053594E+03  0.48237014293E+03  0.10760224758E+03 0.  0.
          5    1    4    4  502    0 -0.34451704414E+01  0.91571772957E+02  0.40969835785E+03  0.41984770242E+03  0.47000000000E+01 0. -1.
         -5    1    3    3    0  503 -0.73494217232E+02 -0.73362065265E+02  0.31953609408E+03  0.33601904411E+03  0.47000000000E+01 0.  1.
          5    1    3    3  503    0  0.48482818392E+02 -0.54235435763E+02  0.34046903199E+03  0.34818575203E+03  0.47000000000E+01 0.  1.
         -5    1    4    4    0  502  0.28456569281E+02  0.36025728070E+02  0.42182178086E+02  0.62522440502E+02  0.47000000000E+01 0.  1.
<mgrwt>
<rscale>  0 0.17739060E+03</rscale>
<asrwt>0</asrwt>
<pdfrwt beam="1">  1        2 0.17526616E+00 0.18035919E+03</pdfrwt>
<pdfrwt beam="2">  1       -2 0.42068683E-02 0.18035919E+03</pdfrwt>
<totfact> 0.54461797E+03</totfact>
</mgrwt>
</event>
<event>
 8    1  0.2018715E-005  0.2574174E+03  0.7546771E-02  0.1109348E+00
          1   -1    0    0  501    0  0.00000000000E+00  0.00000000000E+00  0.57908764653E+03  0.57908764653E+03  0.00000000000E+00 0. -1.
         -1   -1    0    0    0  501 -0.00000000000E+00 -0.00000000000E+00 -0.13436529417E+03  0.13436529417E+03  0.00000000000E+00 0.  1.
         25    2    1    2    0    0  0.15541929271E+03  0.16273505294E+03  0.80231317566E+02  0.26963079133E+03  0.12500338120E+03 0.  0.
         23    2    1    2    0    0 -0.15541929271E+03 -0.16273505294E+03  0.36449103479E+03  0.44382214938E+03  0.11613152815E+03 0.  0.
          5    1    4    4  502    0 -0.15797875080E+03 -0.11864793780E+03  0.23570134044E+03  0.30759036190E+03  0.47000000000E+01 0. -1.
         -5    1    3    3    0  503  0.86024408941E+02  0.16296733305E+03  0.37857880160E+02  0.18818570526E+03  0.47000000000E+01 0.  1.
          5    1    3    3  503    0  0.69394883769E+02 -0.23228010512E+00  0.42373437405E+02  0.81445086069E+02  0.47000000000E+01 0.  1.
         -5    1    4    4    0  502  0.25594580904E+01 -0.44087115145E+02  0.12878969436E+03  0.13623178748E+03  0.47000000000E+01 0.  1.
<mgrwt>
<rscale>  0 0.25636355E+03</rscale>
<asrwt>0</asrwt>
<pdfrwt beam="1">  1        1 0.89090406E-01 0.25741736E+03</pdfrwt>
<pdfrwt beam="2">  1       -1 0.20671584E-01 0.25741736E+03</pdfrwt>
<totfact> 0.70865894E+02</totfact>
</mgrwt>
</event>
<event>
 8    1  0.2018715E-005  0.1255786E+03  0.7546771E-02  0.1238014E+00
          1   -1    0    0  501    0  0.00000000000E+00  0.00000000000E+00  0.19890439597E+03  0.19890439597E+03  0.00000000000E+00 0. -1.
         -1   -1    0    0    0  501 -0.00000000000E+00 -0.00000000000E+00 -0.79476233556E+02  0.79476233556E+02  0.00000000000E+00 0.  1.
         25    2    1    2    0    0 -0.63061579052E+01 -0.10116063625E+02  0.10033184555E+03  0.16073724654E+03  0.12501152277E+03 0.  0.
         23    2    1    2    0    0  0.63061579052E+01  0.10116063625E+02  0.19096316862E+02  0.11764338298E+03  0.11546944994E+03 0.  0.
          5    1    3    3  502    0  0.16920920647E+02 -0.61975997686E+02  0.73465533965E+02  0.97706788533E+02  0.47000000000E+01 0.  1.
         -5    1    3    3    0  502 -0.23227078552E+02  0.51859934061E+02  0.26866311583E+02  0.63030458010E+02  0.47000000000E+01 0.  1.
          5    1    4    4  503    0 -0.50177360084E+01 -0.23320434743E+02  0.59206666795E+02  0.64004216613E+02  0.47000000000E+01 0. -1.
         -5    1    4    4    0  503  0.11323893914E+02  0.33436498368E+02 -0.40110349934E+02  0.53639166365E+02  0.47000000000E+01 0.  1.
<mgrwt>
<rscale>  0 0.12313429E+03</rscale>
<asrwt>0</asrwt>
<pdfrwt beam="1">  1        1 0.30600676E-01 0.12557859E+03</pdfrwt>
<pdfrwt beam="2">  1       -1 0.12227113E-01 0.12557859E+03</pdfrwt>
<totfact> 0.62196704E+03</totfact>
</mgrwt>
</event>
<event>
 7    1  0.2018715E-005  0.1465729E+03  0.7546771E-02  0.1227642E+00
          1   -1    0    0  501    0  0.00000000000E+00  0.00000000000E+00  0.49753421571E+02  0.49753421571E+02  0.00000000000E+00 0. -1.
         -1   -1    0    0    0  501 -0.00000000000E+00 -0.00000000000E+00 -0.28287116044E+03  0.28287116044E+03  0.00000000000E+00 0.  1.
         25    2    1    2    0    0 -0.20158657186E+02  0.73817413505E+02 -0.15280959486E+03  0.21174132095E+03  0.12501293022E+03 0.  0.
          5    1    1    2  502    0 -0.91179812701E+01 -0.53299311975E+02 -0.47152279536E+02  0.71898412394E+02  0.47000000000E+01 0. -1.
         -5    1    3    3    0  503 -0.59028570708E+02  0.69595906308E+02 -0.14530960507E+03  0.17165352796E+03  0.47000000000E+01 0. -1.
          5    1    3    3  503    0  0.38869913522E+02  0.42215071969E+01 -0.74999897862E+01  0.40087792993E+02  0.47000000000E+01 0. -1.
         -5    1    1    2    0  502  0.29276638456E+02 -0.20518101530E+02 -0.33155864480E+02  0.48984848669E+02  0.47000000000E+01 0.  1.
<mgrwt>
<rscale>  0 0.12987451E+03</rscale>
<asrwt>0</asrwt>
<pdfrwt beam="1">  1        1 0.76543728E-02 0.14657290E+03</pdfrwt>
<pdfrwt beam="2">  1       -1 0.43518639E-01 0.14657290E+03</pdfrwt>
<totfact> 0.47024305E+03</totfact>
</mgrwt>
</event>
<event>
 8    1  0.2018715E-005  0.1510958E+03  0.7546771E-02  0.1215655E+00
          3   -1    0    0  501    0  0.00000000000E+00  0.00000000000E+00  0.19401393263E+03  0.19401393263E+03  0.00000000000E+00 0. -1.
         -3   -1    0    0    0  501 -0.00000000000E+00 -0.00000000000E+00 -0.88014181656E+02  0.88014181656E+02  0.00000000000E+00 0.  1.
         25    2    1    2    0    0 -0.74581966957E+02 -0.40527034308E+02  0.86925554771E+02  0.17431581862E+03  0.12500016897E+03 0.  0.
         23    2    1    2    0    0  0.74581966957E+02  0.40527034308E+02  0.19074196206E+02  0.10771229567E+03  0.63507506432E+02 0.  0.
          5    1    4    4  502    0  0.18070562038E+02  0.38623088169E+02  0.26599673703E+02  0.50476933278E+02  0.47000000000E+01 0. -1.
         -5    1    4    4    0  502  0.56511404919E+02  0.19039461394E+01 -0.75254774974E+01  0.57235362394E+02  0.47000000000E+01 0.  1.
          5    1    3    3  503    0  0.27492785209E+02 -0.13759779202E+02 -0.82018015316E+01  0.32164332896E+02  0.47000000000E+01 0. -1.
         -5    1    3    3    0  503 -0.10207475217E+03 -0.26767255106E+02  0.95127356302E+02  0.14215148572E+03  0.47000000000E+01 0. -1.
<mgrwt>
<rscale>  0 0.13828531E+03</rscale>
<asrwt>0</asrwt>
<pdfrwt beam="1">  1        3 0.29848297E-01 0.15109584E+03</pdfrwt>
<pdfrwt beam="2">  1       -3 0.13540643E-01 0.15109584E+03</pdfrwt>
<totfact> 0.11237417E+03</totfact>
</mgrwt>
</event>
<event>
 8    1  0.2018715E-005  0.1330257E+03  0.7546771E-02  0.1247084E+00
          2   -1    0    0  501    0  0.00000000000E+00  0.00000000000E+00  0.34031159300E+03  0.34031159300E+03  0.00000000000E+00 0.  1.
         -2   -1    0    0    0  501 -0.00000000000E+00 -0.00000000000E+00 -0.36330498789E+02  0.36330498789E+02  0.00000000000E+00 0. -1.
         25    2    1    2    0    0  0.17664733612E+02  0.41951871257E+02  0.13718352453E+03  0.19108940249E+03  0.12499535201E+03 0.  0.
         23    2    1    2    0    0 -0.17664733612E+02 -0.41951871257E+02  0.16679756968E+03  0.18555268930E+03  0.67352571894E+02 0.  0.
          5    1    4    4  502    0 -0.26245587867E+02  0.98287820893E+01  0.52687296511E+02  0.59862150424E+02  0.47000000000E+01 0. -1.
         -5    1    4    4    0  502  0.85808542551E+01 -0.51780653346E+02  0.11411027317E+03  0.12569053888E+03  0.47000000000E+01 0.  1.
          5    1    3    3  503    0 -0.34452532786E+02 -0.28549195660E+02  0.41168496457E+02  0.60983347634E+02  0.47000000000E+01 0.  1.
         -5    1    3    3    0  503  0.52117266398E+02  0.70501066916E+02  0.96015028074E+02  0.13010605485E+03  0.47000000000E+01 0.  1.
<mgrwt>
<rscale>  0 0.11761521E+03</rscale>
<asrwt>0</asrwt>
<pdfrwt beam="1">  1        2 0.52355627E-01 0.13302571E+03</pdfrwt>
<pdfrwt beam="2">  1       -2 0.55893077E-02 0.13302571E+03</pdfrwt>
<totfact> 0.14776305E+04</totfact>
</mgrwt>
</event>
<event>
 8    1  0.2018715E-005  0.1291747E+03  0.7546771E-02  0.1250329E+00
          2   -1    0    0  501    0  0.00000000000E+00  0.00000000000E+00  0.28978471234E+02  0.28978471234E+02  0.00000000000E+00 0.  1.
         -2   -1    0    0    0  501 -0.00000000000E+00 -0.00000000000E+00 -0.38909814662E+03  0.38909814662E+03  0.00000000000E+00 0. -1.
         25    2    1    2    0    0 -0.32500724175E+02  0.24731068997E+01 -0.21882452782E+03  0.25410681385E+03  0.12499474205E+03 0.  0.
         23    2    1    2    0    0  0.32500724175E+02 -0.24731068997E+01 -0.14129514757E+03  0.16396980401E+03  0.76546486336E+02 0.  0.
          5    1    3    3  502    0  0.92317014915E+01  0.55272503951E+02 -0.13676378673E+03  0.14787392389E+03  0.47000000000E+01 0. -1.
         -5    1    4    4    0  503  0.15865079381E+02  0.26345320259E+02 -0.17500745180E+02  0.35695135875E+02  0.47000000000E+01 0.  1.
          5    1    4    4  503    0  0.16635644794E+02 -0.28818427159E+02 -0.12379440239E+03  0.12827466814E+03  0.47000000000E+01 0. -1.
         -5    1    3    3    0  502 -0.41732425666E+02 -0.52799397052E+02 -0.82060741089E+02  0.10623288996E+03  0.47000000000E+01 0. -1.
<mgrwt>
<rscale>  0 0.11572049E+03</rscale>
<asrwt>0</asrwt>
<pdfrwt beam="1">  1        2 0.44582265E-02 0.12917468E+03</pdfrwt>
<pdfrwt beam="2">  1       -2 0.59861251E-01 0.12917468E+03</pdfrwt>
<totfact> 0.46021922E+03</totfact>
</mgrwt>
</event>
<event>
 8    1  0.2018715E-005  0.1443123E+03  0.7546771E-02  0.1209670E+00
          2   -1    0    0  501    0  0.00000000000E+00  0.00000000000E+00  0.84974996529E+03  0.84974996529E+03  0.00000000000E+00 0. -1.
         -2   -1    0    0    0  501 -0.00000000000E+00 -0.00000000000E+00 -0.24210748879E+02  0.24210748879E+02  0.00000000000E+00 0.  1.
         25    2    1    2    0    0 -0.67493148582E+02  0.25402055669E+02  0.34545579064E+03  0.37438715839E+03  0.12500180616E+03 0.  0.
         23    2    1    2    0    0  0.67493148582E+02 -0.25402055669E+02  0.48008342577E+03  0.49957355578E+03  0.11786879313E+03 0.  0.
          5    1    3    3  502    0 -0.57699496741E+02 -0.38729428662E+02  0.11071934065E+03  0.13080543935E+03  0.47000000000E+01 0.  1.
         -5    1    3    3    0  502 -0.97936518415E+01  0.64131484331E+02  0.23473644999E+03  0.24358171905E+03  0.47000000000E+01 0.  1.
          5    1    4    4  503    0  0.76295510971E+02 -0.59148707777E+02  0.40888406061E+03  0.42015216249E+03  0.47000000000E+01 0. -1.
         -5    1    4    4    0  503 -0.88023623884E+01  0.33746652108E+02  0.71199365163E+02  0.79421393288E+02  0.47000000000E+01 0.  1.
<mgrwt>
<rscale>  0 0.14275411E+03</rscale>
<asrwt>0</asrwt>
<pdfrwt beam="1">  1        2 0.13073074E+00 0.14431230E+03</pdfrwt>
<pdfrwt beam="2">  1       -2 0.37247313E-02 0.14431230E+03</pdfrwt>
<totfact> 0.96887606E+03</totfact>
</mgrwt>
</event>
<event>
 7    1  0.2018715E-005  0.2268965E+03  0.7546771E-02  0.1133254E+00
         -1   -1    0    0    0  501 -0.00000000000E+00  0.00000000000E+00  0.20845742500E+03  0.20845742500E+03  0.00000000000E+00 0.  1.
          1   -1    0    0  501    0  0.00000000000E+00 -0.00000000000E+00 -0.33047008027E+03  0.33047008027E+03  0.00000000000E+00 0. -1.
         25    2    1    2    0    0  0.15551408749E+03 -0.40788949797E+02  0.95218215743E+02  0.22480767891E+03  0.12499445610E+03 0.  0.
          5    1    3    3  502    0  0.10782750634E+03 -0.81868079063E+01  0.12015019314E+03  0.16171565743E+03  0.47000000000E+01 0. -1.
         -5    1    1    2    0  503 -0.11410248344E+03 -0.15472235962E+01 -0.30565979968E+02  0.11822918319E+03  0.47000000000E+01 0.  1.
          5    1    1    2  503    0 -0.41411604055E+02  0.42336173393E+02 -0.18666489105E+03  0.19589064316E+03  0.47000000000E+01 0. -1.
         -5    1    3    3    0  502  0.47686581151E+02 -0.32602141891E+02 -0.24931977397E+02  0.63092021482E+02  0.47000000000E+01 0. -1.
<mgrwt>
<rscale>  0 0.22084632E+03</rscale>
<asrwt>0</asrwt>
<pdfrwt beam="1">  1        1 0.50841551E-01 0.22689648E+03</pdfrwt>
<pdfrwt beam="2">  1       -1 0.32070373E-01 0.22689648E+03</pdfrwt>
<totfact> 0.70775822E+02</totfact>
</mgrwt>
</event>
<event>
 7    1  0.2018715E-005  0.1537227E+03  0.7546771E-02  0.1201802E+00
         -1   -1    0    0    0  501 -0.00000000000E+00  0.00000000000E+00  0.46888195679E+02  0.46888195679E+02  0.00000000000E+00 0.  1.
          1   -1    0    0  501    0  0.00000000000E+00 -0.00000000000E+00 -0.44902525825E+03  0.44902525825E+03  0.00000000000E+00 0. -1.
         25    2    1    2    0    0 -0.39713909758E+02 -0.33658797288E+02 -0.16719782629E+03  0.21515176798E+03  0.12500024355E+03 0.  0.
          5    1    3    3  502    0 -0.82069083185E+02 -0.32423108113E+02 -0.13653920250E+03  0.16263958981E+03  0.47000000000E+01 0.  1.
         -5    1    3    3    0  502  0.42355173427E+02 -0.12356891748E+01 -0.30658623783E+02  0.52512178169E+02  0.47000000000E+01 0.  1.
          5    1    1    2  503    0  0.55150769451E+02 -0.41684042642E+02 -0.15474377808E+03  0.16954908917E+03  0.47000000000E+01 0. -1.
         -5    1    1    2    0  503 -0.15436859694E+02  0.75342839930E+02 -0.80195458200E+02  0.11121259678E+03  0.47000000000E+01 0.  1.
<mgrwt>
<rscale>  0 0.14892383E+03</rscale>
<asrwt>0</asrwt>
<pdfrwt beam="1">  1        1 0.69080805E-01 0.15372274E+03</pdfrwt>
<pdfrwt beam="2">  1       -1 0.72135689E-02 0.15372274E+03</pdfrwt>
<totfact> 0.50940929E+03</totfact>
</mgrwt>
</event>
<event>
 8    1  0.2018715E-005  0.1372865E+03  0.7546771E-02  0.1234833E+00
          2   -1    0    0  501    0  0.00000000000E+00  0.00000000000E+00  0.10329116139E+04  0.10329116139E+04  0.00000000000E+00 0. -1.
         -2   -1    0    0    0  501 -0.00000000000E+00 -0.00000000000E+00 -0.17550239307E+02  0.17550239307E+02  0.00000000000E+00 0.  1.
         25    2    1    2    0    0  0.21071357136E+02 -0.52713777107E+02  0.83968794192E+03  0.85083689116E+03  0.12499932466E+03 0.  0.
         23    2    1    2    0    0 -0.21071357136E+02  0.52713777107E+02  0.17567343270E+03  0.19962496208E+03  0.75935671052E+02 0.  0.
          5    1    3    3  502    0 -0.84391220259E+01  0.33524723430E+02  0.10841590146E+03  0.11389127952E+03  0.47000000000E+01 0. -1.
         -5    1    4    4    0  503 -0.43477057574E+02  0.27693847102E+02  0.14476228187E+03  0.15373812785E+03  0.47000000000E+01 0.  1.
          5    1    4    4  503    0  0.22405700437E+02  0.25019930004E+02  0.30911150831E+02  0.45886834225E+02  0.47000000000E+01 0. -1.
         -5    1    3    3    0  502  0.29510479162E+02 -0.86238500537E+02  0.73127204046E+03  0.73694561164E+03  0.47000000000E+01 0. -1.
<mgrwt>
<rscale>  0 0.12515107E+03</rscale>
<asrwt>0</asrwt>
<pdfrwt beam="1">  1        2 0.15890943E+00 0.13728647E+03</pdfrwt>
<pdfrwt beam="2">  1       -2 0.27000376E-02 0.13728647E+03</pdfrwt>
<totfact> 0.11962038E+04</totfact>
</mgrwt>
</event>
<event>
 8    1  0.2018715E-005  0.1374569E+03  0.7546771E-02  0.1222324E+00
         -1   -1    0    0    0  501 -0.00000000000E+00  0.00000000000E+00  0.11065454966E+03  0.11065454966E+03  0.00000000000E+00 0.  1.
          1   -1    0    0  501    0  0.00000000000E+00 -0.00000000000E+00 -0.15994234643E+03  0.15994234643E+03  0.00000000000E+00 0. -1.
         25    2    1    2    0    0 -0.53768162091E+02  0.19462280379E+02 -0.55088567894E+02  0.14808492422E+03  0.12499839541E+03 0.  0.
         23    2    1    2    0    0  0.53768162091E+02 -0.19462280379E+02  0.58007711219E+01  0.12251197187E+03  0.10819306214E+03 0.  0.
          5    1    3    3  502    0 -0.92196851124E+02 -0.57653662044E+00 -0.47549019798E+02  0.10384407078E+03  0.47000000000E+01 0. -1.
         -5    1    3    3    0  502  0.38428689033E+02  0.20038816999E+02 -0.75395480959E+01  0.44240853439E+02  0.47000000000E+01 0. -1.
          5    1    4    4  503    0  0.84847374384E+01  0.40115417757E+02 -0.16250521030E+02  0.44355461275E+02  0.47000000000E+01 0. -1.
         -5    1    4    4    0  503  0.45283424652E+02 -0.59577698136E+02  0.22051292152E+02  0.78156510599E+02  0.47000000000E+01 0.  1.
<mgrwt>
<rscale>  0 0.13352041E+03</rscale>
<asrwt>0</asrwt>
<pdfrwt beam="1">  1        1 0.24606515E-01 0.13745688E+03</pdfrwt>
<pdfrwt beam="2">  1       -1 0.17023777E-01 0.13745688E+03</pdfrwt>
<totfact> 0.48977146E+03</totfact>
</mgrwt>
</event>
<event>
 8    1  0.2018715E-005  0.2376005E+03  0.7546771E-02  0.1122929E+00
          1   -1    0    0  501    0  0.00000000000E+00  0.00000000000E+00  0.54448519647E+03  0.54448519647E+03  0.00000000000E+00 0. -1.
         -1   -1    0    0    0  501 -0.00000000000E+00 -0.00000000000E+00 -0.12288116064E+03  0.12288116064E+03  0.00000000000E+00 0.  1.
         25    2    1    2    0    0  0.18337285158E+03  0.84881030149E+02  0.35850560614E+03  0.43009332500E+03  0.12499442629E+03 0.  0.
         23    2    1    2    0    0 -0.18337285158E+03 -0.84881030149E+02  0.63098429687E+02  0.23727303210E+03  0.10717596727E+03 0.  0.
          5    1    3    3  502    0  0.58491922533E+02  0.29255093647E+02  0.25974313392E+02  0.70526026842E+02  0.47000000000E+01 0.  1.
         -5    1    4    4    0  503 -0.30823437564E+02 -0.41942846361E+02 -0.22723072783E+02  0.56988724331E+02  0.47000000000E+01 0.  1.
          5    1    4    4  503    0 -0.15254941401E+03 -0.42938183787E+02  0.85821502471E+02  0.18028430777E+03  0.47000000000E+01 0. -1.
         -5    1    3    3    0  502  0.12488092904E+03  0.55625936502E+02  0.33253129275E+03  0.35956729816E+03  0.47000000000E+01 0.  1.
<mgrwt>
<rscale>  0 0.23535095E+03</rscale>
<asrwt>0</asrwt>
<pdfrwt beam="1">  1        1 0.83766952E-01 0.23760050E+03</pdfrwt>
<pdfrwt beam="2">  1       -1 0.18904794E-01 0.23760050E+03</pdfrwt>
<totfact> 0.89182385E+02</totfact>
</mgrwt>
</event>
<event>
 8    1  0.2018715E-005  0.1326859E+03  0.7546771E-02  0.1228096E+00
         -2   -1    0    0    0  501 -0.00000000000E+00  0.00000000000E+00  0.95855036473E+02  0.95855036473E+02  0.00000000000E+00 0.  1.
          2   -1    0    0  501    0  0.00000000000E+00 -0.00000000000E+00 -0.17840577553E+03  0.17840577553E+03  0.00000000000E+00 0. -1.
         25    2    1    2    0    0 -0.40715252470E+02  0.17930980656E+02 -0.77154069007E+02  0.15348711884E+03  0.12500517363E+03 0.  0.
         23    2    1    2    0    0  0.40715252470E+02 -0.17930980656E+02 -0.53966700539E+01  0.12077369317E+03  0.11215127758E+03 0.  0.
          5    1    4    4  502    0  0.74586586684E+02  0.44329681563E+01 -0.19816809118E+02  0.77444212460E+02  0.47000000000E+01 0. -1.
         -5    1    3    3    0  503 -0.77282676799E+01  0.69435542842E+02 -0.30297178717E+02  0.76295673333E+02  0.47000000000E+01 0.  1.
          5    1    3    3  503    0 -0.32986984790E+02 -0.51504562186E+02 -0.46856890291E+02  0.77191445505E+02  0.47000000000E+01 0.  1.
         -5    1    4    4    0  502 -0.33871334214E+02 -0.22363948812E+02  0.14420139064E+02  0.43329480710E+02  0.47000000000E+01 0.  1.
<mgrwt>
<rscale>  0 0.12956961E+03</rscale>
<asrwt>0</asrwt>
<pdfrwt beam="1">  1        2 0.27447042E-01 0.13268589E+03</pdfrwt>
<pdfrwt beam="2">  1       -2 0.14746929E-01 0.13268589E+03</pdfrwt>
<totfact> 0.64723329E+03</totfact>
</mgrwt>
</event>
<event>
 8    1  0.2018715E-005  0.1345251E+03  0.7546771E-02  0.1227759E+00
         -2   -1    0    0    0  501 -0.00000000000E+00  0.00000000000E+00  0.72004166080E+02  0.72004166080E+02  0.00000000000E+00 0.  1.
          2   -1    0    0  501    0  0.00000000000E+00 -0.00000000000E+00 -0.21893233087E+03  0.21893233087E+03  0.00000000000E+00 0. -1.
         25    2    1    2    0    0  0.29963353476E+02 -0.39651773240E+02 -0.78042693967E+02  0.15552383288E+03  0.12500773912E+03 0.  0.
         23    2    1    2    0    0 -0.29963353476E+02  0.39651773240E+02 -0.68885470827E+02  0.13541266407E+03  0.10545764945E+03 0.  0.
          5    1    4    4  502    0  0.15856156730E+02  0.62081152647E+02 -0.47493539174E+02  0.79895015386E+02  0.47000000000E+01 0. -1.
         -5    1    3    3    0  503 -0.17245473503E+02 -0.55023422854E+02  0.56189098460E+01  0.58126117768E+02  0.47000000000E+01 0. -1.
          5    1    3    3  503    0  0.47208826978E+02  0.15371649614E+02 -0.83661603813E+02  0.97397715112E+02  0.47000000000E+01 0. -1.
         -5    1    4    4    0  502 -0.45819510206E+02 -0.22429379407E+02 -0.21391931654E+02  0.55517648689E+02  0.47000000000E+01 0.  1.
<mgrwt>
<rscale>  0 0.12979574E+03</rscale>
<asrwt>0</asrwt>
<pdfrwt beam="1">  1        2 0.33681897E-01 0.13452509E+03</pdfrwt>
<pdfrwt beam="2">  1       -2 0.11077564E-01 0.13452509E+03</pdfrwt>
<totfact> 0.82211135E+03</totfact>
</mgrwt>
</event>
<event>
 8    1  0.2018715E-005  0.2138048E+03  0.7546771E-02  0.1143382E+00
          2   -1    0    0  501    0  0.00000000000E+00  0.00000000000E+00  0.40613227205E+03  0.40613227205E+03  0.00000000000E+00 0.  1.
         -2   -1    0    0    0  501 -0.00000000000E+00 -0.00000000000E+00 -0.14543670932E+03  0.14543670932E+03  0.00000000000E+00 0. -1.
         25    2    1    2    0    0  0.11787372914E+03  0.12725443928E+03 -0.17369852733E+02  0.21450924160E+03  0.12499837842E+03 0.  0.
         23    2    1    2    0    0 -0.11787372914E+03 -0.12725443928E+03  0.27806541547E+03  0.33705973978E+03  0.78746330455E+02 0.  0.
          5    1    3    3  502    0  0.67696379408E+02  0.93249900842E+02  0.48286286556E+02  0.12502799391E+03  0.47000000000E+01 0. -1.
         -5    1    4    4    0  503 -0.54572747587E+02 -0.11245151946E+03  0.17474619462E+03  0.21489963132E+03  0.47000000000E+01 0.  1.
          5    1    4    4  503    0 -0.63300981558E+02 -0.14802919822E+02  0.10331922085E+03  0.12216010846E+03  0.47000000000E+01 0.  1.
         -5    1    3    3    0  502  0.50177349737E+02  0.34004538437E+02 -0.65656139289E+02  0.89481247685E+02  0.47000000000E+01 0. -1.
<mgrwt>
<rscale>  0 0.20772312E+03</rscale>
<asrwt>0</asrwt>
<pdfrwt beam="1">  1        2 0.62481887E-01 0.21380482E+03</pdfrwt>
<pdfrwt beam="2">  1       -2 0.22374879E-01 0.21380482E+03</pdfrwt>
<totfact> 0.13525776E+03</totfact>
</mgrwt>
</event>
<event>
 8    1  0.2018715E-005  0.1303548E+03  0.7546771E-02  0.1250930E+00
          1   -1    0    0  501    0  0.00000000000E+00  0.00000000000E+00  0.16531183775E+03  0.16531183775E+03  0.00000000000E+00 0. -1.
         -1   -1    0    0    0  501 -0.00000000000E+00 -0.00000000000E+00 -0.70815085058E+02  0.70815085058E+02  0.00000000000E+00 0.  1.
         25    2    1    2    0    0  0.36650306351E+02 -0.47721742834E+01  0.84890971863E+02  0.15555981718E+03  0.12500544394E+03 0.  0.
         23    2    1    2    0    0 -0.36650306351E+02  0.47721742834E+01  0.96057808264E+01  0.80567105626E+02  0.70942010690E+02 0.  0.
          5    1    3    3  502    0  0.25996314623E+02  0.46006932781E+02 -0.32737454153E+01  0.53153115120E+02  0.47000000000E+01 0.  1.
         -5    1    3    3    0  502  0.10653991728E+02 -0.50779107064E+02  0.88164717278E+02  0.10240670206E+03  0.47000000000E+01 0.  1.
          5    1    4    4  503    0 -0.32685152416E+02  0.33922934440E+02  0.16232639061E+02  0.50046710585E+02  0.47000000000E+01 0. -1.
         -5    1    4    4    0  503 -0.39651539346E+01 -0.29150760157E+02 -0.66268582345E+01  0.30520395041E+02  0.47000000000E+01 0.  1.
<mgrwt>
<rscale>  0 0.11537389E+03</rscale>
<asrwt>0</asrwt>
<pdfrwt beam="1">  1        1 0.25432590E-01 0.13035482E+03</pdfrwt>
<pdfrwt beam="2">  1       -1 0.10894629E-01 0.13035482E+03</pdfrwt>
<totfact> 0.93771452E+03</totfact>
</mgrwt>
</event>
<event>
 8    1  0.2018715E-005  0.1473225E+03  0.7546771E-02  0.1206126E+00
         -2   -1    0    0    0  501 -0.00000000000E+00  0.00000000000E+00  0.29493254445E+03  0.29493254445E+03  0.00000000000E+00 0.  1.
          2   -1    0    0  501    0  0.00000000000E+00 -0.00000000000E+00 -0.88250108541E+02  0.88250108541E+02  0.00000000000E+00 0. -1.
         25    2    1    2    0    0 -0.63301133035E+02 -0.45513161609E+02  0.19240226550E+03  0.24232736019E+03  0.12500174562E+03 0.  0.
         23    2    1    2    0    0  0.63301133035E+02  0.45513161609E+02  0.14280170413E+02  0.14085529280E+03  0.11643800462E+03 0.  0.
          5    1    4    4  502    0  0.40017239884E+01  0.64793796100E+02 -0.21824391667E+02  0.68648699037E+02  0.47000000000E+01 0. -1.
         -5    1    4    4    0  502  0.59299409047E+02 -0.19280634490E+02  0.36104562080E+02  0.72206593762E+02  0.47000000000E+01 0.  1.
          5    1    3    3  503    0 -0.63890362224E+02 -0.36605911933E+01  0.18954372980E+03  0.20011070391E+03  0.47000000000E+01 0. -1.
         -5    1    3    3    0  503  0.58922918918E+00 -0.41852570416E+02  0.28585356978E+01  0.42216656284E+02  0.47000000000E+01 0. -1.
<mgrwt>
<rscale>  0 0.14549036E+03</rscale>
<asrwt>0</asrwt>
<pdfrwt beam="1">  1        2 0.13576940E-01 0.14732250E+03</pdfrwt>
<pdfrwt beam="2">  1       -2 0.45374237E-01 0.14732250E+03</pdfrwt>
<totfact> 0.19911621E+03</totfact>
</mgrwt>
</event>
<event>
 8    1  0.2018715E-005  0.1545746E+03  0.7546771E-02  0.1196961E+00
          2   -1    0    0  501    0  0.00000000000E+00  0.00000000000E+00  0.11366031468E+04  0.11366031468E+04  0.00000000000E+00 0. -1.
         -2   -1    0    0    0  501 -0.00000000000E+00 -0.00000000000E+00 -0.20435667073E+02  0.20435667073E+02  0.00000000000E+00 0.  1.
         25    2    1    2    0    0  0.58066174967E+02  0.69976807463E+02  0.49960054370E+03  0.52296656016E+03  0.12499954210E+03 0.  0.
         23    2    1    2    0    0 -0.58066174967E+02 -0.69976807463E+02  0.61656693605E+03  0.63407225374E+03  0.11672361401E+03 0.  0.
          5    1    4    4  502    0 -0.40718257367E+02 -0.51188496399E+02  0.59926174651E+03  0.60283909087E+03  0.47000000000E+01 0. -1.
         -5    1    3    3    0  503 -0.38793384953E+02  0.93192903542E+01  0.13356924921E+03  0.13947978428E+03  0.47000000000E+01 0.  1.
          5    1    3    3  503    0  0.96859559920E+02  0.60657517109E+02  0.36603129449E+03  0.38348677588E+03  0.47000000000E+01 0.  1.
         -5    1    4    4    0  502 -0.17347917600E+02 -0.18788311064E+02  0.17305189542E+02  0.31233162869E+02  0.47000000000E+01 0.  1.
<mgrwt>
<rscale>  0 0.15289435E+03</rscale>
<asrwt>0</asrwt>
<pdfrwt beam="1">  1        2 0.17486197E+00 0.15457464E+03</pdfrwt>
<pdfrwt beam="2">  1       -2 0.31439497E-02 0.15457464E+03</pdfrwt>
<totfact> 0.83810706E+03</totfact>
</mgrwt>
</event>
<event>
 8    1  0.2018715E-005  0.1383019E+03  0.7546771E-02  0.1221422E+00
         -2   -1    0    0    0  501 -0.00000000000E+00  0.00000000000E+00  0.30844909353E+02  0.30844909353E+02  0.00000000000E+00 0. -1.
          2   -1    0    0  501    0  0.00000000000E+00 -0.00000000000E+00 -0.59623525023E+03  0.59623525023E+03  0.00000000000E+00 0.  1.
         25    2    1    2    0    0 -0.25099540346E+02  0.53590333752E+02 -0.38480345662E+03  0.40890234290E+03  0.12500206003E+03 0.  0.
         23    2    1    2    0    0  0.25099540346E+02 -0.53590333752E+02 -0.18058688426E+03  0.21817781667E+03  0.10718220993E+03 0.  0.
          5    1    4    4  502    0 -0.30278798886E+02  0.73811489655E+01 -0.91412689936E+02  0.96693623902E+02  0.47000000000E+01 0. -1.
         -5    1    4    4    0  502  0.55378339232E+02 -0.60971482718E+02 -0.89174194320E+02  0.12148419277E+03  0.47000000000E+01 0.  1.
          5    1    3    3  503    0 -0.61392102083E+02  0.32425824574E+01 -0.28251496277E+03  0.28916482969E+03  0.47000000000E+01 0. -1.
         -5    1    3    3    0  503  0.36292561737E+02  0.50347751295E+02 -0.10228849385E+03  0.11973751322E+03  0.47000000000E+01 0. -1.
<mgrwt>
<rscale>  0 0.13415170E+03</rscale>
<asrwt>0</asrwt>
<pdfrwt beam="1">  1        2 0.91728504E-01 0.13830194E+03</pdfrwt>
<pdfrwt beam="2">  1       -2 0.47453705E-02 0.13830194E+03</pdfrwt>
<totfact> 0.10301119E+04</totfact>
</mgrwt>
</event>
<event>
 8    1  0.2018715E-005  0.2066613E+03  0.7546771E-02  0.1150907E+00
          2   -1    0    0  501    0  0.00000000000E+00  0.00000000000E+00  0.88054176133E+03  0.88054176133E+03  0.00000000000E+00 0. -1.
         -2   -1    0    0    0  501 -0.00000000000E+00 -0.00000000000E+00 -0.41734056336E+02  0.41734056336E+02  0.00000000000E+00 0.  1.
         25    2    1    2    0    0 -0.47956977831E+02  0.15742952302E+03  0.43139633378E+03  0.47834266841E+03  0.12499994074E+03 0.  0.
         23    2    1    2    0    0  0.47956977831E+02 -0.15742952302E+03  0.40741137122E+03  0.44393314926E+03  0.63314209875E+02 0.  0.
          5    1    4    4  502    0  0.53244209156E+02 -0.13318623848E+03  0.38217000200E+03  0.40822729007E+03  0.47000000000E+01 0. -1.
         -5    1    3    3    0  503  0.88983231509E+01  0.14528680934E+03  0.27071117295E+03  0.30739887164E+03  0.47000000000E+01 0. -1.
          5    1    3    3  503    0 -0.56855300981E+02  0.12142713674E+02  0.16068516083E+03  0.17094379678E+03  0.47000000000E+01 0. -1.
         -5    1    4    4    0  502 -0.52872313258E+01 -0.24243284540E+02  0.25241369217E+02  0.35705859188E+02  0.47000000000E+01 0.  1.
<mgrwt>
<rscale>  0 0.19862166E+03</rscale>
<asrwt>0</asrwt>
<pdfrwt beam="1">  1        2 0.13546795E+00 0.20666135E+03</pdfrwt>
<pdfrwt beam="2">  1       -2 0.64206247E-02 0.20666135E+03</pdfrwt>
<totfact> 0.41291791E+03</totfact>
</mgrwt>
</event>
<event>
 7    1  0.2018715E-005  0.1869962E+03  0.7546771E-02  0.1170293E+00
         -3   -1    0    0    0  501 -0.00000000000E+00  0.00000000000E+00  0.85544865945E+02  0.85544865945E+02  0.00000000000E+00 0.  1.
          3   -1    0    0  501    0  0.00000000000E+00 -0.00000000000E+00 -0.39614333762E+03  0.39614333762E+03  0.00000000000E+00 0. -1.
         25    2    1    2    0    0 -0.70643461705E+02  0.48793463359E+02 -0.23566250126E+03  0.28023606173E+03  0.12499654015E+03 0.  0.
          5    1    3    3  502    0  0.35746738264E+02  0.19398459036E+02 -0.70652287469E+02  0.81657609775E+02  0.47000000000E+01 0.  1.
         -5    1    3    3    0  502 -0.10639019997E+03  0.29395004323E+02 -0.16501021379E+03  0.19857845196E+03  0.47000000000E+01 0.  1.
          5    1    1    2  503    0  0.69051248930E+01 -0.10178419075E+03 -0.55308596697E+02  0.11614143578E+03  0.47000000000E+01 0. -1.
         -5    1    1    2    0  503  0.63738336812E+02  0.52990727387E+02 -0.19627373725E+02  0.85310706057E+02  0.47000000000E+01 0.  1.
<mgrwt>
<rscale>  0 0.17745152E+03</rscale>
<asrwt>0</asrwt>
<pdfrwt beam="1">  1        3 0.60945129E-01 0.18699617E+03</pdfrwt>
<pdfrwt beam="2">  1       -3 0.13160749E-01 0.18699617E+03</pdfrwt>
<totfact> 0.30019248E+02</totfact>
</mgrwt>
</event>
<event>
 8    1  0.2018715E-005  0.1330203E+03  0.7546771E-02  0.1230130E+00
         -3   -1    0    0    0  501 -0.00000000000E+00  0.00000000000E+00  0.43639552583E+02  0.43639552583E+02  0.00000000000E+00 0.  1.
          3   -1    0    0  501    0  0.00000000000E+00 -0.00000000000E+00 -0.36456329059E+03  0.36456329059E+03  0.00000000000E+00 0. -1.
         25    2    1    2    0    0 -0.50177684627E+01 -0.45215314488E+02 -0.13385171910E+03  0.18870790281E+03  0.12499914884E+03 0.  0.
         23    2    1    2    0    0  0.50177684627E+01  0.45215314488E+02 -0.18707201890E+03  0.21949494036E+03  0.10541577645E+03 0.  0.
          5    1    3    3  502    0 -0.30109025368E+02 -0.14523687149E+01  0.13149102462E+02  0.33221253424E+02  0.47000000000E+01 0. -1.
         -5    1    3    3    0  502  0.25091256906E+02 -0.43762945773E+02 -0.14700082157E+03  0.15548664938E+03  0.47000000000E+01 0. -1.
          5    1    4    4  503    0 -0.48263077090E+02  0.35245501093E+02 -0.10780253221E+03  0.12334928419E+03  0.47000000000E+01 0. -1.
         -5    1    4    4    0  503  0.53280845552E+02  0.99698133952E+01 -0.79269486685E+02  0.96145656174E+02  0.47000000000E+01 0.  1.
<mgrwt>
<rscale>  0 0.12821427E+03</rscale>
<asrwt>0</asrwt>
<pdfrwt beam="1">  1        3 0.56086660E-01 0.13302026E+03</pdfrwt>
<pdfrwt beam="2">  1       -3 0.67137774E-02 0.13302026E+03</pdfrwt>
<totfact> 0.10330259E+03</totfact>
</mgrwt>
</event>
<event>
 8    1  0.2018715E-005  0.1814583E+03  0.7546771E-02  0.1174303E+00
         -2   -1    0    0    0  501 -0.00000000000E+00  0.00000000000E+00  0.54530518968E+02  0.54530518968E+02  0.00000000000E+00 0.  1.
          2   -1    0    0  501    0  0.00000000000E+00 -0.00000000000E+00 -0.51247417171E+03  0.51247417171E+03  0.00000000000E+00 0. -1.
         25    2    1    2    0    0 -0.13149917793E+03  0.30357308305E+01 -0.22346790560E+03  0.28786283535E+03  0.12500343069E+03 0.  0.
         23    2    1    2    0    0  0.13149917793E+03 -0.30357308305E+01 -0.23447574714E+03  0.27914185533E+03  0.75100265900E+02 0.  0.
          5    1    3    3  502    0  0.11213509513E+02  0.25323262195E+02 -0.94852111422E+01  0.29649108489E+02  0.47000000000E+01 0. -1.
         -5    1    4    4    0  503  0.46237249060E+02  0.22480137973E+02 -0.40311296163E+02  0.65500613755E+02  0.47000000000E+01 0.  1.
          5    1    4    4  503    0  0.85261928873E+02 -0.25515868804E+02 -0.19416445098E+03  0.21364124157E+03  0.47000000000E+01 0. -1.
         -5    1    3    3    0  502 -0.14271268745E+03 -0.22287531365E+02 -0.21398269445E+03  0.25821372686E+03  0.47000000000E+01 0. -1.
<mgrwt>
<rscale>  0 0.17344422E+03</rscale>
<asrwt>0</asrwt>
<pdfrwt beam="1">  1        2 0.78842182E-01 0.18145828E+03</pdfrwt>
<pdfrwt beam="2">  1       -2 0.83893104E-02 0.18145828E+03</pdfrwt>
<totfact> 0.51935602E+03</totfact>
</mgrwt>
</event>
<event>
 8    1  0.2018715E-005  0.1254146E+03  0.7546771E-02  0.1257087E+00
          2   -1    0    0  501    0  0.00000000000E+00  0.00000000000E+00  0.10541136345E+04  0.10541136345E+04  0.00000000000E+00 0. -1.
         -2   -1    0    0    0  501 -0.00000000000E+00 -0.00000000000E+00 -0.11032434222E+02  0.11032434222E+02  0.00000000000E+00 0.  1.
         25    2    1    2    0    0 -0.69449335210E+01  0.75061341983E+01  0.46462914818E+03  0.48125779829E+03  0.12499699563E+03 0.  0.
         23    2    1    2    0    0  0.69449335210E+01 -0.75061341983E+01  0.57845205208E+03  0.58388827043E+03  0.78829953874E+02 0.  0.
          5    1    3    3  502    0  0.13815145704E+02  0.59063622889E+02  0.32948987505E+03  0.33505975222E+03  0.47000000000E+01 0. -1.
         -5    1    4    4    0  503 -0.30061202821E+02  0.16881806772E+02  0.23739575580E+03  0.23993229501E+03  0.47000000000E+01 0.  1.
          5    1    4    4  503    0  0.37006136342E+02 -0.24387940971E+02  0.34105629628E+03  0.34395597542E+03  0.47000000000E+01 0. -1.
         -5    1    3    3    0  502 -0.20760079225E+02 -0.51557488690E+02  0.13513927314E+03  0.14619804607E+03  0.47000000000E+01 0. -1.
<mgrwt>
<rscale>  0 0.11190252E+03</rscale>
<asrwt>0</asrwt>
<pdfrwt beam="1">  1        2 0.16217125E+00 0.12541460E+03</pdfrwt>
<pdfrwt beam="2">  1       -2 0.16972984E-02 0.12541460E+03</pdfrwt>
<totfact> 0.22687064E+04</totfact>
</mgrwt>
</event>
<event>
 7    1  0.2018715E-005  0.1403291E+03  0.7546771E-02  0.1238679E+00
         -4   -1    0    0    0  501 -0.00000000000E+00  0.00000000000E+00  0.28247099164E+03  0.28247099164E+03  0.00000000000E+00 0.  1.
          4   -1    0    0  501    0  0.00000000000E+00 -0.00000000000E+00 -0.50673638009E+02  0.50673638009E+02  0.00000000000E+00 0. -1.
         25    2    1    2    0    0  0.38360094641E+02  0.50954588690E+02  0.82519630140E+02  0.16279354056E+03  0.12499752205E+03 0.  0.
          5    1    3    3  502    0 -0.19067275697E+02 -0.20742434345E+02 -0.11930547633E+02  0.30955412319E+02  0.47000000000E+01 0. -1.
         -5    1    1    2    0  503  0.87934877467E-01 -0.20901869743E+02  0.94240007228E+02  0.96644528318E+02  0.47000000000E+01 0.  1.
          5    1    1    2  503    0 -0.38448029518E+02 -0.30052718946E+02  0.55037716266E+02  0.73706560777E+02  0.47000000000E+01 0. -1.
         -5    1    3    3    0  502  0.57427370337E+02  0.71697023034E+02  0.94450177774E+02  0.13183812824E+03  0.47000000000E+01 0. -1.
<mgrwt>
<rscale>  0 0.12271798E+03</rscale>
<asrwt>0</asrwt>
<pdfrwt beam="1">  1        4 0.77959445E-02 0.14032907E+03</pdfrwt>
<pdfrwt beam="2">  1       -4 0.43457075E-01 0.14032907E+03</pdfrwt>
<totfact> 0.98855371E+02</totfact>
</mgrwt>
</event>
<event>
 8    1  0.2018715E-005  0.2260386E+03  0.7546771E-02  0.1133628E+00
         -2   -1    0    0    0  501 -0.00000000000E+00  0.00000000000E+00  0.33606460313E+03  0.33606460313E+03  0.00000000000E+00 0.  1.
          2   -1    0    0  501    0  0.00000000000E+00 -0.00000000000E+00 -0.18536638341E+03  0.18536638341E+03  0.00000000000E+00 0. -1.
         25    2    1    2    0    0 -0.15505311331E+03 -0.10690417221E+03 -0.53966318547E+02  0.23239150710E+03  0.12499391604E+03 0.  0.
         23    2    1    2    0    0  0.15505311331E+03  0.10690417221E+03  0.20466453827E+03  0.28903947944E+03  0.78652892281E+02 0.  0.
          5    1    4    4  502    0  0.54289385091E+02  0.66413664543E+02  0.48145215059E+02  0.98479256215E+02  0.47000000000E+01 0. -1.
         -5    1    3    3    0  503 -0.94934478508E+02 -0.12214844277E+03 -0.67311046964E+02  0.16877696621E+03  0.47000000000E+01 0. -1.
          5    1    3    3  503    0 -0.60118634805E+02  0.15244270553E+02  0.13344728417E+02  0.63614540885E+02  0.47000000000E+01 0. -1.
         -5    1    4    4    0  502  0.10076372822E+03  0.40490507671E+02  0.15651932321E+03  0.19056022322E+03  0.47000000000E+01 0.  1.
<mgrwt>
<rscale>  0 0.22034184E+03</rscale>
<asrwt>0</asrwt>
<pdfrwt beam="1">  1        2 0.28517905E-01 0.22603860E+03</pdfrwt>
<pdfrwt beam="2">  1       -2 0.51702247E-01 0.22603860E+03</pdfrwt>
<totfact> 0.66640564E+02</totfact>
</mgrwt>
</event>
<event>
 8    1  0.2018715E-005  0.1254892E+03  0.7546771E-02  0.1240753E+00
          2   -1    0    0  501    0  0.00000000000E+00  0.00000000000E+00  0.73632967697E+02  0.73632967697E+02  0.00000000000E+00 0. -1.
         -2   -1    0    0    0  501 -0.00000000000E+00 -0.00000000000E+00 -0.18834198798E+03  0.18834198798E+03  0.00000000000E+00 0.  1.
         25    2    1    2    0    0 -0.23726508195E+01 -0.10883797413E+02 -0.62127182904E+02  0.14002616468E+03  0.12499381353E+03 0.  0.
         23    2    1    2    0    0  0.23726508195E+01  0.10883797413E+02 -0.52581837384E+02  0.12194879100E+03  0.10946493268E+03 0.  0.
          5    1    4    4  502    0  0.11316960898E+01 -0.43193539914E+02  0.38559752601E+01  0.43633945175E+02  0.47000000000E+01 0. -1.
         -5    1    4    4    0  502  0.12409547297E+01  0.54077337327E+02 -0.56437812644E+02  0.78314845828E+02  0.47000000000E+01 0.  1.
          5    1    3    3  503    0 -0.40953286787E+02 -0.53595083255E+02 -0.30363085269E+02  0.74118901738E+02  0.47000000000E+01 0.  1.
         -5    1    3    3    0  503  0.38580635968E+02  0.42711285842E+02 -0.31764097635E+02  0.65907262942E+02  0.47000000000E+01 0.  1.
<mgrwt>
<rscale>  0 0.12143190E+03</rscale>
<asrwt>0</asrwt>
<pdfrwt beam="1">  1        2 0.11328149E-01 0.12548920E+03</pdfrwt>
<pdfrwt beam="2">  1       -2 0.28975691E-01 0.12548920E+03</pdfrwt>
<totfact> 0.56415125E+03</totfact>
</mgrwt>
</event>
<event>
 8    1  0.2018715E-005  0.2217530E+03  0.7546771E-02  0.1137012E+00
          2   -1    0    0  501    0  0.00000000000E+00  0.00000000000E+00  0.51757902737E+03  0.51757902737E+03  0.00000000000E+00 0. -1.
         -2   -1    0    0    0  501 -0.00000000000E+00 -0.00000000000E+00 -0.95364286395E+02  0.95364286395E+02  0.00000000000E+00 0.  1.
         25    2    1    2    0    0  0.10492388839E+03  0.15014280699E+03  0.31952833595E+03  0.38893795670E+03  0.12498996697E+03 0.  0.
         23    2    1    2    0    0 -0.10492388839E+03 -0.15014280699E+03  0.10268640503E+03  0.22400535707E+03  0.77987289813E+02 0.  0.
          5    1    3    3  502    0  0.13380850433E+03  0.12235692508E+03  0.25931210250E+03  0.31645029538E+03  0.47000000000E+01 0. -1.
         -5    1    4    4    0  503 -0.38739847862E+02 -0.86742837761E+02  0.13561291248E+02  0.96078584167E+02  0.47000000000E+01 0.  1.
          5    1    4    4  503    0 -0.66184040525E+02 -0.63399969227E+02  0.89125113779E+02  0.12792677290E+03  0.47000000000E+01 0. -1.
         -5    1    3    3    0  502 -0.28884615948E+02  0.27785881912E+02  0.60216233456E+02  0.72487661320E+02  0.47000000000E+01 0. -1.
<mgrwt>
<rscale>  0 0.21585416E+03</rscale>
<asrwt>0</asrwt>
<pdfrwt beam="1">  1        2 0.79627541E-01 0.22175296E+03</pdfrwt>
<pdfrwt beam="2">  1       -2 0.14671429E-01 0.22175296E+03</pdfrwt>
<totfact> 0.21129063E+03</totfact>
</mgrwt>
</event>
<event>
 8    1  0.2018715E-005  0.1299932E+03  0.7546771E-02  0.1248326E+00
         -2   -1    0    0    0  501 -0.00000000000E+00  0.00000000000E+00  0.22616929558E+02  0.22616929558E+02  0.00000000000E+00 0. -1.
          2   -1    0    0  501    0  0.00000000000E+00 -0.00000000000E+00 -0.51919951942E+03  0.51919951942E+03  0.00000000000E+00 0.  1.
         25    2    1    2    0    0  0.25165778663E+02  0.25284096475E+02 -0.33318624697E+03  0.35764690436E+03  0.12500252426E+03 0.  0.
         23    2    1    2    0    0 -0.25165778663E+02 -0.25284096475E+02 -0.16339634289E+03  0.18416954462E+03  0.77119740321E+02 0.  0.
          5    1    4    4  502    0  0.22919944318E+02  0.84921586097E+01 -0.63098339576E+02  0.67830163369E+02  0.47000000000E+01 0. -1.
         -5    1    3    3    0  503  0.26952774593E+02 -0.27157252199E+02 -0.28051356418E+03  0.28314999222E+03  0.47000000000E+01 0.  1.
          5    1    3    3  503    0 -0.17869959297E+01  0.52441348673E+02 -0.52672682796E+02  0.74496912138E+02  0.47000000000E+01 0.  1.
         -5    1    4    4    0  502 -0.48085722981E+02 -0.33776255084E+02 -0.10029800331E+03  0.11633938125E+03  0.47000000000E+01 0.  1.
<mgrwt>
<rscale>  0 0.11688481E+03</rscale>
<asrwt>0</asrwt>
<pdfrwt beam="1">  1        2 0.79876840E-01 0.12999320E+03</pdfrwt>
<pdfrwt beam="2">  1       -2 0.34795280E-02 0.12999320E+03</pdfrwt>
<totfact> 0.18985509E+04</totfact>
</mgrwt>
</event>
<event>
 7    1  0.2018715E-005  0.2191273E+03  0.7546771E-02  0.1150473E+00
          3   -1    0    0  501    0  0.00000000000E+00  0.00000000000E+00  0.58852257806E+02  0.58852257806E+02  0.00000000000E+00 0. -1.
         -3   -1    0    0    0  501 -0.00000000000E+00 -0.00000000000E+00 -0.79598842082E+03  0.79598842082E+03  0.00000000000E+00 0.  1.
         25    2    1    2    0    0  0.13869992481E+02 -0.80720091908E+02 -0.96814939857E+02  0.17806298527E+03  0.12500073686E+03 0.  0.
          5    1    1    2  502    0 -0.48495219910E+02  0.13207933493E+03 -0.30729427321E+03  0.33800680084E+03  0.47000000000E+01 0. -1.
         -5    1    3    3    0  503  0.41678096770E+02 -0.74479462684E+02 -0.11547946085E+03  0.14367271832E+03  0.47000000000E+01 0. -1.
          5    1    3    3  503    0 -0.27808104290E+02 -0.62406292238E+01  0.18664520991E+02  0.34390266953E+02  0.47000000000E+01 0. -1.
         -5    1    1    2    0  502  0.34625227430E+02 -0.51359243022E+02 -0.33302694995E+03  0.33877089250E+03  0.47000000000E+01 0.  1.
<mgrwt>
<rscale>  0 0.19913219E+03</rscale>
<asrwt>0</asrwt>
<pdfrwt beam="1">  1        3 0.90541932E-02 0.21912731E+03</pdfrwt>
<pdfrwt beam="2">  1       -3 0.12245976E+00 0.21912731E+03</pdfrwt>
<totfact> 0.12068962E+02</totfact>
</mgrwt>
</event>
<event>
 8    1  0.2018715E-005  0.1913538E+03  0.7546771E-02  0.1165233E+00
         -2   -1    0    0    0  501 -0.00000000000E+00  0.00000000000E+00  0.72471215487E+02  0.72471215487E+02  0.00000000000E+00 0.  1.
          2   -1    0    0  501    0  0.00000000000E+00 -0.00000000000E+00 -0.44232660887E+03  0.44232660887E+03  0.00000000000E+00 0. -1.
         25    2    1    2    0    0 -0.70297876114E+02 -0.12668525391E+03 -0.25443705068E+03  0.31836219541E+03  0.12500131902E+03 0.  0.
         23    2    1    2    0    0  0.70297876114E+02  0.12668525391E+03 -0.11541834270E+03  0.19643562895E+03  0.65380559378E+02 0.  0.
          5    1    4    4  502    0  0.60138761418E+02  0.86736983710E+02 -0.11326872257E+03  0.15489308726E+03  0.47000000000E+01 0. -1.
         -5    1    4    4    0  502  0.10159114697E+02  0.39948270205E+02 -0.21496201320E+01  0.41542541695E+02  0.47000000000E+01 0.  1.
          5    1    3    3  503    0 -0.16295988905E+01 -0.76687905668E+02 -0.20734057743E+03  0.22112416313E+03  0.47000000000E+01 0. -1.
         -5    1    3    3    0  503 -0.68668277224E+02 -0.49997348247E+02 -0.47096473250E+02  0.97238032278E+02  0.47000000000E+01 0. -1.
<mgrwt>
<rscale>  0 0.18268123E+03</rscale>
<asrwt>0</asrwt>
<pdfrwt beam="1">  1        2 0.68050248E-01 0.19135379E+03</pdfrwt>
<pdfrwt beam="2">  1       -2 0.11149418E-01 0.19135379E+03</pdfrwt>
<totfact> 0.39078245E+03</totfact>
</mgrwt>
</event>
<event>
 8    1  0.2018715E-005  0.1760067E+03  0.7546771E-02  0.1175252E+00
         -1   -1    0    0    0  501 -0.00000000000E+00  0.00000000000E+00  0.10352207424E+03  0.10352207424E+03  0.00000000000E+00 0.  1.
          1   -1    0    0  501    0  0.00000000000E+00 -0.00000000000E+00 -0.27769343659E+03  0.27769343659E+03  0.00000000000E+00 0. -1.
         25    2    1    2    0    0  0.11611131306E+03  0.43271884125E+02 -0.78776708942E+02  0.19283188410E+03  0.12499629065E+03 0.  0.
         23    2    1    2    0    0 -0.11611131306E+03 -0.43271884125E+02 -0.95394653415E+02  0.18838362673E+03  0.10504264822E+03 0.  0.
          5    1    3    3  502    0 -0.12159009067E+02 -0.21212611474E+02 -0.34447287314E+02  0.42503199766E+02  0.47000000000E+01 0.  1.
         -5    1    4    4    0  503 -0.18221878763E+02 -0.34205259011E+02  0.13774468966E+02  0.41398823714E+02  0.47000000000E+01 0.  1.
          5    1    4    4  503    0 -0.97889434294E+02 -0.90666251146E+01 -0.10916912238E+03  0.14698480302E+03  0.47000000000E+01 0. -1.
         -5    1    3    3    0  502  0.12827032212E+03  0.64484495599E+02 -0.44329421628E+02  0.15032868433E+03  0.47000000000E+01 0.  1.
<mgrwt>
<rscale>  0 0.17251357E+03</rscale>
<asrwt>0</asrwt>
<pdfrwt beam="1">  1        1 0.42722067E-01 0.17600672E+03</pdfrwt>
<pdfrwt beam="2">  1       -1 0.15926473E-01 0.17600672E+03</pdfrwt>
<totfact> 0.27680229E+03</totfact>
</mgrwt>
</event>
<event>
 7    1  0.2018715E-005  0.1512603E+03  0.7546771E-02  0.1221295E+00
         -1   -1    0    0    0  501 -0.00000000000E+00  0.00000000000E+00  0.56176918697E+02  0.56176918697E+02  0.00000000000E+00 0.  1.
          1   -1    0    0  501    0  0.00000000000E+00 -0.00000000000E+00 -0.27303634367E+03  0.27303634367E+03  0.00000000000E+00 0. -1.
         25    2    1    2    0    0  0.78958742648E+02 -0.31916902832E+02 -0.15644319724E+03  0.21761005869E+03  0.12500596767E+03 0.  0.
          5    1    3    3  502    0  0.68792311006E+02  0.36995097524E+01 -0.16538216177E+03  0.17921891043E+03  0.47000000000E+01 0. -1.
         -5    1    1    2    0  503 -0.59524021803E+02  0.16292468650E+02 -0.22247991620E+02  0.65769421751E+02  0.47000000000E+01 0.  1.
          5    1    1    2  503    0 -0.19434720845E+02  0.15624434182E+02 -0.38168236109E+02  0.45833781924E+02  0.47000000000E+01 0. -1.
         -5    1    3    3    0  502  0.10166431641E+02 -0.35616412584E+02  0.89389645264E+01  0.38391148257E+02  0.47000000000E+01 0. -1.
<mgrwt>
<rscale>  0 0.13424117E+03</rscale>
<asrwt>0</asrwt>
<pdfrwt beam="1">  1        1 0.42005591E-01 0.15126025E+03</pdfrwt>
<pdfrwt beam="2">  1       -1 0.86426029E-02 0.15126025E+03</pdfrwt>
<totfact> 0.72304680E+03</totfact>
</mgrwt>
</event>
<event>
 8    1  0.2018715E-005  0.4113493E+03  0.7546771E-02  0.1040373E+00
          1   -1    0    0  501    0  0.00000000000E+00  0.00000000000E+00  0.11907060684E+04  0.11907060684E+04  0.00000000000E+00 0. -1.
         -1   -1    0    0    0  501 -0.00000000000E+00 -0.00000000000E+00 -0.14549771598E+03  0.14549771598E+03  0.00000000000E+00 0.  1.
         25    2    1    2    0    0  0.37770434144E+03 -0.10450910525E+03  0.65282325592E+03  0.77161286361E+03  0.12500194075E+03 0.  0.
         23    2    1    2    0    0 -0.37770434144E+03  0.10450910525E+03  0.39238509647E+03  0.56459092074E+03  0.10589674797E+03 0.  0.
          5    1    4    4  502    0 -0.26725995737E+03  0.30140229256E+02  0.29715892036E+03  0.40082643648E+03  0.47000000000E+01 0. -1.
         -5    1    3    3    0  503  0.29006043773E+03 -0.77037717007E+02  0.58443013237E+03  0.65700116971E+03  0.47000000000E+01 0.  1.
          5    1    3    3  503    0  0.87643903709E+02 -0.27471388239E+02  0.68393123554E+02  0.11461169390E+03  0.47000000000E+01 0.  1.
         -5    1    4    4    0  502 -0.11044438407E+03  0.74368875989E+02  0.95226176113E+02  0.16376448426E+03  0.47000000000E+01 0.  1.
<mgrwt>
<rscale>  0 0.40999319E+03</rscale>
<asrwt>0</asrwt>
<pdfrwt beam="1">  1        1 0.18318554E+00 0.41134925E+03</pdfrwt>
<pdfrwt beam="2">  1       -1 0.22384265E-01 0.41134925E+03</pdfrwt>
<totfact> 0.19224981E+02</totfact>
</mgrwt>
</event>
<event>
 7    1  0.2018715E-005  0.1503111E+03  0.7546771E-02  0.1202566E+00
          2   -1    0    0  501    0  0.00000000000E+00  0.00000000000E+00  0.66803949010E+03  0.66803949010E+03  0.00000000000E+00 0. -1.
         -2   -1    0    0    0  501 -0.00000000000E+00 -0.00000000000E+00 -0.32078439925E+02  0.32078439925E+02  0.00000000000E+00 0.  1.
         25    2    1    2    0    0  0.28372275902E+02  0.62231252303E+02  0.30789481050E+03  0.33925662911E+03  0.12497252202E+03 0.  0.
          5    1    1    2  502    0  0.38056375517E+02  0.16057462771E+02  0.14582047502E+03  0.15163057332E+03  0.47000000000E+01 0. -1.
         -5    1    1    2    0  502 -0.66428651418E+02 -0.78288715074E+02  0.18224576465E+03  0.20923072760E+03  0.47000000000E+01 0.  1.
          5    1    3    3  503    0 -0.14236867457E+02  0.43651845879E+02  0.28217410153E+03  0.28592391578E+03  0.47000000000E+01 0. -1.
         -5    1    3    3    0  503  0.42609143359E+02  0.18579406423E+02  0.25720708970E+02  0.53332713326E+02  0.47000000000E+01 0. -1.
<mgrwt>
<rscale>  0 0.14830956E+03</rscale>
<asrwt>0</asrwt>
<pdfrwt beam="1">  1        2 0.10277530E+00 0.15031108E+03</pdfrwt>
<pdfrwt beam="2">  1       -2 0.49351451E-02 0.15031108E+03</pdfrwt>
<totfact> 0.85602620E+03</totfact>
</mgrwt>
</event>
<event>
 8    1  0.2018715E-005  0.1639311E+03  0.7546771E-02  0.1188871E+00
          1   -1    0    0  501    0  0.00000000000E+00  0.00000000000E+00  0.30699655481E+03  0.30699655481E+03  0.00000000000E+00 0. -1.
         -1   -1    0    0    0  501 -0.00000000000E+00 -0.00000000000E+00 -0.80833286249E+02  0.80833286249E+02  0.00000000000E+00 0.  1.
         25    2    1    2    0    0 -0.31936989590E+02 -0.10113711984E+03  0.14507039607E+03  0.21890372052E+03  0.12499892290E+03 0.  0.
         23    2    1    2    0    0  0.31936989590E+02  0.10113711984E+03  0.81092872492E+02  0.16892612055E+03  0.10349537150E+03 0.  0.
          5    1    3    3  502    0  0.44301391771E+02 -0.49568104264E+02  0.88417439657E+02  0.11072192154E+03  0.47000000000E+01 0. -1.
         -5    1    3    3    0  502 -0.76238381361E+02 -0.51569015572E+02  0.56652956415E+02  0.10818179898E+03  0.47000000000E+01 0. -1.
          5    1    4    4  503    0 -0.17245919060E+02  0.29873760038E+02  0.74171590436E+02  0.81935206663E+02  0.47000000000E+01 0. -1.
         -5    1    4    4    0  503  0.49182908650E+02  0.71263359799E+02  0.69212820553E+01  0.86990913884E+02  0.47000000000E+01 0.  1.
<mgrwt>
<rscale>  0 0.15984538E+03</rscale>
<asrwt>0</asrwt>
<pdfrwt beam="1">  1        1 0.47230239E-01 0.16393114E+03</pdfrwt>
<pdfrwt beam="2">  1       -1 0.12435890E-01 0.16393114E+03</pdfrwt>
<totfact> 0.35907332E+03</totfact>
</mgrwt>
</event>
<event>
 8    1  0.2018715E-005  0.1368125E+03  0.7546771E-02  0.1244022E+00
         -1   -1    0    0    0  501 -0.00000000000E+00  0.00000000000E+00  0.10699815925E+04  0.10699815925E+04  0.00000000000E+00 0.  1.
          1   -1    0    0  501    0  0.00000000000E+00 -0.00000000000E+00 -0.12471839980E+02  0.12471839980E+02  0.00000000000E+00 0. -1.
         25    2    1    2    0    0 -0.13346453261E+02  0.53997581634E+02  0.46726979554E+03  0.48688675976E+03  0.12499515340E+03 0.  0.
         23    2    1    2    0    0  0.13346453261E+02 -0.53997581634E+02  0.59023995699E+03  0.59556667273E+03  0.56767844746E+02 0.  0.
          5    1    3    3  502    0 -0.23065683327E+02 -0.22824179133E+02  0.30787739983E+03  0.30961839776E+03  0.47000000000E+01 0.  1.
         -5    1    4    4    0  503  0.21695623354E+02  0.20365550364E+01  0.14269225928E+03  0.14442305386E+03  0.47000000000E+01 0.  1.
          5    1    4    4  503    0 -0.83491700929E+01 -0.56034136670E+02  0.44754769772E+03  0.45114361887E+03  0.47000000000E+01 0. -1.
         -5    1    3    3    0  502  0.97192300663E+01  0.76821760767E+02  0.15939239570E+03  0.17726836201E+03  0.47000000000E+01 0.  1.
<mgrwt>
<rscale>  0 0.11944101E+03</rscale>
<asrwt>0</asrwt>
<pdfrwt beam="1">  1        1 0.19187455E-02 0.13681248E+03</pdfrwt>
<pdfrwt beam="2">  1       -1 0.16461248E+00 0.13681248E+03</pdfrwt>
<totfact> 0.18343168E+03</totfact>
</mgrwt>
</event>
<event>
 7    1  0.2018715E-005  0.2518944E+03  0.7546771E-02  0.1117739E+00
          1   -1    0    0  501    0  0.00000000000E+00  0.00000000000E+00  0.60087516551E+03  0.60087516551E+03  0.00000000000E+00 0. -1.
         -1   -1    0    0    0  501 -0.00000000000E+00 -0.00000000000E+00 -0.11341832529E+03  0.11341832529E+03  0.00000000000E+00 0.  1.
         25    2    1    2    0    0  0.42230838629E+02 -0.17422876535E+03  0.75109603054E+02  0.23109473845E+03  0.12499687700E+03 0.  0.
          5    1    3    3  502    0  0.75387810577E+01 -0.11337671596E+03  0.10500756108E+03  0.15478950490E+03  0.47000000000E+01 0. -1.
         -5    1    3    3    0  502  0.34692057571E+02 -0.60852049388E+02 -0.29897958025E+02  0.76305233551E+02  0.47000000000E+01 0. -1.
          5    1    1    2  503    0  0.57953991500E+02  0.26679555993E+02  0.17463281995E+03  0.18598165405E+03  0.47000000000E+01 0. -1.
         -5    1    1    2    0  503 -0.10018483013E+03  0.14754920936E+03  0.23771441723E+03  0.29721709831E+03  0.47000000000E+01 0.  1.
<mgrwt>
<rscale>  0 0.24310882E+03</rscale>
<asrwt>0</asrwt>
<pdfrwt beam="1">  1        1 0.92442331E-01 0.25189440E+03</pdfrwt>
<pdfrwt beam="2">  1       -1 0.17448974E-01 0.25189440E+03</pdfrwt>
<totfact> 0.88649162E+02</totfact>
</mgrwt>
</event>
<event>
 8    1  0.2018715E-005  0.2849974E+03  0.7546771E-02  0.1095793E+00
          2   -1    0    0  501    0  0.00000000000E+00  0.00000000000E+00  0.31588317868E+04  0.31588317868E+04  0.00000000000E+00 0. -1.
         -2   -1    0    0    0  501 -0.00000000000E+00 -0.00000000000E+00 -0.24001327367E+02  0.24001327367E+02  0.00000000000E+00 0.  1.
         25    2    1    2    0    0  0.23297462608E+02  0.25505893323E+03  0.17153239456E+04  0.17388386208E+04  0.12500271859E+03 0.  0.
         23    2    1    2    0    0 -0.23297462608E+02 -0.25505893323E+03  0.14195065138E+04  0.14439944933E+04  0.67257139920E+02 0.  0.
          5    1    3    3  502    0  0.68816998506E+02  0.17537976843E+03  0.12907792136E+04  0.13044642237E+04  0.47000000000E+01 0. -1.
         -5    1    3    3    0  502 -0.45519535898E+02  0.79679164798E+02  0.42454473198E+03  0.43437439715E+03  0.47000000000E+01 0. -1.
          5    1    4    4  503    0 -0.40308174571E+02 -0.23298799933E+03  0.12764022089E+04  0.12981266678E+04  0.47000000000E+01 0. -1.
         -5    1    4    4    0  503  0.17010711963E+02 -0.22070933904E+02  0.14310430488E+03  0.14586782551E+03  0.47000000000E+01 0.  1.
<mgrwt>
<rscale>  0 0.27980917E+03</rscale>
<asrwt>0</asrwt>
<pdfrwt beam="1">  1        2 0.48597379E+00 0.28499739E+03</pdfrwt>
<pdfrwt beam="2">  1       -2 0.36925144E-02 0.28499739E+03</pdfrwt>
<totfact> 0.51659741E+02</totfact>
</mgrwt>
</event>
<event>
 8    1  0.2018715E-005  0.1679667E+03  0.7546771E-02  0.1190731E+00
          2   -1    0    0  501    0  0.00000000000E+00  0.00000000000E+00  0.12966994500E+04  0.12966994500E+04  0.00000000000E+00 0. -1.
         -2   -1    0    0    0  501 -0.00000000000E+00 -0.00000000000E+00 -0.17374616207E+02  0.17374616207E+02  0.00000000000E+00 0.  1.
         25    2    1    2    0    0 -0.45323143560E+02  0.10263210069E+03  0.72272951121E+03  0.74199108661E+03  0.12500116321E+03 0.  0.
         23    2    1    2    0    0  0.45323143560E+02 -0.10263210069E+03  0.55659532264E+03  0.57208297965E+03  0.69950317999E+02 0.  0.
          5    1    4    4  502    0  0.15548404566E+02 -0.80687645563E+02  0.47869777577E+03  0.48572203940E+03  0.47000000000E+01 0. -1.
         -5    1    4    4    0  502  0.29774738994E+02 -0.21944455123E+02  0.77897546871E+02  0.86360940253E+02  0.47000000000E+01 0.  1.
          5    1    3    3  503    0 -0.81742809503E+02  0.36695154111E+02  0.32467369324E+03  0.33684346264E+03  0.47000000000E+01 0.  1.
         -5    1    3    3    0  503  0.36419665943E+02  0.65936946574E+02  0.39805581797E+03  0.40514762397E+03  0.47000000000E+01 0.  1.
<mgrwt>
<rscale>  0 0.15821110E+03</rscale>
<asrwt>0</asrwt>
<pdfrwt beam="1">  1        2 0.19949215E+00 0.16796674E+03</pdfrwt>
<pdfrwt beam="2">  1       -2 0.26730189E-02 0.16796674E+03</pdfrwt>
<totfact> 0.87052955E+03</totfact>
</mgrwt>
</event>
<event>
 8    1  0.2018715E-005  0.1260162E+03  0.7546771E-02  0.1257301E+00
          1   -1    0    0  501    0  0.00000000000E+00  0.00000000000E+00  0.72312952301E+02  0.72312952301E+02  0.00000000000E+00 0. -1.
         -1   -1    0    0    0  501 -0.00000000000E+00 -0.00000000000E+00 -0.14403712495E+03  0.14403712495E+03  0.00000000000E+00 0.  1.
         25    2    1    2    0    0  0.91077280021E+01 -0.13133998716E+02 -0.47079946037E+02  0.13452362498E+03  0.12499852690E+03 0.  0.
         23    2    1    2    0    0 -0.91077280021E+01  0.13133998716E+02 -0.24644226610E+02  0.81826452267E+02  0.76372624374E+02 0.  0.
          5    1    4    4  502    0 -0.23641415756E+02 -0.46213998492E+01  0.19835845445E+02  0.31556689307E+02  0.47000000000E+01 0. -1.
         -5    1    4    4    0  502  0.14533687754E+02  0.17755398566E+02 -0.44480072055E+02  0.50269762959E+02  0.47000000000E+01 0.  1.
          5    1    3    3  503    0 -0.23473312803E+02 -0.27719268855E+01  0.36705160312E+02  0.43909438463E+02  0.47000000000E+01 0. -1.
         -5    1    3    3    0  503  0.32581040805E+02 -0.10362071831E+02 -0.83785106349E+02  0.90614186519E+02  0.47000000000E+01 0. -1.
<mgrwt>
<rscale>  0 0.11178440E+03</rscale>
<asrwt>0</asrwt>
<pdfrwt beam="1">  1        1 0.11125070E-01 0.12601621E+03</pdfrwt>
<pdfrwt beam="2">  1       -1 0.22159558E-01 0.12601621E+03</pdfrwt>
<totfact> 0.88550440E+03</totfact>
</mgrwt>
</event>
<event>
 7    1  0.2018715E-005  0.1501197E+03  0.7546771E-02  0.1223168E+00
         -1   -1    0    0    0  501 -0.00000000000E+00  0.00000000000E+00  0.23123665496E+02  0.23123665496E+02  0.00000000000E+00 0.  1.
          1   -1    0    0  501    0  0.00000000000E+00 -0.00000000000E+00 -0.68980333487E+03  0.68980333487E+03  0.00000000000E+00 0. -1.
         25    2    1    2    0    0 -0.10448170624E+02 -0.82474832717E+02 -0.30909357920E+03  0.34362009858E+03  0.12499867658E+03 0.  0.
          5    1    3    3  502    0 -0.11550545061E+02 -0.10794266601E+03 -0.29442475214E+03  0.31383603826E+03  0.47000000000E+01 0. -1.
         -5    1    1    2    0  503 -0.16034274119E+01  0.65633477919E+02 -0.31397742550E+03  0.32080249083E+03  0.47000000000E+01 0.  1.
          5    1    1    2  503    0  0.12051598036E+02  0.16841354798E+02 -0.43608664678E+02  0.48504410951E+02  0.47000000000E+01 0. -1.
         -5    1    3    3    0  502  0.11023744366E+01  0.25467833296E+02 -0.14668827061E+02  0.29784060326E+02  0.47000000000E+01 0. -1.
<mgrwt>
<rscale>  0 0.13293270E+03</rscale>
<asrwt>0</asrwt>
<pdfrwt beam="1">  1        1 0.10612359E+00 0.15011972E+03</pdfrwt>
<pdfrwt beam="2">  1       -1 0.35574871E-02 0.15011972E+03</pdfrwt>
<totfact> 0.81560492E+03</totfact>
</mgrwt>
</event>
<event>
 8    1  0.2018715E-005  0.1363250E+03  0.7546771E-02  0.1225523E+00
         -1   -1    0    0    0  501 -0.00000000000E+00  0.00000000000E+00  0.56627937716E+02  0.56627937716E+02  0.00000000000E+00 0.  1.
          1   -1    0    0  501    0  0.00000000000E+00 -0.00000000000E+00 -0.30683327593E+03  0.30683327593E+03  0.00000000000E+00 0. -1.
         25    2    1    2    0    0  0.21666201760E+02  0.49899699077E+02 -0.18311409222E+03  0.22828770476E+03  0.12500040443E+03 0.  0.
         23    2    1    2    0    0 -0.21666201760E+02 -0.49899699077E+02 -0.67091245990E+02  0.13517350889E+03  0.10397710301E+03 0.  0.
          5    1    4    4  502    0  0.22872328365E+02 -0.27275797921E+02 -0.76146409670E+02  0.84187162102E+02  0.47000000000E+01 0. -1.
         -5    1    3    3    0  503  0.11682936904E-01  0.76749503588E+02 -0.17694817169E+03  0.19293323172E+03  0.47000000000E+01 0. -1.
          5    1    3    3  503    0  0.21654518823E+02 -0.26849804511E+02 -0.61659205316E+01  0.35354473037E+02  0.47000000000E+01 0. -1.
         -5    1    4    4    0  502 -0.44538530125E+02 -0.22623901155E+02  0.90551636805E+01  0.50986346785E+02  0.47000000000E+01 0.  1.
<mgrwt>
<rscale>  0 0.13131094E+03</rscale>
<asrwt>0</asrwt>
<pdfrwt beam="1">  1        1 0.47205119E-01 0.13632500E+03</pdfrwt>
<pdfrwt beam="2">  1       -1 0.87119904E-02 0.13632500E+03</pdfrwt>
<totfact> 0.61410044E+03</totfact>
</mgrwt>
</event>
<event>
 8    1  0.2018715E-005  0.1259495E+03  0.7546771E-02  0.1266553E+00
         -1   -1    0    0    0  501 -0.00000000000E+00  0.00000000000E+00  0.69705504760E+02  0.69705504760E+02  0.00000000000E+00 0.  1.
          1   -1    0    0  501    0  0.00000000000E+00 -0.00000000000E+00 -0.14061356268E+03  0.14061356268E+03  0.00000000000E+00 0. -1.
         25    2    1    2    0    0 -0.46507698855E+01 -0.14617086886E+02 -0.72077092908E+02  0.14511508854E+03  0.12501197027E+03 0.  0.
         23    2    1    2    0    0  0.46507698855E+01  0.14617086886E+02  0.11690349840E+01  0.65203978899E+02  0.63363264846E+02 0.  0.
          5    1    3    3  502    0  0.20071827237E+02  0.50481295382E+02 -0.20184388577E+02  0.58144122440E+02  0.47000000000E+01 0. -1.
         -5    1    3    3    0  502 -0.24722597123E+02 -0.65098382268E+02 -0.51892704331E+02  0.86970966104E+02  0.47000000000E+01 0. -1.
          5    1    4    4  503    0 -0.18014884944E+02  0.28716400034E+02 -0.10349362489E+02  0.35754258689E+02  0.47000000000E+01 0. -1.
         -5    1    4    4    0  503  0.22665654830E+02 -0.14099313149E+02  0.11518397473E+02  0.29449720210E+02  0.47000000000E+01 0.  1.
<mgrwt>
<rscale>  0 0.10683129E+03</rscale>
<asrwt>0</asrwt>
<pdfrwt beam="1">  1        1 0.21632855E-01 0.12594952E+03</pdfrwt>
<pdfrwt beam="2">  1       -1 0.10723924E-01 0.12594952E+03</pdfrwt>
<totfact> 0.11740259E+04</totfact>
</mgrwt>
</event>
<event>
 8    1  0.2018715E-005  0.1303842E+03  0.7546771E-02  0.1230439E+00
          2   -1    0    0  501    0  0.00000000000E+00  0.00000000000E+00  0.37867695017E+02  0.37867695017E+02  0.00000000000E+00 0. -1.
         -2   -1    0    0    0  501 -0.00000000000E+00 -0.00000000000E+00 -0.42238054764E+03  0.42238054764E+03  0.00000000000E+00 0.  1.
         25    2    1    2    0    0 -0.96185261844E+01  0.35847975219E+02 -0.17497060392E+03  0.21820804808E+03  0.12498978615E+03 0.  0.
         23    2    1    2    0    0  0.96185261844E+01 -0.35847975219E+02 -0.20954224870E+03  0.24204019457E+03  0.11531655745E+03 0.  0.
          5    1    4    4  502    0  0.33012549061E+02 -0.67118532463E+02 -0.95445376107E+02  0.12135335024E+03  0.47000000000E+01 0. -1.
         -5    1    4    4    0  502 -0.23394022877E+02  0.31270557244E+02 -0.11409687260E+03  0.12068684432E+03  0.47000000000E+01 0.  1.
          5    1    3    3  503    0  0.23991036684E+01  0.70639016083E+02 -0.47107968092E+02  0.85069835719E+02  0.47000000000E+01 0.  1.
         -5    1    3    3    0  503 -0.12017629853E+02 -0.34791040864E+02 -0.12786263582E+03  0.13313821236E+03  0.47000000000E+01 0.  1.
<mgrwt>
<rscale>  0 0.12800969E+03</rscale>
<asrwt>0</asrwt>
<pdfrwt beam="1">  1        2 0.58257990E-02 0.13038420E+03</pdfrwt>
<pdfrwt beam="2">  1       -2 0.64981625E-01 0.13038420E+03</pdfrwt>
<totfact> 0.27431783E+03</totfact>
</mgrwt>
</event>
<event>
 7    1  0.2018715E-005  0.1850900E+03  0.7546771E-02  0.1173559E+00
          2   -1    0    0  501    0  0.00000000000E+00  0.00000000000E+00  0.87645795624E+03  0.87645795624E+03  0.00000000000E+00 0. -1.
         -2   -1    0    0    0  501 -0.00000000000E+00 -0.00000000000E+00 -0.37920397297E+02  0.37920397297E+02  0.00000000000E+00 0.  1.
         25    2    1    2    0    0 -0.78305954775E+01 -0.73354303763E+02  0.18506637758E+03  0.23520024772E+03  0.12500968088E+03 0.  0.
          5    1    3    3  502    0 -0.22524253678E+02 -0.58097536970E+02  0.15673827178E+02  0.64423789582E+02  0.47000000000E+01 0. -1.
         -5    1    1    2    0  503  0.54439297500E+02  0.36436752434E+02  0.84170351654E+02  0.10676147310E+03  0.47000000000E+01 0.  1.
          5    1    1    2  503    0 -0.46608702023E+02  0.36917551328E+02  0.56930082971E+03  0.57241663271E+03  0.47000000000E+01 0. -1.
         -5    1    3    3    0  502  0.14693658200E+02 -0.15256766793E+02  0.16939255040E+03  0.17077645814E+03  0.47000000000E+01 0. -1.
<mgrwt>
<rscale>  0 0.17417839E+03</rscale>
<asrwt>0</asrwt>
<pdfrwt beam="1">  1        2 0.13483967E+00 0.18509002E+03</pdfrwt>
<pdfrwt beam="2">  1       -2 0.58339079E-02 0.18509002E+03</pdfrwt>
<totfact> 0.47947656E+03</totfact>
</mgrwt>
</event>
<event>
 8    1  0.2018715E-005  0.1267905E+03  0.7546771E-02  0.1240066E+00
          1   -1    0    0  501    0  0.00000000000E+00  0.00000000000E+00  0.15898157991E+03  0.15898157991E+03  0.00000000000E+00 0. -1.
         -1   -1    0    0    0  501 -0.00000000000E+00 -0.00000000000E+00 -0.87771271995E+02  0.87771271995E+02  0.00000000000E+00 0.  1.
         25    2    1    2    0    0  0.30404701504E+01  0.21013364906E+02  0.51223336809E+02  0.13674673841E+03  0.12500013707E+03 0.  0.
         23    2    1    2    0    0 -0.30404701504E+01 -0.21013364906E+02  0.19986971107E+02  0.11000611350E+03  0.10607101409E+03 0.  0.
          5    1    4    4  502    0 -0.25741228951E+02 -0.40056764312E+02  0.48847863769E+02  0.68376597092E+02  0.47000000000E+01 0. -1.
         -5    1    4    4    0  502  0.22700758801E+02  0.19043399406E+02 -0.28860892662E+02  0.41629516407E+02  0.47000000000E+01 0.  1.
          5    1    3    3  503    0 -0.21230729287E+02  0.46954115722E+02 -0.21218620461E+02  0.55926314947E+02  0.47000000000E+01 0. -1.
         -5    1    3    3    0  503  0.24271199437E+02 -0.25940750816E+02  0.72441957270E+02  0.80820423459E+02  0.47000000000E+01 0. -1.
<mgrwt>
<rscale>  0 0.12185603E+03</rscale>
<asrwt>0</asrwt>
<pdfrwt beam="1">  1        1 0.24458705E-01 0.12679054E+03</pdfrwt>
<pdfrwt beam="2">  1       -1 0.13503273E-01 0.12679054E+03</pdfrwt>
<totfact> 0.70574995E+03</totfact>
</mgrwt>
</event>
<event>
 7    1  0.2018715E-005  0.1667685E+03  0.7546771E-02  0.1196538E+00
          2   -1    0    0  501    0  0.00000000000E+00  0.00000000000E+00  0.30729975351E+02  0.30729975351E+02  0.00000000000E+00 0. -1.
         -2   -1    0    0    0  501 -0.00000000000E+00 -0.00000000000E+00 -0.66819596873E+03  0.66819596873E+03  0.00000000000E+00 0.  1.
         25    2    1    2    0    0  0.10799921532E+03 -0.22877813732E+02 -0.39917665097E+03  0.43261268809E+03  0.12499805737E+03 0.  0.
          5    1    1    2  502    0 -0.39362787537E+02  0.30050014020E+02 -0.10024853130E+03  0.11191197619E+03  0.47000000000E+01 0. -1.
         -5    1    3    3    0  503  0.43311434710E+02 -0.52099142011E+02 -0.76977410591E+02  0.10265384901E+03  0.47000000000E+01 0. -1.
          5    1    3    3  503    0  0.64687780607E+02  0.29221328279E+02 -0.32219924038E+03  0.32995883908E+03  0.47000000000E+01 0. -1.
         -5    1    1    2    0  502 -0.68636427780E+02 -0.71722002874E+01 -0.13804081110E+03  0.15440127980E+03  0.47000000000E+01 0.  1.
<mgrwt>
<rscale>  0 0.15324818E+03</rscale>
<asrwt>0</asrwt>
<pdfrwt beam="1">  1        2 0.47276888E-02 0.16676852E+03</pdfrwt>
<pdfrwt beam="2">  1       -2 0.10279937E+00 0.16676852E+03</pdfrwt>
<totfact> 0.13302622E+03</totfact>
</mgrwt>
</event>
<event>
 8    1  0.2018715E-005  0.1585395E+03  0.7546771E-02  0.1202694E+00
          2   -1    0    0  501    0  0.00000000000E+00  0.00000000000E+00  0.16844424491E+04  0.16844424491E+04  0.00000000000E+00 0. -1.
         -2   -1    0    0    0  501 -0.00000000000E+00 -0.00000000000E+00 -0.13359472996E+02  0.13359472996E+02  0.00000000000E+00 0.  1.
         25    2    1    2    0    0 -0.85655773417E+02 -0.46632773514E+02  0.12380924401E+04  0.12482017766E+04  0.12499303117E+03 0.  0.
         23    2    1    2    0    0  0.85655773417E+02  0.46632773514E+02  0.43299053602E+03  0.44960014549E+03  0.71749281931E+02 0.  0.
          5    1    4    4  502    0  0.65653750015E+02 -0.23964859273E+01  0.27979733394E+03  0.28744529239E+03  0.47000000000E+01 0. -1.
         -5    1    4    4    0  502  0.20002023402E+02  0.49029259442E+02  0.15319320208E+03  0.16215485310E+03  0.47000000000E+01 0.  1.
          5    1    3    3  503    0  0.16608421376E+02  0.27117928698E+02  0.27906110513E+03  0.28090641166E+03  0.47000000000E+01 0. -1.
         -5    1    3    3    0  503 -0.10226419479E+03 -0.73750702212E+02  0.95903133498E+03  0.96729536496E+03  0.47000000000E+01 0. -1.
<mgrwt>
<rscale>  0 0.14820677E+03</rscale>
<asrwt>0</asrwt>
<pdfrwt beam="1">  1        2 0.25914482E+00 0.15853954E+03</pdfrwt>
<pdfrwt beam="2">  1       -2 0.20553049E-02 0.15853954E+03</pdfrwt>
<totfact> 0.79738673E+03</totfact>
</mgrwt>
</event>
<event>
 7    1  0.2018715E-005  0.1478045E+03  0.7546771E-02  0.1210294E+00
         -1   -1    0    0    0  501 -0.00000000000E+00  0.00000000000E+00  0.19260737353E+02  0.19260737353E+02  0.00000000000E+00 0.  1.
          1   -1    0    0  501    0  0.00000000000E+00 -0.00000000000E+00 -0.97994651363E+03  0.97994651363E+03  0.00000000000E+00 0. -1.
         25    2    1    2    0    0 -0.17709131330E+02 -0.12951893679E+02 -0.43413024087E+03  0.45230058382E+03  0.12500154882E+03 0.  0.
          5    1    3    3  502    0 -0.25285206500E+02 -0.49086769343E+02 -0.39276928967E+03  0.39665937213E+03  0.47000000000E+01 0. -1.
         -5    1    1    2    0  503  0.53478045325E+02 -0.39519410273E+02 -0.13904100167E+03  0.15419525046E+03  0.47000000000E+01 0.  1.
          5    1    1    2  503    0 -0.35768913995E+02  0.52471303952E+02 -0.38751453375E+03  0.39271141671E+03  0.47000000000E+01 0. -1.
         -5    1    3    3    0  502  0.75760751706E+01  0.36134875664E+02 -0.41360951201E+02  0.55641211691E+02  0.47000000000E+01 0. -1.
<mgrwt>
<rscale>  0 0.14227931E+03</rscale>
<asrwt>0</asrwt>
<pdfrwt beam="1">  1        1 0.15076099E+00 0.14780450E+03</pdfrwt>
<pdfrwt beam="2">  1       -1 0.29631906E-02 0.14780450E+03</pdfrwt>
<totfact> 0.62080295E+03</totfact>
</mgrwt>
</event>
<event>
 8    1  0.2018715E-005  0.2919015E+03  0.7546771E-02  0.1092133E+00
         -2   -1    0    0    0  501 -0.00000000000E+00  0.00000000000E+00  0.47128106358E+03  0.47128106358E+03  0.00000000000E+00 0.  1.
          2   -1    0    0  501    0  0.00000000000E+00 -0.00000000000E+00 -0.20134853601E+03  0.20134853601E+03  0.00000000000E+00 0. -1.
         25    2    1    2    0    0  0.15262186558E+03 -0.21514967301E+03  0.28398842426E+01  0.29191535754E+03  0.12499478138E+03 0.  0.
         23    2    1    2    0    0 -0.15262186558E+03  0.21514967301E+03  0.26709264333E+03  0.38071424205E+03  0.63419542161E+02 0.  0.
          5    1    3    3  502    0  0.16494216445E+03 -0.19276071848E+03  0.28573765523E+02  0.25534518260E+03  0.47000000000E+01 0. -1.
         -5    1    3    3    0  502 -0.12320298864E+02 -0.22388954537E+02 -0.25733881281E+02  0.36570174940E+02  0.47000000000E+01 0. -1.
          5    1    4    4  503    0 -0.58149058207E+02  0.13585492311E+03  0.14318422891E+03  0.20581954842E+03  0.47000000000E+01 0. -1.
         -5    1    4    4    0  503 -0.94472807378E+02  0.79294749900E+02  0.12390841442E+03  0.17489469363E+03  0.47000000000E+01 0.  1.
<mgrwt>
<rscale>  0 0.28660951E+03</rscale>
<asrwt>0</asrwt>
<pdfrwt beam="1">  1        2 0.30976698E-01 0.29190154E+03</pdfrwt>
<pdfrwt beam="2">  1       -2 0.72504779E-01 0.29190154E+03</pdfrwt>
<totfact> 0.30052262E+02</totfact>
</mgrwt>
</event>
<event>
 7    1  0.2018715E-005  0.1379541E+03  0.7546771E-02  0.1219597E+00
          1   -1    0    0  501    0  0.00000000000E+00  0.00000000000E+00  0.30716988623E+02  0.30716988623E+02  0.00000000000E+00 0. -1.
         -1   -1    0    0    0  501 -0.00000000000E+00 -0.00000000000E+00 -0.89488956170E+03  0.89488956170E+03  0.00000000000E+00 0.  1.
         25    2    1    2    0    0  0.27412792527E+02 -0.72180643892E+01 -0.14589869426E+03  0.19420467405E+03  0.12500185915E+03 0.  0.
          5    1    3    3  502    0  0.36005604748E+02  0.44275655673E+02 -0.25093992682E+02  0.62518283144E+02  0.47000000000E+01 0. -1.
         -5    1    3    3    0  502 -0.85928122209E+01 -0.51493720062E+02 -0.12080470158E+03  0.13168639091E+03  0.47000000000E+01 0. -1.
          5    1    1    2  503    0 -0.60119653761E+02  0.42808255371E+02 -0.25261150033E+03  0.26321394263E+03  0.47000000000E+01 0. -1.
         -5    1    1    2    0  503  0.32706861234E+02 -0.35590190981E+02 -0.46566237849E+03  0.46818793364E+03  0.47000000000E+01 0.  1.
<mgrwt>
<rscale>  0 0.13544173E+03</rscale>
<asrwt>0</asrwt>
<pdfrwt beam="1">  1        1 0.47256905E-02 0.13795412E+03</pdfrwt>
<pdfrwt beam="2">  1       -1 0.13767532E+00 0.13795412E+03</pdfrwt>
<totfact> 0.83776968E+02</totfact>
</mgrwt>
</event>
<event>
 8    1  0.2018715E-005  0.1481970E+03  0.7546771E-02  0.1207260E+00
         -1   -1    0    0    0  501 -0.00000000000E+00  0.00000000000E+00  0.30666485999E+03  0.30666485999E+03  0.00000000000E+00 0.  1.
          1   -1    0    0  501    0  0.00000000000E+00 -0.00000000000E+00 -0.75887688671E+02  0.75887688671E+02  0.00000000000E+00 0. -1.
         25    2    1    2    0    0 -0.14132044648E+02  0.78348443599E+02  0.48137717369E+02  0.15581908362E+03  0.12499661470E+03 0.  0.
         23    2    1    2    0    0  0.14132044648E+02 -0.78348443599E+02  0.18263945395E+03  0.22673346504E+03  0.10822523149E+03 0.  0.
          5    1    4    4  502    0 -0.26597084402E+02 -0.80827124923E+02  0.83000628644E+02  0.11896059590E+03  0.47000000000E+01 0. -1.
         -5    1    3    3    0  503 -0.36078177137E+01  0.10020283968E+03  0.70365296014E+02  0.12258462510E+03  0.47000000000E+01 0. -1.
          5    1    3    3  503    0 -0.10524226934E+02 -0.21854396079E+02 -0.22227578645E+02  0.33234458518E+02  0.47000000000E+01 0. -1.
         -5    1    4    4    0  502  0.40729129050E+02  0.24786813241E+01  0.99638825306E+02  0.10777286914E+03  0.47000000000E+01 0.  1.
<mgrwt>
<rscale>  0 0.14460785E+03</rscale>
<asrwt>0</asrwt>
<pdfrwt beam="1">  1        1 0.11675029E-01 0.14819699E+03</pdfrwt>
<pdfrwt beam="2">  1       -1 0.47179209E-01 0.14819699E+03</pdfrwt>
<totfact> 0.23188303E+03</totfact>
</mgrwt>
</event>
<event>
 8    1  0.2018715E-005  0.1507571E+03  0.7546771E-02  0.1204517E+00
         -2   -1    0    0    0  501 -0.00000000000E+00  0.00000000000E+00  0.19654181461E+03  0.19654181461E+03  0.00000000000E+00 0.  1.
          2   -1    0    0  501    0  0.00000000000E+00 -0.00000000000E+00 -0.10856100835E+03  0.10856100835E+03  0.00000000000E+00 0. -1.
         25    2    1    2    0    0  0.76401488469E+02  0.35568223385E+02  0.76994857904E+02  0.16928052654E+03  0.12500161026E+03 0.  0.
         23    2    1    2    0    0 -0.76401488469E+02 -0.35568223385E+02  0.10985948353E+02  0.13582229642E+03  0.10594677526E+03 0.  0.
          5    1    4    4  502    0  0.97969120918E+01 -0.40086871262E+02 -0.17119791616E+02  0.44923423724E+02  0.47000000000E+01 0. -1.
         -5    1    3    3    0  503  0.76267951023E+02 -0.31370488438E+02  0.52355952810E+02  0.97796440082E+02  0.47000000000E+01 0.  1.
          5    1    3    3  503    0  0.13353744577E+00  0.66938711823E+02  0.24638905094E+02  0.71484086460E+02  0.47000000000E+01 0.  1.
         -5    1    4    4    0  502 -0.86198400560E+02  0.45186478777E+01  0.28105739969E+02  0.90898872694E+02  0.47000000000E+01 0.  1.
<mgrwt>
<rscale>  0 0.14675559E+03</rscale>
<asrwt>0</asrwt>
<pdfrwt beam="1">  1        2 0.16701694E-01 0.15075705E+03</pdfrwt>
<pdfrwt beam="2">  1       -2 0.30237202E-01 0.15075705E+03</pdfrwt>
<totfact> 0.33402011E+03</totfact>
</mgrwt>
</event>
<event>
 8    1  0.2018715E-005  0.1256218E+03  0.7546771E-02  0.1241850E+00
         -3   -1    0    0    0  501 -0.00000000000E+00  0.00000000000E+00  0.67747398872E+02  0.67747398872E+02  0.00000000000E+00 0.  1.
          3   -1    0    0  501    0  0.00000000000E+00 -0.00000000000E+00 -0.20015324637E+03  0.20015324637E+03  0.00000000000E+00 0. -1.
         25    2    1    2    0    0 -0.97138524030E+01 -0.77944104676E+01 -0.71858093852E+02  0.14472188128E+03  0.12500290199E+03 0.  0.
         23    2    1    2    0    0  0.97138524030E+01  0.77944104676E+01 -0.60547753650E+02  0.12317876396E+03  0.10654513436E+03 0.  0.
          5    1    4    4  502    0  0.46422776455E+02 -0.22509659886E+02 -0.54115399671E+02  0.74915455305E+02  0.47000000000E+01 0. -1.
         -5    1    4    4    0  502 -0.36708924052E+02  0.30304070354E+02 -0.64323539789E+01  0.48263308659E+02  0.47000000000E+01 0.  1.
          5    1    3    3  503    0 -0.33635758965E+02  0.15212728118E+01  0.26408542978E+02  0.43048573662E+02  0.47000000000E+01 0. -1.
         -5    1    3    3    0  503  0.23921906562E+02 -0.93156832794E+01 -0.98266636830E+02  0.10167330762E+03  0.47000000000E+01 0. -1.
<mgrwt>
<rscale>  0 0.12075884E+03</rscale>
<asrwt>0</asrwt>
<pdfrwt beam="1">  1        3 0.30792807E-01 0.12562180E+03</pdfrwt>
<pdfrwt beam="2">  1       -3 0.10422677E-01 0.12562180E+03</pdfrwt>
<totfact> 0.15958459E+03</totfact>
</mgrwt>
</event>
<event>
 8    1  0.2018715E-005  0.1529544E+03  0.7546771E-02  0.1211020E+00
          2   -1    0    0  501    0  0.00000000000E+00  0.00000000000E+00  0.50691612614E+03  0.50691612614E+03  0.00000000000E+00 0. -1.
         -2   -1    0    0    0  501 -0.00000000000E+00 -0.00000000000E+00 -0.35088999429E+02  0.35088999429E+02  0.00000000000E+00 0.  1.
         25    2    1    2    0    0 -0.72629460203E+02 -0.49953658078E+02  0.24790732001E+03  0.29129551888E+03  0.12499853422E+03 0.  0.
         23    2    1    2    0    0  0.72629460203E+02  0.49953658078E+02  0.22391980670E+03  0.25070960669E+03  0.70319418442E+02 0.  0.
          5    1    3    3  502    0  0.10744363937E+02 -0.36682832292E+02  0.17641033181E+03  0.18056513149E+03  0.47000000000E+01 0. -1.
         -5    1    4    4    0  503  0.24885670772E+02 -0.16793447862E+02  0.66794205126E+02  0.73381689400E+02  0.47000000000E+01 0. -1.
          5    1    4    4  503    0  0.47743789431E+02  0.66747105940E+02  0.15712560157E+03  0.17732791729E+03  0.47000000000E+01 0.  1.
         -5    1    3    3    0  502 -0.83373824140E+02 -0.13270825786E+02  0.71496988204E+02  0.11073038739E+03  0.47000000000E+01 0. -1.
<mgrwt>
<rscale>  0 0.14173005E+03</rscale>
<asrwt>0</asrwt>
<pdfrwt beam="1">  1        2 0.77987091E-01 0.15295437E+03</pdfrwt>
<pdfrwt beam="2">  1       -2 0.53983080E-02 0.15295437E+03</pdfrwt>
<totfact> 0.10243874E+04</totfact>
</mgrwt>
</event>
<event>
 8    1  0.2018715E-005  0.1581413E+03  0.7546771E-02  0.1195781E+00
         -1   -1    0    0    0  501 -0.00000000000E+00  0.00000000000E+00  0.10164212135E+03  0.10164212135E+03  0.00000000000E+00 0.  1.
          1   -1    0    0  501    0  0.00000000000E+00 -0.00000000000E+00 -0.23345480138E+03  0.23345480138E+03  0.00000000000E+00 0. -1.
         25    2    1    2    0    0  0.49927513168E+02 -0.83010558814E+02 -0.31066036141E+02  0.16116380043E+03  0.12500065008E+03 0.  0.
         23    2    1    2    0    0 -0.49927513168E+02  0.83010558814E+02 -0.10074664389E+03  0.17393312230E+03  0.10353422300E+03 0.  0.
          5    1    4    4  502    0 -0.41118570510E+02  0.10461865440E+03 -0.99340940589E+02  0.15008834787E+03  0.47000000000E+01 0. -1.
         -5    1    4    4    0  502 -0.88089426585E+01 -0.21608095590E+02 -0.14057033045E+01  0.23844774429E+02  0.47000000000E+01 0.  1.
          5    1    3    3  503    0  0.87795866761E+02 -0.35929564313E+02 -0.47633697794E+01  0.95099040498E+02  0.47000000000E+01 0.  1.
         -5    1    3    3    0  503 -0.37868353592E+02 -0.47080994501E+02 -0.26302666362E+02  0.66064759931E+02  0.47000000000E+01 0.  1.
<mgrwt>
<rscale>  0 0.15388319E+03</rscale>
<asrwt>0</asrwt>
<pdfrwt beam="1">  1        1 0.35916123E-01 0.15814130E+03</pdfrwt>
<pdfrwt beam="2">  1       -1 0.15637249E-01 0.15814130E+03</pdfrwt>
<totfact> 0.35202194E+03</totfact>
</mgrwt>
</event>
<event>
 8    1  0.2018715E-005  0.1328017E+03  0.7546771E-02  0.1244937E+00
         -2   -1    0    0    0  501 -0.00000000000E+00  0.00000000000E+00  0.83023387807E+02  0.83023387807E+02  0.00000000000E+00 0.  1.
          2   -1    0    0  501    0  0.00000000000E+00 -0.00000000000E+00 -0.19209922704E+03  0.19209922704E+03  0.00000000000E+00 0. -1.
         25    2    1    2    0    0  0.42638536617E+02 -0.13899601147E+02 -0.13152526208E+03  0.18690960180E+03  0.12500024385E+03 0.  0.
         23    2    1    2    0    0 -0.42638536617E+02  0.13899601147E+02  0.22449422852E+02  0.88213013043E+02  0.72569383124E+02 0.  0.
          5    1    3    3  502    0  0.12578500819E+02 -0.35519576272E+02 -0.14292469572E+03  0.14788312151E+03  0.47000000000E+01 0.  1.
         -5    1    3    3    0  502  0.30060035798E+02  0.21619975125E+02  0.11399433638E+02  0.39026480290E+02  0.47000000000E+01 0.  1.
          5    1    4    4  503    0  0.10554046723E+01 -0.25062054413E+02  0.13286111069E+02  0.28772055849E+02  0.47000000000E+01 0. -1.
         -5    1    4    4    0  503 -0.43693941289E+02  0.38961655560E+02  0.91633117831E+01  0.59440957195E+02  0.47000000000E+01 0.  1.
<mgrwt>
<rscale>  0 0.11889157E+03</rscale>
<asrwt>0</asrwt>
<pdfrwt beam="1">  1        2 0.29553727E-01 0.13280175E+03</pdfrwt>
<pdfrwt beam="2">  1       -2 0.12772829E-01 0.13280175E+03</pdfrwt>
<totfact> 0.75359740E+03</totfact>
</mgrwt>
</event>
<event>
 7    1  0.2018715E-005  0.2924024E+03  0.7546771E-02  0.1089787E+00
         -1   -1    0    0    0  501 -0.00000000000E+00  0.00000000000E+00  0.46203224070E+02  0.46203224070E+02  0.00000000000E+00 0.  1.
          1   -1    0    0  501    0  0.00000000000E+00 -0.00000000000E+00 -0.25377657518E+04  0.25377657518E+04  0.00000000000E+00 0. -1.
         25    2    1    2    0    0 -0.22546334748E+03 -0.12646488049E+03 -0.54936277363E+03  0.61988163900E+03  0.12500680889E+03 0.  0.
          5    1    1    2  502    0  0.18856528733E+03  0.14099385911E+03 -0.18280075966E+04  0.18431142122E+04  0.47000000000E+01 0. -1.
         -5    1    3    3    0  503 -0.14630736573E+03 -0.25857267158E+02 -0.21118525517E+03  0.25825519459E+03  0.47000000000E+01 0.  1.
          5    1    3    3  503    0 -0.79155981749E+02 -0.10060761333E+03 -0.33817751846E+03  0.36162644442E+03  0.47000000000E+01 0.  1.
         -5    1    1    2    0  502  0.36898060149E+02 -0.14528978623E+02 -0.11419215748E+03  0.12097312467E+03  0.47000000000E+01 0.  1.
<mgrwt>
<rscale>  0 0.29107980E+03</rscale>
<asrwt>0</asrwt>
<pdfrwt beam="1">  1        1 0.39042547E+00 0.29240243E+03</pdfrwt>
<pdfrwt beam="2">  1       -1 0.71081889E-02 0.29240243E+03</pdfrwt>
<totfact> 0.15369182E+02</totfact>
</mgrwt>
</event>
<event>
 8    1  0.2018715E-005  0.2455963E+03  0.7546771E-02  0.1119597E+00
          1   -1    0    0  501    0  0.00000000000E+00  0.00000000000E+00  0.12763887451E+03  0.12763887451E+03  0.00000000000E+00 0. -1.
         -1   -1    0    0    0  501 -0.00000000000E+00 -0.00000000000E+00 -0.57631479930E+03  0.57631479930E+03  0.00000000000E+00 0.  1.
         25    2    1    2    0    0 -0.65979307847E+01 -0.21130185427E+03 -0.56853428210E+02  0.25209098279E+03  0.12500217996E+03 0.  0.
         23    2    1    2    0    0  0.65979307847E+01  0.21130185427E+03 -0.39182249658E+03  0.45186269103E+03  0.77220569866E+02 0.  0.
          5    1    3    3  502    0 -0.37337929234E+02 -0.89569240448E+02  0.27244166235E+02  0.10090145880E+03  0.47000000000E+01 0.  1.
         -5    1    4    4    0  503 -0.25606997880E+02  0.89572593167E+02 -0.11781417554E+03  0.15027054849E+03  0.47000000000E+01 0.  1.
          5    1    4    4  503    0  0.32204928665E+02  0.12172926110E+03 -0.27400832104E+03  0.30159214253E+03  0.47000000000E+01 0. -1.
         -5    1    3    3    0  502  0.30739998449E+02 -0.12173261382E+03 -0.84097594445E+02  0.15118952399E+03  0.47000000000E+01 0.  1.
<mgrwt>
<rscale>  0 0.24029471E+03</rscale>
<asrwt>0</asrwt>
<pdfrwt beam="1">  1        1 0.19636750E-01 0.24559632E+03</pdfrwt>
<pdfrwt beam="2">  1       -1 0.88663816E-01 0.24559632E+03</pdfrwt>
<totfact> 0.34476274E+02</totfact>
</mgrwt>
</event>
<event>
 8    1  0.2018715E-005  0.1710487E+03  0.7546771E-02  0.1177161E+00
          2   -1    0    0  501    0  0.00000000000E+00  0.00000000000E+00  0.15066911316E+03  0.15066911316E+03  0.00000000000E+00 0. -1.
         -2   -1    0    0    0  501 -0.00000000000E+00 -0.00000000000E+00 -0.19284895735E+03  0.19284895735E+03  0.00000000000E+00 0.  1.
         25    2    1    2    0    0 -0.53575501808E+02  0.10374072963E+03 -0.13183673615E+02  0.17155602747E+03  0.12500075172E+03 0.  0.
         23    2    1    2    0    0  0.53575501808E+02 -0.10374072963E+03 -0.28996170569E+02  0.17196204304E+03  0.12287266971E+03 0.  0.
          5    1    3    3  502    0 -0.65844510340E+02  0.34832918523E+02 -0.52393757859E+02  0.91192256345E+02  0.47000000000E+01 0. -1.
         -5    1    4    4    0  503  0.15278962949E+02 -0.63534903721E+02 -0.75083672431E+02  0.99648274271E+02  0.47000000000E+01 0.  1.
          5    1    4    4  503    0  0.38296538859E+02 -0.40205825914E+02  0.46087501862E+02  0.72313768771E+02  0.47000000000E+01 0. -1.
         -5    1    3    3    0  502  0.12269008532E+02  0.68907811112E+02  0.39210084243E+02  0.80363771122E+02  0.47000000000E+01 0. -1.
<mgrwt>
<rscale>  0 0.17066015E+03</rscale>
<asrwt>0</asrwt>
<pdfrwt beam="1">  1        2 0.23179863E-01 0.17104871E+03</pdfrwt>
<pdfrwt beam="2">  1       -2 0.29669071E-01 0.17104871E+03</pdfrwt>
<totfact> 0.23943397E+03</totfact>
</mgrwt>
</event>
<event>
 8    1  0.2018715E-005  0.1303632E+03  0.7546771E-02  0.1251175E+00
         -2   -1    0    0    0  501 -0.00000000000E+00  0.00000000000E+00  0.40526645223E+02  0.40526645223E+02  0.00000000000E+00 0.  1.
          2   -1    0    0  501    0  0.00000000000E+00 -0.00000000000E+00 -0.27198555389E+03  0.27198555389E+03  0.00000000000E+00 0. -1.
         25    2    1    2    0    0 -0.36640293702E+02  0.54146132766E+01 -0.14124291216E+03  0.19220853563E+03  0.12499092676E+03 0.  0.
         23    2    1    2    0    0  0.36640293702E+02 -0.54146132766E+01 -0.90215996501E+02  0.12030366348E+03  0.70443000095E+02 0.  0.
          5    1    4    4  502    0  0.46688650550E+02 -0.25773900224E+02 -0.76475270443E+02  0.93352455845E+02  0.47000000000E+01 0. -1.
         -5    1    4    4    0  502 -0.10048356848E+02  0.20359286947E+02 -0.13740726057E+02  0.26951207634E+02  0.47000000000E+01 0.  1.
          5    1    3    3  503    0 -0.13495668282E+02 -0.54449683857E+02 -0.30245402979E+02  0.63904425010E+02  0.47000000000E+01 0.  1.
         -5    1    3    3    0  503 -0.23144625419E+02  0.59864297134E+02 -0.11099750918E+03  0.12830411062E+03  0.47000000000E+01 0.  1.
<mgrwt>
<rscale>  0 0.11523287E+03</rscale>
<asrwt>0</asrwt>
<pdfrwt beam="1">  1        2 0.41843931E-01 0.13036319E+03</pdfrwt>
<pdfrwt beam="2">  1       -2 0.62348686E-02 0.13036319E+03</pdfrwt>
<totfact> 0.15849339E+04</totfact>
</mgrwt>
</event>
<event>
 8    1  0.2018715E-005  0.1323717E+03  0.7546771E-02  0.1255115E+00
          2   -1    0    0  501    0  0.00000000000E+00  0.00000000000E+00  0.28047664568E+02  0.28047664568E+02  0.00000000000E+00 0. -1.
         -2   -1    0    0    0  501 -0.00000000000E+00 -0.00000000000E+00 -0.38452156342E+03  0.38452156342E+03  0.00000000000E+00 0.  1.
         25    2    1    2    0    0  0.35794440379E+02  0.24900260370E+02 -0.18712940374E+03  0.22921534732E+03  0.12498398607E+03 0.  0.
         23    2    1    2    0    0 -0.35794440379E+02 -0.24900260370E+02 -0.16934449510E+03  0.18335388066E+03  0.55134586272E+02 0.  0.
          5    1    3    3  502    0  0.41620084303E+02 -0.41530580831E+02 -0.12378483376E+03  0.13711963984E+03  0.47000000000E+01 0.  1.
         -5    1    3    3    0  502 -0.58256439234E+01  0.66430841201E+02 -0.63344569985E+02  0.92095707481E+02  0.47000000000E+01 0.  1.
          5    1    4    4  503    0 -0.19541285997E+02 -0.49300629002E+01 -0.12154681131E+02  0.23999867750E+02  0.47000000000E+01 0. -1.
         -5    1    4    4    0  503 -0.16253154383E+02 -0.19970197470E+02 -0.15718981397E+03  0.15935401291E+03  0.47000000000E+01 0.  1.
<mgrwt>
<rscale>  0 0.11299888E+03</rscale>
<asrwt>0</asrwt>
<pdfrwt beam="1">  1        2 0.43150256E-02 0.13237168E+03</pdfrwt>
<pdfrwt beam="2">  1       -2 0.59157160E-01 0.13237168E+03</pdfrwt>
<totfact> 0.49318857E+03</totfact>
</mgrwt>
</event>
<event>
 8    1  0.2018715E-005  0.1525098E+03  0.7546771E-02  0.1210231E+00
         -2   -1    0    0    0  501 -0.00000000000E+00  0.00000000000E+00  0.17235975859E+03  0.17235975859E+03  0.00000000000E+00 0.  1.
          2   -1    0    0  501    0  0.00000000000E+00 -0.00000000000E+00 -0.10614594423E+03  0.10614594423E+03  0.00000000000E+00 0. -1.
         25    2    1    2    0    0 -0.21516239178E+02 -0.84715358812E+02  0.55636803024E+02  0.16234132509E+03  0.12497844380E+03 0.  0.
         23    2    1    2    0    0  0.21516239178E+02  0.84715358812E+02  0.10577011332E+02  0.11616437772E+03  0.75780267329E+02 0.  0.
          5    1    3    3  502    0 -0.44724502251E+02  0.27434929246E+01 -0.14964803642E+02  0.47474658535E+02  0.47000000000E+01 0.  1.
         -5    1    3    3    0  502  0.23208263073E+02 -0.87458851736E+02  0.70601606667E+02  0.11486666656E+03  0.47000000000E+01 0.  1.
          5    1    4    4  503    0 -0.10081071864E+02  0.82500545939E+02  0.12019815279E+02  0.84110249373E+02  0.47000000000E+01 0. -1.
         -5    1    4    4    0  503  0.31597311042E+02  0.22148128723E+01 -0.14428039472E+01  0.32054128352E+02  0.47000000000E+01 0.  1.
<mgrwt>
<rscale>  0 0.14232779E+03</rscale>
<asrwt>0</asrwt>
<pdfrwt beam="1">  1        2 0.16330145E-01 0.15250984E+03</pdfrwt>
<pdfrwt beam="2">  1       -2 0.26516886E-01 0.15250984E+03</pdfrwt>
<totfact> 0.43372345E+03</totfact>
</mgrwt>
</event>
<event>
 8    1  0.2018715E-005  0.2650714E+03  0.7546771E-02  0.1104721E+00
         -2   -1    0    0    0  501 -0.00000000000E+00  0.00000000000E+00  0.47246795501E+02  0.47246795501E+02  0.00000000000E+00 0.  1.
          2   -1    0    0  501    0  0.00000000000E+00 -0.00000000000E+00 -0.22888769834E+04  0.22888769834E+04  0.00000000000E+00 0. -1.
         25    2    1    2    0    0  0.21887052746E+03  0.82059701268E+02 -0.18270286931E+04  0.18461572821E+04  0.12499905069E+03 0.  0.
         23    2    1    2    0    0 -0.21887052746E+03 -0.82059701268E+02 -0.41460149482E+03  0.48996649677E+03  0.11633858384E+03 0.  0.
          5    1    3    3  502    0  0.44562629006E+00 -0.21288328535E+02 -0.10406157719E+03  0.10632165048E+03  0.47000000000E+01 0.  1.
         -5    1    4    4    0  503 -0.17940732707E+03 -0.52101524953E+02 -0.21787414403E+03  0.28704144395E+03  0.47000000000E+01 0.  1.
          5    1    4    4  503    0 -0.39463200387E+02 -0.29958176315E+02 -0.19672735079E+03  0.20292505282E+03  0.47000000000E+01 0. -1.
         -5    1    3    3    0  502  0.21842490117E+03  0.10334802980E+03 -0.17229671159E+04  0.17398356317E+04  0.47000000000E+01 0.  1.
<mgrwt>
<rscale>  0 0.26407273E+03</rscale>
<asrwt>0</asrwt>
<pdfrwt beam="1">  1        2 0.35213492E+00 0.26507143E+03</pdfrwt>
<pdfrwt beam="2">  1       -2 0.72687377E-02 0.26507143E+03</pdfrwt>
<totfact> 0.57462177E+02</totfact>
</mgrwt>
</event>
<event>
 7    1  0.2018715E-005  0.1503020E+03  0.7546771E-02  0.1205222E+00
         -1   -1    0    0    0  501 -0.00000000000E+00  0.00000000000E+00  0.27897207577E+03  0.27897207577E+03  0.00000000000E+00 0.  1.
          1   -1    0    0  501    0  0.00000000000E+00 -0.00000000000E+00 -0.73616341642E+02  0.73616341642E+02  0.00000000000E+00 0. -1.
         25    2    1    2    0    0  0.12238887375E+02  0.48242411542E+02  0.77589315042E+02  0.15531967624E+03  0.12500791728E+03 0.  0.
          5    1    1    2  502    0 -0.38755098875E+02 -0.28327274582E+02 -0.15089595632E+02  0.50538876821E+02  0.47000000000E+01 0. -1.
         -5    1    1    2    0  502  0.26516211499E+02 -0.19915136960E+02  0.14285601472E+03  0.14672986436E+03  0.47000000000E+01 0.  1.
          5    1    3    3  503    0 -0.20007635126E+01  0.75607562924E+02  0.93451336593E+02  0.12031520659E+03  0.47000000000E+01 0. -1.
         -5    1    3    3    0  503  0.14239650888E+02 -0.27365151381E+02 -0.15862021551E+02  0.35004469646E+02  0.47000000000E+01 0. -1.
<mgrwt>
<rscale>  0 0.14619945E+03</rscale>
<asrwt>0</asrwt>
<pdfrwt beam="1">  1        1 0.11325591E-01 0.15030202E+03</pdfrwt>
<pdfrwt beam="2">  1       -1 0.42918780E-01 0.15030202E+03</pdfrwt>
<totfact> 0.28621155E+03</totfact>
</mgrwt>
</event>
<event>
 8    1  0.2018715E-005  0.1287996E+03  0.7546771E-02  0.1249987E+00
         -2   -1    0    0    0  501 -0.00000000000E+00  0.00000000000E+00  0.30270372306E+02  0.30270372306E+02  0.00000000000E+00 0.  1.
          2   -1    0    0  501    0  0.00000000000E+00 -0.00000000000E+00 -0.50941042761E+03  0.50941042761E+03  0.00000000000E+00 0. -1.
         25    2    1    2    0    0 -0.55155055809E+01 -0.30565079611E+02 -0.14026831695E+03  0.19043249750E+03  0.12499876189E+03 0.  0.
         23    2    1    2    0    0  0.55155055809E+01  0.30565079611E+02 -0.33887173836E+03  0.34924830241E+03  0.78585474397E+02 0.  0.
          5    1    3    3  502    0 -0.51663431059E+02  0.24011847941E+02 -0.63355955130E+02  0.85333147140E+02  0.47000000000E+01 0. -1.
         -5    1    3    3    0  502  0.46147925478E+02 -0.54576927552E+02 -0.76912361817E+02  0.10509935036E+03  0.47000000000E+01 0. -1.
          5    1    4    4  503    0 -0.23815751857E+02  0.37801417221E+02 -0.27243309291E+03  0.27611232731E+03  0.47000000000E+01 0. -1.
         -5    1    4    4    0  503  0.29331257438E+02 -0.72363376109E+01 -0.66438645443E+02  0.73135975096E+02  0.47000000000E+01 0.  1.
<mgrwt>
<rscale>  0 0.11591792E+03</rscale>
<asrwt>0</asrwt>
<pdfrwt beam="1">  1        2 0.78370829E-01 0.12879959E+03</pdfrwt>
<pdfrwt beam="2">  1       -2 0.46569807E-02 0.12879959E+03</pdfrwt>
<totfact> 0.12567413E+04</totfact>
</mgrwt>
</event>
<event>
 8    1  0.2018715E-005  0.1253962E+03  0.7546771E-02  0.1242740E+00
         -1   -1    0    0    0  501 -0.00000000000E+00  0.00000000000E+00  0.61141199407E+02  0.61141199407E+02  0.00000000000E+00 0.  1.
          1   -1    0    0  501    0  0.00000000000E+00 -0.00000000000E+00 -0.24079377585E+03  0.24079377585E+03  0.00000000000E+00 0. -1.
         25    2    1    2    0    0  0.87338383109E+01 -0.47616612545E+01 -0.51214484977E+02  0.13545160897E+03  0.12500104620E+03 0.  0.
         23    2    1    2    0    0 -0.87338383109E+01  0.47616612545E+01 -0.12843809147E+03  0.16648336629E+03  0.10545811757E+03 0.  0.
          5    1    3    3  502    0  0.21733969702E+02 -0.36824275758E+02 -0.79582319571E+02  0.90464514106E+02  0.47000000000E+01 0. -1.
         -5    1    4    4    0  503  0.26835400391E+02 -0.30343470321E+02 -0.16846763100E+02  0.44122197726E+02  0.47000000000E+01 0.  1.
          5    1    4    4  503    0 -0.35569238702E+02  0.35105131575E+02 -0.11159132837E+03  0.12236116856E+03  0.47000000000E+01 0. -1.
         -5    1    3    3    0  502 -0.13000131391E+02  0.32062614503E+02  0.28367834594E+02  0.44987094866E+02  0.47000000000E+01 0. -1.
<mgrwt>
<rscale>  0 0.12021655E+03</rscale>
<asrwt>0</asrwt>
<pdfrwt beam="1">  1        1 0.37045196E-01 0.12539623E+03</pdfrwt>
<pdfrwt beam="2">  1       -1 0.94063385E-02 0.12539623E+03</pdfrwt>
<totfact> 0.73330949E+03</totfact>
</mgrwt>
</event>
<event>
 8    1  0.2018715E-005  0.1538369E+03  0.7546771E-02  0.1196827E+00
          1   -1    0    0  501    0  0.00000000000E+00  0.00000000000E+00  0.92686971585E+03  0.92686971585E+03  0.00000000000E+00 0. -1.
         -1   -1    0    0    0  501 -0.00000000000E+00 -0.00000000000E+00 -0.25189904526E+02  0.25189904526E+02  0.00000000000E+00 0.  1.
         25    2    1    2    0    0 -0.54022850459E+02 -0.71568223258E+02  0.41317287297E+03  0.44088276709E+03  0.12500124960E+03 0.  0.
         23    2    1    2    0    0  0.54022850459E+02  0.71568223258E+02  0.48850693835E+03  0.51117685329E+03  0.12092256848E+03 0.  0.
          5    1    4    4  502    0  0.34435883415E+02 -0.17151984202E+02  0.29283586629E+03  0.29538949746E+03  0.47000000000E+01 0. -1.
         -5    1    3    3    0  503 -0.77826182699E+02 -0.42750434161E+02  0.38131828992E+03  0.39154851879E+03  0.47000000000E+01 0. -1.
          5    1    3    3  503    0  0.23803332240E+02 -0.28817789097E+02  0.31854583050E+02  0.49334248301E+02  0.47000000000E+01 0. -1.
         -5    1    4    4    0  502  0.19586967044E+02  0.88720207461E+02  0.19567107207E+03  0.21578735582E+03  0.47000000000E+01 0.  1.
<mgrwt>
<rscale>  0 0.15300635E+03</rscale>
<asrwt>0</asrwt>
<pdfrwt beam="1">  1        1 0.14259531E+00 0.15383690E+03</pdfrwt>
<pdfrwt beam="2">  1       -1 0.38753706E-02 0.15383690E+03</pdfrwt>
<totfact> 0.45998530E+03</totfact>
</mgrwt>
</event>
<event>
 7    1  0.2018715E-005  0.2223433E+03  0.7546771E-02  0.1145250E+00
         -1   -1    0    0    0  501 -0.00000000000E+00  0.00000000000E+00  0.11426519590E+03  0.11426519590E+03  0.00000000000E+00 0.  1.
          1   -1    0    0  501    0  0.00000000000E+00 -0.00000000000E+00 -0.35087518603E+03  0.35087518603E+03  0.00000000000E+00 0. -1.
         25    2    1    2    0    0  0.49977967075E+01  0.10289366366E+03 -0.16581638403E+03  0.23179883796E+03  0.12499417617E+03 0.  0.
          5    1    1    2  502    0 -0.72524561033E+02 -0.92266079925E+02 -0.10429160632E+03  0.15707218279E+03  0.47000000000E+01 0. -1.
         -5    1    1    2    0  502  0.67526764326E+02 -0.10627583731E+02  0.33498000216E+02  0.76269361179E+02  0.47000000000E+01 0.  1.
          5    1    3    3  503    0  0.55693857814E+02  0.85883961036E+02 -0.13635554218E+03  0.17056607062E+03  0.47000000000E+01 0.  1.
         -5    1    3    3    0  503 -0.50696061106E+02  0.17009702619E+02 -0.29460841843E+02  0.61232767347E+02  0.47000000000E+01 0.  1.
<mgrwt>
<rscale>  0 0.20541373E+03</rscale>
<asrwt>0</asrwt>
<pdfrwt beam="1">  1        1 0.53980798E-01 0.22234330E+03</pdfrwt>
<pdfrwt beam="2">  1       -1 0.17579261E-01 0.22234330E+03</pdfrwt>
<totfact> 0.17753655E+03</totfact>
</mgrwt>
</event>
<event>
 8    1  0.2018715E-005  0.2190105E+03  0.7546771E-02  0.1135753E+00
          4   -1    0    0  501    0  0.00000000000E+00  0.00000000000E+00  0.37595960801E+02  0.37595960801E+02  0.00000000000E+00 0. -1.
         -4   -1    0    0    0  501 -0.00000000000E+00 -0.00000000000E+00 -0.15569382813E+04  0.15569382813E+04  0.00000000000E+00 0.  1.
         25    2    1    2    0    0  0.17570745171E+03 -0.38304019466E+02 -0.11268576164E+04  0.11479432356E+04  0.12500111206E+03 0.  0.
         23    2    1    2    0    0 -0.17570745171E+03  0.38304019466E+02 -0.39248470405E+03  0.44659100646E+03  0.11427588390E+03 0.  0.
          5    1    4    4  502    0 -0.27277882887E+02  0.56152142763E+02 -0.97818411658E+02  0.11613646151E+03  0.47000000000E+01 0.  1.
         -5    1    4    4    0  502 -0.14842956883E+03 -0.17848123297E+02 -0.29466629240E+03  0.33045454495E+03  0.47000000000E+01 0. -1.
          5    1    3    3  503    0  0.10555527500E+03 -0.63054670550E+02 -0.43454565143E+03  0.45163018139E+03  0.47000000000E+01 0. -1.
         -5    1    3    3    0  503  0.70152176710E+02  0.24750651083E+02 -0.69231196499E+03  0.69631305423E+03  0.47000000000E+01 0. -1.
<mgrwt>
<rscale>  0 0.21751028E+03</rscale>
<asrwt>0</asrwt>
<pdfrwt beam="1">  1        4 0.57839940E-02 0.21901047E+03</pdfrwt>
<pdfrwt beam="2">  1       -4 0.23952897E+00 0.21901047E+03</pdfrwt>
<totfact> 0.28196402E+01</totfact>
</mgrwt>
</event>
<event>
 8    1  0.2018715E-005  0.1688326E+03  0.7546771E-02  0.1190419E+00
          2   -1    0    0  501    0  0.00000000000E+00  0.00000000000E+00  0.54031208443E+02  0.54031208443E+02  0.00000000000E+00 0. -1.
         -2   -1    0    0    0  501 -0.00000000000E+00 -0.00000000000E+00 -0.41881132747E+03  0.41881132747E+03  0.00000000000E+00 0.  1.
         25    2    1    2    0    0  0.58706686262E+02 -0.97122297189E+02 -0.22367927300E+03  0.28024429443E+03  0.12500092707E+03 0.  0.
         23    2    1    2    0    0 -0.58706686262E+02  0.97122297189E+02 -0.14110084603E+03  0.19259824148E+03  0.65615686002E+02 0.  0.
          5    1    3    3  502    0  0.56438111222E+02 -0.11726448046E+03 -0.12898363573E+03  0.18328962617E+03  0.47000000000E+01 0.  1.
         -5    1    4    4    0  503 -0.25324274625E+02  0.54756806561E+02 -0.12018110815E+03  0.13455562235E+03  0.47000000000E+01 0.  1.
          5    1    4    4  503    0 -0.33382411637E+02  0.42365490629E+02 -0.20919737878E+02  0.58042619133E+02  0.47000000000E+01 0. -1.
         -5    1    3    3    0  502  0.22685750399E+01  0.20142183271E+02 -0.94695637263E+02  0.96954668254E+02  0.47000000000E+01 0.  1.
<mgrwt>
<rscale>  0 0.15848376E+03</rscale>
<asrwt>0</asrwt>
<pdfrwt beam="1">  1        2 0.83124933E-02 0.16883260E+03</pdfrwt>
<pdfrwt beam="2">  1       -2 0.64432514E-01 0.16883260E+03</pdfrwt>
<totfact> 0.18012128E+03</totfact>
</mgrwt>
</event>
<event>
 8    1  0.2018715E-005  0.1263637E+03  0.7546771E-02  0.1240404E+00
         -1   -1    0    0    0  501 -0.00000000000E+00  0.00000000000E+00  0.43268531988E+02  0.43268531988E+02  0.00000000000E+00 0.  1.
          1   -1    0    0  501    0  0.00000000000E+00 -0.00000000000E+00 -0.58220805987E+03  0.58220805987E+03  0.00000000000E+00 0. -1.
         25    2    1    2    0    0 -0.14962447972E+02 -0.10937738684E+02 -0.70644127016E+02  0.14477006402E+03  0.12499707908E+03 0.  0.
         23    2    1    2    0    0  0.14962447972E+02  0.10937738684E+02 -0.46829540087E+03  0.48070652784E+03  0.10693303726E+03 0.  0.
          5    1    3    3  502    0  0.43961616188E+02 -0.40746733741E+02 -0.31882081913E+02  0.68054956877E+02  0.47000000000E+01 0. -1.
         -5    1    4    4    0  503  0.50375870947E+02 -0.37691077342E+01 -0.12012764180E+03  0.13040197419E+03  0.47000000000E+01 0.  1.
          5    1    4    4  503    0 -0.35413422975E+02  0.14706846418E+02 -0.34816775906E+03  0.35030455365E+03  0.47000000000E+01 0. -1.
         -5    1    3    3    0  502 -0.58924064160E+02  0.29808995057E+02 -0.38762045103E+02  0.76715107143E+02  0.47000000000E+01 0. -1.
<mgrwt>
<rscale>  0 0.12164702E+03</rscale>
<asrwt>0</asrwt>
<pdfrwt beam="1">  1        1 0.89570469E-01 0.12636368E+03</pdfrwt>
<pdfrwt beam="2">  1       -1 0.66566974E-02 0.12636368E+03</pdfrwt>
<totfact> 0.40472399E+03</totfact>
</mgrwt>
</event>
<event>
 8    1  0.3224946E-005  0.1284900E+03  0.7546771E-02  0.1250498E+00
          2   -1    0    0  501    0  0.00000000000E+00  0.00000000000E+00  0.35259188412E+02  0.35259188412E+02  0.00000000000E+00 0.  1.
         -2   -1    0    0    0  501 -0.00000000000E+00 -0.00000000000E+00 -0.33285067641E+03  0.33285067641E+03  0.00000000000E+00 0. -1.
         25    2    1    2    0    0 -0.64627310233E+01  0.29124122431E+02 -0.21277593980E+03  0.24856244338E+03  0.12497882341E+03 0.  0.
         23    2    1    2    0    0  0.64627310233E+01 -0.29124122431E+02 -0.84815548202E+02  0.11954742145E+03  0.78790401431E+02 0.  0.
          5    1    3    3  502    0 -0.49899856167E+02  0.57538468510E+02 -0.13029914655E+03  0.15099877018E+03  0.47000000000E+01 0.  1.
         -5    1    4    4    0  503 -0.20933568105E+02 -0.66982436879E+01  0.48827605043E+01  0.23000262874E+02  0.47000000000E+01 0.  1.
          5    1    4    4  503    0  0.27396299129E+02 -0.22425878743E+02 -0.89698308707E+02  0.96547158571E+02  0.47000000000E+01 0. -1.
         -5    1    3    3    0  502  0.43437125143E+02 -0.28414346079E+02 -0.82476793245E+02  0.97563673198E+02  0.47000000000E+01 0.  1.
<mgrwt>
<rscale>  0 0.11562277E+03</rscale>
<asrwt>0</asrwt>
<pdfrwt beam="1">  1        2 0.54244908E-02 0.12849003E+03</pdfrwt>
<pdfrwt beam="2">  1       -2 0.51207794E-01 0.12849003E+03</pdfrwt>
<totfact> 0.48801803E+03</totfact>
</mgrwt>
</event>
<event>
 8    1  0.2018715E-005  0.1311453E+03  0.7546771E-02  0.1228232E+00
          2   -1    0    0  501    0  0.00000000000E+00  0.00000000000E+00  0.14517935154E+04  0.14517935154E+04  0.00000000000E+00 0. -1.
         -2   -1    0    0    0  501 -0.00000000000E+00 -0.00000000000E+00 -0.12367767657E+02  0.12367767657E+02  0.00000000000E+00 0.  1.
         25    2    1    2    0    0  0.16140636366E+00  0.39673807864E+02  0.51776746797E+03  0.53411819393E+03  0.12500022847E+03 0.  0.
         23    2    1    2    0    0 -0.16140636366E+00 -0.39673807864E+02  0.92165827979E+03  0.93004308914E+03  0.11811911731E+03 0.  0.
          5    1    4    4  502    0 -0.52942687312E+02 -0.46708397515E+02  0.48816613553E+03  0.49326754243E+03  0.47000000000E+01 0. -1.
         -5    1    4    4    0  502  0.52781280948E+02  0.70345896507E+01  0.43349214425E+03  0.43677554671E+03  0.47000000000E+01 0.  1.
          5    1    3    3  503    0 -0.80518942526E+01  0.73485046735E+02  0.18166058356E+03  0.19618242203E+03  0.47000000000E+01 0.  1.
         -5    1    3    3    0  503  0.82133006163E+01 -0.33811238870E+02  0.33610688441E+03  0.33793577190E+03  0.47000000000E+01 0.  1.
<mgrwt>
<rscale>  0 0.12947848E+03</rscale>
<asrwt>0</asrwt>
<pdfrwt beam="1">  1        2 0.22335271E+00 0.13114532E+03</pdfrwt>
<pdfrwt beam="2">  1       -2 0.19027346E-02 0.13114532E+03</pdfrwt>
<totfact> 0.11691683E+04</totfact>
</mgrwt>
</event>
<event>
 7    1  0.2018715E-005  0.1485872E+03  0.7546771E-02  0.1223496E+00
         -2   -1    0    0    0  501 -0.00000000000E+00  0.00000000000E+00  0.15917445192E+03  0.15917445192E+03  0.00000000000E+00 0.  1.
          2   -1    0    0  501    0  0.00000000000E+00 -0.00000000000E+00 -0.95662940030E+02  0.95662940030E+02  0.00000000000E+00 0. -1.
         25    2    1    2    0    0 -0.69598172815E+02  0.40114156620E+02  0.59972517272E+02  0.16023379344E+03  0.12500045804E+03 0.  0.
          5    1    1    2  502    0  0.40105207786E+02 -0.47555971928E+02 -0.52160610902E+01  0.62604276619E+02  0.47000000000E+01 0. -1.
         -5    1    3    3    0  503 -0.37194973220E+02  0.23474777339E+02  0.97905262962E+02  0.10743398773E+03  0.47000000000E+01 0. -1.
          5    1    3    3  503    0 -0.32403199595E+02  0.16639379282E+02 -0.37932745690E+02  0.52799805705E+02  0.47000000000E+01 0. -1.
         -5    1    1    2    0  502  0.29492965028E+02  0.74418153078E+01  0.87550557076E+01  0.31999321894E+02  0.47000000000E+01 0.  1.
<mgrwt>
<rscale>  0 0.13270492E+03</rscale>
<asrwt>0</asrwt>
<pdfrwt beam="1">  1        2 0.14717375E-01 0.14858723E+03</pdfrwt>
<pdfrwt beam="2">  1       -2 0.24488377E-01 0.14858723E+03</pdfrwt>
<totfact> 0.56229882E+03</totfact>
</mgrwt>
</event>
<event>
 7    1  0.2018715E-005  0.2013043E+03  0.7546771E-02  0.1156637E+00
         -1   -1    0    0    0  501 -0.00000000000E+00  0.00000000000E+00  0.64256996030E+02  0.64256996030E+02  0.00000000000E+00 0.  1.
          1   -1    0    0  501    0  0.00000000000E+00 -0.00000000000E+00 -0.11656079154E+04  0.11656079154E+04  0.00000000000E+00 0. -1.
         25    2    1    2    0    0 -0.34280341706E+02 -0.15403497315E+03 -0.11979696783E+03  0.23425353709E+03  0.12498596463E+03 0.  0.
          5    1    1    2  502    0  0.42623257839E+02  0.10543483188E+03 -0.76794615092E+03  0.77633538280E+03  0.47000000000E+01 0. -1.
         -5    1    3    3    0  503  0.25891182106E+02 -0.11323403504E+03 -0.32817113223E+02  0.12079467257E+03  0.47000000000E+01 0.  1.
          5    1    3    3  503    0 -0.60171523812E+02 -0.40800938114E+02 -0.86979854609E+02  0.11345886451E+03  0.47000000000E+01 0.  1.
         -5    1    1    2    0  502 -0.83429161332E+01  0.48600141267E+02 -0.21360780066E+03  0.21927599158E+03  0.47000000000E+01 0.  1.
<mgrwt>
<rscale>  0 0.19203629E+03</rscale>
<asrwt>0</asrwt>
<pdfrwt beam="1">  1        1 0.17932428E+00 0.20130426E+03</pdfrwt>
<pdfrwt beam="2">  1       -1 0.98856923E-02 0.20130426E+03</pdfrwt>
<totfact> 0.75700626E+02</totfact>
</mgrwt>
</event>
<event>
 7    1  0.2018715E-005  0.1527001E+03  0.7546771E-02  0.1217498E+00
         -1   -1    0    0    0  501 -0.00000000000E+00  0.00000000000E+00  0.49361603292E+03  0.49361603292E+03  0.00000000000E+00 0.  1.
          1   -1    0    0  501    0  0.00000000000E+00 -0.00000000000E+00 -0.41376875306E+02  0.41376875306E+02  0.00000000000E+00 0. -1.
         25    2    1    2    0    0 -0.66242384895E+02  0.57516681940E+02  0.13880071275E+03  0.20635638513E+03  0.12498438930E+03 0.  0.
          5    1    1    2  502    0  0.60330460463E+02 -0.37926780257E+02  0.18162210595E+03  0.19515861367E+03  0.47000000000E+01 0. -1.
         -5    1    1    2    0  502  0.59119244324E+01 -0.19589901683E+02  0.13181633891E+03  0.13347790942E+03  0.47000000000E+01 0.  1.
          5    1    3    3  503    0 -0.37440435582E+02 -0.37369604360E+02  0.42094941848E+02  0.67766862667E+02  0.47000000000E+01 0.  1.
         -5    1    3    3    0  503 -0.28801949313E+02  0.94886286300E+02  0.96705770900E+02  0.13858952247E+03  0.47000000000E+01 0.  1.
<mgrwt>
<rscale>  0 0.13694661E+03</rscale>
<asrwt>0</asrwt>
<pdfrwt beam="1">  1        1 0.63656735E-02 0.15270010E+03</pdfrwt>
<pdfrwt beam="2">  1       -1 0.75940924E-01 0.15270010E+03</pdfrwt>
<totfact> 0.21107470E+03</totfact>
</mgrwt>
</event>
<event>
 8    1  0.2018715E-005  0.1622726E+03  0.7546771E-02  0.1200298E+00
          1   -1    0    0  501    0  0.00000000000E+00  0.00000000000E+00  0.11369264417E+03  0.11369264417E+03  0.00000000000E+00 0. -1.
         -1   -1    0    0    0  501 -0.00000000000E+00 -0.00000000000E+00 -0.20101777436E+03  0.20101777436E+03  0.00000000000E+00 0.  1.
         25    2    1    2    0    0 -0.10215485191E+03  0.16500767224E+02  0.77422168704E+01  0.16245718206E+03  0.12499801996E+03 0.  0.
         23    2    1    2    0    0  0.10215485191E+03 -0.16500767224E+02 -0.95067347069E+02  0.15225323647E+03  0.58611930943E+02 0.  0.
          5    1    4    4  502    0  0.44981324691E+02 -0.21580094398E+02 -0.77046013372E+02  0.91908640626E+02  0.47000000000E+01 0. -1.
         -5    1    3    3    0  503 -0.35666162442E+02 -0.19985624977E+02 -0.51630337273E+02  0.66024859530E+02  0.47000000000E+01 0. -1.
          5    1    3    3  503    0 -0.66488689470E+02  0.36486392200E+02  0.59372554143E+02  0.96432322531E+02  0.47000000000E+01 0. -1.
         -5    1    4    4    0  502  0.57173527221E+02  0.50793271740E+01 -0.18021333696E+02  0.60344595844E+02  0.47000000000E+01 0.  1.
<mgrwt>
<rscale>  0 0.15014211E+03</rscale>
<asrwt>0</asrwt>
<pdfrwt beam="1">  1        1 0.17491176E-01 0.16227259E+03</pdfrwt>
<pdfrwt beam="2">  1       -1 0.30925811E-01 0.16227259E+03</pdfrwt>
<totfact> 0.28759457E+03</totfact>
</mgrwt>
</event>
<event>
 8    1  0.2018715E-005  0.1528373E+03  0.7546771E-02  0.1209777E+00
         -1   -1    0    0    0  501 -0.00000000000E+00  0.00000000000E+00  0.12735897734E+03  0.12735897734E+03  0.00000000000E+00 0.  1.
          1   -1    0    0  501    0  0.00000000000E+00 -0.00000000000E+00 -0.14206972149E+03  0.14206972149E+03  0.00000000000E+00 0. -1.
         25    2    1    2    0    0  0.87105504741E+02 -0.12146229614E+02 -0.42081876019E+01  0.15289520505E+03  0.12499734011E+03 0.  0.
         23    2    1    2    0    0 -0.87105504741E+02  0.12146229614E+02 -0.10502556551E+02  0.11653349378E+03  0.75728803168E+02 0.  0.
          5    1    4    4  502    0 -0.91379767181E+02 -0.10492357935E+02 -0.42258849334E+01  0.92197068980E+02  0.47000000000E+01 0. -1.
         -5    1    3    3    0  503  0.37202059483E+02 -0.10297019843E+02  0.59950119547E+02  0.71457180753E+02  0.47000000000E+01 0. -1.
          5    1    3    3  503    0  0.49903445258E+02 -0.18492097702E+01 -0.64158307149E+02  0.81438024298E+02  0.47000000000E+01 0. -1.
         -5    1    4    4    0  502  0.42742624402E+01  0.22638587548E+02 -0.62766716174E+01  0.24336424803E+02  0.47000000000E+01 0.  1.
<mgrwt>
<rscale>  0 0.14267304E+03</rscale>
<asrwt>0</asrwt>
<pdfrwt beam="1">  1        1 0.21856880E-01 0.15283728E+03</pdfrwt>
<pdfrwt beam="2">  1       -1 0.19593689E-01 0.15283728E+03</pdfrwt>
<totfact> 0.45738944E+03</totfact>
</mgrwt>
</event>
<event>
 7    1  0.2018715E-005  0.2765860E+03  0.7546771E-02  0.1097568E+00
         -1   -1    0    0    0  501 -0.00000000000E+00  0.00000000000E+00  0.23075779175E+02  0.23075779175E+02  0.00000000000E+00 0.  1.
          1   -1    0    0  501    0  0.00000000000E+00 -0.00000000000E+00 -0.82878883020E+03  0.82878883020E+03  0.00000000000E+00 0. -1.
         25    2    1    2    0    0 -0.96772713803E+01  0.16083905294E+02 -0.34885088504E+03  0.37104784846E+03  0.12500889673E+03 0.  0.
          5    1    1    2  502    0 -0.60979375704E+02  0.27031965245E+02 -0.21266211418E+03  0.22292706479E+03  0.47000000000E+01 0. -1.
         -5    1    3    3    0  503  0.19610896769E+02 -0.43123862898E+02 -0.23110176251E+03  0.23595416813E+03  0.47000000000E+01 0.  1.
          5    1    3    3  503    0 -0.29288168150E+02  0.59207768192E+02 -0.11774912253E+03  0.13509368033E+03  0.47000000000E+01 0.  1.
         -5    1    1    2    0  502  0.70656647085E+02 -0.43115870539E+02 -0.24420005180E+03  0.25788969613E+03  0.47000000000E+01 0.  1.
<mgrwt>
<rscale>  0 0.27658596E+03</rscale>
<asrwt>0</asrwt>
<pdfrwt beam="1">  1        1 0.12750596E+00 0.27658596E+03</pdfrwt>
<pdfrwt beam="2">  1       -1 0.35501202E-02 0.27658596E+03</pdfrwt>
<totfact> 0.63957682E+03</totfact>
</mgrwt>
</event>
<event>
 7    1  0.2018715E-005  0.1354630E+03  0.7546771E-02  0.1254041E+00
         -2   -1    0    0    0  501 -0.00000000000E+00  0.00000000000E+00  0.58332753202E+02  0.58332753202E+02  0.00000000000E+00 0. -1.
          2   -1    0    0  501    0  0.00000000000E+00 -0.00000000000E+00 -0.17645879909E+03  0.17645879909E+03  0.00000000000E+00 0.  1.
         25    2    1    2    0    0  0.51747588654E+02 -0.68874792441E+01 -0.86284945252E+02  0.16060923318E+03  0.12499993481E+03 0.  0.
          5    1    1    2  502    0 -0.33059217847E+02 -0.23299892385E+01  0.26871347205E+01  0.33580521549E+02  0.47000000000E+01 0. -1.
         -5    1    3    3    0  503  0.61334173348E+02 -0.39973113486E+02 -0.99323781041E+02  0.12347888120E+03  0.47000000000E+01 0.  1.
          5    1    3    3  503    0 -0.95865846936E+01  0.33085634242E+02  0.13038835788E+02  0.37130351978E+02  0.47000000000E+01 0.  1.
         -5    1    1    2    0  502 -0.18688370808E+02  0.92174684826E+01 -0.34528235355E+02  0.40601797564E+02  0.47000000000E+01 0.  1.
<mgrwt>
<rscale>  0 0.11360207E+03</rscale>
<asrwt>0</asrwt>
<pdfrwt beam="1">  1        2 0.27147507E-01 0.13546304E+03</pdfrwt>
<pdfrwt beam="2">  1       -2 0.89742698E-02 0.13546304E+03</pdfrwt>
<totfact> 0.14461180E+04</totfact>
</mgrwt>
</event>
<event>
 8    1  0.2018715E-005  0.1369119E+03  0.7546771E-02  0.1221145E+00
          2   -1    0    0  501    0  0.00000000000E+00  0.00000000000E+00  0.34242121118E+03  0.34242121118E+03  0.00000000000E+00 0. -1.
         -2   -1    0    0    0  501 -0.00000000000E+00 -0.00000000000E+00 -0.51443051560E+02  0.51443051560E+02  0.00000000000E+00 0.  1.
         25    2    1    2    0    0  0.98701692715E+01 -0.54983111703E+02  0.12936216001E+03  0.18835989144E+03  0.12499726976E+03 0.  0.
         23    2    1    2    0    0 -0.98701692715E+01  0.54983111703E+02  0.16161599961E+03  0.20550437129E+03  0.11398136899E+03 0.  0.
          5    1    4    4  502    0  0.32780286432E+02  0.70347434495E+02  0.12423206261E+03  0.14655717007E+03  0.47000000000E+01 0. -1.
         -5    1    4    4    0  502 -0.42650455703E+02 -0.15364322792E+02  0.37383936998E+02  0.58947201223E+02  0.47000000000E+01 0.  1.
          5    1    3    3  503    0 -0.32013898135E+02  0.27002697730E+02  0.58434606492E+02  0.72046711197E+02  0.47000000000E+01 0.  1.
         -5    1    3    3    0  503  0.41884067406E+02 -0.81985809434E+02  0.70927553516E+02  0.11631318025E+03  0.47000000000E+01 0.  1.
<mgrwt>
<rscale>  0 0.13434631E+03</rscale>
<asrwt>0</asrwt>
<pdfrwt beam="1">  1        2 0.52680185E-01 0.13691194E+03</pdfrwt>
<pdfrwt beam="2">  1       -2 0.79143159E-02 0.13691194E+03</pdfrwt>
<totfact> 0.86534153E+03</totfact>
</mgrwt>
</event>
<event>
 7    1  0.2018715E-005  0.1713444E+03  0.7546771E-02  0.1191250E+00
         -2   -1    0    0    0  501 -0.00000000000E+00  0.00000000000E+00  0.53647098468E+02  0.53647098468E+02  0.00000000000E+00 0. -1.
          2   -1    0    0  501    0  0.00000000000E+00 -0.00000000000E+00 -0.41023485387E+03  0.41023485387E+03  0.00000000000E+00 0.  1.
         25    2    1    2    0    0  0.10440806144E+03  0.53212359550E+02 -0.23501762051E+03  0.29084738601E+03  0.12500528587E+03 0.  0.
          5    1    3    3  502    0 -0.14032974638E+02 -0.22184838147E+02 -0.65272309905E+02  0.70509969942E+02  0.47000000000E+01 0. -1.
         -5    1    1    2    0  503 -0.27448796118E+02 -0.31588400574E+02 -0.32015105219E+02  0.52899153314E+02  0.47000000000E+01 0.  1.
          5    1    1    2  503    0 -0.76959265321E+02 -0.21623958976E+02 -0.89555029674E+02  0.12013541302E+03  0.47000000000E+01 0. -1.
         -5    1    3    3    0  502  0.11844103608E+03  0.75397197697E+02 -0.16974531061E+03  0.22033741607E+03  0.47000000000E+01 0. -1.
<mgrwt>
<rscale>  0 0.15775963E+03</rscale>
<asrwt>0</asrwt>
<pdfrwt beam="1">  1        2 0.63113054E-01 0.17134445E+03</pdfrwt>
<pdfrwt beam="2">  1       -2 0.82533998E-02 0.17134445E+03</pdfrwt>
<totfact> 0.67781147E+03</totfact>
</mgrwt>
</event>
<event>
 8    1  0.2018715E-005  0.1823487E+03  0.7546771E-02  0.1173054E+00
         -1   -1    0    0    0  501 -0.00000000000E+00  0.00000000000E+00  0.26854382580E+02  0.26854382580E+02  0.00000000000E+00 0. -1.
          1   -1    0    0  501    0  0.00000000000E+00 -0.00000000000E+00 -0.11494555295E+04  0.11494555295E+04  0.00000000000E+00 0.  1.
         25    2    1    2    0    0 -0.13186621299E+03 -0.15428393832E+02 -0.43318881512E+03  0.47000381776E+03  0.12499722275E+03 0.  0.
         23    2    1    2    0    0  0.13186621299E+03  0.15428393832E+02 -0.68941233179E+03  0.70630609431E+03  0.77150516354E+02 0.  0.
          5    1    4    4  502    0  0.72197137596E+02  0.41778267051E+02 -0.29893246053E+03  0.31038775142E+03  0.47000000000E+01 0. -1.
         -5    1    3    3    0  503 -0.29136208293E+02  0.48170361764E+02 -0.91312717250E+02  0.10737506562E+03  0.47000000000E+01 0.  1.
          5    1    3    3  503    0 -0.10273000470E+03 -0.63598755596E+02 -0.34187609787E+03  0.36262875214E+03  0.47000000000E+01 0.  1.
         -5    1    4    4    0  502  0.59669075399E+02 -0.26349873218E+02 -0.39047987126E+03  0.39591834289E+03  0.47000000000E+01 0.  1.
<mgrwt>
<rscale>  0 0.17467972E+03</rscale>
<asrwt>0</asrwt>
<pdfrwt beam="1">  1        1 0.17683929E+00 0.18234867E+03</pdfrwt>
<pdfrwt beam="2">  1       -1 0.41314440E-02 0.18234867E+03</pdfrwt>
<totfact> 0.28951602E+03</totfact>
</mgrwt>
</event>
<event>
 8    1  0.2018715E-005  0.2640645E+03  0.7546771E-02  0.1105461E+00
          1   -1    0    0  501    0  0.00000000000E+00  0.00000000000E+00  0.21295154224E+03  0.21295154224E+03  0.00000000000E+00 0. -1.
         -1   -1    0    0    0  501 -0.00000000000E+00 -0.00000000000E+00 -0.32165717728E+03  0.32165717728E+03  0.00000000000E+00 0.  1.
         25    2    1    2    0    0  0.22908196094E+03  0.40337051757E+02 -0.46465168643E+02  0.26812133219E+03  0.12499765719E+03 0.  0.
         23    2    1    2    0    0 -0.22908196094E+03 -0.40337051757E+02 -0.62240466402E+02  0.26648738733E+03  0.11417543245E+03 0.  0.
          5    1    3    3  502    0  0.70114644737E+02  0.19533909388E+02  0.42795819289E+02  0.84564822303E+02  0.47000000000E+01 0. -1.
         -5    1    4    4    0  503 -0.95001478005E+02 -0.73663704297E+02 -0.37784574763E+02  0.12610069882E+03  0.47000000000E+01 0.  1.
          5    1    4    4  503    0 -0.13408048294E+03  0.33326652540E+02 -0.24455891640E+02  0.14038668851E+03  0.47000000000E+01 0. -1.
         -5    1    3    3    0  502  0.15896731621E+03  0.20803142369E+02 -0.89260987932E+02  0.18355650989E+03  0.47000000000E+01 0. -1.
<mgrwt>
<rscale>  0 0.26281882E+03</rscale>
<asrwt>0</asrwt>
<pdfrwt beam="1">  1        1 0.32761776E-01 0.26406446E+03</pdfrwt>
<pdfrwt beam="2">  1       -1 0.49485720E-01 0.26406446E+03</pdfrwt>
<totfact> 0.56907586E+02</totfact>
</mgrwt>
</event>
<event>
 8    1  0.2018715E-005  0.1349836E+03  0.7546771E-02  0.1221103E+00
          2   -1    0    0  501    0  0.00000000000E+00  0.00000000000E+00  0.93292126153E+03  0.93292126153E+03  0.00000000000E+00 0. -1.
         -2   -1    0    0    0  501 -0.00000000000E+00 -0.00000000000E+00 -0.19491029264E+02  0.19491029264E+02  0.00000000000E+00 0.  1.
         25    2    1    2    0    0  0.47759032413E+02 -0.17590810496E+02  0.52060935647E+03  0.53782401372E+03  0.12502082186E+03 0.  0.
         23    2    1    2    0    0 -0.47759032413E+02  0.17590810496E+02  0.39282087580E+03  0.41458827708E+03  0.12241256976E+03 0.  0.
          5    1    3    3  502    0 -0.38560778917E+02 -0.57395193957E+01  0.85983296034E+02  0.94525620604E+02  0.47000000000E+01 0.  1.
         -5    1    4    4    0  503  0.22546652487E+02 -0.17481104754E+02  0.24340166849E+02  0.37795162177E+02  0.47000000000E+01 0.  1.
          5    1    4    4  503    0 -0.70305684900E+02  0.35071915250E+02  0.36848070895E+03  0.37679311491E+03  0.47000000000E+01 0. -1.
         -5    1    3    3    0  502  0.86319811330E+02 -0.11851291101E+02  0.43462606043E+03  0.44329839311E+03  0.47000000000E+01 0.  1.
<mgrwt>
<rscale>  0 0.13437648E+03</rscale>
<asrwt>0</asrwt>
<pdfrwt beam="1">  1        2 0.14352631E+00 0.13498358E+03</pdfrwt>
<pdfrwt beam="2">  1       -2 0.29986206E-02 0.13498358E+03</pdfrwt>
<totfact> 0.11770958E+04</totfact>
</mgrwt>
</event>
<event>
 8    1  0.2018715E-005  0.1281179E+03  0.7546771E-02  0.1234462E+00
         -1   -1    0    0    0  501 -0.00000000000E+00  0.00000000000E+00  0.18433447712E+03  0.18433447712E+03  0.00000000000E+00 0.  1.
          1   -1    0    0  501    0  0.00000000000E+00 -0.00000000000E+00 -0.81935306716E+02  0.81935306716E+02  0.00000000000E+00 0. -1.
         25    2    1    2    0    0 -0.11997433597E+02  0.25420766559E+02  0.57677846299E+02  0.14050243592E+03  0.12499618698E+03 0.  0.
         23    2    1    2    0    0  0.11997433597E+02 -0.25420766559E+02  0.44721324104E+02  0.12576734792E+03  0.11413708944E+03 0.  0.
          5    1    4    4  502    0  0.25039043574E+02  0.41100980858E+02  0.27656358229E+02  0.55706449188E+02  0.47000000000E+01 0. -1.
         -5    1    3    3    0  503  0.21147482546E+02  0.64680986202E+02  0.76574424602E+01  0.68640894656E+02  0.47000000000E+01 0. -1.
          5    1    3    3  503    0 -0.33144916143E+02 -0.39260219643E+02  0.50020403838E+02  0.71861541263E+02  0.47000000000E+01 0. -1.
         -5    1    4    4    0  502 -0.13041609977E+02 -0.66521747418E+02  0.17064965875E+02  0.70060898728E+02  0.47000000000E+01 0.  1.
<mgrwt>
<rscale>  0 0.12538939E+03</rscale>
<asrwt>0</asrwt>
<pdfrwt beam="1">  1        1 0.12605432E-01 0.12811792E+03</pdfrwt>
<pdfrwt beam="2">  1       -1 0.28359150E-01 0.12811792E+03</pdfrwt>
<totfact> 0.50214460E+03</totfact>
</mgrwt>
</event>
<event>
 8    1  0.2018715E-005  0.2625741E+03  0.7546771E-02  0.1106541E+00
          2   -1    0    0  501    0  0.00000000000E+00  0.00000000000E+00  0.91923453269E+03  0.91923453269E+03  0.00000000000E+00 0.  1.
         -2   -1    0    0    0  501 -0.00000000000E+00 -0.00000000000E+00 -0.76052853268E+02  0.76052853268E+02  0.00000000000E+00 0. -1.
         25    2    1    2    0    0  0.23045118778E+03  0.14593940654E+02  0.33070829808E+03  0.42227143040E+03  0.12499779782E+03 0.  0.
         23    2    1    2    0    0 -0.23045118778E+03 -0.14593940654E+02  0.51247338134E+03  0.57301595556E+03  0.11134444615E+03 0.  0.
          5    1    3    3  502    0  0.55906715954E+02  0.52383036024E+02  0.57785180052E+02  0.96076846251E+02  0.47000000000E+01 0. -1.
         -5    1    3    3    0  502  0.17454447182E+03 -0.37789095370E+02  0.27292311803E+03  0.32619458415E+03  0.47000000000E+01 0. -1.
          5    1    4    4  503    0 -0.47026320698E+02 -0.41006535314E+02  0.73629980350E+02  0.96625435488E+02  0.47000000000E+01 0. -1.
         -5    1    4    4    0  503 -0.18342486708E+03  0.26412594660E+02  0.43884340099E+03  0.47639052007E+03  0.47000000000E+01 0.  1.
<mgrwt>
<rscale>  0 0.26100557E+03</rscale>
<asrwt>0</asrwt>
<pdfrwt beam="1">  1        2 0.14142069E+00 0.26257415E+03</pdfrwt>
<pdfrwt beam="2">  1       -2 0.11700440E-01 0.26257415E+03</pdfrwt>
<totfact> 0.15207446E+03</totfact>
</mgrwt>
</event>
<event>
 8    1  0.2018715E-005  0.1601342E+03  0.7546771E-02  0.1199817E+00
          1   -1    0    0  501    0  0.00000000000E+00  0.00000000000E+00  0.74407747631E+03  0.74407747631E+03  0.00000000000E+00 0. -1.
         -1   -1    0    0    0  501 -0.00000000000E+00 -0.00000000000E+00 -0.27345611128E+02  0.27345611128E+02  0.00000000000E+00 0.  1.
         25    2    1    2    0    0  0.97596967278E+02  0.22247768976E+02  0.41246360054E+03  0.44245812263E+03  0.12499134875E+03 0.  0.
         23    2    1    2    0    0 -0.97596967278E+02 -0.22247768976E+02  0.30426826464E+03  0.32896496481E+03  0.74957587731E+02 0.  0.
          5    1    3    3  502    0 -0.26999326609E+02 -0.11494995118E+02  0.10073311333E+03  0.10502546678E+03  0.47000000000E+01 0.  1.
         -5    1    3    3    0  502  0.12459629389E+03  0.33742764093E+02  0.31173048721E+03  0.33743265585E+03  0.47000000000E+01 0.  1.
          5    1    4    4  503    0 -0.75216568316E+02  0.24970145821E+01  0.27219519382E+03  0.28244659808E+03  0.47000000000E+01 0. -1.
         -5    1    4    4    0  503 -0.22380398962E+02 -0.24744783558E+02  0.32073070827E+02  0.46518366731E+02  0.47000000000E+01 0.  1.
<mgrwt>
<rscale>  0 0.15053533E+03</rscale>
<asrwt>0</asrwt>
<pdfrwt beam="1">  1        1 0.11447344E+00 0.16013422E+03</pdfrwt>
<pdfrwt beam="2">  1       -1 0.42070176E-02 0.16013422E+03</pdfrwt>
<totfact> 0.57293724E+03</totfact>
</mgrwt>
</event>
<event>
 8    1  0.2018715E-005  0.1254532E+03  0.7546771E-02  0.1241103E+00
          2   -1    0    0  501    0  0.00000000000E+00  0.00000000000E+00  0.51534972159E+03  0.51534972159E+03  0.00000000000E+00 0. -1.
         -2   -1    0    0    0  501 -0.00000000000E+00 -0.00000000000E+00 -0.27305544627E+02  0.27305544627E+02  0.00000000000E+00 0.  1.
         25    2    1    2    0    0  0.77411406198E+01  0.69835652286E+01  0.29921408812E+03  0.32444966571E+03  0.12501927693E+03 0.  0.
         23    2    1    2    0    0 -0.77411406198E+01 -0.69835652286E+01  0.18883008884E+03  0.21820560051E+03  0.10884937392E+03 0.  0.
          5    1    4    4  502    0 -0.43645924201E+02 -0.39627100828E+02  0.12092856785E+03  0.13461456957E+03  0.47000000000E+01 0. -1.
         -5    1    3    3    0  503  0.28698743679E+02 -0.99685260891E+01  0.29519795984E+03  0.29679439835E+03  0.47000000000E+01 0. -1.
          5    1    3    3  503    0 -0.20957603060E+02  0.16952091318E+02  0.40161282864E+01  0.27655267355E+02  0.47000000000E+01 0. -1.
         -5    1    4    4    0  502  0.35904783582E+02  0.32643535599E+02  0.67901520991E+02  0.83591030939E+02  0.47000000000E+01 0.  1.
<mgrwt>
<rscale>  0 0.12121703E+03</rscale>
<asrwt>0</asrwt>
<pdfrwt beam="1">  1        2 0.79284565E-01 0.12545324E+03</pdfrwt>
<pdfrwt beam="2">  1       -2 0.42008534E-02 0.12545324E+03</pdfrwt>
<totfact> 0.14438574E+04</totfact>
</mgrwt>
</event>
<event>
 8    1  0.2018715E-005  0.2013531E+03  0.7546771E-02  0.1155375E+00
          1   -1    0    0  501    0  0.00000000000E+00  0.00000000000E+00  0.55586462526E+03  0.55586462526E+03  0.00000000000E+00 0. -1.
         -1   -1    0    0    0  501 -0.00000000000E+00 -0.00000000000E+00 -0.65700552516E+02  0.65700552516E+02  0.00000000000E+00 0.  1.
         25    2    1    2    0    0 -0.14287683005E+03 -0.67116761877E+02  0.19592030632E+03  0.28094100680E+03  0.12499853833E+03 0.  0.
         23    2    1    2    0    0  0.14287683005E+03  0.67116761877E+02  0.29424376642E+03  0.34062417097E+03  0.67282861725E+02 0.  0.
          5    1    4    4  502    0  0.81122245718E+02  0.48885515968E+02  0.23332396701E+03  0.25185864290E+03  0.47000000000E+01 0. -1.
         -5    1    4    4    0  502  0.61754584332E+02  0.18231245908E+02  0.60919799409E+02  0.88765528069E+02  0.47000000000E+01 0.  1.
          5    1    3    3  503    0 -0.12234929988E+03 -0.74451382776E+02  0.82501839350E+02  0.16535115081E+03  0.47000000000E+01 0. -1.
         -5    1    3    3    0  503 -0.20527530170E+02  0.73346208995E+01  0.11341846697E+03  0.11558985599E+03  0.47000000000E+01 0. -1.
<mgrwt>
<rscale>  0 0.19346216E+03</rscale>
<asrwt>0</asrwt>
<pdfrwt beam="1">  1        1 0.85517631E-01 0.20135313E+03</pdfrwt>
<pdfrwt beam="2">  1       -1 0.10107778E-01 0.20135313E+03</pdfrwt>
<totfact> 0.23236982E+03</totfact>
</mgrwt>
</event>
<event>
 8    1  0.2018715E-005  0.2688090E+03  0.7546771E-02  0.1104670E+00
         -2   -1    0    0    0  501 -0.00000000000E+00  0.00000000000E+00  0.10901390118E+03  0.10901390118E+03  0.00000000000E+00 0.  1.
          2   -1    0    0  501    0  0.00000000000E+00 -0.00000000000E+00 -0.67792113795E+03  0.67792113795E+03  0.00000000000E+00 0. -1.
         25    2    1    2    0    0  0.14095072154E+03 -0.19174426257E+03 -0.40955676827E+03  0.48989289331E+03  0.12500132939E+03 0.  0.
         23    2    1    2    0    0 -0.14095072154E+03  0.19174426257E+03 -0.15935046850E+03  0.29704214582E+03  0.78794012773E+02 0.  0.
          5    1    4    4  502    0 -0.12560725168E+03  0.11293873279E+03 -0.12169415766E+03  0.20823999867E+03  0.47000000000E+01 0. -1.
         -5    1    3    3    0  503  0.15898221790E+03 -0.16107272646E+03 -0.30841313166E+03  0.38257093276E+03  0.47000000000E+01 0.  1.
          5    1    3    3  503    0 -0.18031496359E+02 -0.30671536110E+02 -0.10114363661E+03  0.10732196055E+03  0.47000000000E+01 0.  1.
         -5    1    4    4    0  502 -0.15343469862E+02  0.78805529782E+02 -0.37656310842E+02  0.88802147146E+02  0.47000000000E+01 0.  1.
<mgrwt>
<rscale>  0 0.26415795E+03</rscale>
<asrwt>0</asrwt>
<pdfrwt beam="1">  1        2 0.10429556E+00 0.26880904E+03</pdfrwt>
<pdfrwt beam="2">  1       -2 0.16771370E-01 0.26880904E+03</pdfrwt>
<totfact> 0.12391546E+03</totfact>
</mgrwt>
</event>
<event>
 8    1  0.2018715E-005  0.1255153E+03  0.7546771E-02  0.1258684E+00
          1   -1    0    0  501    0  0.00000000000E+00  0.00000000000E+00  0.10264081907E+03  0.10264081907E+03  0.00000000000E+00 0. -1.
         -1   -1    0    0    0  501 -0.00000000000E+00 -0.00000000000E+00 -0.10187430317E+03  0.10187430317E+03  0.00000000000E+00 0.  1.
         25    2    1    2    0    0  0.18315467502E+01 -0.11220989452E+02 -0.13917482722E+02  0.12628453308E+03  0.12499928721E+03 0.  0.
         23    2    1    2    0    0 -0.18315467502E+01  0.11220989452E+02  0.14683998619E+02  0.78230589159E+02  0.75994342532E+02 0.  0.
          5    1    4    4  502    0 -0.77982112822E+01 -0.26489128094E+02  0.25912348780E+02  0.38157906464E+02  0.47000000000E+01 0. -1.
         -5    1    3    3    0  503  0.33797723005E+02  0.45803765367E+02  0.68611723463E+01  0.57527703657E+02  0.47000000000E+01 0.  1.
          5    1    3    3  503    0 -0.31966176254E+02 -0.57024754819E+02 -0.20778655068E+02  0.68756829428E+02  0.47000000000E+01 0.  1.
         -5    1    4    4    0  502  0.59666645320E+01  0.37710117546E+02 -0.11228350161E+02  0.40072682695E+02  0.47000000000E+01 0.  1.
<mgrwt>
<rscale>  0 0.11102467E+03</rscale>
<asrwt>0</asrwt>
<pdfrwt beam="1">  1        1 0.15790895E-01 0.12551529E+03</pdfrwt>
<pdfrwt beam="2">  1       -1 0.15672970E-01 0.12551529E+03</pdfrwt>
<totfact> 0.97422695E+03</totfact>
</mgrwt>
</event>
<event>
 8    1  0.2018715E-005  0.4737853E+03  0.7546771E-02  0.1021120E+00
         -3   -1    0    0    0  501 -0.00000000000E+00  0.00000000000E+00  0.22858304622E+03  0.22858304622E+03  0.00000000000E+00 0.  1.
          3   -1    0    0  501    0  0.00000000000E+00 -0.00000000000E+00 -0.10142342244E+04  0.10142342244E+04  0.00000000000E+00 0. -1.
         25    2    1    2    0    0 -0.43506378886E+03 -0.13986419590E+03 -0.27098941130E+03  0.54580927480E+03  0.12502003741E+03 0.  0.
         23    2    1    2    0    0  0.43506378886E+03  0.13986419590E+03 -0.51466176686E+03  0.69700799581E+03  0.11000417390E+03 0.  0.
          5    1    4    4  502    0  0.13500986177E+03  0.32555822141E+02 -0.23496359436E+03  0.27297898272E+03  0.47000000000E+01 0. -1.
         -5    1    3    3    0  503 -0.40566666983E+03 -0.16161244012E+03 -0.25422742326E+03  0.50530950966E+03  0.47000000000E+01 0. -1.
          5    1    3    3  503    0 -0.29397119027E+02  0.21748244219E+02 -0.16761988035E+02  0.40499765142E+02  0.47000000000E+01 0. -1.
         -5    1    4    4    0  502  0.30005392709E+03  0.10730837375E+03 -0.27969817250E+03  0.42402901309E+03  0.47000000000E+01 0.  1.
<mgrwt>
<rscale>  0 0.47284774E+03</rscale>
<asrwt>0</asrwt>
<pdfrwt beam="1">  1        3 0.15603603E+00 0.47378529E+03</pdfrwt>
<pdfrwt beam="2">  1       -3 0.35166623E-01 0.47378529E+03</pdfrwt>
<totfact> 0.61321905E+00</totfact>
</mgrwt>
</event>
<event>
 8    1  0.2018715E-005  0.1275821E+03  0.7546771E-02  0.1257509E+00
          1   -1    0    0  501    0  0.00000000000E+00  0.00000000000E+00  0.23629007142E+03  0.23629007142E+03  0.00000000000E+00 0. -1.
         -1   -1    0    0    0  501 -0.00000000000E+00 -0.00000000000E+00 -0.58877570213E+02  0.58877570213E+02  0.00000000000E+00 0.  1.
         25    2    1    2    0    0 -0.16216628240E+02  0.19721568206E+02  0.31886210478E+02  0.13150633725E+03  0.12500106814E+03 0.  0.
         23    2    1    2    0    0  0.16216628240E+02 -0.19721568206E+02  0.14552629073E+03  0.16366130438E+03  0.70393195505E+02 0.  0.
          5    1    3    3  502    0 -0.50075468722E+02  0.15456124645E+02 -0.30080231184E+02  0.60608206250E+02  0.47000000000E+01 0. -1.
         -5    1    3    3    0  502  0.33858840483E+02  0.42654435608E+01  0.61966441662E+02  0.70898131004E+02  0.47000000000E+01 0. -1.
          5    1    4    4  503    0  0.25109084547E+02  0.12732929135E+02  0.23436424911E+02  0.36931688612E+02  0.47000000000E+01 0.  1.
         -5    1    4    4    0  503 -0.88924563068E+01 -0.32454497341E+02  0.12208986582E+03  0.12672961576E+03  0.47000000000E+01 0. -1.
<mgrwt>
<rscale>  0 0.11166954E+03</rscale>
<asrwt>0</asrwt>
<pdfrwt beam="1">  1        1 0.36352318E-01 0.12758208E+03</pdfrwt>
<pdfrwt beam="2">  1       -1 0.90580879E-02 0.12758208E+03</pdfrwt>
<totfact> 0.79581074E+03</totfact>
</mgrwt>
</event>
<event>
 7    1  0.2018715E-005  0.1512816E+03  0.7546771E-02  0.1200859E+00
          4   -1    0    0  501    0  0.00000000000E+00  0.00000000000E+00  0.12360272880E+03  0.12360272880E+03  0.00000000000E+00 0.  1.
         -4   -1    0    0    0  501 -0.00000000000E+00 -0.00000000000E+00 -0.17955942257E+03  0.17955942257E+03  0.00000000000E+00 0. -1.
         25    2    1    2    0    0 -0.73482581620E+02  0.20380415988E+01 -0.43416141380E+02  0.15136169502E+03  0.12498623113E+03 0.  0.
          5    1    1    2  502    0  0.13722810636E+02  0.60305146572E+02  0.89914684772E+01  0.62673461211E+02  0.47000000000E+01 0. -1.
         -5    1    1    2    0  502  0.59759770984E+02 -0.62343188170E+02 -0.21532020867E+02  0.89126995136E+02  0.47000000000E+01 0.  1.
          5    1    3    3  503    0  0.70843725683E+01  0.28861917669E+02 -0.57749310161E+02  0.65117366734E+02  0.47000000000E+01 0. -1.
         -5    1    3    3    0  503 -0.80566954189E+02 -0.26823876070E+02  0.14333168782E+02  0.86244328289E+02  0.47000000000E+01 0. -1.
<mgrwt>
<rscale>  0 0.14968647E+03</rscale>
<asrwt>0</asrwt>
<pdfrwt beam="1">  1        4 0.19015805E-01 0.15128157E+03</pdfrwt>
<pdfrwt beam="2">  1       -4 0.27624526E-01 0.15128157E+03</pdfrwt>
<totfact> 0.52014549E+02</totfact>
</mgrwt>
</event>
<event>
 8    1  0.2018715E-005  0.1262877E+03  0.7546771E-02  0.1256223E+00
         -1   -1    0    0    0  501 -0.00000000000E+00  0.00000000000E+00  0.78229742852E+02  0.78229742852E+02  0.00000000000E+00 0.  1.
          1   -1    0    0  501    0  0.00000000000E+00 -0.00000000000E+00 -0.15843321899E+03  0.15843321899E+03  0.00000000000E+00 0. -1.
         25    2    1    2    0    0  0.15980905834E+02  0.83583244697E+01 -0.33841337202E+01  0.12633307743E+03  0.12499337243E+03 0.  0.
         23    2    1    2    0    0 -0.15980905834E+02 -0.83583244697E+01 -0.76819342416E+02  0.11032988442E+03  0.77111744155E+02 0.  0.
          5    1    4    4  502    0  0.29544884419E+02  0.59336416810E+00 -0.44368487430E+02  0.53515464617E+02  0.47000000000E+01 0. -1.
         -5    1    3    3    0  503  0.70245054209E+02 -0.37017345501E+01 -0.15464254017E+01  0.70516323720E+02  0.47000000000E+01 0.  1.
          5    1    3    3  503    0 -0.54264148374E+02  0.12060059020E+02 -0.18377083186E+01  0.55816753706E+02  0.47000000000E+01 0.  1.
         -5    1    4    4    0  502 -0.45525790253E+02 -0.89516886378E+01 -0.32450854986E+02  0.56814419798E+02  0.47000000000E+01 0.  1.
<mgrwt>
<rscale>  0 0.11238079E+03</rscale>
<asrwt>0</asrwt>
<pdfrwt beam="1">  1        1 0.24374341E-01 0.12628774E+03</pdfrwt>
<pdfrwt beam="2">  1       -1 0.12035345E-01 0.12628774E+03</pdfrwt>
<totfact> 0.84660973E+03</totfact>
</mgrwt>
</event>
<event>
 8    1  0.2018715E-005  0.1419594E+03  0.7546771E-02  0.1213276E+00
         -1   -1    0    0    0  501 -0.00000000000E+00  0.00000000000E+00  0.27635999984E+03  0.27635999984E+03  0.00000000000E+00 0.  1.
          1   -1    0    0  501    0  0.00000000000E+00 -0.00000000000E+00 -0.69132481420E+02  0.69132481420E+02  0.00000000000E+00 0. -1.
         25    2    1    2    0    0  0.61025164887E+02  0.28269475316E+02  0.10310100229E+03  0.17544881798E+03  0.12501694714E+03 0.  0.
         23    2    1    2    0    0 -0.61025164887E+02 -0.28269475316E+02  0.10412651613E+03  0.17004366329E+03  0.11640138349E+03 0.  0.
          5    1    4    4  502    0 -0.42708526672E+02 -0.87517711715E+01 -0.16155322946E+02  0.46730035402E+02  0.47000000000E+01 0. -1.
         -5    1    4    4    0  502 -0.18316638214E+02 -0.19517704144E+02  0.12028183908E+03  0.12331362789E+03  0.47000000000E+01 0.  1.
          5    1    3    3  503    0  0.96788043261E+02  0.15207251334E+01  0.74031079512E+02  0.12195461720E+03  0.47000000000E+01 0.  1.
         -5    1    3    3    0  503 -0.35762878375E+02  0.26748750182E+02  0.29069922778E+02  0.53494200773E+02  0.47000000000E+01 0.  1.
<mgrwt>
<rscale>  0 0.14003946E+03</rscale>
<asrwt>0</asrwt>
<pdfrwt beam="1">  1        1 0.10635766E-01 0.14195940E+03</pdfrwt>
<pdfrwt beam="2">  1       -1 0.42516923E-01 0.14195940E+03</pdfrwt>
<totfact> 0.31532261E+03</totfact>
</mgrwt>
</event>
<event>
 8    1  0.2018715E-005  0.1266263E+03  0.7546771E-02  0.1233241E+00
         -1   -1    0    0    0  501 -0.00000000000E+00  0.00000000000E+00  0.48411259324E+02  0.48411259324E+02  0.00000000000E+00 0.  1.
          1   -1    0    0  501    0  0.00000000000E+00 -0.00000000000E+00 -0.33408060027E+03  0.33408060027E+03  0.00000000000E+00 0. -1.
         25    2    1    2    0    0  0.16521780829E+02 -0.11677229036E+02 -0.17253142391E+03  0.21401239719E+03  0.12499954798E+03 0.  0.
         23    2    1    2    0    0 -0.16521780829E+02  0.11677229036E+02 -0.11313791704E+03  0.16847946240E+03  0.12319015407E+03 0.  0.
          5    1    4    4  502    0 -0.35849408185E+02  0.22595164142E+02 -0.13216214680E+03  0.13886916345E+03  0.47000000000E+01 0. -1.
         -5    1    3    3    0  503 -0.20493268059E+02  0.18603116011E+02  0.63551277555E+01  0.28784155535E+02  0.47000000000E+01 0. -1.
          5    1    3    3  503    0  0.37015048888E+02 -0.30280345047E+02 -0.17888655167E+03  0.18522824166E+03  0.47000000000E+01 0. -1.
         -5    1    4    4    0  502  0.19327627357E+02 -0.10917935106E+02  0.19024229763E+02  0.29610298956E+02  0.47000000000E+01 0.  1.
<mgrwt>
<rscale>  0 0.12617744E+03</rscale>
<asrwt>0</asrwt>
<pdfrwt beam="1">  1        1 0.51397015E-01 0.12662628E+03</pdfrwt>
<pdfrwt beam="2">  1       -1 0.74478861E-02 0.12662628E+03</pdfrwt>
<totfact> 0.69664139E+03</totfact>
</mgrwt>
</event>
<event>
 8    1  0.2018715E-005  0.1500633E+03  0.7546771E-02  0.1203413E+00
          1   -1    0    0  501    0  0.00000000000E+00  0.00000000000E+00  0.14294798953E+03  0.14294798953E+03  0.00000000000E+00 0. -1.
         -1   -1    0    0    0  501 -0.00000000000E+00 -0.00000000000E+00 -0.15049576771E+03  0.15049576771E+03  0.00000000000E+00 0.  1.
         25    2    1    2    0    0  0.72176082165E+02  0.41034400092E+02 -0.23779389394E+02  0.15193570851E+03  0.12500316529E+03 0.  0.
         23    2    1    2    0    0 -0.72176082165E+02 -0.41034400092E+02  0.16231611220E+02  0.14150804873E+03  0.11343656300E+03 0.  0.
          5    1    3    3  502    0  0.65531900608E+02 -0.16062164046E+02  0.29155788084E+02  0.73651701202E+02  0.47000000000E+01 0.  1.
         -5    1    4    4    0  503 -0.46435152229E+02  0.43749718100E+01 -0.42159393078E+02  0.63046555541E+02  0.47000000000E+01 0.  1.
          5    1    4    4  503    0 -0.25740929936E+02 -0.45409371902E+02  0.58391004298E+02  0.78461493189E+02  0.47000000000E+01 0. -1.
         -5    1    3    3    0  502  0.66441815574E+01  0.57096564138E+02 -0.52935177478E+02  0.78284007304E+02  0.47000000000E+01 0.  1.
<mgrwt>
<rscale>  0 0.14763258E+03</rscale>
<asrwt>0</asrwt>
<pdfrwt beam="1">  1        1 0.21991999E-01 0.15006332E+03</pdfrwt>
<pdfrwt beam="2">  1       -1 0.23153195E-01 0.15006332E+03</pdfrwt>
<totfact> 0.34595394E+03</totfact>
</mgrwt>
</event>
<event>
 7    1  0.2018715E-005  0.1698178E+03  0.7546771E-02  0.1184839E+00
         -1   -1    0    0    0  501 -0.00000000000E+00  0.00000000000E+00  0.47059937680E+02  0.47059937680E+02  0.00000000000E+00 0.  1.
          1   -1    0    0  501    0  0.00000000000E+00 -0.00000000000E+00 -0.57599054473E+03  0.57599054473E+03  0.00000000000E+00 0. -1.
         25    2    1    2    0    0  0.59004177803E+01  0.74811966175E+02 -0.15740180256E+03  0.21455110478E+03  0.12500081561E+03 0.  0.
          5    1    1    2  502    0  0.57526439021E+02 -0.10544311135E+02 -0.25133933855E+03  0.25809693293E+03  0.47000000000E+01 0. -1.
         -5    1    1    2    0  502 -0.63426856801E+02 -0.64267655040E+02 -0.12018946594E+03  0.15040244470E+03  0.47000000000E+01 0.  1.
          5    1    3    3  503    0  0.51579083855E+02  0.35659355969E+02 -0.22531989450E+02  0.66796497723E+02  0.47000000000E+01 0. -1.
         -5    1    3    3    0  503 -0.45678666074E+02  0.39152610205E+02 -0.13486981311E+03  0.14775460706E+03  0.47000000000E+01 0. -1.
<mgrwt>
<rscale>  0 0.16346500E+03</rscale>
<asrwt>0</asrwt>
<pdfrwt beam="1">  1        1 0.88613936E-01 0.16981781E+03</pdfrwt>
<pdfrwt beam="2">  1       -1 0.72399900E-02 0.16981781E+03</pdfrwt>
<totfact> 0.36646348E+03</totfact>
</mgrwt>
</event>
<event>
 8    1  0.2018715E-005  0.3090477E+03  0.7546771E-02  0.1082786E+00
         -1   -1    0    0    0  501 -0.00000000000E+00  0.00000000000E+00  0.14865511170E+04  0.14865511170E+04  0.00000000000E+00 0.  1.
          1   -1    0    0  501    0  0.00000000000E+00 -0.00000000000E+00 -0.63942643283E+02  0.63942643283E+02  0.00000000000E+00 0. -1.
         25    2    1    2    0    0 -0.18481478592E+03 -0.21384736617E+03  0.89665408822E+03  0.94841921388E+03  0.12499300073E+03 0.  0.
         23    2    1    2    0    0  0.18481478592E+03  0.21384736617E+03  0.52595438547E+03  0.60207454638E+03  0.77321036497E+02 0.  0.
          5    1    4    4  502    0  0.14791112972E+03  0.20683778934E+03  0.44127614953E+03  0.50931945137E+03  0.47000000000E+01 0. -1.
         -5    1    4    4    0  502  0.36903656196E+02  0.70095768249E+01  0.84678235942E+02  0.92755095009E+02  0.47000000000E+01 0.  1.
          5    1    3    3  503    0 -0.27897809517E+02 -0.90030399859E+02  0.16649577392E+03  0.19138101632E+03  0.47000000000E+01 0. -1.
         -5    1    3    3    0  503 -0.15691697640E+03 -0.12381696631E+03  0.73015831429E+03  0.75703819756E+03  0.47000000000E+01 0. -1.
<mgrwt>
<rscale>  0 0.30496260E+03</rscale>
<asrwt>0</asrwt>
<pdfrwt beam="1">  1        1 0.98373308E-02 0.30904765E+03</pdfrwt>
<pdfrwt beam="2">  1       -1 0.22870015E+00 0.30904765E+03</pdfrwt>
<totfact> 0.70804885E+01</totfact>
</mgrwt>
</event>
<event>
 8    1  0.2018715E-005  0.1252160E+03  0.7546771E-02  0.1262153E+00
         -1   -1    0    0    0  501 -0.00000000000E+00  0.00000000000E+00  0.15236703755E+02  0.15236703755E+02  0.00000000000E+00 0.  1.
          1   -1    0    0  501    0  0.00000000000E+00 -0.00000000000E+00 -0.64206374864E+03  0.64206374864E+03  0.00000000000E+00 0. -1.
         25    2    1    2    0    0 -0.69403898263E+01 -0.20549999869E+01 -0.41473725590E+03  0.43322747357E+03  0.12500664136E+03 0.  0.
         23    2    1    2    0    0  0.69403898263E+01  0.20549999869E+01 -0.21208978898E+03  0.22407297883E+03  0.71932115315E+02 0.  0.
          5    1    3    3  502    0 -0.13136457916E+02  0.42557855846E+02 -0.56301251828E+02  0.71942050139E+02  0.47000000000E+01 0. -1.
         -5    1    3    3    0  502  0.61960680900E+01 -0.44612855833E+02 -0.35843600408E+03  0.36128542343E+03  0.47000000000E+01 0. -1.
          5    1    4    4  503    0  0.12493240594E+02  0.27875093137E+02 -0.17815512191E+03  0.18081603729E+03  0.47000000000E+01 0. -1.
         -5    1    4    4    0  503 -0.55528507675E+01 -0.25820093150E+02 -0.33934667073E+02  0.43256941539E+02  0.47000000000E+01 0.  1.
<mgrwt>
<rscale>  0 0.10914970E+03</rscale>
<asrwt>0</asrwt>
<pdfrwt beam="1">  1        1 0.98779049E-01 0.12521602E+03</pdfrwt>
<pdfrwt beam="2">  1       -1 0.23441080E-02 0.12521602E+03</pdfrwt>
<totfact> 0.16347363E+04</totfact>
</mgrwt>
</event>
<event>
 8    1  0.2018715E-005  0.1706217E+03  0.7546771E-02  0.1177926E+00
         -2   -1    0    0    0  501 -0.00000000000E+00  0.00000000000E+00  0.54276871688E+03  0.54276871688E+03  0.00000000000E+00 0.  1.
          2   -1    0    0  501    0  0.00000000000E+00 -0.00000000000E+00 -0.66092847646E+02  0.66092847646E+02  0.00000000000E+00 0. -1.
         25    2    1    2    0    0 -0.75232619416E+02  0.88438237987E+02  0.37658142520E+03  0.41343117022E+03  0.12502197303E+03 0.  0.
         23    2    1    2    0    0  0.75232619416E+02 -0.88438237987E+02  0.10009444404E+03  0.19543039431E+03  0.12121415895E+03 0.  0.
          5    1    4    4  502    0  0.67029293444E+02 -0.10830440196E+03  0.43441245834E+02  0.13465512060E+03  0.47000000000E+01 0. -1.
         -5    1    3    3    0  503 -0.34597349738E+02  0.41277257347E+02  0.31133304236E+02  0.62387187912E+02  0.47000000000E+01 0. -1.
          5    1    3    3  503    0 -0.40635269679E+02  0.47160980640E+02  0.34544812096E+03  0.35104398231E+03  0.47000000000E+01 0. -1.
         -5    1    4    4    0  502  0.82033259726E+01  0.19866163974E+02  0.56653198201E+02  0.60775273710E+02  0.47000000000E+01 0.  1.
<mgrwt>
<rscale>  0 0.16992490E+03</rscale>
<asrwt>0</asrwt>
<pdfrwt beam="1">  1        2 0.10168131E-01 0.17062169E+03</pdfrwt>
<pdfrwt beam="2">  1       -2 0.83502877E-01 0.17062169E+03</pdfrwt>
<totfact> 0.80186598E+02</totfact>
</mgrwt>
</event>
<event>
 7    1  0.2018715E-005  0.1568032E+03  0.7546771E-02  0.1194178E+00
          1   -1    0    0  501    0  0.00000000000E+00  0.00000000000E+00  0.23509705223E+03  0.23509705223E+03  0.00000000000E+00 0. -1.
         -1   -1    0    0    0  501 -0.00000000000E+00 -0.00000000000E+00 -0.10283493349E+03  0.10283493349E+03  0.00000000000E+00 0.  1.
         25    2    1    2    0    0  0.70898956930E+02 -0.45173560478E+02  0.90210381046E+02  0.17558797529E+03  0.12500364618E+03 0.  0.
          5    1    3    3  502    0  0.21865743097E+02 -0.12811876362E+02 -0.31295013576E+02  0.40542851057E+02  0.47000000000E+01 0. -1.
         -5    1    3    3    0  502  0.49033213832E+02 -0.32361684116E+02  0.12150539462E+03  0.13504512424E+03  0.47000000000E+01 0. -1.
          5    1    1    2  503    0 -0.37086938381E+02  0.75283599121E+01  0.86688707288E+02  0.94705539292E+02  0.47000000000E+01 0. -1.
         -5    1    1    2    0  503 -0.33812018548E+02  0.37645200566E+02 -0.44636969588E+02  0.67638471138E+02  0.47000000000E+01 0.  1.
<mgrwt>
<rscale>  0 0.15523982E+03</rscale>
<asrwt>0</asrwt>
<pdfrwt beam="1">  1        1 0.36168777E-01 0.15680315E+03</pdfrwt>
<pdfrwt beam="2">  1       -1 0.15820759E-01 0.15680315E+03</pdfrwt>
<totfact> 0.34245860E+03</totfact>
</mgrwt>
</event>
<event>
 8    1  0.2018715E-005  0.1270747E+03  0.7546771E-02  0.1254287E+00
          4   -1    0    0  501    0  0.00000000000E+00  0.00000000000E+00  0.13534003303E+03  0.13534003303E+03  0.00000000000E+00 0. -1.
         -4   -1    0    0    0  501 -0.00000000000E+00 -0.00000000000E+00 -0.18921430836E+03  0.18921430836E+03  0.00000000000E+00 0.  1.
         25    2    1    2    0    0  0.14106329448E+02  0.17966862402E+02 -0.15157137270E+03  0.19779249656E+03  0.12500477591E+03 0.  0.
         23    2    1    2    0    0 -0.14106329448E+02 -0.17966862402E+02  0.97697097368E+02  0.12676184482E+03  0.77472871333E+02 0.  0.
          5    1    3    3  502    0  0.53766404322E+02  0.48825682119E+02 -0.64983448382E+02  0.97569011636E+02  0.47000000000E+01 0.  1.
         -5    1    3    3    0  502 -0.39660074874E+02 -0.30858819717E+02 -0.86587924318E+02  0.10022348493E+03  0.47000000000E+01 0.  1.
          5    1    4    4  503    0 -0.24347108682E+02  0.14404676470E+02  0.65957899844E+01  0.29425683525E+02  0.47000000000E+01 0.  1.
         -5    1    4    4    0  503  0.10240779234E+02 -0.32371538872E+02  0.91101307384E+02  0.97336161293E+02  0.47000000000E+01 0. -1.
<mgrwt>
<rscale>  0 0.11346381E+03</rscale>
<asrwt>0</asrwt>
<pdfrwt beam="1">  1        4 0.20821544E-01 0.12707474E+03</pdfrwt>
<pdfrwt beam="2">  1       -4 0.29109893E-01 0.12707474E+03</pdfrwt>
<totfact> 0.38736618E+02</totfact>
</mgrwt>
</event>
<event>
 7    1  0.2018715E-005  0.1892259E+03  0.7546771E-02  0.1161823E+00
          4   -1    0    0  501    0  0.00000000000E+00  0.00000000000E+00  0.41321980833E+03  0.41321980833E+03  0.00000000000E+00 0.  1.
         -4   -1    0    0    0  501 -0.00000000000E+00 -0.00000000000E+00 -0.88559112397E+02  0.88559112397E+02  0.00000000000E+00 0. -1.
         25    2    1    2    0    0  0.11570880451E+03 -0.51223711660E+02  0.87051503901E+02  0.19802806494E+03  0.12499901638E+03 0.  0.
          5    1    3    3  502    0 -0.14045970794E+02 -0.43141284626E+02  0.36655702375E+02  0.58516580995E+02  0.47000000000E+01 0. -1.
         -5    1    1    2    0  503  0.79250053834E+00  0.63444545050E+02  0.12946786552E+03  0.14425621843E+03  0.47000000000E+01 0.  1.
          5    1    1    2  503    0 -0.11650130505E+03 -0.12220833390E+02  0.10814132652E+03  0.15949463736E+03  0.47000000000E+01 0. -1.
         -5    1    3    3    0  502  0.12975477530E+03 -0.80824270338E+01  0.50395801525E+02  0.13951148394E+03  0.47000000000E+01 0. -1.
<mgrwt>
<rscale>  0 0.18632030E+03</rscale>
<asrwt>0</asrwt>
<pdfrwt beam="1">  1        4 0.63572277E-01 0.18922593E+03</pdfrwt>
<pdfrwt beam="2">  1       -4 0.13624479E-01 0.18922593E+03</pdfrwt>
<totfact> 0.18455526E+02</totfact>
</mgrwt>
</event>
<event>
 7    1  0.2018715E-005  0.2851710E+03  0.7546771E-02  0.1092898E+00
          2   -1    0    0  501    0  0.00000000000E+00  0.00000000000E+00  0.16848776557E+03  0.16848776557E+03  0.00000000000E+00 0. -1.
         -2   -1    0    0    0  501 -0.00000000000E+00 -0.00000000000E+00 -0.12066528723E+03  0.12066528723E+03  0.00000000000E+00 0.  1.
         25    2    1    2    0    0  0.78880433851E+01  0.38114762726E+01  0.17155181094E+01  0.12531163530E+03  0.12499325725E+03 0.  0.
          5    1    3    3  502    0 -0.54122850723E+02  0.21217037726E+02  0.13001463560E+02  0.59754277797E+02  0.47000000000E+01 0. -1.
         -5    1    1    2    0  503  0.27113220025E+02 -0.67594782829E+01 -0.52170960317E+02  0.59369321600E+02  0.47000000000E+01 0.  1.
          5    1    1    2  503    0 -0.35001263410E+02  0.29480020103E+01  0.98277920547E+02  0.10447209591E+03  0.47000000000E+01 0. -1.
         -5    1    3    3    0  502  0.62010894109E+02 -0.17405561453E+02 -0.11285945451E+02  0.65557357500E+02  0.47000000000E+01 0.  1.
<mgrwt>
<rscale>  0 0.28517100E+03</rscale>
<asrwt>0</asrwt>
<pdfrwt beam="1">  1        2 0.25921195E-01 0.28517100E+03</pdfrwt>
<pdfrwt beam="2">  1       -2 0.18563890E-01 0.28517100E+03</pdfrwt>
<totfact> 0.49089443E+03</totfact>
</mgrwt>
</event>
<event>
 8    1  0.2018715E-005  0.1529041E+03  0.7546771E-02  0.1201992E+00
          1   -1    0    0  501    0  0.00000000000E+00  0.00000000000E+00  0.67353269711E+02  0.67353269711E+02  0.00000000000E+00 0. -1.
         -1   -1    0    0    0  501 -0.00000000000E+00 -0.00000000000E+00 -0.35681792568E+03  0.35681792568E+03  0.00000000000E+00 0.  1.
         25    2    1    2    0    0 -0.44822448767E+02 -0.75794463490E+02 -0.22671687475E+03  0.27345968436E+03  0.12500322021E+03 0.  0.
         23    2    1    2    0    0  0.44822448767E+02  0.75794463490E+02 -0.62747781217E+02  0.15071151103E+03  0.10498963235E+03 0.  0.
          5    1    4    4  502    0  0.11336516774E+02  0.36497043291E+02 -0.85747240754E+02  0.93995904584E+02  0.47000000000E+01 0. -1.
         -5    1    4    4    0  502  0.33485931992E+02  0.39297420198E+02  0.22999459537E+02  0.56715606447E+02  0.47000000000E+01 0.  1.
          5    1    3    3  503    0 -0.85356354789E+02 -0.72260833626E+02 -0.16742498251E+03  0.20139649984E+03  0.47000000000E+01 0.  1.
         -5    1    3    3    0  503  0.40533906023E+02 -0.35336298641E+01 -0.59291892240E+02  0.72063184518E+02  0.47000000000E+01 0.  1.
<mgrwt>
<rscale>  0 0.14877044E+03</rscale>
<asrwt>0</asrwt>
<pdfrwt beam="1">  1        1 0.10362041E-01 0.15290408E+03</pdfrwt>
<pdfrwt beam="2">  1       -1 0.54895066E-01 0.15290408E+03</pdfrwt>
<totfact> 0.20584902E+03</totfact>
</mgrwt>
</event>
<event>
 8    1  0.2018715E-005  0.1466763E+03  0.7546771E-02  0.1220394E+00
         -1   -1    0    0    0  501 -0.00000000000E+00  0.00000000000E+00  0.60901764427E+02  0.60901764427E+02  0.00000000000E+00 0.  1.
          1   -1    0    0  501    0  0.00000000000E+00 -0.00000000000E+00 -0.25980285702E+03  0.25980285702E+03  0.00000000000E+00 0. -1.
         25    2    1    2    0    0  0.56129997351E+02 -0.52329808240E+02 -0.11380105895E+03  0.18564650102E+03  0.12499982755E+03 0.  0.
         23    2    1    2    0    0 -0.56129997351E+02  0.52329808240E+02 -0.85100033640E+02  0.13505812043E+03  0.71482128781E+02 0.  0.
          5    1    4    4  502    0 -0.12236676037E+02  0.56920113727E+02 -0.34858661924E+02  0.68020966608E+02  0.47000000000E+01 0. -1.
         -5    1    3    3    0  503  0.47645957133E+02 -0.71956481539E+02 -0.19187514911E+02  0.88533175675E+02  0.47000000000E+01 0.  1.
          5    1    3    3  503    0  0.84840402187E+01  0.19626673299E+02 -0.94613544039E+02  0.97113325341E+02  0.47000000000E+01 0.  1.
         -5    1    4    4    0  502 -0.43893321315E+02 -0.45903054871E+01 -0.50241371717E+02  0.67037153821E+02  0.47000000000E+01 0.  1.
<mgrwt>
<rscale>  0 0.13487690E+03</rscale>
<asrwt>0</asrwt>
<pdfrwt beam="1">  1        1 0.39969671E-01 0.14667632E+03</pdfrwt>
<pdfrwt beam="2">  1       -1 0.93695022E-02 0.14667632E+03</pdfrwt>
<totfact> 0.67869897E+03</totfact>
</mgrwt>
</event>
<event>
 8    1  0.2018715E-005  0.3178407E+03  0.7546771E-02  0.1077368E+00
          2   -1    0    0  501    0  0.00000000000E+00  0.00000000000E+00  0.53455186443E+03  0.53455186443E+03  0.00000000000E+00 0. -1.
         -2   -1    0    0    0  501 -0.00000000000E+00 -0.00000000000E+00 -0.18602948946E+03  0.18602948946E+03  0.00000000000E+00 0.  1.
         25    2    1    2    0    0 -0.24627979873E+03 -0.15730250270E+03  0.19769300214E+03  0.37430635226E+03  0.12499962252E+03 0.  0.
         23    2    1    2    0    0  0.24627979873E+03  0.15730250270E+03  0.15082937283E+03  0.34627500163E+03  0.10843920152E+03 0.  0.
          5    1    3    3  502    0 -0.21426820688E+03 -0.15629266714E+03  0.12196861216E+03  0.29195324049E+03  0.47000000000E+01 0.  1.
         -5    1    4    4    0  503  0.10480578826E+03  0.46925013157E+02  0.50550634290E+01  0.11503848825E+03  0.47000000000E+01 0.  1.
          5    1    4    4  503    0  0.14147401046E+03  0.11037748955E+03  0.14577430941E+03  0.23123651337E+03  0.47000000000E+01 0.  1.
         -5    1    3    3    0  502 -0.32011591846E+02 -0.10098355629E+01  0.75724389977E+02  0.82353111768E+02  0.47000000000E+01 0.  1.
<mgrwt>
<rscale>  0 0.31629428E+03</rscale>
<asrwt>0</asrwt>
<pdfrwt beam="1">  1        2 0.82238748E-01 0.31784072E+03</pdfrwt>
<pdfrwt beam="2">  1       -2 0.28619922E-01 0.31784072E+03</pdfrwt>
<totfact> 0.64495312E+02</totfact>
</mgrwt>
</event>
<event>
 8    1  0.2018715E-005  0.1638431E+03  0.7546771E-02  0.1187807E+00
          2   -1    0    0  501    0  0.00000000000E+00  0.00000000000E+00  0.14882974223E+03  0.14882974223E+03  0.00000000000E+00 0. -1.
         -2   -1    0    0    0  501 -0.00000000000E+00 -0.00000000000E+00 -0.18868788484E+03  0.18868788484E+03  0.00000000000E+00 0.  1.
         25    2    1    2    0    0 -0.78939824110E+02  0.70622636528E+02 -0.77062174251E+02  0.18106117666E+03  0.12500207348E+03 0.  0.
         23    2    1    2    0    0  0.78939824110E+02 -0.70622636528E+02  0.37204031635E+02  0.15645645041E+03  0.10897443867E+03 0.  0.
          5    1    3    3  502    0 -0.18081556764E+02 -0.36060213892E+02 -0.14325102486E+02  0.43064838118E+02  0.47000000000E+01 0. -1.
         -5    1    4    4    0  503  0.64703861617E+02  0.10566156455E+02 -0.41025995753E+00  0.65730447158E+02  0.47000000000E+01 0.  1.
          5    1    4    4  503    0  0.14235962493E+02 -0.81188792983E+02  0.37614291593E+02  0.90726003252E+02  0.47000000000E+01 0. -1.
         -5    1    3    3    0  502 -0.60858267347E+02  0.10668285042E+03 -0.62737071765E+02  0.13799633854E+03  0.47000000000E+01 0. -1.
<mgrwt>
<rscale>  0 0.16079025E+03</rscale>
<asrwt>0</asrwt>
<pdfrwt beam="1">  1        2 0.22896883E-01 0.16384313E+03</pdfrwt>
<pdfrwt beam="2">  1       -2 0.29028905E-01 0.16384313E+03</pdfrwt>
<totfact> 0.25200804E+03</totfact>
</mgrwt>
</event>
<event>
 8    1  0.2901688E-005  0.1388137E+03  0.7546771E-02  0.1221615E+00
         -1   -1    0    0    0  501 -0.00000000000E+00  0.00000000000E+00  0.63353375757E+02  0.63353375757E+02  0.00000000000E+00 0.  1.
          1   -1    0    0  501    0  0.00000000000E+00 -0.00000000000E+00 -0.26577195875E+03  0.26577195875E+03  0.00000000000E+00 0. -1.
         25    2    1    2    0    0  0.54184792928E+02 -0.26650772578E+02 -0.11307503598E+03  0.17903971468E+03  0.12499200056E+03 0.  0.
         23    2    1    2    0    0 -0.54184792928E+02  0.26650772578E+02 -0.89343547012E+02  0.15008561983E+03  0.10438950342E+03 0.  0.
          5    1    4    4  502    0 -0.79208736204E+02  0.13400094687E+02 -0.90822859664E+02  0.12134442000E+03  0.47000000000E+01 0. -1.
         -5    1    4    4    0  502  0.25023943276E+02  0.13250677892E+02  0.14793126525E+01  0.28741199828E+02  0.47000000000E+01 0.  1.
          5    1    3    3  503    0  0.40381406955E+02 -0.69177452307E+02 -0.32099647352E+02  0.86421382166E+02  0.47000000000E+01 0. -1.
         -5    1    3    3    0  503  0.13803385974E+02  0.42526679729E+02 -0.80975388630E+02  0.92618332510E+02  0.47000000000E+01 0. -1.
<mgrwt>
<rscale>  0 0.13401632E+03</rscale>
<asrwt>0</asrwt>
<pdfrwt beam="1">  1        1 0.40887995E-01 0.13881374E+03</pdfrwt>
<pdfrwt beam="2">  1       -1 0.97466729E-02 0.13881374E+03</pdfrwt>
<totfact> 0.61919247E+03</totfact>
</mgrwt>
</event>
<event>
 8    1  0.2018715E-005  0.2728028E+03  0.7546771E-02  0.1102460E+00
          1   -1    0    0  501    0  0.00000000000E+00  0.00000000000E+00  0.74713871795E+03  0.74713871795E+03  0.00000000000E+00 0. -1.
         -1   -1    0    0    0  501 -0.00000000000E+00 -0.00000000000E+00 -0.95969771241E+02  0.95969771241E+02  0.00000000000E+00 0.  1.
         25    2    1    2    0    0  0.24084891855E+03 -0.28079465243E+02  0.26061203503E+03  0.37727977354E+03  0.12499894715E+03 0.  0.
         23    2    1    2    0    0 -0.24084891855E+03  0.28079465243E+02  0.39055691167E+03  0.46582871564E+03  0.75266414320E+02 0.  0.
          5    1    3    3  502    0  0.19669361173E+03 -0.12968248098E+02  0.12420992622E+03  0.23303808300E+03  0.47000000000E+01 0. -1.
         -5    1    3    3    0  502  0.44155306818E+02 -0.15111217144E+02  0.13640210881E+03  0.14424169055E+03  0.47000000000E+01 0. -1.
          5    1    4    4  503    0 -0.13904034915E+03 -0.91005746178E+01  0.26842261545E+03  0.30246955158E+03  0.47000000000E+01 0. -1.
         -5    1    4    4    0  503 -0.10180856940E+03  0.37180039860E+02  0.12213429622E+03  0.16335916406E+03  0.47000000000E+01 0.  1.
<mgrwt>
<rscale>  0 0.26794730E+03</rscale>
<asrwt>0</asrwt>
<pdfrwt beam="1">  1        1 0.11494441E+00 0.27280285E+03</pdfrwt>
<pdfrwt beam="2">  1       -1 0.14764581E-01 0.27280285E+03</pdfrwt>
<totfact> 0.84540675E+02</totfact>
</mgrwt>
</event>
<event>
 8    1  0.2018715E-005  0.3030201E+03  0.7546771E-02  0.1086031E+00
          2   -1    0    0  501    0  0.00000000000E+00  0.00000000000E+00  0.15577962380E+03  0.15577962380E+03  0.00000000000E+00 0.  1.
         -2   -1    0    0    0  501 -0.00000000000E+00 -0.00000000000E+00 -0.56448310941E+03  0.56448310941E+03  0.00000000000E+00 0. -1.
         25    2    1    2    0    0  0.27554985058E+03  0.16381195961E+02 -0.16380631842E+03  0.34446142553E+03  0.12500039997E+03 0.  0.
         23    2    1    2    0    0 -0.27554985058E+03 -0.16381195961E+02 -0.24489716718E+03  0.37580130768E+03  0.71105109702E+02 0.  0.
          5    1    4    4  502    0 -0.64274189207E+02  0.93316413223E+01 -0.96037386462E+02  0.11603241153E+03  0.47000000000E+01 0. -1.
         -5    1    4    4    0  502 -0.21127566137E+03 -0.25712837283E+02 -0.14885978072E+03  0.25976889615E+03  0.47000000000E+01 0.  1.
          5    1    3    3  503    0  0.13516638276E+03  0.56641923335E+02 -0.37573435650E+02  0.15136747198E+03  0.47000000000E+01 0. -1.
         -5    1    3    3    0  503  0.14038346782E+03 -0.40260727374E+02 -0.12623288278E+03  0.19309395355E+03  0.47000000000E+01 0. -1.
<mgrwt>
<rscale>  0 0.29842335E+03</rscale>
<asrwt>0</asrwt>
<pdfrwt beam="1">  1        2 0.23966096E-01 0.30302007E+03</pdfrwt>
<pdfrwt beam="2">  1       -2 0.86843556E-01 0.30302007E+03</pdfrwt>
<totfact> 0.26847650E+02</totfact>
</mgrwt>
</event>
<event>
 8    1  0.2018715E-005  0.1299236E+03  0.7546771E-02  0.1258946E+00
          1   -1    0    0  501    0  0.00000000000E+00  0.00000000000E+00  0.57314273570E+03  0.57314273570E+03  0.00000000000E+00 0. -1.
         -1   -1    0    0    0  501 -0.00000000000E+00 -0.00000000000E+00 -0.17627781651E+02  0.17627781651E+02  0.00000000000E+00 0.  1.
         25    2    1    2    0    0 -0.18219669959E+02  0.30379074788E+02  0.40247656287E+03  0.42292734015E+03  0.12500122729E+03 0.  0.
         23    2    1    2    0    0  0.18219669959E+02 -0.30379074788E+02  0.15303839118E+03  0.16784317720E+03  0.59124769776E+02 0.  0.
          5    1    3    3  502    0 -0.53568486928E+02  0.49865012180E+02  0.14741831575E+03  0.16465221544E+03  0.47000000000E+01 0.  1.
         -5    1    3    3    0  502  0.35348816969E+02 -0.19485937391E+02  0.25505824712E+03  0.25827512470E+03  0.47000000000E+01 0.  1.
          5    1    4    4  503    0  0.27973160047E+02 -0.56564960114E+01  0.12731401337E+03  0.13055819250E+03  0.47000000000E+01 0. -1.
         -5    1    4    4    0  503 -0.97534900886E+01 -0.24722578777E+02  0.25724377808E+02  0.37284984698E+02  0.47000000000E+01 0.  1.
<mgrwt>
<rscale>  0 0.11088160E+03</rscale>
<asrwt>0</asrwt>
<pdfrwt beam="1">  1        1 0.88175791E-01 0.12992364E+03</pdfrwt>
<pdfrwt beam="2">  1       -1 0.27119668E-02 0.12992364E+03</pdfrwt>
<totfact> 0.15499588E+04</totfact>
</mgrwt>
</event>
<event>
 8    1  0.2018715E-005  0.1993748E+03  0.7546771E-02  0.1156185E+00
          2   -1    0    0  501    0  0.00000000000E+00  0.00000000000E+00  0.34194487270E+03  0.34194487270E+03  0.00000000000E+00 0. -1.
         -2   -1    0    0    0  501 -0.00000000000E+00 -0.00000000000E+00 -0.12372143440E+03  0.12372143440E+03  0.00000000000E+00 0.  1.
         25    2    1    2    0    0  0.15412464010E+03 -0.19257181492E+02  0.17121325815E+02  0.20010858325E+03  0.12500024627E+03 0.  0.
         23    2    1    2    0    0 -0.15412464010E+03  0.19257181492E+02  0.20110211248E+03  0.26555772385E+03  0.77159583502E+02 0.  0.
          5    1    4    4  502    0 -0.71844191173E+02  0.47565554653E+02  0.99720409059E+02  0.13187236169E+03  0.47000000000E+01 0. -1.
         -5    1    4    4    0  502 -0.82280448932E+02 -0.28308373161E+02  0.10138170343E+03  0.13368536216E+03  0.47000000000E+01 0.  1.
          5    1    3    3  503    0  0.10082534373E+03 -0.31327002815E+02  0.67690688481E+02  0.12550398540E+03  0.47000000000E+01 0. -1.
         -5    1    3    3    0  503  0.53299296371E+02  0.12069821323E+02 -0.50569362666E+02  0.74604597853E+02  0.47000000000E+01 0. -1.
<mgrwt>
<rscale>  0 0.19254636E+03</rscale>
<asrwt>0</asrwt>
<pdfrwt beam="1">  1        2 0.52606903E-01 0.19937479E+03</pdfrwt>
<pdfrwt beam="2">  1       -2 0.19034067E-01 0.19937479E+03</pdfrwt>
<totfact> 0.21460130E+03</totfact>
</mgrwt>
</event>
<event>
 7    1  0.2018715E-005  0.1718965E+03  0.7546771E-02  0.1188573E+00
          1   -1    0    0  501    0  0.00000000000E+00  0.00000000000E+00  0.28532887831E+03  0.28532887831E+03  0.00000000000E+00 0. -1.
         -1   -1    0    0    0  501 -0.00000000000E+00 -0.00000000000E+00 -0.11252516318E+03  0.11252516318E+03  0.00000000000E+00 0.  1.
         25    2    1    2    0    0 -0.13028706236E+02 -0.11727126093E+03  0.20197851934E+03  0.26522394350E+03  0.12500448833E+03 0.  0.
          5    1    1    2  502    0  0.30081824523E+02  0.99361233733E+02 -0.26951056992E+02  0.10735930518E+03  0.47000000000E+01 0.  1.
         -5    1    3    3    0  503 -0.51522649322E+02 -0.67946775287E+02  0.17913534217E+03  0.19845127483E+03  0.47000000000E+01 0.  1.
          5    1    3    3  503    0  0.38493943086E+02 -0.49324485644E+02  0.22843177168E+02  0.66772668671E+02  0.47000000000E+01 0.  1.
         -5    1    1    2    0  502 -0.17053118287E+02  0.17910027198E+02 -0.22237472273E+01  0.25270792810E+02  0.47000000000E+01 0. -1.
<mgrwt>
<rscale>  0 0.16010997E+03</rscale>
<asrwt>0</asrwt>
<pdfrwt beam="1">  1        1 0.43896750E-01 0.17189653E+03</pdfrwt>
<pdfrwt beam="2">  1       -1 0.17311564E-01 0.17189653E+03</pdfrwt>
<totfact> 0.23419116E+03</totfact>
</mgrwt>
</event>
<event>
 8    1  0.2018715E-005  0.1585844E+03  0.7546771E-02  0.1194505E+00
         -2   -1    0    0    0  501 -0.00000000000E+00  0.00000000000E+00  0.26087112037E+02  0.26087112037E+02  0.00000000000E+00 0. -1.
          2   -1    0    0  501    0  0.00000000000E+00 -0.00000000000E+00 -0.14713065598E+04  0.14713065598E+04  0.00000000000E+00 0.  1.
         25    2    1    2    0    0 -0.73763341994E+02  0.63906876417E+02 -0.12165993677E+04  0.12268916186E+04  0.12499561173E+03 0.  0.
         23    2    1    2    0    0  0.73763341994E+02 -0.63906876417E+02 -0.22862008013E+03  0.27050205326E+03  0.10667286581E+03 0.  0.
          5    1    3    3  502    0 -0.10214122019E+03  0.54685086989E+02 -0.11116672234E+04  0.11176982568E+04  0.47000000000E+01 0. -1.
         -5    1    3    3    0  502  0.28377878198E+02  0.92217894282E+01 -0.10493214423E+03  0.10919336182E+03  0.47000000000E+01 0. -1.
          5    1    4    4  503    0  0.86347879917E+02 -0.78111431512E+01 -0.14156059546E+03  0.16606764439E+03  0.47000000000E+01 0. -1.
         -5    1    4    4    0  503 -0.12584537924E+02 -0.56095733266E+02 -0.87059484667E+02  0.10443440887E+03  0.47000000000E+01 0.  1.
<mgrwt>
<rscale>  0 0.15496180E+03</rscale>
<asrwt>0</asrwt>
<pdfrwt beam="1">  1        2 0.22635484E+00 0.15858443E+03</pdfrwt>
<pdfrwt beam="2">  1       -2 0.40134021E-02 0.15858443E+03</pdfrwt>
<totfact> 0.38391149E+03</totfact>
</mgrwt>
</event>
<event>
 8    1  0.2018715E-005  0.1819257E+03  0.7546771E-02  0.1174071E+00
          2   -1    0    0  501    0  0.00000000000E+00  0.00000000000E+00  0.56007984176E+02  0.56007984176E+02  0.00000000000E+00 0. -1.
         -2   -1    0    0    0  501 -0.00000000000E+00 -0.00000000000E+00 -0.49504953318E+03  0.49504953318E+03  0.00000000000E+00 0.  1.
         25    2    1    2    0    0  0.12863429996E+03 -0.30422713163E+02 -0.24178538362E+03  0.30258406677E+03  0.12499848449E+03 0.  0.
         23    2    1    2    0    0 -0.12863429996E+03  0.30422713163E+02 -0.19725616538E+03  0.24847345058E+03  0.73189727845E+02 0.  0.
          5    1    4    4  502    0 -0.65779291160E+02  0.49986173637E+02 -0.87722038134E+02  0.12059344375E+03  0.47000000000E+01 0. -1.
         -5    1    4    4    0  502 -0.62855008803E+02 -0.19563460475E+02 -0.10953412724E+03  0.12788000684E+03  0.47000000000E+01 0.  1.
          5    1    3    3  503    0  0.82568626930E+02 -0.77895270581E+02 -0.17357497826E+03  0.20745026973E+03  0.47000000000E+01 0. -1.
         -5    1    3    3    0  503  0.46065673034E+02  0.47472557418E+02 -0.68210405364E+02  0.95133797043E+02  0.47000000000E+01 0. -1.
<mgrwt>
<rscale>  0 0.17367267E+03</rscale>
<asrwt>0</asrwt>
<pdfrwt beam="1">  1        2 0.86166132E-02 0.18192566E+03</pdfrwt>
<pdfrwt beam="2">  1       -2 0.76161465E-01 0.18192566E+03</pdfrwt>
<totfact> 0.12087690E+03</totfact>
</mgrwt>
</event>
<event>
 7    1  0.2018715E-005  0.1487741E+03  0.7546771E-02  0.1204342E+00
          2   -1    0    0  501    0  0.00000000000E+00  0.00000000000E+00  0.11290433171E+04  0.11290433171E+04  0.00000000000E+00 0. -1.
         -2   -1    0    0    0  501 -0.00000000000E+00 -0.00000000000E+00 -0.22495372542E+02  0.22495372542E+02  0.00000000000E+00 0.  1.
         25    2    1    2    0    0 -0.64250764292E+02  0.15477571082E+02  0.77979031693E+03  0.79250626880E+03  0.12500212714E+03 0.  0.
          5    1    3    3  502    0  0.18274772316E+02  0.28692563809E+02  0.71860226913E+02  0.79644288767E+02  0.47000000000E+01 0.  1.
         -5    1    3    3    0  502 -0.82525536608E+02 -0.13214992727E+02  0.70793009002E+03  0.71286198004E+03  0.47000000000E+01 0.  1.
          5    1    1    2  503    0  0.46747199269E+02  0.46241355651E+02  0.25166588072E+03  0.26015643204E+03  0.47000000000E+01 0. -1.
         -5    1    1    2    0  503  0.17503565023E+02 -0.61718926733E+02  0.75091746850E+02  0.98875988746E+02  0.47000000000E+01 0.  1.
<mgrwt>
<rscale>  0 0.14689463E+03</rscale>
<asrwt>0</asrwt>
<pdfrwt beam="1">  1        2 0.17369893E+00 0.14877410E+03</pdfrwt>
<pdfrwt beam="2">  1       -2 0.34608274E-02 0.14877410E+03</pdfrwt>
<totfact> 0.73316150E+03</totfact>
</mgrwt>
</event>
<event>
 8    1  0.2018715E-005  0.1295552E+03  0.7546771E-02  0.1234529E+00
          1   -1    0    0  501    0  0.00000000000E+00  0.00000000000E+00  0.90487498633E+02  0.90487498633E+02  0.00000000000E+00 0. -1.
         -1   -1    0    0    0  501 -0.00000000000E+00 -0.00000000000E+00 -0.16435195447E+03  0.16435195447E+03  0.00000000000E+00 0.  1.
         25    2    1    2    0    0 -0.23443455369E+02 -0.24700914465E+02 -0.28927233137E+02  0.13274535901E+03  0.12499925898E+03 0.  0.
         23    2    1    2    0    0  0.23443455369E+02  0.24700914465E+02 -0.44937222697E+02  0.12209409409E+03  0.10829535102E+03 0.  0.
          5    1    4    4  502    0 -0.15344802497E+02  0.56891787548E+02 -0.85002703111E+01  0.59720038927E+02  0.47000000000E+01 0.  1.
         -5    1    4    4    0  502  0.38788257867E+02 -0.32190873083E+02 -0.36436952386E+02  0.62374055162E+02  0.47000000000E+01 0. -1.
          5    1    3    3  503    0  0.99771613676E+01 -0.37955926531E+02 -0.68492098588E+02  0.79078781458E+02  0.47000000000E+01 0. -1.
         -5    1    3    3    0  503 -0.33420616737E+02  0.13255012066E+02  0.39564865451E+02  0.53666577552E+02  0.47000000000E+01 0. -1.
<mgrwt>
<rscale>  0 0.12534663E+03</rscale>
<asrwt>0</asrwt>
<pdfrwt beam="1">  1        1 0.13921154E-01 0.12955518E+03</pdfrwt>
<pdfrwt beam="2">  1       -1 0.25284916E-01 0.12955518E+03</pdfrwt>
<totfact> 0.53384953E+03</totfact>
</mgrwt>
</event>
<event>
 7    1  0.2018715E-005  0.1678069E+03  0.7546771E-02  0.1189302E+00
         -2   -1    0    0    0  501 -0.00000000000E+00  0.00000000000E+00  0.25226949352E+02  0.25226949352E+02  0.00000000000E+00 0.  1.
          2   -1    0    0  501    0  0.00000000000E+00 -0.00000000000E+00 -0.98882645861E+03  0.98882645861E+03  0.00000000000E+00 0. -1.
         25    2    1    2    0    0 -0.19074353466E+02  0.52322263392E+02 -0.30291806872E+03  0.33239432485E+03  0.12500072249E+03 0.  0.
          5    1    1    2  502    0  0.47440730543E+02  0.23177047059E+02 -0.48960254807E+03  0.49246374841E+03  0.47000000000E+01 0. -1.
         -5    1    1    2    0  502 -0.28366377077E+02 -0.75499310451E+02 -0.17107889247E+03  0.18919533471E+03  0.47000000000E+01 0.  1.
          5    1    3    3  503    0  0.39844898463E+02  0.19716810277E+02 -0.22457401448E+03  0.22898023172E+03  0.47000000000E+01 0.  1.
         -5    1    3    3    0  503 -0.58919251929E+02  0.32605453115E+02 -0.78344054244E+02  0.10341409312E+03  0.47000000000E+01 0.  1.
<mgrwt>
<rscale>  0 0.15946476E+03</rscale>
<asrwt>0</asrwt>
<pdfrwt beam="1">  1        2 0.15212716E+00 0.16780685E+03</pdfrwt>
<pdfrwt beam="2">  1       -2 0.38810689E-02 0.16780685E+03</pdfrwt>
<totfact> 0.75104084E+03</totfact>
</mgrwt>
</event>
<event>
 8    1  0.2018715E-005  0.1987970E+03  0.7546771E-02  0.1152568E+00
          1   -1    0    0  501    0  0.00000000000E+00  0.00000000000E+00  0.39079757878E+03  0.39079757878E+03  0.00000000000E+00 0. -1.
         -1   -1    0    0    0  501 -0.00000000000E+00 -0.00000000000E+00 -0.16030225537E+03  0.16030225537E+03  0.00000000000E+00 0.  1.
         25    2    1    2    0    0 -0.12785120970E+03 -0.86906677827E+02 -0.56480347073E+02  0.20666461626E+03  0.12498612538E+03 0.  0.
         23    2    1    2    0    0  0.12785120970E+03  0.86906677827E+02  0.28697567048E+03  0.34443521789E+03  0.11127390260E+03 0.  0.
          5    1    3    3  502    0 -0.16616812063E+02 -0.56735884252E+02 -0.68598729331E+02  0.90680508770E+02  0.47000000000E+01 0.  1.
         -5    1    4    4    0  503  0.66144933227E+02  0.60214172272E+02  0.60361953738E+02  0.10801182432E+03  0.47000000000E+01 0.  1.
          5    1    4    4  503    0  0.61706276471E+02  0.26692505555E+02  0.22661371675E+03  0.23642339357E+03  0.47000000000E+01 0. -1.
         -5    1    3    3    0  502 -0.11123439764E+03 -0.30170793575E+02  0.12118382258E+02  0.11598410749E+03  0.47000000000E+01 0.  1.
<mgrwt>
<rscale>  0 0.19668290E+03</rscale>
<asrwt>0</asrwt>
<pdfrwt beam="1">  1        1 0.60122704E-01 0.19879697E+03</pdfrwt>
<pdfrwt beam="2">  1       -1 0.24661886E-01 0.19879697E+03</pdfrwt>
<totfact> 0.89037193E+02</totfact>
</mgrwt>
</event>
<event>
 8    1  0.2018715E-005  0.5084232E+03  0.7546771E-02  0.1011906E+00
          2   -1    0    0  501    0  0.00000000000E+00  0.00000000000E+00  0.61284485841E+03  0.61284485841E+03  0.00000000000E+00 0. -1.
         -2   -1    0    0    0  501 -0.00000000000E+00 -0.00000000000E+00 -0.42553770545E+03  0.42553770545E+03  0.00000000000E+00 0.  1.
         25    2    1    2    0    0 -0.36366546737E+03 -0.33258986361E+03  0.16365169693E+03  0.53411237780E+03  0.12500225868E+03 0.  0.
         23    2    1    2    0    0  0.36366546737E+03  0.33258986361E+03  0.23655456033E+02  0.50427018605E+03  0.10421252518E+03 0.  0.
          5    1    3    3  502    0 -0.14868063408E+03 -0.81403115337E+02  0.10160698824E+03  0.19768274633E+03  0.47000000000E+01 0.  1.
         -5    1    3    3    0  502 -0.21498483330E+03 -0.25118674828E+03  0.62044708686E+02  0.33642963147E+03  0.47000000000E+01 0.  1.
          5    1    4    4  503    0  0.20569812075E+03  0.12590247143E+03  0.35514494686E+02  0.24381656738E+03  0.47000000000E+01 0. -1.
         -5    1    4    4    0  503  0.15796734662E+03  0.20668739218E+03 -0.11859038654E+02  0.26045361867E+03  0.47000000000E+01 0.  1.
<mgrwt>
<rscale>  0 0.50724205E+03</rscale>
<asrwt>0</asrwt>
<pdfrwt beam="1">  1        2 0.94283824E-01 0.50842320E+03</pdfrwt>
<pdfrwt beam="2">  1       -2 0.65467340E-01 0.50842320E+03</pdfrwt>
<totfact> 0.10683665E+02</totfact>
</mgrwt>
</event>
<event>
 8    1  0.2018715E-005  0.1457106E+03  0.7546771E-02  0.1219852E+00
         -1   -1    0    0    0  501 -0.00000000000E+00  0.00000000000E+00  0.12555020796E+03  0.12555020796E+03  0.00000000000E+00 0.  1.
          1   -1    0    0  501    0  0.00000000000E+00 -0.00000000000E+00 -0.12910025353E+03  0.12910025353E+03  0.00000000000E+00 0. -1.
         25    2    1    2    0    0 -0.22033135790E+02  0.71552294688E+02 -0.11487465167E+02  0.14616267751E+03  0.12500550585E+03 0.  0.
         23    2    1    2    0    0  0.22033135790E+02 -0.71552294688E+02  0.79374195956E+01  0.10848778398E+03  0.78111501689E+02 0.  0.
          5    1    4    4  502    0  0.24628862843E+02  0.98428120512E+00 -0.18416398610E+02  0.31125607339E+02  0.47000000000E+01 0. -1.
         -5    1    4    4    0  502 -0.25957270533E+01 -0.72536575893E+02  0.26353818206E+02  0.77362176645E+02  0.47000000000E+01 0.  1.
          5    1    3    3  503    0 -0.37192363542E+02  0.98140086104E+02 -0.31034630803E+02  0.10954445087E+03  0.47000000000E+01 0.  1.
         -5    1    3    3    0  503  0.15159227753E+02 -0.26587791416E+02  0.19547165636E+02  0.36618226648E+02  0.47000000000E+01 0.  1.
<mgrwt>
<rscale>  0 0.13526084E+03</rscale>
<asrwt>0</asrwt>
<pdfrwt beam="1">  1        1 0.19861577E-01 0.14571056E+03</pdfrwt>
<pdfrwt beam="2">  1       -1 0.19315417E-01 0.14571056E+03</pdfrwt>
<totfact> 0.52707378E+03</totfact>
</mgrwt>
</event>
<event>
 8    1  0.2160238E-005  0.2009358E+03  0.7546771E-02  0.1151703E+00
         -2   -1    0    0    0  501 -0.00000000000E+00  0.00000000000E+00  0.49157776872E+02  0.49157776872E+02  0.00000000000E+00 0.  1.
          2   -1    0    0  501    0  0.00000000000E+00 -0.00000000000E+00 -0.77853827848E+03  0.77853827848E+03  0.00000000000E+00 0. -1.
         25    2    1    2    0    0 -0.31966379469E+02  0.15403738478E+03 -0.41885310159E+03  0.46455691399E+03  0.12500336114E+03 0.  0.
         23    2    1    2    0    0  0.31966379469E+02 -0.15403738478E+03 -0.31052740002E+03  0.36313914136E+03  0.10340891886E+03 0.  0.
          5    1    4    4  502    0  0.53850193613E+02 -0.75582900373E+02 -0.23193436524E+03  0.24985647472E+03  0.47000000000E+01 0. -1.
         -5    1    3    3    0  503 -0.44104220861E+02  0.30566905577E+02 -0.43606650973E+02  0.69304747481E+02  0.47000000000E+01 0. -1.
          5    1    3    3  503    0  0.12137841392E+02  0.12347047921E+03 -0.37524645062E+03  0.39525216651E+03  0.47000000000E+01 0. -1.
         -5    1    4    4    0  502 -0.21883814143E+02 -0.78454484409E+02 -0.78593034773E+02  0.11328266664E+03  0.47000000000E+01 0.  1.
<mgrwt>
<rscale>  0 0.19768967E+03</rscale>
<asrwt>0</asrwt>
<pdfrwt beam="1">  1        2 0.11977511E+00 0.20093582E+03</pdfrwt>
<pdfrwt beam="2">  1       -2 0.75627358E-02 0.20093582E+03</pdfrwt>
<totfact> 0.37518155E+03</totfact>
</mgrwt>
</event>
<event>
 8    1  0.2018715E-005  0.4325592E+03  0.7546771E-02  0.1033280E+00
         -1   -1    0    0    0  501 -0.00000000000E+00  0.00000000000E+00  0.76428571786E+03  0.76428571786E+03  0.00000000000E+00 0.  1.
          1   -1    0    0  501    0  0.00000000000E+00 -0.00000000000E+00 -0.39611284551E+03  0.39611284551E+03  0.00000000000E+00 0. -1.
         25    2    1    2    0    0 -0.23123649949E+03  0.34352724930E+03 -0.17602989362E+03  0.46700537205E+03  0.12500481739E+03 0.  0.
         23    2    1    2    0    0  0.23123649949E+03 -0.34352724930E+03  0.54420276597E+03  0.69339319131E+03  0.11470038171E+03 0.  0.
          5    1    3    3  502    0 -0.24248504051E+03  0.32279691674E+03 -0.14788983598E+03  0.42998876487E+03  0.47000000000E+01 0.  1.
         -5    1    3    3    0  502  0.11248541022E+02  0.20730332557E+02 -0.28140057646E+02  0.37016607183E+02  0.47000000000E+01 0.  1.
          5    1    4    4  503    0  0.10903098425E+02 -0.79978134411E+02  0.15071441935E+03  0.17103305453E+03  0.47000000000E+01 0.  1.
         -5    1    4    4    0  503  0.22033340106E+03 -0.26354911489E+03  0.39348834662E+03  0.52236013679E+03  0.47000000000E+01 0. -1.
<mgrwt>
<rscale>  0 0.43184130E+03</rscale>
<asrwt>0</asrwt>
<pdfrwt beam="1">  1        1 0.60940438E-01 0.43255924E+03</pdfrwt>
<pdfrwt beam="2">  1       -1 0.11758242E+00 0.43255924E+03</pdfrwt>
<totfact> 0.41872823E+01</totfact>
</mgrwt>
</event>
<event>
 8    1  0.2018715E-005  0.1544769E+03  0.7546771E-02  0.1207889E+00
          3   -1    0    0  501    0  0.00000000000E+00  0.00000000000E+00  0.94433970458E+02  0.94433970458E+02  0.00000000000E+00 0. -1.
         -3   -1    0    0    0  501 -0.00000000000E+00 -0.00000000000E+00 -0.19536185403E+03  0.19536185403E+03  0.00000000000E+00 0.  1.
         25    2    1    2    0    0 -0.89336014463E+02 -0.16017374823E+02 -0.52789677845E+02  0.16324784654E+03  0.12500251812E+03 0.  0.
         23    2    1    2    0    0  0.89336014463E+02  0.16017374823E+02 -0.48138205728E+02  0.12654797795E+03  0.73889269154E+02 0.  0.
          5    1    4    4  502    0  0.30183074377E+02  0.32271090025E+02  0.56912044353E+01  0.44798672281E+02  0.47000000000E+01 0. -1.
         -5    1    4    4    0  502  0.59152940087E+02 -0.16253715202E+02 -0.53829410164E+02  0.81749305669E+02  0.47000000000E+01 0.  1.
          5    1    3    3  503    0 -0.15263921320E+02 -0.49464644045E+02  0.18362285342E+02  0.55127142386E+02  0.47000000000E+01 0.  1.
         -5    1    3    3    0  503 -0.74072093143E+02  0.33447269222E+02 -0.71151963187E+02  0.10812070415E+03  0.47000000000E+01 0.  1.
<mgrwt>
<rscale>  0 0.14412066E+03</rscale>
<asrwt>0</asrwt>
<pdfrwt beam="1">  1        3 0.14528303E-01 0.15447689E+03</pdfrwt>
<pdfrwt beam="2">  1       -3 0.30055670E-01 0.15447689E+03</pdfrwt>
<totfact> 0.98719264E+02</totfact>
</mgrwt>
</event>
<event>
 8    1  0.2018715E-005  0.1307594E+03  0.7546771E-02  0.1247115E+00
         -3   -1    0    0    0  501 -0.00000000000E+00  0.00000000000E+00  0.54139954952E+02  0.54139954952E+02  0.00000000000E+00 0.  1.
          3   -1    0    0  501    0  0.00000000000E+00 -0.00000000000E+00 -0.21850522909E+03  0.21850522909E+03  0.00000000000E+00 0. -1.
         25    2    1    2    0    0  0.16681178649E+02 -0.34549444831E+02 -0.11334440399E+03  0.17304615372E+03  0.12500436610E+03 0.  0.
         23    2    1    2    0    0 -0.16681178649E+02  0.34549444831E+02 -0.51020870144E+02  0.99599030315E+02  0.76452022800E+02 0.  0.
          5    1    3    3  502    0  0.58893147976E+02 -0.87999447389E+01 -0.10757176506E+03  0.12304314912E+03  0.47000000000E+01 0.  1.
         -5    1    4    4    0  503  0.15825288025E+02  0.33126702187E+02 -0.55199012478E+02  0.66459304220E+02  0.47000000000E+01 0.  1.
          5    1    4    4  503    0 -0.32506466674E+02  0.14227426442E+01  0.41781423342E+01  0.33139726095E+02  0.47000000000E+01 0. -1.
         -5    1    3    3    0  502 -0.42211969327E+02 -0.25749500092E+02 -0.57726389277E+01  0.50003004606E+02  0.47000000000E+01 0.  1.
<mgrwt>
<rscale>  0 0.11759669E+03</rscale>
<asrwt>0</asrwt>
<pdfrwt beam="1">  1        3 0.33616189E-01 0.13075939E+03</pdfrwt>
<pdfrwt beam="2">  1       -3 0.83292239E-02 0.13075939E+03</pdfrwt>
<totfact> 0.19721706E+03</totfact>
</mgrwt>
</event>
<event>
 8    1  0.2018715E-005  0.1750562E+03  0.7546771E-02  0.1183998E+00
         -2   -1    0    0    0  501 -0.00000000000E+00  0.00000000000E+00  0.44399551917E+03  0.44399551917E+03  0.00000000000E+00 0.  1.
          2   -1    0    0  501    0  0.00000000000E+00 -0.00000000000E+00 -0.54820713050E+02  0.54820713050E+02  0.00000000000E+00 0. -1.
         25    2    1    2    0    0  0.40954200043E+02 -0.11550521591E+03  0.24208904578E+03  0.29875035897E+03  0.12500387791E+03 0.  0.
         23    2    1    2    0    0 -0.40954200043E+02  0.11550521591E+03  0.14708576034E+03  0.20006587325E+03  0.58081247775E+02 0.  0.
          5    1    3    3  502    0 -0.19282219531E+02 -0.10112296370E+03  0.19589473523E+03  0.22134700149E+03  0.47000000000E+01 0. -1.
         -5    1    3    3    0  502  0.60236419574E+02 -0.14382252209E+02  0.46194310553E+02  0.77403357480E+02  0.47000000000E+01 0. -1.
          5    1    4    4  503    0 -0.32304354230E+00  0.83385486288E+02  0.87020745220E+02  0.12061485721E+03  0.47000000000E+01 0. -1.
         -5    1    4    4    0  503 -0.40631156501E+02  0.32119729619E+02  0.60065015116E+02  0.79451016043E+02  0.47000000000E+01 0.  1.
<mgrwt>
<rscale>  0 0.16423364E+03</rscale>
<asrwt>0</asrwt>
<pdfrwt beam="1">  1        2 0.84339561E-02 0.17505619E+03</pdfrwt>
<pdfrwt beam="2">  1       -2 0.68307001E-01 0.17505619E+03</pdfrwt>
<totfact> 0.15664011E+03</totfact>
</mgrwt>
</event>
<event>
 8    1  0.2018715E-005  0.1520603E+03  0.7546771E-02  0.1202616E+00
         -2   -1    0    0    0  501 -0.00000000000E+00  0.00000000000E+00  0.47562284370E+02  0.47562284370E+02  0.00000000000E+00 0.  1.
          2   -1    0    0  501    0  0.00000000000E+00 -0.00000000000E+00 -0.51718668160E+03  0.51718668160E+03  0.00000000000E+00 0. -1.
         25    2    1    2    0    0 -0.81486666997E+02  0.29258307069E+02 -0.35346682515E+03  0.38478712527E+03  0.12500483937E+03 0.  0.
         23    2    1    2    0    0  0.81486666997E+02 -0.29258307069E+02 -0.11615757208E+03  0.17996184070E+03  0.10675934209E+03 0.  0.
          5    1    4    4  502    0  0.72910123148E+02  0.87264006218E+01 -0.11977601706E+03  0.14057176242E+03  0.47000000000E+01 0. -1.
         -5    1    4    4    0  502  0.85765438494E+01 -0.37984707691E+02  0.36184449822E+01  0.39390078280E+02  0.47000000000E+01 0.  1.
          5    1    3    3  503    0  0.24027694946E+02 -0.23545647090E+02 -0.80745401998E+02  0.87599301169E+02  0.47000000000E+01 0.  1.
         -5    1    3    3    0  503 -0.10551436194E+03  0.52803954160E+02 -0.27272142315E+03  0.29718782410E+03  0.47000000000E+01 0.  1.
<mgrwt>
<rscale>  0 0.14826938E+03</rscale>
<asrwt>0</asrwt>
<pdfrwt beam="1">  1        2 0.79567180E-01 0.15206030E+03</pdfrwt>
<pdfrwt beam="2">  1       -2 0.73172747E-02 0.15206030E+03</pdfrwt>
<totfact> 0.62982407E+03</totfact>
</mgrwt>
</event>
<event>
 8    1  0.2018715E-005  0.1374416E+03  0.7546771E-02  0.1234493E+00
         -1   -1    0    0    0  501 -0.00000000000E+00  0.00000000000E+00  0.17337659035E+03  0.17337659035E+03  0.00000000000E+00 0.  1.
          1   -1    0    0  501    0  0.00000000000E+00 -0.00000000000E+00 -0.89889616046E+02  0.89889616046E+02  0.00000000000E+00 0. -1.
         25    2    1    2    0    0  0.14990382544E+02 -0.55165873281E+02  0.95495581245E+02  0.16736072583E+03  0.12498888498E+03 0.  0.
         23    2    1    2    0    0 -0.14990382544E+02  0.55165873281E+02 -0.12008606940E+02  0.95905480569E+02  0.76063587996E+02 0.  0.
          5    1    3    3  502    0  0.39888708995E+02 -0.30889440342E+01  0.10143678309E+03  0.10914284971E+03  0.47000000000E+01 0. -1.
         -5    1    3    3    0  502 -0.24898326452E+02 -0.52076929246E+02 -0.59412018429E+01  0.58217876114E+02  0.47000000000E+01 0. -1.
          5    1    4    4  503    0  0.23023880289E+02  0.30183565781E+02 -0.28059083172E+02  0.47439949992E+02  0.47000000000E+01 0. -1.
         -5    1    4    4    0  503 -0.38014262833E+02  0.24982307500E+02  0.16050476232E+02  0.48465530576E+02  0.47000000000E+01 0.  1.
<mgrwt>
<rscale>  0 0.12536946E+03</rscale>
<asrwt>0</asrwt>
<pdfrwt beam="1">  1        1 0.13829172E-01 0.13744165E+03</pdfrwt>
<pdfrwt beam="2">  1       -1 0.26673322E-01 0.13744165E+03</pdfrwt>
<totfact> 0.49493520E+03</totfact>
</mgrwt>
</event>
<event>
 8    1  0.2018715E-005  0.1550885E+03  0.7546771E-02  0.1207193E+00
          1   -1    0    0  501    0  0.00000000000E+00  0.00000000000E+00  0.70767630444E+03  0.70767630444E+03  0.00000000000E+00 0. -1.
         -1   -1    0    0    0  501 -0.00000000000E+00 -0.00000000000E+00 -0.26923635063E+02  0.26923635063E+02  0.00000000000E+00 0.  1.
         25    2    1    2    0    0 -0.30109505029E+02  0.86720860335E+02  0.44467519168E+03  0.47094423499E+03  0.12500142585E+03 0.  0.
         23    2    1    2    0    0  0.30109505029E+02 -0.86720860335E+02  0.23607747770E+03  0.26365570452E+03  0.73175577452E+02 0.  0.
          5    1    3    3  502    0 -0.74008679339E+02  0.81363416967E+02  0.33365017854E+03  0.35134288363E+03  0.47000000000E+01 0. -1.
         -5    1    4    4    0  503  0.13827329357E+02 -0.66986458251E+02  0.79707320172E+02  0.10513670869E+03  0.47000000000E+01 0.  1.
          5    1    4    4  503    0  0.16282175672E+02 -0.19734402084E+02  0.15637015753E+03  0.15851899582E+03  0.47000000000E+01 0. -1.
         -5    1    3    3    0  502  0.43899174310E+02  0.53574433685E+01  0.11102501314E+03  0.11960135137E+03  0.47000000000E+01 0. -1.
<mgrwt>
<rscale>  0 0.14465978E+03</rscale>
<asrwt>0</asrwt>
<pdfrwt beam="1">  1        1 0.10887326E+00 0.15508851E+03</pdfrwt>
<pdfrwt beam="2">  1       -1 0.41420982E-02 0.15508851E+03</pdfrwt>
<totfact> 0.62968381E+03</totfact>
</mgrwt>
</event>
<event>
 8    1  0.2145181E-005  0.1333236E+03  0.7546771E-02  0.1229762E+00
         -2   -1    0    0    0  501 -0.00000000000E+00  0.00000000000E+00  0.43222466068E+02  0.43222466068E+02  0.00000000000E+00 0. -1.
          2   -1    0    0  501    0  0.00000000000E+00 -0.00000000000E+00 -0.38102356475E+03  0.38102356475E+03  0.00000000000E+00 0.  1.
         25    2    1    2    0    0  0.20340450481E+01 -0.46371796806E+02 -0.23443013753E+03  0.26968997091E+03  0.12498283943E+03 0.  0.
         23    2    1    2    0    0 -0.20340450481E+01  0.46371796806E+02 -0.10337096116E+03  0.15455605991E+03  0.10510727456E+03 0.  0.
          5    1    3    3  502    0  0.71382803796E+01 -0.66360632605E+02 -0.48692571817E+02  0.82751103658E+02  0.47000000000E+01 0. -1.
         -5    1    4    4    0  503  0.45677552965E+02  0.13900376872E+02 -0.17669803620E+02  0.51127011276E+02  0.47000000000E+01 0.  1.
          5    1    4    4  503    0 -0.47711598013E+02  0.32471419935E+02 -0.85701157537E+02  0.10342904863E+03  0.47000000000E+01 0. -1.
         -5    1    3    3    0  502 -0.51042353316E+01  0.19988835798E+02 -0.18573756571E+03  0.18693886726E+03  0.47000000000E+01 0. -1.
<mgrwt>
<rscale>  0 0.12845778E+03</rscale>
<asrwt>0</asrwt>
<pdfrwt beam="1">  1        2 0.58619011E-01 0.13332363E+03</pdfrwt>
<pdfrwt beam="2">  1       -2 0.66496101E-02 0.13332363E+03</pdfrwt>
<totfact> 0.10070378E+04</totfact>
</mgrwt>
</event>
<event>
 8    1  0.2018715E-005  0.1628166E+03  0.7546771E-02  0.1188199E+00
         -2   -1    0    0    0  501 -0.00000000000E+00  0.00000000000E+00  0.99059250103E+02  0.99059250103E+02  0.00000000000E+00 0.  1.
          2   -1    0    0  501    0  0.00000000000E+00 -0.00000000000E+00 -0.30520493377E+03  0.30520493377E+03  0.00000000000E+00 0. -1.
         25    2    1    2    0    0 -0.63106922129E+02  0.83076534289E+02 -0.18950624737E+03  0.24984370654E+03  0.12500026293E+03 0.  0.
         23    2    1    2    0    0  0.63106922129E+02 -0.83076534289E+02 -0.16639436290E+02  0.15442047733E+03  0.11262601302E+03 0.  0.
          5    1    3    3  502    0 -0.52743623973E+02  0.10669826153E+03 -0.18925818798E+03  0.22362280877E+03  0.47000000000E+01 0.  1.
         -5    1    3    3    0  502 -0.10363298156E+02 -0.23621727241E+02 -0.24805939499E+00  0.26220897773E+02  0.47000000000E+01 0.  1.
          5    1    4    4  503    0  0.31599644963E+02  0.23437643552E+01 -0.48261576042E+02  0.57924955893E+02  0.47000000000E+01 0. -1.
         -5    1    4    4    0  503  0.31507277166E+02 -0.85420298645E+02  0.31622139752E+02  0.96495521437E+02  0.47000000000E+01 0.  1.
<mgrwt>
<rscale>  0 0.16044135E+03</rscale>
<asrwt>0</asrwt>
<pdfrwt beam="1">  1        2 0.46954605E-01 0.16281665E+03</pdfrwt>
<pdfrwt beam="2">  1       -2 0.15239885E-01 0.16281665E+03</pdfrwt>
<totfact> 0.34858298E+03</totfact>
</mgrwt>
</event>
<event>
 8    1  0.2018715E-005  0.1374431E+03  0.7546771E-02  0.1223458E+00
         -2   -1    0    0    0  501 -0.00000000000E+00  0.00000000000E+00  0.95189023356E+02  0.95189023356E+02  0.00000000000E+00 0.  1.
          2   -1    0    0  501    0  0.00000000000E+00 -0.00000000000E+00 -0.17444889939E+03  0.17444889939E+03  0.00000000000E+00 0. -1.
         25    2    1    2    0    0 -0.57012218460E+02 -0.38421619594E+01 -0.32194487957E+02  0.14116330789E+03  0.12500175670E+03 0.  0.
         23    2    1    2    0    0  0.57012218460E+02  0.38421619594E+01 -0.47065388080E+02  0.12847461486E+03  0.10500200305E+03 0.  0.
          5    1    3    3  502    0 -0.80621878565E+02 -0.41983985641E+02 -0.30620681414E+02  0.96032590738E+02  0.47000000000E+01 0. -1.
         -5    1    4    4    0  503 -0.93158583931E+01 -0.34727845143E+02  0.35520548139E+01  0.36435086651E+02  0.47000000000E+01 0.  1.
          5    1    4    4  503    0  0.66328076853E+02  0.38570007103E+02 -0.50617442894E+02  0.92039528204E+02  0.47000000000E+01 0. -1.
         -5    1    3    3    0  502  0.23609660105E+02  0.38141823681E+02 -0.15738065427E+01  0.45130717156E+02  0.47000000000E+01 0. -1.
<mgrwt>
<rscale>  0 0.13273129E+03</rscale>
<asrwt>0</asrwt>
<pdfrwt beam="1">  1        2 0.26838292E-01 0.13744306E+03</pdfrwt>
<pdfrwt beam="2">  1       -2 0.14644465E-01 0.13744306E+03</pdfrwt>
<totfact> 0.67247115E+03</totfact>
</mgrwt>
</event>
<event>
 8    1  0.2018715E-005  0.1748427E+03  0.7546771E-02  0.1183976E+00
         -2   -1    0    0    0  501 -0.00000000000E+00  0.00000000000E+00  0.36890457008E+02  0.36890457008E+02  0.00000000000E+00 0.  1.
          2   -1    0    0  501    0  0.00000000000E+00 -0.00000000000E+00 -0.67209594886E+03  0.67209594886E+03  0.00000000000E+00 0. -1.
         25    2    1    2    0    0 -0.11689290298E+03 -0.35812524646E+02 -0.30093434227E+03  0.34803943951E+03  0.12499394151E+03 0.  0.
         23    2    1    2    0    0  0.11689290298E+03  0.35812524646E+02 -0.33427114958E+03  0.36094696635E+03  0.59991860996E+02 0.  0.
          5    1    3    3  502    0 -0.63149064947E+02 -0.41350446164E+02 -0.48497973438E+02  0.89843236970E+02  0.47000000000E+01 0. -1.
         -5    1    3    3    0  502 -0.53743838032E+02  0.55379215182E+01 -0.25243636883E+03  0.25819620254E+03  0.47000000000E+01 0. -1.
          5    1    4    4  503    0  0.53503519885E+02  0.46602213155E+02 -0.15833755477E+03  0.17357207195E+03  0.47000000000E+01 0. -1.
         -5    1    4    4    0  503  0.63389383094E+02 -0.10789688509E+02 -0.17593359482E+03  0.18737489440E+03  0.47000000000E+01 0.  1.
<mgrwt>
<rscale>  0 0.16425383E+03</rscale>
<asrwt>0</asrwt>
<pdfrwt beam="1">  1        2 0.10339937E+00 0.17484271E+03</pdfrwt>
<pdfrwt beam="2">  1       -2 0.56754552E-02 0.17484271E+03</pdfrwt>
<totfact> 0.69355712E+03</totfact>
</mgrwt>
</event>
<event>
 8    1  0.2018715E-005  0.2128392E+03  0.7546771E-02  0.1141225E+00
         -2   -1    0    0    0  501 -0.00000000000E+00  0.00000000000E+00  0.29286028706E+03  0.29286028706E+03  0.00000000000E+00 0.  1.
          2   -1    0    0  501    0  0.00000000000E+00 -0.00000000000E+00 -0.17542019905E+03  0.17542019905E+03  0.00000000000E+00 0. -1.
         25    2    1    2    0    0 -0.17143002970E+03  0.16949833739E+02 -0.32908440187E+02  0.21536828674E+03  0.12499992620E+03 0.  0.
         23    2    1    2    0    0  0.17143002970E+03 -0.16949833739E+02  0.15034852820E+03  0.25291219937E+03  0.10809416594E+03 0.  0.
          5    1    3    3  502    0 -0.78507740754E+02 -0.49531021222E+02  0.94467822661E+01  0.93424403219E+02  0.47000000000E+01 0.  1.
         -5    1    4    4    0  503  0.88761683452E+02 -0.60453237219E+02  0.61187871804E+02  0.12369024212E+03  0.47000000000E+01 0. -1.
          5    1    4    4  503    0  0.82668346250E+02  0.43503403480E+02  0.89160656398E+02  0.12922195725E+03  0.47000000000E+01 0.  1.
         -5    1    3    3    0  502 -0.92922288948E+02  0.66480854961E+02 -0.42355222453E+02  0.12194388352E+03  0.47000000000E+01 0.  1.
<mgrwt>
<rscale>  0 0.21043171E+03</rscale>
<asrwt>0</asrwt>
<pdfrwt beam="1">  1        2 0.26987723E-01 0.21283922E+03</pdfrwt>
<pdfrwt beam="2">  1       -2 0.45055429E-01 0.21283922E+03</pdfrwt>
<totfact> 0.92944206E+02</totfact>
</mgrwt>
</event>
<event>
 8    1  0.2018715E-005  0.1914387E+03  0.7546771E-02  0.1158870E+00
         -2   -1    0    0    0  501 -0.00000000000E+00  0.00000000000E+00  0.31723498215E+03  0.31723498215E+03  0.00000000000E+00 0.  1.
          2   -1    0    0  501    0  0.00000000000E+00 -0.00000000000E+00 -0.12781767070E+03  0.12781767070E+03  0.00000000000E+00 0. -1.
         25    2    1    2    0    0 -0.14753019105E+02  0.14426102741E+03  0.17687476111E+03  0.26064044682E+03  0.12497946149E+03 0.  0.
         23    2    1    2    0    0  0.14753019105E+02 -0.14426102741E+03  0.12542550343E+02  0.18441220603E+03  0.11323272744E+03 0.  0.
          5    1    4    4  502    0 -0.38715860905E+02 -0.68795698844E+02  0.38895180085E+02  0.88128832392E+02  0.47000000000E+01 0.  1.
         -5    1    4    4    0  502  0.53468880010E+02 -0.75465328570E+02 -0.26352629742E+02  0.96283373643E+02  0.47000000000E+01 0.  1.
          5    1    3    3  503    0  0.44833225048E+02  0.10411924876E+03  0.75440806890E+02  0.13625065642E+03  0.47000000000E+01 0.  1.
         -5    1    3    3    0  503 -0.59586244153E+02  0.40141778653E+02  0.10143395422E+03  0.12438979040E+03  0.47000000000E+01 0.  1.
<mgrwt>
<rscale>  0 0.18954745E+03</rscale>
<asrwt>0</asrwt>
<pdfrwt beam="1">  1        2 0.19664257E-01 0.19143866E+03</pdfrwt>
<pdfrwt beam="2">  1       -2 0.48805382E-01 0.19143866E+03</pdfrwt>
<totfact> 0.11315565E+03</totfact>
</mgrwt>
</event>
<event>
 8    1  0.2018715E-005  0.1343784E+03  0.7546771E-02  0.1244082E+00
          2   -1    0    0  501    0  0.00000000000E+00  0.00000000000E+00  0.70550404101E+02  0.70550404101E+02  0.00000000000E+00 0. -1.
         -2   -1    0    0    0  501 -0.00000000000E+00 -0.00000000000E+00 -0.18545101092E+03  0.18545101092E+03  0.00000000000E+00 0.  1.
         25    2    1    2    0    0  0.18483230396E+02  0.45724535113E+02 -0.10715694803E+03  0.17187254411E+03  0.12500078796E+03 0.  0.
         23    2    1    2    0    0 -0.18483230396E+02 -0.45724535113E+02 -0.77436587939E+01  0.84128870917E+02  0.67715136809E+02 0.  0.
          5    1    3    3  502    0 -0.46678598829E+02 -0.54081592235E+01 -0.60302137308E+02  0.76593586799E+02  0.47000000000E+01 0. -1.
         -5    1    3    3    0  502  0.65161829225E+02  0.51132694337E+02 -0.46854810720E+02  0.95278957308E+02  0.47000000000E+01 0. -1.
          5    1    4    4  503    0  0.41775376642E+00 -0.59206620395E+02 -0.10381536234E+02  0.60294814963E+02  0.47000000000E+01 0. -1.
         -5    1    4    4    0  503 -0.18900984162E+02  0.13482085281E+02  0.26378774403E+01  0.23834055954E+02  0.47000000000E+01 0.  1.
<mgrwt>
<rscale>  0 0.11940473E+03</rscale>
<asrwt>0</asrwt>
<pdfrwt beam="1">  1        2 0.10853908E-01 0.13437842E+03</pdfrwt>
<pdfrwt beam="2">  1       -2 0.28530925E-01 0.13437842E+03</pdfrwt>
<totfact> 0.61390405E+03</totfact>
</mgrwt>
</event>
<event>
 7    1  0.2018715E-005  0.1699292E+03  0.7546771E-02  0.1182191E+00
          2   -1    0    0  501    0  0.00000000000E+00  0.00000000000E+00  0.75247526100E+03  0.75247526100E+03  0.00000000000E+00 0. -1.
         -2   -1    0    0    0  501 -0.00000000000E+00 -0.00000000000E+00 -0.36914168215E+02  0.36914168215E+02  0.00000000000E+00 0.  1.
         25    2    1    2    0    0 -0.62813388553E+02  0.65287295856E+02  0.43263866638E+03  0.45935755824E+03  0.12500079153E+03 0.  0.
          5    1    1    2  502    0  0.72041629562E+02 -0.87946614600E+02  0.28310766754E+03  0.30511742793E+03  0.47000000000E+01 0. -1.
         -5    1    3    3    0  503 -0.37881522196E+02 -0.22111191037E+02  0.52967005846E+02  0.68931184534E+02  0.47000000000E+01 0. -1.
          5    1    3    3  503    0 -0.24931866357E+02  0.87398486893E+02  0.37967166054E+03  0.39042637371E+03  0.47000000000E+01 0. -1.
         -5    1    1    2    0  502 -0.92282410084E+01  0.22659318744E+02 -0.18524113074E+00  0.24914443047E+02  0.47000000000E+01 0.  1.
<mgrwt>
<rscale>  0 0.16590089E+03</rscale>
<asrwt>0</asrwt>
<pdfrwt beam="1">  1        2 0.11576541E+00 0.16992921E+03</pdfrwt>
<pdfrwt beam="2">  1       -2 0.56791034E-02 0.16992921E+03</pdfrwt>
<totfact> 0.60388435E+03</totfact>
</mgrwt>
</event>
<event>
 8    1  0.2018715E-005  0.1306330E+03  0.7546771E-02  0.1249124E+00
          2   -1    0    0  501    0  0.00000000000E+00  0.00000000000E+00  0.60934305839E+03  0.60934305839E+03  0.00000000000E+00 0. -1.
         -2   -1    0    0    0  501 -0.00000000000E+00 -0.00000000000E+00 -0.18620277110E+02  0.18620277110E+02  0.00000000000E+00 0.  1.
         25    2    1    2    0    0  0.11005538037E+02 -0.36314540911E+02  0.36298098009E+03  0.38577217269E+03  0.12500043828E+03 0.  0.
         23    2    1    2    0    0 -0.11005538037E+02  0.36314540911E+02  0.22774180119E+03  0.24219116280E+03  0.73146179545E+02 0.  0.
          5    1    3    3  502    0 -0.32580929912E+02  0.64867489996E+00  0.21077248859E+02  0.39093198801E+02  0.47000000000E+01 0.  1.
         -5    1    4    4    0  503  0.28897485075E+02  0.14368075779E+02  0.59730113805E+02  0.68053528493E+02  0.47000000000E+01 0.  1.
          5    1    4    4  503    0 -0.39903023112E+02  0.21946465132E+02  0.16801168738E+03  0.17413763431E+03  0.47000000000E+01 0. -1.
         -5    1    3    3    0  502  0.43586467949E+02 -0.36963215811E+02  0.34190373123E+03  0.34667897389E+03  0.47000000000E+01 0.  1.
<mgrwt>
<rscale>  0 0.11641936E+03</rscale>
<asrwt>0</asrwt>
<pdfrwt beam="1">  1        2 0.93745071E-01 0.13063299E+03</pdfrwt>
<pdfrwt beam="2">  1       -2 0.28646585E-02 0.13063299E+03</pdfrwt>
<totfact> 0.21131268E+04</totfact>
</mgrwt>
</event>
<event>
 8    1  0.2018715E-005  0.2014937E+03  0.7546771E-02  0.1151216E+00
         -4   -1    0    0    0  501 -0.00000000000E+00  0.00000000000E+00  0.70998693383E+03  0.70998693383E+03  0.00000000000E+00 0.  1.
          4   -1    0    0  501    0  0.00000000000E+00 -0.00000000000E+00 -0.54636142547E+02  0.54636142547E+02  0.00000000000E+00 0. -1.
         25    2    1    2    0    0 -0.21225192469E+02  0.15660406307E+03  0.28689066323E+03  0.35057946599E+03  0.12499747179E+03 0.  0.
         23    2    1    2    0    0  0.21225192469E+02 -0.15660406307E+03  0.36846012805E+03  0.41404361039E+03  0.10341133388E+03 0.  0.
          5    1    3    3  502    0  0.32997993438E+02  0.39988320517E+02  0.22860626060E+02  0.56856236004E+02  0.47000000000E+01 0. -1.
         -5    1    4    4    0  503  0.71988819059E+01 -0.18745440873E+02  0.17399017708E+03  0.17520812531E+03  0.47000000000E+01 0.  1.
          5    1    4    4  503    0  0.14026310563E+02 -0.13785862220E+03  0.19446995097E+03  0.23883548508E+03  0.47000000000E+01 0. -1.
         -5    1    3    3    0  502 -0.54223185906E+02  0.11661574256E+03  0.26403003717E+03  0.29372322998E+03  0.47000000000E+01 0. -1.
<mgrwt>
<rscale>  0 0.19825897E+03</rscale>
<asrwt>0</asrwt>
<pdfrwt beam="1">  1        4 0.84055609E-02 0.20149370E+03</pdfrwt>
<pdfrwt beam="2">  1       -4 0.10922875E+00 0.20149370E+03</pdfrwt>
<totfact> 0.12569098E+02</totfact>
</mgrwt>
</event>
<event>
 7    1  0.2018715E-005  0.2340784E+03  0.7546771E-02  0.1129442E+00
          1   -1    0    0  501    0  0.00000000000E+00  0.00000000000E+00  0.89412696351E+03  0.89412696351E+03  0.00000000000E+00 0. -1.
         -1   -1    0    0    0  501 -0.00000000000E+00 -0.00000000000E+00 -0.91857537488E+02  0.91857537488E+02  0.00000000000E+00 0.  1.
         25    2    1    2    0    0 -0.18804179562E+03 -0.61742361790E+02  0.73524838072E+03  0.77161058551E+03  0.12498351165E+03 0.  0.
          5    1    1    2  502    0  0.15104573621E+03  0.34865410144E+02  0.65574191341E+02  0.16838193437E+03  0.47000000000E+01 0. -1.
         -5    1    3    3    0  503 -0.61798652671E+02  0.28922299132E+02  0.34127343251E+03  0.34805921709E+03  0.47000000000E+01 0. -1.
          5    1    3    3  503    0 -0.12624314295E+03 -0.90664660921E+02  0.39397494820E+03  0.42355136842E+03  0.47000000000E+01 0. -1.
         -5    1    1    2    0  502  0.36996059402E+02  0.26876951646E+02  0.14468539684E+01  0.45991981122E+02  0.47000000000E+01 0.  1.
<mgrwt>
<rscale>  0 0.22606349E+03</rscale>
<asrwt>0</asrwt>
<pdfrwt beam="1">  1        1 0.13755799E+00 0.23407844E+03</pdfrwt>
<pdfrwt beam="2">  1       -1 0.14131929E-01 0.23407844E+03</pdfrwt>
<totfact> 0.68624238E+02</totfact>
</mgrwt>
</event>
<event>
 7    1  0.2018715E-005  0.5765748E+03  0.7546771E-02  0.9964744E-01
          2   -1    0    0  501    0  0.00000000000E+00  0.00000000000E+00  0.12818390336E+04  0.12818390336E+04  0.00000000000E+00 0.  1.
         -2   -1    0    0    0  501 -0.00000000000E+00 -0.00000000000E+00 -0.29906280266E+03  0.29906280266E+03  0.00000000000E+00 0. -1.
         25    2    1    2    0    0  0.54057904762E+03  0.71344891034E+02  0.17054754216E+03  0.58483257033E+03  0.12500748366E+03 0.  0.
          5    1    3    3  502    0  0.24963403935E+03 -0.11189680216E+02  0.12334957763E+03  0.27871055030E+03  0.47000000000E+01 0. -1.
         -5    1    1    2    0  503 -0.31435992751E+03 -0.14080777316E+02  0.61355947244E+03  0.68956344780E+03  0.47000000000E+01 0.  1.
          5    1    1    2  503    0 -0.22621912011E+03 -0.57264113717E+02  0.19866921632E+03  0.30650581812E+03  0.47000000000E+01 0. -1.
         -5    1    3    3    0  502  0.29094500827E+03  0.82534571250E+02  0.47197964528E+02  0.30612202003E+03  0.47000000000E+01 0. -1.
<mgrwt>
<rscale>  0 0.57223558E+03</rscale>
<asrwt>0</asrwt>
<pdfrwt beam="1">  1        2 0.19720600E+00 0.57657483E+03</pdfrwt>
<pdfrwt beam="2">  1       -2 0.46009663E-01 0.57657483E+03</pdfrwt>
<totfact> 0.78541051E+01</totfact>
</mgrwt>
</event>
<event>
 8    1  0.2018715E-005  0.1271415E+03  0.7546771E-02  0.1256065E+00
         -1   -1    0    0    0  501 -0.00000000000E+00  0.00000000000E+00  0.19940262407E+02  0.19940262407E+02  0.00000000000E+00 0.  1.
          1   -1    0    0  501    0  0.00000000000E+00 -0.00000000000E+00 -0.82483106880E+03  0.82483106880E+03  0.00000000000E+00 0. -1.
         25    2    1    2    0    0  0.56080830912E+00 -0.23221003547E+02 -0.71339606502E+03  0.72463708235E+03  0.12500170404E+03 0.  0.
         23    2    1    2    0    0 -0.56080830912E+00  0.23221003547E+02 -0.91494741372E+02  0.12013424886E+03  0.74306261776E+02 0.  0.
          5    1    3    3  502    0 -0.54200995721E+02 -0.40468472790E+02 -0.32553800151E+03  0.33252447377E+03  0.47000000000E+01 0.  1.
         -5    1    4    4    0  503  0.20260162880E+02 -0.20145607152E+02 -0.27464905368E+02  0.39909030486E+02  0.47000000000E+01 0.  1.
          5    1    4    4  503    0 -0.20820971189E+02  0.43366610699E+02 -0.64029836004E+02  0.80225218375E+02  0.47000000000E+01 0. -1.
         -5    1    3    3    0  502  0.54761804030E+02  0.17247469243E+02 -0.38785806351E+03  0.39211260858E+03  0.47000000000E+01 0.  1.
<mgrwt>
<rscale>  0 0.11246905E+03</rscale>
<asrwt>0</asrwt>
<pdfrwt beam="1">  1        1 0.12689706E+00 0.12714148E+03</pdfrwt>
<pdfrwt beam="2">  1       -1 0.30677332E-02 0.12714148E+03</pdfrwt>
<totfact> 0.77092625E+03</totfact>
</mgrwt>
</event>
<event>
 7    1  0.2018715E-005  0.1700806E+03  0.7546771E-02  0.1191438E+00
          2   -1    0    0  501    0  0.00000000000E+00  0.00000000000E+00  0.94662453130E+03  0.94662453130E+03  0.00000000000E+00 0. -1.
         -2   -1    0    0    0  501 -0.00000000000E+00 -0.00000000000E+00 -0.23254030197E+02  0.23254030197E+02  0.00000000000E+00 0.  1.
         25    2    1    2    0    0  0.10853832109E+03  0.38999668729E+02  0.48649048421E+03  0.51536433060E+03  0.12500344282E+03 0.  0.
          5    1    3    3  502    0  0.94976580249E+02 -0.29412646496E+02  0.26345842407E+03  0.28163466723E+03  0.47000000000E+01 0.  1.
         -5    1    1    2    0  503 -0.18205128606E+02 -0.25011552849E+02  0.15565093615E+03  0.15876494704E+03  0.47000000000E+01 0.  1.
          5    1    1    2  503    0 -0.90333192484E+02 -0.13988115880E+02  0.28122908074E+03  0.29574928386E+03  0.47000000000E+01 0. -1.
         -5    1    3    3    0  502  0.13561740841E+02  0.68412315224E+02  0.22303206014E+03  0.23372966337E+03  0.47000000000E+01 0.  1.
<mgrwt>
<rscale>  0 0.15759567E+03</rscale>
<asrwt>0</asrwt>
<pdfrwt beam="1">  1        2 0.14563451E+00 0.17008058E+03</pdfrwt>
<pdfrwt beam="2">  1       -2 0.35775438E-02 0.17008058E+03</pdfrwt>
<totfact> 0.90050117E+03</totfact>
</mgrwt>
</event>
<event>
 8    1  0.2018715E-005  0.2333827E+03  0.7546771E-02  0.1128496E+00
          2   -1    0    0  501    0  0.00000000000E+00  0.00000000000E+00  0.13631881302E+04  0.13631881302E+04  0.00000000000E+00 0. -1.
         -2   -1    0    0    0  501 -0.00000000000E+00 -0.00000000000E+00 -0.38703448296E+02  0.38703448296E+02  0.00000000000E+00 0.  1.
         25    2    1    2    0    0  0.13020495898E+03  0.14794850557E+03  0.87596589663E+03  0.90652287320E+03  0.12500150369E+03 0.  0.
         23    2    1    2    0    0 -0.13020495898E+03 -0.14794850557E+03  0.44851878524E+03  0.49536870527E+03  0.73341405773E+02 0.  0.
          5    1    4    4  502    0 -0.26358843210E+02 -0.27215097563E+02  0.17245909993E+03  0.17663431518E+03  0.47000000000E+01 0. -1.
         -5    1    3    3    0  503  0.98853271248E+02  0.16040720028E+03  0.61193312305E+03  0.64030201953E+03  0.47000000000E+01 0.  1.
          5    1    3    3  503    0  0.31351687733E+02 -0.12458694711E+02  0.26403277359E+03  0.26622085367E+03  0.47000000000E+01 0.  1.
         -5    1    4    4    0  502 -0.10384611577E+03 -0.12073340801E+03  0.27605968531E+03  0.31873439009E+03  0.47000000000E+01 0.  1.
<mgrwt>
<rscale>  0 0.22738147E+03</rscale>
<asrwt>0</asrwt>
<pdfrwt beam="1">  1        2 0.20972121E+00 0.23338266E+03</pdfrwt>
<pdfrwt beam="2">  1       -2 0.59543777E-02 0.23338266E+03</pdfrwt>
<totfact> 0.24234714E+03</totfact>
</mgrwt>
</event>
<event>
 8    1  0.2018715E-005  0.1869210E+03  0.7546771E-02  0.1170069E+00
          3   -1    0    0  501    0  0.00000000000E+00  0.00000000000E+00  0.13238855684E+03  0.13238855684E+03  0.00000000000E+00 0. -1.
         -3   -1    0    0    0  501 -0.00000000000E+00 -0.00000000000E+00 -0.21768932434E+03  0.21768932434E+03  0.00000000000E+00 0.  1.
         25    2    1    2    0    0 -0.12966320443E+03 -0.50098464432E+02 -0.46649280055E+02  0.19265409544E+03  0.12496816570E+03 0.  0.
         23    2    1    2    0    0  0.12966320443E+03  0.50098464432E+02 -0.38651487446E+02  0.15742378574E+03  0.62975456451E+02 0.  0.
          5    1    4    4  502    0  0.17107908466E+02  0.34243449336E+02 -0.13928684156E+02  0.41004787486E+02  0.47000000000E+01 0. -1.
         -5    1    3    3    0  503 -0.93987531145E+02  0.15930217386E+02  0.13455664440E+02  0.96387617162E+02  0.47000000000E+01 0.  1.
          5    1    3    3  503    0 -0.35675673282E+02 -0.66028681817E+02 -0.60104944494E+02  0.96266478274E+02  0.47000000000E+01 0.  1.
         -5    1    4    4    0  502  0.11255529596E+03  0.15855015096E+02 -0.24722803290E+02  0.11641899826E+03  0.47000000000E+01 0.  1.
<mgrwt>
<rscale>  0 0.17767886E+03</rscale>
<asrwt>0</asrwt>
<pdfrwt beam="1">  1        3 0.20367471E-01 0.18692096E+03</pdfrwt>
<pdfrwt beam="2">  1       -3 0.33490665E-01 0.18692096E+03</pdfrwt>
<totfact> 0.45931462E+02</totfact>
</mgrwt>
</event>
<event>
 7    1  0.2018715E-005  0.2034739E+03  0.7546771E-02  0.1148031E+00
         -1   -1    0    0    0  501 -0.00000000000E+00  0.00000000000E+00  0.94098945917E+02  0.94098945917E+02  0.00000000000E+00 0.  1.
          1   -1    0    0  501    0  0.00000000000E+00 -0.00000000000E+00 -0.43793745361E+03  0.43793745361E+03  0.00000000000E+00 0. -1.
         25    2    1    2    0    0 -0.14286197860E+03  0.55580297828E+02 -0.12902971862E+03  0.23615726802E+03  0.12499148978E+03 0.  0.
          5    1    1    2  502    0  0.69480710891E+02 -0.31466746021E+02 -0.20387436927E+03  0.21772591425E+03  0.47000000000E+01 0. -1.
         -5    1    3    3    0  503 -0.35874319808E+02 -0.22806229590E+02  0.10032996325E+02  0.43929966368E+02  0.47000000000E+01 0.  1.
          5    1    3    3  503    0 -0.10698765879E+03  0.78386527419E+02 -0.13906271494E+03  0.19222730166E+03  0.47000000000E+01 0.  1.
         -5    1    1    2    0  502  0.73381267710E+02 -0.24113551808E+02 -0.10934419813E+02  0.78153217260E+02  0.47000000000E+01 0.  1.
<mgrwt>
<rscale>  0 0.20203828E+03</rscale>
<asrwt>0</asrwt>
<pdfrwt beam="1">  1        1 0.67374995E-01 0.20347394E+03</pdfrwt>
<pdfrwt beam="2">  1       -1 0.14476761E-01 0.20347394E+03</pdfrwt>
<totfact> 0.18184477E+03</totfact>
</mgrwt>
</event>
<event>
 8    1  0.2018715E-005  0.1548737E+03  0.7546771E-02  0.1207065E+00
         -1   -1    0    0    0  501 -0.00000000000E+00  0.00000000000E+00  0.26660770136E+02  0.26660770136E+02  0.00000000000E+00 0.  1.
          1   -1    0    0  501    0  0.00000000000E+00 -0.00000000000E+00 -0.73318145763E+03  0.73318145763E+03  0.00000000000E+00 0. -1.
         25    2    1    2    0    0  0.61242948377E+02 -0.67897844208E+02 -0.47947622598E+03  0.50386835316E+03  0.12500020024E+03 0.  0.
         23    2    1    2    0    0 -0.61242948377E+02  0.67897844208E+02 -0.22704446152E+03  0.25597387461E+03  0.74917427902E+02 0.  0.
          5    1    3    3  502    0 -0.19208785189E+02 -0.20691126465E+02 -0.19807057904E+02  0.34806747703E+02  0.47000000000E+01 0. -1.
         -5    1    3    3    0  502  0.80451733565E+02 -0.47206717743E+02 -0.45966916808E+03  0.46906160546E+03  0.47000000000E+01 0. -1.
          5    1    4    4  503    0 -0.21385228919E+02 -0.21724257868E+01 -0.11938814354E+03  0.12139879022E+03  0.47000000000E+01 0. -1.
         -5    1    4    4    0  503 -0.39857719458E+02  0.70070269995E+02 -0.10765631798E+03  0.13457508439E+03  0.47000000000E+01 0.  1.
<mgrwt>
<rscale>  0 0.14475920E+03</rscale>
<asrwt>0</asrwt>
<pdfrwt beam="1">  1        1 0.11279713E+00 0.15487371E+03</pdfrwt>
<pdfrwt beam="2">  1       -1 0.41016577E-02 0.15487371E+03</pdfrwt>
<totfact> 0.60681979E+03</totfact>
</mgrwt>
</event>
<event>
 8    1  0.2018715E-005  0.1360442E+03  0.7546771E-02  0.1244962E+00
         -1   -1    0    0    0  501 -0.00000000000E+00  0.00000000000E+00  0.10554292145E+02  0.10554292145E+02  0.00000000000E+00 0.  1.
          1   -1    0    0  501    0  0.00000000000E+00 -0.00000000000E+00 -0.11263154564E+04  0.11263154564E+04  0.00000000000E+00 0. -1.
         25    2    1    2    0    0 -0.53624588411E+02  0.27580937400E+01 -0.78735590510E+03  0.79902273832E+03  0.12499924598E+03 0.  0.
         23    2    1    2    0    0  0.53624588411E+02 -0.27580937400E+01 -0.32840525919E+03  0.33784701026E+03  0.58372806284E+02 0.  0.
          5    1    3    3  502    0  0.38100633754E+02  0.59372417568E+01 -0.34779093506E+03  0.34995361642E+03  0.47000000000E+01 0.  1.
         -5    1    3    3    0  502 -0.91725222165E+02 -0.31791480168E+01 -0.43956497004E+03  0.44906912190E+03  0.47000000000E+01 0.  1.
          5    1    4    4  503    0  0.42165528217E+02 -0.19457023787E+02 -0.29373842009E+03  0.29742369943E+03  0.47000000000E+01 0. -1.
         -5    1    4    4    0  503  0.11459060194E+02  0.16698930047E+02 -0.34666839096E+02  0.40423310826E+02  0.47000000000E+01 0.  1.
<mgrwt>
<rscale>  0 0.11887659E+03</rscale>
<asrwt>0</asrwt>
<pdfrwt beam="1">  1        1 0.17327939E+00 0.13604417E+03</pdfrwt>
<pdfrwt beam="2">  1       -1 0.16237364E-02 0.13604417E+03</pdfrwt>
<totfact> 0.11589001E+04</totfact>
</mgrwt>
</event>
<event>
 8    1  0.2018715E-005  0.1474294E+03  0.7546771E-02  0.1218692E+00
         -2   -1    0    0    0  501 -0.00000000000E+00  0.00000000000E+00  0.23721329782E+02  0.23721329782E+02  0.00000000000E+00 0.  1.
          2   -1    0    0  501    0  0.00000000000E+00 -0.00000000000E+00 -0.94883705685E+03  0.94883705685E+03  0.00000000000E+00 0. -1.
         25    2    1    2    0    0 -0.27116772741E+02  0.73318952377E+02 -0.77069182066E+03  0.78466636158E+03  0.12499771365E+03 0.  0.
         23    2    1    2    0    0  0.27116772741E+02 -0.73318952377E+02 -0.15442390640E+03  0.18789202505E+03  0.73114171451E+02 0.  0.
          5    1    4    4  502    0 -0.21853178034E+02 -0.34717980891E+02 -0.84740854229E+02  0.94265592677E+02  0.47000000000E+01 0. -1.
         -5    1    3    3    0  503  0.24735649244E+02  0.83454423538E+02 -0.58813670625E+03  0.59456149252E+03  0.47000000000E+01 0. -1.
          5    1    3    3  503    0 -0.51852421984E+02 -0.10135471161E+02 -0.18255511441E+03  0.19010486906E+03  0.47000000000E+01 0. -1.
         -5    1    4    4    0  502  0.48969950774E+02 -0.38600971485E+02 -0.69683052176E+02  0.93626432373E+02  0.47000000000E+01 0.  1.
<mgrwt>
<rscale>  0 0.13608814E+03</rscale>
<asrwt>0</asrwt>
<pdfrwt beam="1">  1        2 0.14597493E+00 0.14742936E+03</pdfrwt>
<pdfrwt beam="2">  1       -2 0.36494354E-02 0.14742936E+03</pdfrwt>
<totfact> 0.86533451E+03</totfact>
</mgrwt>
</event>
<event>
 8    1  0.2543994E-005  0.1391023E+03  0.7546771E-02  0.1230472E+00
         -2   -1    0    0    0  501 -0.00000000000E+00  0.00000000000E+00  0.29737429003E+02  0.29737429003E+02  0.00000000000E+00 0.  1.
          2   -1    0    0  501    0  0.00000000000E+00 -0.00000000000E+00 -0.50076818139E+03  0.50076818139E+03  0.00000000000E+00 0. -1.
         25    2    1    2    0    0 -0.81834310329E+01 -0.60477403842E+02 -0.21864406124E+03  0.25914216936E+03  0.12499981403E+03 0.  0.
         23    2    1    2    0    0  0.81834310329E+01  0.60477403842E+02 -0.25238669114E+03  0.27136344103E+03  0.78832673061E+02 0.  0.
          5    1    4    4  502    0  0.21500283221E+02 -0.43185272753E+01 -0.13224977375E+03  0.13413800548E+03  0.47000000000E+01 0. -1.
         -5    1    3    3    0  503  0.38844972106E+02 -0.66921521189E+02 -0.18553106692E+03  0.20107533078E+03  0.47000000000E+01 0.  1.
          5    1    3    3  503    0 -0.47028403139E+02  0.64441173464E+01 -0.33112994329E+02  0.58066838588E+02  0.47000000000E+01 0.  1.
         -5    1    4    4    0  502 -0.13316852188E+02  0.64795931117E+02 -0.12013691739E+03  0.13722543555E+03  0.47000000000E+01 0.  1.
<mgrwt>
<rscale>  0 0.12798789E+03</rscale>
<asrwt>0</asrwt>
<pdfrwt beam="1">  1        2 0.77041257E-01 0.13910226E+03</pdfrwt>
<pdfrwt beam="2">  1       -2 0.45749892E-02 0.13910226E+03</pdfrwt>
<totfact> 0.13227119E+04</totfact>
</mgrwt>
</event>
<event>
 8    1  0.2018715E-005  0.1710629E+03  0.7546771E-02  0.1177390E+00
          1   -1    0    0  501    0  0.00000000000E+00  0.00000000000E+00  0.74271996414E+03  0.74271996414E+03  0.00000000000E+00 0. -1.
         -1   -1    0    0    0  501 -0.00000000000E+00 -0.00000000000E+00 -0.45174311714E+02  0.45174311714E+02  0.00000000000E+00 0.  1.
         25    2    1    2    0    0  0.57906324975E+02 -0.10138617322E+03  0.49859038089E+03  0.52711940914E+03  0.12502081819E+03 0.  0.
         23    2    1    2    0    0 -0.57906324975E+02  0.10138617322E+03  0.19895527153E+03  0.26077486671E+03  0.12160605431E+03 0.  0.
          5    1    4    4  502    0  0.38854937484E+01  0.36566146395E+02  0.15781647729E+03  0.16211203110E+03  0.47000000000E+01 0. -1.
         -5    1    4    4    0  502 -0.61791818724E+02  0.64820026825E+02  0.41138794240E+02  0.98662835609E+02  0.47000000000E+01 0.  1.
          5    1    3    3  503    0  0.40371291839E+02 -0.22795943729E+01  0.31568444987E+03  0.31829828721E+03  0.47000000000E+01 0. -1.
         -5    1    3    3    0  503  0.17535033136E+02 -0.99106578847E+02  0.18290593103E+03  0.20882112193E+03  0.47000000000E+01 0. -1.
<mgrwt>
<rscale>  0 0.17043958E+03</rscale>
<asrwt>0</asrwt>
<pdfrwt beam="1">  1        1 0.11426460E+00 0.17106286E+03</pdfrwt>
<pdfrwt beam="2">  1       -1 0.69498946E-02 0.17106286E+03</pdfrwt>
<totfact> 0.27235924E+03</totfact>
</mgrwt>
</event>
<event>
 8    1  0.2018715E-005  0.1318698E+03  0.7546771E-02  0.1231995E+00
         -2   -1    0    0    0  501 -0.00000000000E+00  0.00000000000E+00  0.38667659485E+03  0.38667659485E+03  0.00000000000E+00 0.  1.
          2   -1    0    0  501    0  0.00000000000E+00 -0.00000000000E+00 -0.41275226207E+02  0.41275226207E+02  0.00000000000E+00 0. -1.
         25    2    1    2    0    0 -0.42013067495E+02  0.58684176306E+00  0.23621263741E+03  0.27052921840E+03  0.12499682280E+03 0.  0.
         23    2    1    2    0    0  0.42013067495E+02 -0.58684176306E+00  0.10918873123E+03  0.15742260266E+03  0.10532926743E+03 0.  0.
          5    1    3    3  502    0 -0.33486143980E+01  0.53369265488E+02  0.51004752561E+02  0.74047731234E+02  0.47000000000E+01 0. -1.
         -5    1    3    3    0  502 -0.38664453097E+02 -0.52782423725E+02  0.18520788485E+03  0.19648148717E+03  0.47000000000E+01 0. -1.
          5    1    4    4  503    0 -0.18123859333E+02 -0.34061546423E+02  0.17362999991E+02  0.42570259460E+02  0.47000000000E+01 0. -1.
         -5    1    4    4    0  503  0.60136926828E+02  0.33474704660E+02  0.91825731242E+02  0.11485234320E+03  0.47000000000E+01 0.  1.
<mgrwt>
<rscale>  0 0.12698806E+03</rscale>
<asrwt>0</asrwt>
<pdfrwt beam="1">  1        2 0.63500351E-02 0.13186981E+03</pdfrwt>
<pdfrwt beam="2">  1       -2 0.59488705E-01 0.13186981E+03</pdfrwt>
<totfact> 0.29500760E+03</totfact>
</mgrwt>
</event>
<event>
 8    1  0.2018715E-005  0.1271099E+03  0.7546771E-02  0.1259064E+00
         -1   -1    0    0    0  501 -0.00000000000E+00  0.00000000000E+00  0.96503109836E+02  0.96503109836E+02  0.00000000000E+00 0.  1.
          1   -1    0    0  501    0  0.00000000000E+00 -0.00000000000E+00 -0.11382384845E+03  0.11382384845E+03  0.00000000000E+00 0. -1.
         25    2    1    2    0    0  0.22384655581E+02  0.53347946844E+01 -0.40361317111E+02  0.13336405269E+03  0.12500960679E+03 0.  0.
         23    2    1    2    0    0 -0.22384655581E+02 -0.53347946844E+01  0.23040578497E+02  0.76962905599E+02  0.69734408587E+02 0.  0.
          5    1    4    4  502    0  0.17699868591E+02  0.14207976722E+02 -0.54828694735E+01  0.23818140321E+02  0.47000000000E+01 0. -1.
         -5    1    3    3    0  503 -0.16967527500E+02 -0.36267095835E+02 -0.60308343017E+02  0.72542301227E+02  0.47000000000E+01 0.  1.
          5    1    3    3  503    0  0.39352183081E+02  0.41601890519E+02  0.19947025907E+02  0.60821751459E+02  0.47000000000E+01 0.  1.
         -5    1    4    4    0  502 -0.40084524172E+02 -0.19542771406E+02  0.28523447971E+02  0.53144765278E+02  0.47000000000E+01 0.  1.
<mgrwt>
<rscale>  0 0.11081730E+03</rscale>
<asrwt>0</asrwt>
<pdfrwt beam="1">  1        1 0.17511361E-01 0.12710993E+03</pdfrwt>
<pdfrwt beam="2">  1       -1 0.14846632E-01 0.12710993E+03</pdfrwt>
<totfact> 0.92964062E+03</totfact>
</mgrwt>
</event>
<event>
 8    1  0.2018715E-005  0.1312246E+03  0.7546771E-02  0.1249774E+00
         -1   -1    0    0    0  501 -0.00000000000E+00  0.00000000000E+00  0.31607975559E+03  0.31607975559E+03  0.00000000000E+00 0.  1.
          1   -1    0    0  501    0  0.00000000000E+00 -0.00000000000E+00 -0.40519188598E+02  0.40519188598E+02  0.00000000000E+00 0. -1.
         25    2    1    2    0    0 -0.17323071758E+01 -0.39900243027E+02  0.10484547449E+03  0.16796565203E+03  0.12499942584E+03 0.  0.
         23    2    1    2    0    0  0.17323071758E+01  0.39900243027E+02  0.17071509250E+03  0.18863329215E+03  0.69597742924E+02 0.  0.
          5    1    4    4  502    0 -0.26096314990E+02  0.97430643334E+01  0.11972897194E+03  0.12301650979E+03  0.47000000000E+01 0. -1.
         -5    1    4    4    0  502  0.27828622166E+02  0.30157178694E+02  0.50986120561E+02  0.65616782368E+02  0.47000000000E+01 0.  1.
          5    1    3    3  503    0 -0.61575864490E+02 -0.21597791984E+02  0.71448708412E+02  0.96876517485E+02  0.47000000000E+01 0. -1.
         -5    1    3    3    0  503  0.59843557314E+02 -0.18302451044E+02  0.33396766082E+02  0.71089134549E+02  0.47000000000E+01 0. -1.
<mgrwt>
<rscale>  0 0.11604131E+03</rscale>
<asrwt>0</asrwt>
<pdfrwt beam="1">  1        1 0.62337215E-02 0.13122457E+03</pdfrwt>
<pdfrwt beam="2">  1       -1 0.48627653E-01 0.13122457E+03</pdfrwt>
<totfact> 0.50459397E+03</totfact>
</mgrwt>
</event>
<event>
 8    1  0.2018715E-005  0.1884594E+03  0.7546771E-02  0.1167065E+00
          2   -1    0    0  501    0  0.00000000000E+00  0.00000000000E+00  0.10604782435E+04  0.10604782435E+04  0.00000000000E+00 0.  1.
         -2   -1    0    0    0  501 -0.00000000000E+00 -0.00000000000E+00 -0.32496860500E+02  0.32496860500E+02  0.00000000000E+00 0. -1.
         25    2    1    2    0    0  0.73062605101E+02 -0.12064047714E+03  0.74153093709E+03  0.76510462320E+03  0.12499873917E+03 0.  0.
         23    2    1    2    0    0 -0.73062605101E+02  0.12064047714E+03  0.28645044588E+03  0.32787048077E+03  0.74517952373E+02 0.  0.
          5    1    3    3  502    0  0.25125647501E+02  0.19443470923E+02  0.24047252245E+03  0.24260764782E+03  0.47000000000E+01 0. -1.
         -5    1    4    4    0  503 -0.46759246224E+02  0.23884436309E+02  0.14609666892E+03  0.15531651579E+03  0.47000000000E+01 0.  1.
          5    1    4    4  503    0 -0.26303358877E+02  0.96756040830E+02  0.14035377696E+03  0.17255396498E+03  0.47000000000E+01 0. -1.
         -5    1    3    3    0  502  0.47936957599E+02 -0.14008394806E+03  0.50105841463E+03  0.52249697538E+03  0.47000000000E+01 0. -1.
<mgrwt>
<rscale>  0 0.18076490E+03</rscale>
<asrwt>0</asrwt>
<pdfrwt beam="1">  1        2 0.16315047E+00 0.18845942E+03</pdfrwt>
<pdfrwt beam="2">  1       -2 0.49995178E-02 0.18845942E+03</pdfrwt>
<totfact> 0.46709706E+03</totfact>
</mgrwt>
</event>
<event>
 8    1  0.2018715E-005  0.1980437E+03  0.7546771E-02  0.1153861E+00
         -1   -1    0    0    0  501 -0.00000000000E+00  0.00000000000E+00  0.62899972986E+02  0.62899972986E+02  0.00000000000E+00 0.  1.
          1   -1    0    0  501    0  0.00000000000E+00 -0.00000000000E+00 -0.59670556512E+03  0.59670556512E+03  0.00000000000E+00 0. -1.
         25    2    1    2    0    0  0.13275557467E+02 -0.15303173961E+03 -0.23681527035E+03  0.30871151320E+03  0.12500548931E+03 0.  0.
         23    2    1    2    0    0 -0.13275557467E+02  0.15303173961E+03 -0.29699032178E+03  0.35089402490E+03  0.10643501175E+03 0.  0.
          5    1    3    3  502    0  0.34471883016E+02 -0.16772126330E+03 -0.19716917241E+03  0.26118289651E+03  0.47000000000E+01 0. -1.
         -5    1    3    3    0  502 -0.21196325548E+02  0.14689523685E+02 -0.39646097945E+02  0.47528616697E+02  0.47000000000E+01 0. -1.
          5    1    4    4  503    0  0.35019406468E+02  0.51196150149E+02 -0.17006890276E+03  0.18108817274E+03  0.47000000000E+01 0. -1.
         -5    1    4    4    0  503 -0.48294963935E+02  0.10183558946E+03 -0.12692141902E+03  0.16980585216E+03  0.47000000000E+01 0.  1.
<mgrwt>
<rscale>  0 0.19519126E+03</rscale>
<asrwt>0</asrwt>
<pdfrwt beam="1">  1        1 0.91800859E-01 0.19804375E+03</pdfrwt>
<pdfrwt beam="2">  1       -1 0.96769187E-02 0.19804375E+03</pdfrwt>
<totfact> 0.22547993E+03</totfact>
</mgrwt>
</event>
<event>
 8    1  0.2018715E-005  0.1418602E+03  0.7546771E-02  0.1225840E+00
          1   -1    0    0  501    0  0.00000000000E+00  0.00000000000E+00  0.85597947053E+03  0.85597947053E+03  0.00000000000E+00 0. -1.
         -1   -1    0    0    0  501 -0.00000000000E+00 -0.00000000000E+00 -0.33721423934E+02  0.33721423934E+02  0.00000000000E+00 0.  1.
         25    2    1    2    0    0 -0.67074694170E+02 -0.82416098809E-01  0.13884064195E+03  0.19849692199E+03  0.12500113116E+03 0.  0.
         23    2    1    2    0    0  0.67074694170E+02  0.82416098809E-01  0.68341740464E+03  0.69120397247E+03  0.78769037085E+02 0.  0.
          5    1    4    4  502    0  0.47724725790E+02 -0.31731867370E+02  0.53631841848E+03  0.53939234038E+03  0.47000000000E+01 0. -1.
         -5    1    3    3    0  503 -0.99122067845E+02  0.20567711836E+02  0.84493165616E+02  0.13194468591E+03  0.47000000000E+01 0.  1.
          5    1    3    3  503    0  0.32047373675E+02 -0.20650127935E+02  0.54347476338E+02  0.66552236082E+02  0.47000000000E+01 0.  1.
         -5    1    4    4    0  502  0.19349968380E+02  0.31814283469E+02  0.14709898616E+03  0.15181163209E+03  0.47000000000E+01 0.  1.
<mgrwt>
<rscale>  0 0.13109510E+03</rscale>
<asrwt>0</asrwt>
<pdfrwt beam="1">  1        1 0.13168913E+00 0.14186016E+03</pdfrwt>
<pdfrwt beam="2">  1       -1 0.51879120E-02 0.14186016E+03</pdfrwt>
<totfact> 0.33833687E+03</totfact>
</mgrwt>
</event>
<event>
 7    1  0.2018715E-005  0.1672295E+03  0.7546771E-02  0.1183505E+00
          2   -1    0    0  501    0  0.00000000000E+00  0.00000000000E+00  0.40845220574E+02  0.40845220574E+02  0.00000000000E+00 0. -1.
         -2   -1    0    0    0  501 -0.00000000000E+00 -0.00000000000E+00 -0.66050897259E+03  0.66050897259E+03  0.00000000000E+00 0.  1.
         25    2    1    2    0    0  0.95433055373E+02 -0.27752042680E+01 -0.35500162160E+03  0.38828591112E+03  0.12499851047E+03 0.  0.
          5    1    1    2  502    0 -0.51161998987E+02  0.21788294215E+02 -0.13678238856E+02  0.57458368610E+02  0.47000000000E+01 0. -1.
         -5    1    1    2    0  502 -0.44271056386E+02 -0.19013089947E+02 -0.25098389156E+03  0.25560991343E+03  0.47000000000E+01 0.  1.
          5    1    3    3  503    0  0.47161809208E+02  0.60577044263E+02 -0.15749674004E+03  0.17527443528E+03  0.47000000000E+01 0. -1.
         -5    1    3    3    0  503  0.48271246165E+02 -0.63352248531E+02 -0.19750488156E+03  0.21301147584E+03  0.47000000000E+01 0. -1.
<mgrwt>
<rscale>  0 0.16468695E+03</rscale>
<asrwt>0</asrwt>
<pdfrwt beam="1">  1        2 0.62838804E-02 0.16722950E+03</pdfrwt>
<pdfrwt beam="2">  1       -2 0.10161676E+00 0.16722950E+03</pdfrwt>
<totfact> 0.94287240E+02</totfact>
</mgrwt>
</event>
<event>
 8    1  0.2018715E-005  0.1659754E+03  0.7546771E-02  0.1185156E+00
         -1   -1    0    0    0  501 -0.00000000000E+00  0.00000000000E+00  0.81417004740E+02  0.81417004740E+02  0.00000000000E+00 0.  1.
          1   -1    0    0  501    0  0.00000000000E+00 -0.00000000000E+00 -0.33297644850E+03  0.33297644850E+03  0.00000000000E+00 0. -1.
         25    2    1    2    0    0  0.60559649967E+02  0.90866658945E+02 -0.17594295438E+03  0.24187546652E+03  0.12499438867E+03 0.  0.
         23    2    1    2    0    0 -0.60559649967E+02 -0.90866658945E+02 -0.75616489385E+02  0.17251798672E+03  0.11009260358E+03 0.  0.
          5    1    3    3  502    0  0.21032074852E+01  0.10499818569E+03 -0.10236656656E+03  0.14673120469E+03  0.47000000000E+01 0. -1.
         -5    1    3    3    0  502  0.58456442482E+02 -0.14131526744E+02 -0.73576387818E+02  0.95144261834E+02  0.47000000000E+01 0. -1.
          5    1    4    4  503    0 -0.42924144163E+01 -0.90360949547E+02 -0.72396780219E+02  0.11596081153E+03  0.47000000000E+01 0. -1.
         -5    1    4    4    0  503 -0.56267235551E+02 -0.50570939797E+00 -0.32197091652E+01  0.56557175191E+02  0.47000000000E+01 0.  1.
<mgrwt>
<rscale>  0 0.16317736E+03</rscale>
<asrwt>0</asrwt>
<pdfrwt beam="1">  1        1 0.51227146E-01 0.16597535E+03</pdfrwt>
<pdfrwt beam="2">  1       -1 0.12525693E-01 0.16597535E+03</pdfrwt>
<totfact> 0.32099302E+03</totfact>
</mgrwt>
</event>
<event>
 8    1  0.2018715E-005  0.4567055E+03  0.7546771E-02  0.1026067E+00
         -1   -1    0    0    0  501 -0.00000000000E+00  0.00000000000E+00  0.14746250249E+03  0.14746250249E+03  0.00000000000E+00 0.  1.
          1   -1    0    0  501    0  0.00000000000E+00 -0.00000000000E+00 -0.15594425510E+04  0.15594425510E+04  0.00000000000E+00 0. -1.
         25    2    1    2    0    0  0.65518956983E+02  0.43435040420E+03 -0.43685885464E+03  0.63200121854E+03  0.12500749579E+03 0.  0.
         23    2    1    2    0    0 -0.65518956983E+02 -0.43435040420E+03 -0.97512119391E+03  0.10749038350E+04  0.10772142002E+03 0.  0.
          5    1    3    3  502    0 -0.35291377035E+02  0.11676964257E+03 -0.95838292883E+02  0.15520212338E+03  0.47000000000E+01 0. -1.
         -5    1    4    4    0  503  0.30723552044E+01 -0.11753102183E+03 -0.16800141613E+03  0.20510862069E+03  0.47000000000E+01 0.  1.
          5    1    4    4  503    0 -0.68591312188E+02 -0.31681938237E+03 -0.80711977778E+03  0.86979521431E+03  0.47000000000E+01 0. -1.
         -5    1    3    3    0  502  0.10081033402E+03  0.31758076163E+03 -0.34102056176E+03  0.47679909516E+03  0.47000000000E+01 0. -1.
<mgrwt>
<rscale>  0 0.45559498E+03</rscale>
<asrwt>0</asrwt>
<pdfrwt beam="1">  1        1 0.23991423E+00 0.45670546E+03</pdfrwt>
<pdfrwt beam="2">  1       -1 0.22686540E-01 0.45670546E+03</pdfrwt>
<totfact> 0.10417543E+02</totfact>
</mgrwt>
</event>
<event>
 8    1  0.2018715E-005  0.1658661E+03  0.7546771E-02  0.1182232E+00
          1   -1    0    0  501    0  0.00000000000E+00  0.00000000000E+00  0.12951503881E+03  0.12951503881E+03  0.00000000000E+00 0. -1.
         -1   -1    0    0    0  501 -0.00000000000E+00 -0.00000000000E+00 -0.24242504366E+03  0.24242504366E+03  0.00000000000E+00 0.  1.
         25    2    1    2    0    0 -0.10761313985E+03  0.17394621191E+02 -0.12189600687E+03  0.20583079370E+03  0.12499807371E+03 0.  0.
         23    2    1    2    0    0  0.10761313985E+03 -0.17394621191E+02  0.89860020100E+01  0.16610928877E+03  0.12501354674E+03 0.  0.
          5    1    4    4  502    0  0.11509954078E+03  0.14748627494E+02  0.37710120361E+02  0.12210474798E+03  0.47000000000E+01 0. -1.
         -5    1    3    3    0  503 -0.11753070999E+03  0.47169719540E+02 -0.69398854066E+02  0.14448785824E+03  0.47000000000E+01 0. -1.
          5    1    3    3  503    0  0.99175701363E+01 -0.29775098349E+02 -0.52497152803E+02  0.61342935465E+02  0.47000000000E+01 0. -1.
         -5    1    4    4    0  502 -0.74864009314E+01 -0.32143248685E+02 -0.28724118350E+02  0.44004540787E+02  0.47000000000E+01 0.  1.
<mgrwt>
<rscale>  0 0.16586314E+03</rscale>
<asrwt>0</asrwt>
<pdfrwt beam="1">  1        1 0.19925391E-01 0.16586605E+03</pdfrwt>
<pdfrwt beam="2">  1       -1 0.37296160E-01 0.16586605E+03</pdfrwt>
<totfact> 0.17653989E+03</totfact>
</mgrwt>
</event>
<event>
 8    1  0.2018715E-005  0.1319076E+03  0.7546771E-02  0.1243720E+00
         -2   -1    0    0    0  501 -0.00000000000E+00  0.00000000000E+00  0.11812966947E+03  0.11812966947E+03  0.00000000000E+00 0.  1.
          2   -1    0    0  501    0  0.00000000000E+00 -0.00000000000E+00 -0.15401840870E+03  0.15401840870E+03  0.00000000000E+00 0. -1.
         25    2    1    2    0    0 -0.41366942456E+02 -0.79648265645E+01  0.56692220900E+02  0.14357448480E+03  0.12499984954E+03 0.  0.
         23    2    1    2    0    0  0.41366942456E+02  0.79648265645E+01 -0.92580960127E+02  0.12857359337E+03  0.78646502427E+02 0.  0.
          5    1    4    4  502    0  0.27819700970E+02  0.24758256653E+02 -0.98751681279E+02  0.10564512099E+03  0.47000000000E+01 0. -1.
         -5    1    3    3    0  503  0.28395653914E+02  0.35951867052E+02  0.53950535449E+01  0.46368593989E+02  0.47000000000E+01 0. -1.
          5    1    3    3  503    0 -0.69762596370E+02 -0.43916693617E+02  0.51297167356E+02  0.97205890815E+02  0.47000000000E+01 0. -1.
         -5    1    4    4    0  502  0.13547241486E+02 -0.16793430089E+02  0.61707211511E+01  0.22928472377E+02  0.47000000000E+01 0.  1.
<mgrwt>
<rscale>  0 0.11962340E+03</rscale>
<asrwt>0</asrwt>
<pdfrwt beam="1">  1        2 0.23695140E-01 0.13190764E+03</pdfrwt>
<pdfrwt beam="2">  1       -2 0.18173795E-01 0.13190764E+03</pdfrwt>
<totfact> 0.53882418E+03</totfact>
</mgrwt>
</event>
<event>
 8    1  0.2018715E-005  0.1426377E+03  0.7546771E-02  0.1216206E+00
         -2   -1    0    0    0  501 -0.00000000000E+00  0.00000000000E+00  0.32689154188E+02  0.32689154188E+02  0.00000000000E+00 0.  1.
          2   -1    0    0  501    0  0.00000000000E+00 -0.00000000000E+00 -0.54597574397E+03  0.54597574397E+03  0.00000000000E+00 0. -1.
         25    2    1    2    0    0  0.58736838646E+01  0.68444781339E+02 -0.27287524047E+03  0.30790647342E+03  0.12500524491E+03 0.  0.
         23    2    1    2    0    0 -0.58736838646E+01 -0.68444781339E+02 -0.24041134931E+03  0.27075842474E+03  0.10389090161E+03 0.  0.
          5    1    4    4  502    0  0.31295285565E+02 -0.25822379804E+01 -0.14744061682E+03  0.15082071589E+03  0.47000000000E+01 0. -1.
         -5    1    3    3    0  503  0.40221523832E+01 -0.32455727755E+02 -0.29106295729E+02  0.44032015909E+02  0.47000000000E+01 0.  1.
          5    1    3    3  503    0  0.18515314814E+01  0.10090050909E+03 -0.24376894474E+03  0.26387445751E+03  0.47000000000E+01 0.  1.
         -5    1    4    4    0  502 -0.37168969429E+02 -0.65862543359E+02 -0.92970732492E+02  0.11993770886E+03  0.47000000000E+01 0.  1.
<mgrwt>
<rscale>  0 0.13788305E+03</rscale>
<asrwt>0</asrwt>
<pdfrwt beam="1">  1        2 0.83996272E-01 0.14263765E+03</pdfrwt>
<pdfrwt beam="2">  1       -2 0.50291004E-02 0.14263765E+03</pdfrwt>
<totfact> 0.10447187E+04</totfact>
</mgrwt>
</event>
<event>
 8    1  0.2018715E-005  0.1255427E+03  0.7546771E-02  0.1263416E+00
         -2   -1    0    0    0  501 -0.00000000000E+00  0.00000000000E+00  0.22906337389E+03  0.22906337389E+03  0.00000000000E+00 0.  1.
          2   -1    0    0  501    0  0.00000000000E+00 -0.00000000000E+00 -0.57376881034E+02  0.57376881034E+02  0.00000000000E+00 0. -1.
         25    2    1    2    0    0  0.12185838993E+00 -0.11685862262E+02  0.17615905772E+03  0.21631686314E+03  0.12499758972E+03 0.  0.
         23    2    1    2    0    0 -0.12185838993E+00  0.11685862262E+02 -0.44725648568E+01  0.70123391788E+02  0.68997913107E+02 0.  0.
          5    1    4    4  502    0  0.31355157855E+02  0.19555295710E+01  0.10738554681E+02  0.33531724928E+02  0.47000000000E+01 0. -1.
         -5    1    4    4    0  502 -0.31477016245E+02  0.97303326914E+01 -0.15211119537E+02  0.36591666860E+02  0.47000000000E+01 0.  1.
          5    1    3    3  503    0  0.58913997452E+02 -0.25895339007E+02  0.82710327974E+02  0.10490241194E+03  0.47000000000E+01 0.  1.
         -5    1    3    3    0  503 -0.58792139062E+02  0.14209476745E+02  0.93448729742E+02  0.11141445120E+03  0.47000000000E+01 0.  1.
<mgrwt>
<rscale>  0 0.10847710E+03</rscale>
<asrwt>0</asrwt>
<pdfrwt beam="1">  1        2 0.88272126E-02 0.12554271E+03</pdfrwt>
<pdfrwt beam="2">  1       -2 0.35240518E-01 0.12554271E+03</pdfrwt>
<totfact> 0.53670819E+03</totfact>
</mgrwt>
</event>
<event>
 7    1  0.2018715E-005  0.1434555E+03  0.7546771E-02  0.1237376E+00
         -1   -1    0    0    0  501 -0.00000000000E+00  0.00000000000E+00  0.46451492394E+02  0.46451492394E+02  0.00000000000E+00 0.  1.
          1   -1    0    0  501    0  0.00000000000E+00 -0.00000000000E+00 -0.26671880804E+03  0.26671880804E+03  0.00000000000E+00 0. -1.
         25    2    1    2    0    0  0.94897138735E+01  0.69755474455E+02 -0.13462974065E+03  0.19673498701E+03  0.12499442852E+03 0.  0.
          5    1    3    3  502    0 -0.42127075455E+02  0.70087636482E+02 -0.11526571952E+03  0.14140453801E+03  0.47000000000E+01 0.  1.
         -5    1    3    3    0  502  0.51616789328E+02 -0.33216202703E+00 -0.19364021134E+02  0.55330449001E+02  0.47000000000E+01 0.  1.
          5    1    1    2  503    0 -0.27139723390E+01 -0.35607192041E+02 -0.68400870885E+02  0.77304637046E+02  0.47000000000E+01 0. -1.
         -5    1    1    2    0  503 -0.67757415345E+01 -0.34148282414E+02 -0.17236704109E+02  0.39130676377E+02  0.47000000000E+01 0.  1.
<mgrwt>
<rscale>  0 0.12353537E+03</rscale>
<asrwt>0</asrwt>
<pdfrwt beam="1">  1        1 0.41033664E-01 0.14345553E+03</pdfrwt>
<pdfrwt beam="2">  1       -1 0.71463833E-02 0.14345553E+03</pdfrwt>
<totfact> 0.98821152E+03</totfact>
</mgrwt>
</event>
<event>
 8    1  0.2018715E-005  0.1340946E+03  0.7546771E-02  0.1249234E+00
          2   -1    0    0  501    0  0.00000000000E+00  0.00000000000E+00  0.11475532430E+03  0.11475532430E+03  0.00000000000E+00 0. -1.
         -2   -1    0    0    0  501 -0.00000000000E+00 -0.00000000000E+00 -0.12875100846E+03  0.12875100846E+03  0.00000000000E+00 0.  1.
         25    2    1    2    0    0 -0.34039054574E+02 -0.34594153582E+02  0.51026335732E+02  0.14347487592E+03  0.12500376148E+03 0.  0.
         23    2    1    2    0    0  0.34039054574E+02  0.34594153582E+02 -0.65022019893E+02  0.10003145684E+03  0.58506551662E+02 0.  0.
          5    1    3    3  502    0 -0.39609120873E+02  0.25323387166E+02 -0.19089632665E+02  0.50957437820E+02  0.47000000000E+01 0.  1.
         -5    1    4    4    0  503  0.29296298354E+02 -0.69938789427E+01 -0.42397888464E+02  0.52219329621E+02  0.47000000000E+01 0.  1.
          5    1    4    4  503    0  0.47427562195E+01  0.41588032524E+02 -0.22624131429E+02  0.47812127214E+02  0.47000000000E+01 0. -1.
         -5    1    3    3    0  502  0.55700662994E+01 -0.59917540748E+02  0.70115968398E+02  0.92517438098E+02  0.47000000000E+01 0.  1.
<mgrwt>
<rscale>  0 0.11635488E+03</rscale>
<asrwt>0</asrwt>
<pdfrwt beam="1">  1        2 0.17654665E-01 0.13409457E+03</pdfrwt>
<pdfrwt beam="2">  1       -2 0.19807847E-01 0.13409457E+03</pdfrwt>
<totfact> 0.65042381E+03</totfact>
</mgrwt>
</event>
<event>
 7    1  0.2018715E-005  0.1568067E+03  0.7546771E-02  0.1197635E+00
          2   -1    0    0  501    0  0.00000000000E+00  0.00000000000E+00  0.19260425557E+03  0.19260425557E+03  0.00000000000E+00 0. -1.
         -2   -1    0    0    0  501 -0.00000000000E+00 -0.00000000000E+00 -0.11782155337E+03  0.11782155337E+03  0.00000000000E+00 0.  1.
         25    2    1    2    0    0  0.16979187300E+02 -0.59940674411E+02  0.62887419668E+02  0.15316861154E+03  0.12499847502E+03 0.  0.
          5    1    1    2  502    0 -0.49117905844E+02 -0.10784781377E+02  0.49589662129E+02  0.70782093597E+02  0.47000000000E+01 0. -1.
         -5    1    3    3    0  503 -0.33208196334E+02  0.11778845630E+02 -0.12365799906E+02  0.37636797359E+02  0.47000000000E+01 0. -1.
          5    1    3    3  503    0  0.50187383634E+02 -0.71719520042E+02  0.75253219574E+02  0.11553181418E+03  0.47000000000E+01 0. -1.
         -5    1    1    2    0  502  0.32138718544E+02  0.70725455789E+02 -0.37694379592E+02  0.86475103810E+02  0.47000000000E+01 0.  1.
<mgrwt>
<rscale>  0 0.15233294E+03</rscale>
<asrwt>0</asrwt>
<pdfrwt beam="1">  1        2 0.29631424E-01 0.15680666E+03</pdfrwt>
<pdfrwt beam="2">  1       -2 0.18126393E-01 0.15680666E+03</pdfrwt>
<totfact> 0.42774924E+03</totfact>
</mgrwt>
</event>
<event>
 8    1  0.2018715E-005  0.2485000E+03  0.7546771E-02  0.1115230E+00
         -1   -1    0    0    0  501 -0.00000000000E+00  0.00000000000E+00  0.91073540739E+02  0.91073540739E+02  0.00000000000E+00 0.  1.
          1   -1    0    0  501    0  0.00000000000E+00 -0.00000000000E+00 -0.68735584250E+03  0.68735584250E+03  0.00000000000E+00 0. -1.
         25    2    1    2    0    0  0.16982780608E+03  0.13147314950E+03 -0.22644862351E+03  0.33620116657E+03  0.12500229021E+03 0.  0.
         23    2    1    2    0    0 -0.16982780608E+03 -0.13147314950E+03 -0.36983367825E+03  0.44222821667E+03  0.11252632267E+03 0.  0.
          5    1    3    3  502    0 -0.19420456064E+02  0.83035795243E+01 -0.29199985356E+02  0.36343261981E+02  0.47000000000E+01 0. -1.
         -5    1    4    4    0  503 -0.43738195613E+02 -0.78652127787E+02 -0.75133839433E+02  0.11733017851E+03  0.47000000000E+01 0.  1.
          5    1    4    4  503    0 -0.12608961046E+03 -0.52821021713E+02 -0.29469983881E+03  0.32489803816E+03  0.47000000000E+01 0. -1.
         -5    1    3    3    0  502  0.18924826214E+03  0.12316956998E+03 -0.19724863816E+03  0.29985790459E+03  0.47000000000E+01 0. -1.
<mgrwt>
<rscale>  0 0.24697708E+03</rscale>
<asrwt>0</asrwt>
<pdfrwt beam="1">  1        1 0.10574706E+00 0.24849999E+03</pdfrwt>
<pdfrwt beam="2">  1       -1 0.14011314E-01 0.24849999E+03</pdfrwt>
<totfact> 0.10393769E+03</totfact>
</mgrwt>
</event>
<event>
 8    1  0.2018715E-005  0.1520906E+03  0.7546771E-02  0.1198928E+00
         -1   -1    0    0    0  501 -0.00000000000E+00  0.00000000000E+00  0.67953906191E+03  0.67953906191E+03  0.00000000000E+00 0.  1.
          1   -1    0    0  501    0  0.00000000000E+00 -0.00000000000E+00 -0.43833244817E+02  0.43833244817E+02  0.00000000000E+00 0. -1.
         25    2    1    2    0    0  0.86638953661E+02  0.39843831616E-01  0.14327935450E+03  0.20895102652E+03  0.12500099271E+03 0.  0.
         23    2    1    2    0    0 -0.86638953661E+02 -0.39843831616E-01  0.49242646259E+03  0.51442128020E+03  0.12099224186E+03 0.  0.
          5    1    3    3  502    0  0.11699086732E+03  0.14509109687E+02  0.11515453510E+03  0.16486368385E+03  0.47000000000E+01 0.  1.
         -5    1    4    4    0  503 -0.27813904671E+02  0.27999690985E+02  0.39573204982E+03  0.39772294533E+03  0.47000000000E+01 0.  1.
          5    1    4    4  503    0 -0.58825048990E+02 -0.28039534817E+02  0.96694412771E+02  0.11669833487E+03  0.47000000000E+01 0. -1.
         -5    1    3    3    0  502 -0.30351913657E+02 -0.14469265856E+02  0.28124819403E+02  0.44087342668E+02  0.47000000000E+01 0.  1.
<mgrwt>
<rscale>  0 0.15126462E+03</rscale>
<asrwt>0</asrwt>
<pdfrwt beam="1">  1        1 0.67435766E-02 0.15209062E+03</pdfrwt>
<pdfrwt beam="2">  1       -1 0.10454446E+00 0.15209062E+03</pdfrwt>
<totfact> 0.98959870E+02</totfact>
</mgrwt>
</event>
<event>
 7    1  0.2018715E-005  0.1472957E+03  0.7546771E-02  0.1228198E+00
          3   -1    0    0  501    0  0.00000000000E+00  0.00000000000E+00  0.20029649583E+03  0.20029649583E+03  0.00000000000E+00 0. -1.
         -3   -1    0    0    0  501 -0.00000000000E+00 -0.00000000000E+00 -0.69794979799E+02  0.69794979799E+02  0.00000000000E+00 0.  1.
         25    2    1    2    0    0 -0.76116390835E+02  0.16719718330E+02  0.94504853020E+02  0.17500622850E+03  0.12499103502E+03 0.  0.
          5    1    3    3  502    0 -0.51486637145E+02 -0.49214993958E+02  0.24090761929E+02  0.75335544367E+02  0.47000000000E+01 0. -1.
         -5    1    1    2    0  503  0.44150190107E+02 -0.12638201018E+02 -0.50668951762E+00  0.46166114692E+02  0.47000000000E+01 0.  1.
          5    1    1    2  503    0  0.31966200728E+02 -0.40815173122E+01  0.36503352528E+02  0.48919132436E+02  0.47000000000E+01 0. -1.
         -5    1    3    3    0  502 -0.24629753691E+02  0.65934712288E+02  0.70414091091E+02  0.99670684133E+02  0.47000000000E+01 0. -1.
<mgrwt>
<rscale>  0 0.12950104E+03</rscale>
<asrwt>0</asrwt>
<pdfrwt beam="1">  1        3 0.30814845E-01 0.14729566E+03</pdfrwt>
<pdfrwt beam="2">  1       -3 0.10737689E-01 0.14729566E+03</pdfrwt>
<totfact> 0.15579295E+03</totfact>
</mgrwt>
</event>
<event>
 8    1  0.2018715E-005  0.1679060E+03  0.7546771E-02  0.1189700E+00
         -2   -1    0    0    0  501 -0.00000000000E+00  0.00000000000E+00  0.26307607764E+02  0.26307607764E+02  0.00000000000E+00 0.  1.
          2   -1    0    0  501    0  0.00000000000E+00 -0.00000000000E+00 -0.13787353739E+04  0.13787353739E+04  0.00000000000E+00 0. -1.
         25    2    1    2    0    0  0.10346725596E+03  0.43165814643E+02 -0.11455571724E+04  0.11577968936E+04  0.12499460338E+03 0.  0.
         23    2    1    2    0    0 -0.10346725596E+03 -0.43165814643E+02 -0.20687059378E+03  0.24724608815E+03  0.75936979967E+02 0.  0.
          5    1    4    4  502    0 -0.63446272417E+02 -0.39829448519E+02 -0.18838366532E+03  0.20278636495E+03  0.47000000000E+01 0. -1.
         -5    1    3    3    0  503 -0.37903962225E+01  0.56425028232E+02 -0.50386126807E+03  0.50704676153E+03  0.47000000000E+01 0.  1.
          5    1    3    3  503    0  0.10725765219E+03 -0.13259213589E+02 -0.64169590434E+03  0.65075013203E+03  0.47000000000E+01 0.  1.
         -5    1    4    4    0  502 -0.40020983547E+02 -0.33363661238E+01 -0.18486928460E+02  0.44459723198E+02  0.47000000000E+01 0.  1.
<mgrwt>
<rscale>  0 0.15911468E+03</rscale>
<asrwt>0</asrwt>
<pdfrwt beam="1">  1        2 0.21211311E+00 0.16790596E+03</pdfrwt>
<pdfrwt beam="2">  1       -2 0.40473247E-02 0.16790596E+03</pdfrwt>
<totfact> 0.42496622E+03</totfact>
</mgrwt>
</event>
<event>
 8    1  0.2018715E-005  0.1895656E+03  0.7546771E-02  0.1165572E+00
          3   -1    0    0  501    0  0.00000000000E+00  0.00000000000E+00  0.46946458503E+03  0.46946458503E+03  0.00000000000E+00 0. -1.
         -3   -1    0    0    0  501 -0.00000000000E+00 -0.00000000000E+00 -0.65903063253E+02  0.65903063253E+02  0.00000000000E+00 0.  1.
         25    2    1    2    0    0 -0.11259036018E+03 -0.87369054669E+02  0.21598471363E+03  0.28737518762E+03  0.12500064407E+03 0.  0.
         23    2    1    2    0    0  0.11259036018E+03  0.87369054669E+02  0.18757680815E+03  0.24799246067E+03  0.77493616980E+02 0.  0.
          5    1    4    4  502    0  0.13679743603E+02  0.19884282763E+02  0.90477767772E+02  0.93759461107E+02  0.47000000000E+01 0. -1.
         -5    1    4    4    0  502  0.98910616577E+02  0.67484771905E+02  0.97099040377E+02  0.15423299956E+03  0.47000000000E+01 0.  1.
          5    1    3    3  503    0 -0.90344801851E+02  0.55231247782E+01  0.13186230711E+03  0.16000764408E+03  0.47000000000E+01 0. -1.
         -5    1    3    3    0  503 -0.22245558329E+02 -0.92892179447E+02  0.84122406526E+02  0.12736754354E+03  0.47000000000E+01 0. -1.
<mgrwt>
<rscale>  0 0.18232466E+03</rscale>
<asrwt>0</asrwt>
<pdfrwt beam="1">  1        3 0.72225319E-01 0.18956556E+03</pdfrwt>
<pdfrwt beam="2">  1       -3 0.10138933E-01 0.18956556E+03</pdfrwt>
<totfact> 0.32602444E+02</totfact>
</mgrwt>
</event>
<event>
 8    1  0.2018715E-005  0.1335052E+03  0.7546771E-02  0.1225563E+00
          2   -1    0    0  501    0  0.00000000000E+00  0.00000000000E+00  0.34560093017E+03  0.34560093017E+03  0.00000000000E+00 0. -1.
         -2   -1    0    0    0  501 -0.00000000000E+00 -0.00000000000E+00 -0.60784409238E+02  0.60784409238E+02  0.00000000000E+00 0.  1.
         25    2    1    2    0    0 -0.34849096660E+02 -0.31376180732E+02  0.23832243261E+03  0.27316886821E+03  0.12499889768E+03 0.  0.
         23    2    1    2    0    0  0.34849096660E+02  0.31376180732E+02  0.46494088323E+02  0.13321647120E+03  0.11569789840E+03 0.  0.
          5    1    4    4  502    0  0.39011166459E+02 -0.25062540832E+02  0.58881677101E+02  0.75094233864E+02  0.47000000000E+01 0. -1.
         -5    1    3    3    0  503  0.14817180369E+02  0.41484497568E+02  0.65199612503E+02  0.78826339780E+02  0.47000000000E+01 0. -1.
          5    1    3    3  503    0 -0.49666277028E+02 -0.72860678300E+02  0.17312282010E+03  0.19434252843E+03  0.47000000000E+01 0. -1.
         -5    1    4    4    0  502 -0.41620697993E+01  0.56438721564E+02 -0.12387588777E+02  0.58122237332E+02  0.47000000000E+01 0.  1.
<mgrwt>
<rscale>  0 0.13128401E+03</rscale>
<asrwt>0</asrwt>
<pdfrwt beam="1">  1        2 0.53169373E-01 0.13350524E+03</pdfrwt>
<pdfrwt beam="2">  1       -2 0.93514478E-02 0.13350524E+03</pdfrwt>
<totfact> 0.66025975E+03</totfact>
</mgrwt>
</event>
<event>
 8    1  0.2018715E-005  0.2053564E+03  0.7546771E-02  0.1151120E+00
         -4   -1    0    0    0  501 -0.00000000000E+00  0.00000000000E+00  0.23810202066E+03  0.23810202066E+03  0.00000000000E+00 0.  1.
          4   -1    0    0  501    0  0.00000000000E+00 -0.00000000000E+00 -0.17160199482E+03  0.17160199482E+03  0.00000000000E+00 0. -1.
         25    2    1    2    0    0 -0.87445051382E+02  0.13747522204E+03 -0.28330999140E+02  0.20730146670E+03  0.12500071559E+03 0.  0.
         23    2    1    2    0    0  0.87445051382E+02 -0.13747522204E+03  0.94831024976E+02  0.20240254878E+03  0.73673568998E+02 0.  0.
          5    1    4    4  502    0  0.97357373025E+02 -0.10743191049E+03  0.88105391093E+02  0.16971954340E+03  0.47000000000E+01 0. -1.
         -5    1    4    4    0  502 -0.99123216426E+01 -0.30043311554E+02  0.67256338830E+01  0.32683005379E+02  0.47000000000E+01 0.  1.
          5    1    3    3  503    0 -0.10973082220E+03  0.71039553347E+02 -0.38466929891E+02  0.13634245918E+03  0.47000000000E+01 0. -1.
         -5    1    3    3    0  503  0.22285770822E+02  0.66435668693E+02  0.10135930751E+02  0.70959007518E+02  0.47000000000E+01 0. -1.
<mgrwt>
<rscale>  0 0.19837210E+03</rscale>
<asrwt>0</asrwt>
<pdfrwt beam="1">  1        4 0.26400307E-01 0.20535640E+03</pdfrwt>
<pdfrwt beam="2">  1       -4 0.36631080E-01 0.20535640E+03</pdfrwt>
<totfact> 0.17466217E+02</totfact>
</mgrwt>
</event>
<event>
 8    1  0.2018715E-005  0.1519999E+03  0.7546771E-02  0.1211417E+00
         -3   -1    0    0    0  501 -0.00000000000E+00  0.00000000000E+00  0.43760591656E+02  0.43760591656E+02  0.00000000000E+00 0.  1.
          3   -1    0    0  501    0  0.00000000000E+00 -0.00000000000E+00 -0.57225484954E+03  0.57225484954E+03  0.00000000000E+00 0. -1.
         25    2    1    2    0    0  0.50711975373E+02 -0.70058533782E+02 -0.45674883809E+03  0.48137663014E+03  0.12499622533E+03 0.  0.
         23    2    1    2    0    0 -0.50711975373E+02  0.70058533782E+02 -0.71745419790E+02  0.13463881105E+03  0.74164018088E+02 0.  0.
          5    1    3    3  502    0  0.82097117447E+02 -0.25392625843E+02 -0.36044235135E+03  0.37057455496E+03  0.47000000000E+01 0. -1.
         -5    1    3    3    0  502 -0.31385142074E+02 -0.44665907938E+02 -0.96306486743E+02  0.11080207518E+03  0.47000000000E+01 0. -1.
          5    1    4    4  503    0 -0.19311872174E+02  0.40503972174E+02 -0.78692935161E+02  0.90709361221E+02  0.47000000000E+01 0. -1.
         -5    1    4    4    0  503 -0.31400103199E+02  0.29554561607E+02  0.69475153709E+01  0.43929449832E+02  0.47000000000E+01 0.  1.
<mgrwt>
<rscale>  0 0.14143034E+03</rscale>
<asrwt>0</asrwt>
<pdfrwt beam="1">  1        3 0.88039206E-01 0.15199986E+03</pdfrwt>
<pdfrwt beam="2">  1       -3 0.67323989E-02 0.15199986E+03</pdfrwt>
<totfact> 0.40312926E+02</totfact>
</mgrwt>
</event>
<event>
 8    1  0.2018715E-005  0.1903978E+03  0.7546771E-02  0.1165512E+00
         -1   -1    0    0    0  501 -0.00000000000E+00  0.00000000000E+00  0.32594763645E+03  0.32594763645E+03  0.00000000000E+00 0.  1.
          1   -1    0    0  501    0  0.00000000000E+00 -0.00000000000E+00 -0.94636975797E+02  0.94636975797E+02  0.00000000000E+00 0. -1.
         25    2    1    2    0    0 -0.14360430192E+03  0.15467542996E+01  0.13720066682E+03  0.23468134139E+03  0.12500688399E+03 0.  0.
         23    2    1    2    0    0  0.14360430192E+03 -0.15467542996E+01  0.94109993837E+02  0.18590327085E+03  0.71265329551E+02 0.  0.
          5    1    4    4  502    0  0.82434947975E+02 -0.32348689056E+02  0.35081235251E+02  0.95366353595E+02  0.47000000000E+01 0. -1.
         -5    1    4    4    0  502  0.61169353944E+02  0.30801934757E+02  0.59028758586E+02  0.90536917260E+02  0.47000000000E+01 0.  1.
          5    1    3    3  503    0 -0.16354523681E+03 -0.75193894440E+01  0.13484734049E+03  0.21215437996E+03  0.47000000000E+01 0.  1.
         -5    1    3    3    0  503  0.19940934887E+02  0.90661437436E+01  0.23533263269E+01  0.22526961432E+02  0.47000000000E+01 0.  1.
<mgrwt>
<rscale>  0 0.18238750E+03</rscale>
<asrwt>0</asrwt>
<pdfrwt beam="1">  1        1 0.14559535E-01 0.19039777E+03</pdfrwt>
<pdfrwt beam="2">  1       -1 0.50145790E-01 0.19039777E+03</pdfrwt>
<totfact> 0.15665134E+03</totfact>
</mgrwt>
</event>
<event>
 8    1  0.2018715E-005  0.1573432E+03  0.7546771E-02  0.1207391E+00
          1   -1    0    0  501    0  0.00000000000E+00  0.00000000000E+00  0.29555936502E+02  0.29555936502E+02  0.00000000000E+00 0. -1.
         -1   -1    0    0    0  501 -0.00000000000E+00 -0.00000000000E+00 -0.61630441045E+03  0.61630441045E+03  0.00000000000E+00 0.  1.
         25    2    1    2    0    0 -0.11907640512E+02 -0.94826245722E+02 -0.32064326977E+03  0.35716801787E+03  0.12499231080E+03 0.  0.
         23    2    1    2    0    0  0.11907640512E+02  0.94826245722E+02 -0.26610520417E+03  0.28869232908E+03  0.58287840933E+02 0.  0.
          5    1    3    3  502    0  0.27001047658E+02 -0.56938788338E+02 -0.28527130369E+03  0.29218639411E+03  0.47000000000E+01 0. -1.
         -5    1    4    4    0  503 -0.10588800915E+02  0.86551055112E+02 -0.21470079198E+03  0.23177948124E+03  0.47000000000E+01 0.  1.
          5    1    4    4  503    0  0.22496441427E+02  0.82751906099E+01 -0.51404412193E+02  0.56912847841E+02  0.47000000000E+01 0. -1.
         -5    1    3    3    0  502 -0.38908688171E+02 -0.37887457383E+02 -0.35371966078E+02  0.64981623759E+02  0.47000000000E+01 0. -1.
<mgrwt>
<rscale>  0 0.14450586E+03</rscale>
<asrwt>0</asrwt>
<pdfrwt beam="1">  1        1 0.45470673E-02 0.15734321E+03</pdfrwt>
<pdfrwt beam="2">  1       -1 0.94816061E-01 0.15734321E+03</pdfrwt>
<totfact> 0.21055537E+03</totfact>
</mgrwt>
</event>
<event>
 8    1  0.2018715E-005  0.1265783E+03  0.7546771E-02  0.1260352E+00
          1   -1    0    0  501    0  0.00000000000E+00  0.00000000000E+00  0.40268028580E+02  0.40268028580E+02  0.00000000000E+00 0. -1.
         -1   -1    0    0    0  501 -0.00000000000E+00 -0.00000000000E+00 -0.26801554866E+03  0.26801554866E+03  0.00000000000E+00 0.  1.
         25    2    1    2    0    0 -0.18929434699E+02  0.61917230686E+01 -0.18487193702E+03  0.22405289011E+03  0.12500161415E+03 0.  0.
         23    2    1    2    0    0  0.18929434699E+02 -0.61917230686E+01 -0.42875583066E+02  0.84230687129E+02  0.69712495998E+02 0.  0.
          5    1    3    3  502    0  0.33850300276E+01  0.21517104556E+02  0.11975551745E+02  0.25297194635E+02  0.47000000000E+01 0. -1.
         -5    1    3    3    0  502 -0.22314464727E+02 -0.15325381488E+02 -0.19684748876E+03  0.19875569548E+03  0.47000000000E+01 0. -1.
          5    1    4    4  503    0  0.15463671676E+02 -0.29514584987E+02  0.15831559674E+01  0.33687271357E+02  0.47000000000E+01 0. -1.
         -5    1    4    4    0  503  0.34657630233E+01  0.23322861919E+02 -0.44458739034E+02  0.50543415772E+02  0.47000000000E+01 0.  1.
<mgrwt>
<rscale>  0 0.11011752E+03</rscale>
<asrwt>0</asrwt>
<pdfrwt beam="1">  1        1 0.61950814E-02 0.12657829E+03</pdfrwt>
<pdfrwt beam="2">  1       -1 0.41233161E-01 0.12657829E+03</pdfrwt>
<totfact> 0.68131910E+03</totfact>
</mgrwt>
</event>
<event>
 7    1  0.2018715E-005  0.1353212E+03  0.7546771E-02  0.1221953E+00
         -1   -1    0    0    0  501 -0.00000000000E+00  0.00000000000E+00  0.28875127760E+03  0.28875127760E+03  0.00000000000E+00 0.  1.
          1   -1    0    0  501    0  0.00000000000E+00 -0.00000000000E+00 -0.97186999207E+02  0.97186999207E+02  0.00000000000E+00 0. -1.
         25    2    1    2    0    0 -0.22592649259E+02  0.23920933484E+02  0.21277991023E+03  0.24896409288E+03  0.12500076194E+03 0.  0.
          5    1    1    2  502    0  0.12566914088E+02 -0.75377684479E+02  0.76504307706E+01  0.76943756980E+02  0.47000000000E+01 0. -1.
         -5    1    3    3    0  503  0.33126337140E+02  0.28803240487E+02  0.17694808952E+03  0.18237241365E+03  0.47000000000E+01 0.  1.
          5    1    3    3  503    0 -0.55718986399E+02 -0.48823070034E+01  0.35831820708E+02  0.66591679227E+02  0.47000000000E+01 0.  1.
         -5    1    1    2    0  502  0.10025735171E+02  0.51456750996E+02 -0.28866062611E+02  0.60030426947E+02  0.47000000000E+01 0.  1.
<mgrwt>
<rscale>  0 0.13377943E+03</rscale>
<asrwt>0</asrwt>
<pdfrwt beam="1">  1        1 0.14951846E-01 0.13532119E+03</pdfrwt>
<pdfrwt beam="2">  1       -1 0.44423273E-01 0.13532119E+03</pdfrwt>
<totfact> 0.18634041E+03</totfact>
</mgrwt>
</event>
<event>
 8    1  0.2018715E-005  0.2530568E+03  0.7546771E-02  0.1111469E+00
         -1   -1    0    0    0  501 -0.00000000000E+00  0.00000000000E+00  0.26569696804E+02  0.26569696804E+02  0.00000000000E+00 0.  1.
          1   -1    0    0  501    0  0.00000000000E+00 -0.00000000000E+00 -0.24139568055E+04  0.24139568055E+04  0.00000000000E+00 0. -1.
         25    2    1    2    0    0  0.81554982754E+02  0.20372047931E+03 -0.12657135709E+04  0.12906616118E+04  0.12499321443E+03 0.  0.
         23    2    1    2    0    0 -0.81554982754E+02 -0.20372047931E+03 -0.11216735378E+04  0.11498648906E+04  0.12603369460E+03 0.  0.
          5    1    4    4  502    0 -0.69778105388E+02 -0.86793603738E+02 -0.79272242691E+03  0.80052048679E+03  0.47000000000E+01 0. -1.
         -5    1    4    4    0  502 -0.11776877366E+02 -0.11692687557E+03 -0.32895111093E+03  0.34934440378E+03  0.47000000000E+01 0.  1.
          5    1    3    3  503    0 -0.30949829054E+02  0.36519283992E+02 -0.32945380193E+03  0.33294661378E+03  0.47000000000E+01 0. -1.
         -5    1    3    3    0  503  0.11250481181E+03  0.16720119532E+03 -0.93625976896E+03  0.95771499799E+03  0.47000000000E+01 0. -1.
<mgrwt>
<rscale>  0 0.25292755E+03</rscale>
<asrwt>0</asrwt>
<pdfrwt beam="1">  1        1 0.37137796E+00 0.25305679E+03</pdfrwt>
<pdfrwt beam="2">  1       -1 0.40876457E-02 0.25305679E+03</pdfrwt>
<totfact> 0.43177663E+02</totfact>
</mgrwt>
</event>
<event>
 8    1  0.2018715E-005  0.1393574E+03  0.7546771E-02  0.1230413E+00
          1   -1    0    0  501    0  0.00000000000E+00  0.00000000000E+00  0.15041070995E+03  0.15041070995E+03  0.00000000000E+00 0. -1.
         -1   -1    0    0    0  501 -0.00000000000E+00 -0.00000000000E+00 -0.24359975629E+03  0.24359975629E+03  0.00000000000E+00 0.  1.
         25    2    1    2    0    0  0.58186228462E+02 -0.20258655077E+02  0.10356882922E+03  0.17362888510E+03  0.12499774825E+03 0.  0.
         23    2    1    2    0    0 -0.58186228462E+02  0.20258655077E+02 -0.19675787555E+03  0.22038158114E+03  0.77835271104E+02 0.  0.
          5    1    3    3  502    0 -0.16967131021E+02  0.34402672682E+02  0.58819363164E+02  0.70379222117E+02  0.47000000000E+01 0.  1.
         -5    1    4    4    0  503 -0.68389882982E+02  0.37917132497E+02 -0.15573329947E+03  0.17432680688E+03  0.47000000000E+01 0.  1.
          5    1    4    4  503    0  0.10203654520E+02 -0.17658477421E+02 -0.41024576077E+02  0.46054774266E+02  0.47000000000E+01 0. -1.
         -5    1    3    3    0  502  0.75153359483E+02 -0.54661327758E+02  0.44749466052E+02  0.10324966298E+03  0.47000000000E+01 0.  1.
<mgrwt>
<rscale>  0 0.12802689E+03</rscale>
<asrwt>0</asrwt>
<pdfrwt beam="1">  1        1 0.23140109E-01 0.13935741E+03</pdfrwt>
<pdfrwt beam="2">  1       -1 0.37476886E-01 0.13935741E+03</pdfrwt>
<totfact> 0.14399766E+03</totfact>
</mgrwt>
</event>
<event>
 7    1  0.2018715E-005  0.2225178E+03  0.7546771E-02  0.1143195E+00
         -2   -1    0    0    0  501 -0.00000000000E+00  0.00000000000E+00  0.71555339297E+02  0.71555339297E+02  0.00000000000E+00 0.  1.
          2   -1    0    0  501    0  0.00000000000E+00 -0.00000000000E+00 -0.57503948571E+03  0.57503948571E+03  0.00000000000E+00 0. -1.
         25    2    1    2    0    0  0.55371693904E+02  0.10060532211E+03 -0.30188643070E+03  0.34633522559E+03  0.12500086449E+03 0.  0.
          5    1    3    3  502    0  0.62809703645E+02  0.12521915725E+03 -0.22461052664E+03  0.26475814415E+03  0.47000000000E+01 0.  1.
         -5    1    1    2    0  503  0.39778356769E+02  0.14996495694E+02  0.71109632463E+01  0.43357448594E+02  0.47000000000E+01 0.  1.
          5    1    1    2  503    0 -0.95150050673E+02 -0.11560181780E+03 -0.20870867896E+03  0.25690215082E+03  0.47000000000E+01 0. -1.
         -5    1    3    3    0  502 -0.74380097413E+01 -0.24613835139E+02 -0.77275904053E+02  0.81577081441E+02  0.47000000000E+01 0.  1.
<mgrwt>
<rscale>  0 0.20795605E+03</rscale>
<asrwt>0</asrwt>
<pdfrwt beam="1">  1        2 0.88467610E-01 0.22251784E+03</pdfrwt>
<pdfrwt beam="2">  1       -2 0.11008514E-01 0.22251784E+03</pdfrwt>
<totfact> 0.29897012E+03</totfact>
</mgrwt>
</event>
<event>
 8    1  0.2018715E-005  0.1997782E+03  0.7546771E-02  0.1156071E+00
          2   -1    0    0  501    0  0.00000000000E+00  0.00000000000E+00  0.21152381145E+03  0.21152381145E+03  0.00000000000E+00 0. -1.
         -2   -1    0    0    0  501 -0.00000000000E+00 -0.00000000000E+00 -0.16410675302E+03  0.16410675302E+03  0.00000000000E+00 0.  1.
         25    2    1    2    0    0 -0.15365536398E+03  0.25973016666E+02  0.24706265082E+02  0.20130005519E+03  0.12500697664E+03 0.  0.
         23    2    1    2    0    0  0.15365536398E+03 -0.25973016666E+02  0.22710793347E+02  0.17433050928E+03  0.74771504312E+02 0.  0.
          5    1    4    4  502    0  0.12525471950E+03  0.40616212766E+01  0.36314046996E+02  0.13056048994E+03  0.47000000000E+01 0. -1.
         -5    1    4    4    0  502  0.28400644483E+02 -0.30034637943E+02 -0.13603253649E+02  0.43770019342E+02  0.47000000000E+01 0.  1.
          5    1    3    3  503    0 -0.43153889866E+02 -0.25521203529E+02 -0.38976843621E+02  0.63677895527E+02  0.47000000000E+01 0. -1.
         -5    1    3    3    0  503 -0.11050147411E+03  0.51494220196E+02  0.63683108703E+02  0.13762215966E+03  0.47000000000E+01 0. -1.
<mgrwt>
<rscale>  0 0.19267489E+03</rscale>
<asrwt>0</asrwt>
<pdfrwt beam="1">  1        2 0.32542125E-01 0.19977816E+03</pdfrwt>
<pdfrwt beam="2">  1       -2 0.25247193E-01 0.19977816E+03</pdfrwt>
<totfact> 0.22094666E+03</totfact>
</mgrwt>
</event>
<event>
 8    1  0.2018715E-005  0.1350597E+03  0.7546771E-02  0.1220382E+00
         -2   -1    0    0    0  501 -0.00000000000E+00  0.00000000000E+00  0.30166539204E+02  0.30166539204E+02  0.00000000000E+00 0.  1.
          2   -1    0    0  501    0  0.00000000000E+00 -0.00000000000E+00 -0.64853863746E+03  0.64853863746E+03  0.00000000000E+00 0. -1.
         25    2    1    2    0    0 -0.13341354845E+02 -0.49373032984E+02 -0.40125551761E+03  0.42337586563E+03  0.12500178020E+03 0.  0.
         23    2    1    2    0    0  0.13341354845E+02  0.49373032984E+02 -0.21711658064E+03  0.25532931103E+03  0.12424878006E+03 0.  0.
          5    1    4    4  502    0 -0.30521294897E+02  0.11473187577E+02 -0.18691601539E+03  0.18979691854E+03  0.47000000000E+01 0. -1.
         -5    1    3    3    0  503 -0.54970501045E+02 -0.68682672493E+02 -0.24027636978E+03  0.25591773944E+03  0.47000000000E+01 0.  1.
          5    1    3    3  503    0  0.41629146200E+02  0.19309639509E+02 -0.16097914784E+03  0.16745812620E+03  0.47000000000E+01 0.  1.
         -5    1    4    4    0  502  0.43862649742E+02  0.37899845407E+02 -0.30200565247E+02  0.65532392490E+02  0.47000000000E+01 0.  1.
<mgrwt>
<rscale>  0 0.13488525E+03</rscale>
<asrwt>0</asrwt>
<pdfrwt beam="1">  1        2 0.99775162E-01 0.13505974E+03</pdfrwt>
<pdfrwt beam="2">  1       -2 0.46410067E-02 0.13505974E+03</pdfrwt>
<totfact> 0.96547265E+03</totfact>
</mgrwt>
</event>
<event>
 8    1  0.2018715E-005  0.1411685E+03  0.7546771E-02  0.1213501E+00
         -1   -1    0    0    0  501 -0.00000000000E+00  0.00000000000E+00  0.20515606854E+03  0.20515606854E+03  0.00000000000E+00 0. -1.
          1   -1    0    0  501    0  0.00000000000E+00 -0.00000000000E+00 -0.10519155757E+03  0.10519155757E+03  0.00000000000E+00 0.  1.
         25    2    1    2    0    0 -0.45087538096E+02 -0.47641739494E+02  0.10219331743E+03  0.17427567328E+03  0.12500365889E+03 0.  0.
         23    2    1    2    0    0  0.45087538096E+02  0.47641739494E+02 -0.22288064546E+01  0.13607195283E+03  0.11919726228E+03 0.  0.
          5    1    4    4  502    0  0.32561633359E+02  0.84256295226E+02  0.17890729934E+02  0.92203858215E+02  0.47000000000E+01 0. -1.
         -5    1    3    3    0  503 -0.77073148746E+02 -0.37605387937E+01  0.28018079236E+02  0.82228429839E+02  0.47000000000E+01 0.  1.
          5    1    3    3  503    0  0.31985610650E+02 -0.43881200700E+02  0.74175238193E+02  0.92047243438E+02  0.47000000000E+01 0.  1.
         -5    1    4    4    0  502  0.12525904737E+02 -0.36614555732E+02 -0.20119536389E+02  0.43868094618E+02  0.47000000000E+01 0.  1.
<mgrwt>
<rscale>  0 0.13987203E+03</rscale>
<asrwt>0</asrwt>
<pdfrwt beam="1">  1        1 0.16183317E-01 0.14116847E+03</pdfrwt>
<pdfrwt beam="2">  1       -1 0.31562472E-01 0.14116847E+03</pdfrwt>
<totfact> 0.30507051E+03</totfact>
</mgrwt>
</event>
<event>
 8    1  0.2018715E-005  0.1359630E+03  0.7546771E-02  0.1238319E+00
         -3   -1    0    0    0  501 -0.00000000000E+00  0.00000000000E+00  0.80329528417E+02  0.80329528417E+02  0.00000000000E+00 0.  1.
          3   -1    0    0  501    0  0.00000000000E+00 -0.00000000000E+00 -0.17362454303E+03  0.17362454303E+03  0.00000000000E+00 0. -1.
         25    2    1    2    0    0  0.53471558724E+02  0.15599582966E+01 -0.20499825800E+02  0.13749976650E+03  0.12499720744E+03 0.  0.
         23    2    1    2    0    0 -0.53471558724E+02 -0.15599582966E+01 -0.72795188812E+02  0.11645430495E+03  0.73490302520E+02 0.  0.
          5    1    4    4  502    0 -0.64043908271E+02  0.16695327277E+02 -0.40958945340E+02  0.77974876357E+02  0.47000000000E+01 0. -1.
         -5    1    4    4    0  502  0.10572349547E+02 -0.18255285573E+02 -0.31836243472E+02  0.38479428591E+02  0.47000000000E+01 0.  1.
          5    1    3    3  503    0  0.10767432219E+02 -0.18372597473E+02 -0.67403746375E+02  0.70843806785E+02  0.47000000000E+01 0. -1.
         -5    1    3    3    0  503  0.42704126505E+02  0.19932555769E+02  0.46903920575E+02  0.66655959713E+02  0.47000000000E+01 0. -1.
<mgrwt>
<rscale>  0 0.12294314E+03</rscale>
<asrwt>0</asrwt>
<pdfrwt beam="1">  1        3 0.26711468E-01 0.13596302E+03</pdfrwt>
<pdfrwt beam="2">  1       -3 0.12358389E-01 0.13596302E+03</pdfrwt>
<totfact> 0.15809733E+03</totfact>
</mgrwt>
</event>
<event>
 8    1  0.2018715E-005  0.2251269E+03  0.7546771E-02  0.1131632E+00
          2   -1    0    0  501    0  0.00000000000E+00  0.00000000000E+00  0.19280882062E+04  0.19280882062E+04  0.00000000000E+00 0. -1.
         -2   -1    0    0    0  501 -0.00000000000E+00 -0.00000000000E+00 -0.27497457775E+02  0.27497457775E+02  0.00000000000E+00 0.  1.
         25    2    1    2    0    0 -0.16464787355E+03 -0.89148546155E+02  0.12406014002E+04  0.12608623828E+04  0.12500291389E+03 0.  0.
         23    2    1    2    0    0  0.16464787355E+03  0.89148546155E+02  0.65998934824E+03  0.69472328126E+03  0.10953589446E+03 0.  0.
          5    1    3    3  502    0 -0.24684286549E+02  0.99141667469E+00  0.31319253679E+02  0.40165688846E+02  0.47000000000E+01 0. -1.
         -5    1    4    4    0  503  0.13340161690E+03  0.26678377465E+02  0.32253455918E+03  0.35008336019E+03  0.47000000000E+01 0.  1.
          5    1    4    4  503    0  0.31246256656E+02  0.62470168690E+02  0.33745478906E+03  0.34463992107E+03  0.47000000000E+01 0. -1.
         -5    1    3    3    0  502 -0.13996358701E+03 -0.90139962830E+02  0.12092821465E+04  0.12206966939E+04  0.47000000000E+01 0. -1.
<mgrwt>
<rscale>  0 0.22304663E+03</rscale>
<asrwt>0</asrwt>
<pdfrwt beam="1">  1        2 0.29662885E+00 0.22512688E+03</pdfrwt>
<pdfrwt beam="2">  1       -2 0.42303796E-02 0.22512688E+03</pdfrwt>
<totfact> 0.20513580E+03</totfact>
</mgrwt>
</event>
<event>
 8    1  0.2018715E-005  0.1888240E+03  0.7546771E-02  0.1162628E+00
          4   -1    0    0  501    0  0.00000000000E+00  0.00000000000E+00  0.21811671566E+03  0.21811671566E+03  0.00000000000E+00 0.  1.
         -4   -1    0    0    0  501 -0.00000000000E+00 -0.00000000000E+00 -0.15283267450E+03  0.15283267450E+03  0.00000000000E+00 0. -1.
         25    2    1    2    0    0  0.12788794316E+03 -0.60610601274E+02  0.22834920716E+02  0.19019971548E+03  0.12500210868E+03 0.  0.
         23    2    1    2    0    0 -0.12788794316E+03  0.60610601274E+02  0.42449120448E+02  0.18074967467E+03  0.10411314074E+03 0.  0.
          5    1    4    4  502    0 -0.87574787818E+02  0.88401911281E+02  0.17998157324E+02  0.12581838119E+03  0.47000000000E+01 0. -1.
         -5    1    4    4    0  502 -0.40313155341E+02 -0.27791310007E+02  0.24450963125E+02  0.54931293478E+02  0.47000000000E+01 0.  1.
          5    1    3    3  503    0  0.98586503334E+02  0.12654418578E+02 -0.18167484521E+02  0.10115127504E+03  0.47000000000E+01 0. -1.
         -5    1    3    3    0  503  0.29301439824E+02 -0.73265019851E+02  0.41002405237E+02  0.89048440440E+02  0.47000000000E+01 0. -1.
<mgrwt>
<rscale>  0 0.18545235E+03</rscale>
<asrwt>0</asrwt>
<pdfrwt beam="1">  1        4 0.33556418E-01 0.18882399E+03</pdfrwt>
<pdfrwt beam="2">  1       -4 0.23512719E-01 0.18882399E+03</pdfrwt>
<totfact> 0.25371392E+02</totfact>
</mgrwt>
</event>
<event>
 7    1  0.2018715E-005  0.2359157E+03  0.7546771E-02  0.1148335E+00
         -1   -1    0    0    0  501 -0.00000000000E+00  0.00000000000E+00  0.66740028500E+03  0.66740028500E+03  0.00000000000E+00 0.  1.
          1   -1    0    0  501    0  0.00000000000E+00 -0.00000000000E+00 -0.51409663807E+02  0.51409663807E+02  0.00000000000E+00 0. -1.
         25    2    1    2    0    0  0.13057199745E+02  0.87969991294E+01  0.29207856660E+03  0.31809154653E+03  0.12499786097E+03 0.  0.
          5    1    3    3  502    0 -0.22818487962E+02 -0.49975661449E+02  0.10334808383E+03  0.11713738328E+03  0.47000000000E+01 0.  1.
         -5    1    3    3    0  502  0.35875687707E+02  0.58772660579E+02  0.18873048277E+03  0.20095416325E+03  0.47000000000E+01 0.  1.
          5    1    1    2  503    0 -0.74122026798E+01 -0.91233577676E+02  0.31652749908E+02  0.96966453070E+02  0.47000000000E+01 0. -1.
         -5    1    1    2    0  503 -0.56449970649E+01  0.82436578547E+02  0.29225930469E+03  0.30375194921E+03  0.47000000000E+01 0.  1.
<mgrwt>
<rscale>  0 0.20167300E+03</rscale>
<asrwt>0</asrwt>
<pdfrwt beam="1">  1        1 0.79091795E-02 0.23591570E+03</pdfrwt>
<pdfrwt beam="2">  1       -1 0.10267696E+00 0.23591570E+03</pdfrwt>
<totfact> 0.83693593E+02</totfact>
</mgrwt>
</event>
<event>
 8    1  0.2018715E-005  0.1337193E+03  0.7546771E-02  0.1229431E+00
          3   -1    0    0  501    0  0.00000000000E+00  0.00000000000E+00  0.28063033883E+03  0.28063033883E+03  0.00000000000E+00 0. -1.
         -3   -1    0    0    0  501 -0.00000000000E+00 -0.00000000000E+00 -0.56679461228E+02  0.56679461228E+02  0.00000000000E+00 0.  1.
         25    2    1    2    0    0  0.18917591604E+02  0.43566602905E+02  0.91018641653E+02  0.16175673088E+03  0.12499969078E+03 0.  0.
         23    2    1    2    0    0 -0.18917591604E+02 -0.43566602905E+02  0.13293223595E+03  0.17555306917E+03  0.10436463281E+03 0.  0.
          5    1    3    3  502    0  0.55361082931E+02  0.44185317640E+02  0.85888774160E+01  0.71505598477E+02  0.47000000000E+01 0.  1.
         -5    1    3    3    0  502 -0.36443491328E+02 -0.61871473472E+00  0.82429764237E+02  0.90251132404E+02  0.47000000000E+01 0.  1.
          5    1    4    4  503    0 -0.16789677841E+02 -0.70218103330E+02  0.12929896228E+03  0.14816472915E+03  0.47000000000E+01 0. -1.
         -5    1    4    4    0  503 -0.21279137622E+01  0.26651500426E+02  0.36332736698E+01  0.27388340028E+02  0.47000000000E+01 0.  1.
<mgrwt>
<rscale>  0 0.12867749E+03</rscale>
<asrwt>0</asrwt>
<pdfrwt beam="1">  1        3 0.43173897E-01 0.13371928E+03</pdfrwt>
<pdfrwt beam="2">  1       -3 0.87199173E-02 0.13371928E+03</pdfrwt>
<totfact> 0.11387525E+03</totfact>
</mgrwt>
</event>
<event>
 8    1  0.2018715E-005  0.1251953E+03  0.7546771E-02  0.1241803E+00
         -2   -1    0    0    0  501 -0.00000000000E+00  0.00000000000E+00  0.74602601707E+02  0.74602601707E+02  0.00000000000E+00 0.  1.
          2   -1    0    0  501    0  0.00000000000E+00 -0.00000000000E+00 -0.19009143154E+03  0.19009143154E+03  0.00000000000E+00 0. -1.
         25    2    1    2    0    0 -0.60386986788E+01  0.25652813644E+01 -0.36180551300E+02  0.13031840515E+03  0.12502322936E+03 0.  0.
         23    2    1    2    0    0  0.60386986788E+01 -0.25652813644E+01 -0.79308278533E+02  0.13437562810E+03  0.10827723598E+03 0.  0.
          5    1    4    4  502    0 -0.41960965198E+02  0.19516299601E+02 -0.64091439129E+02  0.79192241540E+02  0.47000000000E+01 0. -1.
         -5    1    3    3    0  503 -0.51828430151E+02  0.31084130830E+02 -0.44948222058E+02  0.75464177114E+02  0.47000000000E+01 0.  1.
          5    1    3    3  503    0  0.45789731472E+02 -0.28518849465E+02  0.87676707576E+01  0.54854228038E+02  0.47000000000E+01 0.  1.
         -5    1    4    4    0  502  0.47999663877E+02 -0.22081580965E+02 -0.15216839403E+02  0.55183386555E+02  0.47000000000E+01 0.  1.
<mgrwt>
<rscale>  0 0.12078811E+03</rscale>
<asrwt>0</asrwt>
<pdfrwt beam="1">  1        2 0.29244836E-01 0.12519527E+03</pdfrwt>
<pdfrwt beam="2">  1       -2 0.11477323E-01 0.12519527E+03</pdfrwt>
<totfact> 0.90005086E+03</totfact>
</mgrwt>
</event>
<event>
 8    1  0.2018715E-005  0.1363612E+03  0.7546771E-02  0.1222283E+00
          2   -1    0    0  501    0  0.00000000000E+00  0.00000000000E+00  0.11046726061E+04  0.11046726061E+04  0.00000000000E+00 0. -1.
         -2   -1    0    0    0  501 -0.00000000000E+00 -0.00000000000E+00 -0.18508705421E+02  0.18508705421E+02  0.00000000000E+00 0.  1.
         25    2    1    2    0    0 -0.52730981779E+01  0.54221117110E+02  0.78780556656E+03  0.79951985584E+03  0.12500661614E+03 0.  0.
         23    2    1    2    0    0  0.52730981779E+01 -0.54221117110E+02  0.29835833415E+03  0.32366145571E+03  0.11301020861E+03 0.  0.
          5    1    4    4  502    0  0.23474256045E+02 -0.64807675673E+02  0.29353331089E+03  0.30155425735E+03  0.47000000000E+01 0. -1.
         -5    1    4    4    0  502 -0.18201157867E+02  0.10586558563E+02  0.48250232612E+01  0.22107198361E+02  0.47000000000E+01 0.  1.
          5    1    3    3  503    0 -0.47651483244E+02  0.73205322943E+02  0.57829701951E+03  0.58487538497E+03  0.47000000000E+01 0.  1.
         -5    1    3    3    0  503  0.42378385066E+02 -0.18984205833E+02  0.20950854704E+03  0.21464447087E+03  0.47000000000E+01 0.  1.
<mgrwt>
<rscale>  0 0.13354896E+03</rscale>
<asrwt>0</asrwt>
<pdfrwt beam="1">  1        2 0.16994958E+00 0.13636125E+03</pdfrwt>
<pdfrwt beam="2">  1       -2 0.28474940E-02 0.13636125E+03</pdfrwt>
<totfact> 0.10050428E+04</totfact>
</mgrwt>
</event>
<event>
 8    1  0.2018715E-005  0.1583434E+03  0.7546771E-02  0.1201357E+00
          2   -1    0    0  501    0  0.00000000000E+00  0.00000000000E+00  0.62976749801E+03  0.62976749801E+03  0.00000000000E+00 0. -1.
         -2   -1    0    0    0  501 -0.00000000000E+00 -0.00000000000E+00 -0.58659061922E+02  0.58659061922E+02  0.00000000000E+00 0.  1.
         25    2    1    2    0    0  0.89837695031E+02 -0.37098099448E+02  0.72115082398E+02  0.17399202535E+03  0.12500223736E+03 0.  0.
         23    2    1    2    0    0 -0.89837695031E+02  0.37098099448E+02  0.49899335369E+03  0.51443453458E+03  0.78749240710E+02 0.  0.
          5    1    3    3  502    0  0.10996821751E+03  0.61191436567E+01  0.54232763517E+02  0.12285656441E+03  0.47000000000E+01 0.  1.
         -5    1    3    3    0  502 -0.20130522476E+02 -0.43217243105E+02  0.17882318880E+02  0.51135460937E+02  0.47000000000E+01 0.  1.
          5    1    4    4  503    0 -0.21873030178E+02  0.43722242554E+02  0.30010569541E+03  0.30409798151E+03  0.47000000000E+01 0. -1.
         -5    1    4    4    0  503 -0.67964664853E+02 -0.66241431057E+01  0.19888765828E+03  0.21033655307E+03  0.47000000000E+01 0.  1.
<mgrwt>
<rscale>  0 0.14928260E+03</rscale>
<asrwt>0</asrwt>
<pdfrwt beam="1">  1        2 0.96887302E-01 0.15834342E+03</pdfrwt>
<pdfrwt beam="2">  1       -2 0.90244715E-02 0.15834342E+03</pdfrwt>
<totfact> 0.36470867E+03</totfact>
</mgrwt>
</event>
<event>
 8    1  0.2018715E-005  0.1389360E+03  0.7546771E-02  0.1221503E+00
          2   -1    0    0  501    0  0.00000000000E+00  0.00000000000E+00  0.48359475254E+03  0.48359475254E+03  0.00000000000E+00 0. -1.
         -2   -1    0    0    0  501 -0.00000000000E+00 -0.00000000000E+00 -0.37330635627E+02  0.37330635627E+02  0.00000000000E+00 0.  1.
         25    2    1    2    0    0 -0.49211901997E+02  0.35440146584E+02  0.17036364763E+03  0.21983399325E+03  0.12500158746E+03 0.  0.
         23    2    1    2    0    0  0.49211901997E+02 -0.35440146584E+02  0.27590046928E+03  0.30109139491E+03  0.10419761923E+03 0.  0.
          5    1    3    3  502    0 -0.25604156677E+02  0.81497244172E+02  0.12074254680E+03  0.14798049282E+03  0.47000000000E+01 0. -1.
         -5    1    4    4    0  503  0.51871638579E+02  0.17463475047E+02  0.73134569313E+02  0.91468000296E+02  0.47000000000E+01 0.  1.
          5    1    4    4  503    0 -0.26597365814E+01 -0.52903621631E+02  0.20276589996E+03  0.20962339461E+03  0.47000000000E+01 0. -1.
         -5    1    3    3    0  502 -0.23607745320E+02 -0.46057097589E+02  0.49621100832E+02  0.71853500438E+02  0.47000000000E+01 0. -1.
<mgrwt>
<rscale>  0 0.13409507E+03</rscale>
<asrwt>0</asrwt>
<pdfrwt beam="1">  1        2 0.74399188E-01 0.13893600E+03</pdfrwt>
<pdfrwt beam="2">  1       -2 0.57431750E-02 0.13893600E+03</pdfrwt>
<totfact> 0.97604055E+03</totfact>
</mgrwt>
</event>
<event>
 8    1  0.2018715E-005  0.1416783E+03  0.7546771E-02  0.1217185E+00
         -2   -1    0    0    0  501 -0.00000000000E+00  0.00000000000E+00  0.31205734552E+02  0.31205734552E+02  0.00000000000E+00 0.  1.
          2   -1    0    0  501    0  0.00000000000E+00 -0.00000000000E+00 -0.58823404208E+03  0.58823404208E+03  0.00000000000E+00 0. -1.
         25    2    1    2    0    0 -0.32564232103E+02  0.58201099921E+02 -0.35374758996E+03  0.38106443401E+03  0.12499979287E+03 0.  0.
         23    2    1    2    0    0  0.32564232103E+02 -0.58201099921E+02 -0.20328071756E+03  0.23837534262E+03  0.10512828636E+03 0.  0.
          5    1    4    4  502    0  0.53005249925E+01 -0.57118556602E+02 -0.20266718026E+03  0.21068151563E+03  0.47000000000E+01 0. -1.
         -5    1    4    4    0  502  0.27263707111E+02 -0.10825433191E+01 -0.61353730388E+00  0.27693826993E+02  0.47000000000E+01 0.  1.
          5    1    3    3  503    0 -0.19456448456E+02  0.94312826050E+02 -0.29792484070E+03  0.31313697202E+03  0.47000000000E+01 0. -1.
         -5    1    3    3    0  503 -0.13107783647E+02 -0.36111726129E+02 -0.55822749265E+02  0.67927461984E+02  0.47000000000E+01 0. -1.
<mgrwt>
<rscale>  0 0.13717284E+03</rscale>
<asrwt>0</asrwt>
<pdfrwt beam="1">  1        2 0.90497540E-01 0.14167832E+03</pdfrwt>
<pdfrwt beam="2">  1       -2 0.48008825E-02 0.14167832E+03</pdfrwt>
<totfact> 0.10295869E+04</totfact>
</mgrwt>
</event>
<event>
 7    1  0.2018715E-005  0.2620865E+03  0.7546771E-02  0.1114407E+00
          1   -1    0    0  501    0  0.00000000000E+00  0.00000000000E+00  0.75627967793E+03  0.75627967793E+03  0.00000000000E+00 0. -1.
         -1   -1    0    0    0  501 -0.00000000000E+00 -0.00000000000E+00 -0.73997116325E+02  0.73997116325E+02  0.00000000000E+00 0.  1.
         25    2    1    2    0    0  0.10327371156E+03  0.13504634862E+03  0.30025990180E+03  0.36699434643E+03  0.12500346358E+03 0.  0.
          5    1    1    2  502    0 -0.87077913296E+02 -0.18075289076E+03  0.35439929941E+03  0.40727769878E+03  0.47000000000E+01 0. -1.
         -5    1    3    3    0  503  0.17469225591E+02  0.18332527857E+02  0.17057469894E+03  0.17250818340E+03  0.47000000000E+01 0. -1.
          5    1    3    3  503    0  0.85804485965E+02  0.11671382077E+03  0.12968520286E+03  0.19448616303E+03  0.47000000000E+01 0. -1.
         -5    1    1    2    0  502 -0.16195798260E+02  0.45706542141E+02  0.27623360390E+02  0.56004749040E+02  0.47000000000E+01 0.  1.
<mgrwt>
<rscale>  0 0.24826392E+03</rscale>
<asrwt>0</asrwt>
<pdfrwt beam="1">  1        1 0.11635071E+00 0.26208646E+03</pdfrwt>
<pdfrwt beam="2">  1       -1 0.11384172E-01 0.26208646E+03</pdfrwt>
<totfact> 0.12508015E+03</totfact>
</mgrwt>
</event>
<event>
 7    1  0.2018715E-005  0.1327372E+03  0.7546771E-02  0.1225750E+00
         -2   -1    0    0    0  501 -0.00000000000E+00  0.00000000000E+00  0.10900442335E+03  0.10900442335E+03  0.00000000000E+00 0.  1.
          2   -1    0    0  501    0  0.00000000000E+00 -0.00000000000E+00 -0.15534321337E+03  0.15534321337E+03  0.00000000000E+00 0. -1.
         25    2    1    2    0    0 -0.10481513798E+02  0.16540099878E+02 -0.11102729264E+02  0.12701322405E+03  0.12500260578E+03 0.  0.
          5    1    3    3  502    0 -0.19746308128E+02 -0.47712382529E+01  0.53915607376E+02  0.57807128607E+02  0.47000000000E+01 0. -1.
         -5    1    1    2    0  503 -0.10789805257E+02 -0.65830658533E+02  0.91774538236E+01  0.67501193760E+02  0.47000000000E+01 0.  1.
          5    1    1    2  503    0  0.21271319055E+02  0.49290558655E+02 -0.44413514575E+02  0.69833218913E+02  0.47000000000E+01 0. -1.
         -5    1    3    3    0  502  0.92647943299E+01  0.21311338131E+02 -0.65018336640E+02  0.69206095442E+02  0.47000000000E+01 0. -1.
<mgrwt>
<rscale>  0 0.13115664E+03</rscale>
<asrwt>0</asrwt>
<pdfrwt beam="1">  1        2 0.23898956E-01 0.13273719E+03</pdfrwt>
<pdfrwt beam="2">  1       -2 0.16769911E-01 0.13273719E+03</pdfrwt>
<totfact> 0.61027639E+03</totfact>
</mgrwt>
</event>
<event>
 8    1  0.2018715E-005  0.1298083E+03  0.7546771E-02  0.1249357E+00
          2   -1    0    0  501    0  0.00000000000E+00  0.00000000000E+00  0.53618273129E+03  0.53618273129E+03  0.00000000000E+00 0.  1.
         -2   -1    0    0    0  501 -0.00000000000E+00 -0.00000000000E+00 -0.27608584150E+02  0.27608584150E+02  0.00000000000E+00 0. -1.
         25    2    1    2    0    0  0.30329102595E+02  0.17465980836E+02  0.42963448702E+03  0.44881619835E+03  0.12500109004E+03 0.  0.
         23    2    1    2    0    0 -0.30329102595E+02 -0.17465980836E+02  0.78939660114E+02  0.11497511709E+03  0.75913718521E+02 0.  0.
          5    1    3    3  502    0 -0.40370259767E+02 -0.19813132793E+02  0.21576362507E+03  0.22045033456E+03  0.47000000000E+01 0. -1.
         -5    1    4    4    0  503 -0.17622643265E+02  0.29046352638E+02  0.40917465367E+02  0.53390796297E+02  0.47000000000E+01 0.  1.
          5    1    4    4  503    0 -0.12706459330E+02 -0.46512333474E+02  0.38022194747E+02  0.61584320791E+02  0.47000000000E+01 0. -1.
         -5    1    3    3    0  502  0.70699362363E+02  0.37279113629E+02  0.21387086196E+03  0.22836586379E+03  0.47000000000E+01 0. -1.
<mgrwt>
<rscale>  0 0.11628385E+03</rscale>
<asrwt>0</asrwt>
<pdfrwt beam="1">  1        2 0.82489643E-01 0.12980827E+03</pdfrwt>
<pdfrwt beam="2">  1       -2 0.42474749E-02 0.12980827E+03</pdfrwt>
<totfact> 0.13631872E+04</totfact>
</mgrwt>
</event>
<event>
 8    1  0.2018715E-005  0.2302426E+03  0.7546771E-02  0.1128444E+00
         -1   -1    0    0    0  501 -0.00000000000E+00  0.00000000000E+00  0.12295931845E+03  0.12295931845E+03  0.00000000000E+00 0.  1.
          1   -1    0    0  501    0  0.00000000000E+00 -0.00000000000E+00 -0.48678803905E+03  0.48678803905E+03  0.00000000000E+00 0. -1.
         25    2    1    2    0    0 -0.61287361615E+02 -0.18339268904E+03 -0.30602431533E+03  0.38296544670E+03  0.12499053046E+03 0.  0.
         23    2    1    2    0    0  0.61287361615E+02  0.18339268904E+03 -0.57804405278E+02  0.22678191080E+03  0.10343919331E+03 0.  0.
          5    1    4    4  502    0  0.27653721370E+02  0.99871408784E+02 -0.83348372843E+02  0.13307166435E+03  0.47000000000E+01 0. -1.
         -5    1    3    3    0  503 -0.82022841634E+02 -0.54140264323E+02 -0.14780787316E+03  0.17756174177E+03  0.47000000000E+01 0.  1.
          5    1    3    3  503    0  0.20735480018E+02 -0.12925242471E+03 -0.15821644217E+03  0.20540370493E+03  0.47000000000E+01 0.  1.
         -5    1    4    4    0  502  0.33633640245E+02  0.83521280253E+02  0.25543967565E+02  0.93710246452E+02  0.47000000000E+01 0.  1.
<mgrwt>
<rscale>  0 0.22745454E+03</rscale>
<asrwt>0</asrwt>
<pdfrwt beam="1">  1        1 0.74890468E-01 0.23024259E+03</pdfrwt>
<pdfrwt beam="2">  1       -1 0.18916818E-01 0.23024259E+03</pdfrwt>
<totfact> 0.10347437E+03</totfact>
</mgrwt>
</event>
<event>
 8    1  0.2018715E-005  0.1259729E+03  0.7546771E-02  0.1241026E+00
         -2   -1    0    0    0  501 -0.00000000000E+00  0.00000000000E+00  0.60010411672E+02  0.60010411672E+02  0.00000000000E+00 0.  1.
          2   -1    0    0  501    0  0.00000000000E+00 -0.00000000000E+00 -0.27124911316E+03  0.27124911316E+03  0.00000000000E+00 0. -1.
         25    2    1    2    0    0 -0.13997480096E+02  0.63587147825E+01 -0.17806192100E+03  0.21811743167E+03  0.12503121044E+03 0.  0.
         23    2    1    2    0    0  0.13997480096E+02 -0.63587147825E+01 -0.33176780491E+02  0.11314209316E+03  0.10707040571E+03 0.  0.
          5    1    4    4  502    0  0.20519150380E+02  0.29328793232E+02 -0.58435202884E+02  0.68687528569E+02  0.47000000000E+01 0. -1.
         -5    1    3    3    0  503  0.34372495140E+02 -0.41976326692E+02 -0.10272004703E+03  0.11626254120E+03  0.47000000000E+01 0. -1.
          5    1    3    3  503    0 -0.48369975236E+02  0.48335041475E+02 -0.75341873965E+02  0.10185489046E+03  0.47000000000E+01 0. -1.
         -5    1    4    4    0  502 -0.65216702840E+01 -0.35687508015E+02  0.25258422394E+02  0.44454564596E+02  0.47000000000E+01 0.  1.
<mgrwt>
<rscale>  0 0.12126432E+03</rscale>
<asrwt>0</asrwt>
<pdfrwt beam="1">  1        2 0.41730633E-01 0.12597288E+03</pdfrwt>
<pdfrwt beam="2">  1       -2 0.92323710E-02 0.12597288E+03</pdfrwt>
<totfact> 0.86695694E+03</totfact>
</mgrwt>
</event>
<event>
 8    1  0.2018715E-005  0.1271416E+03  0.7546771E-02  0.1258401E+00
         -1   -1    0    0    0  501 -0.00000000000E+00  0.00000000000E+00  0.35785645877E+02  0.35785645877E+02  0.00000000000E+00 0.  1.
          1   -1    0    0  501    0  0.00000000000E+00 -0.00000000000E+00 -0.54681330873E+03  0.54681330873E+03  0.00000000000E+00 0. -1.
         25    2    1    2    0    0 -0.12921377377E+02  0.19325332933E+02 -0.91770935537E+02  0.15680203927E+03  0.12499817769E+03 0.  0.
         23    2    1    2    0    0  0.12921377377E+02 -0.19325332933E+02 -0.41925672732E+03  0.42579691533E+03  0.70614298984E+02 0.  0.
          5    1    3    3  502    0  0.37816936348E+02  0.52983520437E+02 -0.56213908667E+02  0.86136331709E+02  0.47000000000E+01 0.  1.
         -5    1    4    4    0  503 -0.10920614164E+02  0.18545008085E+02 -0.63640076462E+02  0.67344832546E+02  0.47000000000E+01 0.  1.
          5    1    4    4  503    0  0.23841991541E+02 -0.37870341018E+02 -0.35561665085E+03  0.35845208279E+03  0.47000000000E+01 0. -1.
         -5    1    3    3    0  502 -0.50738313726E+02 -0.33658187504E+02 -0.35557026870E+02  0.70665707564E+02  0.47000000000E+01 0.  1.
<mgrwt>
<rscale>  0 0.11117956E+03</rscale>
<asrwt>0</asrwt>
<pdfrwt beam="1">  1        1 0.84125121E-01 0.12714155E+03</pdfrwt>
<pdfrwt beam="2">  1       -1 0.55054842E-02 0.12714155E+03</pdfrwt>
<totfact> 0.58392370E+03</totfact>
</mgrwt>
</event>
<event>
 8    1  0.2018715E-005  0.2780358E+03  0.7546771E-02  0.1097013E+00
         -2   -1    0    0    0  501 -0.00000000000E+00  0.00000000000E+00  0.32638195529E+02  0.32638195529E+02  0.00000000000E+00 0.  1.
          2   -1    0    0  501    0  0.00000000000E+00 -0.00000000000E+00 -0.30030068819E+04  0.30030068819E+04  0.00000000000E+00 0. -1.
         25    2    1    2    0    0  0.17605715353E+03  0.17517332289E+03 -0.21948668748E+04  0.22124069505E+04  0.12498840877E+03 0.  0.
         23    2    1    2    0    0 -0.17605715353E+03 -0.17517332289E+03 -0.77550181164E+03  0.82323812696E+03  0.12097991345E+03 0.  0.
          5    1    4    4  502    0 -0.14471295947E+03 -0.10125058370E+03 -0.65461881656E+03  0.67804233373E+03  0.47000000000E+01 0. -1.
         -5    1    4    4    0  502 -0.31344194066E+02 -0.73922739194E+02 -0.12088299508E+03  0.14519579322E+03  0.47000000000E+01 0.  1.
          5    1    3    3  503    0  0.17844261309E+03  0.10854210627E+03 -0.15320366069E+04  0.15462151888E+04  0.47000000000E+01 0. -1.
         -5    1    3    3    0  503 -0.23854595552E+01  0.66631216629E+02 -0.66283026782E+03  0.66619176172E+03  0.47000000000E+01 0. -1.
<mgrwt>
<rscale>  0 0.27759005E+03</rscale>
<asrwt>0</asrwt>
<pdfrwt beam="1">  1        2 0.46200096E+00 0.27803582E+03</pdfrwt>
<pdfrwt beam="2">  1       -2 0.50212619E-02 0.27803582E+03</pdfrwt>
<totfact> 0.40305366E+02</totfact>
</mgrwt>
</event>
<event>
 8    1  0.2018715E-005  0.1406854E+03  0.7546771E-02  0.1227877E+00
         -1   -1    0    0    0  501 -0.00000000000E+00  0.00000000000E+00  0.37174255988E+03  0.37174255988E+03  0.00000000000E+00 0.  1.
          1   -1    0    0  501    0  0.00000000000E+00 -0.00000000000E+00 -0.44692016328E+02  0.44692016328E+02  0.00000000000E+00 0. -1.
         25    2    1    2    0    0  0.19339089968E+02  0.61598602676E+02  0.11666013383E+03  0.18276207335E+03  0.12499600145E+03 0.  0.
         23    2    1    2    0    0 -0.19339089968E+02 -0.61598602676E+02  0.21039040972E+03  0.23367250286E+03  0.78551421599E+02 0.  0.
          5    1    3    3  502    0 -0.43225859312E+02  0.14776916789E+01  0.74277546896E+02  0.86080790301E+02  0.47000000000E+01 0. -1.
         -5    1    4    4    0  503 -0.22744074464E+02 -0.33499864938E+02  0.19845333380E+03  0.20259651915E+03  0.47000000000E+01 0.  1.
          5    1    4    4  503    0  0.34049844960E+01 -0.28098737738E+02  0.11937075923E+02  0.31075983709E+02  0.47000000000E+01 0. -1.
         -5    1    3    3    0  502  0.62564949280E+02  0.60120910997E+02  0.42382586934E+02  0.96681283053E+02  0.47000000000E+01 0. -1.
<mgrwt>
<rscale>  0 0.12971648E+03</rscale>
<asrwt>0</asrwt>
<pdfrwt beam="1">  1        1 0.68756951E-02 0.14068542E+03</pdfrwt>
<pdfrwt beam="2">  1       -1 0.57191161E-01 0.14068542E+03</pdfrwt>
<totfact> 0.32900238E+03</totfact>
</mgrwt>
</event>
<event>
 8    1  0.2018715E-005  0.2127086E+03  0.7546771E-02  0.1141284E+00
          2   -1    0    0  501    0  0.00000000000E+00  0.00000000000E+00  0.91800658961E+03  0.91800658961E+03  0.00000000000E+00 0. -1.
         -2   -1    0    0    0  501 -0.00000000000E+00 -0.00000000000E+00 -0.47218861840E+02  0.47218861840E+02  0.00000000000E+00 0.  1.
         25    2    1    2    0    0  0.13241488658E+03 -0.10993675321E+03  0.46124584184E+03  0.50792978333E+03  0.12500058514E+03 0.  0.
         23    2    1    2    0    0 -0.13241488658E+03  0.10993675321E+03  0.40954188593E+03  0.45729566812E+03  0.10851257924E+03 0.  0.
          5    1    3    3  502    0  0.72100476412E+02 -0.58411641995E+02  0.39093548207E+03  0.40182463807E+03  0.47000000000E+01 0.  1.
         -5    1    4    4    0  503 -0.80802957735E+02  0.80287684615E+02  0.13671630825E+03  0.17801311530E+03  0.47000000000E+01 0.  1.
          5    1    4    4  503    0 -0.51611928849E+02  0.29649068596E+02  0.27282557768E+03  0.27928255281E+03  0.47000000000E+01 0. -1.
         -5    1    3    3    0  502  0.60314410173E+02 -0.51525111215E+02  0.70310359772E+02  0.10610514526E+03  0.47000000000E+01 0.  1.
<mgrwt>
<rscale>  0 0.21035698E+03</rscale>
<asrwt>0</asrwt>
<pdfrwt beam="1">  1        2 0.14123177E+00 0.21270858E+03</pdfrwt>
<pdfrwt beam="2">  1       -2 0.72644409E-02 0.21270858E+03</pdfrwt>
<totfact> 0.32306484E+03</totfact>
</mgrwt>
</event>
<event>
 8    1  0.2018715E-005  0.2163724E+03  0.7546771E-02  0.1138775E+00
         -1   -1    0    0    0  501 -0.00000000000E+00  0.00000000000E+00  0.20468902497E+03  0.20468902497E+03  0.00000000000E+00 0.  1.
          1   -1    0    0  501    0  0.00000000000E+00 -0.00000000000E+00 -0.22999610712E+03  0.22999610712E+03  0.00000000000E+00 0. -1.
         25    2    1    2    0    0 -0.15769680564E+03  0.79515306286E+02  0.38234941830E+02  0.21972461676E+03  0.12500411989E+03 0.  0.
         23    2    1    2    0    0  0.15769680564E+03 -0.79515306286E+02 -0.63542023984E+02  0.21496051533E+03  0.10478295614E+03 0.  0.
          5    1    4    4  502    0  0.71006030828E+02 -0.73745946084E+02 -0.75284756230E+02  0.12716212289E+03  0.47000000000E+01 0. -1.
         -5    1    3    3    0  503 -0.17907998111E+03  0.68660784504E+02  0.35873305451E+02  0.19517409410E+03  0.47000000000E+01 0.  1.
          5    1    3    3  503    0  0.21383175473E+02  0.10854521782E+02  0.23616363787E+01  0.24550522659E+02  0.47000000000E+01 0.  1.
         -5    1    4    4    0  502  0.86690774809E+02 -0.57693602021E+01  0.11742732246E+02  0.87798392438E+02  0.47000000000E+01 0.  1.
<mgrwt>
<rscale>  0 0.21356365E+03</rscale>
<asrwt>0</asrwt>
<pdfrwt beam="1">  1        1 0.35384016E-01 0.21637236E+03</pdfrwt>
<pdfrwt beam="2">  1       -1 0.31490619E-01 0.21637236E+03</pdfrwt>
<totfact> 0.11507949E+03</totfact>
</mgrwt>
</event>
<event>
 8    1  0.2018715E-005  0.1332175E+03  0.7546771E-02  0.1225495E+00
         -1   -1    0    0    0  501 -0.00000000000E+00  0.00000000000E+00  0.61343230661E+02  0.61343230661E+02  0.00000000000E+00 0.  1.
          1   -1    0    0  501    0  0.00000000000E+00 -0.00000000000E+00 -0.27787929523E+03  0.27787929523E+03  0.00000000000E+00 0. -1.
         25    2    1    2    0    0 -0.42028381925E+02 -0.18838115252E+02 -0.13263750747E+03  0.18798832114E+03  0.12500256407E+03 0.  0.
         23    2    1    2    0    0  0.42028381925E+02  0.18838115252E+02 -0.83898557091E+02  0.15123420475E+03  0.11709635916E+03 0.  0.
          5    1    3    3  502    0  0.69711876985E+00 -0.24978878680E+02 -0.14142144261E+03  0.14368905589E+03  0.47000000000E+01 0.  1.
         -5    1    4    4    0  503  0.14652345092E+02 -0.27859846292E+02  0.17407995257E+02  0.36276584059E+02  0.47000000000E+01 0.  1.
          5    1    4    4  503    0  0.27376036833E+02  0.46697961544E+02 -0.10130655235E+03  0.11495762069E+03  0.47000000000E+01 0. -1.
         -5    1    3    3    0  502 -0.42725500695E+02  0.61407634278E+01  0.87839351329E+01  0.44299265248E+02  0.47000000000E+01 0.  1.
<mgrwt>
<rscale>  0 0.13133054E+03</rscale>
<asrwt>0</asrwt>
<pdfrwt beam="1">  1        1 0.42750660E-01 0.13321749E+03</pdfrwt>
<pdfrwt beam="2">  1       -1 0.94374202E-02 0.13321749E+03</pdfrwt>
<totfact> 0.61395192E+03</totfact>
</mgrwt>
</event>
<event>
 8    1  0.2018715E-005  0.2336876E+03  0.7546771E-02  0.1129045E+00
         -2   -1    0    0    0  501 -0.00000000000E+00  0.00000000000E+00  0.33128392755E+02  0.33128392755E+02  0.00000000000E+00 0.  1.
          2   -1    0    0  501    0  0.00000000000E+00 -0.00000000000E+00 -0.16789894516E+04  0.16789894516E+04  0.00000000000E+00 0. -1.
         25    2    1    2    0    0 -0.14863048744E+03 -0.12997884561E+03 -0.56061670603E+03  0.60737219176E+03  0.12499746457E+03 0.  0.
         23    2    1    2    0    0  0.14863048744E+03  0.12997884561E+03 -0.10852443529E+04  0.11047456526E+04  0.61009257409E+02 0.  0.
          5    1    3    3  502    0 -0.10923932760E+03 -0.10613676210E+03 -0.53097963133E+03  0.55241261920E+03  0.47000000000E+01 0.  1.
         -5    1    4    4    0  503  0.55781022723E+02  0.16131266728E+02 -0.25291986633E+03  0.25954246097E+03  0.47000000000E+01 0.  1.
          5    1    4    4  503    0  0.92849464721E+02  0.11384757888E+03 -0.83232448652E+03  0.84520319165E+03  0.47000000000E+01 0. -1.
         -5    1    3    3    0  502 -0.39391159843E+02 -0.23842083513E+02 -0.29637074698E+02  0.54959572567E+02  0.47000000000E+01 0.  1.
<mgrwt>
<rscale>  0 0.22661567E+03</rscale>
<asrwt>0</asrwt>
<pdfrwt beam="1">  1        2 0.25830605E+00 0.23368759E+03</pdfrwt>
<pdfrwt beam="2">  1       -2 0.50966763E-02 0.23368759E+03</pdfrwt>
<totfact> 0.20865943E+03</totfact>
</mgrwt>
</event>
<event>
 8    1  0.2018715E-005  0.1254043E+03  0.7546771E-02  0.1258909E+00
          2   -1    0    0  501    0  0.00000000000E+00  0.00000000000E+00  0.25351650877E+03  0.25351650877E+03  0.00000000000E+00 0. -1.
         -2   -1    0    0    0  501 -0.00000000000E+00 -0.00000000000E+00 -0.40329569801E+02  0.40329569801E+02  0.00000000000E+00 0.  1.
         25    2    1    2    0    0 -0.44760629598E+01  0.89665552797E+01  0.12729087077E+03  0.17868744897E+03  0.12500321750E+03 0.  0.
         23    2    1    2    0    0  0.44760629598E+01 -0.89665552797E+01  0.85896068199E+02  0.11515862960E+03  0.76045651985E+02 0.  0.
          5    1    4    4  502    0  0.79712532565E+01 -0.36423081241E+02  0.77045747959E+02  0.85722336669E+02  0.47000000000E+01 0. -1.
         -5    1    3    3    0  503 -0.43320326754E+01  0.34101173510E+02 -0.12271933310E+02  0.36801452268E+02  0.47000000000E+01 0.  1.
          5    1    3    3  503    0 -0.14403028441E+00 -0.25134618230E+02  0.13956280408E+03  0.14188599671E+03  0.47000000000E+01 0.  1.
         -5    1    4    4    0  502 -0.34951902967E+01  0.27456525961E+02  0.88503202407E+01  0.29436292929E+02  0.47000000000E+01 0.  1.
<mgrwt>
<rscale>  0 0.11090156E+03</rscale>
<asrwt>0</asrwt>
<pdfrwt beam="1">  1        2 0.39002539E-01 0.12540430E+03</pdfrwt>
<pdfrwt beam="2">  1       -2 0.62045494E-02 0.12540430E+03</pdfrwt>
<totfact> 0.17142127E+04</totfact>
</mgrwt>
</event>
<event>
 8    1  0.2018715E-005  0.1998233E+03  0.7546771E-02  0.1152525E+00
          2   -1    0    0  501    0  0.00000000000E+00  0.00000000000E+00  0.42818026720E+03  0.42818026720E+03  0.00000000000E+00 0. -1.
         -2   -1    0    0    0  501 -0.00000000000E+00 -0.00000000000E+00 -0.10572026301E+03  0.10572026301E+03  0.00000000000E+00 0.  1.
         25    2    1    2    0    0 -0.33914022329E+02  0.15216722527E+03  0.27555747191E+03  0.34038400329E+03  0.12499729602E+03 0.  0.
         23    2    1    2    0    0  0.33914022329E+02 -0.15216722527E+03  0.46902532280E+02  0.19351652692E+03  0.10461249112E+03 0.  0.
          5    1    4    4  502    0 -0.20614438080E+02 -0.32254387137E+02  0.48158689557E+02  0.61698054482E+02  0.47000000000E+01 0. -1.
         -5    1    4    4    0  502  0.54528460410E+02 -0.11991283814E+03 -0.12561572773E+01  0.13181847244E+03  0.47000000000E+01 0.  1.
          5    1    3    3  503    0  0.31229651199E+02 -0.26593385497E+01  0.47572418037E+02  0.57162821426E+02  0.47000000000E+01 0. -1.
         -5    1    3    3    0  503 -0.65143673529E+02  0.15482656382E+03  0.22798505387E+03  0.28322118186E+03  0.47000000000E+01 0. -1.
<mgrwt>
<rscale>  0 0.19673319E+03</rscale>
<asrwt>0</asrwt>
<pdfrwt beam="1">  1        2 0.65873886E-01 0.19982330E+03</pdfrwt>
<pdfrwt beam="2">  1       -2 0.16264656E-01 0.19982330E+03</pdfrwt>
<totfact> 0.21914256E+03</totfact>
</mgrwt>
</event>
<event>
 8    1  0.2018715E-005  0.1330305E+03  0.7546771E-02  0.1247802E+00
         -2   -1    0    0    0  501 -0.00000000000E+00  0.00000000000E+00  0.17279478913E+02  0.17279478913E+02  0.00000000000E+00 0.  1.
          2   -1    0    0  501    0  0.00000000000E+00 -0.00000000000E+00 -0.66726966719E+03  0.66726966719E+03  0.00000000000E+00 0. -1.
         25    2    1    2    0    0 -0.33472311905E+02 -0.30839748621E+02 -0.44494450280E+03  0.46440576824E+03  0.12500248496E+03 0.  0.
         23    2    1    2    0    0  0.33472311905E+02  0.30839748621E+02 -0.20504568547E+03  0.22014337786E+03  0.65938516240E+02 0.  0.
          5    1    3    3  502    0 -0.66423835030E+02 -0.19651295649E+02 -0.12883443516E+03  0.14635129300E+03  0.47000000000E+01 0.  1.
         -5    1    3    3    0  502  0.32951523125E+02 -0.11188452972E+02 -0.31611006765E+03  0.31805447524E+03  0.47000000000E+01 0.  1.
          5    1    4    4  503    0  0.45525575572E+02  0.42366566122E+01 -0.15817813054E+03  0.16472078882E+03  0.47000000000E+01 0. -1.
         -5    1    4    4    0  503 -0.12053263668E+02  0.26603092009E+02 -0.46867554936E+02  0.55422589034E+02  0.47000000000E+01 0.  1.
<mgrwt>
<rscale>  0 0.11719253E+03</rscale>
<asrwt>0</asrwt>
<pdfrwt beam="1">  1        2 0.10265688E+00 0.13303047E+03</pdfrwt>
<pdfrwt beam="2">  1       -2 0.26583813E-02 0.13303047E+03</pdfrwt>
<totfact> 0.21261752E+04</totfact>
</mgrwt>
</event>
<event>
 8    1  0.2018715E-005  0.1461747E+03  0.7546771E-02  0.1206700E+00
         -4   -1    0    0    0  501 -0.00000000000E+00  0.00000000000E+00  0.28331057538E+02  0.28331057538E+02  0.00000000000E+00 0.  1.
          4   -1    0    0  501    0  0.00000000000E+00 -0.00000000000E+00 -0.75042056674E+03  0.75042056674E+03  0.00000000000E+00 0. -1.
         25    2    1    2    0    0 -0.37180349997E+02 -0.66021261924E+02 -0.30433151049E+03  0.33761621879E+03  0.12500342980E+03 0.  0.
         23    2    1    2    0    0  0.37180349997E+02  0.66021261924E+02 -0.41775799872E+03  0.44113540549E+03  0.11973936293E+03 0.  0.
          5    1    3    3  502    0 -0.53733712560E+02 -0.94695115958E+02 -0.26132397295E+03  0.28313739719E+03  0.47000000000E+01 0. -1.
         -5    1    3    3    0  502  0.16553362563E+02  0.28673854033E+02 -0.43007537540E+02  0.54478821596E+02  0.47000000000E+01 0. -1.
          5    1    4    4  503    0  0.79671572131E+02  0.35430798605E+02 -0.29352616770E+03  0.30623945210E+03  0.47000000000E+01 0. -1.
         -5    1    4    4    0  503 -0.42491222135E+02  0.30590463319E+02 -0.12423183101E+03  0.13489595339E+03  0.47000000000E+01 0.  1.
<mgrwt>
<rscale>  0 0.14504278E+03</rscale>
<asrwt>0</asrwt>
<pdfrwt beam="1">  1        4 0.11544931E+00 0.14617470E+03</pdfrwt>
<pdfrwt beam="2">  1       -4 0.43586244E-02 0.14617470E+03</pdfrwt>
<totfact> 0.30670796E+02</totfact>
</mgrwt>
</event>
<event>
 7    1  0.2018715E-005  0.4363611E+03  0.7546771E-02  0.1064440E+00
          2   -1    0    0  501    0  0.00000000000E+00  0.00000000000E+00  0.14726753166E+04  0.14726753166E+04  0.00000000000E+00 0. -1.
         -2   -1    0    0    0  501 -0.00000000000E+00 -0.00000000000E+00 -0.63081027157E+02  0.63081027157E+02  0.00000000000E+00 0.  1.
         25    2    1    2    0    0 -0.11152007596E+03  0.37543488331E+02  0.44881634707E+03  0.48052876470E+03  0.12500215775E+03 0.  0.
          5    1    3    3  502    0 -0.13696993645E+03  0.44311651583E+02  0.35911841341E+03  0.38692688044E+03  0.47000000000E+01 0.  1.
         -5    1    1    2    0  503  0.29937067810E+02  0.14922561313E+03  0.13129436939E+03  0.20105922778E+03  0.47000000000E+01 0.  1.
          5    1    1    2  503    0  0.81583008152E+02 -0.18676910146E+03  0.82948357303E+03  0.85416835132E+03  0.47000000000E+01 0. -1.
         -5    1    3    3    0  502  0.25449860489E+02 -0.67681632514E+01  0.89697933667E+02  0.93601884259E+02  0.47000000000E+01 0.  1.
<mgrwt>
<rscale>  0 0.34558931E+03</rscale>
<asrwt>0</asrwt>
<pdfrwt beam="1">  1        2 0.22656541E+00 0.43636108E+03</pdfrwt>
<pdfrwt beam="2">  1       -2 0.97047745E-02 0.43636108E+03</pdfrwt>
<totfact> 0.97335877E+02</totfact>
</mgrwt>
</event>
<event>
 8    1  0.2018715E-005  0.1878285E+03  0.7546771E-02  0.1163042E+00
         -1   -1    0    0    0  501 -0.00000000000E+00  0.00000000000E+00  0.90695711656E+02  0.90695711656E+02  0.00000000000E+00 0.  1.
          1   -1    0    0  501    0  0.00000000000E+00 -0.00000000000E+00 -0.37495739814E+03  0.37495739814E+03  0.00000000000E+00 0. -1.
         25    2    1    2    0    0  0.13462910588E+02 -0.13954419627E+03 -0.11134755479E+03  0.21835256025E+03  0.12500291972E+03 0.  0.
         23    2    1    2    0    0 -0.13462910588E+02  0.13954419627E+03 -0.17291413170E+03  0.24730054954E+03  0.10772387010E+03 0.  0.
          5    1    4    4  502    0  0.19918360352E+02  0.73928529222E+02 -0.15258523495E+03  0.17078206122E+03  0.47000000000E+01 0. -1.
         -5    1    4    4    0  502 -0.33381270939E+02  0.65615667047E+02 -0.20328896749E+02  0.76518488319E+02  0.47000000000E+01 0.  1.
          5    1    3    3  503    0 -0.25395134373E+02 -0.14558798169E+03 -0.82159573098E+02  0.16915394975E+03  0.47000000000E+01 0. -1.
         -5    1    3    3    0  503  0.38858044961E+02  0.60437854252E+01 -0.29187981688E+02  0.49198610503E+02  0.47000000000E+01 0. -1.
<mgrwt>
<rscale>  0 0.18500855E+03</rscale>
<asrwt>0</asrwt>
<pdfrwt beam="1">  1        1 0.57685754E-01 0.18782855E+03</pdfrwt>
<pdfrwt beam="2">  1       -1 0.13953186E-01 0.18782855E+03</pdfrwt>
<totfact> 0.23454132E+03</totfact>
</mgrwt>
</event>
<event>
 8    1  0.2018715E-005  0.1423478E+03  0.7546771E-02  0.1230437E+00
          2   -1    0    0  501    0  0.00000000000E+00  0.00000000000E+00  0.29290075723E+03  0.29290075723E+03  0.00000000000E+00 0. -1.
         -2   -1    0    0    0  501 -0.00000000000E+00 -0.00000000000E+00 -0.47346936576E+02  0.47346936576E+02  0.00000000000E+00 0.  1.
         25    2    1    2    0    0 -0.58508031000E+02 -0.34862123528E+02  0.15273949910E+03  0.20878758664E+03  0.12499737758E+03 0.  0.
         23    2    1    2    0    0  0.58508031000E+02  0.34862123528E+02  0.92814321558E+02  0.13146010717E+03  0.63472073716E+02 0.  0.
          5    1    4    4  502    0  0.23298654281E+02 -0.17252232046E+02  0.22445658254E+02  0.36964366305E+02  0.47000000000E+01 0. -1.
         -5    1    3    3    0  503 -0.96629845653E+02 -0.27911677678E+02  0.12682030647E+03  0.16193167990E+03  0.47000000000E+01 0. -1.
          5    1    3    3  503    0  0.38121814653E+02 -0.69504458503E+01  0.25919192627E+02  0.46855906740E+02  0.47000000000E+01 0. -1.
         -5    1    4    4    0  502  0.35209376719E+02  0.52114355575E+02  0.70368663304E+02  0.94495740862E+02  0.47000000000E+01 0.  1.
<mgrwt>
<rscale>  0 0.12801131E+03</rscale>
<asrwt>0</asrwt>
<pdfrwt beam="1">  1        2 0.45061654E-01 0.14234782E+03</pdfrwt>
<pdfrwt beam="2">  1       -2 0.72841443E-02 0.14234782E+03</pdfrwt>
<totfact> 0.11637970E+04</totfact>
</mgrwt>
</event>
<event>
 8    1  0.2018715E-005  0.1433552E+03  0.7546771E-02  0.1223576E+00
          2   -1    0    0  501    0  0.00000000000E+00  0.00000000000E+00  0.54470209480E+03  0.54470209480E+03  0.00000000000E+00 0. -1.
         -2   -1    0    0    0  501 -0.00000000000E+00 -0.00000000000E+00 -0.29498487404E+02  0.29498487404E+02  0.00000000000E+00 0.  1.
         25    2    1    2    0    0  0.70275588168E+01 -0.69828710409E+02  0.23923662221E+03  0.27889939218E+03  0.12500109669E+03 0.  0.
         23    2    1    2    0    0 -0.70275588168E+01  0.69828710409E+02  0.27596698519E+03  0.29530119002E+03  0.78227747850E+02 0.  0.
          5    1    4    4  502    0 -0.40782315592E+02  0.24170448948E+02  0.11172753939E+03  0.12146003839E+03  0.47000000000E+01 0. -1.
         -5    1    3    3    0  503  0.51992730699E+02 -0.64073983311E+01  0.43562341197E+02  0.68293970228E+02  0.47000000000E+01 0. -1.
          5    1    3    3  503    0 -0.44965171882E+02 -0.63421312078E+02  0.19567428101E+03  0.21060542195E+03  0.47000000000E+01 0. -1.
         -5    1    4    4    0  502  0.33754756775E+02  0.45658261461E+02  0.16423944580E+03  0.17384115163E+03  0.47000000000E+01 0.  1.
<mgrwt>
<rscale>  0 0.13264957E+03</rscale>
<asrwt>0</asrwt>
<pdfrwt beam="1">  1        2 0.83800315E-01 0.14335519E+03</pdfrwt>
<pdfrwt beam="2">  1       -2 0.45382293E-02 0.14335519E+03</pdfrwt>
<totfact> 0.12223478E+04</totfact>
</mgrwt>
</event>
<event>
 8    1  0.2018715E-005  0.1528480E+03  0.7546771E-02  0.1202459E+00
          2   -1    0    0  501    0  0.00000000000E+00  0.00000000000E+00  0.81327208006E+03  0.81327208006E+03  0.00000000000E+00 0. -1.
         -2   -1    0    0    0  501 -0.00000000000E+00 -0.00000000000E+00 -0.29506145127E+02  0.29506145127E+02  0.00000000000E+00 0.  1.
         25    2    1    2    0    0  0.52536184980E+02 -0.70580438916E+02  0.56483269589E+03  0.58514825958E+03  0.12498344792E+03 0.  0.
         23    2    1    2    0    0 -0.52536184980E+02  0.70580438916E+02  0.21893323905E+03  0.25762996561E+03  0.10343977441E+03 0.  0.
          5    1    4    4  502    0 -0.26135797433E+02  0.40453169048E+02  0.21105971724E+03  0.21653598554E+03  0.47000000000E+01 0. -1.
         -5    1    3    3    0  503 -0.25307136757E+02  0.14789869486E+02  0.20647327626E+03  0.20859648900E+03  0.47000000000E+01 0. -1.
          5    1    3    3  503    0  0.77843321737E+02 -0.85370308402E+02  0.35835941963E+03  0.37655177058E+03  0.47000000000E+01 0. -1.
         -5    1    4    4    0  502 -0.26400387548E+02  0.30127269868E+02  0.78735218101E+01  0.41093980071E+02  0.47000000000E+01 0.  1.
<mgrwt>
<rscale>  0 0.14839496E+03</rscale>
<asrwt>0</asrwt>
<pdfrwt beam="1">  1        2 0.12511876E+00 0.15284800E+03</pdfrwt>
<pdfrwt beam="2">  1       -2 0.45394076E-02 0.15284800E+03</pdfrwt>
<totfact> 0.76500886E+03</totfact>
</mgrwt>
</event>
<event>
 8    1  0.2018715E-005  0.1853147E+03  0.7546771E-02  0.1170212E+00
          1   -1    0    0  501    0  0.00000000000E+00  0.00000000000E+00  0.11009509324E+04  0.11009509324E+04  0.00000000000E+00 0. -1.
         -1   -1    0    0    0  501 -0.00000000000E+00 -0.00000000000E+00 -0.34516851371E+02  0.34516851371E+02  0.00000000000E+00 0.  1.
         25    2    1    2    0    0  0.13598364197E+03 -0.15007215328E+02  0.84159620386E+03  0.86175733840E+03  0.12499909012E+03 0.  0.
         23    2    1    2    0    0 -0.13598364197E+03  0.15007215328E+02  0.22483787719E+03  0.27371044540E+03  0.75156965772E+02 0.  0.
          5    1    3    3  502    0  0.14690800092E+03  0.36288055730E+01  0.80975040615E+03  0.82299024249E+03  0.47000000000E+01 0. -1.
         -5    1    3    3    0  502 -0.10924358952E+02 -0.18636020902E+02  0.31845797712E+02  0.38767095912E+02  0.47000000000E+01 0. -1.
          5    1    4    4  503    0 -0.56786989736E+02  0.43447610846E+02  0.97188607933E+02  0.12074838551E+03  0.47000000000E+01 0. -1.
         -5    1    4    4    0  503 -0.79196652237E+02 -0.28440395518E+02  0.12764926926E+03  0.15296205989E+03  0.47000000000E+01 0.  1.
<mgrwt>
<rscale>  0 0.17753295E+03</rscale>
<asrwt>0</asrwt>
<pdfrwt beam="1">  1        1 0.16937704E+00 0.18531471E+03</pdfrwt>
<pdfrwt beam="2">  1       -1 0.53102857E-02 0.18531471E+03</pdfrwt>
<totfact> 0.21573432E+03</totfact>
</mgrwt>
</event>
<event>
 8    1  0.2018715E-005  0.1321558E+03  0.7546771E-02  0.1246085E+00
          1   -1    0    0  501    0  0.00000000000E+00  0.00000000000E+00  0.17183450115E+03  0.17183450115E+03  0.00000000000E+00 0. -1.
         -1   -1    0    0    0  501 -0.00000000000E+00 -0.00000000000E+00 -0.69066760297E+02  0.69066760297E+02  0.00000000000E+00 0.  1.
         25    2    1    2    0    0  0.16664060716E+02 -0.39458043348E+02  0.50553828521E+02  0.14149503724E+03  0.12502210957E+03 0.  0.
         23    2    1    2    0    0 -0.16664060716E+02  0.39458043348E+02  0.52213912330E+02  0.99406224204E+02  0.72942968581E+02 0.  0.
          5    1    4    4  502    0  0.22878691950E+02  0.30734302252E+02  0.42667026188E+02  0.57537787619E+02  0.47000000000E+01 0. -1.
         -5    1    3    3    0  503  0.60053524694E+02 -0.52041685340E+02  0.93179982739E+01  0.80147850458E+02  0.47000000000E+01 0.  1.
          5    1    3    3  503    0 -0.43389463978E+02  0.12583641992E+02  0.41235830247E+02  0.61347186784E+02  0.47000000000E+01 0.  1.
         -5    1    4    4    0  502 -0.39542752666E+02  0.87237410958E+01  0.95468861415E+01  0.41868436586E+02  0.47000000000E+01 0.  1.
<mgrwt>
<rscale>  0 0.11820700E+03</rscale>
<asrwt>0</asrwt>
<pdfrwt beam="1">  1        1 0.26436077E-01 0.13215580E+03</pdfrwt>
<pdfrwt beam="2">  1       -1 0.10625656E-01 0.13215580E+03</pdfrwt>
<totfact> 0.92925963E+03</totfact>
</mgrwt>
</event>
<event>
 8    1  0.2018715E-005  0.1589909E+03  0.7546771E-02  0.1194005E+00
          2   -1    0    0  501    0  0.00000000000E+00  0.00000000000E+00  0.31615266313E+03  0.31615266313E+03  0.00000000000E+00 0. -1.
         -2   -1    0    0    0  501 -0.00000000000E+00 -0.00000000000E+00 -0.80068629746E+02  0.80068629746E+02  0.00000000000E+00 0.  1.
         25    2    1    2    0    0  0.79217605421E+02 -0.58117548862E+02  0.64601242927E+02  0.17161419161E+03  0.12500012672E+03 0.  0.
         23    2    1    2    0    0 -0.79217605421E+02  0.58117548862E+02  0.17148279046E+03  0.22460710126E+03  0.10671890189E+03 0.  0.
          5    1    3    3  502    0  0.18177580196E+02  0.17080303608E+02  0.70036962270E+02  0.74494478165E+02  0.47000000000E+01 0.  1.
         -5    1    3    3    0  502  0.61040025225E+02 -0.75197852469E+02 -0.54357193431E+01  0.97119713448E+02  0.47000000000E+01 0.  1.
          5    1    4    4  503    0 -0.22854919527E+02  0.17689085289E+02  0.14853837012E+03  0.15139679152E+03  0.47000000000E+01 0. -1.
         -5    1    4    4    0  503 -0.56362685894E+02  0.40428463573E+02  0.22944420338E+02  0.73210309743E+02  0.47000000000E+01 0.  1.
<mgrwt>
<rscale>  0 0.15538715E+03</rscale>
<asrwt>0</asrwt>
<pdfrwt beam="1">  1        2 0.48638870E-01 0.15899091E+03</pdfrwt>
<pdfrwt beam="2">  1       -2 0.12318251E-01 0.15899091E+03</pdfrwt>
<totfact> 0.47390635E+03</totfact>
</mgrwt>
</event>
<event>
 8    1  0.2018715E-005  0.2070180E+03  0.7546771E-02  0.1146149E+00
          1   -1    0    0  501    0  0.00000000000E+00  0.00000000000E+00  0.18895513933E+04  0.18895513933E+04  0.00000000000E+00 0. -1.
         -1   -1    0    0    0  501 -0.00000000000E+00 -0.00000000000E+00 -0.27046875956E+02  0.27046875956E+02  0.00000000000E+00 0.  1.
         25    2    1    2    0    0 -0.11213977273E+03  0.12106637943E+03  0.13832656006E+04  0.13986708567E+04  0.12499618732E+03 0.  0.
         23    2    1    2    0    0  0.11213977273E+03 -0.12106637943E+03  0.47923891673E+03  0.51792741250E+03  0.10651980310E+03 0.  0.
          5    1    4    4  502    0  0.86210716310E+02 -0.10039094947E+03  0.46130830829E+03  0.47993549112E+03  0.47000000000E+01 0. -1.
         -5    1    3    3    0  503 -0.48893106554E+02  0.12304393976E+03  0.11227327325E+04  0.11305225454E+04  0.47000000000E+01 0. -1.
          5    1    3    3  503    0 -0.63246666178E+02 -0.19775603330E+01  0.26053286807E+03  0.26814831133E+03  0.47000000000E+01 0. -1.
         -5    1    4    4    0  502  0.25929056421E+02 -0.20675429959E+02  0.17930608443E+02  0.37991921379E+02  0.47000000000E+01 0.  1.
<mgrwt>
<rscale>  0 0.20431475E+03</rscale>
<asrwt>0</asrwt>
<pdfrwt beam="1">  1        1 0.29070011E+00 0.20701798E+03</pdfrwt>
<pdfrwt beam="2">  1       -1 0.41610593E-02 0.20701798E+03</pdfrwt>
<totfact> 0.92838083E+02</totfact>
</mgrwt>
</event>
<event>
 8    1  0.2018715E-005  0.1682967E+03  0.7546771E-02  0.1183423E+00
         -1   -1    0    0    0  501 -0.00000000000E+00  0.00000000000E+00  0.16647997517E+04  0.16647997517E+04  0.00000000000E+00 0.  1.
          1   -1    0    0  501    0  0.00000000000E+00 -0.00000000000E+00 -0.15688457260E+02  0.15688457260E+02  0.00000000000E+00 0. -1.
         25    2    1    2    0    0 -0.11016189309E+03  0.23717753054E+02  0.89727750916E+03  0.91292427072E+03  0.12500248451E+03 0.  0.
         23    2    1    2    0    0  0.11016189309E+03 -0.23717753054E+02  0.75183378528E+03  0.76756393824E+03  0.10584037081E+03 0.  0.
          5    1    4    4  502    0  0.16378087948E+02 -0.44434125448E+02  0.13202094729E+03  0.14033621696E+03  0.47000000000E+01 0. -1.
         -5    1    4    4    0  502  0.93783805142E+02  0.20716372394E+02  0.61981283799E+03  0.62722772127E+03  0.47000000000E+01 0.  1.
          5    1    3    3  503    0 -0.27894202823E+02 -0.44296107715E+02  0.17297412786E+03  0.18078266128E+03  0.47000000000E+01 0.  1.
         -5    1    3    3    0  503 -0.82267690267E+02  0.68013860769E+02  0.72430338130E+03  0.73214160945E+03  0.47000000000E+01 0.  1.
<mgrwt>
<rscale>  0 0.16476211E+03</rscale>
<asrwt>0</asrwt>
<pdfrwt beam="1">  1        1 0.24136101E-02 0.16829675E+03</pdfrwt>
<pdfrwt beam="2">  1       -1 0.25612290E+00 0.16829675E+03</pdfrwt>
<totfact> 0.33669683E+02</totfact>
</mgrwt>
</event>
<event>
 8    1  0.2018715E-005  0.1256515E+03  0.7546771E-02  0.1257096E+00
         -1   -1    0    0    0  501 -0.00000000000E+00  0.00000000000E+00  0.62165075752E+02  0.62165075752E+02  0.00000000000E+00 0.  1.
          1   -1    0    0  501    0  0.00000000000E+00 -0.00000000000E+00 -0.16924619575E+03  0.16924619575E+03  0.00000000000E+00 0. -1.
         25    2    1    2    0    0 -0.12352407914E+02 -0.33641760871E+01 -0.58077102135E+02  0.13842419342E+03  0.12499763146E+03 0.  0.
         23    2    1    2    0    0  0.12352407914E+02  0.33641760871E+01 -0.49004017866E+02  0.92987078083E+02  0.77982711298E+02 0.  0.
          5    1    3    3  502    0 -0.32626324436E+02  0.50732179492E+02 -0.52662888491E+02  0.80210354110E+02  0.47000000000E+01 0.  1.
         -5    1    4    4    0  503 -0.16232213815E+02  0.13848912090E+02  0.11794332058E+02  0.24828882377E+02  0.47000000000E+01 0.  1.
          5    1    4    4  503    0  0.28584621729E+02 -0.10484736002E+02 -0.60798349924E+02  0.68158195706E+02  0.47000000000E+01 0. -1.
         -5    1    3    3    0  502  0.20273916522E+02 -0.54096355579E+02 -0.54142136442E+01  0.58213839313E+02  0.47000000000E+01 0.  1.
<mgrwt>
<rscale>  0 0.11189718E+03</rscale>
<asrwt>0</asrwt>
<pdfrwt beam="1">  1        1 0.26037876E-01 0.12565153E+03</pdfrwt>
<pdfrwt beam="2">  1       -1 0.95638579E-02 0.12565153E+03</pdfrwt>
<totfact> 0.11073786E+04</totfact>
</mgrwt>
</event>
<event>
 8    1  0.2018715E-005  0.1381450E+03  0.7546771E-02  0.1220247E+00
          1   -1    0    0  501    0  0.00000000000E+00  0.00000000000E+00  0.10172668776E+04  0.10172668776E+04  0.00000000000E+00 0. -1.
         -1   -1    0    0    0  501 -0.00000000000E+00 -0.00000000000E+00 -0.17327938624E+02  0.17327938624E+02  0.00000000000E+00 0.  1.
         25    2    1    2    0    0  0.57061755536E+01  0.58540737197E+02  0.57723475539E+03  0.59353518249E+03  0.12499788671E+03 0.  0.
         23    2    1    2    0    0 -0.57061755536E+01 -0.58540737197E+02  0.42270418355E+03  0.44105963368E+03  0.11133371155E+03 0.  0.
          5    1    4    4  502    0 -0.51315011476E+02 -0.33821936666E+01  0.13474171882E+03  0.14429861547E+03  0.47000000000E+01 0. -1.
         -5    1    4    4    0  502  0.45608835922E+02 -0.55158543530E+02  0.28796246473E+03  0.29676101821E+03  0.47000000000E+01 0.  1.
          5    1    3    3  503    0  0.51749267785E+02  0.45366002168E+02  0.16991594107E+03  0.18338369038E+03  0.47000000000E+01 0.  1.
         -5    1    3    3    0  503 -0.46043092232E+02  0.13174735029E+02  0.40731881432E+03  0.41015149211E+03  0.47000000000E+01 0.  1.
<mgrwt>
<rscale>  0 0.13498063E+03</rscale>
<asrwt>0</asrwt>
<pdfrwt beam="1">  1        1 0.15650255E+00 0.13814503E+03</pdfrwt>
<pdfrwt beam="2">  1       -1 0.26658375E-02 0.13814503E+03</pdfrwt>
<totfact> 0.67777920E+03</totfact>
</mgrwt>
</event>
<event>
 8    1  0.2018715E-005  0.1330700E+03  0.7546771E-02  0.1242887E+00
          2   -1    0    0  501    0  0.00000000000E+00  0.00000000000E+00  0.17660476115E+03  0.17660476115E+03  0.00000000000E+00 0. -1.
         -2   -1    0    0    0  501 -0.00000000000E+00 -0.00000000000E+00 -0.79777014282E+02  0.79777014282E+02  0.00000000000E+00 0.  1.
         25    2    1    2    0    0  0.33838102299E+02 -0.30633275665E+02  0.10228476255E+03  0.16783864035E+03  0.12499688716E+03 0.  0.
         23    2    1    2    0    0 -0.33838102299E+02  0.30633275665E+02 -0.54570156822E+01  0.88543135080E+02  0.75674916614E+02 0.  0.
          5    1    4    4  502    0 -0.87317418952E+01  0.32944360484E+02  0.29408588460E+02  0.45260681385E+02  0.47000000000E+01 0. -1.
         -5    1    4    4    0  502 -0.25106360404E+02 -0.23110848188E+01 -0.34865604142E+02  0.43282453696E+02  0.47000000000E+01 0.  1.
          5    1    3    3  503    0  0.10476855040E+02 -0.78621269527E+02  0.62996199309E+02  0.10139861755E+03  0.47000000000E+01 0.  1.
         -5    1    3    3    0  503  0.23361247258E+02  0.47987993861E+02  0.39288563240E+02  0.66440022801E+02  0.47000000000E+01 0.  1.
<mgrwt>
<rscale>  0 0.12012748E+03</rscale>
<asrwt>0</asrwt>
<pdfrwt beam="1">  1        2 0.27169963E-01 0.13307004E+03</pdfrwt>
<pdfrwt beam="2">  1       -2 0.12273387E-01 0.13307004E+03</pdfrwt>
<totfact> 0.88041719E+03</totfact>
</mgrwt>
</event>
<event>
 8    1  0.2018715E-005  0.1362660E+03  0.7546771E-02  0.1225333E+00
          2   -1    0    0  501    0  0.00000000000E+00  0.00000000000E+00  0.29354101563E+03  0.29354101563E+03  0.00000000000E+00 0. -1.
         -2   -1    0    0    0  501 -0.00000000000E+00 -0.00000000000E+00 -0.90170085335E+02  0.90170085335E+02  0.00000000000E+00 0.  1.
         25    2    1    2    0    0  0.24613739642E+02  0.48351587238E+02 -0.13396898063E+02  0.13692297598E+03  0.12499884922E+03 0.  0.
         23    2    1    2    0    0 -0.24613739642E+02 -0.48351587238E+02  0.21676782836E+03  0.24678812499E+03  0.10474910526E+03 0.  0.
          5    1    4    4  502    0  0.25633833198E+02 -0.37095045329E+02  0.17362590924E+03  0.17944687836E+03  0.47000000000E+01 0. -1.
         -5    1    4    4    0  502 -0.50247572839E+02 -0.11256541909E+02  0.43141919122E+02  0.67341246629E+02  0.47000000000E+01 0.  1.
          5    1    3    3  503    0  0.53385688964E+01 -0.40976635214E+02  0.93623804572E+01  0.42630143316E+02  0.47000000000E+01 0.  1.
         -5    1    3    3    0  503  0.19275170745E+02  0.89328222452E+02 -0.22759278520E+02  0.94292832668E+02  0.47000000000E+01 0.  1.
<mgrwt>
<rscale>  0 0.13144083E+03</rscale>
<asrwt>0</asrwt>
<pdfrwt beam="1">  1        2 0.45160156E-01 0.13626601E+03</pdfrwt>
<pdfrwt beam="2">  1       -2 0.13872321E-01 0.13626601E+03</pdfrwt>
<totfact> 0.41987338E+03</totfact>
</mgrwt>
</event>
<event>
 8    1  0.2018715E-005  0.1624546E+03  0.7546771E-02  0.1197137E+00
          1   -1    0    0  501    0  0.00000000000E+00  0.00000000000E+00  0.12920301344E+04  0.12920301344E+04  0.00000000000E+00 0. -1.
         -1   -1    0    0    0  501 -0.00000000000E+00 -0.00000000000E+00 -0.17231305221E+02  0.17231305221E+02  0.00000000000E+00 0.  1.
         25    2    1    2    0    0  0.10008338821E+03 -0.27385482891E+02  0.86927084448E+03  0.88432081918E+03  0.12499944358E+03 0.  0.
         23    2    1    2    0    0 -0.10008338821E+03  0.27385482891E+02  0.40552798469E+03  0.42494062044E+03  0.73177423167E+02 0.  0.
          5    1    4    4  502    0 -0.47208240053E+02  0.38792213004E+02  0.30075296643E+03  0.30693303917E+03  0.47000000000E+01 0. -1.
         -5    1    3    3    0  503  0.23984760932E+02  0.44763919887E+02  0.17936720322E+03  0.18647723956E+03  0.47000000000E+01 0. -1.
          5    1    3    3  503    0  0.76098627281E+02 -0.72149402778E+02  0.68990364126E+03  0.69784357962E+03  0.47000000000E+01 0. -1.
         -5    1    4    4    0  502 -0.52875148160E+02 -0.11406730113E+02  0.10477501826E+03  0.11800758127E+03  0.47000000000E+01 0.  1.
<mgrwt>
<rscale>  0 0.15274783E+03</rscale>
<asrwt>0</asrwt>
<pdfrwt beam="1">  1        1 0.19877379E+00 0.16245464E+03</pdfrwt>
<pdfrwt beam="2">  1       -1 0.26509711E-02 0.16245464E+03</pdfrwt>
<totfact> 0.44228957E+03</totfact>
</mgrwt>
</event>
<event>
 8    1  0.2018715E-005  0.1251669E+03  0.7546771E-02  0.1263293E+00
          1   -1    0    0  501    0  0.00000000000E+00  0.00000000000E+00  0.13669508056E+02  0.13669508056E+02  0.00000000000E+00 0. -1.
         -1   -1    0    0    0  501 -0.00000000000E+00 -0.00000000000E+00 -0.71136296553E+03  0.71136296553E+03  0.00000000000E+00 0.  1.
         25    2    1    2    0    0 -0.62301027013E+01  0.18753851939E+01 -0.48390404525E+03  0.49982984471E+03  0.12499766962E+03 0.  0.
         23    2    1    2    0    0  0.62301027013E+01 -0.18753851939E+01 -0.21378941223E+03  0.22520262888E+03  0.70483899028E+02 0.  0.
          5    1    4    4  502    0  0.15496272961E+02 -0.28044812925E+02 -0.54115823226E+02  0.63065508252E+02  0.47000000000E+01 0. -1.
         -5    1    3    3    0  503  0.34387987577E+02  0.44329543822E+02 -0.33475120950E+03  0.33945265415E+03  0.47000000000E+01 0. -1.
          5    1    3    3  503    0 -0.40618090278E+02 -0.42454158628E+02 -0.14915283574E+03  0.16037719056E+03  0.47000000000E+01 0. -1.
         -5    1    4    4    0  502 -0.92661702594E+01  0.26169427731E+02 -0.15967358901E+03  0.16213712063E+03  0.47000000000E+01 0.  1.
<mgrwt>
<rscale>  0 0.10854259E+03</rscale>
<asrwt>0</asrwt>
<pdfrwt beam="1">  1        1 0.21030004E-02 0.12516688E+03</pdfrwt>
<pdfrwt beam="2">  1       -1 0.10944050E+00 0.12516688E+03</pdfrwt>
<totfact> 0.43986091E+03</totfact>
</mgrwt>
</event>
<event>
 8    1  0.2018715E-005  0.2088723E+03  0.7546771E-02  0.1149308E+00
          1   -1    0    0  501    0  0.00000000000E+00  0.00000000000E+00  0.20199039422E+03  0.20199039422E+03  0.00000000000E+00 0. -1.
         -1   -1    0    0    0  501 -0.00000000000E+00 -0.00000000000E+00 -0.28729866988E+03  0.28729866988E+03  0.00000000000E+00 0.  1.
         25    2    1    2    0    0  0.54259426669E+02 -0.15829814346E+03  0.10102806356E+03  0.23202225033E+03  0.12500106965E+03 0.  0.
         23    2    1    2    0    0 -0.54259426669E+02  0.15829814346E+03 -0.18633633922E+03  0.25726681378E+03  0.58843814914E+02 0.  0.
          5    1    4    4  502    0 -0.41492417123E+02  0.38480955286E+02 -0.58263304477E+02  0.81357896033E+02  0.47000000000E+01 0. -1.
         -5    1    3    3    0  503 -0.22479176567E+02 -0.25146083843E+02 -0.17120794281E+02  0.38116276163E+02  0.47000000000E+01 0.  1.
          5    1    3    3  503    0  0.76738603236E+02 -0.13315205962E+03  0.11814885784E+03  0.19390597416E+03  0.47000000000E+01 0.  1.
         -5    1    4    4    0  502 -0.12767009546E+02  0.11981718818E+03 -0.12807303474E+03  0.17590891775E+03  0.47000000000E+01 0.  1.
<mgrwt>
<rscale>  0 0.20051143E+03</rscale>
<asrwt>0</asrwt>
<pdfrwt beam="1">  1        1 0.31075446E-01 0.20887234E+03</pdfrwt>
<pdfrwt beam="2">  1       -1 0.44199795E-01 0.20887234E+03</pdfrwt>
<totfact> 0.74736167E+02</totfact>
</mgrwt>
</event>
<event>
 8    1  0.2018715E-005  0.1566558E+03  0.7546771E-02  0.1205200E+00
          1   -1    0    0  501    0  0.00000000000E+00  0.00000000000E+00  0.16210273718E+03  0.16210273718E+03  0.00000000000E+00 0. -1.
         -1   -1    0    0    0  501 -0.00000000000E+00 -0.00000000000E+00 -0.12359823808E+03  0.12359823808E+03  0.00000000000E+00 0.  1.
         25    2    1    2    0    0  0.52225589260E+02  0.78652198030E+02  0.54223450523E+02  0.16577464830E+03  0.12500948365E+03 0.  0.
         23    2    1    2    0    0 -0.52225589260E+02 -0.78652198030E+02 -0.15718951418E+02  0.11992632696E+03  0.72260348993E+02 0.  0.
          5    1    4    4  502    0 -0.99572384797E+01 -0.31917112249E+02  0.27353941770E+02  0.43453156189E+02  0.47000000000E+01 0. -1.
         -5    1    4    4    0  502 -0.42268350781E+02 -0.46735085781E+02 -0.43072893188E+02  0.76473170774E+02  0.47000000000E+01 0.  1.
          5    1    3    3  503    0  0.15268472835E+02  0.71811847963E+02  0.88226112138E+02  0.11487386401E+03  0.47000000000E+01 0.  1.
         -5    1    3    3    0  503  0.36957116426E+02  0.68403500665E+01 -0.34002661615E+02  0.50900784281E+02  0.47000000000E+01 0.  1.
<mgrwt>
<rscale>  0 0.14621699E+03</rscale>
<asrwt>0</asrwt>
<pdfrwt beam="1">  1        1 0.24938883E-01 0.15665584E+03</pdfrwt>
<pdfrwt beam="2">  1       -1 0.19015114E-01 0.15665584E+03</pdfrwt>
<totfact> 0.40676381E+03</totfact>
</mgrwt>
</event>
<event>
 7    1  0.2018715E-005  0.1995622E+03  0.7546771E-02  0.1158304E+00
         -1   -1    0    0    0  501 -0.00000000000E+00  0.00000000000E+00  0.90962597469E+02  0.90962597469E+02  0.00000000000E+00 0.  1.
          1   -1    0    0  501    0  0.00000000000E+00 -0.00000000000E+00 -0.46195758751E+03  0.46195758751E+03  0.00000000000E+00 0. -1.
         25    2    1    2    0    0 -0.96136947485E+02  0.12227354752E+03 -0.32611613795E+03  0.38233078039E+03  0.12502782534E+03 0.  0.
          5    1    3    3  502    0  0.18661606611E+02  0.53815836839E+02 -0.51741138474E+02  0.77094975625E+02  0.47000000000E+01 0.  1.
         -5    1    3    3    0  502 -0.11479855410E+03  0.68457710682E+02 -0.27437499947E+03  0.30523580476E+03  0.47000000000E+01 0.  1.
          5    1    1    2  503    0  0.60571075912E+02 -0.42339734173E+02 -0.46988459858E+01  0.74200252564E+02  0.47000000000E+01 0. -1.
         -5    1    1    2    0  503  0.35565871573E+02 -0.79933813348E+02 -0.40180006106E+02  0.96389152023E+02  0.47000000000E+01 0.  1.
<mgrwt>
<rscale>  0 0.19017489E+03</rscale>
<asrwt>0</asrwt>
<pdfrwt beam="1">  1        1 0.71070398E-01 0.19956225E+03</pdfrwt>
<pdfrwt beam="2">  1       -1 0.13994246E-01 0.19956225E+03</pdfrwt>
<totfact> 0.17891453E+03</totfact>
</mgrwt>
</event>
<event>
 8    1  0.2018715E-005  0.1578578E+03  0.7546771E-02  0.1205673E+00
          1   -1    0    0  501    0  0.00000000000E+00  0.00000000000E+00  0.31828296141E+02  0.31828296141E+02  0.00000000000E+00 0. -1.
         -1   -1    0    0    0  501 -0.00000000000E+00 -0.00000000000E+00 -0.64847374071E+03  0.64847374071E+03  0.00000000000E+00 0.  1.
         25    2    1    2    0    0 -0.38720645778E+02 -0.88282341453E+02 -0.45731262050E+03  0.48379117795E+03  0.12500404302E+03 0.  0.
         23    2    1    2    0    0  0.38720645778E+02  0.88282341453E+02 -0.15933282407E+03  0.19651085890E+03  0.62741601975E+02 0.  0.
          5    1    3    3  502    0  0.39197538470E+02 -0.18939623248E+02 -0.22314544895E+03  0.22740083055E+03  0.47000000000E+01 0.  1.
         -5    1    4    4    0  503  0.43184443734E+01  0.75834268479E+02 -0.12363387622E+03  0.14517889167E+03  0.47000000000E+01 0. -1.
          5    1    4    4  503    0  0.34402201404E+02  0.12448072974E+02 -0.35698947849E+02  0.51331967231E+02  0.47000000000E+01 0.  1.
         -5    1    3    3    0  502 -0.77918184248E+02 -0.69342718205E+02 -0.23416717155E+03  0.25639034740E+03  0.47000000000E+01 0.  1.
<mgrwt>
<rscale>  0 0.14584537E+03</rscale>
<asrwt>0</asrwt>
<pdfrwt beam="1">  1        1 0.48966610E-02 0.15785776E+03</pdfrwt>
<pdfrwt beam="2">  1       -1 0.99765189E-01 0.15785776E+03</pdfrwt>
<totfact> 0.17018872E+03</totfact>
</mgrwt>
</event>
<event>
 8    1  0.2018715E-005  0.2054627E+03  0.7546771E-02  0.1151207E+00
         -1   -1    0    0    0  501 -0.00000000000E+00  0.00000000000E+00  0.19530010248E+02  0.19530010248E+02  0.00000000000E+00 0.  1.
          1   -1    0    0  501    0  0.00000000000E+00 -0.00000000000E+00 -0.19533637336E+04  0.19533637336E+04  0.00000000000E+00 0. -1.
         25    2    1    2    0    0 -0.15843273011E+03  0.38582812530E+02 -0.12188255519E+04  0.12360221134E+04  0.12500150157E+03 0.  0.
         23    2    1    2    0    0  0.15843273011E+03 -0.38582812530E+02 -0.71500817140E+03  0.73687163043E+03  0.71788238328E+02 0.  0.
          5    1    4    4  502    0  0.11309495763E+03 -0.24781253060E+02 -0.61840373980E+03  0.62916599983E+03  0.47000000000E+01 0. -1.
         -5    1    4    4    0  502  0.45337772472E+02 -0.13801559470E+02 -0.96604431609E+02  0.10770563060E+03  0.47000000000E+01 0.  1.
          5    1    3    3  503    0 -0.14271751417E+03  0.75122094744E+02 -0.86339195574E+03  0.87833898763E+03  0.47000000000E+01 0.  1.
         -5    1    3    3    0  503 -0.15715215938E+02 -0.36539282214E+02 -0.35543359619E+03  0.35768312577E+03  0.47000000000E+01 0.  1.
<mgrwt>
<rscale>  0 0.19826954E+03</rscale>
<asrwt>0</asrwt>
<pdfrwt beam="1">  1        1 0.30051745E+00 0.20546274E+03</pdfrwt>
<pdfrwt beam="2">  1       -1 0.30046174E-02 0.20546274E+03</pdfrwt>
<totfact> 0.13668677E+03</totfact>
</mgrwt>
</event>
<event>
 8    1  0.2018715E-005  0.3404773E+03  0.7546771E-02  0.1068303E+00
         -1   -1    0    0    0  501 -0.00000000000E+00  0.00000000000E+00  0.13135829389E+03  0.13135829389E+03  0.00000000000E+00 0.  1.
          1   -1    0    0  501    0  0.00000000000E+00 -0.00000000000E+00 -0.90389199046E+03  0.90389199046E+03  0.00000000000E+00 0. -1.
         25    2    1    2    0    0 -0.20609610069E+03  0.24047267825E+03 -0.25967475855E+03  0.42820058155E+03  0.12498818388E+03 0.  0.
         23    2    1    2    0    0  0.20609610069E+03 -0.24047267825E+03 -0.51285893802E+03  0.60704970279E+03  0.71988468847E+02 0.  0.
          5    1    3    3  502    0 -0.21631406193E+03  0.20991222352E+03 -0.25588504117E+03  0.39541643778E+03  0.47000000000E+01 0. -1.
         -5    1    4    4    0  503  0.39510051651E+02 -0.80295664569E+02 -0.10320195724E+03  0.13667908365E+03  0.47000000000E+01 0.  1.
          5    1    4    4  503    0  0.16658604904E+03 -0.16017701368E+03 -0.40965698078E+03  0.47037061914E+03  0.47000000000E+01 0. -1.
         -5    1    3    3    0  502  0.10217961238E+02  0.30560454730E+02 -0.37897173821E+01  0.32784143774E+02  0.47000000000E+01 0. -1.
<mgrwt>
<rscale>  0 0.33648440E+03</rscale>
<asrwt>0</asrwt>
<pdfrwt beam="1">  1        1 0.13906031E+00 0.34047725E+03</pdfrwt>
<pdfrwt beam="2">  1       -1 0.20208968E-01 0.34047725E+03</pdfrwt>
<totfact> 0.37579310E+02</totfact>
</mgrwt>
</event>
<event>
 7    1  0.2018715E-005  0.1497707E+03  0.7546771E-02  0.1202543E+00
          1   -1    0    0  501    0  0.00000000000E+00  0.00000000000E+00  0.79872675876E+02  0.79872675876E+02  0.00000000000E+00 0. -1.
         -1   -1    0    0    0  501 -0.00000000000E+00 -0.00000000000E+00 -0.38661243134E+03  0.38661243134E+03  0.00000000000E+00 0.  1.
         25    2    1    2    0    0 -0.43793561580E+02 -0.56713481395E+02 -0.27922704758E+03  0.31420833425E+03  0.12499935281E+03 0.  0.
          5    1    1    2  502    0 -0.34362343209E+02 -0.11819020604E+02  0.15368964844E+02  0.39733549542E+02  0.47000000000E+01 0. -1.
         -5    1    3    3    0  503 -0.57622461790E+02  0.92457786323E+01 -0.56133687360E+02  0.81110501058E+02  0.47000000000E+01 0.  1.
          5    1    3    3  503    0  0.13828900210E+02 -0.65959260028E+02 -0.22309336022E+03  0.23309783319E+03  0.47000000000E+01 0.  1.
         -5    1    1    2    0  502  0.78155904788E+02  0.68532502000E+02 -0.42881672733E+02  0.11254322343E+03  0.47000000000E+01 0.  1.
<mgrwt>
<rscale>  0 0.14832738E+03</rscale>
<asrwt>0</asrwt>
<pdfrwt beam="1">  1        1 0.12288104E-01 0.14977071E+03</pdfrwt>
<pdfrwt beam="2">  1       -1 0.59478836E-01 0.14977071E+03</pdfrwt>
<totfact> 0.14119996E+03</totfact>
</mgrwt>
</event>
<event>
 8    1  0.2018715E-005  0.1278244E+03  0.7546771E-02  0.1252979E+00
          3   -1    0    0  501    0  0.00000000000E+00  0.00000000000E+00  0.15564453267E+02  0.15564453267E+02  0.00000000000E+00 0. -1.
         -3   -1    0    0    0  501 -0.00000000000E+00 -0.00000000000E+00 -0.71418475366E+03  0.71418475366E+03  0.00000000000E+00 0.  1.
         25    2    1    2    0    0  0.16290615049E+01 -0.26671599838E+02 -0.38186868188E+03  0.40269439546E+03  0.12500023142E+03 0.  0.
         23    2    1    2    0    0 -0.16290615049E+01  0.26671599838E+02 -0.31675161851E+03  0.32705481147E+03  0.76936556941E+02 0.  0.
          5    1    4    4  502    0 -0.33362786563E+02 -0.25593094944E+01 -0.88860335777E+02  0.95067738307E+02  0.47000000000E+01 0. -1.
         -5    1    3    3    0  503 -0.27027198701E+02  0.10947296178E+02 -0.15690734026E+02  0.33445506388E+02  0.47000000000E+01 0.  1.
          5    1    3    3  503    0  0.28656260206E+02 -0.37618896017E+02 -0.36617794785E+03  0.36924888907E+03  0.47000000000E+01 0.  1.
         -5    1    4    4    0  502  0.31733725058E+02  0.29230909333E+02 -0.22789128274E+03  0.23198707316E+03  0.47000000000E+01 0.  1.
<mgrwt>
<rscale>  0 0.11420268E+03</rscale>
<asrwt>0</asrwt>
<pdfrwt beam="1">  1        3 0.23945318E-02 0.12782443E+03</pdfrwt>
<pdfrwt beam="2">  1       -3 0.10987455E+00 0.12782443E+03</pdfrwt>
<totfact> 0.12008690E+03</totfact>
</mgrwt>
</event>
<event>
 8    1  0.2018715E-005  0.1521506E+03  0.7546771E-02  0.1213019E+00
          1   -1    0    0  501    0  0.00000000000E+00  0.00000000000E+00  0.81913782840E+02  0.81913782840E+02  0.00000000000E+00 0. -1.
         -1   -1    0    0    0  501 -0.00000000000E+00 -0.00000000000E+00 -0.20941647504E+03  0.20941647504E+03  0.00000000000E+00 0.  1.
         25    2    1    2    0    0  0.49969688405E+02  0.70899609682E+02 -0.75377364192E+02  0.16979855505E+03  0.12500431134E+03 0.  0.
         23    2    1    2    0    0 -0.49969688405E+02 -0.70899609682E+02 -0.52125328008E+02  0.12153170283E+03  0.67299186915E+02 0.  0.
          5    1    4    4  502    0 -0.45197901035E+02 -0.10121843063E+02 -0.10983488943E+02  0.47833346050E+02  0.47000000000E+01 0. -1.
         -5    1    3    3    0  503  0.58958402424E+02 -0.16955016190E+02 -0.45227888849E+02  0.76362410387E+02  0.47000000000E+01 0.  1.
          5    1    3    3  503    0 -0.89887140190E+01  0.87854625872E+02 -0.30149475343E+02  0.93436144668E+02  0.47000000000E+01 0.  1.
         -5    1    4    4    0  502 -0.47717873703E+01 -0.60777766619E+02 -0.41141839065E+02  0.73698356776E+02  0.47000000000E+01 0.  1.
<mgrwt>
<rscale>  0 0.14023025E+03</rscale>
<asrwt>0</asrwt>
<pdfrwt beam="1">  1        1 0.12602120E-01 0.15215059E+03</pdfrwt>
<pdfrwt beam="2">  1       -1 0.32217919E-01 0.15215059E+03</pdfrwt>
<totfact> 0.40957437E+03</totfact>
</mgrwt>
</event>
<event>
 7    1  0.2018715E-005  0.1733567E+03  0.7546771E-02  0.1178289E+00
          2   -1    0    0  501    0  0.00000000000E+00  0.00000000000E+00  0.10217700992E+03  0.10217700992E+03  0.00000000000E+00 0. -1.
         -2   -1    0    0    0  501 -0.00000000000E+00 -0.00000000000E+00 -0.29930990476E+03  0.29930990476E+03  0.00000000000E+00 0.  1.
         25    2    1    2    0    0 -0.94613896983E+02 -0.24849069458E+02 -0.15759973068E+03  0.22367971247E+03  0.12500269159E+03 0.  0.
          5    1    1    2  502    0  0.28576762077E+02  0.66411465662E+02 -0.63190460282E+02  0.96136561061E+02  0.47000000000E+01 0. -1.
         -5    1    3    3    0  503 -0.27902429057E+02 -0.88572386531E+01  0.18283014934E+02  0.34833243589E+02  0.47000000000E+01 0. -1.
          5    1    3    3  503    0 -0.66711467926E+02 -0.15991830805E+02 -0.17588274561E+03  0.18884646888E+03  0.47000000000E+01 0. -1.
         -5    1    1    2    0  502  0.66037134906E+02 -0.41562396204E+02  0.23657296123E+02  0.81670641143E+02  0.47000000000E+01 0.  1.
<mgrwt>
<rscale>  0 0.16957802E+03</rscale>
<asrwt>0</asrwt>
<pdfrwt beam="1">  1        2 0.15719540E-01 0.17335666E+03</pdfrwt>
<pdfrwt beam="2">  1       -2 0.46047678E-01 0.17335666E+03</pdfrwt>
<totfact> 0.16389032E+03</totfact>
</mgrwt>
</event>
<event>
 7    1  0.2018715E-005  0.2742001E+03  0.7546771E-02  0.1103635E+00
         -1   -1    0    0    0  501 -0.00000000000E+00  0.00000000000E+00  0.95401793199E+02  0.95401793199E+02  0.00000000000E+00 0.  1.
          1   -1    0    0  501    0  0.00000000000E+00 -0.00000000000E+00 -0.70582628738E+03  0.70582628738E+03  0.00000000000E+00 0. -1.
         25    2    1    2    0    0  0.13108489123E+03 -0.16132876816E+03 -0.32364621957E+03  0.40445677864E+03  0.12501276015E+03 0.  0.
          5    1    3    3  502    0  0.13555806591E+03 -0.94330564563E+02 -0.17175744770E+03  0.23832111841E+03  0.47000000000E+01 0. -1.
         -5    1    3    3    0  502 -0.44731746758E+01 -0.66998203597E+02 -0.15188877188E+03  0.16613566023E+03  0.47000000000E+01 0. -1.
          5    1    1    2  503    0 -0.72847064778E+02  0.14068167474E+03 -0.73562156969E+02  0.17473267981E+03  0.47000000000E+01 0.  1.
         -5    1    1    2    0  503 -0.58237826452E+02  0.20647093418E+02 -0.21321611764E+03  0.22203862213E+03  0.47000000000E+01 0. -1.
<mgrwt>
<rscale>  0 0.26592447E+03</rscale>
<asrwt>0</asrwt>
<pdfrwt beam="1">  1        1 0.10858866E+00 0.27420009E+03</pdfrwt>
<pdfrwt beam="2">  1       -1 0.14677199E-01 0.27420009E+03</pdfrwt>
<totfact> 0.92864623E+02</totfact>
</mgrwt>
</event>
<event>
 8    1  0.2018715E-005  0.1545575E+03  0.7546771E-02  0.1208102E+00
          1   -1    0    0  501    0  0.00000000000E+00  0.00000000000E+00  0.14226494448E+04  0.14226494448E+04  0.00000000000E+00 0.  1.
         -1   -1    0    0    0  501 -0.00000000000E+00 -0.00000000000E+00 -0.17401549972E+02  0.17401549972E+02  0.00000000000E+00 0. -1.
         25    2    1    2    0    0  0.89527915036E+02  0.15695762531E+02  0.11398531219E+04  0.11502839513E+04  0.12500569887E+03 0.  0.
         23    2    1    2    0    0 -0.89527915036E+02 -0.15695762531E+02  0.26539477293E+03  0.28976704340E+03  0.72587529302E+02 0.  0.
          5    1    4    4  502    0 -0.78782911068E+02  0.13639764983E+02  0.22262427955E+03  0.23659342787E+03  0.47000000000E+01 0. -1.
         -5    1    4    4    0  502 -0.10745003968E+02 -0.29335527514E+02  0.42770493379E+02  0.53173615532E+02  0.47000000000E+01 0.  1.
          5    1    3    3  503    0 -0.30164478432E+02  0.16627568312E+02  0.26075776894E+03  0.26306477500E+03  0.47000000000E+01 0.  1.
         -5    1    3    3    0  503  0.11969239347E+03 -0.93180578141E+00  0.87909535294E+03  0.88721917634E+03  0.47000000000E+01 0.  1.
<mgrwt>
<rscale>  0 0.14395676E+03</rscale>
<asrwt>0</asrwt>
<pdfrwt beam="1">  1        1 0.21886905E+00 0.15455753E+03</pdfrwt>
<pdfrwt beam="2">  1       -1 0.26771627E-02 0.15455753E+03</pdfrwt>
<totfact> 0.35650461E+03</totfact>
</mgrwt>
</event>
<event>
 8    1  0.2018715E-005  0.1430786E+03  0.7546771E-02  0.1225934E+00
          2   -1    0    0  501    0  0.00000000000E+00  0.00000000000E+00  0.42297031096E+03  0.42297031096E+03  0.00000000000E+00 0. -1.
         -2   -1    0    0    0  501 -0.00000000000E+00 -0.00000000000E+00 -0.36581686628E+02  0.36581686628E+02  0.00000000000E+00 0.  1.
         25    2    1    2    0    0 -0.67477045771E+02 -0.17136662283E+02  0.27092235591E+03  0.30638277432E+03  0.12499865825E+03 0.  0.
         23    2    1    2    0    0  0.67477045771E+02  0.17136662283E+02  0.11546626842E+03  0.15316922327E+03  0.72674169512E+02 0.  0.
          5    1    4    4  502    0  0.37201718688E+02  0.45102918566E+02  0.75069131717E+02  0.95266498169E+02  0.47000000000E+01 0. -1.
         -5    1    4    4    0  502  0.30275327083E+02 -0.27966256283E+02  0.40397136699E+02  0.57902725099E+02  0.47000000000E+01 0.  1.
          5    1    3    3  503    0 -0.50406006905E+01  0.49756549965E+02  0.77480402973E+02  0.92338641774E+02  0.47000000000E+01 0. -1.
         -5    1    3    3    0  503 -0.62436445081E+02 -0.66893212249E+02  0.19344195294E+03  0.21404413254E+03  0.47000000000E+01 0. -1.
<mgrwt>
<rscale>  0 0.13103078E+03</rscale>
<asrwt>0</asrwt>
<pdfrwt beam="1">  1        2 0.65072352E-01 0.14307858E+03</pdfrwt>
<pdfrwt beam="2">  1       -2 0.56279521E-02 0.14307858E+03</pdfrwt>
<totfact> 0.11661426E+04</totfact>
</mgrwt>
</event>
<event>
 8    1  0.2018715E-005  0.1716218E+03  0.7546771E-02  0.1179625E+00
          2   -1    0    0  501    0  0.00000000000E+00  0.00000000000E+00  0.10151164256E+04  0.10151164256E+04  0.00000000000E+00 0. -1.
         -2   -1    0    0    0  501 -0.00000000000E+00 -0.00000000000E+00 -0.27972136556E+02  0.27972136556E+02  0.00000000000E+00 0.  1.
         25    2    1    2    0    0 -0.98617531800E+02  0.64066428892E+02  0.61511526199E+03  0.63860851923E+03  0.12499652155E+03 0.  0.
         23    2    1    2    0    0  0.98617531800E+02 -0.64066428892E+02  0.37202902706E+03  0.40448004294E+03  0.10662355871E+03 0.  0.
          5    1    3    3  502    0 -0.55477645976E+02  0.89632394635E+01  0.50442270144E+03  0.50756522792E+03  0.47000000000E+01 0.  1.
         -5    1    4    4    0  503  0.24310295202E+01 -0.25818347104E+02  0.10457449334E+02  0.28353927387E+02  0.47000000000E+01 0.  1.
          5    1    4    4  503    0  0.96186502280E+02 -0.38248081788E+02  0.36157157772E+03  0.37612611555E+03  0.47000000000E+01 0. -1.
         -5    1    3    3    0  502 -0.43139885824E+02  0.55103189429E+02  0.11069256055E+03  0.13104329130E+03  0.47000000000E+01 0.  1.
<mgrwt>
<rscale>  0 0.16830665E+03</rscale>
<asrwt>0</asrwt>
<pdfrwt beam="1">  1        2 0.15617173E+00 0.17162184E+03</pdfrwt>
<pdfrwt beam="2">  1       -2 0.43034064E-02 0.17162184E+03</pdfrwt>
<totfact> 0.62103876E+03</totfact>
</mgrwt>
</event>
<event>
 8    1  0.2018715E-005  0.1476384E+03  0.7546771E-02  0.1220829E+00
         -1   -1    0    0    0  501 -0.00000000000E+00  0.00000000000E+00  0.15283263315E+03  0.15283263315E+03  0.00000000000E+00 0.  1.
          1   -1    0    0  501    0  0.00000000000E+00 -0.00000000000E+00 -0.10196720439E+03  0.10196720439E+03  0.00000000000E+00 0. -1.
         25    2    1    2    0    0 -0.78282773159E+02  0.66947549014E+01  0.26038986901E+02  0.14991710581E+03  0.12499638979E+03 0.  0.
         23    2    1    2    0    0  0.78282773159E+02 -0.66947549014E+01  0.24826441858E+02  0.10488273173E+03  0.64892394651E+02 0.  0.
          5    1    3    3  502    0 -0.23844876739E+02 -0.16553817543E+00  0.73377446625E+02  0.77297769843E+02  0.47000000000E+01 0. -1.
         -5    1    3    3    0  502 -0.54437896420E+02  0.68602930769E+01 -0.47338459724E+02  0.72619335971E+02  0.47000000000E+01 0. -1.
          5    1    4    4  503    0  0.57974428985E+02  0.11521032527E+02 -0.10275426545E+02  0.60178426345E+02  0.47000000000E+01 0. -1.
         -5    1    4    4    0  503  0.20308344174E+02 -0.18215787429E+02  0.35101868403E+02  0.44704305387E+02  0.47000000000E+01 0.  1.
<mgrwt>
<rscale>  0 0.13456910E+03</rscale>
<asrwt>0</asrwt>
<pdfrwt beam="1">  1        1 0.15687262E-01 0.14763844E+03</pdfrwt>
<pdfrwt beam="2">  1       -1 0.23512713E-01 0.14763844E+03</pdfrwt>
<totfact> 0.51946966E+03</totfact>
</mgrwt>
</event>
<event>
 8    1  0.2018715E-005  0.1469788E+03  0.7546771E-02  0.1220152E+00
          2   -1    0    0  501    0  0.00000000000E+00  0.00000000000E+00  0.11272885565E+03  0.11272885565E+03  0.00000000000E+00 0. -1.
         -2   -1    0    0    0  501 -0.00000000000E+00 -0.00000000000E+00 -0.24159442076E+03  0.24159442076E+03  0.00000000000E+00 0.  1.
         25    2    1    2    0    0 -0.21428332088E+02 -0.74291210144E+02  0.42918647858E+02  0.15311687097E+03  0.12499763406E+03 0.  0.
         23    2    1    2    0    0  0.21428332088E+02  0.74291210144E+02 -0.17178421297E+03  0.20120640544E+03  0.70681287795E+02 0.  0.
          5    1    4    4  502    0 -0.17409156289E+02  0.39578530799E+02 -0.38714377391E+02  0.58227414846E+02  0.47000000000E+01 0. -1.
         -5    1    3    3    0  503  0.50569833643E+02 -0.41917534725E+02  0.32230716130E+02  0.73316415995E+02  0.47000000000E+01 0.  1.
          5    1    3    3  503    0 -0.71998165731E+02 -0.32373675418E+02  0.10687931729E+02  0.79800454970E+02  0.47000000000E+01 0.  1.
         -5    1    4    4    0  502  0.38837488377E+02  0.34712679345E+02 -0.13306983558E+03  0.14297899059E+03  0.47000000000E+01 0.  1.
<mgrwt>
<rscale>  0 0.13504784E+03</rscale>
<asrwt>0</asrwt>
<pdfrwt beam="1">  1        2 0.17342901E-01 0.14697879E+03</pdfrwt>
<pdfrwt beam="2">  1       -2 0.37168372E-01 0.14697879E+03</pdfrwt>
<totfact> 0.21862828E+03</totfact>
</mgrwt>
</event>
<event>
 7    1  0.2018715E-005  0.1638351E+03  0.7546771E-02  0.1201323E+00
          1   -1    0    0  501    0  0.00000000000E+00  0.00000000000E+00  0.49902429641E+02  0.49902429641E+02  0.00000000000E+00 0. -1.
         -1   -1    0    0    0  501 -0.00000000000E+00 -0.00000000000E+00 -0.38616567858E+03  0.38616567858E+03  0.00000000000E+00 0.  1.
         25    2    1    2    0    0 -0.10590915099E+03  0.65783391964E+00 -0.21493039326E+03  0.27025360214E+03  0.12499901805E+03 0.  0.
          5    1    1    2  502    0  0.47067062145E+02 -0.59813063785E+01 -0.28114898281E+02  0.55349994312E+02  0.47000000000E+01 0. -1.
         -5    1    3    3    0  503 -0.88479451623E+02  0.39622558849E+02 -0.20404272465E+03  0.22595150810E+03  0.47000000000E+01 0. -1.
          5    1    3    3  503    0 -0.17429699368E+02 -0.38964724929E+02 -0.10887668613E+02  0.44302094044E+02  0.47000000000E+01 0. -1.
         -5    1    1    2    0  502  0.58842088847E+02  0.53234724588E+01 -0.93217957396E+02  0.11046451177E+03  0.47000000000E+01 0.  1.
<mgrwt>
<rscale>  0 0.14931069E+03</rscale>
<asrwt>0</asrwt>
<pdfrwt beam="1">  1        1 0.76772967E-02 0.16383509E+03</pdfrwt>
<pdfrwt beam="2">  1       -1 0.59410105E-01 0.16383509E+03</pdfrwt>
<totfact> 0.26584197E+03</totfact>
</mgrwt>
</event>
<event>
 8    1  0.2018715E-005  0.2387698E+03  0.7546771E-02  0.1125277E+00
         -1   -1    0    0    0  501 -0.00000000000E+00  0.00000000000E+00  0.35610470831E+03  0.35610470831E+03  0.00000000000E+00 0.  1.
          1   -1    0    0  501    0  0.00000000000E+00 -0.00000000000E+00 -0.17926319307E+03  0.17926319307E+03  0.00000000000E+00 0. -1.
         25    2    1    2    0    0  0.20334494332E+03  0.60908828407E+01 -0.27648000849E+02  0.24036516326E+03  0.12499893972E+03 0.  0.
         23    2    1    2    0    0 -0.20334494332E+03 -0.60908828407E+01  0.20448951608E+03  0.29500273812E+03  0.61841640388E+02 0.  0.
          5    1    3    3  502    0  0.13124297318E+03 -0.53365347847E+02 -0.36486755549E+02  0.14637606256E+03  0.47000000000E+01 0.  1.
         -5    1    4    4    0  503 -0.11216709189E+03 -0.85666510743E+01  0.70488879566E+02  0.13283680272E+03  0.47000000000E+01 0.  1.
          5    1    4    4  503    0 -0.91177851428E+02  0.24757682336E+01  0.13400063652E+03  0.16216593541E+03  0.47000000000E+01 0. -1.
         -5    1    3    3    0  502  0.72101970135E+02  0.59456230688E+02  0.88387547003E+01  0.93989100696E+02  0.47000000000E+01 0.  1.
<mgrwt>
<rscale>  0 0.23194745E+03</rscale>
<asrwt>0</asrwt>
<pdfrwt beam="1">  1        1 0.27578953E-01 0.23876976E+03</pdfrwt>
<pdfrwt beam="2">  1       -1 0.54785340E-01 0.23876976E+03</pdfrwt>
<totfact> 0.58534406E+02</totfact>
</mgrwt>
</event>
<event>
 8    1  0.2018715E-005  0.1537676E+03  0.7546771E-02  0.1199562E+00
         -1   -1    0    0    0  501 -0.00000000000E+00  0.00000000000E+00  0.54070443630E+03  0.54070443630E+03  0.00000000000E+00 0.  1.
          1   -1    0    0  501    0  0.00000000000E+00 -0.00000000000E+00 -0.46578779149E+02  0.46578779149E+02  0.00000000000E+00 0. -1.
         25    2    1    2    0    0 -0.89441797520E+02 -0.44429042009E+01  0.36199530227E+03  0.39330024858E+03  0.12499964850E+03 0.  0.
         23    2    1    2    0    0  0.89441797520E+02  0.44429042009E+01  0.13213035489E+03  0.19398296688E+03  0.11023332624E+03 0.  0.
          5    1    4    4  502    0 -0.61352851988E+00 -0.21304615189E+02 -0.97540977211E+01  0.23905971387E+02  0.47000000000E+01 0. -1.
         -5    1    4    4    0  502  0.90055326040E+02  0.25747519390E+02  0.14188445261E+03  0.17007699549E+03  0.47000000000E+01 0.  1.
          5    1    3    3  503    0 -0.11676926438E+03  0.12593285416E+02  0.24299593456E+03  0.26993103963E+03  0.47000000000E+01 0. -1.
         -5    1    3    3    0  503  0.27327466863E+02 -0.17036189617E+02  0.11899936771E+03  0.12336920895E+03  0.47000000000E+01 0. -1.
<mgrwt>
<rscale>  0 0.15074383E+03</rscale>
<asrwt>0</asrwt>
<pdfrwt beam="1">  1        1 0.71659664E-02 0.15376764E+03</pdfrwt>
<pdfrwt beam="2">  1       -1 0.83185294E-01 0.15376764E+03</pdfrwt>
<totfact> 0.14919135E+03</totfact>
</mgrwt>
</event>
<event>
 8    1  0.2018715E-005  0.1415395E+03  0.7546771E-02  0.1215229E+00
         -2   -1    0    0    0  501 -0.00000000000E+00  0.00000000000E+00  0.38100974146E+02  0.38100974146E+02  0.00000000000E+00 0.  1.
          2   -1    0    0  501    0  0.00000000000E+00 -0.00000000000E+00 -0.51339619594E+03  0.51339619594E+03  0.00000000000E+00 0. -1.
         25    2    1    2    0    0 -0.27209850439E+02 -0.60528146324E+02 -0.18143911031E+03  0.23011644899E+03  0.12501758631E+03 0.  0.
         23    2    1    2    0    0  0.27209850439E+02  0.60528146324E+02 -0.29385611149E+03  0.32138072110E+03  0.11193802382E+03 0.  0.
          5    1    3    3  502    0  0.30606457539E+00 -0.76087248156E+02 -0.18287331339E+03  0.19812647920E+03  0.47000000000E+01 0.  1.
         -5    1    4    4    0  503  0.99763146948E+01 -0.21660706330E+02 -0.11738559657E+02  0.26992532975E+02  0.47000000000E+01 0.  1.
          5    1    4    4  503    0  0.17233535744E+02  0.82188852654E+02 -0.28211755183E+03  0.29438818812E+03  0.47000000000E+01 0. -1.
         -5    1    3    3    0  502 -0.27515915014E+02  0.15559101832E+02  0.14342030843E+01  0.31989969793E+02  0.47000000000E+01 0.  1.
<mgrwt>
<rscale>  0 0.13859695E+03</rscale>
<asrwt>0</asrwt>
<pdfrwt beam="1">  1        2 0.78984028E-01 0.14153950E+03</pdfrwt>
<pdfrwt beam="2">  1       -2 0.58616885E-02 0.14153950E+03</pdfrwt>
<totfact> 0.88720370E+03</totfact>
</mgrwt>
</event>
<event>
 8    1  0.2018715E-005  0.1420528E+03  0.7546771E-02  0.1230940E+00
         -3   -1    0    0    0  501 -0.00000000000E+00  0.00000000000E+00  0.25916883889E+02  0.25916883889E+02  0.00000000000E+00 0.  1.
          3   -1    0    0  501    0  0.00000000000E+00 -0.00000000000E+00 -0.57001225049E+03  0.57001225049E+03  0.00000000000E+00 0. -1.
         25    2    1    2    0    0 -0.63733425470E+02 -0.22120554034E+02 -0.24968127278E+03  0.28726250512E+03  0.12501096128E+03 0.  0.
         23    2    1    2    0    0  0.63733425470E+02  0.22120554034E+02 -0.29441409382E+03  0.30866662925E+03  0.63593717803E+02 0.  0.
          5    1    3    3  502    0 -0.96206043909E+02 -0.22137798989E+02 -0.22639730243E+03  0.24702937797E+03  0.47000000000E+01 0.  1.
         -5    1    4    4    0  503  0.46095496829E+02  0.32481331475E+01 -0.78882334487E+02  0.91541563734E+02  0.47000000000E+01 0.  1.
          5    1    4    4  503    0  0.17637928641E+02  0.18872420887E+02 -0.21553175933E+03  0.21712506552E+03  0.47000000000E+01 0. -1.
         -5    1    3    3    0  502  0.32472618440E+02  0.17244954080E-01 -0.23283970347E+02  0.40233127157E+02  0.47000000000E+01 0.  1.
<mgrwt>
<rscale>  0 0.12767941E+03</rscale>
<asrwt>0</asrwt>
<pdfrwt beam="1">  1        3 0.87694186E-01 0.14205284E+03</pdfrwt>
<pdfrwt beam="2">  1       -3 0.39872132E-02 0.14205284E+03</pdfrwt>
<totfact> 0.92534897E+02</totfact>
</mgrwt>
</event>
<event>
 8    1  0.2018715E-005  0.2264662E+03  0.7546771E-02  0.1133605E+00
         -1   -1    0    0    0  501 -0.00000000000E+00  0.00000000000E+00  0.20245884038E+03  0.20245884038E+03  0.00000000000E+00 0.  1.
          1   -1    0    0  501    0  0.00000000000E+00 -0.00000000000E+00 -0.38452551375E+03  0.38452551375E+03  0.00000000000E+00 0. -1.
         25    2    1    2    0    0  0.16170797071E+03 -0.97531836659E+02  0.93224442123E+02  0.24490353212E+03  0.12500006593E+03 0.  0.
         23    2    1    2    0    0 -0.16170797071E+03  0.97531836659E+02 -0.27529111550E+03  0.34208082201E+03  0.74646925980E+02 0.  0.
          5    1    4    4  502    0 -0.78906532934E+02  0.67608840239E+01 -0.12275725600E+03  0.14616218524E+03  0.47000000000E+01 0. -1.
         -5    1    4    4    0  502 -0.82801437779E+02  0.90770952635E+02 -0.15253385950E+03  0.19591863677E+03  0.47000000000E+01 0.  1.
          5    1    3    3  503    0  0.73190715646E+02 -0.12003680778E+02  0.96357179879E+02  0.12168716170E+03  0.47000000000E+01 0.  1.
         -5    1    3    3    0  503  0.88517255067E+02 -0.85528155881E+02 -0.31327377559E+01  0.12321637042E+03  0.47000000000E+01 0.  1.
<mgrwt>
<rscale>  0 0.22037362E+03</rscale>
<asrwt>0</asrwt>
<pdfrwt beam="1">  1        1 0.59157771E-01 0.22646621E+03</pdfrwt>
<pdfrwt beam="2">  1       -1 0.31147514E-01 0.22646621E+03</pdfrwt>
<totfact> 0.61386566E+02</totfact>
</mgrwt>
</event>
<event>
 8    1  0.2018715E-005  0.1609403E+03  0.7546771E-02  0.1191470E+00
         -2   -1    0    0    0  501 -0.00000000000E+00  0.00000000000E+00  0.27544820336E+02  0.27544820336E+02  0.00000000000E+00 0.  1.
          2   -1    0    0  501    0  0.00000000000E+00 -0.00000000000E+00 -0.89924313997E+03  0.89924313997E+03  0.00000000000E+00 0. -1.
         25    2    1    2    0    0  0.75061130338E+02 -0.68125311395E+02 -0.54325264503E+03  0.56659087302E+03  0.12500619874E+03 0.  0.
         23    2    1    2    0    0 -0.75061130338E+02  0.68125311395E+02 -0.32844567461E+03  0.36019708728E+03  0.10765755514E+03 0.  0.
          5    1    4    4  502    0 -0.75500026494E+02  0.22880386529E+02 -0.29018949664E+03  0.30075870735E+03  0.47000000000E+01 0. -1.
         -5    1    4    4    0  502  0.43889615695E+00  0.45244924866E+02 -0.38256177964E+02  0.59438379928E+02  0.47000000000E+01 0.  1.
          5    1    3    3  503    0  0.10247008644E+03 -0.73340981808E+02 -0.36646697192E+03  0.38755535055E+03  0.47000000000E+01 0. -1.
         -5    1    3    3    0  503 -0.27408956106E+02  0.52156704127E+01 -0.17678567310E+03  0.17903552247E+03  0.47000000000E+01 0. -1.
<mgrwt>
<rscale>  0 0.15756808E+03</rscale>
<asrwt>0</asrwt>
<pdfrwt beam="1">  1        2 0.13834509E+00 0.16094030E+03</pdfrwt>
<pdfrwt beam="2">  1       -2 0.42376650E-02 0.16094030E+03</pdfrwt>
<totfact> 0.74710640E+03</totfact>
</mgrwt>
</event>
<event>
 8    1  0.2018715E-005  0.2123581E+03  0.7546771E-02  0.1141059E+00
         -2   -1    0    0    0  501 -0.00000000000E+00  0.00000000000E+00  0.11811862467E+03  0.11811862467E+03  0.00000000000E+00 0.  1.
          2   -1    0    0  501    0  0.00000000000E+00 -0.00000000000E+00 -0.39386685624E+03  0.39386685624E+03  0.00000000000E+00 0. -1.
         25    2    1    2    0    0 -0.14199465299E+03  0.96479803405E+02 -0.20339086104E+03  0.29404728035E+03  0.12500050714E+03 0.  0.
         23    2    1    2    0    0  0.14199465299E+03 -0.96479803405E+02 -0.72357370532E+02  0.21793820057E+03  0.11309569511E+03 0.  0.
          5    1    4    4  502    0  0.12291517420E+03 -0.72091052337E+02 -0.10161408194E+03  0.17507932923E+03  0.47000000000E+01 0. -1.
         -5    1    3    3    0  503 -0.28549282151E+02 -0.21116044742E+02 -0.37404311320E+01  0.36014298298E+02  0.47000000000E+01 0.  1.
          5    1    3    3  503    0 -0.11344537084E+03  0.11759584815E+03 -0.19965042990E+03  0.25803298205E+03  0.47000000000E+01 0.  1.
         -5    1    4    4    0  502  0.19079478786E+02 -0.24388751068E+02  0.29256711408E+02  0.42858871331E+02  0.47000000000E+01 0.  1.
<mgrwt>
<rscale>  0 0.21064187E+03</rscale>
<asrwt>0</asrwt>
<pdfrwt beam="1">  1        2 0.60594901E-01 0.21235810E+03</pdfrwt>
<pdfrwt beam="2">  1       -2 0.18172096E-01 0.21235810E+03</pdfrwt>
<totfact> 0.19960105E+03</totfact>
</mgrwt>
</event>
<event>
 8    1  0.2018715E-005  0.1379950E+03  0.7546771E-02  0.1219883E+00
          2   -1    0    0  501    0  0.00000000000E+00  0.00000000000E+00  0.11710550855E+03  0.11710550855E+03  0.00000000000E+00 0.  1.
         -2   -1    0    0    0  501 -0.00000000000E+00 -0.00000000000E+00 -0.15087144995E+03  0.15087144995E+03  0.00000000000E+00 0. -1.
         25    2    1    2    0    0  0.47894134165E+02  0.33520775694E+02 -0.89514134572E+01  0.13828502060E+03  0.12500051451E+03 0.  0.
         23    2    1    2    0    0 -0.47894134165E+02 -0.33520775694E+02 -0.24814527945E+02  0.12969193790E+03  0.11307850136E+03 0.  0.
          5    1    3    3  502    0 -0.20114554991E+02 -0.27589270175E+02  0.22867566380E+02  0.41361561182E+02  0.47000000000E+01 0. -1.
         -5    1    4    4    0  503 -0.20591866624E+02  0.11817862500E+02  0.39465113319E+02  0.46295485897E+02  0.47000000000E+01 0.  1.
          5    1    4    4  503    0 -0.27302267541E+02 -0.45338638195E+02 -0.64279641264E+02  0.83396452006E+02  0.47000000000E+01 0. -1.
         -5    1    3    3    0  502  0.68008689156E+02  0.61110045869E+02 -0.31818979837E+02  0.96923459414E+02  0.47000000000E+01 0. -1.
<mgrwt>
<rscale>  0 0.13523873E+03</rscale>
<asrwt>0</asrwt>
<pdfrwt beam="1">  1        2 0.18016232E-01 0.13799500E+03</pdfrwt>
<pdfrwt beam="2">  1       -2 0.23210992E-01 0.13799500E+03</pdfrwt>
<totfact> 0.48560966E+03</totfact>
</mgrwt>
</event>
<event>
 8    1  0.2018715E-005  0.2118036E+03  0.7546771E-02  0.1145265E+00
         -2   -1    0    0    0  501 -0.00000000000E+00  0.00000000000E+00  0.85753877305E+02  0.85753877305E+02  0.00000000000E+00 0.  1.
          2   -1    0    0  501    0  0.00000000000E+00 -0.00000000000E+00 -0.59162958060E+03  0.59162958060E+03  0.00000000000E+00 0. -1.
         25    2    1    2    0    0  0.14639715544E+03  0.88338540961E+02 -0.42195944688E+03  0.47213404096E+03  0.12499981152E+03 0.  0.
         23    2    1    2    0    0 -0.14639715544E+03 -0.88338540961E+02 -0.83916256419E+02  0.20524941695E+03  0.76482417117E+02 0.  0.
          5    1    4    4  502    0 -0.13973974301E+03 -0.60418900167E+02 -0.49426657197E+02  0.16013345595E+03  0.47000000000E+01 0. -1.
         -5    1    4    4    0  502 -0.66574124283E+01 -0.27919640793E+02 -0.34489599222E+02  0.45115960998E+02  0.47000000000E+01 0.  1.
          5    1    3    3  503    0  0.21578239849E+02 -0.68651156106E+01 -0.19362911699E+03  0.19500532093E+03  0.47000000000E+01 0.  1.
         -5    1    3    3    0  503  0.12481891559E+03  0.95203656571E+02 -0.22833032989E+03  0.27712872002E+03  0.47000000000E+01 0.  1.
<mgrwt>
<rscale>  0 0.20539546E+03</rscale>
<asrwt>0</asrwt>
<pdfrwt beam="1">  1        2 0.91019941E-01 0.21180363E+03</pdfrwt>
<pdfrwt beam="2">  1       -2 0.13192903E-01 0.21180363E+03</pdfrwt>
<totfact> 0.21573802E+03</totfact>
</mgrwt>
</event>
<event>
 8    1  0.2018715E-005  0.2273880E+03  0.7546771E-02  0.1130202E+00
         -1   -1    0    0    0  501 -0.00000000000E+00  0.00000000000E+00  0.16330961340E+03  0.16330961340E+03  0.00000000000E+00 0.  1.
          1   -1    0    0  501    0  0.00000000000E+00 -0.00000000000E+00 -0.51183314301E+03  0.51183314301E+03  0.00000000000E+00 0. -1.
         25    2    1    2    0    0 -0.18994375824E+03  0.18490792481E+01  0.38798758197E+02  0.23067436245E+03  0.12499306967E+03 0.  0.
         23    2    1    2    0    0  0.18994375824E+03 -0.18490792481E+01 -0.38732228780E+03  0.44446839397E+03  0.10701190690E+03 0.  0.
          5    1    3    3  502    0 -0.12756070764E+03  0.69156496438E+00 -0.36506163792E+02  0.13276672170E+03  0.47000000000E+01 0. -1.
         -5    1    3    3    0  502 -0.62383050602E+02  0.11575142837E+01  0.75304921989E+02  0.97907640751E+02  0.47000000000E+01 0. -1.
          5    1    4    4  503    0  0.72054704046E+02 -0.40102728872E+02 -0.22839889757E+03  0.24287497946E+03  0.47000000000E+01 0. -1.
         -5    1    4    4    0  503  0.11788905419E+03  0.38253649624E+02 -0.15892339023E+03  0.20159341450E+03  0.47000000000E+01 0.  1.
<mgrwt>
<rscale>  0 0.22500947E+03</rscale>
<asrwt>0</asrwt>
<pdfrwt beam="1">  1        1 0.78743560E-01 0.22738803E+03</pdfrwt>
<pdfrwt beam="2">  1       -1 0.25124556E-01 0.22738803E+03</pdfrwt>
<totfact> 0.60779892E+02</totfact>
</mgrwt>
</event>
<event>
 8    1  0.2018715E-005  0.1340140E+03  0.7546771E-02  0.1240974E+00
          2   -1    0    0  501    0  0.00000000000E+00  0.00000000000E+00  0.13372112344E+04  0.13372112344E+04  0.00000000000E+00 0. -1.
         -2   -1    0    0    0  501 -0.00000000000E+00 -0.00000000000E+00 -0.94366052046E+01  0.94366052046E+01  0.00000000000E+00 0.  1.
         25    2    1    2    0    0 -0.43904199599E+02  0.20114910384E+02  0.84636357931E+03  0.85690784291E+03  0.12501021757E+03 0.  0.
         23    2    1    2    0    0  0.43904199599E+02 -0.20114910384E+02  0.48141104986E+03  0.48973999667E+03  0.75871450811E+02 0.  0.
          5    1    3    3  502    0 -0.76067012907E+02 -0.23095739287E+02  0.47522118631E+03  0.48184735087E+03  0.47000000000E+01 0. -1.
         -5    1    3    3    0  502  0.32162813308E+02  0.43210649671E+02  0.37114239300E+03  0.37506049203E+03  0.47000000000E+01 0. -1.
          5    1    4    4  503    0  0.44618453945E+02  0.19586837814E+02  0.30062583782E+03  0.30458567762E+03  0.47000000000E+01 0. -1.
         -5    1    4    4    0  503 -0.71425434599E+00 -0.39701748198E+02  0.18078521204E+03  0.18515431905E+03  0.47000000000E+01 0.  1.
<mgrwt>
<rscale>  0 0.12129619E+03</rscale>
<asrwt>0</asrwt>
<pdfrwt beam="1">  1        2 0.20572466E+00 0.13401397E+03</pdfrwt>
<pdfrwt beam="2">  1       -2 0.14517865E-02 0.13401397E+03</pdfrwt>
<totfact> 0.19890959E+04</totfact>
</mgrwt>
</event>
<event>
 8    1  0.2018715E-005  0.1908096E+03  0.7546771E-02  0.1158334E+00
          2   -1    0    0  501    0  0.00000000000E+00  0.00000000000E+00  0.21003574163E+04  0.21003574163E+04  0.00000000000E+00 0. -1.
         -2   -1    0    0    0  501 -0.00000000000E+00 -0.00000000000E+00 -0.17103149135E+02  0.17103149135E+02  0.00000000000E+00 0.  1.
         25    2    1    2    0    0 -0.60277811017E+01 -0.14403561975E+03  0.10239152415E+04  0.10415424802E+04  0.12500288963E+03 0.  0.
         23    2    1    2    0    0  0.60277811017E+01  0.14403561975E+03  0.10593390257E+04  0.10759180852E+04  0.12090475964E+03 0.  0.
          5    1    3    3  502    0 -0.49774007776E+02 -0.30067627605E+02  0.50904412043E+03  0.51237634667E+03  0.47000000000E+01 0. -1.
         -5    1    3    3    0  502  0.43746226674E+02 -0.11396799215E+03  0.51487112106E+03  0.52916613354E+03  0.47000000000E+01 0. -1.
          5    1    4    4  503    0 -0.55411063532E+02  0.53696198905E+02  0.50684335793E+03  0.51270454183E+03  0.47000000000E+01 0. -1.
         -5    1    4    4    0  503  0.61438844634E+02  0.90339420846E+02  0.55249566777E+03  0.56321354342E+03  0.47000000000E+01 0.  1.
<mgrwt>
<rscale>  0 0.19014131E+03</rscale>
<asrwt>0</asrwt>
<pdfrwt beam="1">  1        2 0.32313171E+00 0.19080963E+03</pdfrwt>
<pdfrwt beam="2">  1       -2 0.26312554E-02 0.19080963E+03</pdfrwt>
<totfact> 0.33906205E+03</totfact>
</mgrwt>
</event>
<event>
 8    1  0.2018715E-005  0.1425884E+03  0.7546771E-02  0.1224581E+00
          2   -1    0    0  501    0  0.00000000000E+00  0.00000000000E+00  0.37831223808E+03  0.37831223808E+03  0.00000000000E+00 0. -1.
         -2   -1    0    0    0  501 -0.00000000000E+00 -0.00000000000E+00 -0.40693432590E+02  0.40693432590E+02  0.00000000000E+00 0.  1.
         25    2    1    2    0    0 -0.21023066227E+02  0.65311194411E+02  0.21292617663E+03  0.25625963904E+03  0.12499569785E+03 0.  0.
         23    2    1    2    0    0  0.21023066227E+02 -0.65311194411E+02  0.12469262886E+03  0.16274603162E+03  0.78933501685E+02 0.  0.
          5    1    3    3  502    0 -0.42424605650E+02 -0.22823275455E+02  0.10197373882E+03  0.11287817537E+03  0.47000000000E+01 0.  1.
         -5    1    4    4    0  503  0.85943702439E+01 -0.46965699484E+02  0.14312776232E+02  0.50065813599E+02  0.47000000000E+01 0.  1.
          5    1    4    4  503    0  0.12428695983E+02 -0.18345494928E+02  0.11037985263E+03  0.11268021802E+03  0.47000000000E+01 0. -1.
         -5    1    3    3    0  502  0.21401539423E+02  0.88134469866E+02  0.11095243781E+03  0.14338146367E+03  0.47000000000E+01 0.  1.
<mgrwt>
<rscale>  0 0.13195639E+03</rscale>
<asrwt>0</asrwt>
<pdfrwt beam="1">  1        2 0.58201880E-01 0.14258838E+03</pdfrwt>
<pdfrwt beam="2">  1       -2 0.62605284E-02 0.14258838E+03</pdfrwt>
<totfact> 0.11177703E+04</totfact>
</mgrwt>
</event>
<event>
 8    1  0.2018715E-005  0.1297667E+03  0.7546771E-02  0.1251195E+00
          2   -1    0    0  501    0  0.00000000000E+00  0.00000000000E+00  0.68706585377E+03  0.68706585377E+03  0.00000000000E+00 0. -1.
         -2   -1    0    0    0  501 -0.00000000000E+00 -0.00000000000E+00 -0.16331674841E+02  0.16331674841E+02  0.00000000000E+00 0.  1.
         25    2    1    2    0    0 -0.32770364794E+02 -0.11932706421E+02  0.45232564854E+03  0.47057187790E+03  0.12499245437E+03 0.  0.
         23    2    1    2    0    0  0.32770364794E+02  0.11932706421E+02  0.21840853039E+03  0.23282565071E+03  0.72726963312E+02 0.  0.
          5    1    4    4  502    0 -0.19725840869E+02  0.85537766468E+01  0.11068501631E+03  0.11285184415E+03  0.47000000000E+01 0. -1.
         -5    1    3    3    0  503 -0.14720762220E+02 -0.49901675726E+02  0.39947468800E+03  0.40287590450E+03  0.47000000000E+01 0. -1.
          5    1    3    3  503    0 -0.18049602574E+02  0.37968969305E+02  0.52850960546E+02  0.67695973395E+02  0.47000000000E+01 0. -1.
         -5    1    4    4    0  502  0.52496205664E+02  0.33789297743E+01  0.10772351408E+03  0.11997380656E+03  0.47000000000E+01 0.  1.
<mgrwt>
<rscale>  0 0.11522124E+03</rscale>
<asrwt>0</asrwt>
<pdfrwt beam="1">  1        2 0.10570242E+00 0.12976671E+03</pdfrwt>
<pdfrwt beam="2">  1       -2 0.25125659E-02 0.12976671E+03</pdfrwt>
<totfact> 0.22262549E+04</totfact>
</mgrwt>
</event>
<event>
 8    1  0.2018715E-005  0.2056999E+03  0.7546771E-02  0.1146012E+00
         -2   -1    0    0    0  501 -0.00000000000E+00  0.00000000000E+00  0.26919185896E+02  0.26919185896E+02  0.00000000000E+00 0.  1.
          2   -1    0    0  501    0  0.00000000000E+00 -0.00000000000E+00 -0.15840771142E+04  0.15840771142E+04  0.00000000000E+00 0. -1.
         25    2    1    2    0    0  0.23398990693E+02 -0.16167913172E+03 -0.64595647299E+03  0.67791756405E+03  0.12499921703E+03 0.  0.
         23    2    1    2    0    0 -0.23398990693E+02  0.16167913172E+03 -0.91120145535E+03  0.93307873608E+03  0.11687677736E+03 0.  0.
          5    1    4    4  502    0  0.27797780195E+02  0.12394292221E+03 -0.72996045230E+03  0.74094461093E+03  0.47000000000E+01 0. -1.
         -5    1    4    4    0  502 -0.51196770888E+02  0.37736209510E+02 -0.18124100305E+03  0.19213412515E+03  0.47000000000E+01 0.  1.
          5    1    3    3  503    0  0.33446907456E+02 -0.10430035268E+02 -0.40502007243E+02  0.53758569966E+02  0.47000000000E+01 0. -1.
         -5    1    3    3    0  503 -0.10047916763E+02 -0.15124909645E+03 -0.60545446574E+03  0.62415899408E+03  0.47000000000E+01 0. -1.
<mgrwt>
<rscale>  0 0.20448108E+03</rscale>
<asrwt>0</asrwt>
<pdfrwt beam="1">  1        2 0.24370423E+00 0.20569992E+03</pdfrwt>
<pdfrwt beam="2">  1       -2 0.41414121E-02 0.20569992E+03</pdfrwt>
<totfact> 0.32042619E+03</totfact>
</mgrwt>
</event>
<event>
 8    1  0.2018715E-005  0.1398492E+03  0.7546771E-02  0.1216856E+00
          1   -1    0    0  501    0  0.00000000000E+00  0.00000000000E+00  0.62558706403E+03  0.62558706403E+03  0.00000000000E+00 0. -1.
         -1   -1    0    0    0  501 -0.00000000000E+00 -0.00000000000E+00 -0.29188897559E+02  0.29188897559E+02  0.00000000000E+00 0.  1.
         25    2    1    2    0    0 -0.49107455731E+02 -0.38999055177E+02  0.31574565510E+03  0.34533043683E+03  0.12500129351E+03 0.  0.
         23    2    1    2    0    0  0.49107455731E+02  0.38999055177E+02  0.28065251138E+03  0.30944552476E+03  0.11427262199E+03 0.  0.
          5    1    4    4  502    0  0.73554806493E+02  0.61167247344E+02  0.22555705595E+03  0.24505064211E+03  0.47000000000E+01 0. -1.
         -5    1    3    3    0  503 -0.91014790595E+02 -0.26609544959E+02  0.19627780202E+03  0.21803400091E+03  0.47000000000E+01 0. -1.
          5    1    3    3  503    0  0.41907334864E+02 -0.12389510218E+02  0.11946785308E+03  0.12729643592E+03  0.47000000000E+01 0. -1.
         -5    1    4    4    0  502 -0.24447350762E+02 -0.22168192167E+02  0.55095455421E+02  0.64394882649E+02  0.47000000000E+01 0.  1.
<mgrwt>
<rscale>  0 0.13741095E+03</rscale>
<asrwt>0</asrwt>
<pdfrwt beam="1">  1        1 0.96244154E-01 0.13984918E+03</pdfrwt>
<pdfrwt beam="2">  1       -1 0.44906001E-02 0.13984918E+03</pdfrwt>
<totfact> 0.66144637E+03</totfact>
</mgrwt>
</event>
<event>
 8    1  0.2018715E-005  0.1572035E+03  0.7546771E-02  0.1203657E+00
         -2   -1    0    0    0  501 -0.00000000000E+00  0.00000000000E+00  0.50319597598E+02  0.50319597598E+02  0.00000000000E+00 0.  1.
          2   -1    0    0  501    0  0.00000000000E+00 -0.00000000000E+00 -0.38672234435E+03  0.38672234435E+03  0.00000000000E+00 0. -1.
         25    2    1    2    0    0 -0.29964827578E+02 -0.90502107067E+02 -0.18228209128E+03  0.24070667455E+03  0.12499768036E+03 0.  0.
         23    2    1    2    0    0  0.29964827578E+02  0.90502107067E+02 -0.15412065547E+03  0.19633526740E+03  0.75537000911E+02 0.  0.
          5    1    4    4  502    0  0.53658178649E+02  0.46259186156E+02 -0.84223990417E+02  0.11015844498E+03  0.47000000000E+01 0. -1.
         -5    1    4    4    0  502 -0.23693351072E+02  0.44242920911E+02 -0.69896665051E+02  0.86176822412E+02  0.47000000000E+01 0.  1.
          5    1    3    3  503    0  0.24430633973E+02 -0.38166700547E+02 -0.15294380800E+03  0.15958524779E+03  0.47000000000E+01 0. -1.
         -5    1    3    3    0  503 -0.54395461551E+02 -0.52335406520E+02 -0.29338283277E+02  0.81121426754E+02  0.47000000000E+01 0. -1.
<mgrwt>
<rscale>  0 0.14743775E+03</rscale>
<asrwt>0</asrwt>
<pdfrwt beam="1">  1        2 0.59495746E-01 0.15720351E+03</pdfrwt>
<pdfrwt beam="2">  1       -2 0.77414764E-02 0.15720351E+03</pdfrwt>
<totfact> 0.79362055E+03</totfact>
</mgrwt>
</event>
<event>
 8    1  0.2018715E-005  0.2210917E+03  0.7546771E-02  0.1133680E+00
         -2   -1    0    0    0  501 -0.00000000000E+00  0.00000000000E+00  0.10840732764E+03  0.10840732764E+03  0.00000000000E+00 0.  1.
          2   -1    0    0  501    0  0.00000000000E+00 -0.00000000000E+00 -0.45147302791E+03  0.45147302791E+03  0.00000000000E+00 0. -1.
         25    2    1    2    0    0  0.18204196691E+03  0.10823109556E+02 -0.13747005959E+03  0.26034507508E+03  0.12500049368E+03 0.  0.
         23    2    1    2    0    0 -0.18204196691E+03 -0.10823109556E+02 -0.20559564068E+03  0.29953528047E+03  0.11914444749E+03 0.  0.
          5    1    4    4  502    0 -0.73439757222E+02  0.53133059335E+02 -0.99935543247E+02  0.13500267678E+03  0.47000000000E+01 0. -1.
         -5    1    3    3    0  503  0.91240672752E+02 -0.53422658751E+02 -0.91473739072E+02  0.13988701073E+03  0.47000000000E+01 0. -1.
          5    1    3    3  503    0  0.90801294153E+02  0.64245768306E+02 -0.45996320520E+02  0.12045806435E+03  0.47000000000E+01 0. -1.
         -5    1    4    4    0  502 -0.10860220968E+03 -0.63956168890E+02 -0.10566009743E+03  0.16453260369E+03  0.47000000000E+01 0.  1.
<mgrwt>
<rscale>  0 0.22027283E+03</rscale>
<asrwt>0</asrwt>
<pdfrwt beam="1">  1        2 0.69457390E-01 0.22109170E+03</pdfrwt>
<pdfrwt beam="2">  1       -2 0.16678050E-01 0.22109170E+03</pdfrwt>
<totfact> 0.19881138E+03</totfact>
</mgrwt>
</event>
<event>
 8    1  0.2018715E-005  0.1304743E+03  0.7546771E-02  0.1246949E+00
          2   -1    0    0  501    0  0.00000000000E+00  0.00000000000E+00  0.64633990211E+03  0.64633990211E+03  0.00000000000E+00 0. -1.
         -2   -1    0    0    0  501 -0.00000000000E+00 -0.00000000000E+00 -0.18521051862E+02  0.18521051862E+02  0.00000000000E+00 0.  1.
         25    2    1    2    0    0 -0.37045730703E+02  0.49673099855E+01  0.33310137319E+03  0.35774302185E+03  0.12500593798E+03 0.  0.
         23    2    1    2    0    0  0.37045730703E+02 -0.49673099855E+01  0.29471747705E+03  0.30711793211E+03  0.77884354108E+02 0.  0.
          5    1    3    3  502    0  0.32892146753E+02  0.39399610401E+02  0.15269655749E+03  0.16116001764E+03  0.47000000000E+01 0.  1.
         -5    1    3    3    0  502 -0.69937877456E+02 -0.34432300416E+02  0.18040481571E+03  0.19658300421E+03  0.47000000000E+01 0.  1.
          5    1    4    4  503    0  0.12015981419E+02  0.35716554303E+02  0.14529257988E+03  0.15017349909E+03  0.47000000000E+01 0. -1.
         -5    1    4    4    0  503  0.25029749284E+02 -0.40683864288E+02  0.14942489717E+03  0.15694443302E+03  0.47000000000E+01 0.  1.
<mgrwt>
<rscale>  0 0.11769504E+03</rscale>
<asrwt>0</asrwt>
<pdfrwt beam="1">  1        2 0.99436890E-01 0.13047431E+03</pdfrwt>
<pdfrwt beam="2">  1       -2 0.28493931E-02 0.13047431E+03</pdfrwt>
<totfact> 0.19900642E+04</totfact>
</mgrwt>
</event>
<event>
 7    1  0.2018715E-005  0.2516411E+03  0.7546771E-02  0.1114295E+00
          1   -1    0    0  501    0  0.00000000000E+00  0.00000000000E+00  0.30443269114E+04  0.30443269114E+04  0.00000000000E+00 0. -1.
         -1   -1    0    0    0  501 -0.00000000000E+00 -0.00000000000E+00 -0.20694885784E+02  0.20694885784E+02  0.00000000000E+00 0.  1.
         25    2    1    2    0    0  0.10847985509E+03  0.17252668433E+03  0.11518183963E+04  0.11763689703E+04  0.12500000147E+03 0.  0.
          5    1    1    2  502    0 -0.33015410359E+02 -0.16924770937E+03  0.14350466504E+04  0.14453773844E+04  0.47000000000E+01 0. -1.
         -5    1    3    3    0  503  0.66193834734E+02  0.24663101149E+02  0.19923095475E+03  0.21143546449E+03  0.47000000000E+01 0.  1.
          5    1    3    3  503    0  0.42286020353E+02  0.14786358318E+03  0.95258744159E+03  0.96493350580E+03  0.47000000000E+01 0.  1.
         -5    1    1    2    0  502 -0.75464444728E+02 -0.32789749633E+01  0.43676697886E+03  0.44327544249E+03  0.47000000000E+01 0.  1.
<mgrwt>
<rscale>  0 0.24843977E+03</rscale>
<asrwt>0</asrwt>
<pdfrwt beam="1">  1        1 0.46835763E+00 0.25164109E+03</pdfrwt>
<pdfrwt beam="2">  1       -1 0.31838310E-02 0.25164109E+03</pdfrwt>
<totfact> 0.23370335E+02</totfact>
</mgrwt>
</event>
<event>
 8    1  0.2018715E-005  0.1739579E+03  0.7546771E-02  0.1182149E+00
          1   -1    0    0  501    0  0.00000000000E+00  0.00000000000E+00  0.64495367553E+03  0.64495367553E+03  0.00000000000E+00 0.  1.
         -1   -1    0    0    0  501 -0.00000000000E+00 -0.00000000000E+00 -0.40679231171E+02  0.40679231171E+02  0.00000000000E+00 0. -1.
         25    2    1    2    0    0 -0.97537214772E+02  0.71566068949E+02  0.26436386245E+03  0.31646420720E+03  0.12500452863E+03 0.  0.
         23    2    1    2    0    0  0.97537214772E+02 -0.71566068949E+02  0.33991058191E+03  0.36916869950E+03  0.78173617731E+02 0.  0.
          5    1    3    3  502    0 -0.12525404525E+02  0.83687183006E+02  0.16149640217E+03  0.18238313593E+03  0.47000000000E+01 0.  1.
         -5    1    3    3    0  502 -0.85011810246E+02 -0.12121114057E+02  0.10286746028E+03  0.13408107126E+03  0.47000000000E+01 0.  1.
          5    1    4    4  503    0  0.19088628298E+02 -0.25336713384E+02  0.23163435703E+02  0.39559569373E+02  0.47000000000E+01 0. -1.
         -5    1    4    4    0  503  0.78448586473E+02 -0.46229355565E+02  0.31674714620E+03  0.32960913013E+03  0.47000000000E+01 0.  1.
<mgrwt>
<rscale>  0 0.16593986E+03</rscale>
<asrwt>0</asrwt>
<pdfrwt beam="1">  1        1 0.99223635E-01 0.17395788E+03</pdfrwt>
<pdfrwt beam="2">  1       -1 0.62583437E-02 0.17395788E+03</pdfrwt>
<totfact> 0.39079472E+03</totfact>
</mgrwt>
</event>
<event>
 7    1  0.2018715E-005  0.1564734E+03  0.7546771E-02  0.1210939E+00
         -1   -1    0    0    0  501 -0.00000000000E+00  0.00000000000E+00  0.36414508439E+02  0.36414508439E+02  0.00000000000E+00 0. -1.
          1   -1    0    0  501    0  0.00000000000E+00 -0.00000000000E+00 -0.59198945911E+03  0.59198945911E+03  0.00000000000E+00 0.  1.
         25    2    1    2    0    0  0.42148791077E+02  0.84152031722E+02 -0.18102553128E+03  0.23927841014E+03  0.12500331817E+03 0.  0.
          5    1    1    2  502    0 -0.18835497751E+02 -0.47965201893E+02 -0.11658918606E+03  0.12755612441E+03  0.47000000000E+01 0. -1.
         -5    1    3    3    0  503  0.15889173153E+02  0.76006932521E+02 -0.19362820389E+03  0.20867077169E+03  0.47000000000E+01 0. -1.
          5    1    3    3  503    0  0.26259617924E+02  0.81450992010E+01  0.12602672614E+02  0.30607638451E+02  0.47000000000E+01 0. -1.
         -5    1    1    2    0  502 -0.23313293326E+02 -0.36186829829E+02 -0.25796023333E+03  0.26156943300E+03  0.47000000000E+01 0.  1.
<mgrwt>
<rscale>  0 0.14179117E+03</rscale>
<asrwt>0</asrwt>
<pdfrwt beam="1">  1        1 0.91075293E-01 0.15647337E+03</pdfrwt>
<pdfrwt beam="2">  1       -1 0.56022326E-02 0.15647337E+03</pdfrwt>
<totfact> 0.51694075E+03</totfact>
</mgrwt>
</event>
<event>
 7    1  0.2018715E-005  0.1952821E+03  0.7546771E-02  0.1159591E+00
         -2   -1    0    0    0  501 -0.00000000000E+00  0.00000000000E+00  0.62620487507E+03  0.62620487507E+03  0.00000000000E+00 0.  1.
          2   -1    0    0  501    0  0.00000000000E+00 -0.00000000000E+00 -0.56597273261E+02  0.56597273261E+02  0.00000000000E+00 0. -1.
         25    2    1    2    0    0 -0.26361144431E+02  0.11284280296E+03  0.18559271477E+03  0.25198602602E+03  0.12499557359E+03 0.  0.
          5    1    3    3  502    0 -0.74902613472E+02  0.49164495210E+02  0.88142444935E+02  0.12577253155E+03  0.47000000000E+01 0. -1.
         -5    1    3    3    0  502  0.48541469041E+02  0.63678307747E+02  0.97450269839E+02  0.12621349447E+03  0.47000000000E+01 0. -1.
          5    1    1    2  503    0 -0.37573592507E+02 -0.10592206856E+03  0.14649792483E+03  0.18470244027E+03  0.47000000000E+01 0. -1.
         -5    1    1    2    0  503  0.63934736938E+02 -0.69207343954E+01  0.23751696221E+03  0.24611368204E+03  0.47000000000E+01 0.  1.
<mgrwt>
<rscale>  0 0.18875323E+03</rscale>
<asrwt>0</asrwt>
<pdfrwt beam="1">  1        2 0.87072733E-02 0.19528210E+03</pdfrwt>
<pdfrwt beam="2">  1       -2 0.96339207E-01 0.19528210E+03</pdfrwt>
<totfact> 0.70745640E+02</totfact>
</mgrwt>
</event>
<event>
 8    1  0.2018715E-005  0.1760362E+03  0.7546771E-02  0.1174502E+00
          2   -1    0    0  501    0  0.00000000000E+00  0.00000000000E+00  0.19883731080E+03  0.19883731080E+03  0.00000000000E+00 0. -1.
         -2   -1    0    0    0  501 -0.00000000000E+00 -0.00000000000E+00 -0.17526525893E+03  0.17526525893E+03  0.00000000000E+00 0.  1.
         25    2    1    2    0    0  0.76659010072E+02 -0.97403331794E+02 -0.63831966946E+02  0.18725190051E+03  0.12499896548E+03 0.  0.
         23    2    1    2    0    0 -0.76659010072E+02  0.97403331794E+02  0.87404018815E+02  0.18685066922E+03  0.10913155920E+03 0.  0.
          5    1    4    4  502    0 -0.96724767744E+02  0.42187583413E+02  0.48499485300E+02  0.11623150590E+03  0.47000000000E+01 0. -1.
         -5    1    4    4    0  502  0.20065757672E+02  0.55215748381E+02  0.38904533515E+02  0.70619163321E+02  0.47000000000E+01 0.  1.
          5    1    3    3  503    0 -0.85245264601E+01 -0.45412380401E+02  0.25714972700E+02  0.53087679042E+02  0.47000000000E+01 0.  1.
         -5    1    3    3    0  503  0.85183536532E+02 -0.51990951393E+02 -0.89546939645E+02  0.13416422147E+03  0.47000000000E+01 0.  1.
<mgrwt>
<rscale>  0 0.17324854E+03</rscale>
<asrwt>0</asrwt>
<pdfrwt beam="1">  1        2 0.30590356E-01 0.17603623E+03</pdfrwt>
<pdfrwt beam="2">  1       -2 0.26963886E-01 0.17603623E+03</pdfrwt>
<totfact> 0.20941758E+03</totfact>
</mgrwt>
</event>
<event>
 8    1  0.2018715E-005  0.1488671E+03  0.7546771E-02  0.1202715E+00
          2   -1    0    0  501    0  0.00000000000E+00  0.00000000000E+00  0.56346532175E+03  0.56346532175E+03  0.00000000000E+00 0. -1.
         -2   -1    0    0    0  501 -0.00000000000E+00 -0.00000000000E+00 -0.50965881940E+02  0.50965881940E+02  0.00000000000E+00 0.  1.
         25    2    1    2    0    0  0.13484471327E+02 -0.79720613258E+02  0.40920133478E+03  0.43543904076E+03  0.12499687470E+03 0.  0.
         23    2    1    2    0    0 -0.13484471327E+02  0.79720613258E+02  0.10329810503E+03  0.17899216293E+03  0.12178049410E+03 0.  0.
          5    1    4    4  502    0 -0.16248175606E+02  0.23153833981E+02  0.11705996284E+03  0.12052065441E+03  0.47000000000E+01 0. -1.
         -5    1    3    3    0  503 -0.27429036254E+02 -0.13178826468E+02  0.29729653948E+03  0.29888686135E+03  0.47000000000E+01 0. -1.
          5    1    3    3  503    0  0.40913507580E+02 -0.66541786790E+02  0.11190479530E+03  0.13655217941E+03  0.47000000000E+01 0. -1.
         -5    1    4    4    0  502  0.27637042789E+01  0.56566779277E+02 -0.13761857808E+02  0.58471508527E+02  0.47000000000E+01 0.  1.
<mgrwt>
<rscale>  0 0.14818998E+03</rscale>
<asrwt>0</asrwt>
<pdfrwt beam="1">  1        2 0.86686968E-01 0.14886714E+03</pdfrwt>
<pdfrwt beam="2">  1       -2 0.78409053E-02 0.14886714E+03</pdfrwt>
<totfact> 0.51388351E+03</totfact>
</mgrwt>
</event>
<event>
 8    1  0.2018715E-005  0.2115547E+03  0.7546771E-02  0.1141888E+00
         -1   -1    0    0    0  501 -0.00000000000E+00  0.00000000000E+00  0.11011881634E+03  0.11011881634E+03  0.00000000000E+00 0. -1.
          1   -1    0    0  501    0  0.00000000000E+00 -0.00000000000E+00 -0.40132709131E+03  0.40132709131E+03  0.00000000000E+00 0.  1.
         25    2    1    2    0    0 -0.14351602713E+02 -0.17006931666E+03 -0.10865688108E+03  0.23782707750E+03  0.12500344002E+03 0.  0.
         23    2    1    2    0    0  0.14351602713E+02  0.17006931666E+03 -0.18255139388E+03  0.27361883015E+03  0.11141235047E+03 0.  0.
          5    1    3    3  502    0  0.53335053215E+02 -0.99924283014E+02 -0.49447351748E+02  0.12367950854E+03  0.47000000000E+01 0. -1.
         -5    1    3    3    0  502 -0.67686655927E+02 -0.70145033641E+02 -0.59209529334E+02  0.11414756896E+03  0.47000000000E+01 0. -1.
          5    1    4    4  503    0  0.37011512446E+02  0.17365463962E+03 -0.14465147334E+03  0.22906751113E+03  0.47000000000E+01 0. -1.
         -5    1    4    4    0  503 -0.22659909733E+02 -0.35853229621E+01 -0.37899920538E+02  0.44551319022E+02  0.47000000000E+01 0.  1.
<mgrwt>
<rscale>  0 0.20959374E+03</rscale>
<asrwt>0</asrwt>
<pdfrwt beam="1">  1        1 0.61742630E-01 0.21155472E+03</pdfrwt>
<pdfrwt beam="2">  1       -1 0.16941356E-01 0.21155472E+03</pdfrwt>
<totfact> 0.15860295E+03</totfact>
</mgrwt>
</event>
<event>
 8    1  0.2018715E-005  0.1611796E+03  0.7546771E-02  0.1198979E+00
         -2   -1    0    0    0  501 -0.00000000000E+00  0.00000000000E+00  0.12609359802E+03  0.12609359802E+03  0.00000000000E+00 0.  1.
          2   -1    0    0  501    0  0.00000000000E+00 -0.00000000000E+00 -0.19212528576E+03  0.19212528576E+03  0.00000000000E+00 0. -1.
         25    2    1    2    0    0 -0.80878263123E+01 -0.10143344563E+03 -0.98862376944E+02  0.18908370240E+03  0.12499888043E+03 0.  0.
         23    2    1    2    0    0  0.80878263123E+01  0.10143344563E+03  0.32830689204E+02  0.12913518138E+03  0.72414667641E+02 0.  0.
          5    1    4    4  502    0 -0.30803779724E+02  0.56215532105E+02  0.24245970797E+02  0.68695094403E+02  0.47000000000E+01 0. -1.
         -5    1    3    3    0  503 -0.58326632516E+02 -0.19730585913E+02 -0.58012784171E+02  0.84728184262E+02  0.47000000000E+01 0. -1.
          5    1    3    3  503    0  0.50238806203E+02 -0.81702859720E+02 -0.40849592773E+02  0.10435551813E+03  0.47000000000E+01 0. -1.
         -5    1    4    4    0  502  0.38891606036E+02  0.45217913528E+02  0.85847184073E+01  0.60440086979E+02  0.47000000000E+01 0.  1.
<mgrwt>
<rscale>  0 0.15122249E+03</rscale>
<asrwt>0</asrwt>
<pdfrwt beam="1">  1        2 0.29557736E-01 0.16117964E+03</pdfrwt>
<pdfrwt beam="2">  1       -2 0.19399015E-01 0.16117964E+03</pdfrwt>
<totfact> 0.38316640E+03</totfact>
</mgrwt>
</event>
<event>
 8    1  0.2018715E-005  0.1483473E+03  0.7546771E-02  0.1215692E+00
          3   -1    0    0  501    0  0.00000000000E+00  0.00000000000E+00  0.66860829123E+03  0.66860829123E+03  0.00000000000E+00 0.  1.
         -3   -1    0    0    0  501 -0.00000000000E+00 -0.00000000000E+00 -0.39904111333E+02  0.39904111333E+02  0.00000000000E+00 0. -1.
         25    2    1    2    0    0  0.68900185636E+01  0.79588478606E+02  0.12951295090E+03  0.19692773183E+03  0.12500051532E+03 0.  0.
         23    2    1    2    0    0 -0.68900185636E+01 -0.79588478606E+02  0.49919122900E+03  0.51158467073E+03  0.78391287384E+02 0.  0.
          5    1    3    3  502    0  0.23288620165E+02 -0.29451894366E+02  0.29387777191E+02  0.47911432447E+02  0.47000000000E+01 0. -1.
         -5    1    3    3    0  502 -0.16398601601E+02  0.10904037297E+03  0.10012517371E+03  0.14901629939E+03  0.47000000000E+01 0. -1.
          5    1    4    4  503    0  0.24422161474E+02 -0.70147555480E+02  0.27180592972E+03  0.28181141734E+03  0.47000000000E+01 0. -1.
         -5    1    4    4    0  503 -0.31312180037E+02 -0.94409231264E+01  0.22738529928E+03  0.22977325340E+03  0.47000000000E+01 0.  1.
<mgrwt>
<rscale>  0 0.13825811E+03</rscale>
<asrwt>0</asrwt>
<pdfrwt beam="1">  1        3 0.10286281E+00 0.14834732E+03</pdfrwt>
<pdfrwt beam="2">  1       -3 0.61390945E-02 0.14834732E+03</pdfrwt>
<totfact> 0.32848446E+02</totfact>
</mgrwt>
</event>
<event>
 8    1  0.2018715E-005  0.1692893E+03  0.7546771E-02  0.1188478E+00
         -1   -1    0    0    0  501 -0.00000000000E+00  0.00000000000E+00  0.37111928018E+03  0.37111928018E+03  0.00000000000E+00 0.  1.
          1   -1    0    0  501    0  0.00000000000E+00 -0.00000000000E+00 -0.15141420844E+03  0.15141420844E+03  0.00000000000E+00 0. -1.
         25    2    1    2    0    0 -0.11360429819E+03  0.11347785018E+02 -0.84656486145E+02  0.18927649403E+03  0.12499664697E+03 0.  0.
         23    2    1    2    0    0  0.11360429819E+03 -0.11347785018E+02  0.30436155788E+03  0.33325699459E+03  0.73413607275E+02 0.  0.
          5    1    4    4  502    0  0.79101497224E+02  0.19405126506E+02  0.13590137461E+03  0.15850829448E+03  0.47000000000E+01 0. -1.
         -5    1    3    3    0  503 -0.71605560690E+02 -0.48506516070E+02 -0.76484931544E+02  0.11555203666E+03  0.47000000000E+01 0.  1.
          5    1    3    3  503    0 -0.41998737499E+02  0.59854301088E+02 -0.81715546003E+01  0.73724457372E+02  0.47000000000E+01 0.  1.
         -5    1    4    4    0  502  0.34502800965E+02 -0.30752911524E+02  0.16846018327E+03  0.17474870011E+03  0.47000000000E+01 0.  1.
<mgrwt>
<rscale>  0 0.16019388E+03</rscale>
<asrwt>0</asrwt>
<pdfrwt beam="1">  1        1 0.23294494E-01 0.16928931E+03</pdfrwt>
<pdfrwt beam="2">  1       -1 0.57095273E-01 0.16928931E+03</pdfrwt>
<totfact> 0.66992973E+02</totfact>
</mgrwt>
</event>
<event>
 8    1  0.2018715E-005  0.1331299E+03  0.7546771E-02  0.1247890E+00
          2   -1    0    0  501    0  0.00000000000E+00  0.00000000000E+00  0.28583543956E+03  0.28583543956E+03  0.00000000000E+00 0. -1.
         -2   -1    0    0    0  501 -0.00000000000E+00 -0.00000000000E+00 -0.39655163883E+02  0.39655163883E+02  0.00000000000E+00 0.  1.
         25    2    1    2    0    0  0.19154637207E+02 -0.41587074325E+02  0.15370774394E+03  0.20334611233E+03  0.12500874359E+03 0.  0.
         23    2    1    2    0    0 -0.19154637207E+02  0.41587074325E+02  0.92472531736E+02  0.12214449111E+03  0.65358417253E+02 0.  0.
          5    1    4    4  502    0 -0.23348870418E+02  0.13595475623E+01  0.73403326059E+02  0.77182617187E+02  0.47000000000E+01 0. -1.
         -5    1    3    3    0  503  0.50797121069E+02 -0.28497914472E+02  0.14905903644E+02  0.60305510541E+02  0.47000000000E+01 0.  1.
          5    1    3    3  503    0 -0.31642483862E+02 -0.13089159853E+02  0.13880184029E+03  0.14304060179E+03  0.47000000000E+01 0.  1.
         -5    1    4    4    0  502  0.41942332107E+01  0.40227526763E+02  0.19069205677E+02  0.44961873925E+02  0.47000000000E+01 0.  1.
<mgrwt>
<rscale>  0 0.11714075E+03</rscale>
<asrwt>0</asrwt>
<pdfrwt beam="1">  1        2 0.43974682E-01 0.13312990E+03</pdfrwt>
<pdfrwt beam="2">  1       -2 0.61007946E-02 0.13312990E+03</pdfrwt>
<totfact> 0.15570371E+04</totfact>
</mgrwt>
</event>
<event>
 7    1  0.2018715E-005  0.1828158E+03  0.7546771E-02  0.1176507E+00
         -1   -1    0    0    0  501 -0.00000000000E+00  0.00000000000E+00  0.34611364968E+03  0.34611364968E+03  0.00000000000E+00 0.  1.
          1   -1    0    0  501    0  0.00000000000E+00 -0.00000000000E+00 -0.77750565409E+02  0.77750565409E+02  0.00000000000E+00 0. -1.
         25    2    1    2    0    0 -0.58524961208E+02 -0.28298989429E+02  0.83059778838E+02  0.16355874297E+03  0.12500612646E+03 0.  0.
          5    1    3    3  502    0 -0.41987054127E+02 -0.61438039457E+02  0.98176226097E+02  0.12328100737E+03  0.47000000000E+01 0. -1.
         -5    1    3    3    0  502 -0.16537907081E+02  0.33139050028E+02 -0.15116447258E+02  0.40277735601E+02  0.47000000000E+01 0. -1.
          5    1    1    2  503    0  0.34417162319E+02 -0.25764962533E+02 -0.19226416905E+02  0.47329900310E+02  0.47000000000E+01 0. -1.
         -5    1    1    2    0  503  0.24107798890E+02  0.54063951962E+02  0.20452972234E+03  0.21297557181E+03  0.47000000000E+01 0.  1.
<mgrwt>
<rscale>  0 0.17129210E+03</rscale>
<asrwt>0</asrwt>
<pdfrwt beam="1">  1        1 0.11961626E-01 0.18281582E+03</pdfrwt>
<pdfrwt beam="2">  1       -1 0.53248253E-01 0.18281582E+03</pdfrwt>
<totfact> 0.18132035E+03</totfact>
</mgrwt>
</event>
<event>
 8    1  0.2018715E-005  0.1521914E+03  0.7546771E-02  0.1214937E+00
         -1   -1    0    0    0  501 -0.00000000000E+00  0.00000000000E+00  0.80636848080E+02  0.80636848080E+02  0.00000000000E+00 0.  1.
          1   -1    0    0  501    0  0.00000000000E+00 -0.00000000000E+00 -0.24528820465E+03  0.24528820465E+03  0.00000000000E+00 0. -1.
         25    2    1    2    0    0 -0.70436508381E+02  0.50779927210E+02 -0.15951940995E+03  0.22047369595E+03  0.12498922247E+03 0.  0.
         23    2    1    2    0    0  0.70436508381E+02 -0.50779927210E+02 -0.51319466121E+01  0.10545135677E+03  0.59613329458E+02 0.  0.
          5    1    3    3  502    0 -0.58475236489E+02 -0.21308343983E+02 -0.24840072087E+02  0.67175278095E+02  0.47000000000E+01 0.  1.
         -5    1    4    4    0  503  0.40790371012E+01 -0.29024584572E+02  0.14105246956E+02  0.32865073329E+02  0.47000000000E+01 0.  1.
          5    1    4    4  503    0  0.66357471280E+02 -0.21755342638E+02 -0.19237193568E+02  0.72586283445E+02  0.47000000000E+01 0. -1.
         -5    1    3    3    0  502 -0.11961271892E+02  0.72088271193E+02 -0.13467933787E+03  0.15329841786E+03  0.47000000000E+01 0.  1.
<mgrwt>
<rscale>  0 0.13881193E+03</rscale>
<asrwt>0</asrwt>
<pdfrwt beam="1">  1        1 0.37736646E-01 0.15219135E+03</pdfrwt>
<pdfrwt beam="2">  1       -1 0.12405669E-01 0.15219135E+03</pdfrwt>
<totfact> 0.47453581E+03</totfact>
</mgrwt>
</event>
<event>
 8    1  0.2018715E-005  0.1388745E+03  0.7546771E-02  0.1220486E+00
          2   -1    0    0  501    0  0.00000000000E+00  0.00000000000E+00  0.15885322411E+03  0.15885322411E+03  0.00000000000E+00 0. -1.
         -2   -1    0    0    0  501 -0.00000000000E+00 -0.00000000000E+00 -0.12120465974E+03  0.12120465974E+03  0.00000000000E+00 0.  1.
         25    2    1    2    0    0  0.22603262591E+02  0.56163984001E+02  0.65630229472E+02  0.15360162056E+03  0.12498331984E+03 0.  0.
         23    2    1    2    0    0 -0.22603262591E+02 -0.56163984001E+02 -0.27981665094E+02  0.12645626329E+03  0.10743794658E+03 0.  0.
          5    1    3    3  502    0  0.50414642370E+00 -0.29765549916E+02 -0.14959751393E+02  0.33647084378E+02  0.47000000000E+01 0. -1.
         -5    1    3    3    0  502  0.22099116168E+02  0.85929533917E+02  0.80589980865E+02  0.11995453618E+03  0.47000000000E+01 0. -1.
          5    1    4    4  503    0  0.20244129325E+02  0.23228310157E+02 -0.16857258839E+02  0.35434959298E+02  0.47000000000E+01 0. -1.
         -5    1    4    4    0  503 -0.42847391916E+02 -0.79392294158E+02 -0.11124406255E+02  0.91021303991E+02  0.47000000000E+01 0.  1.
<mgrwt>
<rscale>  0 0.13481142E+03</rscale>
<asrwt>0</asrwt>
<pdfrwt beam="1">  1        2 0.24438958E-01 0.13887451E+03</pdfrwt>
<pdfrwt beam="2">  1       -2 0.18646871E-01 0.13887451E+03</pdfrwt>
<totfact> 0.50038951E+03</totfact>
</mgrwt>
</event>
<event>
 8    1  0.2018715E-005  0.1507345E+03  0.7546771E-02  0.1203414E+00
          2   -1    0    0  501    0  0.00000000000E+00  0.00000000000E+00  0.15536599022E+03  0.15536599022E+03  0.00000000000E+00 0. -1.
         -2   -1    0    0    0  501 -0.00000000000E+00 -0.00000000000E+00 -0.20127448608E+03  0.20127448608E+03  0.00000000000E+00 0.  1.
         25    2    1    2    0    0  0.43288436221E+02  0.72266502495E+02 -0.12601399992E+03  0.19646990939E+03  0.12499824409E+03 0.  0.
         23    2    1    2    0    0 -0.43288436221E+02 -0.72266502495E+02  0.80105504056E+02  0.16017056691E+03  0.11018794231E+03 0.  0.
          5    1    4    4  502    0 -0.72833487887E+02 -0.15619691460E+02  0.43417160551E+02  0.86347157159E+02  0.47000000000E+01 0. -1.
         -5    1    4    4    0  502  0.29545051666E+02 -0.56646811035E+02  0.36688343505E+02  0.73823409753E+02  0.47000000000E+01 0.  1.
          5    1    3    3  503    0  0.80124828919E+02  0.41350502244E+02 -0.42061240788E+02  0.99604669678E+02  0.47000000000E+01 0.  1.
         -5    1    3    3    0  503 -0.36836392698E+02  0.30916000251E+02 -0.83952759127E+02  0.96865239708E+02  0.47000000000E+01 0.  1.
<mgrwt>
<rscale>  0 0.14763140E+03</rscale>
<asrwt>0</asrwt>
<pdfrwt beam="1">  1        2 0.23902460E-01 0.15073453E+03</pdfrwt>
<pdfrwt beam="2">  1       -2 0.30965305E-01 0.15073453E+03</pdfrwt>
<totfact> 0.21302705E+03</totfact>
</mgrwt>
</event>
<event>
 8    1  0.2018715E-005  0.1450216E+03  0.7546771E-02  0.1212886E+00
          2   -1    0    0  501    0  0.00000000000E+00  0.00000000000E+00  0.69383579047E+03  0.69383579047E+03  0.00000000000E+00 0. -1.
         -2   -1    0    0    0  501 -0.00000000000E+00 -0.00000000000E+00 -0.27291838551E+02  0.27291838551E+02  0.00000000000E+00 0.  1.
         25    2    1    2    0    0  0.73259870330E+02 -0.62107398747E+01  0.40809856859E+03  0.43310011983E+03  0.12500276088E+03 0.  0.
         23    2    1    2    0    0 -0.73259870330E+02  0.62107398747E+01  0.25844538333E+03  0.28802750918E+03  0.10373161520E+03 0.  0.
          5    1    3    3  502    0  0.90498846776E+02  0.11032235105E+02  0.16362374616E+03  0.18736747793E+03  0.47000000000E+01 0.  1.
         -5    1    3    3    0  502 -0.17238976446E+02 -0.17242974980E+02  0.24447482243E+03  0.24573264190E+03  0.47000000000E+01 0.  1.
          5    1    4    4  503    0 -0.95236299095E+02  0.23296530262E+02  0.18676056232E+03  0.21098407197E+03  0.47000000000E+01 0. -1.
         -5    1    4    4    0  503  0.21976428765E+02 -0.17085790387E+02  0.71684821014E+02  0.77043437217E+02  0.47000000000E+01 0.  1.
<mgrwt>
<rscale>  0 0.14032961E+03</rscale>
<asrwt>0</asrwt>
<pdfrwt beam="1">  1        2 0.10674395E+00 0.14502163E+03</pdfrwt>
<pdfrwt beam="2">  1       -2 0.41987449E-02 0.14502163E+03</pdfrwt>
<totfact> 0.10404872E+04</totfact>
</mgrwt>
</event>
<event>
 8    1  0.2018715E-005  0.1322970E+03  0.7546771E-02  0.1250140E+00
          2   -1    0    0  501    0  0.00000000000E+00  0.00000000000E+00  0.13813128132E+03  0.13813128132E+03  0.00000000000E+00 0. -1.
         -2   -1    0    0    0  501 -0.00000000000E+00 -0.00000000000E+00 -0.89397938498E+02  0.89397938498E+02  0.00000000000E+00 0.  1.
         25    2    1    2    0    0 -0.12708247961E+02 -0.41415075560E+02  0.66077888675E+02  0.14788093687E+03  0.12500310423E+03 0.  0.
         23    2    1    2    0    0  0.12708247961E+02  0.41415075560E+02 -0.17344545851E+02  0.79648282950E+02  0.64546941494E+02 0.  0.
          5    1    3    3  502    0  0.23815362146E+02 -0.60303572477E+02  0.81024195207E+02  0.10387830638E+03  0.47000000000E+01 0. -1.
         -5    1    4    4    0  503 -0.21718743219E+02  0.55189349549E+01  0.71786637294E+01  0.23995534230E+02  0.47000000000E+01 0.  1.
          5    1    4    4  503    0  0.34426991179E+02  0.35896140605E+02 -0.24523209580E+02  0.55652748720E+02  0.47000000000E+01 0. -1.
         -5    1    3    3    0  502 -0.36523610107E+02  0.18888496916E+02 -0.14946306532E+02  0.44002630489E+02  0.47000000000E+01 0. -1.
<mgrwt>
<rscale>  0 0.11582948E+03</rscale>
<asrwt>0</asrwt>
<pdfrwt beam="1">  1        2 0.21250966E-01 0.13229695E+03</pdfrwt>
<pdfrwt beam="2">  1       -2 0.13753529E-01 0.13229695E+03</pdfrwt>
<totfact> 0.96183622E+03</totfact>
</mgrwt>
</event>
<event>
 8    1  0.2018715E-005  0.1282271E+03  0.7546771E-02  0.1238157E+00
         -2   -1    0    0    0  501 -0.00000000000E+00  0.00000000000E+00  0.57836329750E+02  0.57836329750E+02  0.00000000000E+00 0.  1.
          2   -1    0    0  501    0  0.00000000000E+00 -0.00000000000E+00 -0.27968839748E+03  0.27968839748E+03  0.00000000000E+00 0. -1.
         25    2    1    2    0    0 -0.24918041459E+00  0.28552876636E+02 -0.18005286693E+03  0.22104572601E+03  0.12500739675E+03 0.  0.
         23    2    1    2    0    0  0.24918041459E+00 -0.28552876636E+02 -0.41799200801E+02  0.11647900122E+03  0.10490403082E+03 0.  0.
          5    1    4    4  502    0  0.31439712987E+02  0.14563177322E+02 -0.51434948618E+02  0.62194739535E+02  0.47000000000E+01 0. -1.
         -5    1    4    4    0  502 -0.31190532572E+02 -0.43116053959E+02  0.96357478177E+01  0.54284261689E+02  0.47000000000E+01 0.  1.
          5    1    3    3  503    0 -0.47172229849E+02  0.29609345380E+02 -0.29344028364E+02  0.63127605716E+02  0.47000000000E+01 0. -1.
         -5    1    3    3    0  503  0.46923049435E+02 -0.10564687435E+01 -0.15070883857E+03  0.15791812029E+03  0.47000000000E+01 0. -1.
<mgrwt>
<rscale>  0 0.12304466E+03</rscale>
<asrwt>0</asrwt>
<pdfrwt beam="1">  1        2 0.43028984E-01 0.12822706E+03</pdfrwt>
<pdfrwt beam="2">  1       -2 0.88978969E-02 0.12822706E+03</pdfrwt>
<totfact> 0.89009744E+03</totfact>
</mgrwt>
</event>
<event>
 8    1  0.2018715E-005  0.1313040E+03  0.7546771E-02  0.1232160E+00
          1   -1    0    0  501    0  0.00000000000E+00  0.00000000000E+00  0.85980704559E+02  0.85980704559E+02  0.00000000000E+00 0. -1.
         -1   -1    0    0    0  501 -0.00000000000E+00 -0.00000000000E+00 -0.23162474518E+03  0.23162474518E+03  0.00000000000E+00 0.  1.
         25    2    1    2    0    0 -0.40105200717E+02  0.27551444609E+01 -0.15452751105E+03  0.20277944640E+03  0.12499893706E+03 0.  0.
         23    2    1    2    0    0  0.40105200717E+02 -0.27551444609E+01  0.88834704247E+01  0.11482600334E+03  0.10719177697E+03 0.  0.
          5    1    4    4  502    0  0.19966367675E+01  0.46444383654E+02 -0.13317826379E+02  0.48585201768E+02  0.47000000000E+01 0. -1.
         -5    1    3    3    0  503 -0.19897160704E+02 -0.49195678849E+02 -0.13223029572E+03  0.14255894545E+03  0.47000000000E+01 0. -1.
          5    1    3    3  503    0 -0.20208040013E+02  0.51950823309E+02 -0.22297215331E+02  0.60220500954E+02  0.47000000000E+01 0. -1.
         -5    1    4    4    0  502  0.38108563949E+02 -0.49199528115E+02  0.22201296804E+02  0.66240801571E+02  0.47000000000E+01 0.  1.
<mgrwt>
<rscale>  0 0.12687988E+03</rscale>
<asrwt>0</asrwt>
<pdfrwt beam="1">  1        1 0.13227801E-01 0.13130404E+03</pdfrwt>
<pdfrwt beam="2">  1       -1 0.35634576E-01 0.13130404E+03</pdfrwt>
<totfact> 0.32095267E+03</totfact>
</mgrwt>
</event>
<event>
 8    1  0.2018715E-005  0.1666562E+03  0.7546771E-02  0.1184919E+00
         -1   -1    0    0    0  501 -0.00000000000E+00  0.00000000000E+00  0.49699773842E+02  0.49699773842E+02  0.00000000000E+00 0.  1.
          1   -1    0    0  501    0  0.00000000000E+00 -0.00000000000E+00 -0.51885634897E+03  0.51885634897E+03  0.00000000000E+00 0. -1.
         25    2    1    2    0    0 -0.25704718443E+02  0.10718340521E+03 -0.22750663589E+03  0.28201695991E+03  0.12500112560E+03 0.  0.
         23    2    1    2    0    0  0.25704718443E+02 -0.10718340521E+03 -0.24164993923E+03  0.28653916290E+03  0.10752201561E+03 0.  0.
          5    1    3    3  502    0  0.36870725596E+01  0.11282435601E+03 -0.22480776578E+03  0.25160197012E+03  0.47000000000E+01 0. -1.
         -5    1    3    3    0  502 -0.29391791003E+02 -0.56409508035E+01 -0.26988701156E+01  0.30414989795E+02  0.47000000000E+01 0. -1.
          5    1    4    4  503    0  0.84199439741E+01  0.18692921262E+02 -0.68931869765E+02  0.72069504169E+02  0.47000000000E+01 0. -1.
         -5    1    4    4    0  503  0.17284774469E+02 -0.12587632647E+03 -0.17271806947E+03  0.21446965873E+03  0.47000000000E+01 0.  1.
<mgrwt>
<rscale>  0 0.16339268E+03</rscale>
<asrwt>0</asrwt>
<pdfrwt beam="1">  1        1 0.79824057E-01 0.16665622E+03</pdfrwt>
<pdfrwt beam="2">  1       -1 0.76461188E-02 0.16665622E+03</pdfrwt>
<totfact> 0.38786040E+03</totfact>
</mgrwt>
</event>
<event>
 8    1  0.2018715E-005  0.1576009E+03  0.7546771E-02  0.1207078E+00
          1   -1    0    0  501    0  0.00000000000E+00  0.00000000000E+00  0.84585235706E+03  0.84585235706E+03  0.00000000000E+00 0. -1.
         -1   -1    0    0    0  501 -0.00000000000E+00 -0.00000000000E+00 -0.22304436246E+02  0.22304436246E+02  0.00000000000E+00 0.  1.
         25    2    1    2    0    0  0.87680609473E+02 -0.39061982766E+02  0.55966687756E+03  0.58143361668E+03  0.12499723593E+03 0.  0.
         23    2    1    2    0    0 -0.87680609473E+02  0.39061982766E+02  0.26388104325E+03  0.28672317663E+03  0.57993510430E+02 0.  0.
          5    1    3    3  502    0  0.63544874258E+02 -0.72227752051E+02  0.23233626452E+03  0.25150950086E+03  0.47000000000E+01 0. -1.
         -5    1    4    4    0  503 -0.73076844281E+02  0.22509861826E+02  0.24680781349E+03  0.25842427488E+03  0.47000000000E+01 0.  1.
          5    1    4    4  503    0 -0.14603765192E+02  0.16552120939E+02  0.17073229763E+02  0.28298901744E+02  0.47000000000E+01 0. -1.
         -5    1    3    3    0  502  0.24135735215E+02  0.33165769285E+02  0.32733061304E+03  0.32992411582E+03  0.47000000000E+01 0. -1.
<mgrwt>
<rscale>  0 0.14474914E+03</rscale>
<asrwt>0</asrwt>
<pdfrwt beam="1">  1        1 0.13013111E+00 0.15760088E+03</pdfrwt>
<pdfrwt beam="2">  1       -1 0.34314524E-02 0.15760088E+03</pdfrwt>
<totfact> 0.63665420E+03</totfact>
</mgrwt>
</event>
<event>
 8    1  0.2018715E-005  0.1250299E+03  0.7546771E-02  0.1242545E+00
          3   -1    0    0  501    0  0.00000000000E+00  0.00000000000E+00  0.30277532894E+02  0.30277532894E+02  0.00000000000E+00 0. -1.
         -3   -1    0    0    0  501 -0.00000000000E+00 -0.00000000000E+00 -0.47059694224E+03  0.47059694224E+03  0.00000000000E+00 0.  1.
         25    2    1    2    0    0  0.26912393805E+01  0.10571647061E+00 -0.29362467779E+03  0.31913623112E+03  0.12500091463E+03 0.  0.
         23    2    1    2    0    0 -0.26912393805E+01 -0.10571647061E+00 -0.14669473156E+03  0.18173824402E+03  0.10724826864E+03 0.  0.
          5    1    4    4  502    0 -0.16058401500E+01 -0.40060611087E+02 -0.13451094809E+02  0.42549421086E+02  0.47000000000E+01 0. -1.
         -5    1    4    4    0  502 -0.10853992305E+01  0.39954894616E+02 -0.13324363675E+03  0.13918882293E+03  0.47000000000E+01 0.  1.
          5    1    3    3  503    0  0.37165802104E+02  0.56678290407E+01 -0.27803769467E+03  0.28060732490E+03  0.47000000000E+01 0. -1.
         -5    1    3    3    0  503 -0.34474562723E+02 -0.55621125701E+01 -0.15586983118E+02  0.38528906213E+02  0.47000000000E+01 0. -1.
<mgrwt>
<rscale>  0 0.12033509E+03</rscale>
<asrwt>0</asrwt>
<pdfrwt beam="1">  1        3 0.46580823E-02 0.12502993E+03</pdfrwt>
<pdfrwt beam="2">  1       -3 0.72399525E-01 0.12502993E+03</pdfrwt>
<totfact> 0.10745220E+03</totfact>
</mgrwt>
</event>
<event>
 8    1  0.2018715E-005  0.1376212E+03  0.7546771E-02  0.1235117E+00
         -2   -1    0    0    0  501 -0.00000000000E+00  0.00000000000E+00  0.70013190388E+02  0.70013190388E+02  0.00000000000E+00 0.  1.
          2   -1    0    0  501    0  0.00000000000E+00 -0.00000000000E+00 -0.19529585898E+03  0.19529585898E+03  0.00000000000E+00 0. -1.
         25    2    1    2    0    0 -0.57540201688E+02  0.13662232068E+01 -0.93932896572E+02  0.16662228932E+03  0.12500742723E+03 0.  0.
         23    2    1    2    0    0  0.57540201688E+02 -0.13662232068E+01 -0.31349772020E+02  0.98686760050E+02  0.73780261774E+02 0.  0.
          5    1    3    3  502    0 -0.39339653126E+02  0.57083135983E+02 -0.20297375416E+02  0.72388992053E+02  0.47000000000E+01 0.  1.
         -5    1    4    4    0  503  0.57684370323E+02 -0.27806193066E+02 -0.11353164053E+02  0.65204718283E+02  0.47000000000E+01 0.  1.
          5    1    4    4  503    0 -0.14416863514E+00  0.26439969859E+02 -0.19996607966E+02  0.33482041767E+02  0.47000000000E+01 0. -1.
         -5    1    3    3    0  502 -0.18200548562E+02 -0.55716912776E+02 -0.73635521156E+02  0.94233297264E+02  0.47000000000E+01 0.  1.
<mgrwt>
<rscale>  0 0.12496947E+03</rscale>
<asrwt>0</asrwt>
<pdfrwt beam="1">  1        2 0.30045516E-01 0.13762121E+03</pdfrwt>
<pdfrwt beam="2">  1       -2 0.10771260E-01 0.13762121E+03</pdfrwt>
<totfact> 0.97371300E+03</totfact>
</mgrwt>
</event>
<event>
 7    1  0.2018715E-005  0.3037825E+03  0.7546771E-02  0.1086139E+00
          1   -1    0    0  501    0  0.00000000000E+00  0.00000000000E+00  0.61905536100E+03  0.61905536100E+03  0.00000000000E+00 0. -1.
         -1   -1    0    0    0  501 -0.00000000000E+00 -0.00000000000E+00 -0.15664080000E+03  0.15664080000E+03  0.00000000000E+00 0.  1.
         25    2    1    2    0    0 -0.19685944470E+02 -0.27616963502E+03  0.37024799826E+03  0.47892313291E+03  0.12500633305E+03 0.  0.
          5    1    3    3  502    0 -0.69866791406E+02 -0.12839109488E+03  0.20207671319E+03  0.24944484320E+03  0.47000000000E+01 0.  1.
         -5    1    3    3    0  502  0.50180846936E+02 -0.14777854014E+03  0.16817128508E+03  0.22947828972E+03  0.47000000000E+01 0.  1.
          5    1    1    2  503    0 -0.52183007506E+01  0.22013824727E+03  0.65861952357E+02  0.22988685334E+03  0.47000000000E+01 0. -1.
         -5    1    1    2    0  503  0.24904245221E+02  0.56031387757E+02  0.26304610376E+02  0.66886174738E+02  0.47000000000E+01 0.  1.
<mgrwt>
<rscale>  0 0.29821001E+03</rscale>
<asrwt>0</asrwt>
<pdfrwt beam="1">  1        1 0.95239285E-01 0.30378247E+03</pdfrwt>
<pdfrwt beam="2">  1       -1 0.24098585E-01 0.30378247E+03</pdfrwt>
<totfact> 0.50017056E+02</totfact>
</mgrwt>
</event>
<event>
 8    1  0.2018715E-005  0.3668477E+03  0.7546771E-02  0.1056336E+00
         -1   -1    0    0    0  501 -0.00000000000E+00  0.00000000000E+00  0.95298746137E+02  0.95298746137E+02  0.00000000000E+00 0. -1.
          1   -1    0    0  501    0  0.00000000000E+00 -0.00000000000E+00 -0.14468462121E+04  0.14468462121E+04  0.00000000000E+00 0.  1.
         25    2    1    2    0    0 -0.20617962950E+03  0.27647872440E+03 -0.82546469301E+03  0.90331014585E+03  0.12500694191E+03 0.  0.
         23    2    1    2    0    0  0.20617962950E+03 -0.27647872440E+03 -0.52608277299E+03  0.63883481242E+03  0.11133871230E+03 0.  0.
          5    1    3    3  502    0 -0.16299358785E+03  0.11665813419E+03 -0.48031440739E+03  0.52048059512E+03  0.47000000000E+01 0.  1.
         -5    1    4    4    0  503  0.19399969398E+03 -0.24069085023E+03 -0.39091852042E+03  0.49840480160E+03  0.47000000000E+01 0.  1.
          5    1    4    4  503    0  0.12179935518E+02 -0.35787874176E+02 -0.13516425257E+03  0.14043001082E+03  0.47000000000E+01 0. -1.
         -5    1    3    3    0  502 -0.43186041649E+02  0.15982059021E+03 -0.34515028562E+03  0.38282955073E+03  0.47000000000E+01 0.  1.
<mgrwt>
<rscale>  0 0.36573526E+03</rscale>
<asrwt>0</asrwt>
<pdfrwt beam="1">  1        1 0.22259171E+00 0.36684773E+03</pdfrwt>
<pdfrwt beam="2">  1       -1 0.14661347E-01 0.36684773E+03</pdfrwt>
<totfact> 0.25642985E+02</totfact>
</mgrwt>
</event>
<event>
 8    1  0.2018715E-005  0.1647623E+03  0.7546771E-02  0.1187022E+00
          2   -1    0    0  501    0  0.00000000000E+00  0.00000000000E+00  0.23900293634E+03  0.23900293634E+03  0.00000000000E+00 0. -1.
         -2   -1    0    0    0  501 -0.00000000000E+00 -0.00000000000E+00 -0.12127827666E+03  0.12127827666E+03  0.00000000000E+00 0.  1.
         25    2    1    2    0    0  0.10535916158E+03 -0.20562741672E+02 -0.50493153337E+01  0.16483960390E+03  0.12499288041E+03 0.  0.
         23    2    1    2    0    0 -0.10535916158E+03  0.20562741672E+02  0.12277397502E+03  0.19544160911E+03  0.10770605533E+03 0.  0.
          5    1    4    4  502    0 -0.56245905206E+02 -0.39540926368E+02  0.83688540067E+02  0.10841101627E+03  0.47000000000E+01 0. -1.
         -5    1    3    3    0  503  0.48857052393E+02 -0.33264602591E+02 -0.60366641073E+02  0.84615404676E+02  0.47000000000E+01 0. -1.
          5    1    3    3  503    0  0.56502109189E+02  0.12701860920E+02  0.55317325739E+02  0.80224199220E+02  0.47000000000E+01 0. -1.
         -5    1    4    4    0  502 -0.49113256375E+02  0.60103668040E+02  0.39085434953E+02  0.87030592834E+02  0.47000000000E+01 0.  1.
<mgrwt>
<rscale>  0 0.16149203E+03</rscale>
<asrwt>0</asrwt>
<pdfrwt beam="1">  1        2 0.36769682E-01 0.16476225E+03</pdfrwt>
<pdfrwt beam="2">  1       -2 0.18658196E-01 0.16476225E+03</pdfrwt>
<totfact> 0.32346468E+03</totfact>
</mgrwt>
</event>
<event>
 8    1  0.2018715E-005  0.1383910E+03  0.7546771E-02  0.1215687E+00
         -2   -1    0    0    0  501 -0.00000000000E+00  0.00000000000E+00  0.57381111991E+02  0.57381111991E+02  0.00000000000E+00 0.  1.
          2   -1    0    0  501    0  0.00000000000E+00 -0.00000000000E+00 -0.47037065080E+03  0.47037065080E+03  0.00000000000E+00 0. -1.
         25    2    1    2    0    0  0.27579178356E+02  0.52605837056E+02 -0.34961358893E+03  0.37600761814E+03  0.12499632859E+03 0.  0.
         23    2    1    2    0    0 -0.27579178356E+02 -0.52605837056E+02 -0.63375949880E+02  0.15174414466E+03  0.12442583833E+03 0.  0.
          5    1    4    4  502    0 -0.54355565648E+02 -0.48227923691E+02 -0.88404297126E+02  0.11453326980E+03  0.47000000000E+01 0. -1.
         -5    1    3    3    0  503  0.30286206152E+02 -0.24332887531E+02 -0.36428082847E+02  0.53464370553E+02  0.47000000000E+01 0.  1.
          5    1    3    3  503    0 -0.27070277960E+01  0.76938724587E+02 -0.31318550608E+03  0.32254324758E+03  0.47000000000E+01 0.  1.
         -5    1    4    4    0  502  0.26776387292E+02 -0.43779133647E+01  0.25028347245E+02  0.37210874858E+02  0.47000000000E+01 0.  1.
<mgrwt>
<rscale>  0 0.13826205E+03</rscale>
<asrwt>0</asrwt>
<pdfrwt beam="1">  1        2 0.72364717E-01 0.13839099E+03</pdfrwt>
<pdfrwt beam="2">  1       -2 0.88278632E-02 0.13839099E+03</pdfrwt>
<totfact> 0.52020955E+03</totfact>
</mgrwt>
</event>
<event>
 8    1  0.2018715E-005  0.1313230E+03  0.7546771E-02  0.1228518E+00
         -2   -1    0    0    0  501 -0.00000000000E+00  0.00000000000E+00  0.22479106109E+02  0.22479106109E+02  0.00000000000E+00 0.  1.
          2   -1    0    0  501    0  0.00000000000E+00 -0.00000000000E+00 -0.73196360942E+03  0.73196360942E+03  0.00000000000E+00 0. -1.
         25    2    1    2    0    0  0.40254601309E+02 -0.11897816211E+01 -0.32038282798E+03  0.34625261814E+03  0.12499548232E+03 0.  0.
         23    2    1    2    0    0 -0.40254601309E+02  0.11897816211E+01 -0.38910167533E+03  0.40819009739E+03  0.11660700387E+03 0.  0.
          5    1    4    4  502    0 -0.79300514844E+02 -0.14807563629E+02 -0.24714889304E+03  0.26002403913E+03  0.47000000000E+01 0. -1.
         -5    1    3    3    0  503  0.73839341734E+02 -0.39477767154E+01 -0.29401483200E+03  0.30320726371E+03  0.47000000000E+01 0.  1.
          5    1    3    3  503    0 -0.33584740425E+02  0.27579950943E+01 -0.26367995975E+02  0.43045354431E+02  0.47000000000E+01 0.  1.
         -5    1    4    4    0  502  0.39045913535E+02  0.15997345251E+02 -0.14195278229E+03  0.14816605826E+03  0.47000000000E+01 0.  1.
<mgrwt>
<rscale>  0 0.12928672E+03</rscale>
<asrwt>0</asrwt>
<pdfrwt beam="1">  1        2 0.11260978E+00 0.13132296E+03</pdfrwt>
<pdfrwt beam="2">  1       -2 0.34583242E-02 0.13132296E+03</pdfrwt>
<totfact> 0.12931484E+04</totfact>
</mgrwt>
</event>
<event>
 8    1  0.2018715E-005  0.1681334E+03  0.7546771E-02  0.1190560E+00
         -1   -1    0    0    0  501 -0.00000000000E+00  0.00000000000E+00  0.10729783283E+03  0.10729783283E+03  0.00000000000E+00 0.  1.
          1   -1    0    0  501    0  0.00000000000E+00 -0.00000000000E+00 -0.28704860985E+03  0.28704860985E+03  0.00000000000E+00 0. -1.
         25    2    1    2    0    0 -0.11028177117E+03  0.21936598153E+02  0.36756511613E+01  0.16817354603E+03  0.12500219111E+03 0.  0.
         23    2    1    2    0    0  0.11028177117E+03 -0.21936598153E+02 -0.18342642818E+03  0.22617289665E+03  0.69754148499E+02 0.  0.
          5    1    3    3  502    0 -0.13699824554E+03  0.78753101646E+01 -0.70422243462E+00  0.13730668491E+03  0.47000000000E+01 0.  1.
         -5    1    3    3    0  502  0.26716474373E+02  0.14061287988E+02  0.43798735959E+01  0.30866861122E+02  0.47000000000E+01 0.  1.
          5    1    4    4  503    0  0.49115603724E+02  0.10341921016E+02 -0.12750232337E+03  0.13710663851E+03  0.47000000000E+01 0. -1.
         -5    1    4    4    0  503  0.61166167442E+02 -0.32278519169E+02 -0.55924104809E+02  0.89066258134E+02  0.47000000000E+01 0.  1.
<mgrwt>
<rscale>  0 0.15836087E+03</rscale>
<asrwt>0</asrwt>
<pdfrwt beam="1">  1        1 0.44161324E-01 0.16813337E+03</pdfrwt>
<pdfrwt beam="2">  1       -1 0.16507359E-01 0.16813337E+03</pdfrwt>
<totfact> 0.25052486E+03</totfact>
</mgrwt>
</event>
<event>
 7    1  0.2018715E-005  0.3928478E+03  0.7546771E-02  0.1049348E+00
         -1   -1    0    0    0  501 -0.00000000000E+00  0.00000000000E+00  0.73021698970E+03  0.73021698970E+03  0.00000000000E+00 0.  1.
          1   -1    0    0  501    0  0.00000000000E+00 -0.00000000000E+00 -0.34733312722E+03  0.34733312722E+03  0.00000000000E+00 0. -1.
         25    2    1    2    0    0 -0.33679776901E+03 -0.20551058685E+02  0.54458172786E+03  0.65272594616E+03  0.12500727675E+03 0.  0.
          5    1    3    3  502    0 -0.99106789395E+02  0.27267054584E+02  0.86533349539E+02  0.13444611765E+03  0.47000000000E+01 0. -1.
         -5    1    3    3    0  502 -0.23769097962E+03 -0.47818113269E+02  0.45804837832E+03  0.51827982850E+03  0.47000000000E+01 0. -1.
          5    1    1    2  503    0  0.20342130726E+03  0.95866826506E+02 -0.15159949369E+03  0.27124743899E+03  0.47000000000E+01 0. -1.
         -5    1    1    2    0  503  0.13337646175E+03 -0.75315767821E+02 -0.10098371697E+02  0.15357673177E+03  0.47000000000E+01 0.  1.
<mgrwt>
<rscale>  0 0.38432122E+03</rscale>
<asrwt>0</asrwt>
<pdfrwt beam="1">  1        1 0.53435866E-01 0.39284778E+03</pdfrwt>
<pdfrwt beam="2">  1       -1 0.11234108E+00 0.39284778E+03</pdfrwt>
<totfact> 0.55622328E+01</totfact>
</mgrwt>
</event>
<event>
 7    1  0.2018715E-005  0.1254809E+03  0.7546771E-02  0.1276740E+00
          2   -1    0    0  501    0  0.00000000000E+00  0.00000000000E+00  0.10016575181E+03  0.10016575181E+03  0.00000000000E+00 0. -1.
         -2   -1    0    0    0  501 -0.00000000000E+00 -0.00000000000E+00 -0.89267677722E+02  0.89267677722E+02  0.00000000000E+00 0.  1.
         25    2    1    2    0    0  0.70547713569E+01 -0.82872940198E+01  0.34816387324E+02  0.13022148932E+03  0.12500802539E+03 0.  0.
          5    1    3    3  502    0 -0.28711580339E+02  0.47349497928E+02  0.31387484598E+02  0.63824712995E+02  0.47000000000E+01 0. -1.
         -5    1    3    3    0  502  0.35766351696E+02 -0.55636791948E+02  0.34289027261E+01  0.66396776320E+02  0.47000000000E+01 0. -1.
          5    1    1    2  503    0  0.93351411865E+01  0.22797270991E+02  0.17639929518E+01  0.25140845188E+02  0.47000000000E+01 0. -1.
         -5    1    1    2    0  503 -0.16389912543E+02 -0.14509976971E+02 -0.25682306191E+02  0.34071095024E+02  0.47000000000E+01 0.  1.
<mgrwt>
<rscale>  0 0.10171035E+03</rscale>
<asrwt>0</asrwt>
<pdfrwt beam="1">  1        2 0.15410116E-01 0.12548090E+03</pdfrwt>
<pdfrwt beam="2">  1       -2 0.13733489E-01 0.12548090E+03</pdfrwt>
<totfact> 0.13855289E+04</totfact>
</mgrwt>
</event>
<event>
 8    1  0.2018715E-005  0.1283993E+03  0.7546771E-02  0.1229882E+00
         -2   -1    0    0    0  501 -0.00000000000E+00  0.00000000000E+00  0.46214060190E+02  0.46214060190E+02  0.00000000000E+00 0. -1.
          2   -1    0    0  501    0  0.00000000000E+00 -0.00000000000E+00 -0.40206158559E+03  0.40206158559E+03  0.00000000000E+00 0.  1.
         25    2    1    2    0    0  0.15096380718E+02 -0.25158303836E+02 -0.25341754769E+03  0.28408946930E+03  0.12500212848E+03 0.  0.
         23    2    1    2    0    0 -0.15096380718E+02  0.25158303836E+02 -0.10242997771E+03  0.16418617648E+03  0.12491740972E+03 0.  0.
          5    1    4    4  502    0  0.39848189230E+01 -0.49170451389E+02 -0.54144024567E+02  0.73398075369E+02  0.47000000000E+01 0. -1.
         -5    1    4    4    0  502 -0.19081199641E+02  0.74328755225E+02 -0.48285953143E+02  0.90788101114E+02  0.47000000000E+01 0.  1.
          5    1    3    3  503    0  0.51622359967E+02 -0.50705659877E+02 -0.20801193247E+03  0.22028841559E+03  0.47000000000E+01 0.  1.
         -5    1    3    3    0  503 -0.36525979249E+02  0.25547356041E+02 -0.45405615219E+02  0.63801053707E+02  0.47000000000E+01 0.  1.
<mgrwt>
<rscale>  0 0.12837865E+03</rscale>
<asrwt>0</asrwt>
<pdfrwt beam="1">  1        2 0.61855630E-01 0.12839927E+03</pdfrwt>
<pdfrwt beam="2">  1       -2 0.71098553E-02 0.12839927E+03</pdfrwt>
<totfact> 0.85625490E+03</totfact>
</mgrwt>
</event>
<event>
 8    1  0.2018715E-005  0.1250382E+03  0.7546771E-02  0.1261583E+00
          1   -1    0    0  501    0  0.00000000000E+00  0.00000000000E+00  0.59291858842E+03  0.59291858842E+03  0.00000000000E+00 0. -1.
         -1   -1    0    0    0  501 -0.00000000000E+00 -0.00000000000E+00 -0.21087116814E+02  0.21087116814E+02  0.00000000000E+00 0.  1.
         25    2    1    2    0    0  0.17341234935E+01  0.24042777875E+01  0.20678916520E+03  0.24165326038E+03  0.12500300666E+03 0.  0.
         23    2    1    2    0    0 -0.17341234935E+01 -0.24042777875E+01  0.36504230640E+03  0.37235244485E+03  0.73359866306E+02 0.  0.
          5    1    3    3  502    0  0.40292852745E+02 -0.46440738439E+01  0.19671760081E+03  0.20091039265E+03  0.47000000000E+01 0. -1.
         -5    1    3    3    0  502 -0.38558729252E+02  0.70483516314E+01  0.10071564389E+02  0.40742867737E+02  0.47000000000E+01 0. -1.
          5    1    4    4  503    0  0.31575468977E+02  0.12916508416E+02  0.13308613569E+03  0.13746947277E+03  0.47000000000E+01 0. -1.
         -5    1    4    4    0  503 -0.33309592471E+02 -0.15320786204E+02  0.23195617071E+03  0.23488297208E+03  0.47000000000E+01 0.  1.
<mgrwt>
<rscale>  0 0.10945488E+03</rscale>
<asrwt>0</asrwt>
<pdfrwt beam="1">  1        1 0.91218231E-01 0.12503815E+03</pdfrwt>
<pdfrwt beam="2">  1       -1 0.32441723E-02 0.12503815E+03</pdfrwt>
<totfact> 0.11378258E+04</totfact>
</mgrwt>
</event>
<event>
 8    1  0.2018715E-005  0.1531924E+03  0.7546771E-02  0.1211769E+00
          1   -1    0    0  501    0  0.00000000000E+00  0.00000000000E+00  0.48950455720E+02  0.48950455720E+02  0.00000000000E+00 0. -1.
         -1   -1    0    0    0  501 -0.00000000000E+00 -0.00000000000E+00 -0.36253933143E+03  0.36253933143E+03  0.00000000000E+00 0.  1.
         25    2    1    2    0    0 -0.21595344053E+02  0.85888795735E+02 -0.15241978851E+03  0.21610110912E+03  0.12499861326E+03 0.  0.
         23    2    1    2    0    0  0.21595344053E+02 -0.85888795735E+02 -0.16116908720E+03  0.19538867802E+03  0.66015276371E+02 0.  0.
          5    1    4    4  502    0  0.23632843432E+02 -0.61227295444E+01 -0.15692242143E+02  0.29399584508E+02  0.47000000000E+01 0. -1.
         -5    1    4    4    0  502 -0.20374993797E+01 -0.79766066191E+02 -0.14547684506E+03  0.16598909352E+03  0.47000000000E+01 0.  1.
          5    1    3    3  503    0  0.23091510218E+01 -0.22549118624E+02  0.47242388061E+01  0.23626327719E+02  0.47000000000E+01 0.  1.
         -5    1    3    3    0  503 -0.23904495075E+02  0.10843791436E+03 -0.15714402732E+03  0.19247478140E+03  0.47000000000E+01 0.  1.
<mgrwt>
<rscale>  0 0.14116545E+03</rscale>
<asrwt>0</asrwt>
<pdfrwt beam="1">  1        1 0.75308396E-02 0.15319235E+03</pdfrwt>
<pdfrwt beam="2">  1       -1 0.55775280E-01 0.15319235E+03</pdfrwt>
<totfact> 0.30636697E+03</totfact>
</mgrwt>
</event>
<event>
 8    1  0.2018715E-005  0.1657710E+03  0.7546771E-02  0.1194340E+00
         -2   -1    0    0    0  501 -0.00000000000E+00  0.00000000000E+00  0.13121342758E+03  0.13121342758E+03  0.00000000000E+00 0.  1.
          2   -1    0    0  501    0  0.00000000000E+00 -0.00000000000E+00 -0.16483329912E+03  0.16483329912E+03  0.00000000000E+00 0. -1.
         25    2    1    2    0    0  0.12809845923E+02 -0.10812611276E+03 -0.32892579155E+02  0.16900279150E+03  0.12499869342E+03 0.  0.
         23    2    1    2    0    0 -0.12809845923E+02  0.10812611276E+03 -0.72729238155E+00  0.12704393520E+03  0.65454442959E+02 0.  0.
          5    1    3    3  502    0  0.54986225916E+01 -0.28481815768E+02 -0.73518515769E+02  0.79173927784E+02  0.47000000000E+01 0. -1.
         -5    1    3    3    0  502  0.73112233317E+01 -0.79644296994E+02  0.40625936615E+02  0.89828863714E+02  0.47000000000E+01 0. -1.
          5    1    4    4  503    0  0.11141405272E+02  0.31485513954E+02 -0.26161823219E+02  0.42684886020E+02  0.47000000000E+01 0. -1.
         -5    1    4    4    0  503 -0.23951251196E+02  0.76640598809E+02  0.25434530837E+02  0.84359049180E+02  0.47000000000E+01 0.  1.
<mgrwt>
<rscale>  0 0.15510225E+03</rscale>
<asrwt>0</asrwt>
<pdfrwt beam="1">  1        2 0.25358969E-01 0.16577099E+03</pdfrwt>
<pdfrwt beam="2">  1       -2 0.20186681E-01 0.16577099E+03</pdfrwt>
<totfact> 0.42441453E+03</totfact>
</mgrwt>
</event>
<event>
 8    1  0.2018715E-005  0.1263598E+03  0.7546771E-02  0.1267125E+00
          2   -1    0    0  501    0  0.00000000000E+00  0.00000000000E+00  0.29367636528E+02  0.29367636528E+02  0.00000000000E+00 0. -1.
         -2   -1    0    0    0  501 -0.00000000000E+00 -0.00000000000E+00 -0.33539127277E+03  0.33539127277E+03  0.00000000000E+00 0.  1.
         25    2    1    2    0    0 -0.39853310090E+01 -0.17993099865E+02 -0.14970307865E+03  0.19590252436E+03  0.12500861086E+03 0.  0.
         23    2    1    2    0    0  0.39853310090E+01  0.17993099865E+02 -0.15632055760E+03  0.16885638493E+03  0.61128777997E+02 0.  0.
          5    1    4    4  502    0  0.21843859477E+02  0.31251753087E+02 -0.73021978954E+02  0.82511366964E+02  0.47000000000E+01 0. -1.
         -5    1    3    3    0  503 -0.60889861917E+02 -0.12109002958E+02 -0.10902417280E+03  0.12554904815E+03  0.47000000000E+01 0.  1.
          5    1    3    3  503    0  0.56904530908E+02 -0.58840969072E+01 -0.40678905842E+02  0.70353476210E+02  0.47000000000E+01 0. -1.
         -5    1    4    4    0  502 -0.17858528468E+02 -0.13258653221E+02 -0.83298578641E+02  0.86345017968E+02  0.47000000000E+01 0.  1.
<mgrwt>
<rscale>  0 0.10653460E+03</rscale>
<asrwt>0</asrwt>
<pdfrwt beam="1">  1        2 0.45180977E-02 0.12635975E+03</pdfrwt>
<pdfrwt beam="2">  1       -2 0.51598660E-01 0.12635975E+03</pdfrwt>
<totfact> 0.60925872E+03</totfact>
</mgrwt>
</event>
<event>
 8    1  0.2018715E-005  0.1987832E+03  0.7546771E-02  0.1156542E+00
         -2   -1    0    0    0  501 -0.00000000000E+00  0.00000000000E+00  0.64655436852E+02  0.64655436852E+02  0.00000000000E+00 0.  1.
          2   -1    0    0  501    0  0.00000000000E+00 -0.00000000000E+00 -0.59425419284E+03  0.59425419284E+03  0.00000000000E+00 0. -1.
         25    2    1    2    0    0 -0.43206347807E+02 -0.14840385860E+03 -0.38395798266E+03  0.43236382371E+03  0.12499699943E+03 0.  0.
         23    2    1    2    0    0  0.43206347807E+02  0.14840385860E+03 -0.14564077333E+03  0.22654580598E+03  0.78875050628E+02 0.  0.
          5    1    3    3  502    0  0.34764818692E+02 -0.22363825468E+02 -0.39598907225E+02  0.57436023206E+02  0.47000000000E+01 0.  1.
         -5    1    4    4    0  503  0.19547450414E+02  0.10236300715E+03 -0.45685000683E+02  0.11388370093E+03  0.47000000000E+01 0.  1.
          5    1    4    4  503    0  0.23658897393E+02  0.46040851454E+02 -0.99955772645E+02  0.11266210505E+03  0.47000000000E+01 0. -1.
         -5    1    3    3    0  502 -0.77971166499E+02 -0.12604003314E+03 -0.34435907543E+03  0.37492780050E+03  0.47000000000E+01 0.  1.
<mgrwt>
<rscale>  0 0.19214395E+03</rscale>
<asrwt>0</asrwt>
<pdfrwt beam="1">  1        2 0.91423719E-01 0.19878316E+03</pdfrwt>
<pdfrwt beam="2">  1       -2 0.99469907E-02 0.19878316E+03</pdfrwt>
<totfact> 0.33722407E+03</totfact>
</mgrwt>
</event>
<event>
 8    1  0.2018715E-005  0.1279822E+03  0.7546771E-02  0.1237929E+00
         -1   -1    0    0    0  501 -0.00000000000E+00  0.00000000000E+00  0.29063975930E+02  0.29063975930E+02  0.00000000000E+00 0.  1.
          1   -1    0    0  501    0  0.00000000000E+00 -0.00000000000E+00 -0.51465586857E+03  0.51465586857E+03  0.00000000000E+00 0. -1.
         25    2    1    2    0    0 -0.26390651235E+02 -0.75743303768E+01 -0.19695962878E+03  0.23488836728E+03  0.12500245101E+03 0.  0.
         23    2    1    2    0    0  0.26390651235E+02  0.75743303768E+01 -0.28863226386E+03  0.30883147722E+03  0.10636945346E+03 0.  0.
          5    1    3    3  502    0  0.36815814661E+02 -0.29606122452E+02 -0.33253269678E+02  0.57963752812E+02  0.47000000000E+01 0. -1.
         -5    1    3    3    0  502 -0.63206465896E+02  0.22031792075E+02 -0.16370635910E+03  0.17692461447E+03  0.47000000000E+01 0. -1.
          5    1    4    4  503    0  0.39851894404E+02 -0.16452141764E+02 -0.27377341059E+03  0.27718733161E+03  0.47000000000E+01 0. -1.
         -5    1    4    4    0  503 -0.13461243169E+02  0.24026472140E+02 -0.14858853263E+02  0.31644145611E+02  0.47000000000E+01 0.  1.
<mgrwt>
<rscale>  0 0.12318788E+03</rscale>
<asrwt>0</asrwt>
<pdfrwt beam="1">  1        1 0.79177822E-01 0.12798222E+03</pdfrwt>
<pdfrwt beam="2">  1       -1 0.44713811E-02 0.12798222E+03</pdfrwt>
<totfact> 0.86024816E+03</totfact>
</mgrwt>
</event>
<event>
 8    1  0.2018715E-005  0.1683334E+03  0.7546771E-02  0.1182801E+00
         -1   -1    0    0    0  501 -0.00000000000E+00  0.00000000000E+00  0.30210234823E+02  0.30210234823E+02  0.00000000000E+00 0. -1.
          1   -1    0    0  501    0  0.00000000000E+00 -0.00000000000E+00 -0.11985080091E+04  0.11985080091E+04  0.00000000000E+00 0.  1.
         25    2    1    2    0    0  0.83424553309E+02 -0.75844057928E+02 -0.91895530378E+03  0.93424567832E+03  0.12499663952E+03 0.  0.
         23    2    1    2    0    0 -0.83424553309E+02  0.75844057928E+02 -0.24934247054E+03  0.29447256565E+03  0.10876785870E+03 0.  0.
          5    1    3    3  502    0 -0.32180363180E+02 -0.23040032996E+02 -0.17347920518E+03  0.17799871776E+03  0.47000000000E+01 0.  1.
         -5    1    4    4    0  503 -0.41250040471E+02 -0.48148435286E+01 -0.16528518304E+03  0.17048762504E+03  0.47000000000E+01 0.  1.
          5    1    4    4  503    0 -0.42174512837E+02  0.80658901457E+02 -0.84057287497E+02  0.12398494061E+03  0.47000000000E+01 0. -1.
         -5    1    3    3    0  502  0.11560491649E+03 -0.52804024932E+02 -0.74547609860E+03  0.75624696056E+03  0.47000000000E+01 0.  1.
<mgrwt>
<rscale>  0 0.16533600E+03</rscale>
<asrwt>0</asrwt>
<pdfrwt beam="1">  1        1 0.18438586E+00 0.16833341E+03</pdfrwt>
<pdfrwt beam="2">  1       -1 0.46477280E-02 0.16833341E+03</pdfrwt>
<totfact> 0.22452029E+03</totfact>
</mgrwt>
</event>
<event>
 8    1  0.2018715E-005  0.1385562E+03  0.7546771E-02  0.1232865E+00
          3   -1    0    0  501    0  0.00000000000E+00  0.00000000000E+00  0.44176944038E+03  0.44176944038E+03  0.00000000000E+00 0. -1.
         -3   -1    0    0    0  501 -0.00000000000E+00 -0.00000000000E+00 -0.40669193423E+02  0.40669193423E+02  0.00000000000E+00 0.  1.
         25    2    1    2    0    0  0.59730911779E+02 -0.23250733058E+01  0.11311541171E+03  0.17886561759E+03  0.12499849999E+03 0.  0.
         23    2    1    2    0    0 -0.59730911779E+02  0.23250733058E+01  0.28798483524E+03  0.30357301621E+03  0.75153995596E+02 0.  0.
          5    1    3    3  502    0  0.28537133270E+02  0.59768015012E+02  0.38309724757E+02  0.76657084504E+02  0.47000000000E+01 0. -1.
         -5    1    4    4    0  503 -0.37615192432E+02  0.34969375612E+02  0.11414429329E+03  0.12525481876E+03  0.47000000000E+01 0.  1.
          5    1    4    4  503    0 -0.22115719347E+02 -0.32644302307E+02  0.17384054195E+03  0.17831819744E+03  0.47000000000E+01 0. -1.
         -5    1    3    3    0  502  0.31193778510E+02 -0.62093088318E+02  0.74805686958E+02  0.10220853309E+03  0.47000000000E+01 0. -1.
<mgrwt>
<rscale>  0 0.12642079E+03</rscale>
<asrwt>0</asrwt>
<pdfrwt beam="1">  1        3 0.67964526E-01 0.13855617E+03</pdfrwt>
<pdfrwt beam="2">  1       -3 0.62567993E-02 0.13855617E+03</pdfrwt>
<totfact> 0.78241732E+02</totfact>
</mgrwt>
</event>
<event>
 8    1  0.2018715E-005  0.1427159E+03  0.7546771E-02  0.1229574E+00
         -1   -1    0    0    0  501 -0.00000000000E+00  0.00000000000E+00  0.11152791991E+02  0.11152791991E+02  0.00000000000E+00 0.  1.
          1   -1    0    0  501    0  0.00000000000E+00 -0.00000000000E+00 -0.12570350657E+04  0.12570350657E+04  0.00000000000E+00 0. -1.
         25    2    1    2    0    0 -0.13033523163E+02  0.67626502066E+02 -0.73803348586E+03  0.75170555974E+03  0.12499842309E+03 0.  0.
         23    2    1    2    0    0  0.13033523163E+02 -0.67626502066E+02 -0.50784878788E+03  0.51648229798E+03  0.64034024371E+02 0.  0.
          5    1    4    4  502    0  0.31539750928E+02 -0.22374115069E+02 -0.31824576188E+03  0.32062097852E+03  0.47000000000E+01 0. -1.
         -5    1    4    4    0  502 -0.18506227765E+02 -0.45252386997E+02 -0.18960302599E+03  0.19586131946E+03  0.47000000000E+01 0.  1.
          5    1    3    3  503    0 -0.33078308274E+02  0.99378528533E+02 -0.54887901483E+03  0.55880276425E+03  0.47000000000E+01 0. -1.
         -5    1    3    3    0  503  0.20044785111E+02 -0.31752026467E+02 -0.18915447103E+03  0.19290279549E+03  0.47000000000E+01 0. -1.
<mgrwt>
<rscale>  0 0.12858275E+03</rscale>
<asrwt>0</asrwt>
<pdfrwt beam="1">  1        1 0.19339007E+00 0.14271588E+03</pdfrwt>
<pdfrwt beam="2">  1       -1 0.17158136E-02 0.14271588E+03</pdfrwt>
<totfact> 0.87288196E+03</totfact>
</mgrwt>
</event>
<event>
 8    1  0.2018715E-005  0.4030766E+03  0.7546771E-02  0.1043234E+00
          3   -1    0    0  501    0  0.00000000000E+00  0.00000000000E+00  0.30276020971E+03  0.30276020971E+03  0.00000000000E+00 0. -1.
         -3   -1    0    0    0  501 -0.00000000000E+00 -0.00000000000E+00 -0.53209699642E+03  0.53209699642E+03  0.00000000000E+00 0.  1.
         25    2    1    2    0    0 -0.32183841692E+03  0.20799905840E+03 -0.14868823590E+03  0.42962646837E+03  0.12500854342E+03 0.  0.
         23    2    1    2    0    0  0.32183841692E+03 -0.20799905840E+03 -0.80648550806E+02  0.40523073776E+03  0.10423141168E+03 0.  0.
          5    1    3    3  502    0 -0.10547596480E+03  0.23023101427E+02  0.81433138639E+00  0.10806477449E+03  0.47000000000E+01 0. -1.
         -5    1    3    3    0  502 -0.21636245212E+03  0.18497595697E+03 -0.14950256729E+03  0.32156169388E+03  0.47000000000E+01 0. -1.
          5    1    4    4  503    0  0.24626650780E+03 -0.13700211171E+03 -0.14652274599E+02  0.28222960622E+03  0.47000000000E+01 0. -1.
         -5    1    4    4    0  503  0.75571909114E+02 -0.70996946692E+02 -0.65996276206E+02  0.12300113154E+03  0.47000000000E+01 0.  1.
<mgrwt>
<rscale>  0 0.40158020E+03</rscale>
<asrwt>0</asrwt>
<pdfrwt beam="1">  1        3 0.46578495E-01 0.40307656E+03</pdfrwt>
<pdfrwt beam="2">  1       -3 0.81861075E-01 0.40307656E+03</pdfrwt>
<totfact> 0.16412635E+01</totfact>
</mgrwt>
</event>
<event>
 8    1  0.2018715E-005  0.2543927E+03  0.7546771E-02  0.1113729E+00
         -2   -1    0    0    0  501 -0.00000000000E+00  0.00000000000E+00  0.83706992989E+03  0.83706992989E+03  0.00000000000E+00 0. -1.
          2   -1    0    0  501    0  0.00000000000E+00 -0.00000000000E+00 -0.91162929524E+02  0.91162929524E+02  0.00000000000E+00 0.  1.
         25    2    1    2    0    0  0.27792261152E+02  0.21981330409E+03  0.60035490600E+03  0.65202889429E+03  0.12500146954E+03 0.  0.
         23    2    1    2    0    0 -0.27792261152E+02 -0.21981330409E+03  0.14555209436E+03  0.27620396513E+03  0.77543018669E+02 0.  0.
          5    1    4    4  502    0  0.12251489144E+02 -0.80033757022E+02  0.88223968716E+02  0.11983763977E+03  0.47000000000E+01 0. -1.
         -5    1    4    4    0  502 -0.40043750296E+02 -0.13977954707E+03  0.57328125645E+02  0.15636632536E+03  0.47000000000E+01 0.  1.
          5    1    3    3  503    0  0.22231954606E+02 -0.50934856719E+01  0.11098754953E+03  0.11340427485E+03  0.47000000000E+01 0. -1.
         -5    1    3    3    0  503  0.55603065464E+01  0.22490678976E+03  0.48936735647E+03  0.53862461944E+03  0.47000000000E+01 0. -1.
<mgrwt>
<rscale>  0 0.24933064E+03</rscale>
<asrwt>0</asrwt>
<pdfrwt beam="1">  1        2 0.14025067E-01 0.25439274E+03</pdfrwt>
<pdfrwt beam="2">  1       -2 0.12877998E+00 0.25439274E+03</pdfrwt>
<totfact> 0.19770846E+02</totfact>
</mgrwt>
</event>
<event>
 7    1  0.2018715E-005  0.3915109E+03  0.7546771E-02  0.1046759E+00
          1   -1    0    0  501    0  0.00000000000E+00  0.00000000000E+00  0.62913193251E+03  0.62913193251E+03  0.00000000000E+00 0. -1.
         -1   -1    0    0    0  501 -0.00000000000E+00 -0.00000000000E+00 -0.60909621910E+02  0.60909621910E+02  0.00000000000E+00 0.  1.
         25    2    1    2    0    0  0.54679738738E+00  0.35359437661E+01  0.19558389626E+03  0.23214951716E+03  0.12501014341E+03 0.  0.
          5    1    1    2  502    0  0.42652648640E+02  0.51372951840E+02  0.38148420915E+03  0.38731217441E+03  0.47000000000E+01 0. -1.
         -5    1    3    3    0  503  0.24535362142E+02  0.52950475560E+02  0.51853638897E+02  0.78208866021E+02  0.47000000000E+01 0.  1.
          5    1    3    3  503    0 -0.23988564755E+02 -0.49414531794E+02  0.14373025737E+03  0.15394065114E+03  0.47000000000E+01 0.  1.
         -5    1    1    2    0  502 -0.43199446027E+02 -0.54908895606E+02 -0.88457948107E+01  0.70579862848E+02  0.47000000000E+01 0.  1.
<mgrwt>
<rscale>  0 0.39151086E+03</rscale>
<asrwt>0</asrwt>
<pdfrwt beam="1">  1        1 0.96789524E-01 0.39151086E+03</pdfrwt>
<pdfrwt beam="2">  1       -1 0.93707115E-02 0.39151086E+03</pdfrwt>
<totfact> 0.22261942E+03</totfact>
</mgrwt>
</event>
<event>
 8    1  0.2018715E-005  0.1314969E+03  0.7546771E-02  0.1251759E+00
         -1   -1    0    0    0  501 -0.00000000000E+00  0.00000000000E+00  0.28854772384E+02  0.28854772384E+02  0.00000000000E+00 0.  1.
          1   -1    0    0  501    0  0.00000000000E+00 -0.00000000000E+00 -0.39126409329E+03  0.39126409329E+03  0.00000000000E+00 0. -1.
         25    2    1    2    0    0  0.20795567165E+02  0.35082605914E+02 -0.26792134206E+03  0.29845148561E+03  0.12501279487E+03 0.  0.
         23    2    1    2    0    0 -0.20795567165E+02 -0.35082605914E+02 -0.94487978849E+02  0.12166738007E+03  0.64897830271E+02 0.  0.
          5    1    4    4  502    0  0.13755192422E+02 -0.15331087472E+02 -0.73406252572E+02  0.76385963882E+02  0.47000000000E+01 0. -1.
         -5    1    4    4    0  502 -0.34550759587E+02 -0.19751518443E+02 -0.21081726277E+02  0.45281416184E+02  0.47000000000E+01 0.  1.
          5    1    3    3  503    0  0.49940702703E+02  0.68176447506E+02 -0.20183448852E+03  0.21886377621E+03  0.47000000000E+01 0.  1.
         -5    1    3    3    0  503 -0.29145135538E+02 -0.33093841591E+02 -0.66086853540E+02  0.79587709400E+02  0.47000000000E+01 0.  1.
<mgrwt>
<rscale>  0 0.11489800E+03</rscale>
<asrwt>0</asrwt>
<pdfrwt beam="1">  1        1 0.60194481E-01 0.13149693E+03</pdfrwt>
<pdfrwt beam="2">  1       -1 0.44391954E-02 0.13149693E+03</pdfrwt>
<totfact> 0.12371576E+04</totfact>
</mgrwt>
</event>
<event>
 7    1  0.2018715E-005  0.2058015E+03  0.7546771E-02  0.1154785E+00
         -4   -1    0    0    0  501 -0.00000000000E+00  0.00000000000E+00  0.26930940777E+02  0.26930940777E+02  0.00000000000E+00 0.  1.
          4   -1    0    0  501    0  0.00000000000E+00 -0.00000000000E+00 -0.17087283503E+04  0.17087283503E+04  0.00000000000E+00 0. -1.
         25    2    1    2    0    0  0.68021043546E+02 -0.79368013980E+02 -0.32734818260E+03  0.36566404519E+03  0.12500886883E+03 0.  0.
          5    1    3    3  502    0  0.42488110170E+02  0.28761520598E+02 -0.94834945833E+02  0.10792692678E+03  0.47000000000E+01 0. -1.
         -5    1    1    2    0  503  0.60485241161E+02  0.26711331406E+02 -0.39157651561E+03  0.39714760128E+03  0.47000000000E+01 0.  1.
          5    1    1    2  503    0 -0.12850628471E+03  0.52656682574E+02 -0.96287271134E+03  0.97284764464E+03  0.47000000000E+01 0. -1.
         -5    1    3    3    0  502  0.25532933376E+02 -0.10812953458E+03 -0.23251323676E+03  0.25773711841E+03  0.47000000000E+01 0. -1.
<mgrwt>
<rscale>  0 0.19413390E+03</rscale>
<asrwt>0</asrwt>
<pdfrwt beam="1">  1        4 0.26288126E+00 0.20580152E+03</pdfrwt>
<pdfrwt beam="2">  1       -4 0.41432220E-02 0.20580152E+03</pdfrwt>
<totfact> 0.35124005E+01</totfact>
</mgrwt>
</event>
<event>
 8    1  0.2018715E-005  0.1428959E+03  0.7546771E-02  0.1230217E+00
          1   -1    0    0  501    0  0.00000000000E+00  0.00000000000E+00  0.56120817220E+03  0.56120817220E+03  0.00000000000E+00 0. -1.
         -1   -1    0    0    0  501 -0.00000000000E+00 -0.00000000000E+00 -0.25979042635E+02  0.25979042635E+02  0.00000000000E+00 0.  1.
         25    2    1    2    0    0 -0.21536400848E+02 -0.65810665083E+02  0.38646741952E+03  0.41203921540E+03  0.12499755388E+03 0.  0.
         23    2    1    2    0    0  0.21536400848E+02  0.65810665083E+02  0.14876171004E+03  0.17514799944E+03  0.61252878550E+02 0.  0.
          5    1    3    3  502    0 -0.70942691400E+02 -0.30412018503E+02  0.16310985568E+03  0.18051224710E+03  0.47000000000E+01 0.  1.
         -5    1    4    4    0  503  0.42504629120E+02  0.48684910130E+02  0.99477369879E+02  0.11872110633E+03  0.47000000000E+01 0.  1.
          5    1    4    4  503    0 -0.20968228272E+02  0.17125754954E+02  0.49284340165E+02  0.56426893102E+02  0.47000000000E+01 0. -1.
         -5    1    3    3    0  502  0.49406290552E+02 -0.35398646580E+02  0.22335756384E+03  0.23152696830E+03  0.47000000000E+01 0.  1.
<mgrwt>
<rscale>  0 0.12815637E+03</rscale>
<asrwt>0</asrwt>
<pdfrwt beam="1">  1        1 0.86339710E-01 0.14289594E+03</pdfrwt>
<pdfrwt beam="2">  1       -1 0.39967762E-02 0.14289594E+03</pdfrwt>
<totfact> 0.91126918E+03</totfact>
</mgrwt>
</event>
<event>
 8    1  0.2018715E-005  0.1259902E+03  0.7546771E-02  0.1264607E+00
         -1   -1    0    0    0  501 -0.00000000000E+00  0.00000000000E+00  0.30291340945E+02  0.30291340945E+02  0.00000000000E+00 0.  1.
          1   -1    0    0  501    0  0.00000000000E+00 -0.00000000000E+00 -0.36527103829E+03  0.36527103829E+03  0.00000000000E+00 0. -1.
         25    2    1    2    0    0  0.15782712347E+02 -0.99179213760E-01 -0.28452521788E+03  0.31117217204E+03  0.12499766878E+03 0.  0.
         23    2    1    2    0    0 -0.15782712347E+02  0.99179213760E-01 -0.50454479465E+02  0.84390207190E+02  0.65779546410E+02 0.  0.
          5    1    3    3  502    0  0.99485310912E+01  0.49169104384E+02 -0.48471319148E+02  0.69915183450E+02  0.47000000000E+01 0.  1.
         -5    1    3    3    0  502  0.58341812560E+01 -0.49268283598E+02 -0.23605389873E+03  0.24125698859E+03  0.47000000000E+01 0.  1.
          5    1    4    4  503    0  0.19686474514E+02 -0.81136556254E+01 -0.41070352892E+02  0.46500027668E+02  0.47000000000E+01 0. -1.
         -5    1    4    4    0  503 -0.35469186862E+02  0.82128348392E+01 -0.93841265733E+01  0.37890179523E+02  0.47000000000E+01 0.  1.
<mgrwt>
<rscale>  0 0.10784844E+03</rscale>
<asrwt>0</asrwt>
<pdfrwt beam="1">  1        1 0.56195545E-01 0.12599016E+03</pdfrwt>
<pdfrwt beam="2">  1       -1 0.46602063E-02 0.12599016E+03</pdfrwt>
<totfact> 0.12508680E+04</totfact>
</mgrwt>
</event>
<event>
 8    1  0.2018715E-005  0.1927020E+03  0.7546771E-02  0.1156951E+00
         -2   -1    0    0    0  501 -0.00000000000E+00  0.00000000000E+00  0.10587059138E+04  0.10587059138E+04  0.00000000000E+00 0.  1.
          2   -1    0    0  501    0  0.00000000000E+00 -0.00000000000E+00 -0.38461211131E+02  0.38461211131E+02  0.00000000000E+00 0. -1.
         25    2    1    2    0    0  0.14016925330E+03  0.43173215178E+02  0.33545722668E+03  0.38686638223E+03  0.12499080241E+03 0.  0.
         23    2    1    2    0    0 -0.14016925330E+03 -0.43173215178E+02  0.68478747598E+03  0.71030074269E+03  0.11866723106E+03 0.  0.
          5    1    4    4  502    0 -0.97445852470E+02  0.24184905641E+01  0.21204379145E+03  0.23342279827E+03  0.47000000000E+01 0. -1.
         -5    1    3    3    0  503  0.43222169486E+02 -0.35827098173E+02  0.50575266452E+02  0.75707889122E+02  0.47000000000E+01 0. -1.
          5    1    3    3  503    0  0.96947083818E+02  0.79000313351E+02  0.28488196023E+03  0.31115849311E+03  0.47000000000E+01 0. -1.
         -5    1    4    4    0  502 -0.42723400835E+02 -0.45591705742E+02  0.47274368454E+03  0.47687794443E+03  0.47000000000E+01 0.  1.
<mgrwt>
<rscale>  0 0.19168387E+03</rscale>
<asrwt>0</asrwt>
<pdfrwt beam="1">  1        2 0.59171102E-02 0.19270196E+03</pdfrwt>
<pdfrwt beam="2">  1       -2 0.16287781E+00 0.19270196E+03</pdfrwt>
<totfact> 0.31954132E+02</totfact>
</mgrwt>
</event>
<event>
 7    1  0.2018715E-005  0.1684333E+03  0.7546771E-02  0.1182517E+00
          2   -1    0    0  501    0  0.00000000000E+00  0.00000000000E+00  0.39047250965E+03  0.39047250965E+03  0.00000000000E+00 0. -1.
         -2   -1    0    0    0  501 -0.00000000000E+00 -0.00000000000E+00 -0.76557982738E+02  0.76557982738E+02  0.00000000000E+00 0.  1.
         25    2    1    2    0    0 -0.54785952726E+02 -0.78357823921E+02  0.23042524719E+03  0.27904052046E+03  0.12500547319E+03 0.  0.
          5    1    3    3  502    0  0.37987943325E+02 -0.58303490542E+01  0.45388076048E+02  0.59659402071E+02  0.47000000000E+01 0.  1.
         -5    1    3    3    0  502 -0.92773896051E+02 -0.72527474867E+02  0.18503717114E+03  0.21938111839E+03  0.47000000000E+01 0.  1.
          5    1    1    2  503    0  0.99254373339E+01  0.79222673001E+02  0.10974097336E+03  0.13579365765E+03  0.47000000000E+01 0. -1.
         -5    1    1    2    0  503  0.44860515392E+02 -0.86484907966E+00 -0.26251693644E+02  0.52196314279E+02  0.47000000000E+01 0.  1.
<mgrwt>
<rscale>  0 0.16559869E+03</rscale>
<asrwt>0</asrwt>
<pdfrwt beam="1">  1        2 0.60072693E-01 0.16843328E+03</pdfrwt>
<pdfrwt beam="2">  1       -2 0.11778151E-01 0.16843328E+03</pdfrwt>
<totfact> 0.40744793E+03</totfact>
</mgrwt>
</event>
<event>
 8    1  0.2018715E-005  0.1328383E+03  0.7546771E-02  0.1242563E+00
          1   -1    0    0  501    0  0.00000000000E+00  0.00000000000E+00  0.16407599529E+03  0.16407599529E+03  0.00000000000E+00 0. -1.
         -1   -1    0    0    0  501 -0.00000000000E+00 -0.00000000000E+00 -0.77332884021E+02  0.77332884021E+02  0.00000000000E+00 0.  1.
         25    2    1    2    0    0  0.30660047618E+02  0.32867481316E+02  0.32267528467E+02  0.13670113321E+03  0.12500278629E+03 0.  0.
         23    2    1    2    0    0 -0.30660047618E+02 -0.32867481316E+02  0.54475582805E+02  0.10470774610E+03  0.77303383650E+02 0.  0.
          5    1    4    4  502    0 -0.33135161251E+02  0.80843633380E+01  0.53229875322E+02  0.63394049157E+02  0.47000000000E+01 0. -1.
         -5    1    4    4    0  502  0.24751136334E+01 -0.40951844654E+02  0.12457074832E+01  0.41313696945E+02  0.47000000000E+01 0.  1.
          5    1    3    3  503    0  0.17256788638E+01 -0.25342224885E+02  0.60417043709E+02  0.65707803952E+02  0.47000000000E+01 0. -1.
         -5    1    3    3    0  503  0.28934368754E+02  0.58209706201E+02 -0.28149515242E+02  0.70993329261E+02  0.47000000000E+01 0. -1.
<mgrwt>
<rscale>  0 0.12032402E+03</rscale>
<asrwt>0</asrwt>
<pdfrwt beam="1">  1        1 0.25242461E-01 0.13283827E+03</pdfrwt>
<pdfrwt beam="2">  1       -1 0.11897367E-01 0.13283827E+03</pdfrwt>
<totfact> 0.82801639E+03</totfact>
</mgrwt>
</event>
<event>
 8    1  0.2018715E-005  0.1388226E+03  0.7546771E-02  0.1231265E+00
          3   -1    0    0  501    0  0.00000000000E+00  0.00000000000E+00  0.45588490400E+02  0.45588490400E+02  0.00000000000E+00 0. -1.
         -3   -1    0    0    0  501 -0.00000000000E+00 -0.00000000000E+00 -0.38316143024E+03  0.38316143024E+03  0.00000000000E+00 0.  1.
         25    2    1    2    0    0 -0.22583404671E+02 -0.56019784291E+02 -0.98797767646E+02  0.17038991692E+03  0.12499399384E+03 0.  0.
         23    2    1    2    0    0  0.22583404671E+02  0.56019784291E+02 -0.23877517220E+03  0.25836000373E+03  0.78026164000E+02 0.  0.
          5    1    3    3  502    0  0.67773074069E+01  0.34412420140E+02 -0.55474429052E+02  0.65800067130E+02  0.47000000000E+01 0.  1.
         -5    1    4    4    0  503  0.42806065057E+02  0.58836049915E+02 -0.21305810548E+03  0.22518855719E+03  0.47000000000E+01 0.  1.
          5    1    4    4  503    0 -0.20222660386E+02 -0.28162656237E+01 -0.25717066713E+02  0.33171446539E+02  0.47000000000E+01 0. -1.
         -5    1    3    3    0  502 -0.29360712077E+02 -0.90432204431E+02 -0.43323338593E+02  0.10458984979E+03  0.47000000000E+01 0.  1.
<mgrwt>
<rscale>  0 0.12746605E+03</rscale>
<asrwt>0</asrwt>
<pdfrwt beam="1">  1        3 0.70136139E-02 0.13882264E+03</pdfrwt>
<pdfrwt beam="2">  1       -3 0.58947913E-01 0.13882264E+03</pdfrwt>
<totfact> 0.87488821E+02</totfact>
</mgrwt>
</event>
<event>
 8    1  0.2018715E-005  0.2261209E+03  0.7546771E-02  0.1129544E+00
         -1   -1    0    0    0  501 -0.00000000000E+00  0.00000000000E+00  0.10231028680E+04  0.10231028680E+04  0.00000000000E+00 0.  1.
          1   -1    0    0  501    0  0.00000000000E+00 -0.00000000000E+00 -0.74946800184E+02  0.74946800184E+02  0.00000000000E+00 0. -1.
         25    2    1    2    0    0  0.11365607756E+03 -0.14908639052E+03  0.15549401662E+03  0.27376586349E+03  0.12499961202E+03 0.  0.
         23    2    1    2    0    0 -0.11365607756E+03  0.14908639052E+03  0.79266205124E+03  0.82428380473E+03  0.12643657489E+03 0.  0.
          5    1    3    3  502    0  0.43255780510E+02 -0.12328168806E+02  0.10074598059E+03  0.11043047088E+03  0.47000000000E+01 0.  1.
         -5    1    3    3    0  502  0.70400297045E+02 -0.13675822171E+03  0.54748036028E+02  0.16333539261E+03  0.47000000000E+01 0.  1.
          5    1    4    4  503    0 -0.97932108174E+02  0.90125186677E+02  0.30513895096E+03  0.33293410231E+03  0.47000000000E+01 0. -1.
         -5    1    4    4    0  503 -0.15723969382E+02  0.58961203842E+02  0.48752310027E+03  0.49134970242E+03  0.47000000000E+01 0.  1.
<mgrwt>
<rscale>  0 0.22592055E+03</rscale>
<asrwt>0</asrwt>
<pdfrwt beam="1">  1        1 0.11530278E-01 0.22612090E+03</pdfrwt>
<pdfrwt beam="2">  1       -1 0.15740043E+00 0.22612090E+03</pdfrwt>
<totfact> 0.17718458E+02</totfact>
</mgrwt>
</event>
<event>
 8    1  0.2018715E-005  0.1785160E+03  0.7546771E-02  0.1172692E+00
          2   -1    0    0  501    0  0.00000000000E+00  0.00000000000E+00  0.47998417262E+02  0.47998417262E+02  0.00000000000E+00 0.  1.
         -2   -1    0    0    0  501 -0.00000000000E+00 -0.00000000000E+00 -0.64468019049E+03  0.64468019049E+03  0.00000000000E+00 0. -1.
         25    2    1    2    0    0 -0.74811619227E+01 -0.12721021147E+03 -0.38420459755E+03  0.42365212626E+03  0.12501818116E+03 0.  0.
         23    2    1    2    0    0  0.74811619227E+01  0.12721021147E+03 -0.21247717568E+03  0.26902648150E+03  0.10483459293E+03 0.  0.
          5    1    3    3  502    0 -0.16998177053E+02  0.21154295354E+02 -0.38796100915E+02  0.47578037804E+02  0.47000000000E+01 0.  1.
         -5    1    3    3    0  502  0.95170151308E+01 -0.14836450682E+03 -0.34540849663E+03  0.37607408846E+03  0.47000000000E+01 0.  1.
          5    1    4    4  503    0  0.26340840590E+02  0.13129695830E+02 -0.11158461626E+03  0.11549651675E+03  0.47000000000E+01 0. -1.
         -5    1    4    4    0  503 -0.18859678667E+02  0.11408051564E+03 -0.10089255942E+03  0.15352996474E+03  0.47000000000E+01 0.  1.
<mgrwt>
<rscale>  0 0.17503954E+03</rscale>
<asrwt>0</asrwt>
<pdfrwt beam="1">  1        2 0.73843728E-02 0.17851597E+03</pdfrwt>
<pdfrwt beam="2">  1       -2 0.99181556E-01 0.17851597E+03</pdfrwt>
<totfact> 0.81287429E+02</totfact>
</mgrwt>
</event>
<event>
 8    1  0.2018715E-005  0.1538907E+03  0.7546771E-02  0.1197373E+00
          2   -1    0    0  501    0  0.00000000000E+00  0.00000000000E+00  0.19348446088E+02  0.19348446088E+02  0.00000000000E+00 0. -1.
         -2   -1    0    0    0  501 -0.00000000000E+00 -0.00000000000E+00 -0.13610034599E+04  0.13610034599E+04  0.00000000000E+00 0.  1.
         25    2    1    2    0    0  0.87180559245E+02 -0.21398987613E+02 -0.93109343146E+03  0.94372523692E+03  0.12499591235E+03 0.  0.
         23    2    1    2    0    0 -0.87180559245E+02  0.21398987613E+02 -0.41056158236E+03  0.43662666908E+03  0.11842157177E+03 0.  0.
          5    1    3    3  502    0  0.36910347954E+02 -0.65737029998E+02 -0.66510873672E+03  0.66938438327E+03  0.47000000000E+01 0. -1.
         -5    1    3    3    0  502  0.50270211291E+02  0.44338042385E+02 -0.26598469474E+03  0.27434085365E+03  0.47000000000E+01 0. -1.
          5    1    4    4  503    0 -0.41197980502E+02  0.62541968521E+02 -0.13752110374E+03  0.15666178665E+03  0.47000000000E+01 0. -1.
         -5    1    4    4    0  503 -0.45982578743E+02 -0.41142980908E+02 -0.27304047863E+03  0.27996488243E+03  0.47000000000E+01 0.  1.
<mgrwt>
<rscale>  0 0.15255068E+03</rscale>
<asrwt>0</asrwt>
<pdfrwt beam="1">  1        2 0.29766835E-02 0.15389069E+03</pdfrwt>
<pdfrwt beam="2">  1       -2 0.20938518E+00 0.15389069E+03</pdfrwt>
<totfact> 0.39347188E+02</totfact>
</mgrwt>
</event>
<event>
 7    1  0.2018715E-005  0.1502505E+03  0.7546771E-02  0.1206224E+00
         -2   -1    0    0    0  501 -0.00000000000E+00  0.00000000000E+00  0.21685791069E+02  0.21685791069E+02  0.00000000000E+00 0.  1.
          2   -1    0    0  501    0  0.00000000000E+00 -0.00000000000E+00 -0.93582267693E+03  0.93582267693E+03  0.00000000000E+00 0. -1.
         25    2    1    2    0    0 -0.39647824596E+02  0.13381487207E+02 -0.49514607470E+03  0.51239217372E+03  0.12500036082E+03 0.  0.
          5    1    3    3  502    0 -0.74953414602E+02 -0.72897457313E+01 -0.18925861428E+03  0.20374510505E+03  0.47000000000E+01 0.  1.
         -5    1    1    2    0  503 -0.35050624554E+02  0.25176522324E+02 -0.48115148355E+02  0.64804020394E+02  0.47000000000E+01 0.  1.
          5    1    1    2  503    0  0.74698449150E+02 -0.38558009531E+02 -0.37087566281E+03  0.38031227389E+03  0.47000000000E+01 0. -1.
         -5    1    3    3    0  502  0.35305590006E+02  0.20671232938E+02 -0.30588746042E+03  0.30864706867E+03  0.47000000000E+01 0.  1.
<mgrwt>
<rscale>  0 0.14541393E+03</rscale>
<asrwt>0</asrwt>
<pdfrwt beam="1">  1        2 0.14397271E+00 0.15025051E+03</pdfrwt>
<pdfrwt beam="2">  1       -2 0.33362757E-02 0.15025051E+03</pdfrwt>
<totfact> 0.10078075E+04</totfact>
</mgrwt>
</event>
<event>
 8    1  0.2018715E-005  0.2265194E+03  0.7546771E-02  0.1130070E+00
         -2   -1    0    0    0  501 -0.00000000000E+00  0.00000000000E+00  0.16191546572E+03  0.16191546572E+03  0.00000000000E+00 0.  1.
          2   -1    0    0  501    0  0.00000000000E+00 -0.00000000000E+00 -0.32667693180E+03  0.32667693180E+03  0.00000000000E+00 0. -1.
         25    2    1    2    0    0  0.38110915179E+02 -0.18502117927E+03 -0.13917404851E+03  0.26585795426E+03  0.12500302968E+03 0.  0.
         23    2    1    2    0    0 -0.38110915179E+02  0.18502117927E+03 -0.25587417578E+02  0.22273444326E+03  0.11519825363E+03 0.  0.
          5    1    3    3  502    0  0.81823485884E+02 -0.12922456232E+03 -0.11271212974E+03  0.19005310979E+03  0.47000000000E+01 0. -1.
         -5    1    3    3    0  502 -0.43712570704E+02 -0.55796616953E+02 -0.26461918770E+02  0.75804844476E+02  0.47000000000E+01 0. -1.
          5    1    4    4  503    0  0.12794529544E+02  0.12764380413E+03 -0.56045230715E+02  0.14007069146E+03  0.47000000000E+01 0. -1.
         -5    1    4    4    0  503 -0.50905444723E+02  0.57377375137E+02  0.30457813137E+02  0.82663751797E+02  0.47000000000E+01 0.  1.
<mgrwt>
<rscale>  0 0.22519290E+03</rscale>
<asrwt>0</asrwt>
<pdfrwt beam="1">  1        2 0.50257989E-01 0.22651939E+03</pdfrwt>
<pdfrwt beam="2">  1       -2 0.24910072E-01 0.22651939E+03</pdfrwt>
<totfact> 0.14200927E+03</totfact>
</mgrwt>
</event>
<event>
 7    1  0.2018715E-005  0.2756368E+03  0.7546771E-02  0.1105743E+00
          3   -1    0    0  501    0  0.00000000000E+00  0.00000000000E+00  0.71429952767E+02  0.71429952767E+02  0.00000000000E+00 0. -1.
         -3   -1    0    0    0  501 -0.00000000000E+00 -0.00000000000E+00 -0.10355425747E+04  0.10355425747E+04  0.00000000000E+00 0.  1.
         25    2    1    2    0    0 -0.65520311502E+01  0.18840166842E+03 -0.65429464361E+03  0.69228849184E+03  0.12499502991E+03 0.  0.
          5    1    1    2  502    0 -0.75718867860E+02 -0.10945834407E+03 -0.73163278909E+02  0.15195206947E+03  0.47000000000E+01 0. -1.
         -5    1    3    3    0  503  0.53786178844E+02  0.13151118915E+03 -0.38143038440E+03  0.40706187987E+03  0.47000000000E+01 0. -1.
          5    1    3    3  503    0 -0.60338209995E+02  0.56890479272E+02 -0.27286425922E+03  0.28522661197E+03  0.47000000000E+01 0. -1.
         -5    1    1    2    0  502  0.82270899010E+02 -0.78943324353E+02 -0.23665469938E+03  0.26273196612E+03  0.47000000000E+01 0.  1.
<mgrwt>
<rscale>  0 0.26234407E+03</rscale>
<asrwt>0</asrwt>
<pdfrwt beam="1">  1        3 0.10989224E-01 0.27563684E+03</pdfrwt>
<pdfrwt beam="2">  1       -3 0.15931423E+00 0.27563684E+03</pdfrwt>
<totfact> 0.46149030E+01</totfact>
</mgrwt>
</event>
<event>
 8    1  0.2018715E-005  0.1921405E+03  0.7546771E-02  0.1158209E+00
          1   -1    0    0  501    0  0.00000000000E+00  0.00000000000E+00  0.16609483909E+04  0.16609483909E+04  0.00000000000E+00 0. -1.
         -1   -1    0    0    0  501 -0.00000000000E+00 -0.00000000000E+00 -0.30453899835E+02  0.30453899835E+02  0.00000000000E+00 0.  1.
         25    2    1    2    0    0 -0.14542578565E+03 -0.12026528387E+02  0.12877793574E+04  0.13020344275E+04  0.12499872244E+03 0.  0.
         23    2    1    2    0    0  0.14542578565E+03  0.12026528387E+02  0.34271513372E+03  0.38936786326E+03  0.11340358699E+03 0.  0.
          5    1    3    3  502    0 -0.63635022165E+02 -0.66733288033E+02  0.54779904933E+03  0.55552554957E+03  0.47000000000E+01 0. -1.
         -5    1    3    3    0  502 -0.81790763485E+02  0.54706759646E+02  0.73998030803E+03  0.74650887792E+03  0.47000000000E+01 0. -1.
          5    1    4    4  503    0  0.81036892944E+02  0.61945094971E+02  0.16927197602E+03  0.19768476085E+03  0.47000000000E+01 0. -1.
         -5    1    4    4    0  503  0.64388892706E+02 -0.49918566584E+02  0.17344315770E+03  0.19168310240E+03  0.47000000000E+01 0.  1.
<mgrwt>
<rscale>  0 0.19028032E+03</rscale>
<asrwt>0</asrwt>
<pdfrwt beam="1">  1        1 0.25553045E+00 0.19214051E+03</pdfrwt>
<pdfrwt beam="2">  1       -1 0.46852167E-02 0.19214051E+03</pdfrwt>
<totfact> 0.10944738E+03</totfact>
</mgrwt>
</event>
<event>
 8    1  0.2018715E-005  0.1442395E+03  0.7546771E-02  0.1213736E+00
          1   -1    0    0  501    0  0.00000000000E+00  0.00000000000E+00  0.48602345456E+02  0.48602345456E+02  0.00000000000E+00 0. -1.
         -1   -1    0    0    0  501 -0.00000000000E+00 -0.00000000000E+00 -0.38221560640E+03  0.38221560640E+03  0.00000000000E+00 0.  1.
         25    2    1    2    0    0 -0.70136444933E+02  0.16109195476E+02 -0.15529872392E+03  0.21194980256E+03  0.12500559214E+03 0.  0.
         23    2    1    2    0    0  0.70136444933E+02 -0.16109195476E+02 -0.17831453703E+03  0.21886814930E+03  0.10453977988E+03 0.  0.
          5    1    3    3  502    0  0.17249256338E+02  0.47164162211E+02 -0.66517635199E+02  0.83478625011E+02  0.47000000000E+01 0.  1.
         -5    1    3    3    0  502 -0.87385701271E+02 -0.31054966734E+02 -0.88781088719E+02  0.12847117754E+03  0.47000000000E+01 0.  1.
          5    1    4    4  503    0 -0.15971513683E+01 -0.28192700561E+02 -0.27338309937E+01  0.28756618183E+02  0.47000000000E+01 0. -1.
         -5    1    4    4    0  503  0.71733596301E+02  0.12083505085E+02 -0.17558070603E+03  0.19011153112E+03  0.47000000000E+01 0.  1.
<mgrwt>
<rscale>  0 0.13969812E+03</rscale>
<asrwt>0</asrwt>
<pdfrwt beam="1">  1        1 0.74772836E-02 0.14423947E+03</pdfrwt>
<pdfrwt beam="2">  1       -1 0.58802403E-01 0.14423947E+03</pdfrwt>
<totfact> 0.27915130E+03</totfact>
</mgrwt>
</event>
<event>
 8    1  0.2018715E-005  0.1532460E+03  0.7546771E-02  0.1209010E+00
         -1   -1    0    0    0  501 -0.00000000000E+00  0.00000000000E+00  0.17697086472E+02  0.17697086472E+02  0.00000000000E+00 0.  1.
          1   -1    0    0  501    0  0.00000000000E+00 -0.00000000000E+00 -0.10429539250E+04  0.10429539250E+04  0.00000000000E+00 0. -1.
         25    2    1    2    0    0 -0.85694195729E+02 -0.22728132023E+02 -0.52665414839E+03  0.54849696231E+03  0.12499704988E+03 0.  0.
         23    2    1    2    0    0  0.85694195729E+02  0.22728132023E+02 -0.49860269012E+03  0.51215404914E+03  0.76400682544E+02 0.  0.
          5    1    3    3  502    0 -0.13037883933E+02 -0.35425423761E+02 -0.36220633310E+02  0.52525911162E+02  0.47000000000E+01 0.  1.
         -5    1    3    3    0  502 -0.72656311795E+02  0.12697291738E+02 -0.49043351508E+03  0.49597105115E+03  0.47000000000E+01 0.  1.
          5    1    4    4  503    0  0.67019480261E+02 -0.13935505164E+02 -0.38866207577E+03  0.39467215278E+03  0.47000000000E+01 0. -1.
         -5    1    4    4    0  503  0.18674715468E+02  0.36663637187E+02 -0.10994061435E+03  0.11748189636E+03  0.47000000000E+01 0.  1.
<mgrwt>
<rscale>  0 0.14325852E+03</rscale>
<asrwt>0</asrwt>
<pdfrwt beam="1">  1        1 0.16045451E+00 0.15324596E+03</pdfrwt>
<pdfrwt beam="2">  1       -1 0.27226277E-02 0.15324596E+03</pdfrwt>
<totfact> 0.63264199E+03</totfact>
</mgrwt>
</event>
<event>
 7    1  0.2018715E-005  0.1869885E+03  0.7546771E-02  0.1161656E+00
         -2   -1    0    0    0  501 -0.00000000000E+00  0.00000000000E+00  0.43183545734E+02  0.43183545734E+02  0.00000000000E+00 0.  1.
          2   -1    0    0  501    0  0.00000000000E+00 -0.00000000000E+00 -0.80490796518E+03  0.80490796518E+03  0.00000000000E+00 0. -1.
         25    2    1    2    0    0 -0.76517277098E+02 -0.11296508589E+03 -0.40737421441E+03  0.44743109487E+03  0.12499931906E+03 0.  0.
          5    1    3    3  502    0 -0.54458547139E+02 -0.57492607606E+02 -0.36635846754E+03  0.37484896962E+03  0.47000000000E+01 0. -1.
         -5    1    3    3    0  502 -0.22058729959E+02 -0.55472478285E+02 -0.41015746868E+02  0.72582125249E+02  0.47000000000E+01 0. -1.
          5    1    1    2  503    0  0.29346523420E+02  0.11252108691E+03 -0.14458348135E+03  0.18560357355E+03  0.47000000000E+01 0. -1.
         -5    1    1    2    0  503  0.47170753678E+02  0.44399898526E+00 -0.20976672369E+03  0.21505684249E+03  0.47000000000E+01 0.  1.
<mgrwt>
<rscale>  0 0.18650017E+03</rscale>
<asrwt>0</asrwt>
<pdfrwt beam="1">  1        2 0.12383198E+00 0.18698851E+03</pdfrwt>
<pdfrwt beam="2">  1       -2 0.66436234E-02 0.18698851E+03</pdfrwt>
<totfact> 0.43855448E+03</totfact>
</mgrwt>
</event>
<event>
 7    1  0.2018715E-005  0.2335984E+03  0.7546771E-02  0.1139964E+00
          1   -1    0    0  501    0  0.00000000000E+00  0.00000000000E+00  0.96784963688E+03  0.96784963688E+03  0.00000000000E+00 0. -1.
         -1   -1    0    0    0  501 -0.00000000000E+00 -0.00000000000E+00 -0.53233546076E+02  0.53233546076E+02  0.00000000000E+00 0.  1.
         25    2    1    2    0    0 -0.91008156821E+02  0.35159162010E+02  0.13838601872E+03  0.21046531694E+03  0.12500523260E+03 0.  0.
          5    1    3    3  502    0 -0.87179797815E+02  0.89901876981E+01  0.15553934775E+03  0.17859372699E+03  0.47000000000E+01 0.  1.
         -5    1    3    3    0  502 -0.38283590062E+01  0.26168974312E+02 -0.17153329030E+02  0.31871589952E+02  0.47000000000E+01 0.  1.
          5    1    1    2  503    0  0.77476057786E+02 -0.12164913815E+03  0.43521397688E+03  0.45851319285E+03  0.47000000000E+01 0. -1.
         -5    1    1    2    0  503  0.13532099035E+02  0.86489976141E+02  0.34101609520E+03  0.35210467317E+03  0.47000000000E+01 0.  1.
<mgrwt>
<rscale>  0 0.21203557E+03</rscale>
<asrwt>0</asrwt>
<pdfrwt beam="1">  1        1 0.14889993E+00 0.23359837E+03</pdfrwt>
<pdfrwt beam="2">  1       -1 0.81897770E-02 0.23359837E+03</pdfrwt>
<totfact> 0.14052879E+03</totfact>
</mgrwt>
</event>
<event>
 8    1  0.2018715E-005  0.1336526E+03  0.7546771E-02  0.1229141E+00
         -2   -1    0    0    0  501 -0.00000000000E+00  0.00000000000E+00  0.32714818441E+02  0.32714818441E+02  0.00000000000E+00 0.  1.
          2   -1    0    0  501    0  0.00000000000E+00 -0.00000000000E+00 -0.48839748493E+03  0.48839748493E+03  0.00000000000E+00 0. -1.
         25    2    1    2    0    0  0.47128172361E+02  0.40384964355E+01 -0.20008281484E+03  0.24061620854E+03  0.12500261171E+03 0.  0.
         23    2    1    2    0    0 -0.47128172361E+02 -0.40384964355E+01 -0.25559985165E+03  0.28049609483E+03  0.10540114311E+03 0.  0.
          5    1    3    3  502    0 -0.69936331901E+01 -0.28568044491E+02  0.98573646260E+00  0.29801103127E+02  0.47000000000E+01 0.  1.
         -5    1    3    3    0  502  0.54121805551E+02  0.32606540927E+02 -0.20106855130E+03  0.21081510541E+03  0.47000000000E+01 0.  1.
          5    1    4    4  503    0 -0.24165191507E+02 -0.54345801767E+02 -0.14355099531E+03  0.15545546277E+03  0.47000000000E+01 0. -1.
         -5    1    4    4    0  503 -0.22962980854E+02  0.50307305332E+02 -0.11204885634E+03  0.12504063207E+03  0.47000000000E+01 0.  1.
<mgrwt>
<rscale>  0 0.12887100E+03</rscale>
<asrwt>0</asrwt>
<pdfrwt beam="1">  1        2 0.75138071E-01 0.13365264E+03</pdfrwt>
<pdfrwt beam="2">  1       -2 0.50330492E-02 0.13365264E+03</pdfrwt>
<totfact> 0.11748876E+04</totfact>
</mgrwt>
</event>
<event>
 8    1  0.2018715E-005  0.1361938E+03  0.7546771E-02  0.1235991E+00
          3   -1    0    0  501    0  0.00000000000E+00  0.00000000000E+00  0.34361763768E+02  0.34361763768E+02  0.00000000000E+00 0. -1.
         -3   -1    0    0    0  501 -0.00000000000E+00 -0.00000000000E+00 -0.40963175884E+03  0.40963175884E+03  0.00000000000E+00 0.  1.
         25    2    1    2    0    0  0.30121648156E+02 -0.44892075373E+02 -0.16962892608E+03  0.21753785776E+03  0.12500453943E+03 0.  0.
         23    2    1    2    0    0 -0.30121648156E+02  0.44892075373E+02 -0.20564106899E+03  0.22645566485E+03  0.77918590627E+02 0.  0.
          5    1    3    3  502    0  0.39187871236E+02  0.80958110545E+01 -0.80418941244E+00  0.40298487927E+02  0.47000000000E+01 0. -1.
         -5    1    4    4    0  503 -0.37599491572E+02 -0.69644205176E+00 -0.14616799860E+03  0.15100126030E+03  0.47000000000E+01 0.  1.
          5    1    4    4  503    0  0.74778434162E+01  0.45588517424E+02 -0.59473070393E+02  0.75454404544E+02  0.47000000000E+01 0. -1.
         -5    1    3    3    0  502 -0.90662230796E+01 -0.52987886427E+02 -0.16882473667E+03  0.17723936983E+03  0.47000000000E+01 0. -1.
<mgrwt>
<rscale>  0 0.12441180E+03</rscale>
<asrwt>0</asrwt>
<pdfrwt beam="1">  1        3 0.52864252E-02 0.13619378E+03</pdfrwt>
<pdfrwt beam="2">  1       -3 0.63020271E-01 0.13619378E+03</pdfrwt>
<totfact> 0.11944043E+03</totfact>
</mgrwt>
</event>
<event>
 8    1  0.2018715E-005  0.1424187E+03  0.7546771E-02  0.1215063E+00
          4   -1    0    0  501    0  0.00000000000E+00  0.00000000000E+00  0.45549257076E+03  0.45549257076E+03  0.00000000000E+00 0. -1.
         -4   -1    0    0    0  501 -0.00000000000E+00 -0.00000000000E+00 -0.49137236358E+02  0.49137236358E+02  0.00000000000E+00 0.  1.
         25    2    1    2    0    0 -0.66263066202E+02  0.16362312444E+02  0.31945285800E+03  0.34976165635E+03  0.12499827420E+03 0.  0.
         23    2    1    2    0    0  0.66263066202E+02 -0.16362312444E+02  0.86902476403E+02  0.15486815078E+03  0.10850614964E+03 0.  0.
          5    1    3    3  502    0 -0.23063664870E+02 -0.23358642513E+00 -0.32157294044E+01  0.23757485461E+02  0.47000000000E+01 0. -1.
         -5    1    4    4    0  503  0.16123163589E+02  0.25248869848E+02 -0.14994317866E+02  0.33828706759E+02  0.47000000000E+01 0.  1.
          5    1    4    4  503    0  0.50139902613E+02 -0.41611182292E+02  0.10189679427E+03  0.12103944402E+03  0.47000000000E+01 0. -1.
         -5    1    3    3    0  502 -0.43199401332E+02  0.16595898869E+02  0.32266858741E+03  0.32600417088E+03  0.47000000000E+01 0. -1.
<mgrwt>
<rscale>  0 0.13871931E+03</rscale>
<asrwt>0</asrwt>
<pdfrwt beam="1">  1        4 0.70075777E-01 0.14241871E+03</pdfrwt>
<pdfrwt beam="2">  1       -4 0.75595751E-02 0.14241871E+03</pdfrwt>
<totfact> 0.38728577E+02</totfact>
</mgrwt>
</event>
<event>
 8    1  0.2018715E-005  0.1411347E+03  0.7546771E-02  0.1212907E+00
          1   -1    0    0  501    0  0.00000000000E+00  0.00000000000E+00  0.97200628251E+03  0.97200628251E+03  0.00000000000E+00 0. -1.
         -1   -1    0    0    0  501 -0.00000000000E+00 -0.00000000000E+00 -0.21812913558E+02  0.21812913558E+02  0.00000000000E+00 0.  1.
         25    2    1    2    0    0  0.46215195120E+02  0.46409646782E+02  0.33784703670E+03  0.36614153715E+03  0.12501722060E+03 0.  0.
         23    2    1    2    0    0 -0.46215195120E+02 -0.46409646782E+02  0.61234633225E+03  0.62767765891E+03  0.12133224346E+03 0.  0.
          5    1    3    3  502    0  0.87204263944E+02  0.45204987781E+02  0.26101163618E+03  0.27892156387E+03  0.47000000000E+01 0.  1.
         -5    1    4    4    0  503 -0.59404561995E+02 -0.80906658676E+02  0.43271152327E+03  0.44422532770E+03  0.47000000000E+01 0.  1.
          5    1    4    4  503    0  0.13189366875E+02  0.34497011894E+02  0.17963480898E+03  0.18345233121E+03  0.47000000000E+01 0. -1.
         -5    1    3    3    0  502 -0.40989068824E+02  0.12046590009E+01  0.76835400518E+02  0.87219973281E+02  0.47000000000E+01 0.  1.
<mgrwt>
<rscale>  0 0.14031419E+03</rscale>
<asrwt>0</asrwt>
<pdfrwt beam="1">  1        1 0.14953939E+00 0.14113471E+03</pdfrwt>
<pdfrwt beam="2">  1       -1 0.33558336E-02 0.14113471E+03</pdfrwt>
<totfact> 0.52367928E+03</totfact>
</mgrwt>
</event>
<event>
 8    1  0.2018715E-005  0.1368625E+03  0.7546771E-02  0.1224687E+00
         -1   -1    0    0    0  501 -0.00000000000E+00  0.00000000000E+00  0.12358840592E+02  0.12358840592E+02  0.00000000000E+00 0.  1.
          1   -1    0    0  501    0  0.00000000000E+00 -0.00000000000E+00 -0.14925575414E+04  0.14925575414E+04  0.00000000000E+00 0. -1.
         25    2    1    2    0    0  0.48051776756E+02 -0.28208140107E+02 -0.52868083333E+03  0.54610874163E+03  0.12500664678E+03 0.  0.
         23    2    1    2    0    0 -0.48051776756E+02  0.28208140107E+02 -0.95151786746E+03  0.95880764034E+03  0.10402483676E+03 0.  0.
          5    1    3    3  502    0  0.89832661060E+02 -0.27464554286E+02 -0.33770344308E+03  0.35055657775E+03  0.47000000000E+01 0.  1.
         -5    1    3    3    0  502 -0.41780884304E+02 -0.74358582134E+00 -0.19097739025E+03  0.19555216388E+03  0.47000000000E+01 0.  1.
          5    1    4    4  503    0 -0.57014567177E+02 -0.25875271769E+02 -0.47930997173E+03  0.48340493332E+03  0.47000000000E+01 0. -1.
         -5    1    4    4    0  503  0.89627904205E+01  0.54083411876E+02 -0.47220789573E+03  0.47540270702E+03  0.47000000000E+01 0.  1.
<mgrwt>
<rscale>  0 0.13188364E+03</rscale>
<asrwt>0</asrwt>
<pdfrwt beam="1">  1        1 0.22962417E+00 0.13686246E+03</pdfrwt>
<pdfrwt beam="2">  1       -1 0.19013607E-02 0.13686246E+03</pdfrwt>
<totfact> 0.52523970E+03</totfact>
</mgrwt>
</event>
<event>
 8    1  0.2018715E-005  0.2964836E+03  0.7546771E-02  0.1089350E+00
          2   -1    0    0  501    0  0.00000000000E+00  0.00000000000E+00  0.22578445733E+03  0.22578445733E+03  0.00000000000E+00 0. -1.
         -2   -1    0    0    0  501 -0.00000000000E+00 -0.00000000000E+00 -0.67631614971E+03  0.67631614971E+03  0.00000000000E+00 0.  1.
         25    2    1    2    0    0 -0.26549841883E+03 -0.42283107687E+02  0.76273168055E+02  0.30613740036E+03  0.12500096054E+03 0.  0.
         23    2    1    2    0    0  0.26549841883E+03  0.42283107687E+02 -0.52680486043E+03  0.59596320668E+03  0.73290593848E+02 0.  0.
          5    1    3    3  502    0 -0.74626209987E+02 -0.55776317461E+02 -0.14314021004E+02  0.94377168869E+02  0.47000000000E+01 0. -1.
         -5    1    4    4    0  503  0.10614449095E+03  0.52991071774E+02 -0.21517757840E+03  0.24576042581E+03  0.47000000000E+01 0.  1.
          5    1    4    4  503    0  0.15935392788E+03 -0.10707964087E+02 -0.31162728203E+03  0.35020278087E+03  0.47000000000E+01 0. -1.
         -5    1    3    3    0  502 -0.19087220884E+03  0.13493209774E+02  0.90587189059E+02  0.21176023149E+03  0.47000000000E+01 0. -1.
<mgrwt>
<rscale>  0 0.29192233E+03</rscale>
<asrwt>0</asrwt>
<pdfrwt beam="1">  1        2 0.34736070E-01 0.29648358E+03</pdfrwt>
<pdfrwt beam="2">  1       -2 0.10404864E+00 0.29648358E+03</pdfrwt>
<totfact> 0.11713402E+02</totfact>
</mgrwt>
</event>
<event>
 8    1  0.2018715E-005  0.1712260E+03  0.7546771E-02  0.1186229E+00
          1   -1    0    0  501    0  0.00000000000E+00  0.00000000000E+00  0.16256370578E+04  0.16256370578E+04  0.00000000000E+00 0. -1.
         -1   -1    0    0    0  501 -0.00000000000E+00 -0.00000000000E+00 -0.14854597266E+02  0.14854597266E+02  0.00000000000E+00 0.  1.
         25    2    1    2    0    0  0.29823269164E+02  0.11315404764E+03  0.97575861266E+03  0.99066805679E+03  0.12500025072E+03 0.  0.
         23    2    1    2    0    0 -0.29823269164E+02 -0.11315404764E+03  0.63502384790E+03  0.64982359831E+03  0.72953105683E+02 0.  0.
          5    1    4    4  502    0 -0.43376074007E+02 -0.83515952214E+02  0.56028628867E+03  0.56815421616E+03  0.47000000000E+01 0. -1.
         -5    1    3    3    0  503  0.50588851370E+02  0.74746375790E+02  0.88747957652E+03  0.89206969533E+03  0.47000000000E+01 0.  1.
          5    1    3    3  503    0 -0.20765582206E+02  0.38407671855E+02  0.88279036143E+02  0.98598361467E+02  0.47000000000E+01 0.  1.
         -5    1    4    4    0  502  0.13552804842E+02 -0.29638095430E+02  0.74737559230E+02  0.81669382142E+02  0.47000000000E+01 0.  1.
<mgrwt>
<rscale>  0 0.16220545E+03</rscale>
<asrwt>0</asrwt>
<pdfrwt beam="1">  1        1 0.25009787E+00 0.17122596E+03</pdfrwt>
<pdfrwt beam="2">  1       -1 0.22853239E-02 0.17122596E+03</pdfrwt>
<totfact> 0.33165741E+03</totfact>
</mgrwt>
</event>
<event>
 8    1  0.2018715E-005  0.1881079E+03  0.7546771E-02  0.1168490E+00
         -1   -1    0    0    0  501 -0.00000000000E+00  0.00000000000E+00  0.76014470847E+03  0.76014470847E+03  0.00000000000E+00 0.  1.
          1   -1    0    0  501    0  0.00000000000E+00 -0.00000000000E+00 -0.42910678642E+02  0.42910678642E+02  0.00000000000E+00 0. -1.
         25    2    1    2    0    0 -0.75404128508E+02 -0.11862035174E+03  0.51380256176E+03  0.54715412996E+03  0.12501199546E+03 0.  0.
         23    2    1    2    0    0  0.75404128508E+02  0.11862035174E+03  0.20343146806E+03  0.25590125716E+03  0.65912978789E+02 0.  0.
          5    1    3    3  502    0  0.23515452178E+02 -0.31071632569E+02  0.43320886666E+02  0.58456924852E+02  0.47000000000E+01 0. -1.
         -5    1    4    4    0  503  0.39156813901E+01  0.64214848318E+02  0.97763628680E+02  0.11712683893E+03  0.47000000000E+01 0.  1.
          5    1    4    4  503    0  0.71488447118E+02  0.54405503424E+02  0.10566783938E+03  0.13877441823E+03  0.47000000000E+01 0. -1.
         -5    1    3    3    0  502 -0.98919580686E+02 -0.87548719173E+02  0.47048167510E+03  0.48869720510E+03  0.47000000000E+01 0. -1.
<mgrwt>
<rscale>  0 0.17929154E+03</rscale>
<asrwt>0</asrwt>
<pdfrwt beam="1">  1        1 0.66016434E-02 0.18810787E+03</pdfrwt>
<pdfrwt beam="2">  1       -1 0.11694533E+00 0.18810787E+03</pdfrwt>
<totfact> 0.79168268E+02</totfact>
</mgrwt>
</event>
<event>
 8    1  0.2018715E-005  0.1303560E+03  0.7546771E-02  0.1254444E+00
          4   -1    0    0  501    0  0.00000000000E+00  0.00000000000E+00  0.28497092876E+03  0.28497092876E+03  0.00000000000E+00 0. -1.
         -4   -1    0    0    0  501 -0.00000000000E+00 -0.00000000000E+00 -0.36954808974E+02  0.36954808974E+02  0.00000000000E+00 0.  1.
         25    2    1    2    0    0  0.31854855013E+02 -0.18783242546E+02  0.14933929228E+03  0.19822946944E+03  0.12500062539E+03 0.  0.
         23    2    1    2    0    0 -0.31854855013E+02  0.18783242546E+02  0.98676827504E+02  0.12369626829E+03  0.64777376564E+02 0.  0.
          5    1    4    4  502    0 -0.24378912357E+02 -0.16645311615E+02  0.73498095229E+02  0.79343920805E+02  0.47000000000E+01 0. -1.
         -5    1    4    4    0  502 -0.74759426560E+01  0.35428554161E+02  0.25178732275E+02  0.44352347486E+02  0.47000000000E+01 0.  1.
          5    1    3    3  503    0  0.72284449795E+02  0.17405697150E+02  0.10030557270E+03  0.12494517954E+03  0.47000000000E+01 0. -1.
         -5    1    3    3    0  503 -0.40429594782E+02 -0.36188939696E+02  0.49033719580E+02  0.73284289902E+02  0.47000000000E+01 0. -1.
<mgrwt>
<rscale>  0 0.11337528E+03</rscale>
<asrwt>0</asrwt>
<pdfrwt beam="1">  1        4 0.43841680E-01 0.13035604E+03</pdfrwt>
<pdfrwt beam="2">  1       -4 0.56853554E-02 0.13035604E+03</pdfrwt>
<totfact> 0.16028446E+03</totfact>
</mgrwt>
</event>
<event>
 8    1  0.2018715E-005  0.1268059E+03  0.7546771E-02  0.1255020E+00
          2   -1    0    0  501    0  0.00000000000E+00  0.00000000000E+00  0.54999314625E+02  0.54999314625E+02  0.00000000000E+00 0. -1.
         -2   -1    0    0    0  501 -0.00000000000E+00 -0.00000000000E+00 -0.19592934926E+03  0.19592934926E+03  0.00000000000E+00 0.  1.
         25    2    1    2    0    0 -0.84232159163E+01  0.19614276030E+02 -0.96273293043E+02  0.15921147231E+03  0.12499630224E+03 0.  0.
         23    2    1    2    0    0  0.84232159163E+01 -0.19614276030E+02 -0.44656741593E+02  0.91717191570E+02  0.77214948483E+02 0.  0.
          5    1    4    4  502    0 -0.24889884690E+02  0.96570179431E+01  0.19931330186E+01  0.27181371096E+02  0.47000000000E+01 0. -1.
         -5    1    3    3    0  503  0.15769410514E+02  0.69348137900E+02 -0.52488436721E+02  0.88515334986E+02  0.47000000000E+01 0.  1.
          5    1    3    3  503    0 -0.24192626430E+02 -0.49733861870E+02 -0.43784856321E+02  0.70696137329E+02  0.47000000000E+01 0.  1.
         -5    1    4    4    0  502  0.33313100607E+02 -0.29271293973E+02 -0.46649874611E+02  0.64535820473E+02  0.47000000000E+01 0.  1.
<mgrwt>
<rscale>  0 0.11305197E+03</rscale>
<asrwt>0</asrwt>
<pdfrwt beam="1">  1        2 0.84614329E-02 0.12680594E+03</pdfrwt>
<pdfrwt beam="2">  1       -2 0.30142977E-01 0.12680594E+03</pdfrwt>
<totfact> 0.75247080E+03</totfact>
</mgrwt>
</event>
<event>
 7    1  0.2018715E-005  0.2409675E+03  0.7546771E-02  0.1124348E+00
         -2   -1    0    0    0  501 -0.00000000000E+00  0.00000000000E+00  0.16893243975E+03  0.16893243975E+03  0.00000000000E+00 0.  1.
          2   -1    0    0  501    0  0.00000000000E+00 -0.00000000000E+00 -0.30964520609E+03  0.30964520609E+03  0.00000000000E+00 0. -1.
         25    2    1    2    0    0  0.20520924501E+03 -0.18111582216E+02 -0.40398302528E+02  0.24433041452E+03  0.12500585972E+03 0.  0.
          5    1    3    3  502    0  0.80816517956E+02 -0.23808616552E+02 -0.77230953533E+02  0.11438911653E+03  0.47000000000E+01 0. -1.
         -5    1    3    3    0  502  0.12439272705E+03  0.56970343359E+01  0.36832651005E+02  0.12994129799E+03  0.47000000000E+01 0. -1.
          5    1    1    2  503    0 -0.16154652214E+03 -0.46126812901E+01 -0.83861556161E+02  0.18213568087E+03  0.47000000000E+01 0. -1.
         -5    1    1    2    0  503 -0.43662722865E+02  0.22724263506E+02 -0.16452907645E+02  0.52111550446E+02  0.47000000000E+01 0.  1.
<mgrwt>
<rscale>  0 0.23328629E+03</rscale>
<asrwt>0</asrwt>
<pdfrwt beam="1">  1        2 0.47637724E-01 0.24096748E+03</pdfrwt>
<pdfrwt beam="2">  1       -2 0.25989606E-01 0.24096748E+03</pdfrwt>
<totfact> 0.13972602E+03</totfact>
</mgrwt>
</event>
<event>
 7    1  0.2018715E-005  0.3049674E+03  0.7546771E-02  0.1087915E+00
          2   -1    0    0  501    0  0.00000000000E+00  0.00000000000E+00  0.85627579124E+03  0.85627579124E+03  0.00000000000E+00 0. -1.
         -2   -1    0    0    0  501 -0.00000000000E+00 -0.00000000000E+00 -0.99059785772E+02  0.99059785772E+02  0.00000000000E+00 0.  1.
         25    2    1    2    0    0 -0.18960723834E+03 -0.13842824498E+03  0.25931813352E+03  0.37146282397E+03  0.12500180549E+03 0.  0.
          5    1    3    3  502    0 -0.12996337763E+03 -0.49628290416E+02  0.21378988590E+03  0.25511105826E+03  0.47000000000E+01 0. -1.
         -5    1    1    2    0  503  0.18761040108E+02  0.84638247233E+02  0.47101931583E+02  0.98773941298E+02  0.47000000000E+01 0.  1.
          5    1    1    2  503    0  0.17084619824E+03  0.53789997748E+02  0.45079594036E+03  0.48509881174E+03  0.47000000000E+01 0. -1.
         -5    1    3    3    0  502 -0.59643860719E+02 -0.88799954566E+02  0.45528247627E+02  0.11635176571E+03  0.47000000000E+01 0. -1.
<mgrwt>
<rscale>  0 0.29471158E+03</rscale>
<asrwt>0</asrwt>
<pdfrwt beam="1">  1        2 0.13173473E+00 0.30496738E+03</pdfrwt>
<pdfrwt beam="2">  1       -2 0.15239968E-01 0.30496738E+03</pdfrwt>
<totfact> 0.10834996E+03</totfact>
</mgrwt>
</event>
<event>
 8    1  0.2018715E-005  0.1357001E+03  0.7546771E-02  0.1226654E+00
         -2   -1    0    0    0  501 -0.00000000000E+00  0.00000000000E+00  0.72167382202E+02  0.72167382202E+02  0.00000000000E+00 0.  1.
          2   -1    0    0  501    0  0.00000000000E+00 -0.00000000000E+00 -0.21983896295E+03  0.21983896295E+03  0.00000000000E+00 0. -1.
         25    2    1    2    0    0  0.47673913424E+02  0.22692383369E+02 -0.79785574612E+02  0.15741744198E+03  0.12500706716E+03 0.  0.
         23    2    1    2    0    0 -0.47673913424E+02 -0.22692383369E+02 -0.67886006141E+02  0.13458890317E+03  0.10352737195E+03 0.  0.
          5    1    3    3  502    0  0.89551894138E+02  0.65161031117E+01 -0.45730850140E+02  0.10087319762E+03  0.47000000000E+01 0.  1.
         -5    1    4    4    0  503 -0.57367029244E+01 -0.41313951499E+02  0.10834617262E+02  0.43350101270E+02  0.47000000000E+01 0.  1.
          5    1    4    4  503    0 -0.41937210499E+02  0.18621568129E+02 -0.78720623403E+02  0.91238801905E+02  0.47000000000E+01 0. -1.
         -5    1    3    3    0  502 -0.41877980714E+02  0.16176280257E+02 -0.34054724472E+02  0.56544244362E+02  0.47000000000E+01 0.  1.
<mgrwt>
<rscale>  0 0.13054179E+03</rscale>
<asrwt>0</asrwt>
<pdfrwt beam="1">  1        2 0.33821378E-01 0.13570009E+03</pdfrwt>
<pdfrwt beam="2">  1       -2 0.11102674E-01 0.13570009E+03</pdfrwt>
<totfact> 0.81604224E+03</totfact>
</mgrwt>
</event>
<event>
 7    1  0.2018715E-005  0.1435562E+03  0.7546771E-02  0.1210282E+00
         -3   -1    0    0    0  501 -0.00000000000E+00  0.00000000000E+00  0.19006287444E+02  0.19006287444E+02  0.00000000000E+00 0.  1.
          3   -1    0    0  501    0  0.00000000000E+00 -0.00000000000E+00 -0.10651079855E+04  0.10651079855E+04  0.00000000000E+00 0. -1.
         25    2    1    2    0    0  0.43471603794E+02 -0.40992356443E+02 -0.44293807940E+03  0.46410239891E+03  0.12500696327E+03 0.  0.
          5    1    3    3  502    0  0.29586605061E+02 -0.81204423302E+02 -0.20787790850E+03  0.22517735323E+03  0.47000000000E+01 0. -1.
         -5    1    3    3    0  502  0.13884998733E+02  0.40212066860E+02 -0.23506017090E+03  0.23892504568E+03  0.47000000000E+01 0. -1.
          5    1    1    2  503    0 -0.71639978312E+02  0.16335946436E+01 -0.50892575509E+03  0.51396738157E+03  0.47000000000E+01 0. -1.
         -5    1    1    2    0  503  0.28168374517E+02  0.39358761799E+02 -0.94237863570E+02  0.10604449247E+03  0.47000000000E+01 0.  1.
<mgrwt>
<rscale>  0 0.14228865E+03</rscale>
<asrwt>0</asrwt>
<pdfrwt beam="1">  1        3 0.16386277E+00 0.14355617E+03</pdfrwt>
<pdfrwt beam="2">  1       -3 0.29240442E-02 0.14355617E+03</pdfrwt>
<totfact> 0.34232850E+02</totfact>
</mgrwt>
</event>
<event>
 8    1  0.2018715E-005  0.1457182E+03  0.7546771E-02  0.1219643E+00
         -1   -1    0    0    0  501 -0.00000000000E+00  0.00000000000E+00  0.14687028191E+03  0.14687028191E+03  0.00000000000E+00 0.  1.
          1   -1    0    0  501    0  0.00000000000E+00 -0.00000000000E+00 -0.11440056965E+03  0.11440056965E+03  0.00000000000E+00 0. -1.
         25    2    1    2    0    0 -0.32419891991E+02  0.67508451319E+02  0.43456353279E+02  0.15205999564E+03  0.12500138894E+03 0.  0.
         23    2    1    2    0    0  0.32419891991E+02 -0.67508451319E+02 -0.10986641020E+02  0.10921085592E+03  0.78726516333E+02 0.  0.
          5    1    4    4  502    0  0.33765012192E+01 -0.29000856533E+02 -0.42227528207E+02  0.51552929875E+02  0.47000000000E+01 0. -1.
         -5    1    4    4    0  502  0.29043390772E+02 -0.38507594786E+02  0.31240887188E+02  0.57657926047E+02  0.47000000000E+01 0.  1.
          5    1    3    3  503    0  0.22635290523E+02 -0.18637123389E+02 -0.15967283418E+02  0.33715617820E+02  0.47000000000E+01 0. -1.
         -5    1    3    3    0  503 -0.55055182514E+02  0.86145574708E+02  0.59423636697E+02  0.11834437782E+03  0.47000000000E+01 0. -1.
<mgrwt>
<rscale>  0 0.13540963E+03</rscale>
<asrwt>0</asrwt>
<pdfrwt beam="1">  1        1 0.17600088E-01 0.14571818E+03</pdfrwt>
<pdfrwt beam="2">  1       -1 0.22595428E-01 0.14571818E+03</pdfrwt>
<totfact> 0.47752498E+03</totfact>
</mgrwt>
</event>
<event>
 8    1  0.2018715E-005  0.1467113E+03  0.7546771E-02  0.1219104E+00
          1   -1    0    0  501    0  0.00000000000E+00  0.00000000000E+00  0.15971247049E+04  0.15971247049E+04  0.00000000000E+00 0. -1.
         -1   -1    0    0    0  501 -0.00000000000E+00 -0.00000000000E+00 -0.10265378894E+02  0.10265378894E+02  0.00000000000E+00 0.  1.
         25    2    1    2    0    0 -0.76796792597E+02 -0.87026273550E+00  0.82223291992E+03  0.83521924892E+03  0.12500285779E+03 0.  0.
         23    2    1    2    0    0  0.76796792597E+02  0.87026273550E+00  0.76462640612E+03  0.77217083491E+03  0.75470210272E+02 0.  0.
          5    1    3    3  502    0 -0.27776375171E+02  0.59999993270E+02  0.30726683998E+03  0.31433505557E+03  0.47000000000E+01 0.  1.
         -5    1    3    3    0  502 -0.49020417426E+02 -0.60870256005E+02  0.51496607994E+03  0.52088419335E+03  0.47000000000E+01 0.  1.
          5    1    4    4  503    0  0.53951306486E+02 -0.35217350095E+02  0.44207931417E+03  0.44677423296E+03  0.47000000000E+01 0. -1.
         -5    1    4    4    0  503  0.22845486111E+02  0.36087612830E+02  0.32254709195E+03  0.32539660195E+03  0.47000000000E+01 0.  1.
<mgrwt>
<rscale>  0 0.13579324E+03</rscale>
<asrwt>0</asrwt>
<pdfrwt beam="1">  1        1 0.24571130E+00 0.14671135E+03</pdfrwt>
<pdfrwt beam="2">  1       -1 0.15792903E-02 0.14671135E+03</pdfrwt>
<totfact> 0.58855420E+03</totfact>
</mgrwt>
</event>
<event>
 8    1  0.2079147E-005  0.1942483E+03  0.7546771E-02  0.1157545E+00
         -2   -1    0    0    0  501 -0.00000000000E+00  0.00000000000E+00  0.34551145439E+02  0.34551145439E+02  0.00000000000E+00 0.  1.
          2   -1    0    0  501    0  0.00000000000E+00 -0.00000000000E+00 -0.10561589381E+04  0.10561589381E+04  0.00000000000E+00 0. -1.
         25    2    1    2    0    0 -0.14134090723E+03  0.46154308249E+02 -0.62480724383E+03  0.65430610872E+03  0.12499967895E+03 0.  0.
         23    2    1    2    0    0  0.14134090723E+03 -0.46154308249E+02 -0.39680054881E+03  0.43640397480E+03  0.10435651133E+03 0.  0.
          5    1    4    4  502    0  0.35042553389E+02 -0.59301586606E+02 -0.10632282600E+03  0.12677259976E+03  0.47000000000E+01 0. -1.
         -5    1    3    3    0  503  0.11203071908E+02  0.20616003239E+02 -0.21380722704E+03  0.21514215938E+03  0.47000000000E+01 0. -1.
          5    1    3    3  503    0 -0.15254397914E+03  0.25538305010E+02 -0.41100001679E+03  0.43916394933E+03  0.47000000000E+01 0. -1.
         -5    1    4    4    0  502  0.10629835384E+03  0.13147278357E+02 -0.29047772280E+03  0.30963137503E+03  0.47000000000E+01 0.  1.
<mgrwt>
<rscale>  0 0.19101982E+03</rscale>
<asrwt>0</asrwt>
<pdfrwt beam="1">  1        2 0.16248599E+00 0.19424827E+03</pdfrwt>
<pdfrwt beam="2">  1       -2 0.53155610E-02 0.19424827E+03</pdfrwt>
<totfact> 0.42849683E+03</totfact>
</mgrwt>
</event>
<event>
 8    1  0.2018715E-005  0.1567691E+03  0.7546771E-02  0.1204568E+00
          2   -1    0    0  501    0  0.00000000000E+00  0.00000000000E+00  0.68114309233E+03  0.68114309233E+03  0.00000000000E+00 0. -1.
         -2   -1    0    0    0  501 -0.00000000000E+00 -0.00000000000E+00 -0.28795554487E+02  0.28795554487E+02  0.00000000000E+00 0.  1.
         25    2    1    2    0    0  0.55232161712E+02  0.76820283223E+02  0.42017681093E+03  0.44846975009E+03  0.12499846678E+03 0.  0.
         23    2    1    2    0    0 -0.55232161712E+02 -0.76820283223E+02  0.23217072691E+03  0.26146889673E+03  0.74234694862E+02 0.  0.
          5    1    3    3  502    0  0.49068363827E+02  0.52694131813E+02  0.41668879047E+03  0.42289007314E+03  0.47000000000E+01 0.  1.
         -5    1    3    3    0  502  0.61637978852E+01  0.24126151410E+02  0.34880204666E+01  0.25579676953E+02  0.47000000000E+01 0.  1.
          5    1    4    4  503    0 -0.33166353139E+02 -0.13985015311E+02  0.25710877172E+02  0.44482882537E+02  0.47000000000E+01 0.  1.
         -5    1    4    4    0  503 -0.22065808573E+02 -0.62835267912E+02  0.20645984974E+03  0.21698601420E+03  0.47000000000E+01 0. -1.
<mgrwt>
<rscale>  0 0.14671575E+03</rscale>
<asrwt>0</asrwt>
<pdfrwt beam="1">  1        2 0.10479123E+00 0.15676914E+03</pdfrwt>
<pdfrwt beam="2">  1       -2 0.44300858E-02 0.15676914E+03</pdfrwt>
<totfact> 0.98630777E+03</totfact>
</mgrwt>
</event>
<event>
 7    1  0.2018715E-005  0.3045535E+03  0.7546771E-02  0.1083806E+00
          1   -1    0    0  501    0  0.00000000000E+00  0.00000000000E+00  0.72212934361E+03  0.72212934361E+03  0.00000000000E+00 0. -1.
         -1   -1    0    0    0  501 -0.00000000000E+00 -0.00000000000E+00 -0.12716094294E+03  0.12716094294E+03  0.00000000000E+00 0.  1.
         25    2    1    2    0    0  0.26948811077E+03  0.22871428315E+02  0.24829918508E+03  0.38784434424E+03  0.12499522379E+03 0.  0.
          5    1    1    2  502    0 -0.68109493411E+02  0.36971953111E+02  0.17008357918E+03  0.18696615286E+03  0.47000000000E+01 0. -1.
         -5    1    3    3    0  503  0.20141139927E+03 -0.30667680590E+02  0.21126495002E+03  0.29353369056E+03  0.47000000000E+01 0.  1.
          5    1    3    3  503    0  0.68076711504E+02  0.53539108905E+02  0.37034235059E+02  0.94310653682E+02  0.47000000000E+01 0.  1.
         -5    1    1    2    0  502 -0.20137861736E+03 -0.59843381427E+02  0.17658563641E+03  0.27447978945E+03  0.47000000000E+01 0.  1.
<mgrwt>
<rscale>  0 0.30288753E+03</rscale>
<asrwt>0</asrwt>
<pdfrwt beam="1">  1        1 0.11109682E+00 0.30455346E+03</pdfrwt>
<pdfrwt beam="2">  1       -1 0.19563222E-01 0.30455346E+03</pdfrwt>
<totfact> 0.56443184E+02</totfact>
</mgrwt>
</event>
<event>
 8    1  0.2018715E-005  0.1480723E+03  0.7546771E-02  0.1205256E+00
         -1   -1    0    0    0  501 -0.00000000000E+00  0.00000000000E+00  0.41640724605E+02  0.41640724605E+02  0.00000000000E+00 0.  1.
          1   -1    0    0  501    0  0.00000000000E+00 -0.00000000000E+00 -0.50223344129E+03  0.50223344129E+03  0.00000000000E+00 0. -1.
         25    2    1    2    0    0 -0.79222726976E+02  0.48207343221E+01 -0.21967135080E+03  0.26491680111E+03  0.12500371675E+03 0.  0.
         23    2    1    2    0    0  0.79222726976E+02 -0.48207343221E+01 -0.24092136589E+03  0.27895736479E+03  0.11608026050E+03 0.  0.
          5    1    4    4  502    0  0.25627717266E+02 -0.23813442499E+02 -0.21213571064E+03  0.21505234168E+03  0.47000000000E+01 0. -1.
         -5    1    3    3    0  503 -0.97157438923E+02 -0.83817314700E+01 -0.88460963703E+02  0.13174692960E+03  0.47000000000E+01 0. -1.
          5    1    3    3  503    0  0.17934711948E+02  0.13202465792E+02 -0.13121038710E+03  0.13316987151E+03  0.47000000000E+01 0. -1.
         -5    1    4    4    0  502  0.53595009709E+02  0.18992708177E+02 -0.28785655251E+02  0.63905023104E+02  0.47000000000E+01 0.  1.
<mgrwt>
<rscale>  0 0.14617311E+03</rscale>
<asrwt>0</asrwt>
<pdfrwt beam="1">  1        1 0.77266682E-01 0.14807231E+03</pdfrwt>
<pdfrwt beam="2">  1       -1 0.64062654E-02 0.14807231E+03</pdfrwt>
<totfact> 0.52547340E+03</totfact>
</mgrwt>
</event>
<event>
 8    1  0.2018715E-005  0.1381417E+03  0.7546771E-02  0.1236422E+00
         -2   -1    0    0    0  501 -0.00000000000E+00  0.00000000000E+00  0.51613970931E+03  0.51613970931E+03  0.00000000000E+00 0. -1.
          2   -1    0    0  501    0  0.00000000000E+00 -0.00000000000E+00 -0.27012454861E+02  0.27012454861E+02  0.00000000000E+00 0.  1.
         25    2    1    2    0    0 -0.12762903356E+02 -0.57400473528E+02  0.36097454152E+03  0.38650453503E+03  0.12500171964E+03 0.  0.
         23    2    1    2    0    0  0.12762903356E+02  0.57400473528E+02  0.12815271293E+03  0.15664762914E+03  0.68247020599E+02 0.  0.
          5    1    4    4  502    0 -0.20332917803E+02  0.84486269368E+01  0.70305424055E+02  0.73822418648E+02  0.47000000000E+01 0. -1.
         -5    1    3    3    0  503  0.51476746742E+02 -0.51635404477E+02  0.20627527061E+03  0.21883246494E+03  0.47000000000E+01 0.  1.
          5    1    3    3  503    0 -0.64239650098E+02 -0.57650690509E+01  0.15469927091E+03  0.16767207009E+03  0.47000000000E+01 0.  1.
         -5    1    4    4    0  502  0.33095821159E+02  0.48951846591E+02  0.57847288876E+02  0.82825210492E+02  0.47000000000E+01 0.  1.
<mgrwt>
<rscale>  0 0.12413869E+03</rscale>
<asrwt>0</asrwt>
<pdfrwt beam="1">  1        2 0.41557627E-02 0.13814172E+03</pdfrwt>
<pdfrwt beam="2">  1       -2 0.79406102E-01 0.13814172E+03</pdfrwt>
<totfact> 0.27899701E+03</totfact>
</mgrwt>
</event>
<event>
 8    1  0.2018715E-005  0.1284537E+03  0.7546771E-02  0.1258324E+00
         -2   -1    0    0    0  501 -0.00000000000E+00  0.00000000000E+00  0.23443212429E+02  0.23443212429E+02  0.00000000000E+00 0.  1.
          2   -1    0    0  501    0  0.00000000000E+00 -0.00000000000E+00 -0.43165954662E+03  0.43165954662E+03  0.00000000000E+00 0. -1.
         25    2    1    2    0    0 -0.27186437227E+02  0.11345180930E+02 -0.24501632282E+03  0.27664663450E+03  0.12503018209E+03 0.  0.
         23    2    1    2    0    0  0.27186437227E+02 -0.11345180930E+02 -0.16320001137E+03  0.17845612454E+03  0.65913042544E+02 0.  0.
          5    1    3    3  502    0 -0.53108440402E+02  0.35727706876E+02 -0.58934230495E+02  0.87133856821E+02  0.47000000000E+01 0. -1.
         -5    1    4    4    0  503  0.46255040005E+02  0.43238550406E+01 -0.97141757159E+02  0.10778142434E+03  0.47000000000E+01 0.  1.
          5    1    4    4  503    0 -0.19068602778E+02 -0.15669035971E+02 -0.66058254208E+02  0.70674700206E+02  0.47000000000E+01 0. -1.
         -5    1    3    3    0  502  0.25922003175E+02 -0.24382525946E+02 -0.18608209233E+03  0.18951277768E+03  0.47000000000E+01 0. -1.
<mgrwt>
<rscale>  0 0.11122161E+03</rscale>
<asrwt>0</asrwt>
<pdfrwt beam="1">  1        2 0.66409165E-01 0.12845373E+03</pdfrwt>
<pdfrwt beam="2">  1       -2 0.36066478E-02 0.12845373E+03</pdfrwt>
<totfact> 0.21986658E+04</totfact>
</mgrwt>
</event>
<event>
 8    1  0.2018715E-005  0.1251696E+03  0.7546771E-02  0.1243163E+00
         -1   -1    0    0    0  501 -0.00000000000E+00  0.00000000000E+00  0.67814201552E+02  0.67814201552E+02  0.00000000000E+00 0.  1.
          1   -1    0    0  501    0  0.00000000000E+00 -0.00000000000E+00 -0.24720299713E+03  0.24720299713E+03  0.00000000000E+00 0. -1.
         25    2    1    2    0    0 -0.56622160198E+01  0.34753158055E+01 -0.24479886990E+02  0.12754090746E+03  0.12499311861E+03 0.  0.
         23    2    1    2    0    0  0.56622160198E+01 -0.34753158055E+01 -0.15490890859E+03  0.18747629122E+03  0.10538714959E+03 0.  0.
          5    1    4    4  502    0 -0.29894879898E+02 -0.41656957329E+02 -0.93666975223E+02  0.10688591201E+03  0.47000000000E+01 0. -1.
         -5    1    3    3    0  503 -0.28924253936E+01  0.50154434160E+02 -0.52507293147E+02  0.72821282770E+02  0.47000000000E+01 0.  1.
          5    1    3    3  503    0 -0.27697906262E+01 -0.46679118355E+02  0.28027406157E+02  0.54719624692E+02  0.47000000000E+01 0.  1.
         -5    1    4    4    0  502  0.35557095917E+02  0.38181641524E+02 -0.61241933364E+02  0.80590379213E+02  0.47000000000E+01 0.  1.
<mgrwt>
<rscale>  0 0.11995995E+03</rscale>
<asrwt>0</asrwt>
<pdfrwt beam="1">  1        1 0.38031231E-01 0.12516956E+03</pdfrwt>
<pdfrwt beam="2">  1       -1 0.10432954E-01 0.12516956E+03</pdfrwt>
<totfact> 0.60628005E+03</totfact>
</mgrwt>
</event>
<event>
 8    1  0.2018715E-005  0.2185675E+03  0.7546771E-02  0.1140339E+00
          2   -1    0    0  501    0  0.00000000000E+00  0.00000000000E+00  0.13420726698E+04  0.13420726698E+04  0.00000000000E+00 0. -1.
         -2   -1    0    0    0  501 -0.00000000000E+00 -0.00000000000E+00 -0.31422990418E+02  0.31422990418E+02  0.00000000000E+00 0.  1.
         25    2    1    2    0    0  0.26187374651E+02  0.17737146676E+03  0.67165812081E+03  0.70632596967E+03  0.12500131347E+03 0.  0.
         23    2    1    2    0    0 -0.26187374651E+02 -0.17737146676E+03  0.63899155861E+03  0.66716969059E+03  0.68255170123E+02 0.  0.
          5    1    4    4  502    0 -0.31987021469E+02 -0.43713796973E+02  0.13097679365E+03  0.14181352567E+03  0.47000000000E+01 0. -1.
         -5    1    4    4    0  502  0.57996468173E+01 -0.13365766979E+03  0.50801476496E+03  0.52535616492E+03  0.47000000000E+01 0.  1.
          5    1    3    3  503    0  0.23976791441E+02  0.13822358483E+03  0.64138963299E+03  0.65656941540E+03  0.47000000000E+01 0.  1.
         -5    1    3    3    0  503  0.22105832103E+01  0.39147881931E+02  0.30268487816E+02  0.49756554267E+02  0.47000000000E+01 0.  1.
<mgrwt>
<rscale>  0 0.21155719E+03</rscale>
<asrwt>0</asrwt>
<pdfrwt beam="1">  1        2 0.20647267E+00 0.21856748E+03</pdfrwt>
<pdfrwt beam="2">  1       -2 0.48343073E-02 0.21856748E+03</pdfrwt>
<totfact> 0.34182626E+03</totfact>
</mgrwt>
</event>
<event>
 8    1  0.2018715E-005  0.1776900E+03  0.7546771E-02  0.1177871E+00
         -1   -1    0    0    0  501 -0.00000000000E+00  0.00000000000E+00  0.22387888740E+03  0.22387888740E+03  0.00000000000E+00 0.  1.
          1   -1    0    0  501    0  0.00000000000E+00 -0.00000000000E+00 -0.12251637777E+03  0.12251637777E+03  0.00000000000E+00 0. -1.
         25    2    1    2    0    0 -0.87360081664E+02  0.91195050353E+02  0.84158075628E+02  0.19661205866E+03  0.12500159534E+03 0.  0.
         23    2    1    2    0    0  0.87360081664E+02 -0.91195050353E+02  0.17204434005E+02  0.14978320651E+03  0.78680971815E+02 0.  0.
          5    1    4    4  502    0  0.65540361632E+02 -0.97914970041E+02 -0.43996525676E+01  0.11800138687E+03  0.47000000000E+01 0. -1.
         -5    1    4    4    0  502  0.21819720032E+02  0.67199196877E+01  0.21604086573E+02  0.31781819638E+02  0.47000000000E+01 0.  1.
          5    1    3    3  503    0 -0.22083509316E+02 -0.26630636235E+02 -0.46222122932E+01  0.35218276739E+02  0.47000000000E+01 0. -1.
         -5    1    3    3    0  503 -0.65276572349E+02  0.11782568659E+03  0.88780287921E+02  0.16139378192E+03  0.47000000000E+01 0. -1.
<mgrwt>
<rscale>  0 0.16997770E+03</rscale>
<asrwt>0</asrwt>
<pdfrwt beam="1">  1        1 0.18848674E-01 0.17768995E+03</pdfrwt>
<pdfrwt beam="2">  1       -1 0.34442906E-01 0.17768995E+03</pdfrwt>
<totfact> 0.21810346E+03</totfact>
</mgrwt>
</event>
<event>
 8    1  0.2018715E-005  0.1549141E+03  0.7546771E-02  0.1207784E+00
         -1   -1    0    0    0  501 -0.00000000000E+00  0.00000000000E+00  0.16798217902E+03  0.16798217902E+03  0.00000000000E+00 0.  1.
          1   -1    0    0  501    0  0.00000000000E+00 -0.00000000000E+00 -0.11424296399E+03  0.11424296399E+03  0.00000000000E+00 0. -1.
         25    2    1    2    0    0  0.59645793834E+02 -0.69384964280E+02  0.19986827095E+01  0.15492695358E+03  0.12500588875E+03 0.  0.
         23    2    1    2    0    0 -0.59645793834E+02  0.69384964280E+02  0.51740532320E+02  0.12729818944E+03  0.71804264224E+02 0.  0.
          5    1    4    4  502    0 -0.30495862209E+02 -0.25150872830E+01 -0.46023339614E+01  0.31298478458E+02  0.47000000000E+01 0. -1.
         -5    1    4    4    0  502 -0.29149931625E+02  0.71900051563E+02  0.56342866282E+02  0.95999710986E+02  0.47000000000E+01 0.  1.
          5    1    3    3  503    0  0.46447939197E+02  0.75854219074E+01 -0.43638989822E+02  0.64353718726E+02  0.47000000000E+01 0. -1.
         -5    1    3    3    0  503  0.13197854637E+02 -0.76970386188E+02  0.45637672532E+02  0.90573234849E+02  0.47000000000E+01 0. -1.
<mgrwt>
<rscale>  0 0.14420201E+03</rscale>
<asrwt>0</asrwt>
<pdfrwt beam="1">  1        1 0.17575841E-01 0.15491406E+03</pdfrwt>
<pdfrwt beam="2">  1       -1 0.25843412E-01 0.15491406E+03</pdfrwt>
<totfact> 0.38510913E+03</totfact>
</mgrwt>
</event>
<event>
 8    1  0.2018715E-005  0.5568508E+03  0.7546771E-02  0.1000111E+00
          2   -1    0    0  501    0  0.00000000000E+00  0.00000000000E+00  0.85162321398E+03  0.85162321398E+03  0.00000000000E+00 0. -1.
         -2   -1    0    0    0  501 -0.00000000000E+00 -0.00000000000E+00 -0.41476548629E+03  0.41476548629E+03  0.00000000000E+00 0.  1.
         25    2    1    2    0    0  0.38574426401E+03  0.38165807136E+03 -0.69924046254E+01  0.55689470997E+03  0.12498521361E+03 0.  0.
         23    2    1    2    0    0 -0.38574426401E+03 -0.38165807136E+03  0.44385013231E+03  0.70949399030E+03  0.10916621126E+03 0.  0.
          5    1    3    3  502    0  0.31014971662E+03  0.27039727522E+03  0.42059759786E+02  0.41364072159E+03  0.47000000000E+01 0.  1.
         -5    1    4    4    0  503 -0.19326104476E+03 -0.26610114785E+03  0.25911309823E+03  0.41871391186E+03  0.47000000000E+01 0.  1.
          5    1    4    4  503    0 -0.19248321924E+03 -0.11555692351E+03  0.18473703407E+03  0.29078007844E+03  0.47000000000E+01 0. -1.
         -5    1    3    3    0  502  0.75594547382E+02  0.11126079614E+03 -0.49052164412E+02  0.14325398837E+03  0.47000000000E+01 0.  1.
<mgrwt>
<rscale>  0 0.55601496E+03</rscale>
<asrwt>0</asrwt>
<pdfrwt beam="1">  1        2 0.13101895E+00 0.55685081E+03</pdfrwt>
<pdfrwt beam="2">  1       -2 0.63810075E-01 0.55685081E+03</pdfrwt>
<totfact> 0.74083810E+01</totfact>
</mgrwt>
</event>
<event>
 8    1  0.2018715E-005  0.1483549E+03  0.7546771E-02  0.1208405E+00
          3   -1    0    0  501    0  0.00000000000E+00  0.00000000000E+00  0.48009243798E+02  0.48009243798E+02  0.00000000000E+00 0. -1.
         -3   -1    0    0    0  501 -0.00000000000E+00 -0.00000000000E+00 -0.46163721730E+03  0.46163721730E+03  0.00000000000E+00 0.  1.
         25    2    1    2    0    0  0.79574101941E+02 -0.72210122377E+01 -0.30707445788E+03  0.34103358347E+03  0.12500000661E+03 0.  0.
         23    2    1    2    0    0 -0.79574101941E+02  0.72210122377E+01 -0.10655351562E+03  0.16861287763E+03  0.10340440075E+03 0.  0.
          5    1    4    4  502    0 -0.72966609412E+02 -0.39026062634E+02 -0.77028627115E+02  0.11314883583E+03  0.47000000000E+01 0. -1.
         -5    1    3    3    0  503  0.14177840642E+02 -0.61200229414E+02 -0.11804969794E+03  0.13380695209E+03  0.47000000000E+01 0. -1.
          5    1    3    3  503    0  0.65396261298E+02  0.53979217176E+02 -0.18902475994E+03  0.20722663137E+03  0.47000000000E+01 0. -1.
         -5    1    4    4    0  502 -0.66074925290E+01  0.46247074871E+02 -0.29524888503E+02  0.55464041800E+02  0.47000000000E+01 0.  1.
<mgrwt>
<rscale>  0 0.14372318E+03</rscale>
<asrwt>0</asrwt>
<pdfrwt beam="1">  1        3 0.73860374E-02 0.14835492E+03</pdfrwt>
<pdfrwt beam="2">  1       -3 0.71021112E-01 0.14835492E+03</pdfrwt>
<totfact> 0.55046619E+02</totfact>
</mgrwt>
</event>
<event>
 8    1  0.2018715E-005  0.1900662E+03  0.7546771E-02  0.1160732E+00
         -1   -1    0    0    0  501 -0.00000000000E+00  0.00000000000E+00  0.27233019130E+03  0.27233019130E+03  0.00000000000E+00 0.  1.
          1   -1    0    0  501    0  0.00000000000E+00 -0.00000000000E+00 -0.13156520123E+03  0.13156520123E+03  0.00000000000E+00 0. -1.
         25    2    1    2    0    0 -0.13996198153E+03  0.30199435770E+02  0.29707804172E+02  0.19237388503E+03  0.12499518318E+03 0.  0.
         23    2    1    2    0    0  0.13996198153E+03 -0.30199435770E+02  0.11105718590E+03  0.21152150750E+03  0.10911593560E+03 0.  0.
          5    1    3    3  502    0 -0.11581417416E+03  0.40201894030E+02 -0.30631026771E+02  0.12644945639E+03  0.47000000000E+01 0.  1.
         -5    1    3    3    0  502 -0.24147807370E+02 -0.10002458261E+02  0.60338830943E+02  0.65924428640E+02  0.47000000000E+01 0.  1.
          5    1    4    4  503    0  0.12971856020E+03 -0.48977671907E+02  0.51367091549E+02  0.14794047891E+03  0.47000000000E+01 0. -1.
         -5    1    4    4    0  503  0.10243421330E+02  0.18778236138E+02  0.59690094351E+02  0.63581028591E+02  0.47000000000E+01 0.  1.
<mgrwt>
<rscale>  0 0.18750360E+03</rscale>
<asrwt>0</asrwt>
<pdfrwt beam="1">  1        1 0.20240800E-01 0.19006619E+03</pdfrwt>
<pdfrwt beam="2">  1       -1 0.41896952E-01 0.19006619E+03</pdfrwt>
<totfact> 0.14152802E+03</totfact>
</mgrwt>
</event>
<event>
 8    1  0.2018715E-005  0.1401629E+03  0.7546771E-02  0.1230824E+00
         -1   -1    0    0    0  501 -0.00000000000E+00  0.00000000000E+00  0.39133583879E+02  0.39133583879E+02  0.00000000000E+00 0.  1.
          1   -1    0    0  501    0  0.00000000000E+00 -0.00000000000E+00 -0.36008443173E+03  0.36008443173E+03  0.00000000000E+00 0. -1.
         25    2    1    2    0    0 -0.27972788528E+02 -0.56914492266E+02 -0.17693959129E+03  0.22572829893E+03  0.12499563850E+03 0.  0.
         23    2    1    2    0    0  0.27972788528E+02  0.56914492266E+02 -0.14401125656E+03  0.17348971668E+03  0.73059588347E+02 0.  0.
          5    1    3    3  502    0 -0.44835809850E+02 -0.78075513044E+01 -0.16635342482E+03  0.17253046007E+03  0.47000000000E+01 0. -1.
         -5    1    4    4    0  503 -0.15895710285E+01  0.52895092502E+02 -0.43888646899E+02  0.68910963376E+02  0.47000000000E+01 0.  1.
          5    1    4    4  503    0  0.29562359556E+02  0.40193997647E+01 -0.10012260966E+03  0.10457875330E+03  0.47000000000E+01 0. -1.
         -5    1    3    3    0  502  0.16863021323E+02 -0.49106940962E+02 -0.10586166468E+02  0.53197838859E+02  0.47000000000E+01 0. -1.
<mgrwt>
<rscale>  0 0.12775594E+03</rscale>
<asrwt>0</asrwt>
<pdfrwt beam="1">  1        1 0.55397604E-01 0.14016293E+03</pdfrwt>
<pdfrwt beam="2">  1       -1 0.60205514E-02 0.14016293E+03</pdfrwt>
<totfact> 0.87833245E+03</totfact>
</mgrwt>
</event>
<event>
 8    1  0.2018715E-005  0.1651193E+03  0.7546771E-02  0.1184891E+00
         -4   -1    0    0    0  501 -0.00000000000E+00  0.00000000000E+00  0.82353562078E+02  0.82353562078E+02  0.00000000000E+00 0.  1.
          4   -1    0    0  501    0  0.00000000000E+00 -0.00000000000E+00 -0.32598695844E+03  0.32598695844E+03  0.00000000000E+00 0. -1.
         25    2    1    2    0    0  0.77430051428E+02 -0.75159036975E+02 -0.91855349792E+02  0.18894919751E+03  0.12498039947E+03 0.  0.
         23    2    1    2    0    0 -0.77430051428E+02  0.75159036975E+02 -0.15177804657E+03  0.21939132301E+03  0.11598139285E+03 0.  0.
          5    1    4    4  502    0 -0.48667914884E+02  0.10554092660E+03 -0.11118947891E+03  0.16091191176E+03  0.47000000000E+01 0. -1.
         -5    1    3    3    0  503  0.59068703040E+02  0.22905351776E+02 -0.49156892637E+02  0.80325941716E+02  0.47000000000E+01 0. -1.
          5    1    3    3  503    0  0.18361348388E+02 -0.98064388752E+02 -0.42698457155E+02  0.10862325579E+03  0.47000000000E+01 0. -1.
         -5    1    4    4    0  502 -0.28762136544E+02 -0.30381889621E+02 -0.40588567664E+02  0.58479411253E+02  0.47000000000E+01 0.  1.
<mgrwt>
<rscale>  0 0.16341765E+03</rscale>
<asrwt>0</asrwt>
<pdfrwt beam="1">  1        4 0.50151839E-01 0.16511933E+03</pdfrwt>
<pdfrwt beam="2">  1       -4 0.12669779E-01 0.16511933E+03</pdfrwt>
<totfact> 0.33615047E+02</totfact>
</mgrwt>
</event>
<event>
 8    1  0.2018715E-005  0.1282153E+03  0.7546771E-02  0.1251197E+00
          3   -1    0    0  501    0  0.00000000000E+00  0.00000000000E+00  0.65721332602E+02  0.65721332602E+02  0.00000000000E+00 0. -1.
         -3   -1    0    0    0  501 -0.00000000000E+00 -0.00000000000E+00 -0.17473412463E+03  0.17473412463E+03  0.00000000000E+00 0.  1.
         25    2    1    2    0    0 -0.20235251166E+02  0.20151315939E+02 -0.47834839517E+02  0.13684784877E+03  0.12499448355E+03 0.  0.
         23    2    1    2    0    0  0.20235251166E+02 -0.20151315939E+02 -0.61177952516E+02  0.10360760847E+03  0.78589145147E+02 0.  0.
          5    1    4    4  502    0 -0.19496904162E+01 -0.26328211459E+02  0.10023227059E+02  0.28627453468E+02  0.47000000000E+01 0. -1.
         -5    1    3    3    0  503  0.23816180543E+02 -0.23892858996E+02  0.23986468497E+02  0.41659570780E+02  0.47000000000E+01 0. -1.
          5    1    3    3  503    0 -0.44051431709E+02  0.44044174935E+02 -0.71821308013E+02  0.95188277987E+02  0.47000000000E+01 0. -1.
         -5    1    4    4    0  502  0.22184941582E+02  0.61768955200E+01 -0.71201179575E+02  0.74980155002E+02  0.47000000000E+01 0.  1.
<mgrwt>
<rscale>  0 0.11522016E+03</rscale>
<asrwt>0</asrwt>
<pdfrwt beam="1">  1        3 0.10110974E-01 0.12821529E+03</pdfrwt>
<pdfrwt beam="2">  1       -3 0.26882172E-01 0.12821529E+03</pdfrwt>
<totfact> 0.21609134E+03</totfact>
</mgrwt>
</event>
<event>
 8    1  0.2018715E-005  0.1411464E+03  0.7546771E-02  0.1227885E+00
         -2   -1    0    0    0  501 -0.00000000000E+00  0.00000000000E+00  0.92500517249E+02  0.92500517249E+02  0.00000000000E+00 0. -1.
          2   -1    0    0  501    0  0.00000000000E+00 -0.00000000000E+00 -0.53558113611E+03  0.53558113611E+03  0.00000000000E+00 0.  1.
         25    2    1    2    0    0 -0.65024957302E+02 -0.80962973603E+01 -0.49505809474E+03  0.51478620527E+03  0.12501409868E+03 0.  0.
         23    2    1    2    0    0  0.65024957302E+02  0.80962973603E+01  0.51977475879E+02  0.11329544809E+03  0.76422545464E+02 0.  0.
          5    1    3    3  502    0 -0.98739502942E+02  0.14884409484E+02 -0.35993407285E+03  0.37355811045E+03  0.47000000000E+01 0. -1.
         -5    1    3    3    0  502  0.33714545639E+02 -0.22980706844E+02 -0.13512402189E+03  0.14122809482E+03  0.47000000000E+01 0. -1.
          5    1    4    4  503    0  0.38061630317E+02 -0.26752241504E+02  0.50692403130E+02  0.68965062626E+02  0.47000000000E+01 0. -1.
         -5    1    4    4    0  503  0.26963326985E+02  0.34848538864E+02  0.12850727485E+01  0.44330385461E+02  0.47000000000E+01 0.  1.
<mgrwt>
<rscale>  0 0.12971080E+03</rscale>
<asrwt>0</asrwt>
<pdfrwt beam="1">  1        2 0.82397096E-01 0.14114645E+03</pdfrwt>
<pdfrwt beam="2">  1       -2 0.14230849E-01 0.14114645E+03</pdfrwt>
<totfact> 0.21132884E+03</totfact>
</mgrwt>
</event>
<event>
 8    1  0.2018715E-005  0.2370113E+03  0.7546771E-02  0.1122958E+00
          1   -1    0    0  501    0  0.00000000000E+00  0.00000000000E+00  0.32038022604E+03  0.32038022604E+03  0.00000000000E+00 0. -1.
         -1   -1    0    0    0  501 -0.00000000000E+00 -0.00000000000E+00 -0.19524570746E+03  0.19524570746E+03  0.00000000000E+00 0.  1.
         25    2    1    2    0    0 -0.63452199711E+02  0.19111203381E+03 -0.28625517913E+02  0.23873370072E+03  0.12499747384E+03 0.  0.
         23    2    1    2    0    0  0.63452199711E+02 -0.19111203381E+03  0.15376003650E+03  0.27689223278E+03  0.11170124723E+03 0.  0.
          5    1    3    3  502    0  0.22394264651E+02  0.12233306043E+03 -0.32277006181E+02  0.12857206497E+03  0.47000000000E+01 0.  1.
         -5    1    4    4    0  503 -0.11742601037E+02 -0.37229292272E+02 -0.92582011481E+01  0.40394469556E+02  0.47000000000E+01 0.  1.
          5    1    4    4  503    0  0.75194800748E+02 -0.15388274154E+03  0.16301823765E+03  0.23649776322E+03  0.47000000000E+01 0. -1.
         -5    1    3    3    0  502 -0.85846464362E+02  0.68778973385E+02  0.36514882682E+01  0.11016163574E+03  0.47000000000E+01 0.  1.
<mgrwt>
<rscale>  0 0.23530930E+03</rscale>
<asrwt>0</asrwt>
<pdfrwt beam="1">  1        1 0.49289265E-01 0.23701131E+03</pdfrwt>
<pdfrwt beam="2">  1       -1 0.30037801E-01 0.23701131E+03</pdfrwt>
<totfact> 0.82327134E+02</totfact>
</mgrwt>
</event>
<event>
 8    1  0.2018715E-005  0.2804331E+03  0.7546771E-02  0.1098059E+00
         -2   -1    0    0    0  501 -0.00000000000E+00  0.00000000000E+00  0.18441228538E+03  0.18441228538E+03  0.00000000000E+00 0.  1.
          2   -1    0    0  501    0  0.00000000000E+00 -0.00000000000E+00 -0.43486228820E+03  0.43486228820E+03  0.00000000000E+00 0. -1.
         25    2    1    2    0    0 -0.58147241355E+02  0.24420608827E+03 -0.40092292050E+02  0.28328449513E+03  0.12499999230E+03 0.  0.
         23    2    1    2    0    0  0.58147241355E+02 -0.24420608827E+03 -0.21035771077E+03  0.33599007845E+03  0.74975003252E+02 0.  0.
          5    1    4    4  502    0 -0.94572950230E+01 -0.11426194098E+03 -0.10451994562E+03  0.15521514301E+03  0.47000000000E+01 0. -1.
         -5    1    4    4    0  502  0.67604536378E+02 -0.12994414729E+03 -0.10583776514E+03  0.18077493544E+03  0.47000000000E+01 0.  1.
          5    1    3    3  503    0 -0.41439064626E+02  0.33663523151E+02 -0.47903038052E+02  0.71883377234E+02  0.47000000000E+01 0. -1.
         -5    1    3    3    0  503 -0.16708176729E+02  0.21054256512E+03  0.78107460016E+01  0.21140111790E+03  0.47000000000E+01 0. -1.
<mgrwt>
<rscale>  0 0.27570413E+03</rscale>
<asrwt>0</asrwt>
<pdfrwt beam="1">  1        2 0.66901889E-01 0.28043308E+03</pdfrwt>
<pdfrwt beam="2">  1       -2 0.28371121E-01 0.28043308E+03</pdfrwt>
<totfact> 0.82642968E+02</totfact>
</mgrwt>
</event>
<event>
 8    1  0.2662671E-005  0.2417678E+03  0.7546771E-02  0.1122450E+00
          1   -1    0    0  501    0  0.00000000000E+00  0.00000000000E+00  0.33307348702E+04  0.33307348702E+04  0.00000000000E+00 0. -1.
         -1   -1    0    0    0  501 -0.00000000000E+00 -0.00000000000E+00 -0.16218350623E+02  0.16218350623E+02  0.00000000000E+00 0.  1.
         25    2    1    2    0    0  0.20345034888E+03 -0.37876469211E+02  0.15345657063E+04  0.15534939831E+04  0.12499990817E+03 0.  0.
         23    2    1    2    0    0 -0.20345034888E+03  0.37876469211E+02  0.17799508133E+04  0.17934592378E+04  0.73786641681E+02 0.  0.
          5    1    4    4  502    0 -0.17177222337E+03  0.57882100508E+02  0.15209722766E+04  0.15317424034E+04  0.47000000000E+01 0. -1.
         -5    1    3    3    0  503  0.10101692952E+03 -0.68514962365E+02  0.56583435401E+03  0.57886900616E+03  0.47000000000E+01 0.  1.
          5    1    3    3  503    0  0.10243341936E+03  0.30638493154E+02  0.96873135229E+03  0.97462497689E+03  0.47000000000E+01 0.  1.
         -5    1    4    4    0  502 -0.31678125504E+02 -0.20005631297E+02  0.25897853673E+03  0.26171683439E+03  0.47000000000E+01 0.  1.
<mgrwt>
<rscale>  0 0.23605311E+03</rscale>
<asrwt>0</asrwt>
<pdfrwt beam="1">  1        1 0.51242020E+00 0.24176776E+03</pdfrwt>
<pdfrwt beam="2">  1       -1 0.24951335E-02 0.24176776E+03</pdfrwt>
<totfact> 0.20923396E+02</totfact>
</mgrwt>
</event>
<event>
 8    1  0.2018715E-005  0.1415699E+03  0.7546771E-02  0.1227347E+00
          2   -1    0    0  501    0  0.00000000000E+00  0.00000000000E+00  0.21565815948E+03  0.21565815948E+03  0.00000000000E+00 0. -1.
         -2   -1    0    0    0  501 -0.00000000000E+00 -0.00000000000E+00 -0.73338085438E+02  0.73338085438E+02  0.00000000000E+00 0.  1.
         25    2    1    2    0    0  0.46049262995E+02 -0.47931183717E+02  0.12019236301E+03  0.18571007602E+03  0.12499638080E+03 0.  0.
         23    2    1    2    0    0 -0.46049262995E+02  0.47931183717E+02  0.22127711035E+02  0.10328616890E+03  0.75897721280E+02 0.  0.
          5    1    4    4  502    0 -0.33801403302E+02  0.80541036575E+01  0.43748332209E+02  0.56066121874E+02  0.47000000000E+01 0. -1.
         -5    1    3    3    0  503 -0.18323591179E+02  0.15207172882E+02  0.85674667819E+02  0.89046340782E+02  0.47000000000E+01 0. -1.
          5    1    3    3  503    0  0.64372854174E+02 -0.63138356599E+02  0.34517695187E+02  0.96663735234E+02  0.47000000000E+01 0. -1.
         -5    1    4    4    0  502 -0.12247859693E+02  0.39877080059E+02 -0.21620621175E+02  0.47220047025E+02  0.47000000000E+01 0.  1.
<mgrwt>
<rscale>  0 0.13007327E+03</rscale>
<asrwt>0</asrwt>
<pdfrwt beam="1">  1        2 0.33178178E-01 0.14156987E+03</pdfrwt>
<pdfrwt beam="2">  1       -2 0.11282782E-01 0.14156987E+03</pdfrwt>
<totfact> 0.81447803E+03</totfact>
</mgrwt>
</event>
<event>
 8    1  0.2018715E-005  0.1338292E+03  0.7546771E-02  0.1226029E+00
         -2   -1    0    0    0  501 -0.00000000000E+00  0.00000000000E+00  0.91889817148E+02  0.91889817148E+02  0.00000000000E+00 0.  1.
          2   -1    0    0  501    0  0.00000000000E+00 -0.00000000000E+00 -0.27011219681E+03  0.27011219681E+03  0.00000000000E+00 0. -1.
         25    2    1    2    0    0  0.34739655505E+02  0.32838691066E+02 -0.19666856545E+03  0.23788394702E+03  0.12500009727E+03 0.  0.
         23    2    1    2    0    0 -0.34739655505E+02 -0.32838691066E+02  0.18446185795E+02  0.12411806693E+03  0.11304781941E+03 0.  0.
          5    1    3    3  502    0  0.19804725011E+02 -0.41523178330E+02 -0.31157100826E+02  0.55760706625E+02  0.47000000000E+01 0. -1.
         -5    1    4    4    0  503 -0.33001849961E+02  0.35773004499E+02  0.25171504681E+02  0.54995678009E+02  0.47000000000E+01 0.  1.
          5    1    4    4  503    0 -0.17378055431E+01 -0.68611695566E+02 -0.67253188859E+01  0.69122388925E+02  0.47000000000E+01 0. -1.
         -5    1    3    3    0  502  0.14934930493E+02  0.74361869397E+02 -0.16551146463E+03  0.18212324039E+03  0.47000000000E+01 0. -1.
<mgrwt>
<rscale>  0 0.13096624E+03</rscale>
<asrwt>0</asrwt>
<pdfrwt beam="1">  1        2 0.41555721E-01 0.13382917E+03</pdfrwt>
<pdfrwt beam="2">  1       -2 0.14136895E-01 0.13382917E+03</pdfrwt>
<totfact> 0.44430437E+03</totfact>
</mgrwt>
</event>
<event>
 8    1  0.2018715E-005  0.1262144E+03  0.7546771E-02  0.1234338E+00
         -2   -1    0    0    0  501 -0.00000000000E+00  0.00000000000E+00  0.90492213439E+02  0.90492213439E+02  0.00000000000E+00 0.  1.
          2   -1    0    0  501    0  0.00000000000E+00 -0.00000000000E+00 -0.20059907457E+03  0.20059907457E+03  0.00000000000E+00 0. -1.
         25    2    1    2    0    0  0.16093313509E+02  0.67949338522E+01 -0.11062103942E+03  0.16783051856E+03  0.12499961093E+03 0.  0.
         23    2    1    2    0    0 -0.16093313509E+02 -0.67949338522E+01  0.51417828579E+00  0.12326076945E+03  0.12201551967E+03 0.  0.
          5    1    4    4  502    0 -0.48051312973E+02  0.21087797460E+02 -0.38649567794E+02  0.65341433799E+02  0.47000000000E+01 0. -1.
         -5    1    4    4    0  502  0.31957999464E+02 -0.27882731312E+02  0.39163746080E+02  0.57919335650E+02  0.47000000000E+01 0.  1.
          5    1    3    3  503    0 -0.19296299954E+02  0.48059942574E+02 -0.94078057065E+01  0.52846022370E+02  0.47000000000E+01 0.  1.
         -5    1    3    3    0  503  0.35389613463E+02 -0.41265008722E+02 -0.10121323371E+03  0.11498449619E+03  0.47000000000E+01 0.  1.
<mgrwt>
<rscale>  0 0.12546913E+03</rscale>
<asrwt>0</asrwt>
<pdfrwt beam="1">  1        2 0.30861396E-01 0.12621438E+03</pdfrwt>
<pdfrwt beam="2">  1       -2 0.13921879E-01 0.12621438E+03</pdfrwt>
<totfact> 0.62364794E+03</totfact>
</mgrwt>
</event>
<event>
 8    1  0.2018715E-005  0.3398344E+03  0.7546771E-02  0.1066886E+00
         -2   -1    0    0    0  501 -0.00000000000E+00  0.00000000000E+00  0.11821176827E+04  0.11821176827E+04  0.00000000000E+00 0. -1.
          2   -1    0    0  501    0  0.00000000000E+00 -0.00000000000E+00 -0.26353274400E+03  0.26353274400E+03  0.00000000000E+00 0.  1.
         25    2    1    2    0    0  0.24778888622E+03  0.19579443139E+03 -0.11424699182E+03  0.35834676653E+03  0.12500095378E+03 0.  0.
         23    2    1    2    0    0 -0.24778888622E+03 -0.19579443139E+03  0.10328319305E+04  0.10873036601E+04  0.12550960602E+03 0.  0.
          5    1    3    3  502    0  0.12118467371E+03  0.13844175990E+03 -0.11904907804E+03  0.21919539003E+03  0.47000000000E+01 0. -1.
         -5    1    3    3    0  502  0.12660421250E+03  0.57352671495E+02  0.48020862192E+01  0.13915137650E+03  0.47000000000E+01 0. -1.
          5    1    4    4  503    0 -0.18013462770E+03 -0.10428268773E+03  0.48569282981E+03  0.52843445950E+03  0.47000000000E+01 0. -1.
         -5    1    4    4    0  503 -0.67654258513E+02 -0.91511743661E+02  0.54713910069E+03  0.55886920064E+03  0.47000000000E+01 0.  1.
<mgrwt>
<rscale>  0 0.33978756E+03</rscale>
<asrwt>0</asrwt>
<pdfrwt beam="1">  1        2 0.40543500E-01 0.33983445E+03</pdfrwt>
<pdfrwt beam="2">  1       -2 0.18186425E+00 0.33983445E+03</pdfrwt>
<totfact> 0.23707556E+01</totfact>
</mgrwt>
</event>
<event>
 8    1  0.2018715E-005  0.1502926E+03  0.7546771E-02  0.1212675E+00
         -1   -1    0    0    0  501 -0.00000000000E+00  0.00000000000E+00  0.19333033790E+02  0.19333033790E+02  0.00000000000E+00 0.  1.
          1   -1    0    0  501    0  0.00000000000E+00 -0.00000000000E+00 -0.92776856279E+03  0.92776856279E+03  0.00000000000E+00 0. -1.
         25    2    1    2    0    0  0.81995176803E+02  0.15505247820E+02 -0.44595554959E+03  0.47059985117E+03  0.12499698390E+03 0.  0.
         23    2    1    2    0    0 -0.81995176803E+02 -0.15505247820E+02 -0.46247997941E+03  0.47650174541E+03  0.78756334932E+02 0.  0.
          5    1    3    3  502    0  0.37106057149E+02  0.70090616120E+02 -0.23210657224E+03  0.24532652694E+03  0.47000000000E+01 0.  1.
         -5    1    3    3    0  502  0.44889119654E+02 -0.54585368300E+02 -0.21384897735E+03  0.22527332423E+03  0.47000000000E+01 0.  1.
          5    1    4    4  503    0  0.37170506284E+01  0.20707133953E+02 -0.83418051777E+02  0.86158361314E+02  0.47000000000E+01 0. -1.
         -5    1    4    4    0  503 -0.85712227432E+02 -0.36212381772E+02 -0.37906192764E+03  0.39034338410E+03  0.47000000000E+01 0.  1.
<mgrwt>
<rscale>  0 0.14048686E+03</rscale>
<asrwt>0</asrwt>
<pdfrwt beam="1">  1        1 0.14273362E+00 0.15029261E+03</pdfrwt>
<pdfrwt beam="2">  1       -1 0.29743131E-02 0.15029261E+03</pdfrwt>
<totfact> 0.67616728E+03</totfact>
</mgrwt>
</event>
<event>
 8    1  0.2018715E-005  0.2210479E+03  0.7546771E-02  0.1138340E+00
         -1   -1    0    0    0  501 -0.00000000000E+00  0.00000000000E+00  0.31815407888E+03  0.31815407888E+03  0.00000000000E+00 0.  1.
          1   -1    0    0  501    0  0.00000000000E+00 -0.00000000000E+00 -0.15504737301E+03  0.15504737301E+03  0.00000000000E+00 0. -1.
         25    2    1    2    0    0 -0.17561826048E+03  0.48932891290E+02  0.16936194840E+03  0.27847014809E+03  0.12500381013E+03 0.  0.
         23    2    1    2    0    0  0.17561826048E+03 -0.48932891290E+02 -0.62552425280E+01  0.19473130380E+03  0.68153879981E+02 0.  0.
          5    1    3    3  502    0 -0.14901101364E+03 -0.14858687536E+02  0.13243455765E+03  0.19996515907E+03  0.47000000000E+01 0. -1.
         -5    1    3    3    0  502 -0.26607246842E+02  0.63791578827E+02  0.36927390757E+02  0.78504989025E+02  0.47000000000E+01 0. -1.
          5    1    4    4  503    0  0.12538340468E+03 -0.37485399436E+02 -0.34996978577E+02  0.13554715729E+03  0.47000000000E+01 0. -1.
         -5    1    4    4    0  503  0.50234855804E+02 -0.11447491855E+02  0.28741736049E+02  0.59184146513E+02  0.47000000000E+01 0.  1.
<mgrwt>
<rscale>  0 0.21412512E+03</rscale>
<asrwt>0</asrwt>
<pdfrwt beam="1">  1        1 0.23853442E-01 0.22104785E+03</pdfrwt>
<pdfrwt beam="2">  1       -1 0.48946781E-01 0.22104785E+03</pdfrwt>
<totfact> 0.86802543E+02</totfact>
</mgrwt>
</event>
<event>
 8    1  0.2018715E-005  0.1251778E+03  0.7546771E-02  0.1260478E+00
          2   -1    0    0  501    0  0.00000000000E+00  0.00000000000E+00  0.61476865720E+02  0.61476865720E+02  0.00000000000E+00 0. -1.
         -2   -1    0    0    0  501 -0.00000000000E+00 -0.00000000000E+00 -0.17154650357E+03  0.17154650357E+03  0.00000000000E+00 0.  1.
         25    2    1    2    0    0  0.46290408939E+01  0.47125282989E+01 -0.93991903172E+02  0.15653743659E+03  0.12500342096E+03 0.  0.
         23    2    1    2    0    0 -0.46290408939E+01 -0.47125282989E+01 -0.16077734679E+02  0.76485932697E+02  0.74484685712E+02 0.  0.
          5    1    4    4  502    0 -0.34523588107E+02 -0.87389102253E+01  0.89388677488E+01  0.37016753563E+02  0.47000000000E+01 0. -1.
         -5    1    4    4    0  502  0.29894547213E+02  0.40263819265E+01 -0.25016602428E+02  0.39469179134E+02  0.47000000000E+01 0.  1.
          5    1    3    3  503    0 -0.33046555633E+02 -0.33146784014E+02 -0.91473575026E+02  0.10286053207E+03  0.47000000000E+01 0. -1.
         -5    1    3    3    0  503  0.37675596527E+02  0.37859312313E+02 -0.25183281454E+01  0.53676904523E+02  0.47000000000E+01 0. -1.
<mgrwt>
<rscale>  0 0.11004939E+03</rscale>
<asrwt>0</asrwt>
<pdfrwt beam="1">  1        2 0.94579793E-02 0.12517784E+03</pdfrwt>
<pdfrwt beam="2">  1       -2 0.26391770E-01 0.12517784E+03</pdfrwt>
<totfact> 0.82928404E+03</totfact>
</mgrwt>
</event>
<event>
 8    1  0.2473860E-005  0.1851139E+03  0.7546771E-02  0.1164046E+00
          2   -1    0    0  501    0  0.00000000000E+00  0.00000000000E+00  0.76431274683E+03  0.76431274683E+03  0.00000000000E+00 0. -1.
         -2   -1    0    0    0  501 -0.00000000000E+00 -0.00000000000E+00 -0.44345994363E+02  0.44345994363E+02  0.00000000000E+00 0.  1.
         25    2    1    2    0    0 -0.13341072653E+03  0.29005018056E+02  0.41286788711E+03  0.45246771527E+03  0.12500971213E+03 0.  0.
         23    2    1    2    0    0  0.13341072653E+03 -0.29005018056E+02  0.30709886536E+03  0.35619102593E+03  0.11799415588E+03 0.  0.
          5    1    3    3  502    0 -0.11098672377E+03  0.18461978339E+02  0.41212837603E+03  0.42723621783E+03  0.47000000000E+01 0. -1.
         -5    1    4    4    0  503  0.42224997912E+02 -0.67183875602E+02  0.11091964611E+03  0.13646201480E+03  0.47000000000E+01 0.  1.
          5    1    4    4  503    0  0.91185728618E+02  0.38178857546E+02  0.19617921925E+03  0.21972901113E+03  0.47000000000E+01 0. -1.
         -5    1    3    3    0  502 -0.22424002761E+02  0.10543039717E+02  0.73951108204E+00  0.25231497438E+02  0.47000000000E+01 0. -1.
<mgrwt>
<rscale>  0 0.18393681E+03</rscale>
<asrwt>0</asrwt>
<pdfrwt beam="1">  1        2 0.11758657E+00 0.18511386E+03</pdfrwt>
<pdfrwt beam="2">  1       -2 0.68224612E-02 0.18511386E+03</pdfrwt>
<totfact> 0.44898604E+03</totfact>
</mgrwt>
</event>
<event>
 8    1  0.2018715E-005  0.1485694E+03  0.7546771E-02  0.1207631E+00
          1   -1    0    0  501    0  0.00000000000E+00  0.00000000000E+00  0.19586405201E+03  0.19586405201E+03  0.00000000000E+00 0. -1.
         -1   -1    0    0    0  501 -0.00000000000E+00 -0.00000000000E+00 -0.10273515170E+03  0.10273515170E+03  0.00000000000E+00 0.  1.
         25    2    1    2    0    0  0.78935814151E+02  0.14652593240E+02  0.28146218335E+02  0.15121198745E+03  0.12500917685E+03 0.  0.
         23    2    1    2    0    0 -0.78935814151E+02 -0.14652593240E+02  0.64982681970E+02  0.14738721626E+03  0.10514124461E+03 0.  0.
          5    1    4    4  502    0 -0.67514225599E+01 -0.47653469670E+02  0.43456768359E+02  0.65015502723E+02  0.47000000000E+01 0. -1.
         -5    1    3    3    0  503 -0.18680825307E+02  0.30678941839E+02 -0.19688378331E+02  0.41229758037E+02  0.47000000000E+01 0. -1.
          5    1    3    3  503    0  0.97616639458E+02 -0.16026348599E+02  0.47834596666E+02  0.10998222941E+03  0.47000000000E+01 0. -1.
         -5    1    4    4    0  502 -0.72184391591E+02  0.33000876430E+02  0.21525913611E+02  0.82371713539E+02  0.47000000000E+01 0.  1.
<mgrwt>
<rscale>  0 0.14432031E+03</rscale>
<asrwt>0</asrwt>
<pdfrwt beam="1">  1        1 0.30132931E-01 0.14856936E+03</pdfrwt>
<pdfrwt beam="2">  1       -1 0.15805408E-01 0.14856936E+03</pdfrwt>
<totfact> 0.42929890E+03</totfact>
</mgrwt>
</event>
<event>
 8    1  0.2018715E-005  0.1341115E+03  0.7546771E-02  0.1241931E+00
         -3   -1    0    0    0  501 -0.00000000000E+00  0.00000000000E+00  0.25253655895E+02  0.25253655895E+02  0.00000000000E+00 0.  1.
          3   -1    0    0  501    0  0.00000000000E+00 -0.00000000000E+00 -0.50862562695E+03  0.50862562695E+03  0.00000000000E+00 0. -1.
         25    2    1    2    0    0  0.85456331547E+01 -0.47826596747E+02 -0.34189798006E+03  0.36726028244E+03  0.12500190034E+03 0.  0.
         23    2    1    2    0    0 -0.85456331547E+01  0.47826596747E+02 -0.14147399100E+03  0.16661900041E+03  0.73393391831E+02 0.  0.
          5    1    4    4  502    0  0.17775083422E+02 -0.93502456271E+01 -0.60694050966E+02  0.64103342398E+02  0.47000000000E+01 0. -1.
         -5    1    4    4    0  502 -0.26320716577E+02  0.57176842374E+02 -0.80779940035E+02  0.10251565801E+03  0.47000000000E+01 0.  1.
          5    1    3    3  503    0  0.37383345298E+02 -0.71748555654E+02 -0.30046015506E+03  0.31119730803E+03  0.47000000000E+01 0. -1.
         -5    1    3    3    0  503 -0.28837712144E+02  0.23921958907E+02 -0.41437824991E+02  0.56062974410E+02  0.47000000000E+01 0. -1.
<mgrwt>
<rscale>  0 0.12070941E+03</rscale>
<asrwt>0</asrwt>
<pdfrwt beam="1">  1        3 0.78250093E-01 0.13411147E+03</pdfrwt>
<pdfrwt beam="2">  1       -3 0.38851780E-02 0.13411147E+03</pdfrwt>
<totfact> 0.12246717E+03</totfact>
</mgrwt>
</event>
<event>
 7    1  0.2018715E-005  0.1777776E+03  0.7546771E-02  0.1181720E+00
         -2   -1    0    0    0  501 -0.00000000000E+00  0.00000000000E+00  0.62672444902E+02  0.62672444902E+02  0.00000000000E+00 0.  1.
          2   -1    0    0  501    0  0.00000000000E+00 -0.00000000000E+00 -0.41193323109E+03  0.41193323109E+03  0.00000000000E+00 0. -1.
         25    2    1    2    0    0  0.53337585304E+02  0.11459160374E+03 -0.24662517730E+03  0.30402115449E+03  0.12501500167E+03 0.  0.
          5    1    3    3  502    0  0.74937660587E+02  0.97025454144E+02 -0.24699176925E+03  0.27578363948E+03  0.47000000000E+01 0.  1.
         -5    1    3    3    0  502 -0.21600075284E+02  0.17566149601E+02  0.36659195607E+00  0.28237515006E+02  0.47000000000E+01 0.  1.
          5    1    1    2  503    0 -0.46350987564E+02 -0.41726201529E+02 -0.53439133561E+02  0.82263727961E+02  0.47000000000E+01 0. -1.
         -5    1    1    2    0  503 -0.69865977400E+01 -0.72865402215E+02 -0.49196475336E+02  0.88320793551E+02  0.47000000000E+01 0.  1.
<mgrwt>
<rscale>  0 0.16633925E+03</rscale>
<asrwt>0</asrwt>
<pdfrwt beam="1">  1        2 0.63374346E-01 0.17777763E+03</pdfrwt>
<pdfrwt beam="2">  1       -2 0.96419141E-02 0.17777763E+03</pdfrwt>
<totfact> 0.52995404E+03</totfact>
</mgrwt>
</event>
<event>
 8    1  0.2018715E-005  0.1571379E+03  0.7546771E-02  0.1204777E+00
          1   -1    0    0  501    0  0.00000000000E+00  0.00000000000E+00  0.40656428504E+02  0.40656428504E+02  0.00000000000E+00 0. -1.
         -1   -1    0    0    0  501 -0.00000000000E+00 -0.00000000000E+00 -0.59348562081E+03  0.59348562081E+03  0.00000000000E+00 0.  1.
         25    2    1    2    0    0  0.94093865042E+02 -0.14592619820E+02 -0.45107283890E+03  0.47765995284E+03  0.12500289822E+03 0.  0.
         23    2    1    2    0    0 -0.94093865042E+02  0.14592619820E+02 -0.10175635341E+03  0.15648209648E+03  0.71173668352E+02 0.  0.
          5    1    3    3  502    0  0.11469565892E+03 -0.18883683763E+02 -0.43624736906E+03  0.45149257436E+03  0.47000000000E+01 0.  1.
         -5    1    4    4    0  503 -0.60084473870E+02 -0.25982712336E+01 -0.10151429928E+03  0.11808529956E+03  0.47000000000E+01 0.  1.
          5    1    4    4  503    0 -0.34009391172E+02  0.17190891053E+02 -0.24205412607E+00  0.38396796914E+02  0.47000000000E+01 0. -1.
         -5    1    3    3    0  502 -0.20601793875E+02  0.42910639431E+01 -0.14825469834E+02  0.26167378479E+02  0.47000000000E+01 0.  1.
<mgrwt>
<rscale>  0 0.14655050E+03</rscale>
<asrwt>0</asrwt>
<pdfrwt beam="1">  1        1 0.62548353E-02 0.15713792E+03</pdfrwt>
<pdfrwt beam="2">  1       -1 0.91305477E-01 0.15713792E+03</pdfrwt>
<totfact> 0.14756424E+03</totfact>
</mgrwt>
</event>
<event>
 8    1  0.2018715E-005  0.1261653E+03  0.7546771E-02  0.1240994E+00
         -2   -1    0    0    0  501 -0.00000000000E+00  0.00000000000E+00  0.30090422698E+02  0.30090422698E+02  0.00000000000E+00 0.  1.
          2   -1    0    0  501    0  0.00000000000E+00 -0.00000000000E+00 -0.71654280013E+03  0.71654280013E+03  0.00000000000E+00 0. -1.
         25    2    1    2    0    0 -0.16504200741E+02 -0.45605016594E+01 -0.58565520374E+03  0.59909072616E+03  0.12499797472E+03 0.  0.
         23    2    1    2    0    0  0.16504200741E+02  0.45605016594E+01 -0.10079717369E+03  0.14754249667E+03  0.10637448605E+03 0.  0.
          5    1    4    4  502    0  0.40024043926E+01  0.22516947760E+02 -0.11738611115E+03  0.11968550985E+03  0.47000000000E+01 0. -1.
         -5    1    3    3    0  503  0.44279597146E+02 -0.31946802010E+02 -0.34507679607E+03  0.34940143971E+03  0.47000000000E+01 0.  1.
          5    1    3    3  503    0 -0.60783797887E+02  0.27386300351E+02 -0.24057840767E+03  0.24968928645E+03  0.47000000000E+01 0.  1.
         -5    1    4    4    0  502  0.12501796348E+02 -0.17956446101E+02  0.16588937460E+02  0.27856986818E+02  0.47000000000E+01 0.  1.
<mgrwt>
<rscale>  0 0.12128384E+03</rscale>
<asrwt>0</asrwt>
<pdfrwt beam="1">  1        2 0.11023735E+00 0.12616529E+03</pdfrwt>
<pdfrwt beam="2">  1       -2 0.46292960E-02 0.12616529E+03</pdfrwt>
<totfact> 0.85821907E+03</totfact>
</mgrwt>
</event>
<event>
 8    1  0.2018715E-005  0.1514466E+03  0.7546771E-02  0.1202047E+00
          1   -1    0    0  501    0  0.00000000000E+00  0.00000000000E+00  0.21379957886E+02  0.21379957886E+02  0.00000000000E+00 0. -1.
         -1   -1    0    0    0  501 -0.00000000000E+00 -0.00000000000E+00 -0.10637100083E+04  0.10637100083E+04  0.00000000000E+00 0.  1.
         25    2    1    2    0    0  0.30317192805E+02 -0.79947152276E+02 -0.40524210499E+03  0.43261672491E+03  0.12500155071E+03 0.  0.
         23    2    1    2    0    0 -0.30317192805E+02  0.79947152276E+02 -0.63708794543E+03  0.65247324128E+03  0.11193570047E+03 0.  0.
          5    1    3    3  502    0 -0.42794538983E+02 -0.35767018281E+00 -0.10514699198E+03  0.11361989446E+03  0.47000000000E+01 0. -1.
         -5    1    4    4    0  503  0.23055933122E+02  0.83555890368E+02 -0.37092821625E+03  0.38095012072E+03  0.47000000000E+01 0.  1.
          5    1    4    4  503    0 -0.53373125927E+02 -0.36087380919E+01 -0.26615972918E+03  0.27152312056E+03  0.47000000000E+01 0. -1.
         -5    1    3    3    0  502  0.73111731788E+02 -0.79589482094E+02 -0.30009511302E+03  0.31899683046E+03  0.47000000000E+01 0. -1.
<mgrwt>
<rscale>  0 0.14872641E+03</rscale>
<asrwt>0</asrwt>
<pdfrwt beam="1">  1        1 0.32892245E-02 0.15144658E+03</pdfrwt>
<pdfrwt beam="2">  1       -1 0.16364768E+00 0.15144658E+03</pdfrwt>
<totfact> 0.88371541E+02</totfact>
</mgrwt>
</event>
<event>
 8    1  0.2101984E-005  0.1601330E+03  0.7546771E-02  0.1192812E+00
          4   -1    0    0  501    0  0.00000000000E+00  0.00000000000E+00  0.38343455171E+03  0.38343455171E+03  0.00000000000E+00 0.  1.
         -4   -1    0    0    0  501 -0.00000000000E+00 -0.00000000000E+00 -0.61382435511E+02  0.61382435511E+02  0.00000000000E+00 0. -1.
         25    2    1    2    0    0  0.88552572752E+02  0.46646303244E+02  0.15109438367E+03  0.22016380936E+03  0.12500061771E+03 0.  0.
         23    2    1    2    0    0 -0.88552572752E+02 -0.46646303244E+02  0.17095773253E+03  0.22465317786E+03  0.10594842265E+03 0.  0.
          5    1    3    3  502    0  0.70298067018E+02  0.73358808058E+02  0.48879803694E+02  0.11284794263E+03  0.47000000000E+01 0. -1.
         -5    1    3    3    0  502  0.18254505735E+02 -0.26712504814E+02  0.10221457998E+03  0.10731586674E+03  0.47000000000E+01 0. -1.
          5    1    4    4  503    0 -0.11413021339E+02  0.28463234052E+02  0.13469880448E+02  0.33822188399E+02  0.47000000000E+01 0. -1.
         -5    1    4    4    0  503 -0.77139551413E+02 -0.75109537296E+02  0.15748785208E+03  0.19083098946E+03  0.47000000000E+01 0.  1.
<mgrwt>
<rscale>  0 0.15640889E+03</rscale>
<asrwt>0</asrwt>
<pdfrwt beam="1">  1        4 0.58989930E-01 0.16013304E+03</pdfrwt>
<pdfrwt beam="2">  1       -4 0.94434519E-02 0.16013304E+03</pdfrwt>
<totfact> 0.39407834E+02</totfact>
</mgrwt>
</event>
<event>
 8    1  0.2018715E-005  0.1321268E+03  0.7546771E-02  0.1229490E+00
         -2   -1    0    0    0  501 -0.00000000000E+00  0.00000000000E+00  0.47428733958E+02  0.47428733958E+02  0.00000000000E+00 0.  1.
          2   -1    0    0  501    0  0.00000000000E+00 -0.00000000000E+00 -0.36028784368E+03  0.36028784368E+03  0.00000000000E+00 0. -1.
         25    2    1    2    0    0  0.31453735859E+02 -0.29018896806E+02 -0.10674991333E+03  0.16986179313E+03  0.12500420352E+03 0.  0.
         23    2    1    2    0    0 -0.31453735859E+02  0.29018896806E+02 -0.20610919639E+03  0.23785478451E+03  0.11073600953E+03 0.  0.
          5    1    4    4  502    0 -0.28985872754E+01  0.49991841622E+02 -0.19354069862E+03  0.19996919278E+03  0.47000000000E+01 0. -1.
         -5    1    4    4    0  502 -0.28555148583E+02 -0.20972944816E+02 -0.12568497770E+02  0.37885591734E+02  0.47000000000E+01 0.  1.
          5    1    3    3  503    0  0.58338109888E+02 -0.40582470967E+02 -0.14122226493E+02  0.72607157335E+02  0.47000000000E+01 0. -1.
         -5    1    3    3    0  503 -0.26884374029E+02  0.11563574160E+02 -0.92627686835E+02  0.97254635791E+02  0.47000000000E+01 0. -1.
<mgrwt>
<rscale>  0 0.12863881E+03</rscale>
<asrwt>0</asrwt>
<pdfrwt beam="1">  1        2 0.55428898E-01 0.13212678E+03</pdfrwt>
<pdfrwt beam="2">  1       -2 0.72967284E-02 0.13212678E+03</pdfrwt>
<totfact> 0.92669232E+03</totfact>
</mgrwt>
</event>
<event>
 7    1  0.2018715E-005  0.2433432E+03  0.7546771E-02  0.1126912E+00
          4   -1    0    0  501    0  0.00000000000E+00  0.00000000000E+00  0.49827616201E+03  0.49827616201E+03  0.00000000000E+00 0. -1.
         -4   -1    0    0    0  501 -0.00000000000E+00 -0.00000000000E+00 -0.10113117924E+03  0.10113117924E+03  0.00000000000E+00 0.  1.
         25    2    1    2    0    0 -0.14646367867E+03  0.11575851310E+02  0.10652009287E+03  0.22035755202E+03  0.12500124416E+03 0.  0.
          5    1    1    2  502    0  0.26036576874E+02 -0.28140082829E+02  0.24670861381E+03  0.24971383167E+03  0.47000000000E+01 0. -1.
         -5    1    3    3    0  503 -0.48557175179E+02 -0.39730215202E+02 -0.51959185571E+01  0.63129841050E+02  0.47000000000E+01 0.  1.
          5    1    3    3  503    0 -0.97906503492E+02  0.51306066511E+02  0.11171601143E+03  0.15722771097E+03  0.47000000000E+01 0.  1.
         -5    1    1    2    0  502  0.12042710180E+03  0.16564231520E+02  0.43916276086E+02  0.12933595756E+03  0.47000000000E+01 0.  1.
<mgrwt>
<rscale>  0 0.22961392E+03</rscale>
<asrwt>0</asrwt>
<pdfrwt beam="1">  1        4 0.76657870E-01 0.24334321E+03</pdfrwt>
<pdfrwt beam="2">  1       -4 0.15558643E-01 0.24334321E+03</pdfrwt>
<totfact> 0.10062116E+02</totfact>
</mgrwt>
</event>
<event>
 8    1  0.2018715E-005  0.1922177E+03  0.7546771E-02  0.1163896E+00
         -1   -1    0    0    0  501 -0.00000000000E+00  0.00000000000E+00  0.31132009761E+03  0.31132009761E+03  0.00000000000E+00 0.  1.
          1   -1    0    0  501    0  0.00000000000E+00 -0.00000000000E+00 -0.15471825698E+03  0.15471825698E+03  0.00000000000E+00 0. -1.
         25    2    1    2    0    0 -0.64588611471E+02 -0.13097464970E+03  0.22015853291E+03  0.29226256453E+03  0.12498631693E+03 0.  0.
         23    2    1    2    0    0  0.64588611471E+02  0.13097464970E+03 -0.63556692276E+02  0.17377579007E+03  0.69516361273E+02 0.  0.
          5    1    3    3  502    0  0.37171314112E+02 -0.36846979013E+02  0.74096567915E+02  0.90839406823E+02  0.47000000000E+01 0.  1.
         -5    1    3    3    0  502 -0.10175992558E+03 -0.94127670688E+02  0.14606196499E+03  0.20142315771E+03  0.47000000000E+01 0.  1.
          5    1    4    4  503    0  0.17911342050E+02  0.10757823621E+03 -0.46442537993E+02  0.11862922244E+03  0.47000000000E+01 0. -1.
         -5    1    4    4    0  503  0.46677269422E+02  0.23396413489E+02 -0.17114154283E+02  0.55146567632E+02  0.47000000000E+01 0.  1.
<mgrwt>
<rscale>  0 0.18409700E+03</rscale>
<asrwt>0</asrwt>
<pdfrwt beam="1">  1        1 0.23802809E-01 0.19221766E+03</pdfrwt>
<pdfrwt beam="2">  1       -1 0.47895399E-01 0.19221766E+03</pdfrwt>
<totfact> 0.90425723E+02</totfact>
</mgrwt>
</event>
<event>
 8    1  0.2018715E-005  0.1467220E+03  0.7546771E-02  0.1204761E+00
          2   -1    0    0  501    0  0.00000000000E+00  0.00000000000E+00  0.83083484682E+03  0.83083484682E+03  0.00000000000E+00 0. -1.
         -2   -1    0    0    0  501 -0.00000000000E+00 -0.00000000000E+00 -0.29395261315E+02  0.29395261315E+02  0.00000000000E+00 0.  1.
         25    2    1    2    0    0  0.27439908650E+02  0.71750972271E+02  0.55193601532E+03  0.57110482333E+03  0.12500481437E+03 0.  0.
         23    2    1    2    0    0 -0.27439908650E+02 -0.71750972271E+02  0.24950357018E+03  0.28912528480E+03  0.12425879514E+03 0.  0.
          5    1    3    3  502    0  0.58539541612E+02  0.40434531015E+02  0.14323272293E+03  0.15999853796E+03  0.47000000000E+01 0.  1.
         -5    1    3    3    0  502 -0.31099632962E+02  0.31316441256E+02  0.40870329239E+03  0.41110628537E+03  0.47000000000E+01 0.  1.
          5    1    4    4  503    0 -0.40903121684E+02 -0.11966107716E+02  0.21377647757E+03  0.21803377137E+03  0.47000000000E+01 0. -1.
         -5    1    4    4    0  503  0.13463213034E+02 -0.59784864555E+02  0.35727092613E+02  0.71091513429E+02  0.47000000000E+01 0.  1.
<mgrwt>
<rscale>  0 0.14656300E+03</rscale>
<asrwt>0</asrwt>
<pdfrwt beam="1">  1        2 0.12782073E+00 0.14672203E+03</pdfrwt>
<pdfrwt beam="2">  1       -2 0.45223485E-02 0.14672203E+03</pdfrwt>
<totfact> 0.74730724E+03</totfact>
</mgrwt>
</event>
<event>
 7    1  0.2018715E-005  0.1693155E+03  0.7546771E-02  0.1180025E+00
          2   -1    0    0  501    0  0.00000000000E+00  0.00000000000E+00  0.70090390028E+03  0.70090390028E+03  0.00000000000E+00 0. -1.
         -2   -1    0    0    0  501 -0.00000000000E+00 -0.00000000000E+00 -0.40615196262E+02  0.40615196262E+02  0.00000000000E+00 0.  1.
         25    2    1    2    0    0  0.75539407886E+02  0.74251347350E+02  0.26591570532E+03  0.31233638487E+03  0.12499356085E+03 0.  0.
          5    1    3    3  502    0  0.85371213845E+02  0.40057569213E+02  0.25915183028E+03  0.27581626881E+03  0.47000000000E+01 0. -1.
         -5    1    1    2    0  503  0.10634775481E+02 -0.81569424494E+02  0.17931601724E+03  0.19733979198E+03  0.47000000000E+01 0.  1.
          5    1    1    2  503    0 -0.86174183368E+02  0.73180771441E+01  0.21505698146E+03  0.23184291968E+03  0.47000000000E+01 0. -1.
         -5    1    3    3    0  502 -0.98318059586E+01  0.34193778138E+02  0.67638750408E+01  0.36520116064E+02  0.47000000000E+01 0. -1.
<mgrwt>
<rscale>  0 0.16792916E+03</rscale>
<asrwt>0</asrwt>
<pdfrwt beam="1">  1        2 0.10783136E+00 0.16931550E+03</pdfrwt>
<pdfrwt beam="2">  1       -2 0.62484922E-02 0.16931550E+03</pdfrwt>
<totfact> 0.56890029E+03</totfact>
</mgrwt>
</event>
<event>
 8    1  0.2018715E-005  0.1864383E+03  0.7546771E-02  0.1164437E+00
         -1   -1    0    0    0  501 -0.00000000000E+00  0.00000000000E+00  0.74594044563E+02  0.74594044563E+02  0.00000000000E+00 0. -1.
          1   -1    0    0  501    0  0.00000000000E+00 -0.00000000000E+00 -0.55783939281E+03  0.55783939281E+03  0.00000000000E+00 0.  1.
         25    2    1    2    0    0 -0.27323262890E+01  0.13830111681E+03 -0.10105616242E+03  0.21206501511E+03  0.12499823261E+03 0.  0.
         23    2    1    2    0    0  0.27323262890E+01 -0.13830111681E+03 -0.38218918583E+03  0.42036842226E+03  0.10726775915E+03 0.  0.
          5    1    4    4  502    0  0.38287660377E+02 -0.58265223154E+02 -0.26461620492E+03  0.27368706048E+03  0.47000000000E+01 0. -1.
         -5    1    4    4    0  502 -0.35555334088E+02 -0.80035893655E+02 -0.11757298091E+03  0.14668136179E+03  0.47000000000E+01 0.  1.
          5    1    3    3  503    0 -0.19007645062E+02  0.16637404414E+02  0.25145950196E+02  0.35951392292E+02  0.47000000000E+01 0. -1.
         -5    1    3    3    0  503  0.16275318773E+02  0.12166371239E+03 -0.12620211262E+03  0.17611362282E+03  0.47000000000E+01 0. -1.
<mgrwt>
<rscale>  0 0.18352245E+03</rscale>
<asrwt>0</asrwt>
<pdfrwt beam="1">  1        1 0.85821445E-01 0.18643825E+03</pdfrwt>
<pdfrwt beam="2">  1       -1 0.11476007E-01 0.18643825E+03</pdfrwt>
<totfact> 0.18971184E+03</totfact>
</mgrwt>
</event>
<event>
 8    1  0.2018715E-005  0.2092747E+03  0.7546771E-02  0.1148770E+00
         -2   -1    0    0    0  501 -0.00000000000E+00  0.00000000000E+00  0.10463462885E+03  0.10463462885E+03  0.00000000000E+00 0.  1.
          2   -1    0    0  501    0  0.00000000000E+00 -0.00000000000E+00 -0.36297208001E+03  0.36297208001E+03  0.00000000000E+00 0. -1.
         25    2    1    2    0    0  0.65650804665E+02 -0.15446336989E+03 -0.11651774899E+03  0.23952514111E+03  0.12500778616E+03 0.  0.
         23    2    1    2    0    0 -0.65650804665E+02  0.15446336989E+03 -0.14181970217E+03  0.22808156776E+03  0.61150738642E+02 0.  0.
          5    1    3    3  502    0 -0.35107673780E+02 -0.51475444575E+02 -0.53249070046E+02  0.82096428748E+02  0.47000000000E+01 0.  1.
         -5    1    4    4    0  503 -0.41492370792E+02  0.13684897659E+03 -0.93017244027E+02  0.17065625366E+03  0.47000000000E+01 0.  1.
          5    1    4    4  503    0 -0.24158433873E+02  0.17614393306E+02 -0.48802458143E+02  0.57425314100E+02  0.47000000000E+01 0. -1.
         -5    1    3    3    0  502  0.10075847845E+03 -0.10298792532E+03 -0.63268678941E+02  0.15742871236E+03  0.47000000000E+01 0.  1.
<mgrwt>
<rscale>  0 0.20115260E+03</rscale>
<asrwt>0</asrwt>
<pdfrwt beam="1">  1        2 0.55841858E-01 0.20927472E+03</pdfrwt>
<pdfrwt beam="2">  1       -2 0.16097635E-01 0.20927472E+03</pdfrwt>
<totfact> 0.26700102E+03</totfact>
</mgrwt>
</event>
<event>
 7    1  0.2018715E-005  0.1379131E+03  0.7546771E-02  0.1244099E+00
          1   -1    0    0  501    0  0.00000000000E+00  0.00000000000E+00  0.38754351687E+02  0.38754351687E+02  0.00000000000E+00 0. -1.
         -1   -1    0    0    0  501 -0.00000000000E+00 -0.00000000000E+00 -0.48806996854E+03  0.48806996854E+03  0.00000000000E+00 0.  1.
         25    2    1    2    0    0  0.30016674373E+02 -0.49940393384E+02 -0.10348041245E+03  0.17241871530E+03  0.12499989598E+03 0.  0.
          5    1    3    3  502    0  0.45499241126E+02 -0.86536786345E+02 -0.72205283269E+02  0.12163259952E+03  0.47000000000E+01 0.  1.
         -5    1    3    3    0  502 -0.15482566753E+02  0.36596392961E+02 -0.31275129177E+02  0.50786115781E+02  0.47000000000E+01 0.  1.
          5    1    1    2  503    0 -0.25741515733E+01  0.49234506134E+02 -0.21294924723E+03  0.21863241925E+03  0.47000000000E+01 0. -1.
         -5    1    1    2    0  503 -0.27442522800E+02  0.70588724998E+00 -0.13288595717E+03  0.13577318567E+03  0.47000000000E+01 0.  1.
<mgrwt>
<rscale>  0 0.11939473E+03</rscale>
<asrwt>0</asrwt>
<pdfrwt beam="1">  1        1 0.59622078E-02 0.13791308E+03</pdfrwt>
<pdfrwt beam="2">  1       -1 0.75087689E-01 0.13791308E+03</pdfrwt>
<totfact> 0.23492238E+03</totfact>
</mgrwt>
</event>
<event>
 8    1  0.2018715E-005  0.1302882E+03  0.7546771E-02  0.1227548E+00
         -1   -1    0    0    0  501 -0.00000000000E+00  0.00000000000E+00  0.64755854521E+02  0.64755854521E+02  0.00000000000E+00 0.  1.
          1   -1    0    0  501    0  0.00000000000E+00 -0.00000000000E+00 -0.26096762239E+03  0.26096762239E+03  0.00000000000E+00 0. -1.
         25    2    1    2    0    0  0.11002731045E+02 -0.35068398794E+02 -0.11149147218E+03  0.17147989114E+03  0.12499660800E+03 0.  0.
         23    2    1    2    0    0 -0.11002731045E+02  0.35068398794E+02 -0.84720295686E+02  0.15424358577E+03  0.12354231083E+03 0.  0.
          5    1    4    4  502    0 -0.34625760633E+02 -0.30865151875E+02 -0.67381333387E+02  0.81938604996E+02  0.47000000000E+01 0. -1.
         -5    1    3    3    0  503  0.36353170581E+02  0.15127053799E+02  0.69722002911E+01  0.40262666887E+02  0.47000000000E+01 0.  1.
          5    1    3    3  503    0 -0.25350439536E+02 -0.50195452593E+02 -0.11846367247E+03  0.13121722426E+03  0.47000000000E+01 0.  1.
         -5    1    4    4    0  502  0.23623029588E+02  0.65933550669E+02 -0.17338962299E+02  0.72304980771E+02  0.47000000000E+01 0.  1.
<mgrwt>
<rscale>  0 0.12993811E+03</rscale>
<asrwt>0</asrwt>
<pdfrwt beam="1">  1        1 0.40148865E-01 0.13028816E+03</pdfrwt>
<pdfrwt beam="2">  1       -1 0.99624391E-02 0.13028816E+03</pdfrwt>
<totfact> 0.61004789E+03</totfact>
</mgrwt>
</event>
<event>
 8    1  0.2018715E-005  0.1456591E+03  0.7546771E-02  0.1210338E+00
         -3   -1    0    0    0  501 -0.00000000000E+00  0.00000000000E+00  0.16499227309E+03  0.16499227309E+03  0.00000000000E+00 0.  1.
          3   -1    0    0  501    0  0.00000000000E+00 -0.00000000000E+00 -0.14755188408E+03  0.14755188408E+03  0.00000000000E+00 0. -1.
         25    2    1    2    0    0 -0.60975128040E+02 -0.43282061745E+02  0.79838916396E+02  0.16610489175E+03  0.12500111753E+03 0.  0.
         23    2    1    2    0    0  0.60975128040E+02  0.43282061745E+02 -0.62398527388E+02  0.14643926541E+03  0.10935986067E+03 0.  0.
          5    1    3    3  502    0 -0.54122289882E+02 -0.24475362270E+02 -0.21010677078E+02  0.63180726267E+02  0.47000000000E+01 0. -1.
         -5    1    3    3    0  502 -0.68528381584E+01 -0.18806699475E+02  0.10084959347E+03  0.10292416548E+03  0.47000000000E+01 0. -1.
          5    1    4    4  503    0  0.14755830258E+02 -0.34297628422E+02 -0.36385857270E+02  0.52345796882E+02  0.47000000000E+01 0. -1.
         -5    1    4    4    0  503  0.46219297782E+02  0.77579690167E+02 -0.26012670118E+02  0.94093468533E+02  0.47000000000E+01 0.  1.
<mgrwt>
<rscale>  0 0.14224619E+03</rscale>
<asrwt>0</asrwt>
<pdfrwt beam="1">  1        3 0.22700290E-01 0.14565913E+03</pdfrwt>
<pdfrwt beam="2">  1       -3 0.25383427E-01 0.14565913E+03</pdfrwt>
<totfact> 0.61163639E+02</totfact>
</mgrwt>
</event>
<event>
 7    1  0.2018715E-005  0.1841617E+03  0.7546771E-02  0.1169655E+00
          2   -1    0    0  501    0  0.00000000000E+00  0.00000000000E+00  0.29724146922E+03  0.29724146922E+03  0.00000000000E+00 0. -1.
         -2   -1    0    0    0  501 -0.00000000000E+00 -0.00000000000E+00 -0.11373052834E+03  0.11373052834E+03  0.00000000000E+00 0.  1.
         25    2    1    2    0    0 -0.17267272449E+02  0.10013002296E+03  0.15695128254E+03  0.22490491382E+03  0.12499733986E+03 0.  0.
          5    1    3    3  502    0 -0.43628773765E+02  0.12239514850E+02  0.11540088737E+03  0.12406744307E+03  0.47000000000E+01 0.  1.
         -5    1    1    2    0  503 -0.29630293571E+02 -0.76026740796E+02 -0.47879532878E+02  0.94723594113E+02  0.47000000000E+01 0.  1.
          5    1    1    2  503    0  0.46897566020E+02 -0.24103282166E+02  0.74439191210E+02  0.91343489630E+02  0.47000000000E+01 0. -1.
         -5    1    3    3    0  502  0.26361501316E+02  0.87890508111E+02  0.41550395170E+02  0.10083747075E+03  0.47000000000E+01 0.  1.
<mgrwt>
<rscale>  0 0.17809987E+03</rscale>
<asrwt>0</asrwt>
<pdfrwt beam="1">  1        2 0.45729456E-01 0.18416173E+03</pdfrwt>
<pdfrwt beam="2">  1       -2 0.17497005E-01 0.18416173E+03</pdfrwt>
<totfact> 0.28660817E+03</totfact>
</mgrwt>
</event>
<event>
 8    1  0.2018715E-005  0.1466170E+03  0.7546771E-02  0.1218926E+00
         -1   -1    0    0    0  501 -0.00000000000E+00  0.00000000000E+00  0.24543030387E+02  0.24543030387E+02  0.00000000000E+00 0.  1.
          1   -1    0    0  501    0  0.00000000000E+00 -0.00000000000E+00 -0.66423614788E+03  0.66423614788E+03  0.00000000000E+00 0. -1.
         25    2    1    2    0    0  0.62834253610E+02  0.43826976166E+02 -0.34744489764E+03  0.37711336236E+03  0.12501033520E+03 0.  0.
         23    2    1    2    0    0 -0.62834253610E+02 -0.43826976166E+02 -0.29224821986E+03  0.31166581591E+03  0.76535034667E+02 0.  0.
          5    1    3    3  502    0  0.99756855749E+02  0.44055162575E+02 -0.24936117606E+03  0.27220465416E+03  0.47000000000E+01 0.  1.
         -5    1    3    3    0  502 -0.36922602139E+02 -0.22818640827E+00 -0.98083721578E+02  0.10490870820E+03  0.47000000000E+01 0.  1.
          5    1    4    4  503    0 -0.17852750513E+02  0.15561266284E+02 -0.14040047316E+03  0.14246142135E+03  0.47000000000E+01 0. -1.
         -5    1    4    4    0  503 -0.44981503097E+02 -0.59388242450E+02 -0.15184774669E+03  0.16920439456E+03  0.47000000000E+01 0.  1.
<mgrwt>
<rscale>  0 0.13592034E+03</rscale>
<asrwt>0</asrwt>
<pdfrwt beam="1">  1        1 0.10219017E+00 0.14661695E+03</pdfrwt>
<pdfrwt beam="2">  1       -1 0.37758512E-02 0.14661695E+03</pdfrwt>
<totfact> 0.78735842E+03</totfact>
</mgrwt>
</event>
<event>
 8    1  0.2018715E-005  0.1251365E+03  0.7546771E-02  0.1262272E+00
         -4   -1    0    0    0  501 -0.00000000000E+00  0.00000000000E+00  0.59848050083E+02  0.59848050083E+02  0.00000000000E+00 0.  1.
          4   -1    0    0  501    0  0.00000000000E+00 -0.00000000000E+00 -0.22161085152E+03  0.22161085152E+03  0.00000000000E+00 0. -1.
         25    2    1    2    0    0 -0.49704633894E+01  0.29867775218E+01 -0.26217737048E+02  0.12785344688E+03  0.12500203117E+03 0.  0.
         23    2    1    2    0    0  0.49704633894E+01 -0.29867775218E+01 -0.13554506438E+03  0.15360545472E+03  0.72031554844E+02 0.  0.
          5    1    3    3  502    0 -0.20919761927E+02 -0.55883147579E+02  0.32693591542E+01  0.59944485415E+02  0.47000000000E+01 0.  1.
         -5    1    3    3    0  502  0.15949298538E+02  0.58869925101E+02 -0.29487096203E+02  0.67908961468E+02  0.47000000000E+01 0.  1.
          5    1    4    4  503    0  0.22051968822E+02 -0.28651807455E+02 -0.99348130066E+02  0.10582701142E+03  0.47000000000E+01 0. -1.
         -5    1    4    4    0  503 -0.17081505432E+02  0.25665029933E+02 -0.36196934318E+02  0.47778443291E+02  0.47000000000E+01 0.  1.
<mgrwt>
<rscale>  0 0.10908607E+03</rscale>
<asrwt>0</asrwt>
<pdfrwt beam="1">  1        4 0.34093977E-01 0.12513646E+03</pdfrwt>
<pdfrwt beam="2">  1       -4 0.92073923E-02 0.12513646E+03</pdfrwt>
<totfact> 0.11758491E+03</totfact>
</mgrwt>
</event>
<event>
 7    1  0.2018715E-005  0.2286322E+03  0.7546771E-02  0.1142077E+00
         -1   -1    0    0    0  501 -0.00000000000E+00  0.00000000000E+00  0.11729818063E+03  0.11729818063E+03  0.00000000000E+00 0.  1.
          1   -1    0    0  501    0  0.00000000000E+00 -0.00000000000E+00 -0.32326150223E+03  0.32326150223E+03  0.00000000000E+00 0. -1.
         25    2    1    2    0    0 -0.10093811380E+03  0.48164395351E+01 -0.80680789675E+02  0.17985217733E+03  0.12500285981E+03 0.  0.
          5    1    1    2  502    0  0.14862145671E+03  0.28269461205E+02 -0.13360157161E+03  0.20188850826E+03  0.47000000000E+01 0. -1.
         -5    1    3    3    0  503 -0.40147079415E+02  0.37496995634E+02  0.19174951992E+02  0.58374493154E+02  0.47000000000E+01 0. -1.
          5    1    3    3  503    0 -0.60791034384E+02 -0.32680556099E+02 -0.99855741667E+02  0.12147768417E+03  0.47000000000E+01 0. -1.
         -5    1    1    2    0  502 -0.47683342915E+02 -0.33085900740E+02  0.83190396832E+01  0.58818997276E+02  0.47000000000E+01 0.  1.
<mgrwt>
<rscale>  0 0.20935542E+03</rscale>
<asrwt>0</asrwt>
<pdfrwt beam="1">  1        1 0.49732538E-01 0.22863222E+03</pdfrwt>
<pdfrwt beam="2">  1       -1 0.18045874E-01 0.22863222E+03</pdfrwt>
<totfact> 0.18892128E+03</totfact>
</mgrwt>
</event>
<event>
 8    1  0.2018715E-005  0.1289518E+03  0.7546771E-02  0.1236448E+00
         -2   -1    0    0    0  501 -0.00000000000E+00  0.00000000000E+00  0.11252715203E+02  0.11252715203E+02  0.00000000000E+00 0.  1.
          2   -1    0    0  501    0  0.00000000000E+00 -0.00000000000E+00 -0.13106595340E+04  0.13106595340E+04  0.00000000000E+00 0. -1.
         25    2    1    2    0    0 -0.30009362843E+02  0.10190925100E+02 -0.59052329540E+03  0.60443885153E+03  0.12499658405E+03 0.  0.
         23    2    1    2    0    0  0.30009362843E+02 -0.10190925100E+02 -0.70888352336E+03  0.71747339763E+03  0.10605569199E+03 0.  0.
          5    1    3    3  502    0 -0.23117797479E+02  0.54127439712E+02 -0.14333718560E+03  0.15502209864E+03  0.47000000000E+01 0. -1.
         -5    1    3    3    0  502 -0.68915653636E+01 -0.43936514612E+02 -0.44718610980E+03  0.44941675290E+03  0.47000000000E+01 0. -1.
          5    1    4    4  503    0  0.30487917402E+02  0.45404639655E+02 -0.35333084100E+03  0.35756938853E+03  0.47000000000E+01 0.  1.
         -5    1    4    4    0  503 -0.47855455935E+00 -0.55595564755E+02 -0.35555268236E+03  0.35990400910E+03  0.47000000000E+01 0. -1.
<mgrwt>
<rscale>  0 0.12412161E+03</rscale>
<asrwt>0</asrwt>
<pdfrwt beam="1">  1        2 0.20163991E+00 0.12895178E+03</pdfrwt>
<pdfrwt beam="2">  1       -2 0.17311871E-02 0.12895178E+03</pdfrwt>
<totfact> 0.15906056E+04</totfact>
</mgrwt>
</event>
<event>
 8    1  0.2018715E-005  0.1373883E+03  0.7546771E-02  0.1217139E+00
         -2   -1    0    0    0  501 -0.00000000000E+00  0.00000000000E+00  0.49980660261E+02  0.49980660261E+02  0.00000000000E+00 0.  1.
          2   -1    0    0  501    0  0.00000000000E+00 -0.00000000000E+00 -0.48403433020E+03  0.48403433020E+03  0.00000000000E+00 0. -1.
         25    2    1    2    0    0 -0.41342812737E+02 -0.39251143807E+02 -0.91130332296E+02  0.16486445454E+03  0.12500268177E+03 0.  0.
         23    2    1    2    0    0  0.41342812737E+02  0.39251143807E+02 -0.34292333764E+03  0.36915053592E+03  0.12420073356E+03 0.  0.
          5    1    4    4  502    0 -0.34796635257E+02 -0.17244641387E+02 -0.13557403698E+03  0.14110490064E+03  0.47000000000E+01 0. -1.
         -5    1    3    3    0  503  0.38308473300E+02  0.75624255100E+01 -0.72563374183E+01  0.39993422445E+02  0.47000000000E+01 0. -1.
          5    1    3    3  503    0 -0.79651286036E+02 -0.46813569317E+02 -0.83873994877E+02  0.12487103209E+03  0.47000000000E+01 0. -1.
         -5    1    4    4    0  502  0.76139447994E+02  0.56495785193E+02 -0.20734930066E+03  0.22804563528E+03  0.47000000000E+01 0.  1.
<mgrwt>
<rscale>  0 0.13720565E+03</rscale>
<asrwt>0</asrwt>
<pdfrwt beam="1">  1        2 0.74466816E-01 0.13738832E+03</pdfrwt>
<pdfrwt beam="2">  1       -2 0.76893328E-02 0.13738832E+03</pdfrwt>
<totfact> 0.62413507E+03</totfact>
</mgrwt>
</event>
<event>
 8    1  0.2018715E-005  0.1847834E+03  0.7546771E-02  0.1163496E+00
          1   -1    0    0  501    0  0.00000000000E+00  0.00000000000E+00  0.33679214942E+03  0.33679214942E+03  0.00000000000E+00 0. -1.
         -1   -1    0    0    0  501 -0.00000000000E+00 -0.00000000000E+00 -0.10207514875E+03  0.10207514875E+03  0.00000000000E+00 0.  1.
         25    2    1    2    0    0 -0.10528490328E+03  0.86244406203E+02  0.93291050557E+02  0.20699786817E+03  0.12498755480E+03 0.  0.
         23    2    1    2    0    0  0.10528490328E+03 -0.86244406203E+02  0.14142595011E+03  0.23186943000E+03  0.12344684988E+03 0.  0.
          5    1    3    3  502    0 -0.21278427914E+02  0.23354019543E+02  0.96760081049E+02  0.10189595187E+03  0.47000000000E+01 0. -1.
         -5    1    3    3    0  502 -0.84006475366E+02  0.62890386660E+02 -0.34690304919E+01  0.10510191630E+03  0.47000000000E+01 0. -1.
          5    1    4    4  503    0  0.12142439108E+03 -0.10307210171E+03  0.11629462402E+03  0.19726700301E+03  0.47000000000E+01 0. -1.
         -5    1    4    4    0  503 -0.16139487801E+02  0.16827695510E+02  0.25131326095E+02  0.34602426995E+02  0.47000000000E+01 0.  1.
<mgrwt>
<rscale>  0 0.18452317E+03</rscale>
<asrwt>0</asrwt>
<pdfrwt beam="1">  1        1 0.51814176E-01 0.18478338E+03</pdfrwt>
<pdfrwt beam="2">  1       -1 0.15703869E-01 0.18478338E+03</pdfrwt>
<totfact> 0.22275004E+03</totfact>
</mgrwt>
</event>
<event>
 8    1  0.2018715E-005  0.1737446E+03  0.7546771E-02  0.1182787E+00
         -3   -1    0    0    0  501 -0.00000000000E+00  0.00000000000E+00  0.44202620062E+03  0.44202620062E+03  0.00000000000E+00 0.  1.
          3   -1    0    0  501    0  0.00000000000E+00 -0.00000000000E+00 -0.57480352145E+02  0.57480352145E+02  0.00000000000E+00 0. -1.
         25    2    1    2    0    0  0.46515239261E+01 -0.12058361443E+03  0.17967412913E+03  0.24993996575E+03  0.12500059624E+03 0.  0.
         23    2    1    2    0    0 -0.46515239261E+01  0.12058361443E+03  0.20487171934E+03  0.24956658701E+03  0.75822260722E+02 0.  0.
          5    1    4    4  502    0  0.26162390188E+02  0.76094262322E+02  0.80826096609E+02  0.11414795360E+03  0.47000000000E+01 0. -1.
         -5    1    4    4    0  502 -0.30813914114E+02  0.44489352106E+02  0.12404562273E+03  0.13541863341E+03  0.47000000000E+01 0.  1.
          5    1    3    3  503    0 -0.27705990105E+02 -0.13276735277E+03  0.12175197833E+03  0.18231957129E+03  0.47000000000E+01 0. -1.
         -5    1    3    3    0  503  0.32357514031E+02  0.12183738339E+02  0.57922150793E+02  0.67620394458E+02  0.47000000000E+01 0. -1.
<mgrwt>
<rscale>  0 0.16534844E+03</rscale>
<asrwt>0</asrwt>
<pdfrwt beam="1">  1        3 0.88431314E-02 0.17374462E+03</pdfrwt>
<pdfrwt beam="2">  1       -3 0.68004029E-01 0.17374462E+03</pdfrwt>
<totfact> 0.45940109E+02</totfact>
</mgrwt>
</event>
<event>
 8    1  0.2018715E-005  0.2531056E+03  0.7546771E-02  0.1114847E+00
         -2   -1    0    0    0  501 -0.00000000000E+00  0.00000000000E+00  0.61183483145E+03  0.61183483145E+03  0.00000000000E+00 0.  1.
          2   -1    0    0  501    0  0.00000000000E+00 -0.00000000000E+00 -0.10501262145E+03  0.10501262145E+03  0.00000000000E+00 0. -1.
         25    2    1    2    0    0 -0.21140000569E+03  0.61226916552E+02  0.15895113310E+03  0.29887772023E+03  0.12499492477E+03 0.  0.
         23    2    1    2    0    0  0.21140000569E+03 -0.61226916552E+02  0.34787107690E+03  0.41796973268E+03  0.72427298541E+02 0.  0.
          5    1    4    4  502    0  0.16397403410E+03 -0.53463704474E+02  0.20941237875E+03  0.27133279553E+03  0.47000000000E+01 0. -1.
         -5    1    3    3    0  503 -0.29613591935E+02  0.33337574416E+02 -0.13386306757E+02  0.46793609648E+02  0.47000000000E+01 0. -1.
          5    1    3    3  503    0 -0.18178641375E+03  0.27889342136E+02  0.17233743986E+03  0.25208411058E+03  0.47000000000E+01 0. -1.
         -5    1    4    4    0  502  0.47425971589E+02 -0.77632120783E+01  0.13845869815E+03  0.14663693715E+03  0.47000000000E+01 0.  1.
<mgrwt>
<rscale>  0 0.24757529E+03</rscale>
<asrwt>0</asrwt>
<pdfrwt beam="1">  1        2 0.16155788E-01 0.25310557E+03</pdfrwt>
<pdfrwt beam="2">  1       -2 0.94128433E-01 0.25310557E+03</pdfrwt>
<totfact> 0.35257626E+02</totfact>
</mgrwt>
</event>
<event>
 8    1  0.2018715E-005  0.3309495E+03  0.7546771E-02  0.1071326E+00
         -1   -1    0    0    0  501 -0.00000000000E+00  0.00000000000E+00  0.19104313907E+03  0.19104313907E+03  0.00000000000E+00 0.  1.
          1   -1    0    0  501    0  0.00000000000E+00 -0.00000000000E+00 -0.69168345523E+03  0.69168345523E+03  0.00000000000E+00 0. -1.
         25    2    1    2    0    0 -0.21781229357E+03 -0.21556193951E+03 -0.62298846249E+02  0.33676208369E+03  0.12497363630E+03 0.  0.
         23    2    1    2    0    0  0.21781229357E+03  0.21556193951E+03 -0.43834146991E+03  0.54596451062E+03  0.10965791178E+03 0.  0.
          5    1    4    4  502    0  0.48989291882E+02  0.62341377469E+02 -0.20431614184E+03  0.21921125400E+03  0.47000000000E+01 0. -1.
         -5    1    4    4    0  502  0.16882300169E+03  0.15322056204E+03 -0.23402532806E+03  0.32675325661E+03  0.47000000000E+01 0.  1.
          5    1    3    3  503    0 -0.19627013211E+02 -0.27315863881E+02 -0.53342057668E+02  0.63236391290E+02  0.47000000000E+01 0.  1.
         -5    1    3    3    0  503 -0.19818528036E+03 -0.18824607563E+03 -0.89567885813E+01  0.27352569240E+03  0.47000000000E+01 0.  1.
<mgrwt>
<rscale>  0 0.32957229E+03</rscale>
<asrwt>0</asrwt>
<pdfrwt beam="1">  1        1 0.10641284E+00 0.33094947E+03</pdfrwt>
<pdfrwt beam="2">  1       -1 0.29391253E-01 0.33094947E+03</pdfrwt>
<totfact> 0.30429196E+02</totfact>
</mgrwt>
</event>
<event>
 8    1  0.2018715E-005  0.1439849E+03  0.7546771E-02  0.1226463E+00
          1   -1    0    0  501    0  0.00000000000E+00  0.00000000000E+00  0.75087417865E+03  0.75087417865E+03  0.00000000000E+00 0. -1.
         -1   -1    0    0    0  501 -0.00000000000E+00 -0.00000000000E+00 -0.19468891676E+02  0.19468891676E+02  0.00000000000E+00 0.  1.
         25    2    1    2    0    0  0.63611912321E+01 -0.71169899599E+02  0.42199959350E+03  0.44588711188E+03  0.12500416098E+03 0.  0.
         23    2    1    2    0    0 -0.63611912321E+01  0.71169899599E+02  0.30940569347E+03  0.32445595844E+03  0.66589537124E+02 0.  0.
          5    1    4    4  502    0 -0.21352699941E+01  0.36873751094E+02  0.26685583310E+03  0.26944082570E+03  0.47000000000E+01 0. -1.
         -5    1    3    3    0  503  0.53751359651E+01 -0.10727553840E+03  0.32016861662E+03  0.33773801429E+03  0.47000000000E+01 0. -1.
          5    1    3    3  503    0  0.98605526704E+00  0.36105638799E+02  0.10183097688E+03  0.10814909759E+03  0.47000000000E+01 0. -1.
         -5    1    4    4    0  502 -0.42259212380E+01  0.34296148505E+02  0.42549860374E+02  0.55015132740E+02  0.47000000000E+01 0.  1.
<mgrwt>
<rscale>  0 0.13067127E+03</rscale>
<asrwt>0</asrwt>
<pdfrwt beam="1">  1        1 0.11551908E+00 0.14398493E+03</pdfrwt>
<pdfrwt beam="2">  1       -1 0.29952147E-02 0.14398493E+03</pdfrwt>
<totfact> 0.92541720E+03</totfact>
</mgrwt>
</event>
<event>
 7    1  0.2018715E-005  0.1439219E+03  0.7546771E-02  0.1231216E+00
          2   -1    0    0  501    0  0.00000000000E+00  0.00000000000E+00  0.29876081293E+03  0.29876081293E+03  0.00000000000E+00 0. -1.
         -2   -1    0    0    0  501 -0.00000000000E+00 -0.00000000000E+00 -0.55818481067E+02  0.55818481067E+02  0.00000000000E+00 0.  1.
         25    2    1    2    0    0  0.27183889109E+02  0.65955143859E+02  0.69555921181E+02  0.15984852162E+03  0.12499791543E+03 0.  0.
          5    1    3    3  502    0  0.72068572241E+02  0.30923566092E+02  0.13322145837E+02  0.79685102838E+02  0.47000000000E+01 0. -1.
         -5    1    1    2    0  503  0.38929459311E+01 -0.34333146392E+02  0.35277075271E+02  0.49603245951E+02  0.47000000000E+01 0.  1.
          5    1    1    2  503    0 -0.31076835040E+02 -0.31621997467E+02  0.13810933541E+03  0.14512752643E+03  0.47000000000E+01 0. -1.
         -5    1    3    3    0  502 -0.44884683132E+02  0.35031577767E+02  0.56233775344E+02  0.80163418778E+02  0.47000000000E+01 0. -1.
<mgrwt>
<rscale>  0 0.12749816E+03</rscale>
<asrwt>0</asrwt>
<pdfrwt beam="1">  1        2 0.45963201E-01 0.14392194E+03</pdfrwt>
<pdfrwt beam="2">  1       -2 0.85874588E-02 0.14392194E+03</pdfrwt>
<totfact> 0.88438480E+03</totfact>
</mgrwt>
</event>
<event>
 8    1  0.2018715E-005  0.3625327E+03  0.7546771E-02  0.1059172E+00
         -1   -1    0    0    0  501 -0.00000000000E+00  0.00000000000E+00  0.81690940345E+02  0.81690940345E+02  0.00000000000E+00 0.  1.
          1   -1    0    0  501    0  0.00000000000E+00 -0.00000000000E+00 -0.16582650960E+04  0.16582650960E+04  0.00000000000E+00 0. -1.
         25    2    1    2    0    0 -0.25081334681E+03  0.22999726183E+03 -0.10373091385E+04  0.10988358321E+04  0.12499544655E+03 0.  0.
         23    2    1    2    0    0  0.25081334681E+03 -0.22999726183E+03 -0.53926501712E+03  0.64112020423E+03  0.66500242049E+02 0.  0.
          5    1    3    3  502    0 -0.10181330636E+03  0.17478582519E+03 -0.62539494686E+03  0.65731040125E+03  0.47000000000E+01 0. -1.
         -5    1    4    4    0  503  0.92189143068E+02 -0.44181642953E+02 -0.16383971904E+03  0.19317453044E+03  0.47000000000E+01 0.  1.
          5    1    4    4  503    0  0.15862420375E+03 -0.18581561888E+03 -0.37542529807E+03  0.44794567379E+03  0.47000000000E+01 0. -1.
         -5    1    3    3    0  502 -0.14900004045E+03  0.55211436638E+02 -0.41191419164E+03  0.44152543083E+03  0.47000000000E+01 0. -1.
<mgrwt>
<rscale>  0 0.35851822E+03</rscale>
<asrwt>0</asrwt>
<pdfrwt beam="1">  1        1 0.25511769E+00 0.36253267E+03</pdfrwt>
<pdfrwt beam="2">  1       -1 0.12567838E-01 0.36253267E+03</pdfrwt>
<totfact> 0.23699648E+02</totfact>
</mgrwt>
</event>
<event>
 8    1  0.2018715E-005  0.1350120E+03  0.7546771E-02  0.1227272E+00
         -1   -1    0    0    0  501 -0.00000000000E+00  0.00000000000E+00  0.62036428045E+02  0.62036428045E+02  0.00000000000E+00 0.  1.
          1   -1    0    0  501    0  0.00000000000E+00 -0.00000000000E+00 -0.29362129669E+03  0.29362129669E+03  0.00000000000E+00 0. -1.
         25    2    1    2    0    0 -0.17338922278E+02 -0.48048296788E+02 -0.18760680083E+03  0.23113751296E+03  0.12497584218E+03 0.  0.
         23    2    1    2    0    0  0.17338922278E+02  0.48048296788E+02 -0.43978067817E+02  0.12452021178E+03  0.10469926286E+03 0.  0.
          5    1    4    4  502    0 -0.13523387331E+02  0.70140242706E+02 -0.80339866722E+01  0.72035897951E+02  0.47000000000E+01 0. -1.
         -5    1    4    4    0  502  0.30862309608E+02 -0.22091945918E+02 -0.35944081145E+02  0.52484313830E+02  0.47000000000E+01 0.  1.
          5    1    3    3  503    0  0.25242292875E+02 -0.15224549106E+01 -0.16012877579E+03  0.16218139861E+03  0.47000000000E+01 0.  1.
         -5    1    3    3    0  503 -0.42581215152E+02 -0.46525841878E+02 -0.27478025044E+02  0.68956114352E+02  0.47000000000E+01 0.  1.
<mgrwt>
<rscale>  0 0.13012376E+03</rscale>
<asrwt>0</asrwt>
<pdfrwt beam="1">  1        1 0.45172508E-01 0.13501199E+03</pdfrwt>
<pdfrwt beam="2">  1       -1 0.95440657E-02 0.13501199E+03</pdfrwt>
<totfact> 0.56427077E+03</totfact>
</mgrwt>
</event>
<event>
 8    1  0.2018715E-005  0.1572762E+03  0.7546771E-02  0.1205581E+00
         -2   -1    0    0    0  501 -0.00000000000E+00  0.00000000000E+00  0.21140094437E+03  0.21140094437E+03  0.00000000000E+00 0.  1.
          2   -1    0    0  501    0  0.00000000000E+00 -0.00000000000E+00 -0.10856141963E+03  0.10856141963E+03  0.00000000000E+00 0. -1.
         25    2    1    2    0    0  0.90610040990E+02  0.29964562120E+02  0.12554503470E+03  0.20123953221E+03  0.12501095581E+03 0.  0.
         23    2    1    2    0    0 -0.90610040990E+02 -0.29964562120E+02 -0.22705509965E+02  0.11872283179E+03  0.66869395803E+02 0.  0.
          5    1    3    3  502    0  0.33552379830E+02 -0.40946066325E+02  0.87723019165E+02  0.10256588434E+03  0.47000000000E+01 0. -1.
         -5    1    4    4    0  503 -0.63026131789E+02 -0.32748655126E+02  0.13937819328E+02  0.72533581936E+02  0.47000000000E+01 0.  1.
          5    1    4    4  503    0 -0.27583909201E+02  0.27840930062E+01 -0.36643329294E+02  0.46189249858E+02  0.47000000000E+01 0. -1.
         -5    1    3    3    0  502  0.57057661160E+02  0.70910628445E+02  0.37822015538E+02  0.98673647864E+02  0.47000000000E+01 0. -1.
<mgrwt>
<rscale>  0 0.14591769E+03</rscale>
<asrwt>0</asrwt>
<pdfrwt beam="1">  1        2 0.16701757E-01 0.15727617E+03</pdfrwt>
<pdfrwt beam="2">  1       -2 0.32523222E-01 0.15727617E+03</pdfrwt>
<totfact> 0.29326896E+03</totfact>
</mgrwt>
</event>
<event>
 7    1  0.2018715E-005  0.2488743E+03  0.7546771E-02  0.1118640E+00
         -2   -1    0    0    0  501 -0.00000000000E+00  0.00000000000E+00  0.50909148086E+02  0.50909148086E+02  0.00000000000E+00 0. -1.
          2   -1    0    0  501    0  0.00000000000E+00 -0.00000000000E+00 -0.15152750183E+04  0.15152750183E+04  0.00000000000E+00 0.  1.
         25    2    1    2    0    0  0.49626462089E+02 -0.20940163703E+03 -0.11786676318E+04  0.12046558762E+04  0.12500624968E+03 0.  0.
          5    1    3    3  502    0  0.63782698240E+02 -0.66321211146E+02 -0.28608958084E+03  0.30055960125E+03  0.47000000000E+01 0.  1.
         -5    1    3    3    0  502 -0.14156236151E+02 -0.14308042588E+03 -0.89257805101E+03  0.90409627498E+03  0.47000000000E+01 0.  1.
          5    1    1    2  503    0 -0.98032083162E+01  0.51155501437E+02 -0.37098314040E+02  0.64119912080E+02  0.47000000000E+01 0. -1.
         -5    1    1    2    0  503 -0.39823253773E+02  0.15824613559E+03 -0.24859992432E+03  0.29740837807E+03  0.47000000000E+01 0.  1.
<mgrwt>
<rscale>  0 0.24173926E+03</rscale>
<asrwt>0</asrwt>
<pdfrwt beam="1">  1        2 0.23311921E+00 0.24887425E+03</pdfrwt>
<pdfrwt beam="2">  1       -2 0.78321774E-02 0.24887425E+03</pdfrwt>
<totfact> 0.13118977E+03</totfact>
</mgrwt>
</event>
<event>
 8    1  0.2018715E-005  0.1404415E+03  0.7546771E-02  0.1213308E+00
         -1   -1    0    0    0  501 -0.00000000000E+00  0.00000000000E+00  0.16504839470E+03  0.16504839470E+03  0.00000000000E+00 0.  1.
          1   -1    0    0  501    0  0.00000000000E+00 -0.00000000000E+00 -0.11915744080E+03  0.11915744080E+03  0.00000000000E+00 0. -1.
         25    2    1    2    0    0  0.13889155930E+02 -0.62499282457E+02  0.36688500784E+02  0.14515464887E+03  0.12499902815E+03 0.  0.
         23    2    1    2    0    0 -0.13889155930E+02  0.62499282457E+02  0.92024531151E+01  0.13905118663E+03  0.12309134170E+03 0.  0.
          5    1    3    3  502    0  0.37700038117E+02 -0.27047218255E+02  0.74519029347E+02  0.87909161207E+02  0.47000000000E+01 0.  1.
         -5    1    3    3    0  502 -0.23810882187E+02 -0.35452064202E+02 -0.37830528563E+02  0.57245487665E+02  0.47000000000E+01 0.  1.
          5    1    4    4  503    0  0.48232146947E+02  0.19957113012E+02 -0.22738424549E+02  0.57129259665E+02  0.47000000000E+01 0. -1.
         -5    1    4    4    0  503 -0.62121302877E+02  0.42542169445E+02  0.31940877664E+02  0.81921926968E+02  0.47000000000E+01 0.  1.
<mgrwt>
<rscale>  0 0.14001581E+03</rscale>
<asrwt>0</asrwt>
<pdfrwt beam="1">  1        1 0.18331914E-01 0.14044154E+03</pdfrwt>
<pdfrwt beam="2">  1       -1 0.25392061E-01 0.14044154E+03</pdfrwt>
<totfact> 0.37361993E+03</totfact>
</mgrwt>
</event>
<event>
 8    1  0.2018715E-005  0.1337299E+03  0.7546771E-02  0.1228689E+00
         -3   -1    0    0    0  501 -0.00000000000E+00  0.00000000000E+00  0.12719020487E+03  0.12719020487E+03  0.00000000000E+00 0.  1.
          3   -1    0    0  501    0  0.00000000000E+00 -0.00000000000E+00 -0.20481980922E+03  0.20481980922E+03  0.00000000000E+00 0. -1.
         25    2    1    2    0    0  0.28497056599E+02 -0.38030941987E+02  0.64351353456E+02  0.14840746617E+03  0.12500097815E+03 0.  0.
         23    2    1    2    0    0 -0.28497056599E+02  0.38030941987E+02 -0.14198095781E+03  0.18360254792E+03  0.10626790879E+03 0.  0.
          5    1    4    4  502    0 -0.51228579460E+02  0.42390724398E+02 -0.14519609276E+03  0.15976650531E+03  0.47000000000E+01 0. -1.
         -5    1    4    4    0  502  0.22731522860E+02 -0.43597824111E+01  0.32151349488E+01  0.23836042603E+02  0.47000000000E+01 0.  1.
          5    1    3    3  503    0  0.57818322463E+02 -0.65050608772E+02  0.21673043786E+02  0.89812866233E+02  0.47000000000E+01 0. -1.
         -5    1    3    3    0  503 -0.29321265864E+02  0.27019666785E+02  0.42678309671E+02  0.58594599933E+02  0.47000000000E+01 0. -1.
<mgrwt>
<rscale>  0 0.12917217E+03</rscale>
<asrwt>0</asrwt>
<pdfrwt beam="1">  1        3 0.31510740E-01 0.13372987E+03</pdfrwt>
<pdfrwt beam="2">  1       -3 0.19567724E-01 0.13372987E+03</pdfrwt>
<totfact> 0.52860849E+02</totfact>
</mgrwt>
</event>
<event>
 8    1  0.2018715E-005  0.1584803E+03  0.7546771E-02  0.1205790E+00
         -1   -1    0    0    0  501 -0.00000000000E+00  0.00000000000E+00  0.97475660282E+02  0.97475660282E+02  0.00000000000E+00 0.  1.
          1   -1    0    0  501    0  0.00000000000E+00 -0.00000000000E+00 -0.22629960942E+03  0.22629960942E+03  0.00000000000E+00 0. -1.
         25    2    1    2    0    0  0.76055860942E+02  0.60883813525E+02 -0.88906751765E+01  0.15872944446E+03  0.12499863880E+03 0.  0.
         23    2    1    2    0    0 -0.76055860942E+02 -0.60883813525E+02 -0.11993327396E+03  0.16504582524E+03  0.58006909011E+02 0.  0.
          5    1    3    3  502    0  0.94009305555E+01  0.55538687757E+02 -0.53806036818E+02  0.78039111548E+02  0.47000000000E+01 0. -1.
         -5    1    3    3    0  502  0.66654930387E+02  0.53451257675E+01  0.44915361642E+02  0.80690332914E+02  0.47000000000E+01 0. -1.
          5    1    4    4  503    0 -0.30503205863E+02 -0.46336058355E+02 -0.96913176390E+02  0.11176640654E+03  0.47000000000E+01 0. -1.
         -5    1    4    4    0  503 -0.45552655080E+02 -0.14547755170E+02 -0.23020097570E+02  0.53279418704E+02  0.47000000000E+01 0.  1.
<mgrwt>
<rscale>  0 0.14575390E+03</rscale>
<asrwt>0</asrwt>
<pdfrwt beam="1">  1        1 0.34815324E-01 0.15848026E+03</pdfrwt>
<pdfrwt beam="2">  1       -1 0.14996256E-01 0.15848026E+03</pdfrwt>
<totfact> 0.39090693E+03</totfact>
</mgrwt>
</event>
<event>
 7    1  0.2018715E-005  0.1518691E+03  0.7546771E-02  0.1216966E+00
         -2   -1    0    0    0  501 -0.00000000000E+00  0.00000000000E+00  0.40839485001E+03  0.40839485001E+03  0.00000000000E+00 0.  1.
          2   -1    0    0  501    0  0.00000000000E+00 -0.00000000000E+00 -0.54691189486E+02  0.54691189486E+02  0.00000000000E+00 0. -1.
         25    2    1    2    0    0 -0.71507379774E+02 -0.48225479082E+02  0.81065681305E+02  0.17215067808E+03  0.12500083633E+03 0.  0.
          5    1    3    3  502    0 -0.99446425411E+02 -0.75714238432E+01  0.68330976030E+02  0.12098814104E+03  0.47000000000E+01 0.  1.
         -5    1    1    2    0  503  0.22211238887E+02  0.43005705471E+02  0.17060215836E+03  0.17739790380E+03  0.47000000000E+01 0.  1.
          5    1    1    2  503    0  0.49296140888E+02  0.52197736102E+01  0.10203582086E+03  0.11353745761E+03  0.47000000000E+01 0. -1.
         -5    1    3    3    0  502  0.27939045637E+02 -0.40654055238E+02  0.12734705275E+02  0.51162537045E+02  0.47000000000E+01 0.  1.
<mgrwt>
<rscale>  0 0.13733126E+03</rscale>
<asrwt>0</asrwt>
<pdfrwt beam="1">  1        2 0.84140294E-02 0.15186906E+03</pdfrwt>
<pdfrwt beam="2">  1       -2 0.62829975E-01 0.15186906E+03</pdfrwt>
<totfact> 0.18599673E+03</totfact>
</mgrwt>
</event>
<event>
 8    1  0.2018715E-005  0.1638422E+03  0.7546771E-02  0.1187012E+00
          4   -1    0    0  501    0  0.00000000000E+00  0.00000000000E+00  0.91775476819E+02  0.91775476819E+02  0.00000000000E+00 0. -1.
         -4   -1    0    0    0  501 -0.00000000000E+00 -0.00000000000E+00 -0.30026001477E+03  0.30026001477E+03  0.00000000000E+00 0.  1.
         25    2    1    2    0    0 -0.10261287277E+03  0.26252068022E+02 -0.51731965873E+02  0.17181519672E+03  0.12500277116E+03 0.  0.
         23    2    1    2    0    0  0.10261287277E+03 -0.26252068022E+02 -0.15675257207E+03  0.22022029486E+03  0.11272549260E+03 0.  0.
          5    1    4    4  502    0  0.12399766330E+03 -0.18903279288E+02 -0.10536000596E+03  0.16387670771E+03  0.47000000000E+01 0. -1.
         -5    1    4    4    0  502 -0.21384790529E+02 -0.73487887343E+01 -0.51392566112E+02  0.56343587154E+02  0.47000000000E+01 0.  1.
          5    1    3    3  503    0 -0.65408400754E+02  0.56357022075E+02 -0.78493999978E+02  0.11678086684E+03  0.47000000000E+01 0.  1.
         -5    1    3    3    0  503 -0.37204472020E+02 -0.30104954053E+02  0.26762034105E+02  0.55034329888E+02  0.47000000000E+01 0.  1.
<mgrwt>
<rscale>  0 0.16150174E+03</rscale>
<asrwt>0</asrwt>
<pdfrwt beam="1">  1        4 0.14119304E-01 0.16384220E+03</pdfrwt>
<pdfrwt beam="2">  1       -4 0.46193848E-01 0.16384220E+03</pdfrwt>
<totfact> 0.32881614E+02</totfact>
</mgrwt>
</event>
<event>
 7    1  0.2018715E-005  0.2458320E+03  0.7546771E-02  0.1132269E+00
         -1   -1    0    0    0  501 -0.00000000000E+00  0.00000000000E+00  0.28591002259E+03  0.28591002259E+03  0.00000000000E+00 0.  1.
          1   -1    0    0  501    0  0.00000000000E+00 -0.00000000000E+00 -0.17416230836E+03  0.17416230836E+03  0.00000000000E+00 0. -1.
         25    2    1    2    0    0 -0.42916110415E+02 -0.97174769758E+02  0.13596854389E+03  0.21305001965E+03  0.12497254713E+03 0.  0.
          5    1    3    3  502    0  0.33413106806E+00 -0.24530154290E+02 -0.22344768544E+02  0.33514456498E+02  0.47000000000E+01 0.  1.
         -5    1    3    3    0  502 -0.43250241483E+02 -0.72644615468E+02  0.15831331243E+03  0.17953556316E+03  0.47000000000E+01 0.  1.
          5    1    1    2  503    0  0.77471211032E+02  0.13333213359E+03 -0.78470325050E+02  0.17308647636E+03  0.47000000000E+01 0. -1.
         -5    1    1    2    0  503 -0.34555100617E+02 -0.36157363828E+02  0.54249495388E+02  0.73935834935E+02  0.47000000000E+01 0.  1.
<mgrwt>
<rscale>  0 0.22217932E+03</rscale>
<asrwt>0</asrwt>
<pdfrwt beam="1">  1        1 0.26794201E-01 0.24583200E+03</pdfrwt>
<pdfrwt beam="2">  1       -1 0.43986157E-01 0.24583200E+03</pdfrwt>
<totfact> 0.91050565E+02</totfact>
</mgrwt>
</event>
<event>
 8    1  0.2018715E-005  0.1402732E+03  0.7546771E-02  0.1229391E+00
          1   -1    0    0  501    0  0.00000000000E+00  0.00000000000E+00  0.20807427798E+03  0.20807427798E+03  0.00000000000E+00 0. -1.
         -1   -1    0    0    0  501 -0.00000000000E+00 -0.00000000000E+00 -0.69289222503E+02  0.69289222503E+02  0.00000000000E+00 0.  1.
         25    2    1    2    0    0  0.47699715670E+02 -0.42084374769E+02  0.89591384817E+02  0.16644272972E+03  0.12502083254E+03 0.  0.
         23    2    1    2    0    0 -0.47699715670E+02  0.42084374769E+02  0.49193670658E+02  0.11092077076E+03  0.76400541091E+02 0.  0.
          5    1    3    3  502    0 -0.20367355357E+02 -0.51394292461E+02  0.79351223147E+02  0.96824114128E+02  0.47000000000E+01 0.  1.
         -5    1    4    4    0  503 -0.24858054053E+02  0.29946428406E+02 -0.14670406828E+02  0.41857165003E+02  0.47000000000E+01 0.  1.
          5    1    4    4  503    0 -0.22841661618E+02  0.12137946362E+02  0.63864077486E+02  0.69063605760E+02  0.47000000000E+01 0. -1.
         -5    1    3    3    0  502  0.68067071027E+02  0.93099176923E+01  0.10240161670E+02  0.69618615590E+02  0.47000000000E+01 0.  1.
<mgrwt>
<rscale>  0 0.12870466E+03</rscale>
<asrwt>0</asrwt>
<pdfrwt beam="1">  1        1 0.32011427E-01 0.14027318E+03</pdfrwt>
<pdfrwt beam="2">  1       -1 0.10659881E-01 0.14027318E+03</pdfrwt>
<totfact> 0.73170355E+03</totfact>
</mgrwt>
</event>
<event>
 8    1  0.2018715E-005  0.1571693E+03  0.7546771E-02  0.1203086E+00
         -1   -1    0    0    0  501 -0.00000000000E+00  0.00000000000E+00  0.21379339527E+02  0.21379339527E+02  0.00000000000E+00 0.  1.
          1   -1    0    0  501    0  0.00000000000E+00 -0.00000000000E+00 -0.10339226733E+04  0.10339226733E+04  0.00000000000E+00 0. -1.
         25    2    1    2    0    0  0.94951580708E+02  0.78395680746E+01 -0.73528002348E+03  0.75189021202E+03  0.12499966597E+03 0.  0.
         23    2    1    2    0    0 -0.94951580708E+02 -0.78395680746E+01 -0.27726331028E+03  0.30341180079E+03  0.78144200864E+02 0.  0.
          5    1    3    3  502    0 -0.28991162804E+02 -0.40609074076E+01 -0.92191213727E+02  0.96841563278E+02  0.47000000000E+01 0.  1.
         -5    1    3    3    0  502  0.12394274351E+03  0.11900475482E+02 -0.64308880975E+03  0.65504864874E+03  0.47000000000E+01 0.  1.
          5    1    4    4  503    0 -0.38843189477E+02 -0.38078103575E+01 -0.21819377794E+03  0.22170680530E+03  0.47000000000E+01 0. -1.
         -5    1    4    4    0  503 -0.56108391232E+02 -0.40317577170E+01 -0.59069532340E+02  0.81704995489E+02  0.47000000000E+01 0.  1.
<mgrwt>
<rscale>  0 0.14789320E+03</rscale>
<asrwt>0</asrwt>
<pdfrwt beam="1">  1        1 0.15906499E+00 0.15716927E+03</pdfrwt>
<pdfrwt beam="2">  1       -1 0.32891299E-02 0.15716927E+03</pdfrwt>
<totfact> 0.48773181E+03</totfact>
</mgrwt>
</event>
<event>
 8    1  0.2018715E-005  0.2152044E+03  0.7546771E-02  0.1139683E+00
         -1   -1    0    0    0  501 -0.00000000000E+00  0.00000000000E+00  0.77114621279E+02  0.77114621279E+02  0.00000000000E+00 0.  1.
          1   -1    0    0  501    0  0.00000000000E+00 -0.00000000000E+00 -0.66112266988E+03  0.66112266988E+03  0.00000000000E+00 0. -1.
         25    2    1    2    0    0 -0.11598082922E+03 -0.13127334927E+03 -0.43545762986E+03  0.48573271078E+03  0.12501469495E+03 0.  0.
         23    2    1    2    0    0  0.11598082922E+03  0.13127334927E+03 -0.14855041874E+03  0.25250458037E+03  0.10491468547E+03 0.  0.
          5    1    3    3  502    0 -0.62253825997E+02 -0.34840580665E+01 -0.65152185945E+02  0.90302684596E+02  0.47000000000E+01 0. -1.
         -5    1    4    4    0  503  0.31865458647E+02  0.24602365580E+01  0.76662711580E+01  0.33201233895E+02  0.47000000000E+01 0.  1.
          5    1    4    4  503    0  0.84115370569E+02  0.12881311271E+03 -0.15621668990E+03  0.21930334648E+03  0.47000000000E+01 0. -1.
         -5    1    3    3    0  502 -0.53727003218E+02 -0.12778929120E+03 -0.37030544391E+03  0.39543002619E+03  0.47000000000E+01 0. -1.
<mgrwt>
<rscale>  0 0.21239488E+03</rscale>
<asrwt>0</asrwt>
<pdfrwt beam="1">  1        1 0.10171118E+00 0.21520437E+03</pdfrwt>
<pdfrwt beam="2">  1       -1 0.11863788E-01 0.21520437E+03</pdfrwt>
<totfact> 0.14265955E+03</totfact>
</mgrwt>
</event>
<event>
 8    1  0.2018715E-005  0.1365526E+03  0.7546771E-02  0.1237019E+00
          2   -1    0    0  501    0  0.00000000000E+00  0.00000000000E+00  0.34121471265E+03  0.34121471265E+03  0.00000000000E+00 0. -1.
         -2   -1    0    0    0  501 -0.00000000000E+00 -0.00000000000E+00 -0.40916043946E+02  0.40916043946E+02  0.00000000000E+00 0.  1.
         25    2    1    2    0    0  0.22726831554E+02 -0.50035207127E+02  0.22474537538E+03  0.26297738308E+03  0.12500635755E+03 0.  0.
         23    2    1    2    0    0 -0.22726831554E+02  0.50035207127E+02  0.75553293316E+02  0.11915337352E+03  0.73954009120E+02 0.  0.
          5    1    4    4  502    0 -0.93684909832E+01  0.68146953535E+02  0.59962816016E+02  0.91375079775E+02  0.47000000000E+01 0.  1.
         -5    1    3    3    0  503 -0.11388294438E+02 -0.73376792153E+02  0.67970850207E+02  0.10077684930E+03  0.47000000000E+01 0.  1.
          5    1    3    3  503    0  0.34115125991E+02  0.23341585026E+02  0.15677452518E+03  0.16220053378E+03  0.47000000000E+01 0.  1.
         -5    1    4    4    0  502 -0.13358340571E+02 -0.18111746408E+02  0.15590477301E+02  0.27778293742E+02  0.47000000000E+01 0. -1.
<mgrwt>
<rscale>  0 0.12376093E+03</rscale>
<asrwt>0</asrwt>
<pdfrwt beam="1">  1        2 0.52494569E-01 0.13655263E+03</pdfrwt>
<pdfrwt beam="2">  1       -2 0.62947762E-02 0.13655263E+03</pdfrwt>
<totfact> 0.12332328E+04</totfact>
</mgrwt>
</event>
<event>
 8    1  0.2018715E-005  0.1291375E+03  0.7546771E-02  0.1249678E+00
          1   -1    0    0  501    0  0.00000000000E+00  0.00000000000E+00  0.24581609730E+02  0.24581609730E+02  0.00000000000E+00 0. -1.
         -1   -1    0    0    0  501 -0.00000000000E+00 -0.00000000000E+00 -0.46627697229E+03  0.46627697229E+03  0.00000000000E+00 0.  1.
         25    2    1    2    0    0 -0.30440456356E+02  0.11185807829E+02 -0.24858091969E+03  0.28012312527E+03  0.12499899199E+03 0.  0.
         23    2    1    2    0    0  0.30440456356E+02 -0.11185807829E+02 -0.19311444287E+03  0.21073545675E+03  0.77874906139E+02 0.  0.
          5    1    4    4  502    0  0.15046879337E+02  0.15289462236E+02 -0.85145470236E+01  0.23553423196E+02  0.47000000000E+01 0. -1.
         -5    1    3    3    0  503 -0.13029807073E+02  0.46462077753E+02 -0.23227363414E+03  0.23727964864E+03  0.47000000000E+01 0. -1.
          5    1    3    3  503    0 -0.17410649283E+02 -0.35276269924E+02 -0.16307285553E+02  0.42843476637E+02  0.47000000000E+01 0. -1.
         -5    1    4    4    0  502  0.15393577019E+02 -0.26475270065E+02 -0.18459989585E+03  0.18718203355E+03  0.47000000000E+01 0.  1.
<mgrwt>
<rscale>  0 0.11609690E+03</rscale>
<asrwt>0</asrwt>
<pdfrwt beam="1">  1        1 0.37817863E-02 0.12913749E+03</pdfrwt>
<pdfrwt beam="2">  1       -1 0.71734915E-01 0.12913749E+03</pdfrwt>
<totfact> 0.47788677E+03</totfact>
</mgrwt>
</event>
<event>
 8    1  0.2018715E-005  0.2265654E+03  0.7546771E-02  0.1134479E+00
          1   -1    0    0  501    0  0.00000000000E+00  0.00000000000E+00  0.26934875103E+04  0.26934875103E+04  0.00000000000E+00 0. -1.
         -1   -1    0    0    0  501 -0.00000000000E+00 -0.00000000000E+00 -0.18691331075E+02  0.18691331075E+02  0.00000000000E+00 0.  1.
         25    2    1    2    0    0 -0.13153777500E+03 -0.13566075195E+03  0.18503024128E+04  0.18641220217E+04  0.12500346844E+03 0.  0.
         23    2    1    2    0    0  0.13153777500E+03  0.13566075195E+03  0.82449376637E+03  0.84805681962E+03  0.60863557609E+02 0.  0.
          5    1    4    4  502    0  0.67418851861E+02  0.91530486545E+02  0.59199486786E+03  0.60282928356E+03  0.47000000000E+01 0. -1.
         -5    1    4    4    0  502  0.64118923134E+02  0.44130265401E+02  0.23249889851E+03  0.24522753605E+03  0.47000000000E+01 0.  1.
          5    1    3    3  503    0 -0.11946243786E+03 -0.15308732308E+03  0.17793547798E+04  0.17899252847E+04  0.47000000000E+01 0. -1.
         -5    1    3    3    0  503 -0.12075337140E+02  0.17426571133E+02  0.70947633032E+02  0.74196736999E+02  0.47000000000E+01 0. -1.
<mgrwt>
<rscale>  0 0.21920305E+03</rscale>
<asrwt>0</asrwt>
<pdfrwt beam="1">  1        1 0.41438239E+00 0.22656543E+03</pdfrwt>
<pdfrwt beam="2">  1       -1 0.28755915E-02 0.22656543E+03</pdfrwt>
<totfact> 0.47607488E+02</totfact>
</mgrwt>
</event>
<event>
 8    1  0.2018715E-005  0.1351579E+03  0.7546771E-02  0.1225227E+00
          2   -1    0    0  501    0  0.00000000000E+00  0.00000000000E+00  0.41355304049E+02  0.41355304049E+02  0.00000000000E+00 0. -1.
         -2   -1    0    0    0  501 -0.00000000000E+00 -0.00000000000E+00 -0.40534103762E+03  0.40534103762E+03  0.00000000000E+00 0.  1.
         25    2    1    2    0    0  0.19137486868E+02  0.47708745385E+02 -0.16004488599E+03  0.20948039349E+03  0.12500120774E+03 0.  0.
         23    2    1    2    0    0 -0.19137486868E+02 -0.47708745385E+02 -0.20394084758E+03  0.23721594817E+03  0.10971403268E+03 0.  0.
          5    1    3    3  502    0  0.65643461719E+02 -0.33211591368E+01 -0.74933409827E+02  0.99785770893E+02  0.47000000000E+01 0.  1.
         -5    1    4    4    0  503  0.44472438134E+02 -0.15990469848E+02 -0.10557486693E+03  0.11576543269E+03  0.47000000000E+01 0.  1.
          5    1    4    4  503    0 -0.63609925002E+02 -0.31718275537E+02 -0.98365980651E+02  0.12145051548E+03  0.47000000000E+01 0. -1.
         -5    1    3    3    0  502 -0.46505974851E+02  0.51029904522E+02 -0.85111476165E+02  0.10969462260E+03  0.47000000000E+01 0.  1.
<mgrwt>
<rscale>  0 0.13151347E+03</rscale>
<asrwt>0</asrwt>
<pdfrwt beam="1">  1        2 0.63623543E-02 0.13515794E+03</pdfrwt>
<pdfrwt beam="2">  1       -2 0.62360162E-01 0.13515794E+03</pdfrwt>
<totfact> 0.26746825E+03</totfact>
</mgrwt>
</event>
<event>
 8    1  0.2018715E-005  0.1278436E+03  0.7546771E-02  0.1237316E+00
          1   -1    0    0  501    0  0.00000000000E+00  0.00000000000E+00  0.80894142367E+03  0.80894142367E+03  0.00000000000E+00 0. -1.
         -1   -1    0    0    0  501 -0.00000000000E+00 -0.00000000000E+00 -0.19692775939E+02  0.19692775939E+02  0.00000000000E+00 0.  1.
         25    2    1    2    0    0  0.55725079621E+01 -0.26201640457E+02  0.28780159887E+03  0.31491862606E+03  0.12500560754E+03 0.  0.
         23    2    1    2    0    0 -0.55725079621E+01  0.26201640457E+02  0.50144704885E+03  0.51371557355E+03  0.10833729225E+03 0.  0.
          5    1    3    3  502    0  0.28527941603E+02  0.57580714029E+00  0.27588172622E+03  0.27739320804E+03  0.47000000000E+01 0.  1.
         -5    1    3    3    0  502 -0.22955433641E+02 -0.26777447598E+02  0.11919872657E+02  0.37525418021E+02  0.47000000000E+01 0.  1.
          5    1    4    4  503    0 -0.52230314748E+02  0.35792668326E+02  0.26896605506E+03  0.27635837179E+03  0.47000000000E+01 0. -1.
         -5    1    4    4    0  503  0.46657806786E+02 -0.95910278692E+01  0.23248099379E+03  0.23735720175E+03  0.47000000000E+01 0.  1.
<mgrwt>
<rscale>  0 0.12357345E+03</rscale>
<asrwt>0</asrwt>
<pdfrwt beam="1">  1        1 0.12445250E+00 0.12784358E+03</pdfrwt>
<pdfrwt beam="2">  1       -1 0.30296585E-02 0.12784358E+03</pdfrwt>
<totfact> 0.80882638E+03</totfact>
</mgrwt>
</event>
<event>
 8    1  0.2018715E-005  0.1590979E+03  0.7546771E-02  0.1193765E+00
         -2   -1    0    0    0  501 -0.00000000000E+00  0.00000000000E+00  0.46644264200E+02  0.46644264200E+02  0.00000000000E+00 0.  1.
          2   -1    0    0  501    0  0.00000000000E+00 -0.00000000000E+00 -0.65997083702E+03  0.65997083702E+03  0.00000000000E+00 0. -1.
         25    2    1    2    0    0  0.49923816773E+02  0.84820157063E+02 -0.49218782926E+03  0.51726298991E+03  0.12500117974E+03 0.  0.
         23    2    1    2    0    0 -0.49923816773E+02 -0.84820157063E+02 -0.12113874356E+03  0.18935211130E+03  0.10720438582E+03 0.  0.
          5    1    4    4  502    0 -0.47814448755E+02 -0.15070459286E+02 -0.10663324619E+03  0.11792404100E+03  0.47000000000E+01 0. -1.
         -5    1    4    4    0  502 -0.21093680174E+01 -0.69749697777E+02 -0.14505497368E+02  0.71428070303E+02  0.47000000000E+01 0.  1.
          5    1    3    3  503    0  0.80534015546E+02  0.14496570907E+02 -0.23829351756E+03  0.25199557285E+03  0.47000000000E+01 0.  1.
         -5    1    3    3    0  503 -0.30610198773E+02  0.70323586156E+02 -0.25389431170E+03  0.26526741706E+03  0.47000000000E+01 0.  1.
<mgrwt>
<rscale>  0 0.15559231E+03</rscale>
<asrwt>0</asrwt>
<pdfrwt beam="1">  1        2 0.10153397E+00 0.15909790E+03</pdfrwt>
<pdfrwt beam="2">  1       -2 0.71760409E-02 0.15909790E+03</pdfrwt>
<totfact> 0.49281753E+03</totfact>
</mgrwt>
</event>
<event>
 8    1  0.2018715E-005  0.1468746E+03  0.7546771E-02  0.1209396E+00
         -2   -1    0    0    0  501 -0.00000000000E+00  0.00000000000E+00  0.27472648594E+03  0.27472648594E+03  0.00000000000E+00 0.  1.
          2   -1    0    0  501    0  0.00000000000E+00 -0.00000000000E+00 -0.74122756634E+02  0.74122756634E+02  0.00000000000E+00 0. -1.
         25    2    1    2    0    0  0.38307726326E+02  0.66928096149E+02  0.14293226298E+03  0.20494332881E+03  0.12500113710E+03 0.  0.
         23    2    1    2    0    0 -0.38307726326E+02 -0.66928096149E+02  0.57671466328E+02  0.14390591376E+03  0.10693952513E+03 0.  0.
          5    1    4    4  502    0 -0.49409029881E+02 -0.25514835446E+02 -0.16422010526E+02  0.58172428962E+02  0.47000000000E+01 0. -1.
         -5    1    3    3    0  503  0.44050497398E+02  0.93864701498E+02  0.65767275432E+02  0.12287576257E+03  0.47000000000E+01 0.  1.
          5    1    3    3  503    0 -0.57427710724E+01 -0.26936605349E+02  0.77164987545E+02  0.82067566249E+02  0.47000000000E+01 0.  1.
         -5    1    4    4    0  502  0.11101303555E+02 -0.41413260703E+02  0.74093476854E+02  0.85733484795E+02  0.47000000000E+01 0.  1.
<mgrwt>
<rscale>  0 0.14296353E+03</rscale>
<asrwt>0</asrwt>
<pdfrwt beam="1">  1        2 0.11403501E-01 0.14687456E+03</pdfrwt>
<pdfrwt beam="2">  1       -2 0.42265613E-01 0.14687456E+03</pdfrwt>
<totfact> 0.28144042E+03</totfact>
</mgrwt>
</event>
<event>
 8    1  0.2018715E-005  0.1381287E+03  0.7546771E-02  0.1222976E+00
          2   -1    0    0  501    0  0.00000000000E+00  0.00000000000E+00  0.17033136654E+04  0.17033136654E+04  0.00000000000E+00 0. -1.
         -2   -1    0    0    0  501 -0.00000000000E+00 -0.00000000000E+00 -0.97886464178E+01  0.97886464178E+01  0.00000000000E+00 0.  1.
         25    2    1    2    0    0  0.42321358685E+01  0.58630927170E+02  0.99002806056E+03  0.99961747690E+03  0.12499617130E+03 0.  0.
         23    2    1    2    0    0 -0.42321358685E+01 -0.58630927170E+02  0.70349695844E+03  0.71348483493E+03  0.10342699140E+03 0.  0.
          5    1    4    4  502    0  0.28988425909E+02 -0.61324391294E+02  0.61593039380E+03  0.61967196952E+03  0.47000000000E+01 0. -1.
         -5    1    3    3    0  503  0.63303930936E+02  0.31816845164E+02  0.42972322805E+03  0.43555004538E+03  0.47000000000E+01 0. -1.
          5    1    3    3  503    0 -0.59071795068E+02  0.26814082006E+02  0.56030483251E+03  0.56406743152E+03  0.47000000000E+01 0. -1.
         -5    1    4    4    0  502 -0.33220561777E+02  0.26934641243E+01  0.87566564640E+02  0.93812865411E+02  0.47000000000E+01 0.  1.
<mgrwt>
<rscale>  0 0.13306616E+03</rscale>
<asrwt>0</asrwt>
<pdfrwt beam="1">  1        2 0.26204802E+00 0.13812871E+03</pdfrwt>
<pdfrwt beam="2">  1       -2 0.15059470E-02 0.13812871E+03</pdfrwt>
<totfact> 0.12181924E+04</totfact>
</mgrwt>
</event>
<event>
 8    1  0.2018715E-005  0.1721654E+03  0.7546771E-02  0.1178020E+00
          1   -1    0    0  501    0  0.00000000000E+00  0.00000000000E+00  0.85766690309E+02  0.85766690309E+02  0.00000000000E+00 0. -1.
         -1   -1    0    0    0  501 -0.00000000000E+00 -0.00000000000E+00 -0.33725806065E+03  0.33725806065E+03  0.00000000000E+00 0.  1.
         25    2    1    2    0    0 -0.96369285354E+02 -0.68765146048E+02 -0.16502359795E+03  0.23848211785E+03  0.12500099273E+03 0.  0.
         23    2    1    2    0    0  0.96369285354E+02  0.68765146048E+02 -0.86467772392E+02  0.18454263311E+03  0.11208756979E+03 0.  0.
          5    1    3    3  502    0 -0.51398749315E+02 -0.10266126147E+03 -0.99917840266E+02  0.15227222610E+03  0.47000000000E+01 0.  1.
         -5    1    3    3    0  502 -0.44970536040E+02  0.33896115423E+02 -0.65105757686E+02  0.86209891754E+02  0.47000000000E+01 0.  1.
          5    1    4    4  503    0  0.45893814701E+02  0.40641343755E+01  0.19655251980E+02  0.50310817390E+02  0.47000000000E+01 0. -1.
         -5    1    4    4    0  503  0.50475470653E+02  0.64701011672E+02 -0.10612302437E+03  0.13423181572E+03  0.47000000000E+01 0.  1.
<mgrwt>
<rscale>  0 0.16983508E+03</rscale>
<asrwt>0</asrwt>
<pdfrwt beam="1">  1        1 0.13194875E-01 0.17216542E+03</pdfrwt>
<pdfrwt beam="2">  1       -1 0.51885856E-01 0.17216542E+03</pdfrwt>
<totfact> 0.16683513E+03</totfact>
</mgrwt>
</event>
<event>
 8    1  0.2018715E-005  0.1350190E+03  0.7546771E-02  0.1242841E+00
         -2   -1    0    0    0  501 -0.00000000000E+00  0.00000000000E+00  0.60893968210E+02  0.60893968210E+02  0.00000000000E+00 0.  1.
          2   -1    0    0  501    0  0.00000000000E+00 -0.00000000000E+00 -0.20131015725E+03  0.20131015725E+03  0.00000000000E+00 0. -1.
         25    2    1    2    0    0  0.10114895645E+02 -0.50037065157E+02 -0.70082739744E+02  0.15212406595E+03  0.12499648806E+03 0.  0.
         23    2    1    2    0    0 -0.10114895645E+02  0.50037065157E+02 -0.70333449299E+02  0.11008005951E+03  0.67563351076E+02 0.  0.
          5    1    3    3  502    0  0.57852953725E+02 -0.62313426498E+02 -0.49512599008E+02  0.98506420283E+02  0.47000000000E+01 0.  1.
         -5    1    4    4    0  503  0.18384941243E+02  0.48468262721E+02 -0.28863732199E+02  0.59517926646E+02  0.47000000000E+01 0.  1.
          5    1    4    4  503    0 -0.28499836889E+02  0.15688024363E+01 -0.41469717100E+02  0.50562132867E+02  0.47000000000E+01 0. -1.
         -5    1    3    3    0  502 -0.47738058079E+02  0.12276361340E+02 -0.20570140736E+02  0.53617645667E+02  0.47000000000E+01 0.  1.
<mgrwt>
<rscale>  0 0.12015515E+03</rscale>
<asrwt>0</asrwt>
<pdfrwt beam="1">  1        2 0.30970794E-01 0.13501904E+03</pdfrwt>
<pdfrwt beam="2">  1       -2 0.93683027E-02 0.13501904E+03</pdfrwt>
<totfact> 0.11716927E+04</totfact>
</mgrwt>
</event>
<event>
 8    1  0.2018715E-005  0.1707035E+03  0.7546771E-02  0.1187098E+00
         -2   -1    0    0    0  501 -0.00000000000E+00  0.00000000000E+00  0.20802106142E+02  0.20802106142E+02  0.00000000000E+00 0.  1.
          2   -1    0    0  501    0  0.00000000000E+00 -0.00000000000E+00 -0.14181503281E+04  0.14181503281E+04  0.00000000000E+00 0. -1.
         25    2    1    2    0    0  0.82264908002E+02  0.82135916498E+02 -0.10812019687E+04  0.10945946228E+04  0.12500346944E+03 0.  0.
         23    2    1    2    0    0 -0.82264908002E+02 -0.82135916498E+02 -0.31614625331E+03  0.34435781145E+03  0.71554349668E+02 0.  0.
          5    1    3    3  502    0  0.88953162521E+02  0.27264081168E+02 -0.90701722026E+03  0.91178852981E+03  0.47000000000E+01 0.  1.
         -5    1    4    4    0  503 -0.12009879937E+02 -0.61808962382E+02 -0.15214516247E+03  0.16472651732E+03  0.47000000000E+01 0.  1.
          5    1    4    4  503    0 -0.70255028065E+02 -0.20326954116E+02 -0.16400109085E+03  0.17963129413E+03  0.47000000000E+01 0. -1.
         -5    1    3    3    0  502 -0.66882545186E+01  0.54871835330E+02 -0.17418474841E+03  0.18280609300E+03  0.47000000000E+01 0.  1.
<mgrwt>
<rscale>  0 0.16142458E+03</rscale>
<asrwt>0</asrwt>
<pdfrwt beam="1">  1        2 0.21817691E+00 0.17070352E+03</pdfrwt>
<pdfrwt beam="2">  1       -2 0.32003250E-02 0.17070352E+03</pdfrwt>
<totfact> 0.57438368E+03</totfact>
</mgrwt>
</event>
<event>
 8    1  0.2018715E-005  0.1272999E+03  0.7546771E-02  0.1239942E+00
          2   -1    0    0  501    0  0.00000000000E+00  0.00000000000E+00  0.10692353533E+04  0.10692353533E+04  0.00000000000E+00 0. -1.
         -2   -1    0    0    0  501 -0.00000000000E+00 -0.00000000000E+00 -0.12944952623E+02  0.12944952623E+02  0.00000000000E+00 0.  1.
         25    2    1    2    0    0 -0.22033111694E+02 -0.97844884649E+01  0.61885711697E+03  0.63181437234E+03  0.12499630256E+03 0.  0.
         23    2    1    2    0    0  0.22033111694E+02  0.97844884649E+01  0.43743328372E+03  0.45036593359E+03  0.10440499129E+03 0.  0.
          5    1    3    3  502    0 -0.13567012749E+02 -0.61872393203E+02  0.20594653238E+03  0.21551872558E+03  0.47000000000E+01 0. -1.
         -5    1    3    3    0  502 -0.84660989453E+01  0.52087904738E+02  0.41291058459E+03  0.41629564676E+03  0.47000000000E+01 0. -1.
          5    1    4    4  503    0 -0.16572655971E+02  0.44701340275E+02  0.13051336031E+03  0.13902765901E+03  0.47000000000E+01 0. -1.
         -5    1    4    4    0  503  0.38605767665E+02 -0.34916851811E+02  0.30691992340E+03  0.31133827458E+03  0.47000000000E+01 0.  1.
<mgrwt>
<rscale>  0 0.12193304E+03</rscale>
<asrwt>0</asrwt>
<pdfrwt beam="1">  1        2 0.16449768E+00 0.12729992E+03</pdfrwt>
<pdfrwt beam="2">  1       -2 0.19915320E-02 0.12729992E+03</pdfrwt>
<totfact> 0.17664497E+04</totfact>
</mgrwt>
</event>
<event>
 8    1  0.2018715E-005  0.1264112E+03  0.7546771E-02  0.1258980E+00
          4   -1    0    0  501    0  0.00000000000E+00  0.00000000000E+00  0.92120067139E+02  0.92120067139E+02  0.00000000000E+00 0. -1.
         -4   -1    0    0    0  501 -0.00000000000E+00 -0.00000000000E+00 -0.11018611059E+03  0.11018611059E+03  0.00000000000E+00 0.  1.
         25    2    1    2    0    0  0.88847343276E+00  0.18818250570E+02 -0.16725023363E+02  0.12751283734E+03  0.12499952536E+03 0.  0.
         23    2    1    2    0    0 -0.88847343276E+00 -0.18818250570E+02 -0.13410200930E+01  0.74793340392E+02  0.72369396104E+02 0.  0.
          5    1    4    4  502    0 -0.29473831492E+02 -0.11871482850E+02  0.20277245793E+02  0.37985464915E+02  0.47000000000E+01 0. -1.
         -5    1    3    3    0  503  0.40247493843E+02  0.55193166946E+02 -0.25377464382E+02  0.73022271511E+02  0.47000000000E+01 0. -1.
          5    1    3    3  503    0 -0.39359020410E+02 -0.36374916376E+02  0.86524410188E+01  0.54490565831E+02  0.47000000000E+01 0. -1.
         -5    1    4    4    0  502  0.28585358059E+02 -0.69467677198E+01 -0.21618265886E+02  0.36807875476E+02  0.47000000000E+01 0.  1.
<mgrwt>
<rscale>  0 0.11086322E+03</rscale>
<asrwt>0</asrwt>
<pdfrwt beam="1">  1        4 0.14172318E-01 0.12641122E+03</pdfrwt>
<pdfrwt beam="2">  1       -4 0.16951709E-01 0.12641122E+03</pdfrwt>
<totfact> 0.20426732E+03</totfact>
</mgrwt>
</event>
<event>
 7    1  0.2018715E-005  0.1694701E+03  0.7546771E-02  0.1185866E+00
         -1   -1    0    0    0  501 -0.00000000000E+00  0.00000000000E+00  0.25962856349E+03  0.25962856349E+03  0.00000000000E+00 0.  1.
          1   -1    0    0  501    0  0.00000000000E+00 -0.00000000000E+00 -0.97365502353E+02  0.97365502353E+02  0.00000000000E+00 0. -1.
         25    2    1    2    0    0 -0.27074218850E+02  0.64804072344E+02  0.42738056466E+02  0.14961433514E+03  0.12500130675E+03 0.  0.
          5    1    3    3  502    0 -0.65831166779E+02  0.54157252444E+02  0.61291172831E+02  0.10509732812E+03  0.47000000000E+01 0.  1.
         -5    1    3    3    0  502  0.38756947930E+02  0.10646819901E+02 -0.18553116365E+02  0.44517007016E+02  0.47000000000E+01 0.  1.
          5    1    1    2  503    0  0.30196259286E+01  0.39580097962E+02 -0.80032588104E+01  0.40765726377E+02  0.47000000000E+01 0. -1.
         -5    1    1    2    0  503  0.24054592921E+02 -0.10438417031E+03  0.12752826348E+03  0.16661400433E+03  0.47000000000E+01 0.  1.
<mgrwt>
<rscale>  0 0.16253326E+03</rscale>
<asrwt>0</asrwt>
<pdfrwt beam="1">  1        1 0.14979308E-01 0.16947013E+03</pdfrwt>
<pdfrwt beam="2">  1       -1 0.39942856E-01 0.16947013E+03</pdfrwt>
<totfact> 0.22644680E+03</totfact>
</mgrwt>
</event>
<event>
 8    1  0.2018715E-005  0.1295782E+03  0.7546771E-02  0.1233165E+00
          2   -1    0    0  501    0  0.00000000000E+00  0.00000000000E+00  0.45114435980E+03  0.45114435980E+03  0.00000000000E+00 0. -1.
         -2   -1    0    0    0  501 -0.00000000000E+00 -0.00000000000E+00 -0.43900535131E+02  0.43900535131E+02  0.00000000000E+00 0.  1.
         25    2    1    2    0    0  0.25661408495E+02 -0.22510463531E+02  0.33152091858E+03  0.35594471197E+03  0.12500115867E+03 0.  0.
         23    2    1    2    0    0 -0.25661408495E+02  0.22510463531E+02  0.75722906085E+02  0.13910018296E+03  0.11157810511E+03 0.  0.
          5    1    4    4  502    0  0.34691150423E+02 -0.16701843529E+02  0.48277088487E+02  0.61928949351E+02  0.47000000000E+01 0. -1.
         -5    1    4    4    0  502 -0.60352558918E+02  0.39212307061E+02  0.27445817598E+02  0.77171233608E+02  0.47000000000E+01 0.  1.
          5    1    3    3  503    0 -0.31532690586E+02  0.27093745659E+02  0.54390537994E+02  0.68620713001E+02  0.47000000000E+01 0. -1.
         -5    1    3    3    0  503  0.57194099081E+02 -0.49604209190E+02  0.27713038059E+03  0.28732399897E+03  0.47000000000E+01 0. -1.
<mgrwt>
<rscale>  0 0.12622659E+03</rscale>
<asrwt>0</asrwt>
<pdfrwt beam="1">  1        2 0.69406821E-01 0.12957823E+03</pdfrwt>
<pdfrwt beam="2">  1       -2 0.67539288E-02 0.12957823E+03</pdfrwt>
<totfact> 0.81896344E+03</totfact>
</mgrwt>
</event>
<event>
 8    1  0.2018715E-005  0.1564242E+03  0.7546771E-02  0.1205456E+00
          2   -1    0    0  501    0  0.00000000000E+00  0.00000000000E+00  0.74722100307E+03  0.74722100307E+03  0.00000000000E+00 0. -1.
         -2   -1    0    0    0  501 -0.00000000000E+00 -0.00000000000E+00 -0.27342491371E+02  0.27342491371E+02  0.00000000000E+00 0.  1.
         25    2    1    2    0    0 -0.36283968943E+02  0.86762395032E+02  0.30160911714E+03  0.33975960037E+03  0.12499714760E+03 0.  0.
         23    2    1    2    0    0  0.36283968943E+02 -0.86762395032E+02  0.41826939456E+03  0.43480389407E+03  0.72532063809E+02 0.  0.
          5    1    3    3  502    0  0.40670157799E+02  0.62998337433E+02  0.16051417075E+03  0.17722793591E+03  0.47000000000E+01 0. -1.
         -5    1    4    4    0  503  0.48961495215E+02 -0.31289334332E+02  0.26262454031E+03  0.26901670883E+03  0.47000000000E+01 0.  1.
          5    1    4    4  503    0 -0.12677526272E+02 -0.55473060701E+02  0.15564485424E+03  0.16578718524E+03  0.47000000000E+01 0. -1.
         -5    1    3    3    0  502 -0.76954126742E+02  0.23764057599E+02  0.14109494639E+03  0.16253166446E+03  0.47000000000E+01 0. -1.
<mgrwt>
<rscale>  0 0.14601589E+03</rscale>
<asrwt>0</asrwt>
<pdfrwt beam="1">  1        2 0.11495706E+00 0.15642419E+03</pdfrwt>
<pdfrwt beam="2">  1       -2 0.42065377E-02 0.15642419E+03</pdfrwt>
<totfact> 0.95342688E+03</totfact>
</mgrwt>
</event>
<event>
 8    1  0.2018715E-005  0.1269635E+03  0.7546771E-02  0.1253650E+00
         -2   -1    0    0    0  501 -0.00000000000E+00  0.00000000000E+00  0.23245296698E+02  0.23245296698E+02  0.00000000000E+00 0.  1.
          2   -1    0    0  501    0  0.00000000000E+00 -0.00000000000E+00 -0.48082129747E+03  0.48082129747E+03  0.00000000000E+00 0. -1.
         25    2    1    2    0    0 -0.22226413412E+02 -0.13864326882E+01 -0.23937036335E+03  0.27095737808E+03  0.12499517686E+03 0.  0.
         23    2    1    2    0    0  0.22226413412E+02  0.13864326882E+01 -0.21820563742E+03  0.23310921608E+03  0.78932064284E+02 0.  0.
          5    1    4    4  502    0  0.46448762480E+02 -0.36637301074E+01 -0.18817941628E+03  0.19391877982E+03  0.47000000000E+01 0. -1.
         -5    1    4    4    0  502 -0.24222349068E+02  0.50501627956E+01 -0.30026221132E+02  0.39190436259E+02  0.47000000000E+01 0.  1.
          5    1    3    3  503    0  0.41238090402E+02 -0.10229461465E+02 -0.30724807169E+02  0.52643382845E+02  0.47000000000E+01 0.  1.
         -5    1    3    3    0  503 -0.63464503813E+02  0.88430287769E+01 -0.20864555618E+03  0.21831399524E+03  0.47000000000E+01 0.  1.
<mgrwt>
<rscale>  0 0.11382311E+03</rscale>
<asrwt>0</asrwt>
<pdfrwt beam="1">  1        2 0.73972508E-01 0.12696350E+03</pdfrwt>
<pdfrwt beam="2">  1       -2 0.35761994E-02 0.12696350E+03</pdfrwt>
<totfact> 0.19792061E+04</totfact>
</mgrwt>
</event>
<event>
 8    1  0.2018715E-005  0.1307813E+03  0.7546771E-02  0.1257601E+00
          1   -1    0    0  501    0  0.00000000000E+00  0.00000000000E+00  0.19281302968E+03  0.19281302968E+03  0.00000000000E+00 0. -1.
         -1   -1    0    0    0  501 -0.00000000000E+00 -0.00000000000E+00 -0.67349950069E+02  0.67349950069E+02  0.00000000000E+00 0.  1.
         25    2    1    2    0    0  0.33703588826E+02 -0.18563208208E+02  0.17676369616E+02  0.13197044836E+03  0.12499288220E+03 0.  0.
         23    2    1    2    0    0 -0.33703588826E+02  0.18563208208E+02  0.10778670999E+03  0.12819253138E+03  0.57747949338E+02 0.  0.
          5    1    3    3  502    0  0.20430507242E+02  0.38097408186E+02  0.49165086008E+02  0.65636223374E+02  0.47000000000E+01 0. -1.
         -5    1    3    3    0  502  0.13273081584E+02 -0.56660616393E+02 -0.31488716392E+02  0.66334224989E+02  0.47000000000E+01 0. -1.
          5    1    4    4  503    0  0.76183982899E+01  0.24854402518E+02  0.52004650409E+02  0.58329709250E+02  0.47000000000E+01 0. -1.
         -5    1    4    4    0  503 -0.41321987116E+02 -0.62911943104E+01  0.55782059585E+02  0.69862822134E+02  0.47000000000E+01 0.  1.
<mgrwt>
<rscale>  0 0.11161889E+03</rscale>
<asrwt>0</asrwt>
<pdfrwt beam="1">  1        1 0.29663543E-01 0.13078129E+03</pdfrwt>
<pdfrwt beam="2">  1       -1 0.10361531E-01 0.13078129E+03</pdfrwt>
<totfact> 0.83588486E+03</totfact>
</mgrwt>
</event>
<event>
 7    1  0.2018715E-005  0.1724102E+03  0.7546771E-02  0.1189034E+00
          2   -1    0    0  501    0  0.00000000000E+00  0.00000000000E+00  0.36794381867E+03  0.36794381867E+03  0.00000000000E+00 0. -1.
         -2   -1    0    0    0  501 -0.00000000000E+00 -0.00000000000E+00 -0.82782519767E+02  0.82782519767E+02  0.00000000000E+00 0.  1.
         25    2    1    2    0    0  0.68144255086E+02 -0.97242621027E+02  0.27344504721E+03  0.32326066070E+03  0.12500197625E+03 0.  0.
          5    1    1    2  502    0 -0.51873996234E+02  0.65768993327E+02  0.27648573822E+02  0.88334622900E+02  0.47000000000E+01 0. -1.
         -5    1    1    2    0  502 -0.16270258852E+02  0.31473627700E+02 -0.15932322135E+02  0.39131054833E+02  0.47000000000E+01 0.  1.
          5    1    3    3  503    0  0.10384616319E+03 -0.65556470829E+02  0.17615491830E+03  0.21478901676E+03  0.47000000000E+01 0. -1.
         -5    1    3    3    0  503 -0.35701908105E+02 -0.31686150198E+02  0.97290128912E+02  0.10847164395E+03  0.47000000000E+01 0. -1.
<mgrwt>
<rscale>  0 0.15970181E+03</rscale>
<asrwt>0</asrwt>
<pdfrwt beam="1">  1        2 0.56606740E-01 0.17241015E+03</pdfrwt>
<pdfrwt beam="2">  1       -2 0.12735772E-01 0.17241015E+03</pdfrwt>
<totfact> 0.38337684E+03</totfact>
</mgrwt>
</event>
<event>
 8    1  0.2018715E-005  0.1453709E+03  0.7546771E-02  0.1224721E+00
          2   -1    0    0  501    0  0.00000000000E+00  0.00000000000E+00  0.33359681959E+03  0.33359681959E+03  0.00000000000E+00 0. -1.
         -2   -1    0    0    0  501 -0.00000000000E+00 -0.00000000000E+00 -0.52819656761E+02  0.52819656761E+02  0.00000000000E+00 0.  1.
         25    2    1    2    0    0 -0.74124639332E+02  0.36314030020E+01  0.23850253280E+03  0.27931372848E+03  0.12500020609E+03 0.  0.
         23    2    1    2    0    0  0.74124639332E+02 -0.36314030020E+01  0.42274630035E+02  0.10710274787E+03  0.64623563918E+02 0.  0.
          5    1    4    4  502    0  0.45011079014E+02 -0.25863751124E+01  0.58042002887E+02  0.73645438890E+02  0.47000000000E+01 0. -1.
         -5    1    4    4    0  502  0.29113560319E+02 -0.10450278896E+01 -0.15767372852E+02  0.33457308983E+02  0.47000000000E+01 0.  1.
          5    1    3    3  503    0  0.57878005953E+01  0.24625380258E+02  0.16984783943E+03  0.17178558306E+03  0.47000000000E+01 0. -1.
         -5    1    3    3    0  503 -0.79912439928E+02 -0.20993977257E+02  0.68654693371E+02  0.10752814542E+03  0.47000000000E+01 0. -1.
<mgrwt>
<rscale>  0 0.13186033E+03</rscale>
<asrwt>0</asrwt>
<pdfrwt beam="1">  1        2 0.51322587E-01 0.14537091E+03</pdfrwt>
<pdfrwt beam="2">  1       -2 0.81261012E-02 0.14537091E+03</pdfrwt>
<totfact> 0.85758953E+03</totfact>
</mgrwt>
</event>
<event>
 8    1  0.2018715E-005  0.1748367E+03  0.7546771E-02  0.1176503E+00
          2   -1    0    0  501    0  0.00000000000E+00  0.00000000000E+00  0.44171513901E+03  0.44171513901E+03  0.00000000000E+00 0.  1.
         -2   -1    0    0    0  501 -0.00000000000E+00 -0.00000000000E+00 -0.68261232493E+02  0.68261232493E+02  0.00000000000E+00 0. -1.
         25    2    1    2    0    0 -0.79075879068E+02 -0.93233467730E+02  0.25847941680E+03  0.31205687969E+03  0.12498965196E+03 0.  0.
         23    2    1    2    0    0  0.79075879068E+02  0.93233467730E+02  0.11497448971E+03  0.19791949181E+03  0.10491671839E+03 0.  0.
          5    1    4    4  502    0 -0.41399905055E+01  0.26467490324E+02 -0.13902636320E+02  0.30545717573E+02  0.47000000000E+01 0. -1.
         -5    1    4    4    0  502  0.83215869573E+02  0.66765977406E+02  0.12887712603E+03  0.16737377424E+03  0.47000000000E+01 0.  1.
          5    1    3    3  503    0 -0.39586018166E+02 -0.14939163501E+01  0.57976694427E+01  0.40311134829E+02  0.47000000000E+01 0. -1.
         -5    1    3    3    0  503 -0.39489860902E+02 -0.91739551380E+02  0.25268174736E+03  0.27174574486E+03  0.47000000000E+01 0. -1.
<mgrwt>
<rscale>  0 0.17129629E+03</rscale>
<asrwt>0</asrwt>
<pdfrwt beam="1">  1        2 0.67956173E-01 0.17483674E+03</pdfrwt>
<pdfrwt beam="2">  1       -2 0.10501728E-01 0.17483674E+03</pdfrwt>
<totfact> 0.42885498E+03</totfact>
</mgrwt>
</event>
<event>
 8    1  0.2018715E-005  0.2497036E+03  0.7546771E-02  0.1115028E+00
          2   -1    0    0  501    0  0.00000000000E+00  0.00000000000E+00  0.80063406543E+02  0.80063406543E+02  0.00000000000E+00 0. -1.
         -2   -1    0    0    0  501 -0.00000000000E+00 -0.00000000000E+00 -0.11638429292E+04  0.11638429292E+04  0.00000000000E+00 0.  1.
         25    2    1    2    0    0  0.10257845006E+03 -0.19027745315E+03 -0.91975265668E+03  0.95304608067E+03  0.12499613921E+03 0.  0.
         23    2    1    2    0    0 -0.10257845006E+03  0.19027745315E+03 -0.16402686595E+03  0.29086025505E+03  0.10472357718E+03 0.  0.
          5    1    3    3  502    0 -0.16740257356E+02 -0.93430459229E+02 -0.39189126396E+03  0.40324972374E+03  0.47000000000E+01 0.  1.
         -5    1    4    4    0  503 -0.87110621219E+02  0.53235018952E+02 -0.70926548140E+02  0.12439812218E+03  0.47000000000E+01 0.  1.
          5    1    4    4  503    0 -0.15467828838E+02  0.13704243420E+03 -0.93100317812E+02  0.16646213286E+03  0.47000000000E+01 0. -1.
         -5    1    3    3    0  502  0.11931870741E+03 -0.96846993924E+02 -0.52786139272E+03  0.54979635693E+03  0.47000000000E+01 0.  1.
<mgrwt>
<rscale>  0 0.24729239E+03</rscale>
<asrwt>0</asrwt>
<pdfrwt beam="1">  1        2 0.12317447E-01 0.24970359E+03</pdfrwt>
<pdfrwt beam="2">  1       -2 0.17905276E+00 0.24970359E+03</pdfrwt>
<totfact> 0.97980477E+01</totfact>
</mgrwt>
</event>
<event>
 8    1  0.2018715E-005  0.1263349E+03  0.7546771E-02  0.1257548E+00
          2   -1    0    0  501    0  0.00000000000E+00  0.00000000000E+00  0.86868442380E+02  0.86868442380E+02  0.00000000000E+00 0. -1.
         -2   -1    0    0    0  501 -0.00000000000E+00 -0.00000000000E+00 -0.12746078410E+03  0.12746078410E+03  0.00000000000E+00 0.  1.
         25    2    1    2    0    0  0.99785867475E+00 -0.18283662350E+02  0.18599247892E+01  0.12634856589E+03  0.12500085100E+03 0.  0.
         23    2    1    2    0    0 -0.99785867475E+00  0.18283662350E+02 -0.42452266507E+02  0.87980660585E+02  0.74853948957E+02 0.  0.
          5    1    3    3  502    0 -0.14664933317E+01  0.52582437830E+02  0.13069043983E+02  0.54405452681E+02  0.47000000000E+01 0. -1.
         -5    1    3    3    0  502  0.24643520065E+01 -0.70866100179E+02 -0.11209119194E+02  0.71943113211E+02  0.47000000000E+01 0. -1.
          5    1    4    4  503    0 -0.33321506441E-01 -0.28788248916E+02 -0.21481832629E+02  0.36226006116E+02  0.47000000000E+01 0. -1.
         -5    1    4    4    0  503 -0.96453716831E+00  0.47071911266E+02 -0.20970433878E+02  0.51754654469E+02  0.47000000000E+01 0.  1.
<mgrwt>
<rscale>  0 0.11164805E+03</rscale>
<asrwt>0</asrwt>
<pdfrwt beam="1">  1        2 0.13364376E-01 0.12633488E+03</pdfrwt>
<pdfrwt beam="2">  1       -2 0.19609351E-01 0.12633488E+03</pdfrwt>
<totfact> 0.91101499E+03</totfact>
</mgrwt>
</event>
<event>
 8    1  0.2018715E-005  0.1553801E+03  0.7546771E-02  0.1206943E+00
          2   -1    0    0  501    0  0.00000000000E+00  0.00000000000E+00  0.12222025207E+04  0.12222025207E+04  0.00000000000E+00 0.  1.
         -2   -1    0    0    0  501 -0.00000000000E+00 -0.00000000000E+00 -0.26373747512E+02  0.26373747512E+02  0.00000000000E+00 0. -1.
         25    2    1    2    0    0 -0.88953964969E+02  0.24594566848E+02  0.10497711521E+04  0.10612080157E+04  0.12500112113E+03 0.  0.
         23    2    1    2    0    0  0.88953964969E+02 -0.24594566848E+02  0.14605762109E+03  0.18736825247E+03  0.72500570721E+02 0.  0.
          5    1    4    4  502    0  0.54510031666E+02 -0.41841284155E+02  0.54186033605E+02  0.87637051809E+02  0.47000000000E+01 0. -1.
         -5    1    4    4    0  502  0.34443933303E+02  0.17246717307E+02  0.91871587484E+02  0.99731200665E+02  0.47000000000E+01 0.  1.
          5    1    3    3  503    0 -0.11287969767E+03  0.36098662550E+02  0.96478567625E+03  0.97204857424E+03  0.47000000000E+01 0. -1.
         -5    1    3    3    0  503  0.23925732699E+02 -0.11504095702E+02  0.84985475860E+02  0.89159441510E+02  0.47000000000E+01 0. -1.
<mgrwt>
<rscale>  0 0.14485358E+03</rscale>
<asrwt>0</asrwt>
<pdfrwt beam="1">  1        2 0.18803111E+00 0.15538012E+03</pdfrwt>
<pdfrwt beam="2">  1       -2 0.40575006E-02 0.15538012E+03</pdfrwt>
<totfact> 0.51403137E+03</totfact>
</mgrwt>
</event>
<event>
 8    1  0.2018715E-005  0.1304095E+03  0.7546771E-02  0.1247110E+00
          1   -1    0    0  501    0  0.00000000000E+00  0.00000000000E+00  0.27315089928E+02  0.27315089928E+02  0.00000000000E+00 0. -1.
         -1   -1    0    0    0  501 -0.00000000000E+00 -0.00000000000E+00 -0.43335265150E+03  0.43335265150E+03  0.00000000000E+00 0.  1.
         25    2    1    2    0    0  0.29334403531E+02 -0.22853316773E+02 -0.26509083803E+03  0.29543154691E+03  0.12499546066E+03 0.  0.
         23    2    1    2    0    0 -0.29334403531E+02  0.22853316773E+02 -0.14094672355E+03  0.16523619452E+03  0.77808995508E+02 0.  0.
          5    1    4    4  502    0 -0.53439479717E+02  0.28667084932E+02 -0.10429438596E+03  0.12073520073E+03  0.47000000000E+01 0. -1.
         -5    1    3    3    0  503 -0.15992287248E+02  0.14956778136E+02 -0.21965825188E+03  0.22079695669E+03  0.47000000000E+01 0. -1.
          5    1    3    3  503    0  0.45326690779E+02 -0.37810094909E+02 -0.45432586149E+02  0.74634590226E+02  0.47000000000E+01 0. -1.
         -5    1    4    4    0  502  0.24105076185E+02 -0.58137681586E+01 -0.36652337585E+02  0.44500993793E+02  0.47000000000E+01 0.  1.
<mgrwt>
<rscale>  0 0.11759988E+03</rscale>
<asrwt>0</asrwt>
<pdfrwt beam="1">  1        1 0.42023214E-02 0.13040953E+03</pdfrwt>
<pdfrwt beam="2">  1       -1 0.66669641E-01 0.13040953E+03</pdfrwt>
<totfact> 0.47772314E+03</totfact>
</mgrwt>
</event>
<event>
 7    1  0.2018715E-005  0.1739533E+03  0.7546771E-02  0.1176803E+00
          2   -1    0    0  501    0  0.00000000000E+00  0.00000000000E+00  0.69359776778E+03  0.69359776778E+03  0.00000000000E+00 0.  1.
         -2   -1    0    0    0  501 -0.00000000000E+00 -0.00000000000E+00 -0.45115906044E+02  0.45115906044E+02  0.00000000000E+00 0. -1.
         25    2    1    2    0    0  0.91776227318E+02  0.48420015596E+02  0.19994300453E+03  0.25762442138E+03  0.12500305443E+03 0.  0.
          5    1    3    3  502    0  0.53810192559E+02  0.71725506708E+02  0.53582631301E+02  0.10456229489E+03  0.47000000000E+01 0. -1.
         -5    1    3    3    0  502  0.37966034759E+02 -0.23305491112E+02  0.14636037323E+03  0.15306212649E+03  0.47000000000E+01 0. -1.
          5    1    1    2  503    0 -0.12093170017E+03 -0.31799568568E+02  0.24878324137E+03  0.27847958606E+03  0.47000000000E+01 0. -1.
         -5    1    1    2    0  503  0.29155472849E+02 -0.16620447028E+02  0.19975561583E+03  0.20260966639E+03  0.47000000000E+01 0.  1.
<mgrwt>
<rscale>  0 0.17100584E+03</rscale>
<asrwt>0</asrwt>
<pdfrwt beam="1">  1        2 0.10670734E+00 0.17395333E+03</pdfrwt>
<pdfrwt beam="2">  1       -2 0.69409091E-02 0.17395333E+03</pdfrwt>
<totfact> 0.49088934E+03</totfact>
</mgrwt>
</event>
<event>
 8    1  0.2018715E-005  0.2637760E+03  0.7546771E-02  0.1105363E+00
          2   -1    0    0  501    0  0.00000000000E+00  0.00000000000E+00  0.26997707634E+04  0.26997707634E+04  0.00000000000E+00 0. -1.
         -2   -1    0    0    0  501 -0.00000000000E+00 -0.00000000000E+00 -0.25647432899E+02  0.25647432899E+02  0.00000000000E+00 0.  1.
         25    2    1    2    0    0 -0.14827299058E+03  0.17879867755E+03  0.14601071400E+04  0.14837421018E+04  0.12499567066E+03 0.  0.
         23    2    1    2    0    0  0.14827299058E+03 -0.17879867755E+03  0.12140161905E+04  0.12416760944E+04  0.11819630244E+03 0.  0.
          5    1    3    3  502    0 -0.28328457930E+02  0.66473280797E+01  0.49520197891E+02  0.57628365398E+02  0.47000000000E+01 0. -1.
         -5    1    3    3    0  502 -0.11994453265E+03  0.17215134947E+03  0.14105869421E+04  0.14261137364E+04  0.47000000000E+01 0. -1.
          5    1    4    4  503    0  0.13662313961E+03 -0.15821666111E+03  0.11877737566E+04  0.12060377195E+04  0.47000000000E+01 0. -1.
         -5    1    4    4    0  503  0.11649850965E+02 -0.20582016434E+02  0.26242433896E+02  0.35638374890E+02  0.47000000000E+01 0.  1.
<mgrwt>
<rscale>  0 0.26298411E+03</rscale>
<asrwt>0</asrwt>
<pdfrwt beam="1">  1        2 0.41534912E+00 0.26377597E+03</pdfrwt>
<pdfrwt beam="2">  1       -2 0.39457610E-02 0.26377597E+03</pdfrwt>
<totfact> 0.87248417E+02</totfact>
</mgrwt>
</event>
<event>
 8    1  0.2018715E-005  0.1691422E+03  0.7546771E-02  0.1181783E+00
          2   -1    0    0  501    0  0.00000000000E+00  0.00000000000E+00  0.17578171009E+04  0.17578171009E+04  0.00000000000E+00 0. -1.
         -2   -1    0    0    0  501 -0.00000000000E+00 -0.00000000000E+00 -0.15871914557E+02  0.15871914557E+02  0.00000000000E+00 0.  1.
         25    2    1    2    0    0  0.54352640140E+02  0.10014952567E+03  0.10792007703E+04  0.10923751116E+04  0.12499977910E+03 0.  0.
         23    2    1    2    0    0 -0.54352640140E+02 -0.10014952567E+03  0.66274441607E+03  0.68131390392E+03  0.10942731676E+03 0.  0.
          5    1    4    4  502    0 -0.52875508529E+02 -0.19189432848E+02  0.45181214867E+03  0.45532445730E+03  0.47000000000E+01 0. -1.
         -5    1    4    4    0  502 -0.14771316108E+01 -0.80960092825E+02  0.21093226741E+03  0.22598944662E+03  0.47000000000E+01 0.  1.
          5    1    3    3  503    0 -0.92054604960E+01 -0.24695027678E+02  0.11737971172E+03  0.12039381885E+03  0.47000000000E+01 0. -1.
         -5    1    3    3    0  503  0.63558100636E+02  0.12484455335E+03  0.96182105857E+03  0.97198129271E+03  0.47000000000E+01 0. -1.
<mgrwt>
<rscale>  0 0.16628046E+03</rscale>
<asrwt>0</asrwt>
<pdfrwt beam="1">  1        2 0.27043325E+00 0.16914219E+03</pdfrwt>
<pdfrwt beam="2">  1       -2 0.24418344E-02 0.16914219E+03</pdfrwt>
<totfact> 0.56880534E+03</totfact>
</mgrwt>
</event>
<event>
 8    1  0.2018715E-005  0.1289520E+03  0.7546771E-02  0.1253318E+00
          2   -1    0    0  501    0  0.00000000000E+00  0.00000000000E+00  0.86985286921E+02  0.86985286921E+02  0.00000000000E+00 0. -1.
         -2   -1    0    0    0  501 -0.00000000000E+00 -0.00000000000E+00 -0.12404222301E+03  0.12404222301E+03  0.00000000000E+00 0.  1.
         25    2    1    2    0    0  0.81651584762E+01  0.30612612489E+02 -0.23427421445E+02  0.13106286487E+03  0.12499931447E+03 0.  0.
         23    2    1    2    0    0 -0.81651584762E+01 -0.30612612489E+02 -0.13629514646E+02  0.79964645058E+02  0.72144153841E+02 0.  0.
          5    1    4    4  502    0 -0.30606957289E+02  0.35848512915E+01 -0.21734846621E+02  0.38001717736E+02  0.47000000000E+01 0. -1.
         -5    1    4    4    0  502  0.22441798813E+02 -0.34197463781E+02  0.81053319748E+01  0.41962927322E+02  0.47000000000E+01 0.  1.
          5    1    3    3  503    0 -0.28894734239E+02  0.85623281302E+01  0.42398017422E+02  0.52229311800E+02  0.47000000000E+01 0.  1.
         -5    1    3    3    0  503  0.37059892715E+02  0.22050284359E+02 -0.65825438867E+02  0.78833553075E+02  0.47000000000E+01 0.  1.
<mgrwt>
<rscale>  0 0.11401060E+03</rscale>
<asrwt>0</asrwt>
<pdfrwt beam="1">  1        2 0.13382352E-01 0.12895205E+03</pdfrwt>
<pdfrwt beam="2">  1       -2 0.19083419E-01 0.12895205E+03</pdfrwt>
<totfact> 0.95379009E+03</totfact>
</mgrwt>
</event>
<event>
 7    1  0.2018715E-005  0.1842662E+03  0.7546771E-02  0.1176582E+00
         -1   -1    0    0    0  501 -0.00000000000E+00  0.00000000000E+00  0.21278297331E+03  0.21278297331E+03  0.00000000000E+00 0.  1.
          1   -1    0    0  501    0  0.00000000000E+00 -0.00000000000E+00 -0.12273269894E+03  0.12273269894E+03  0.00000000000E+00 0. -1.
         25    2    1    2    0    0  0.51394157478E+02 -0.24481004839E+02  0.54884077593E+02  0.14792385879E+03  0.12501410723E+03 0.  0.
          5    1    3    3  502    0  0.14106945000E+02 -0.28933821467E+02  0.90368332027E+02  0.96045288043E+02  0.47000000000E+01 0. -1.
         -5    1    3    3    0  502  0.37287212478E+02  0.44528166280E+01 -0.35484254434E+02  0.51878570750E+02  0.47000000000E+01 0. -1.
          5    1    1    2  503    0 -0.10102861443E+03  0.17694254631E+02 -0.28392490201E+02  0.10652741939E+03  0.47000000000E+01 0. -1.
         -5    1    1    2    0  503  0.49634456954E+02  0.67867502080E+01  0.63558686974E+02  0.81064394067E+02  0.47000000000E+01 0.  1.
<mgrwt>
<rscale>  0 0.17121958E+03</rscale>
<asrwt>0</asrwt>
<pdfrwt beam="1">  1        1 0.18881954E-01 0.18426619E+03</pdfrwt>
<pdfrwt beam="2">  1       -1 0.32735842E-01 0.18426619E+03</pdfrwt>
<totfact> 0.23779188E+03</totfact>
</mgrwt>
</event>
<event>
 8    1  0.2018715E-005  0.1653840E+03  0.7546771E-02  0.1186478E+00
         -1   -1    0    0    0  501 -0.00000000000E+00  0.00000000000E+00  0.53693743569E+02  0.53693743569E+02  0.00000000000E+00 0.  1.
          1   -1    0    0  501    0  0.00000000000E+00 -0.00000000000E+00 -0.49034144804E+03  0.49034144804E+03  0.00000000000E+00 0. -1.
         25    2    1    2    0    0 -0.91058639254E+02 -0.58619074513E+02 -0.28295642492E+03  0.32774410255E+03  0.12499594664E+03 0.  0.
         23    2    1    2    0    0  0.91058639254E+02  0.58619074513E+02 -0.15369127955E+03  0.21629108906E+03  0.10692499294E+03 0.  0.
          5    1    4    4  502    0  0.10246935866E+03  0.20647532393E+02 -0.13847824925E+03  0.17356441332E+03  0.47000000000E+01 0. -1.
         -5    1    4    4    0  502 -0.11410719401E+02  0.37971542120E+02 -0.15213030305E+02  0.42726675734E+02  0.47000000000E+01 0.  1.
          5    1    3    3  503    0 -0.11972249997E+03 -0.31211252886E+02 -0.23232975740E+03  0.26326189522E+03  0.47000000000E+01 0. -1.
         -5    1    3    3    0  503  0.28663860715E+02 -0.27407821626E+02 -0.50626667522E+02  0.64482207327E+02  0.47000000000E+01 0. -1.
<mgrwt>
<rscale>  0 0.16198109E+03</rscale>
<asrwt>0</asrwt>
<pdfrwt beam="1">  1        1 0.75437146E-01 0.16538397E+03</pdfrwt>
<pdfrwt beam="2">  1       -1 0.82605759E-02 0.16538397E+03</pdfrwt>
<totfact> 0.37150015E+03</totfact>
</mgrwt>
</event>
<event>
 8    1  0.2018715E-005  0.1400960E+03  0.7546771E-02  0.1217545E+00
          1   -1    0    0  501    0  0.00000000000E+00  0.00000000000E+00  0.21254500646E+03  0.21254500646E+03  0.00000000000E+00 0. -1.
         -1   -1    0    0    0  501 -0.00000000000E+00 -0.00000000000E+00 -0.97870620456E+02  0.97870620456E+02  0.00000000000E+00 0.  1.
         25    2    1    2    0    0 -0.62851092290E+02 -0.72811061522E+01  0.20982019719E+01  0.14011167141E+03  0.12499441470E+03 0.  0.
         23    2    1    2    0    0  0.62851092290E+02  0.72811061522E+01  0.11257618403E+03  0.17030395550E+03  0.11102596876E+03 0.  0.
          5    1    4    4  502    0  0.21673782553E+02  0.24421292249E+02  0.12034715968E+03  0.12478654258E+03  0.47000000000E+01 0. -1.
         -5    1    3    3    0  503 -0.32534822410E+02  0.58014242889E+02 -0.84048629524E+01  0.67207877280E+02  0.47000000000E+01 0.  1.
          5    1    3    3  503    0 -0.30316269880E+02 -0.65295349041E+02  0.10503064924E+02  0.72903794131E+02  0.47000000000E+01 0.  1.
         -5    1    4    4    0  502  0.41177309737E+02 -0.17140186097E+02 -0.77709756527E+01  0.45517412923E+02  0.47000000000E+01 0.  1.
<mgrwt>
<rscale>  0 0.13691235E+03</rscale>
<asrwt>0</asrwt>
<pdfrwt beam="1">  1        1 0.32699232E-01 0.14009596E+03</pdfrwt>
<pdfrwt beam="2">  1       -1 0.15057019E-01 0.14009596E+03</pdfrwt>
<totfact> 0.41720302E+03</totfact>
</mgrwt>
</event>
<event>
 8    1  0.2018715E-005  0.1711275E+03  0.7546771E-02  0.1179821E+00
         -2   -1    0    0    0  501 -0.00000000000E+00  0.00000000000E+00  0.17320656219E+02  0.17320656219E+02  0.00000000000E+00 0.  1.
          2   -1    0    0  501    0  0.00000000000E+00 -0.00000000000E+00 -0.16197929602E+04  0.16197929602E+04  0.00000000000E+00 0. -1.
         25    2    1    2    0    0  0.10074239438E+03 -0.59249766391E+02 -0.96183372203E+03  0.97693845405E+03  0.12500027727E+03 0.  0.
         23    2    1    2    0    0 -0.10074239438E+03  0.59249766391E+02 -0.64063858197E+03  0.66017516239E+03  0.10841534711E+03 0.  0.
          5    1    3    3  502    0  0.18707201798E+02 -0.64768835782E+02 -0.20996296359E+03  0.22057084478E+03  0.47000000000E+01 0.  1.
         -5    1    3    3    0  502  0.82035192581E+02  0.55190693906E+01 -0.75187075844E+03  0.75636760927E+03  0.47000000000E+01 0.  1.
          5    1    4    4  503    0 -0.95147661527E+02  0.87218910011E+02 -0.48674903707E+03  0.50359401391E+03  0.47000000000E+01 0. -1.
         -5    1    4    4    0  503 -0.55947328526E+01 -0.27969143620E+02 -0.15388954490E+03  0.15658114848E+03  0.47000000000E+01 0.  1.
<mgrwt>
<rscale>  0 0.16812136E+03</rscale>
<asrwt>0</asrwt>
<pdfrwt beam="1">  1        2 0.24919894E+00 0.17112754E+03</pdfrwt>
<pdfrwt beam="2">  1       -2 0.26647161E-02 0.17112754E+03</pdfrwt>
<totfact> 0.58988111E+03</totfact>
</mgrwt>
</event>
<event>
 8    1  0.2018715E-005  0.3255214E+03  0.7546771E-02  0.1075029E+00
         -1   -1    0    0    0  501 -0.00000000000E+00  0.00000000000E+00  0.60470519150E+02  0.60470519150E+02  0.00000000000E+00 0.  1.
          1   -1    0    0  501    0  0.00000000000E+00 -0.00000000000E+00 -0.19352465528E+04  0.19352465528E+04  0.00000000000E+00 0. -1.
         25    2    1    2    0    0  0.30008647969E+03 -0.16937961742E+02 -0.13307166567E+04  0.13699529119E+04  0.12500148182E+03 0.  0.
         23    2    1    2    0    0 -0.30008647969E+03  0.16937961742E+02 -0.54405937694E+03  0.62576416008E+03  0.72397434765E+02 0.  0.
          5    1    3    3  502    0  0.21882446565E+03 -0.30385943185E+02 -0.11534787773E+04  0.11744542699E+04  0.47000000000E+01 0.  1.
         -5    1    3    3    0  502  0.81262014042E+02  0.13447981443E+02 -0.17723787943E+03  0.19549864203E+03  0.47000000000E+01 0.  1.
          5    1    4    4  503    0 -0.18339594333E+03  0.33220385822E+02 -0.38497471293E+03  0.42774441628E+03  0.47000000000E+01 0. -1.
         -5    1    4    4    0  503 -0.11669053636E+03 -0.16282424080E+02 -0.15908466401E+03  0.19801974380E+03  0.47000000000E+01 0.  1.
<mgrwt>
<rscale>  0 0.32135170E+03</rscale>
<asrwt>0</asrwt>
<pdfrwt beam="1">  1        1 0.29773017E+00 0.32552137E+03</pdfrwt>
<pdfrwt beam="2">  1       -1 0.93031590E-02 0.32552137E+03</pdfrwt>
<totfact> 0.25137055E+02</totfact>
</mgrwt>
</event>
<event>
 8    1  0.2018715E-005  0.1310520E+03  0.7546771E-02  0.1228808E+00
          2   -1    0    0  501    0  0.00000000000E+00  0.00000000000E+00  0.30595106908E+03  0.30595106908E+03  0.00000000000E+00 0. -1.
         -2   -1    0    0    0  501 -0.00000000000E+00 -0.00000000000E+00 -0.54776894786E+02  0.54776894786E+02  0.00000000000E+00 0.  1.
         25    2    1    2    0    0 -0.37778260236E+02 -0.10975037236E+02  0.16259805221E+03  0.20883665697E+03  0.12500789704E+03 0.  0.
         23    2    1    2    0    0  0.37778260236E+02  0.10975037236E+02  0.88576122092E+02  0.15189130690E+03  0.11695123479E+03 0.  0.
          5    1    3    3  502    0 -0.10124112798E+02  0.56082203266E+02  0.57872397478E+02  0.81357332632E+02  0.47000000000E+01 0.  1.
         -5    1    3    3    0  502 -0.27654147438E+02 -0.67057240502E+02  0.10472565473E+03  0.12747932433E+03  0.47000000000E+01 0.  1.
          5    1    4    4  503    0 -0.22203070524E+02 -0.22424870429E+02  0.75337850311E+02  0.81815236014E+02  0.47000000000E+01 0. -1.
         -5    1    4    4    0  503  0.59981330760E+02  0.33399907665E+02  0.13238271781E+02  0.70076070891E+02  0.47000000000E+01 0.  1.
<mgrwt>
<rscale>  0 0.12909316E+03</rscale>
<asrwt>0</asrwt>
<pdfrwt beam="1">  1        2 0.47069394E-01 0.13105198E+03</pdfrwt>
<pdfrwt beam="2">  1       -2 0.84272148E-02 0.13105198E+03</pdfrwt>
<totfact> 0.88211140E+03</totfact>
</mgrwt>
</event>
<event>
 8    1  0.2018715E-005  0.1615054E+03  0.7546771E-02  0.1202027E+00
          2   -1    0    0  501    0  0.00000000000E+00  0.00000000000E+00  0.28802452310E+02  0.28802452310E+02  0.00000000000E+00 0. -1.
         -2   -1    0    0    0  501 -0.00000000000E+00 -0.00000000000E+00 -0.68431053224E+03  0.68431053224E+03  0.00000000000E+00 0.  1.
         25    2    1    2    0    0 -0.10208170856E+03  0.60761306855E+01 -0.43209641370E+03  0.46129307068E+03  0.12500556683E+03 0.  0.
         23    2    1    2    0    0  0.10208170856E+03 -0.60761306855E+01 -0.22341166623E+03  0.25181991387E+03  0.55162503817E+02 0.  0.
          5    1    3    3  502    0 -0.99624341267E+02 -0.33442927435E+02 -0.20181151937E+03  0.22758167351E+03  0.47000000000E+01 0. -1.
         -5    1    4    4    0  503  0.14286441665E+02 -0.18403816979E+02 -0.77088678268E+02  0.80669431707E+02  0.47000000000E+01 0.  1.
          5    1    4    4  503    0  0.87795266895E+02  0.12327686294E+02 -0.14632298796E+03  0.17115048216E+03  0.47000000000E+01 0. -1.
         -5    1    3    3    0  502 -0.24573672928E+01  0.39519058120E+02 -0.23028489434E+03  0.23371139717E+03  0.47000000000E+01 0. -1.
<mgrwt>
<rscale>  0 0.14874212E+03</rscale>
<asrwt>0</asrwt>
<pdfrwt beam="1">  1        2 0.44311468E-02 0.16150538E+03</pdfrwt>
<pdfrwt beam="2">  1       -2 0.10527854E+00 0.16150538E+03</pdfrwt>
<totfact> 0.13683967E+03</totfact>
</mgrwt>
</event>
<event>
 8    1  0.2018715E-005  0.1522927E+03  0.7546771E-02  0.1201391E+00
          1   -1    0    0  501    0  0.00000000000E+00  0.00000000000E+00  0.11643534402E+03  0.11643534402E+03  0.00000000000E+00 0. -1.
         -1   -1    0    0    0  501 -0.00000000000E+00 -0.00000000000E+00 -0.24394129479E+03  0.24394129479E+03  0.00000000000E+00 0.  1.
         25    2    1    2    0    0  0.35348916557E+02 -0.79497875699E+02  0.23524103855E+02  0.15409882028E+03  0.12499441910E+03 0.  0.
         23    2    1    2    0    0 -0.35348916557E+02  0.79497875699E+02 -0.15103005462E+03  0.20627781853E+03  0.11032226827E+03 0.  0.
          5    1    4    4  502    0  0.20483730952E+02  0.43341607833E+02 -0.84894827460E+01  0.48910525662E+02  0.47000000000E+01 0. -1.
         -5    1    3    3    0  503  0.52472176780E+02 -0.10672691765E+03  0.24754966114E+02  0.12156834552E+03  0.47000000000E+01 0. -1.
          5    1    3    3  503    0 -0.17123260224E+02  0.27229041946E+02 -0.12308622588E+01  0.32530474757E+02  0.47000000000E+01 0. -1.
         -5    1    4    4    0  502 -0.55832647509E+02  0.36156267866E+02 -0.14254057188E+03  0.15736729287E+03  0.47000000000E+01 0.  1.
<mgrwt>
<rscale>  0 0.14925502E+03</rscale>
<asrwt>0</asrwt>
<pdfrwt beam="1">  1        1 0.17913130E-01 0.15229269E+03</pdfrwt>
<pdfrwt beam="2">  1       -1 0.37529430E-01 0.15229269E+03</pdfrwt>
<totfact> 0.19956357E+03</totfact>
</mgrwt>
</event>
<event>
 7    1  0.2018715E-005  0.2912711E+03  0.7546771E-02  0.1090860E+00
          2   -1    0    0  501    0  0.00000000000E+00  0.00000000000E+00  0.16240855197E+04  0.16240855197E+04  0.00000000000E+00 0. -1.
         -2   -1    0    0    0  501 -0.00000000000E+00 -0.00000000000E+00 -0.67498674298E+02  0.67498674298E+02  0.00000000000E+00 0.  1.
         25    2    1    2    0    0 -0.17941031523E+03  0.17869101245E+03  0.11916939337E+04  0.12246948220E+04  0.12499774462E+03 0.  0.
          5    1    3    3  502    0 -0.11346384925E+03  0.31565138087E+02  0.41408871142E+03  0.43053682067E+03  0.47000000000E+01 0.  1.
         -5    1    1    2    0  503  0.20630563911E+02 -0.11922426913E+03  0.13773611373E+03  0.18339403900E+03  0.47000000000E+01 0.  1.
          5    1    1    2  503    0  0.15877975132E+03 -0.59466743325E+02  0.22715679796E+03  0.28349533303E+03  0.47000000000E+01 0. -1.
         -5    1    3    3    0  502 -0.65946465987E+02  0.14712587437E+03  0.77760522233E+03  0.79415800133E+03  0.47000000000E+01 0.  1.
<mgrwt>
<rscale>  0 0.28902446E+03</rscale>
<asrwt>0</asrwt>
<pdfrwt beam="1">  1        2 0.24985928E+00 0.29127109E+03</pdfrwt>
<pdfrwt beam="2">  1       -2 0.10384413E-01 0.29127109E+03</pdfrwt>
<totfact> 0.73181413E+02</totfact>
</mgrwt>
</event>
<event>
 8    1  0.2018715E-005  0.1389584E+03  0.7546771E-02  0.1231026E+00
          2   -1    0    0  501    0  0.00000000000E+00  0.00000000000E+00  0.60828520072E+02  0.60828520072E+02  0.00000000000E+00 0. -1.
         -2   -1    0    0    0  501 -0.00000000000E+00 -0.00000000000E+00 -0.23248186251E+03  0.23248186251E+03  0.00000000000E+00 0.  1.
         25    2    1    2    0    0 -0.26423936040E+01  0.60639977565E+02 -0.99085372685E+02  0.17066739571E+03  0.12500103902E+03 0.  0.
         23    2    1    2    0    0  0.26423936040E+01 -0.60639977565E+02 -0.72567969756E+02  0.12264298688E+03  0.78044877297E+02 0.  0.
          5    1    3    3  502    0  0.27290596535E+02  0.33514503800E+02  0.17748131221E+02  0.46958330316E+02  0.47000000000E+01 0. -1.
         -5    1    3    3    0  502 -0.29932990139E+02  0.27125473765E+02 -0.11683350391E+03  0.12370906539E+03  0.47000000000E+01 0. -1.
          5    1    4    4  503    0 -0.20691875539E+02 -0.63025913323E+01  0.71619314461E+01  0.23264987274E+02  0.47000000000E+01 0. -1.
         -5    1    4    4    0  503  0.23334269143E+02 -0.54337386232E+02 -0.79729901202E+02  0.99377999601E+02  0.47000000000E+01 0.  1.
<mgrwt>
<rscale>  0 0.12762312E+03</rscale>
<asrwt>0</asrwt>
<pdfrwt beam="1">  1        2 0.93582337E-02 0.13895844E+03</pdfrwt>
<pdfrwt beam="2">  1       -2 0.35766441E-01 0.13895844E+03</pdfrwt>
<totfact> 0.48935369E+03</totfact>
</mgrwt>
</event>
<event>
 8    1  0.2018715E-005  0.1484593E+03  0.7546771E-02  0.1206100E+00
         -2   -1    0    0    0  501 -0.00000000000E+00  0.00000000000E+00  0.47558622587E+02  0.47558622587E+02  0.00000000000E+00 0.  1.
          2   -1    0    0  501    0  0.00000000000E+00 -0.00000000000E+00 -0.55661926992E+03  0.55661926992E+03  0.00000000000E+00 0. -1.
         25    2    1    2    0    0 -0.65855907292E+02 -0.45589962852E+02 -0.11747960230E+03  0.18931879428E+03  0.12499881469E+03 0.  0.
         23    2    1    2    0    0  0.65855907292E+02  0.45589962852E+02 -0.39158104503E+03  0.41485909823E+03  0.11116164498E+03 0.  0.
          5    1    3    3  502    0 -0.99469728666E+02 -0.18920903486E+02 -0.10106562588E+03  0.14313831857E+03  0.47000000000E+01 0. -1.
         -5    1    4    4    0  503  0.79768128787E+01  0.44909591714E+02 -0.47914419961E+02  0.66320303164E+02  0.47000000000E+01 0. -1.
          5    1    4    4  503    0  0.57879094414E+02  0.68037113740E+00 -0.34366662507E+03  0.34853879506E+03  0.47000000000E+01 0. -1.
         -5    1    3    3    0  502  0.33613821374E+02 -0.26669059366E+02 -0.16413976426E+02  0.46180475711E+02  0.47000000000E+01 0. -1.
<mgrwt>
<rscale>  0 0.14551082E+03</rscale>
<asrwt>0</asrwt>
<pdfrwt beam="1">  1        2 0.85633740E-01 0.14845925E+03</pdfrwt>
<pdfrwt beam="2">  1       -2 0.73167107E-02 0.14845925E+03</pdfrwt>
<totfact> 0.57957516E+03</totfact>
</mgrwt>
</event>
<event>
 7    1  0.2018715E-005  0.1927136E+03  0.7546771E-02  0.1165583E+00
          2   -1    0    0  501    0  0.00000000000E+00  0.00000000000E+00  0.72348577792E+03  0.72348577792E+03  0.00000000000E+00 0. -1.
         -2   -1    0    0    0  501 -0.00000000000E+00 -0.00000000000E+00 -0.58279918167E+02  0.58279918167E+02  0.00000000000E+00 0.  1.
         25    2    1    2    0    0 -0.40487534773E+01  0.14662915679E+03  0.56689687964E+03  0.59875753774E+03  0.12498805873E+03 0.  0.
          5    1    3    3  502    0 -0.68122770858E+01  0.11835237278E+03  0.55510044043E+03  0.56763745492E+03  0.47000000000E+01 0. -1.
         -5    1    1    2    0  503 -0.17200493236E+02 -0.96953996836E+02  0.50753958436E+02  0.11087826102E+03  0.47000000000E+01 0.  1.
          5    1    1    2  503    0  0.21249246713E+02 -0.49675159954E+02  0.47555021681E+02  0.72129897334E+02  0.47000000000E+01 0. -1.
         -5    1    3    3    0  502  0.27635236084E+01  0.28276784009E+02  0.11796439212E+02  0.31120082819E+02  0.47000000000E+01 0. -1.
<mgrwt>
<rscale>  0 0.18231342E+03</rscale>
<asrwt>0</asrwt>
<pdfrwt beam="1">  1        2 0.11130550E+00 0.19271356E+03</pdfrwt>
<pdfrwt beam="2">  1       -2 0.89661418E-02 0.19271356E+03</pdfrwt>
<totfact> 0.31448821E+03</totfact>
</mgrwt>
</event>
<event>
 7    1  0.2018715E-005  0.2431798E+03  0.7546771E-02  0.1119847E+00
          3   -1    0    0  501    0  0.00000000000E+00  0.00000000000E+00  0.21899640083E+03  0.21899640083E+03  0.00000000000E+00 0. -1.
         -3   -1    0    0    0  501 -0.00000000000E+00 -0.00000000000E+00 -0.27333037227E+03  0.27333037227E+03  0.00000000000E+00 0.  1.
         25    2    1    2    0    0 -0.19348697747E+03  0.39036920338E+01  0.35438133568E+02  0.23310594945E+03  0.12502029074E+03 0.  0.
          5    1    3    3  502    0 -0.44388694312E+02 -0.36083320079E+02  0.52425099017E+02  0.77735726519E+02  0.47000000000E+01 0.  1.
         -5    1    1    2    0  503  0.31373732347E+02 -0.23806151249E+02 -0.87206785824E+02  0.95802700444E+02  0.47000000000E+01 0.  1.
          5    1    1    2  503    0  0.16211324513E+03  0.19902459215E+02 -0.25653191860E+01  0.16341812320E+03  0.47000000000E+01 0. -1.
         -5    1    3    3    0  502 -0.14909828316E+03  0.39987012113E+02 -0.16986965449E+02  0.15537022294E+03  0.47000000000E+01 0.  1.
<mgrwt>
<rscale>  0 0.23991894E+03</rscale>
<asrwt>0</asrwt>
<pdfrwt beam="1">  1        3 0.33691754E-01 0.24317978E+03</pdfrwt>
<pdfrwt beam="2">  1       -3 0.42050826E-01 0.24317978E+03</pdfrwt>
<totfact> 0.12084900E+02</totfact>
</mgrwt>
</event>
<event>
 8    1  0.2018715E-005  0.1307699E+03  0.7546771E-02  0.1253937E+00
          1   -1    0    0  501    0  0.00000000000E+00  0.00000000000E+00  0.27981806854E+03  0.27981806854E+03  0.00000000000E+00 0. -1.
         -1   -1    0    0    0  501 -0.00000000000E+00 -0.00000000000E+00 -0.41984336935E+02  0.41984336935E+02  0.00000000000E+00 0.  1.
         25    2    1    2    0    0  0.25442770418E+02  0.28778246446E+02  0.98415458785E+02  0.16366539918E+03  0.12500095330E+03 0.  0.
         23    2    1    2    0    0 -0.25442770418E+02 -0.28778246446E+02  0.13941827282E+03  0.15813700630E+03  0.63986998121E+02 0.  0.
          5    1    4    4  502    0  0.19679154588E+02 -0.19347930426E+02  0.45770342382E+02  0.53652826383E+02  0.47000000000E+01 0. -1.
         -5    1    3    3    0  503 -0.62437112258E+01  0.42359291993E+02 -0.14548408498E+02  0.45464708708E+02  0.47000000000E+01 0.  1.
          5    1    3    3  503    0  0.31686481644E+02 -0.13581045547E+02  0.11296386728E+03  0.11820069047E+03  0.47000000000E+01 0.  1.
         -5    1    4    4    0  502 -0.45121925006E+02 -0.94303160205E+01  0.93647930441E+02  0.10448417991E+03  0.47000000000E+01 0.  1.
<mgrwt>
<rscale>  0 0.11366095E+03</rscale>
<asrwt>0</asrwt>
<pdfrwt beam="1">  1        1 0.43048932E-01 0.13076988E+03</pdfrwt>
<pdfrwt beam="2">  1       -1 0.64591289E-02 0.13076988E+03</pdfrwt>
<totfact> 0.10760523E+04</totfact>
</mgrwt>
</event>
<event>
 7    1  0.2018715E-005  0.1518585E+03  0.7546771E-02  0.1218575E+00
          2   -1    0    0  501    0  0.00000000000E+00  0.00000000000E+00  0.36415084882E+03  0.36415084882E+03  0.00000000000E+00 0. -1.
         -2   -1    0    0    0  501 -0.00000000000E+00 -0.00000000000E+00 -0.42931549646E+02  0.42931549646E+02  0.00000000000E+00 0.  1.
         25    2    1    2    0    0  0.62460516849E+02  0.59453951367E+02  0.19209955928E+03  0.24487392040E+03  0.12499963088E+03 0.  0.
          5    1    3    3  502    0  0.79173815027E+02  0.82950564224E+02  0.17951054481E+03  0.21306199752E+03  0.47000000000E+01 0. -1.
         -5    1    3    3    0  502 -0.16713298178E+02 -0.23496612858E+02  0.12589014469E+02  0.31811922876E+02  0.47000000000E+01 0. -1.
          5    1    1    2  503    0 -0.19947572550E+02 -0.30808371953E+02  0.90750339712E+02  0.98003957016E+02  0.47000000000E+01 0. -1.
         -5    1    1    2    0  503 -0.42512944299E+02 -0.28645579414E+02  0.38369400186E+02  0.64204521052E+02  0.47000000000E+01 0.  1.
<mgrwt>
<rscale>  0 0.13617178E+03</rscale>
<asrwt>0</asrwt>
<pdfrwt beam="1">  1        2 0.56023206E-01 0.15185847E+03</pdfrwt>
<pdfrwt beam="2">  1       -2 0.66048540E-02 0.15185847E+03</pdfrwt>
<totfact> 0.10778537E+04</totfact>
</mgrwt>
</event>
<event>
 8    1  0.2129089E-005  0.1283369E+03  0.7546771E-02  0.1254879E+00
         -2   -1    0    0    0  501 -0.00000000000E+00  0.00000000000E+00  0.19174239540E+02  0.19174239540E+02  0.00000000000E+00 0.  1.
          2   -1    0    0  501    0  0.00000000000E+00 -0.00000000000E+00 -0.64163581117E+03  0.64163581117E+03  0.00000000000E+00 0. -1.
         25    2    1    2    0    0 -0.19287728367E+02  0.21755658374E+02 -0.25747175171E+03  0.28768395057E+03  0.12500010939E+03 0.  0.
         23    2    1    2    0    0  0.19287728367E+02 -0.21755658374E+02 -0.36498981992E+03  0.37312610015E+03  0.71834482163E+02 0.  0.
          5    1    4    4  502    0 -0.24757771431E+02 -0.85462371478E+01 -0.20074497570E+03  0.20250091527E+03  0.47000000000E+01 0. -1.
         -5    1    4    4    0  502  0.44045499798E+02 -0.13209421226E+02 -0.16424484422E+03  0.17062518488E+03  0.47000000000E+01 0.  1.
          5    1    3    3  503    0 -0.25753838660E+02 -0.22628776136E+02 -0.98350335846E+01  0.35974151842E+02  0.47000000000E+01 0.  1.
         -5    1    3    3    0  503  0.64661102928E+01  0.44384434510E+02 -0.24763671813E+03  0.25170979872E+03  0.47000000000E+01 0.  1.
<mgrwt>
<rscale>  0 0.11313120E+03</rscale>
<asrwt>0</asrwt>
<pdfrwt beam="1">  1        2 0.98713198E-01 0.12833687E+03</pdfrwt>
<pdfrwt beam="2">  1       -2 0.29498831E-02 0.12833687E+03</pdfrwt>
<totfact> 0.19048593E+04</totfact>
</mgrwt>
</event>
<event>
 8    1  0.2018715E-005  0.1279719E+03  0.7546771E-02  0.1261272E+00
          1   -1    0    0  501    0  0.00000000000E+00  0.00000000000E+00  0.27531785049E+03  0.27531785049E+03  0.00000000000E+00 0. -1.
         -1   -1    0    0    0  501 -0.00000000000E+00 -0.00000000000E+00 -0.50973053415E+02  0.50973053415E+02  0.00000000000E+00 0.  1.
         25    2    1    2    0    0  0.25483568695E+02 -0.10112970611E+02  0.22330927128E+03  0.25737879669E+03  0.12500051958E+03 0.  0.
         23    2    1    2    0    0 -0.25483568695E+02  0.10112970611E+02  0.10355257907E+01  0.68912107217E+02  0.63214885584E+02 0.  0.
          5    1    4    4  502    0 -0.31478015190E+02 -0.11540453891E+02  0.19839149086E+02  0.39239385224E+02  0.47000000000E+01 0. -1.
         -5    1    4    4    0  502  0.59944464943E+01  0.21653424502E+02 -0.18803623296E+02  0.29672721993E+02  0.47000000000E+01 0.  1.
          5    1    3    3  503    0  0.35042821474E+02  0.32093879802E+02  0.24135306494E+02  0.53503452946E+02  0.47000000000E+01 0.  1.
         -5    1    3    3    0  503 -0.95592527789E+01 -0.42206850413E+02  0.19917396479E+03  0.20387534374E+03  0.47000000000E+01 0.  1.
<mgrwt>
<rscale>  0 0.10962198E+03</rscale>
<asrwt>0</asrwt>
<pdfrwt beam="1">  1        1 0.42356591E-01 0.12797193E+03</pdfrwt>
<pdfrwt beam="2">  1       -1 0.78420084E-02 0.12797193E+03</pdfrwt>
<totfact> 0.81947450E+03</totfact>
</mgrwt>
</event>
<event>
 8    1  0.2018715E-005  0.3054345E+03  0.7546771E-02  0.1083488E+00
          1   -1    0    0  501    0  0.00000000000E+00  0.00000000000E+00  0.24108589581E+03  0.24108589581E+03  0.00000000000E+00 0. -1.
         -1   -1    0    0    0  501 -0.00000000000E+00 -0.00000000000E+00 -0.65716362319E+03  0.65716362319E+03  0.00000000000E+00 0.  1.
         25    2    1    2    0    0  0.24887651333E+03 -0.12540038023E+03  0.83460341160E+02  0.31663206495E+03  0.12500184703E+03 0.  0.
         23    2    1    2    0    0 -0.24887651333E+03  0.12540038023E+03 -0.49953806854E+03  0.58161745404E+03  0.10524165848E+03 0.  0.
          5    1    4    4  502    0 -0.13648366319E+03  0.10428427013E+03 -0.21711078393E+03  0.27687936328E+03  0.47000000000E+01 0. -1.
         -5    1    3    3    0  503  0.15106613794E+03 -0.11990211069E+03  0.83619566195E+01  0.19310491060E+03  0.47000000000E+01 0.  1.
          5    1    3    3  503    0  0.97810375387E+02 -0.54982695427E+01  0.75098384541E+02  0.12352715435E+03  0.47000000000E+01 0.  1.
         -5    1    4    4    0  502 -0.11239285013E+03  0.21116110103E+02 -0.28242728461E+03  0.30473809076E+03  0.47000000000E+01 0.  1.
<mgrwt>
<rscale>  0 0.30353156E+03</rscale>
<asrwt>0</asrwt>
<pdfrwt beam="1">  1        1 0.37090138E-01 0.30543450E+03</pdfrwt>
<pdfrwt beam="2">  1       -1 0.10110210E+00 0.30543450E+03</pdfrwt>
<totfact> 0.11418544E+02</totfact>
</mgrwt>
</event>
<event>
 8    1  0.2018715E-005  0.1341189E+03  0.7546771E-02  0.1227401E+00
          2   -1    0    0  501    0  0.00000000000E+00  0.00000000000E+00  0.83044221041E+02  0.83044221041E+02  0.00000000000E+00 0. -1.
         -2   -1    0    0    0  501 -0.00000000000E+00 -0.00000000000E+00 -0.22724600741E+03  0.22724600741E+03  0.00000000000E+00 0.  1.
         25    2    1    2    0    0  0.41620295336E+02  0.25107724459E+02 -0.13673828788E+03  0.19153390418E+03  0.12500092106E+03 0.  0.
         23    2    1    2    0    0 -0.41620295336E+02 -0.25107724459E+02 -0.74634984869E+01  0.11875632427E+03  0.10809585530E+03 0.  0.
          5    1    3    3  502    0  0.24495913003E+02  0.17063116039E+01  0.20031148837E+02  0.32035888888E+02  0.47000000000E+01 0.  1.
         -5    1    4    4    0  503  0.20772451585E+02  0.25944885400E+02 -0.16670774681E+02  0.37478481182E+02  0.47000000000E+01 0.  1.
          5    1    4    4  503    0 -0.62392746920E+02 -0.51052609859E+02  0.92072761941E+01  0.81277843085E+02  0.47000000000E+01 0. -1.
         -5    1    3    3    0  502  0.17124382333E+02  0.23401412855E+02 -0.15676943671E+03  0.15949801529E+03  0.47000000000E+01 0.  1.
<mgrwt>
<rscale>  0 0.13003696E+03</rscale>
<asrwt>0</asrwt>
<pdfrwt beam="1">  1        2 0.12776034E-01 0.13411889E+03</pdfrwt>
<pdfrwt beam="2">  1       -2 0.34960924E-01 0.13411889E+03</pdfrwt>
<totfact> 0.34888453E+03</totfact>
</mgrwt>
</event>
<event>
 8    1  0.2018715E-005  0.1615454E+03  0.7546771E-02  0.1197276E+00
          2   -1    0    0  501    0  0.00000000000E+00  0.00000000000E+00  0.39606325016E+03  0.39606325016E+03  0.00000000000E+00 0.  1.
         -2   -1    0    0    0  501 -0.00000000000E+00 -0.00000000000E+00 -0.11580476973E+03  0.11580476973E+03  0.00000000000E+00 0. -1.
         25    2    1    2    0    0 -0.96171966987E+02  0.34907211861E+02  0.33504857104E+03  0.37196029425E+03  0.12501741826E+03 0.  0.
         23    2    1    2    0    0  0.96171966987E+02 -0.34907211861E+02 -0.54790090605E+02  0.13990772564E+03  0.78132304401E+02 0.  0.
          5    1    3    3  502    0 -0.23002347165E+02  0.69999463311E+02  0.10821635333E+03  0.13100344258E+03  0.47000000000E+01 0. -1.
         -5    1    3    3    0  502 -0.73169619822E+02 -0.35092251450E+02  0.22683221771E+03  0.24095685167E+03  0.47000000000E+01 0. -1.
          5    1    4    4  503    0  0.41562814530E+02 -0.51223604204E+02 -0.91944952870E+01  0.66767910877E+02  0.47000000000E+01 0. -1.
         -5    1    4    4    0  503  0.54609152457E+02  0.16316392342E+02 -0.45595595318E+02  0.73139814763E+02  0.47000000000E+01 0.  1.
<mgrwt>
<rscale>  0 0.15263127E+03</rscale>
<asrwt>0</asrwt>
<pdfrwt beam="1">  1        2 0.60932807E-01 0.16154540E+03</pdfrwt>
<pdfrwt beam="2">  1       -2 0.17816119E-01 0.16154540E+03</pdfrwt>
<totfact> 0.20357726E+03</totfact>
</mgrwt>
</event>
<event>
 8    1  0.2018715E-005  0.1275723E+03  0.7546771E-02  0.1238129E+00
         -3   -1    0    0    0  501 -0.00000000000E+00  0.00000000000E+00  0.38895116768E+03  0.38895116768E+03  0.00000000000E+00 0.  1.
          3   -1    0    0  501    0  0.00000000000E+00 -0.00000000000E+00 -0.36847952371E+02  0.36847952371E+02  0.00000000000E+00 0. -1.
         25    2    1    2    0    0 -0.18581961945E+02 -0.17429620824E+02  0.21144436258E+03  0.24694820702E+03  0.12500246993E+03 0.  0.
         23    2    1    2    0    0  0.18581961945E+02  0.17429620824E+02  0.14065885272E+03  0.17885091303E+03  0.10748793072E+03 0.  0.
          5    1    3    3  502    0 -0.54739518375E+02 -0.49755314969E+02  0.15860551388E+03  0.17507085786E+03  0.47000000000E+01 0.  1.
         -5    1    3    3    0  502  0.36157556431E+02  0.32325694146E+02  0.52838848707E+02  0.71877349156E+02  0.47000000000E+01 0.  1.
          5    1    4    4  503    0  0.40417480157E+02 -0.29125330617E+02  0.10434952673E+03  0.11572714165E+03  0.47000000000E+01 0. -1.
         -5    1    4    4    0  503 -0.21835518212E+02  0.46554951441E+02  0.36309325990E+02  0.63123771379E+02  0.47000000000E+01 0.  1.
<mgrwt>
<rscale>  0 0.12306215E+03</rscale>
<asrwt>0</asrwt>
<pdfrwt beam="1">  1        3 0.56689160E-02 0.12757233E+03</pdfrwt>
<pdfrwt beam="2">  1       -3 0.59838638E-01 0.12757233E+03</pdfrwt>
<totfact> 0.11769861E+03</totfact>
</mgrwt>
</event>
<event>
 7    1  0.2018715E-005  0.1762755E+03  0.7546771E-02  0.1183122E+00
         -2   -1    0    0    0  501 -0.00000000000E+00  0.00000000000E+00  0.19694824309E+03  0.19694824309E+03  0.00000000000E+00 0.  1.
          2   -1    0    0  501    0  0.00000000000E+00 -0.00000000000E+00 -0.15254070986E+03  0.15254070986E+03  0.00000000000E+00 0. -1.
         25    2    1    2    0    0  0.23291690385E+02  0.12208993938E+03  0.10046976846E+03  0.20289709647E+03  0.12499840495E+03 0.  0.
          5    1    3    3  502    0 -0.37599152453E+01 -0.24971141342E+02  0.74946008216E+01  0.26757314964E+02  0.47000000000E+01 0. -1.
         -5    1    1    2    0  503  0.15986225643E+02 -0.44406106682E+02 -0.27661576482E+02  0.54906416150E+02  0.47000000000E+01 0.  1.
          5    1    1    2  503    0 -0.39277916028E+02 -0.77683832698E+02 -0.28400658755E+02  0.91685440327E+02  0.47000000000E+01 0. -1.
         -5    1    3    3    0  502  0.27051605631E+02  0.14706108072E+03  0.92975167642E+02  0.17613978150E+03  0.47000000000E+01 0. -1.
<mgrwt>
<rscale>  0 0.16503926E+03</rscale>
<asrwt>0</asrwt>
<pdfrwt beam="1">  1        2 0.23467801E-01 0.17627552E+03</pdfrwt>
<pdfrwt beam="2">  1       -2 0.30299730E-01 0.17627552E+03</pdfrwt>
<totfact> 0.22762170E+03</totfact>
</mgrwt>
</event>
<event>
 8    1  0.2018715E-005  0.1358266E+03  0.7546771E-02  0.1239257E+00
          2   -1    0    0  501    0  0.00000000000E+00  0.00000000000E+00  0.49303647644E+02  0.49303647644E+02  0.00000000000E+00 0. -1.
         -2   -1    0    0    0  501 -0.00000000000E+00 -0.00000000000E+00 -0.25870867253E+03  0.25870867253E+03  0.00000000000E+00 0.  1.
         25    2    1    2    0    0 -0.10259675669E+02 -0.52139638598E+02 -0.13715690705E+03  0.19303077430E+03  0.12500023927E+03 0.  0.
         23    2    1    2    0    0  0.10259675669E+02  0.52139638598E+02 -0.72248117833E+02  0.11498154587E+03  0.71952501711E+02 0.  0.
          5    1    4    4  502    0 -0.23936175487E+02  0.25491415140E+02 -0.61794043274E+01  0.35819377167E+02  0.47000000000E+01 0. -1.
         -5    1    3    3    0  503 -0.56074792727E+02 -0.37627036746E+02 -0.12666132829E+03  0.14361531380E+03  0.47000000000E+01 0. -1.
          5    1    3    3  503    0  0.45815117058E+02 -0.14512601852E+02 -0.10495578768E+02  0.49415460508E+02  0.47000000000E+01 0. -1.
         -5    1    4    4    0  502  0.34195851156E+02  0.26648223458E+02 -0.66068713505E+02  0.79162168704E+02  0.47000000000E+01 0.  1.
<mgrwt>
<rscale>  0 0.12235773E+03</rscale>
<asrwt>0</asrwt>
<pdfrwt beam="1">  1        2 0.75851766E-02 0.13582659E+03</pdfrwt>
<pdfrwt beam="2">  1       -2 0.39801334E-01 0.13582659E+03</pdfrwt>
<totfact> 0.51996304E+03</totfact>
</mgrwt>
</event>
<event>
 8    1  0.2018715E-005  0.1382929E+03  0.7546771E-02  0.1222334E+00
          2   -1    0    0  501    0  0.00000000000E+00  0.00000000000E+00  0.63472021569E+03  0.63472021569E+03  0.00000000000E+00 0. -1.
         -2   -1    0    0    0  501 -0.00000000000E+00 -0.00000000000E+00 -0.27306725683E+02  0.27306725683E+02  0.00000000000E+00 0.  1.
         25    2    1    2    0    0 -0.58403533988E+02  0.93173540925E+01  0.38746338023E+03  0.41140344299E+03  0.12500854378E+03 0.  0.
         23    2    1    2    0    0  0.58403533988E+02 -0.93173540925E+01  0.21995010977E+03  0.25062349837E+03  0.10457677218E+03 0.  0.
          5    1    4    4  502    0  0.14780671943E+02 -0.26791516693E+02  0.19455332373E+03  0.19700086143E+03  0.47000000000E+01 0. -1.
         -5    1    3    3    0  503 -0.40065188282E+02  0.17951406448E+02  0.38808348597E+03  0.39058719178E+03  0.47000000000E+01 0. -1.
          5    1    3    3  503    0 -0.18338345706E+02 -0.86340523560E+01 -0.62010573532E+00  0.20816251211E+02  0.47000000000E+01 0. -1.
         -5    1    4    4    0  502  0.43622862045E+02  0.17474162601E+02  0.25396786042E+02  0.53622636944E+02  0.47000000000E+01 0.  1.
<mgrwt>
<rscale>  0 0.13351300E+03</rscale>
<asrwt>0</asrwt>
<pdfrwt beam="1">  1        2 0.97649253E-01 0.13829288E+03</pdfrwt>
<pdfrwt beam="2">  1       -2 0.42010352E-02 0.13829288E+03</pdfrwt>
<totfact> 0.11503141E+04</totfact>
</mgrwt>
</event>
<event>
 8    1  0.2018715E-005  0.2382351E+03  0.7546771E-02  0.1124694E+00
         -2   -1    0    0    0  501 -0.00000000000E+00  0.00000000000E+00  0.13429724111E+03  0.13429724111E+03  0.00000000000E+00 0.  1.
          2   -1    0    0  501    0  0.00000000000E+00 -0.00000000000E+00 -0.39409818480E+03  0.39409818480E+03  0.00000000000E+00 0. -1.
         25    2    1    2    0    0  0.19464837668E+03  0.56952910188E+02 -0.98143146129E+02  0.25765872937E+03  0.12499727662E+03 0.  0.
         23    2    1    2    0    0 -0.19464837668E+03 -0.56952910188E+02 -0.16165779756E+03  0.27073669654E+03  0.77675548407E+02 0.  0.
          5    1    3    3  502    0  0.34950316777E+02 -0.32225358206E+02  0.42951039721E+01  0.47963905934E+02  0.47000000000E+01 0. -1.
         -5    1    3    3    0  502  0.15969805991E+03  0.89178268394E+02 -0.10243825010E+03  0.20969482344E+03  0.47000000000E+01 0. -1.
          5    1    4    4  503    0 -0.14045935459E+03 -0.45583565325E+02 -0.15603439485E+03  0.21488488569E+03  0.47000000000E+01 0. -1.
         -5    1    4    4    0  503 -0.54189022096E+02 -0.11369344863E+02 -0.56234027051E+01  0.55851810859E+02  0.47000000000E+01 0.  1.
<mgrwt>
<rscale>  0 0.23278601E+03</rscale>
<asrwt>0</asrwt>
<pdfrwt beam="1">  1        2 0.60630490E-01 0.23823506E+03</pdfrwt>
<pdfrwt beam="2">  1       -2 0.20661114E-01 0.23823506E+03</pdfrwt>
<totfact> 0.16070008E+03</totfact>
</mgrwt>
</event>
<event>
 8    1  0.2211958E-005  0.1718187E+03  0.7546771E-02  0.1179095E+00
         -1   -1    0    0    0  501 -0.00000000000E+00  0.00000000000E+00  0.31269201024E+02  0.31269201024E+02  0.00000000000E+00 0.  1.
          1   -1    0    0  501    0  0.00000000000E+00 -0.00000000000E+00 -0.88227984654E+03  0.88227984654E+03  0.00000000000E+00 0. -1.
         25    2    1    2    0    0  0.32657708440E+02  0.11328251899E+03 -0.42170302430E+03  0.45536260620E+03  0.12498882909E+03 0.  0.
         23    2    1    2    0    0 -0.32657708440E+02 -0.11328251899E+03 -0.42930762122E+03  0.45818644136E+03  0.10830663130E+03 0.  0.
          5    1    4    4  502    0  0.39892000245E+02 -0.45481118565E+02 -0.16394955997E+03  0.17481834012E+03  0.47000000000E+01 0. -1.
         -5    1    3    3    0  503  0.27880559291E+02  0.14061013957E+03 -0.36134267087E+03  0.38876619288E+03  0.47000000000E+01 0.  1.
          5    1    3    3  503    0  0.47771491497E+01 -0.27327620588E+02 -0.60360353429E+02  0.66596413320E+02  0.47000000000E+01 0.  1.
         -5    1    4    4    0  502 -0.72549708685E+02 -0.67801400421E+02 -0.26535806125E+03  0.28336810124E+03  0.47000000000E+01 0.  1.
<mgrwt>
<rscale>  0 0.16880912E+03</rscale>
<asrwt>0</asrwt>
<pdfrwt beam="1">  1        1 0.13573534E+00 0.17181869E+03</pdfrwt>
<pdfrwt beam="2">  1       -1 0.48106469E-02 0.17181869E+03</pdfrwt>
<totfact> 0.36300912E+03</totfact>
</mgrwt>
</event>
<event>
 7    1  0.2018715E-005  0.1329661E+03  0.7546771E-02  0.1255240E+00
         -4   -1    0    0    0  501 -0.00000000000E+00  0.00000000000E+00  0.11385181224E+03  0.11385181224E+03  0.00000000000E+00 0.  1.
          4   -1    0    0  501    0  0.00000000000E+00 -0.00000000000E+00 -0.95194454023E+02  0.95194454023E+02  0.00000000000E+00 0. -1.
         25    2    1    2    0    0  0.45331857360E+02 -0.13778472046E+00 -0.11731990048E+02  0.13348264755E+03  0.12499992532E+03 0.  0.
          5    1    3    3  502    0  0.59333165722E+02 -0.25879383254E+02  0.38263997435E+02  0.75341824586E+02  0.47000000000E+01 0.  1.
         -5    1    1    2    0  503 -0.13454550073E+02 -0.20601483679E+02  0.27403737664E+02  0.37128168355E+02  0.47000000000E+01 0. -1.
          5    1    1    2  503    0 -0.31877307287E+02  0.20739268399E+02  0.29856106042E+01  0.38435450359E+02  0.47000000000E+01 0. -1.
         -5    1    3    3    0  502 -0.14001308363E+02  0.25741598534E+02 -0.49995987483E+02  0.58140822967E+02  0.47000000000E+01 0.  1.
<mgrwt>
<rscale>  0 0.11292918E+03</rscale>
<asrwt>0</asrwt>
<pdfrwt beam="1">  1        4 0.14645301E-01 0.13296608E+03</pdfrwt>
<pdfrwt beam="2">  1       -4 0.17515663E-01 0.13296608E+03</pdfrwt>
<totfact> 0.18422878E+03</totfact>
</mgrwt>
</event>
<event>
 7    1  0.2018715E-005  0.1564498E+03  0.7546771E-02  0.1210592E+00
         -2   -1    0    0    0  501 -0.00000000000E+00  0.00000000000E+00  0.29416284632E+03  0.29416284632E+03  0.00000000000E+00 0.  1.
          2   -1    0    0  501    0  0.00000000000E+00 -0.00000000000E+00 -0.78155918131E+02  0.78155918131E+02  0.00000000000E+00 0. -1.
         25    2    1    2    0    0  0.93985336747E+02  0.42512898148E+01  0.21509842613E+03  0.26597718612E+03  0.12500085448E+03 0.  0.
          5    1    1    2  502    0 -0.61793848069E+02 -0.24722777057E+02  0.81825307228E+01  0.67221567772E+02  0.47000000000E+01 0. -1.
         -5    1    3    3    0  503  0.97870850484E+02 -0.43843503093E+02  0.15885202947E+03  0.19172118663E+03  0.47000000000E+01 0.  1.
          5    1    3    3  503    0 -0.38855137364E+01  0.48094792907E+02  0.56246396666E+02  0.74255999487E+02  0.47000000000E+01 0.  1.
         -5    1    1    2    0  502 -0.32191488678E+02  0.20471487242E+02 -0.72740286674E+01  0.39120010561E+02  0.47000000000E+01 0. -1.
<mgrwt>
<rscale>  0 0.14205385E+03</rscale>
<asrwt>0</asrwt>
<pdfrwt beam="1">  1        2 0.12023988E-01 0.15644977E+03</pdfrwt>
<pdfrwt beam="2">  1       -2 0.45255822E-01 0.15644977E+03</pdfrwt>
<totfact> 0.23213382E+03</totfact>
</mgrwt>
</event>
<event>
 8    1  0.2018715E-005  0.1577274E+03  0.7546771E-02  0.1195881E+00
          1   -1    0    0  501    0  0.00000000000E+00  0.00000000000E+00  0.13652656079E+03  0.13652656079E+03  0.00000000000E+00 0. -1.
         -1   -1    0    0    0  501 -0.00000000000E+00 -0.00000000000E+00 -0.38156388355E+03  0.38156388355E+03  0.00000000000E+00 0.  1.
         25    2    1    2    0    0 -0.55563290127E+02  0.78527913227E+02 -0.32017272816E+03  0.35691525593E+03  0.12499604673E+03 0.  0.
         23    2    1    2    0    0  0.55563290127E+02 -0.78527913227E+02  0.75135405396E+02  0.16117518840E+03  0.10525302773E+03 0.  0.
          5    1    3    3  502    0 -0.95208066109E+02  0.51450010459E+02 -0.24064163324E+03  0.26389802022E+03  0.47000000000E+01 0. -1.
         -5    1    4    4    0  503  0.31592036586E+02  0.14728424416E+02 -0.53683317813E+01  0.35579379527E+02  0.47000000000E+01 0.  1.
          5    1    4    4  503    0  0.23971253541E+02 -0.93256337642E+02  0.80503737177E+02  0.12559580887E+03  0.47000000000E+01 0. -1.
         -5    1    3    3    0  502  0.39644775982E+02  0.27077902767E+02 -0.79531094922E+02  0.93017235717E+02  0.47000000000E+01 0. -1.
<mgrwt>
<rscale>  0 0.15379886E+03</rscale>
<asrwt>0</asrwt>
<pdfrwt beam="1">  1        1 0.21004086E-01 0.15772737E+03</pdfrwt>
<pdfrwt beam="2">  1       -1 0.58702136E-01 0.15772737E+03</pdfrwt>
<totfact> 0.72449631E+02</totfact>
</mgrwt>
</event>
<event>
 7    1  0.2018715E-005  0.2454482E+03  0.7546771E-02  0.1120823E+00
         -2   -1    0    0    0  501 -0.00000000000E+00  0.00000000000E+00  0.21992573160E+03  0.21992573160E+03  0.00000000000E+00 0.  1.
          2   -1    0    0  501    0  0.00000000000E+00 -0.00000000000E+00 -0.79386279776E+03  0.79386279776E+03  0.00000000000E+00 0. -1.
         25    2    1    2    0    0  0.10636901769E+03 -0.14449198081E+03  0.13945666986E+03  0.25935134681E+03  0.12499063118E+03 0.  0.
          5    1    1    2  502    0 -0.80640779860E+02  0.18126785595E+03 -0.61410030323E+03  0.64536985009E+03  0.47000000000E+01 0. -1.
         -5    1    3    3    0  503  0.21134592614E+02 -0.72554912402E+02  0.12587817726E+03  0.14689551330E+03  0.47000000000E+01 0.  1.
          5    1    3    3  503    0  0.85234425078E+02 -0.71937068406E+02  0.13578492606E+02  0.11245583351E+03  0.47000000000E+01 0.  1.
         -5    1    1    2    0  502 -0.25728237832E+02 -0.36775875138E+02 -0.99293432792E+02  0.10906733246E+03  0.47000000000E+01 0.  1.
<mgrwt>
<rscale>  0 0.23845993E+03</rscale>
<asrwt>0</asrwt>
<pdfrwt beam="1">  1        2 0.12213274E+00 0.24544824E+03</pdfrwt>
<pdfrwt beam="2">  1       -2 0.33834728E-01 0.24544824E+03</pdfrwt>
<totfact> 0.29647526E+02</totfact>
</mgrwt>
</event>
<event>
 8    1  0.2018715E-005  0.1476886E+03  0.7546771E-02  0.1207181E+00
          1   -1    0    0  501    0  0.00000000000E+00  0.00000000000E+00  0.29052461392E+03  0.29052461392E+03  0.00000000000E+00 0. -1.
         -1   -1    0    0    0  501 -0.00000000000E+00 -0.00000000000E+00 -0.83379699576E+02  0.83379699576E+02  0.00000000000E+00 0.  1.
         25    2    1    2    0    0 -0.50208430269E+02  0.60525872660E+02  0.18405169221E+03  0.23598081872E+03  0.12501061422E+03 0.  0.
         23    2    1    2    0    0  0.50208430269E+02 -0.60525872660E+02  0.23093222133E+02  0.13792349478E+03  0.11092937290E+03 0.  0.
          5    1    4    4  502    0  0.32794270966E+02 -0.75654947677E+02  0.54293151525E+02  0.98838108131E+02  0.47000000000E+01 0. -1.
         -5    1    4    4    0  502  0.17414159303E+02  0.15129075018E+02 -0.31199929392E+02  0.39085386645E+02  0.47000000000E+01 0.  1.
          5    1    3    3  503    0  0.40295084914E+02  0.17069115758E+02  0.80044531479E+02  0.91346951786E+02  0.47000000000E+01 0. -1.
         -5    1    3    3    0  503 -0.90503515184E+02  0.43456756902E+02  0.10400716073E+03  0.14463386694E+03  0.47000000000E+01 0. -1.
<mgrwt>
<rscale>  0 0.14466922E+03</rscale>
<asrwt>0</asrwt>
<pdfrwt beam="1">  1        1 0.44696094E-01 0.14768860E+03</pdfrwt>
<pdfrwt beam="2">  1       -1 0.12827646E-01 0.14768860E+03</pdfrwt>
<totfact> 0.36468515E+03</totfact>
</mgrwt>
</event>
<event>
 8    1  0.2018715E-005  0.1321079E+03  0.7546771E-02  0.1244389E+00
         -2   -1    0    0    0  501 -0.00000000000E+00  0.00000000000E+00  0.18946111462E+03  0.18946111462E+03  0.00000000000E+00 0.  1.
          2   -1    0    0  501    0  0.00000000000E+00 -0.00000000000E+00 -0.14898767256E+03  0.14898767256E+03  0.00000000000E+00 0. -1.
         25    2    1    2    0    0  0.28663567460E+02  0.31716801915E+02  0.14889121879E+03  0.19905049609E+03  0.12499979735E+03 0.  0.
         23    2    1    2    0    0 -0.28663567460E+02 -0.31716801915E+02 -0.10841777673E+03  0.13939829109E+03  0.76484728040E+02 0.  0.
          5    1    4    4  502    0 -0.43648195824E+02 -0.33383834545E+01 -0.94207793576E+02  0.10398801937E+03  0.47000000000E+01 0. -1.
         -5    1    3    3    0  503  0.52933168038E+02 -0.28054518069E+02  0.10468302166E+03  0.12070460342E+03  0.47000000000E+01 0.  1.
          5    1    3    3  503    0 -0.24269600578E+02  0.59771319984E+02  0.44208197131E+02  0.78345892671E+02  0.47000000000E+01 0.  1.
         -5    1    4    4    0  502  0.14984628364E+02 -0.28378418460E+02 -0.14209983155E+02  0.35410271713E+02  0.47000000000E+01 0.  1.
<mgrwt>
<rscale>  0 0.11921995E+03</rscale>
<asrwt>0</asrwt>
<pdfrwt beam="1">  1        2 0.22921180E-01 0.13210793E+03</pdfrwt>
<pdfrwt beam="2">  1       -2 0.29147864E-01 0.13210793E+03</pdfrwt>
<totfact> 0.24741093E+03</totfact>
</mgrwt>
</event>
<event>
 8    1  0.2018715E-005  0.1519625E+03  0.7546771E-02  0.1203512E+00
         -2   -1    0    0    0  501 -0.00000000000E+00  0.00000000000E+00  0.43778400783E+02  0.43778400783E+02  0.00000000000E+00 0.  1.
          2   -1    0    0  501    0  0.00000000000E+00 -0.00000000000E+00 -0.47652881923E+03  0.47652881923E+03  0.00000000000E+00 0. -1.
         25    2    1    2    0    0  0.65704105706E+02  0.56144555760E+02 -0.25813624191E+03  0.29954453893E+03  0.12499348290E+03 0.  0.
         23    2    1    2    0    0 -0.65704105706E+02 -0.56144555760E+02 -0.17461417654E+03  0.22076268109E+03  0.10381141586E+03 0.  0.
          5    1    3    3  502    0 -0.96338881953E+01  0.36905305671E+02 -0.10346549678E+02  0.39798925597E+02  0.47000000000E+01 0.  1.
         -5    1    3    3    0  502  0.75337993901E+02  0.19239250088E+02 -0.24778969223E+03  0.25974561333E+03  0.47000000000E+01 0.  1.
          5    1    4    4  503    0 -0.79997038426E+02 -0.14453456289E+02 -0.14838839204E+03  0.16926202601E+03  0.47000000000E+01 0. -1.
         -5    1    4    4    0  503  0.14292932720E+02 -0.41691099471E+02 -0.26225784497E+02  0.51500655076E+02  0.47000000000E+01 0.  1.
<mgrwt>
<rscale>  0 0.14755316E+03</rscale>
<asrwt>0</asrwt>
<pdfrwt beam="1">  1        2 0.73312124E-01 0.15196253E+03</pdfrwt>
<pdfrwt beam="2">  1       -2 0.67351388E-02 0.15196253E+03</pdfrwt>
<totfact> 0.78278862E+03</totfact>
</mgrwt>
</event>
<event>
 8    1  0.2018715E-005  0.1690312E+03  0.7546771E-02  0.1179140E+00
         -1   -1    0    0    0  501 -0.00000000000E+00  0.00000000000E+00  0.38072393040E+03  0.38072393040E+03  0.00000000000E+00 0.  1.
          1   -1    0    0  501    0  0.00000000000E+00 -0.00000000000E+00 -0.92797082945E+02  0.92797082945E+02  0.00000000000E+00 0. -1.
         25    2    1    2    0    0  0.74636984953E+02 -0.85904337173E+02  0.39418880277E+02  0.17356668982E+03  0.12498525123E+03 0.  0.
         23    2    1    2    0    0 -0.74636984953E+02  0.85904337173E+02  0.24850796718E+03  0.29995432352E+03  0.12355626970E+03 0.  0.
          5    1    3    3  502    0  0.56026128187E+02  0.71248135729E+01 -0.21620500759E+02  0.60656624215E+02  0.47000000000E+01 0. -1.
         -5    1    4    4    0  503 -0.10281271371E+03  0.33464927129E+02  0.16320324712E+03  0.19582580351E+03  0.47000000000E+01 0.  1.
          5    1    4    4  503    0  0.28175728757E+02  0.52439410044E+02  0.85304720056E+02  0.10412852002E+03  0.47000000000E+01 0. -1.
         -5    1    3    3    0  502  0.18610856766E+02 -0.93029150746E+02  0.61039381036E+02  0.11291006561E+03  0.47000000000E+01 0. -1.
<mgrwt>
<rscale>  0 0.16876712E+03</rscale>
<asrwt>0</asrwt>
<pdfrwt beam="1">  1        1 0.14276474E-01 0.16903120E+03</pdfrwt>
<pdfrwt beam="2">  1       -1 0.58572912E-01 0.16903120E+03</pdfrwt>
<totfact> 0.11984322E+03</totfact>
</mgrwt>
</event>
<event>
 8    1  0.2018715E-005  0.1484696E+03  0.7546771E-02  0.1205584E+00
          2   -1    0    0  501    0  0.00000000000E+00  0.00000000000E+00  0.61189856645E+03  0.61189856645E+03  0.00000000000E+00 0. -1.
         -2   -1    0    0    0  501 -0.00000000000E+00 -0.00000000000E+00 -0.42649555430E+02  0.42649555430E+02  0.00000000000E+00 0.  1.
         25    2    1    2    0    0  0.54640769465E+02  0.58587278329E+02  0.44269073827E+03  0.46692429671E+03  0.12500050497E+03 0.  0.
         23    2    1    2    0    0 -0.54640769465E+02 -0.58587278329E+02  0.12655827275E+03  0.18762382516E+03  0.11299389584E+03 0.  0.
          5    1    4    4  502    0 -0.11855883158E+02 -0.83897231896E+02  0.99703143982E+02  0.13092789773E+03  0.47000000000E+01 0. -1.
         -5    1    3    3    0  503  0.32309517275E+02  0.69477445809E+02  0.43314750856E+03  0.43989757280E+03  0.47000000000E+01 0.  1.
          5    1    3    3  503    0  0.22331252190E+02 -0.10890167480E+02  0.95432297058E+01  0.27026723911E+02  0.47000000000E+01 0.  1.
         -5    1    4    4    0  502 -0.42784886308E+02  0.25309953567E+02  0.26855128765E+02  0.56695927428E+02  0.47000000000E+01 0.  1.
<mgrwt>
<rscale>  0 0.14591511E+03</rscale>
<asrwt>0</asrwt>
<pdfrwt beam="1">  1        2 0.94138235E-01 0.14846956E+03</pdfrwt>
<pdfrwt beam="2">  1       -2 0.65614705E-02 0.14846956E+03</pdfrwt>
<totfact> 0.61515381E+03</totfact>
</mgrwt>
</event>
<event>
 8    1  0.2018715E-005  0.1503124E+03  0.7546771E-02  0.1200631E+00
         -1   -1    0    0    0  501 -0.00000000000E+00  0.00000000000E+00  0.19811032116E+02  0.19811032116E+02  0.00000000000E+00 0.  1.
          1   -1    0    0  501    0  0.00000000000E+00 -0.00000000000E+00 -0.12750304385E+04  0.12750304385E+04  0.00000000000E+00 0. -1.
         25    2    1    2    0    0  0.82659928043E+02  0.11824470544E+02 -0.85132473886E+03  0.86449270371E+03  0.12498536699E+03 0.  0.
         23    2    1    2    0    0 -0.82659928043E+02 -0.11824470544E+02 -0.40389466756E+03  0.43034876694E+03  0.12286853511E+03 0.  0.
          5    1    3    3  502    0  0.70878144110E+02 -0.32688933227E+02 -0.73725490793E+03  0.74139002349E+03  0.47000000000E+01 0.  1.
         -5    1    3    3    0  502  0.11781783932E+02  0.44513403770E+02 -0.11406983093E+03  0.12310268021E+03  0.47000000000E+01 0.  1.
          5    1    4    4  503    0 -0.36588031904E+02 -0.16571819976E+02 -0.37135442352E+03  0.37354987239E+03  0.47000000000E+01 0. -1.
         -5    1    4    4    0  503 -0.46071896138E+02  0.47473494329E+01 -0.32540244045E+02  0.56798894557E+02  0.47000000000E+01 0.  1.
<mgrwt>
<rscale>  0 0.14987161E+03</rscale>
<asrwt>0</asrwt>
<pdfrwt beam="1">  1        1 0.19615860E+00 0.15031242E+03</pdfrwt>
<pdfrwt beam="2">  1       -1 0.30478500E-02 0.15031242E+03</pdfrwt>
<totfact> 0.36972452E+03</totfact>
</mgrwt>
</event>
<event>
 7    1  0.2018715E-005  0.1872837E+03  0.7546771E-02  0.1172171E+00
         -2   -1    0    0    0  501 -0.00000000000E+00  0.00000000000E+00  0.16261622123E+03  0.16261622123E+03  0.00000000000E+00 0.  1.
          2   -1    0    0  501    0  0.00000000000E+00 -0.00000000000E+00 -0.23300523022E+03  0.23300523022E+03  0.00000000000E+00 0. -1.
         25    2    1    2    0    0 -0.90466774756E+02  0.10614054456E+03 -0.14125457749E+03  0.23458059936E+03  0.12500059760E+03 0.  0.
          5    1    3    3  502    0 -0.13930878416E+02 -0.16641439962E+02  0.10752853074E+02  0.24672266752E+02  0.47000000000E+01 0.  1.
         -5    1    1    2    0  503  0.58299117958E+02 -0.48690388671E+02  0.52726667425E+02  0.92583651696E+02  0.47000000000E+01 0.  1.
          5    1    1    2  503    0  0.32167656798E+02 -0.57450155884E+02  0.18138901074E+02  0.68457200404E+02  0.47000000000E+01 0. -1.
         -5    1    3    3    0  502 -0.76535896340E+02  0.12278198452E+03 -0.15200743056E+03  0.20990833260E+03  0.47000000000E+01 0.  1.
<mgrwt>
<rscale>  0 0.17555981E+03</rscale>
<asrwt>0</asrwt>
<pdfrwt beam="1">  1        2 0.35846958E-01 0.18728375E+03</pdfrwt>
<pdfrwt beam="2">  1       -2 0.25017880E-01 0.18728375E+03</pdfrwt>
<totfact> 0.20172746E+03</totfact>
</mgrwt>
</event>
<event>
 8    1  0.2018715E-005  0.1280646E+03  0.7546771E-02  0.1252951E+00
          2   -1    0    0  501    0  0.00000000000E+00  0.00000000000E+00  0.58560936667E+03  0.58560936667E+03  0.00000000000E+00 0. -1.
         -2   -1    0    0    0  501 -0.00000000000E+00 -0.00000000000E+00 -0.20145634050E+02  0.20145634050E+02  0.00000000000E+00 0.  1.
         25    2    1    2    0    0  0.24371964026E+02 -0.13348918850E+02  0.42181546781E+03  0.44082745201E+03  0.12501346848E+03 0.  0.
         23    2    1    2    0    0 -0.24371964026E+02  0.13348918850E+02  0.14364826482E+03  0.16492754871E+03  0.76118894331E+02 0.  0.
          5    1    3    3  502    0 -0.30273430710E+02 -0.50345781631E+02  0.24641642592E+03  0.25336598686E+03  0.47000000000E+01 0.  1.
         -5    1    3    3    0  502  0.54645394736E+02  0.36996862781E+02  0.17539904189E+03  0.18746146515E+03  0.47000000000E+01 0.  1.
          5    1    4    4  503    0  0.86076199934E+01  0.38107464447E+02  0.64462527961E+02  0.75523357180E+02  0.47000000000E+01 0. -1.
         -5    1    4    4    0  503 -0.32979584019E+02 -0.24758545597E+02  0.79185736855E+02  0.89404191532E+02  0.47000000000E+01 0.  1.
<mgrwt>
<rscale>  0 0.11421859E+03</rscale>
<asrwt>0</asrwt>
<pdfrwt beam="1">  1        2 0.90093736E-01 0.12806465E+03</pdfrwt>
<pdfrwt beam="2">  1       -2 0.30993288E-02 0.12806465E+03</pdfrwt>
<totfact> 0.19659323E+04</totfact>
</mgrwt>
</event>
<event>
 8    1  0.2018715E-005  0.1417775E+03  0.7546771E-02  0.1226839E+00
         -1   -1    0    0    0  501 -0.00000000000E+00  0.00000000000E+00  0.13052680860E+03  0.13052680860E+03  0.00000000000E+00 0.  1.
          1   -1    0    0  501    0  0.00000000000E+00 -0.00000000000E+00 -0.11409595019E+03  0.11409595019E+03  0.00000000000E+00 0. -1.
         25    2    1    2    0    0  0.15391580768E+01  0.66895372679E+02  0.19227485402E+02  0.14307535992E+03  0.12499400996E+03 0.  0.
         23    2    1    2    0    0 -0.15391580768E+01 -0.66895372679E+02 -0.27966269875E+01  0.10154739888E+03  0.76332779347E+02 0.  0.
          5    1    3    3  502    0 -0.25135715308E+02  0.61768557239E+02  0.62663927769E+02  0.91629780590E+02  0.47000000000E+01 0. -1.
         -5    1    4    4    0  503  0.24496588832E+02 -0.37282600660E+02  0.26590635677E+02  0.52146208703E+02  0.47000000000E+01 0.  1.
          5    1    4    4  503    0 -0.26035746909E+02 -0.29612772019E+02 -0.29387262664E+02  0.49401190174E+02  0.47000000000E+01 0. -1.
         -5    1    3    3    0  502  0.26674873385E+02  0.51268154401E+01 -0.43436442367E+02  0.51445579326E+02  0.47000000000E+01 0. -1.
<mgrwt>
<rscale>  0 0.13041619E+03</rscale>
<asrwt>0</asrwt>
<pdfrwt beam="1">  1        1 0.17553223E-01 0.14177751E+03</pdfrwt>
<pdfrwt beam="2">  1       -1 0.20081047E-01 0.14177751E+03</pdfrwt>
<totfact> 0.57892397E+03</totfact>
</mgrwt>
</event>
<event>
 7    1  0.2018715E-005  0.1331335E+03  0.7546771E-02  0.1223871E+00
          2   -1    0    0  501    0  0.00000000000E+00  0.00000000000E+00  0.74597925135E+02  0.74597925135E+02  0.00000000000E+00 0. -1.
         -2   -1    0    0    0  501 -0.00000000000E+00 -0.00000000000E+00 -0.23420881113E+03  0.23420881113E+03  0.00000000000E+00 0.  1.
         25    2    1    2    0    0  0.34013607549E+02 -0.14814865066E+02 -0.91152337676E+02  0.15910332810E+03  0.12501485761E+03 0.  0.
          5    1    1    2  502    0  0.32924091684E+01  0.31606408973E+02  0.29392074034E+02  0.43540659875E+02  0.47000000000E+01 0. -1.
         -5    1    3    3    0  503 -0.19877559491E+02  0.36189643799E+02 -0.70672965848E+02  0.81985155921E+02  0.47000000000E+01 0. -1.
          5    1    3    3  503    0  0.53891167040E+02 -0.51004508865E+02 -0.20479371828E+02  0.77118172177E+02  0.47000000000E+01 0. -1.
         -5    1    1    2    0  502 -0.37306016717E+02 -0.16791543907E+02 -0.97850622353E+02  0.10616274829E+03  0.47000000000E+01 0.  1.
<mgrwt>
<rscale>  0 0.13244576E+03</rscale>
<asrwt>0</asrwt>
<pdfrwt beam="1">  1        2 0.11476604E-01 0.13313353E+03</pdfrwt>
<pdfrwt beam="2">  1       -2 0.36032124E-01 0.13313353E+03</pdfrwt>
<totfact> 0.37510313E+03</totfact>
</mgrwt>
</event>
<event>
 8    1  0.2018715E-005  0.2572730E+03  0.7546771E-02  0.1110104E+00
         -1   -1    0    0    0  501 -0.00000000000E+00  0.00000000000E+00  0.78872623362E+02  0.78872623362E+02  0.00000000000E+00 0.  1.
          1   -1    0    0  501    0  0.00000000000E+00 -0.00000000000E+00 -0.82437945914E+03  0.82437945914E+03  0.00000000000E+00 0. -1.
         25    2    1    2    0    0  0.21126390534E+03  0.77020043304E+02 -0.32317094521E+03  0.41307247272E+03  0.12499953247E+03 0.  0.
         23    2    1    2    0    0 -0.21126390534E+03 -0.77020043304E+02 -0.42233589056E+03  0.49017960978E+03  0.10650784296E+03 0.  0.
          5    1    3    3  502    0  0.28731837329E+02 -0.26420694464E+02 -0.96345351912E+02  0.10405810111E+03  0.47000000000E+01 0. -1.
         -5    1    3    3    0  502  0.18253206802E+03  0.10344073777E+03 -0.22682559330E+03  0.30901437161E+03  0.47000000000E+01 0. -1.
          5    1    4    4  503    0 -0.37332537028E+02 -0.55441109244E+01 -0.17695140966E+03  0.18099267075E+03  0.47000000000E+01 0. -1.
         -5    1    4    4    0  503 -0.17393136832E+03 -0.71475932380E+02 -0.24538448091E+03  0.30918693903E+03  0.47000000000E+01 0.  1.
<mgrwt>
<rscale>  0 0.25513170E+03</rscale>
<asrwt>0</asrwt>
<pdfrwt beam="1">  1        1 0.12682761E+00 0.25727302E+03</pdfrwt>
<pdfrwt beam="2">  1       -1 0.12134249E-01 0.25727302E+03</pdfrwt>
<totfact> 0.99168109E+02</totfact>
</mgrwt>
</event>
<event>
 8    1  0.2018715E-005  0.1306541E+03  0.7546771E-02  0.1247318E+00
          1   -1    0    0  501    0  0.00000000000E+00  0.00000000000E+00  0.49112364676E+02  0.49112364676E+02  0.00000000000E+00 0. -1.
         -1   -1    0    0    0  501 -0.00000000000E+00 -0.00000000000E+00 -0.25118717643E+03  0.25118717643E+03  0.00000000000E+00 0.  1.
         25    2    1    2    0    0  0.27573691459E+02  0.26184615212E+02 -0.86882371278E+02  0.15690457349E+03  0.12499822483E+03 0.  0.
         23    2    1    2    0    0 -0.27573691459E+02 -0.26184615212E+02 -0.11519244047E+03  0.14339496761E+03  0.76464866828E+02 0.  0.
          5    1    4    4  502    0 -0.41253395492E+02  0.43788211256E+01 -0.29074621291E+02  0.50876716849E+02  0.47000000000E+01 0. -1.
         -5    1    4    4    0  502  0.13679704033E+02 -0.30563436338E+02 -0.86117819180E+02  0.92518250759E+02  0.47000000000E+01 0.  1.
          5    1    3    3  503    0 -0.29127731865E+01  0.38103319243E+02 -0.11000820268E+03  0.11655145577E+03  0.47000000000E+01 0. -1.
         -5    1    3    3    0  503  0.30486464645E+02 -0.11918704031E+02  0.23125831399E+02  0.40353117727E+02  0.47000000000E+01 0. -1.
<mgrwt>
<rscale>  0 0.11747738E+03</rscale>
<asrwt>0</asrwt>
<pdfrwt beam="1">  1        1 0.75557485E-02 0.13065412E+03</pdfrwt>
<pdfrwt beam="2">  1       -1 0.38644181E-01 0.13065412E+03</pdfrwt>
<totfact> 0.58533818E+03</totfact>
</mgrwt>
</event>
<event>
 7    1  0.2018715E-005  0.1564584E+03  0.7546771E-02  0.1195614E+00
         -2   -1    0    0    0  501 -0.00000000000E+00  0.00000000000E+00  0.48107858832E+03  0.48107858832E+03  0.00000000000E+00 0.  1.
          2   -1    0    0  501    0  0.00000000000E+00 -0.00000000000E+00 -0.47869584459E+02  0.47869584459E+02  0.00000000000E+00 0. -1.
         25    2    1    2    0    0  0.52162419534E+02  0.56982122933E+02  0.21671977082E+03  0.26183991479E+03  0.12499920626E+03 0.  0.
          5    1    1    2  502    0  0.17676668029E+02  0.12095699371E+02 -0.69343269611E+01  0.22998813584E+02  0.47000000000E+01 0. -1.
         -5    1    1    2    0  502 -0.69839087563E+02 -0.69077822304E+02  0.22342356000E+03  0.24410944441E+03  0.47000000000E+01 0.  1.
          5    1    3    3  503    0 -0.26621592272E+02  0.54978091414E+02  0.57033615445E+02  0.83703183938E+02  0.47000000000E+01 0. -1.
         -5    1    3    3    0  503  0.78784011806E+02  0.20040315187E+01  0.15968615538E+03  0.17813673085E+03  0.47000000000E+01 0. -1.
<mgrwt>
<rscale>  0 0.15402368E+03</rscale>
<asrwt>0</asrwt>
<pdfrwt beam="1">  1        2 0.73645518E-02 0.15645841E+03</pdfrwt>
<pdfrwt beam="2">  1       -2 0.74012087E-01 0.15645841E+03</pdfrwt>
<totfact> 0.15580588E+03</totfact>
</mgrwt>
</event>
<event>
 8    1  0.2018715E-005  0.1267893E+03  0.7546771E-02  0.1260521E+00
          2   -1    0    0  501    0  0.00000000000E+00  0.00000000000E+00  0.10905486077E+03  0.10905486077E+03  0.00000000000E+00 0. -1.
         -2   -1    0    0    0  501 -0.00000000000E+00 -0.00000000000E+00 -0.99963042523E+02  0.99963042523E+02  0.00000000000E+00 0.  1.
         25    2    1    2    0    0  0.19576196143E+02  0.81144793484E+01 -0.25340999217E+02  0.12929691916E+03  0.12500581920E+03 0.  0.
         23    2    1    2    0    0 -0.19576196143E+02 -0.81144793484E+01  0.34432817462E+02  0.79720984128E+02  0.68707671780E+02 0.  0.
          5    1    3    3  502    0  0.72773470653E+02  0.81988631614E+01 -0.14783319322E+02  0.74858773155E+02  0.47000000000E+01 0.  1.
         -5    1    3    3    0  502 -0.53197274510E+02 -0.84383813005E-01 -0.10557679895E+02  0.54438146007E+02  0.47000000000E+01 0.  1.
          5    1    4    4  503    0 -0.37698720928E+02 -0.16669521900E+02  0.22873306275E+01  0.41549830341E+02  0.47000000000E+01 0. -1.
         -5    1    4    4    0  503  0.18122524785E+02  0.85550425515E+01  0.32145486834E+02  0.38171153787E+02  0.47000000000E+01 0.  1.
<mgrwt>
<rscale>  0 0.11002626E+03</rscale>
<asrwt>0</asrwt>
<pdfrwt beam="1">  1        2 0.16777671E-01 0.12678930E+03</pdfrwt>
<pdfrwt beam="2">  1       -2 0.15378930E-01 0.12678930E+03</pdfrwt>
<totfact> 0.10455748E+04</totfact>
</mgrwt>
</event>
<event>
 8    1  0.2018715E-005  0.1294179E+03  0.7546771E-02  0.1230946E+00
         -2   -1    0    0    0  501 -0.00000000000E+00  0.00000000000E+00  0.51606935262E+02  0.51606935262E+02  0.00000000000E+00 0.  1.
          2   -1    0    0  501    0  0.00000000000E+00 -0.00000000000E+00 -0.51790111160E+03  0.51790111160E+03  0.00000000000E+00 0. -1.
         25    2    1    2    0    0  0.30197010980E+02  0.14473205004E+02 -0.55506593660E+02  0.14081890831E+03  0.12501059900E+03 0.  0.
         23    2    1    2    0    0 -0.30197010980E+02 -0.14473205004E+02 -0.41078758267E+03  0.42868913855E+03  0.11792627484E+03 0.  0.
          5    1    4    4  502    0  0.13891558931E+02 -0.31650085145E+02 -0.34892371998E+03  0.35066302295E+03  0.47000000000E+01 0. -1.
         -5    1    4    4    0  502 -0.44088569911E+02  0.17176880141E+02 -0.61863862690E+02  0.78026115597E+02  0.47000000000E+01 0.  1.
          5    1    3    3  503    0  0.34047589023E+02  0.65746869439E+02 -0.48687594321E+02  0.88738159774E+02  0.47000000000E+01 0. -1.
         -5    1    3    3    0  503 -0.38505780431E+01 -0.51273664436E+02 -0.68189993393E+01  0.52080748534E+02  0.47000000000E+01 0. -1.
<mgrwt>
<rscale>  0 0.12767566E+03</rscale>
<asrwt>0</asrwt>
<pdfrwt beam="1">  1        2 0.79677097E-01 0.12941786E+03</pdfrwt>
<pdfrwt beam="2">  1       -2 0.79395282E-02 0.12941786E+03</pdfrwt>
<totfact> 0.54975164E+03</totfact>
</mgrwt>
</event>
<event>
 8    1  0.2018715E-005  0.1440595E+03  0.7546771E-02  0.1214088E+00
          2   -1    0    0  501    0  0.00000000000E+00  0.00000000000E+00  0.19973754201E+03  0.19973754201E+03  0.00000000000E+00 0. -1.
         -2   -1    0    0    0  501 -0.00000000000E+00 -0.00000000000E+00 -0.97737622066E+02  0.97737622066E+02  0.00000000000E+00 0.  1.
         25    2    1    2    0    0  0.63313646738E+02 -0.33479521183E+02  0.16864782032E+02  0.14504329065E+03  0.12499455623E+03 0.  0.
         23    2    1    2    0    0 -0.63313646738E+02  0.33479521183E+02  0.85135137912E+02  0.15243187343E+03  0.10420167046E+03 0.  0.
          5    1    4    4  502    0 -0.50239394659E+02 -0.10778083265E+02  0.92057407228E+02  0.10553113323E+03  0.47000000000E+01 0. -1.
         -5    1    3    3    0  503  0.34862525493E+02 -0.77133569521E+02  0.31943682883E+02  0.90595099795E+02  0.47000000000E+01 0. -1.
          5    1    3    3  503    0  0.28451121245E+02  0.43654048338E+02 -0.15078900851E+02  0.54448190854E+02  0.47000000000E+01 0. -1.
         -5    1    4    4    0  502 -0.13074252079E+02  0.44257604448E+02 -0.69222693153E+01  0.46900740201E+02  0.47000000000E+01 0.  1.
<mgrwt>
<rscale>  0 0.13943728E+03</rscale>
<asrwt>0</asrwt>
<pdfrwt beam="1">  1        2 0.30728853E-01 0.14405949E+03</pdfrwt>
<pdfrwt beam="2">  1       -2 0.15036557E-01 0.14405949E+03</pdfrwt>
<totfact> 0.55751404E+03</totfact>
</mgrwt>
</event>
<event>
 8    1  0.7181562E-005  0.1959897E+03  0.7546771E-02  0.1155760E+00
         -2   -1    0    0    0  501 -0.00000000000E+00  0.00000000000E+00  0.61261160149E+02  0.61261160149E+02  0.00000000000E+00 0. -1.
          2   -1    0    0  501    0  0.00000000000E+00 -0.00000000000E+00 -0.59212729998E+03  0.59212729998E+03  0.00000000000E+00 0.  1.
         25    2    1    2    0    0 -0.12836362331E+03  0.79438551466E+02 -0.29066024869E+03  0.35056430920E+03  0.12499700583E+03 0.  0.
         23    2    1    2    0    0  0.12836362331E+03 -0.79438551466E+02 -0.24020589114E+03  0.30282415093E+03  0.10590511319E+03 0.  0.
          5    1    3    3  502    0 -0.67188477867E+02 -0.18567446920E+02 -0.16824506932E+03  0.18217446307E+03  0.47000000000E+01 0. -1.
         -5    1    3    3    0  502 -0.61175145442E+02  0.98005998386E+02 -0.12241517937E+03  0.16838984613E+03  0.47000000000E+01 0. -1.
          5    1    4    4  503    0  0.54998002103E+02 -0.44353116214E+02 -0.29116729626E+02  0.76562739615E+02  0.47000000000E+01 0. -1.
         -5    1    4    4    0  503  0.73365621207E+02 -0.35085435252E+02 -0.21108916151E+03  0.22626141131E+03  0.47000000000E+01 0.  1.
<mgrwt>
<rscale>  0 0.19302587E+03</rscale>
<asrwt>0</asrwt>
<pdfrwt beam="1">  1        2 0.91096503E-01 0.19598968E+03</pdfrwt>
<pdfrwt beam="2">  1       -2 0.94247944E-02 0.19598968E+03</pdfrwt>
<totfact> 0.36858866E+03</totfact>
</mgrwt>
</event>
<event>
 8    1  0.2018715E-005  0.1254921E+03  0.7546771E-02  0.1240806E+00
         -1   -1    0    0    0  501 -0.00000000000E+00  0.00000000000E+00  0.41304915141E+03  0.41304915141E+03  0.00000000000E+00 0.  1.
          1   -1    0    0  501    0  0.00000000000E+00 -0.00000000000E+00 -0.41798437391E+02  0.41798437391E+02  0.00000000000E+00 0. -1.
         25    2    1    2    0    0  0.10968222609E+02  0.26271097815E+01  0.94566789451E+02  0.15713415397E+03  0.12498424327E+03 0.  0.
         23    2    1    2    0    0 -0.10968222609E+02 -0.26271097815E+01  0.27668392456E+03  0.29771343482E+03  0.10932562165E+03 0.  0.
          5    1    3    3  502    0  0.23866777763E+02 -0.54542154336E+02  0.21781647133E+02  0.63568858982E+02  0.47000000000E+01 0.  1.
         -5    1    3    3    0  502 -0.12898555154E+02  0.57169264118E+02  0.72785142317E+02  0.93565294992E+02  0.47000000000E+01 0.  1.
          5    1    4    4  503    0 -0.32627999641E+02  0.30256088205E+02  0.48016554093E+02  0.65633045800E+02  0.47000000000E+01 0. -1.
         -5    1    4    4    0  503  0.21659777032E+02 -0.32883197986E+02  0.22866737047E+03  0.23208038902E+03  0.47000000000E+01 0.  1.
<mgrwt>
<rscale>  0 0.12139966E+03</rscale>
<asrwt>0</asrwt>
<pdfrwt beam="1">  1        1 0.64305291E-02 0.12549209E+03</pdfrwt>
<pdfrwt beam="2">  1       -1 0.63546021E-01 0.12549209E+03</pdfrwt>
<totfact> 0.29288838E+03</totfact>
</mgrwt>
</event>
<event>
 7    1  0.2018715E-005  0.1676573E+03  0.7546771E-02  0.1195233E+00
         -1   -1    0    0    0  501 -0.00000000000E+00  0.00000000000E+00  0.31787811616E+02  0.31787811616E+02  0.00000000000E+00 0.  1.
          1   -1    0    0  501    0  0.00000000000E+00 -0.00000000000E+00 -0.65969594447E+03  0.65969594447E+03  0.00000000000E+00 0. -1.
         25    2    1    2    0    0  0.92621902532E+02  0.62457995304E+02 -0.32972334582E+03  0.36990059882E+03  0.12501659979E+03 0.  0.
          5    1    3    3  502    0  0.51013755877E+02  0.89295042451E+02 -0.14005748699E+03  0.17382231605E+03  0.47000000000E+01 0. -1.
         -5    1    1    2    0  503 -0.27082255813E+02 -0.29135257042E+02 -0.59025726941E+02  0.71333289730E+02  0.47000000000E+01 0.  1.
          5    1    1    2  503    0 -0.65539646719E+02 -0.33322738262E+02 -0.23915906009E+03  0.25024986753E+03  0.47000000000E+01 0. -1.
         -5    1    3    3    0  502  0.41608146655E+02 -0.26837047147E+02 -0.18966585883E+03  0.19607828277E+03  0.47000000000E+01 0. -1.
<mgrwt>
<rscale>  0 0.15434540E+03</rscale>
<asrwt>0</asrwt>
<pdfrwt beam="1">  1        1 0.10149167E+00 0.16765729E+03</pdfrwt>
<pdfrwt beam="2">  1       -1 0.48904330E-02 0.16765729E+03</pdfrwt>
<totfact> 0.54632571E+03</totfact>
</mgrwt>
</event>
<event>
 8    1  0.2018715E-005  0.1334748E+03  0.7546771E-02  0.1243647E+00
         -1   -1    0    0    0  501 -0.00000000000E+00  0.00000000000E+00  0.26363282040E+03  0.26363282040E+03  0.00000000000E+00 0.  1.
          1   -1    0    0  501    0  0.00000000000E+00 -0.00000000000E+00 -0.51137022161E+02  0.51137022161E+02  0.00000000000E+00 0. -1.
         25    2    1    2    0    0 -0.40396115635E+02  0.23660818766E+02  0.76809905935E+02  0.15399768656E+03  0.12499538117E+03 0.  0.
         23    2    1    2    0    0  0.40396115635E+02 -0.23660818766E+02  0.13568589230E+03  0.16077215600E+03  0.72424749025E+02 0.  0.
          5    1    3    3  502    0 -0.66725544186E+02  0.58087154202E+02  0.61274548052E+02  0.10771757502E+03  0.47000000000E+01 0.  1.
         -5    1    3    3    0  502  0.26329428551E+02 -0.34426335436E+02  0.15535357884E+02  0.46280111538E+02  0.47000000000E+01 0.  1.
          5    1    4    4  503    0  0.22812393274E+02 -0.48556228355E+02  0.71023052590E+02  0.89131793420E+02  0.47000000000E+01 0. -1.
         -5    1    4    4    0  503  0.17583722360E+02  0.24895409590E+02  0.64662839715E+02  0.71640362580E+02  0.47000000000E+01 0.  1.
<mgrwt>
<rscale>  0 0.11966700E+03</rscale>
<asrwt>0</asrwt>
<pdfrwt beam="1">  1        1 0.78672344E-02 0.13347481E+03</pdfrwt>
<pdfrwt beam="2">  1       -1 0.40558894E-01 0.13347481E+03</pdfrwt>
<totfact> 0.51025740E+03</totfact>
</mgrwt>
</event>
<event>
 8    1  0.2018715E-005  0.1288573E+03  0.7546771E-02  0.1253029E+00
          1   -1    0    0  501    0  0.00000000000E+00  0.00000000000E+00  0.40755256679E+02  0.40755256679E+02  0.00000000000E+00 0. -1.
         -1   -1    0    0    0  501 -0.00000000000E+00 -0.00000000000E+00 -0.28011463720E+03  0.28011463720E+03  0.00000000000E+00 0.  1.
         25    2    1    2    0    0 -0.29067815953E+02 -0.11609920619E+02 -0.11175825947E+03  0.17056996833E+03  0.12499790941E+03 0.  0.
         23    2    1    2    0    0  0.29067815953E+02  0.11609920619E+02 -0.12760112105E+03  0.15029992554E+03  0.72995159728E+02 0.  0.
          5    1    4    4  502    0  0.47899484812E+02  0.25707092655E+02 -0.77856888311E+02  0.95073657316E+02  0.47000000000E+01 0. -1.
         -5    1    3    3    0  503 -0.23456210209E+01 -0.66011050189E+02 -0.43828696144E+02  0.79410360097E+02  0.47000000000E+01 0. -1.
          5    1    3    3  503    0 -0.26722194933E+02  0.54401129570E+02 -0.67929563322E+02  0.91159608236E+02  0.47000000000E+01 0. -1.
         -5    1    4    4    0  502 -0.18831668858E+02 -0.14097172035E+02 -0.49744232739E+02  0.55226268226E+02  0.47000000000E+01 0.  1.
<mgrwt>
<rscale>  0 0.11417432E+03</rscale>
<asrwt>0</asrwt>
<pdfrwt beam="1">  1        1 0.62700393E-02 0.12885731E+03</pdfrwt>
<pdfrwt beam="2">  1       -1 0.43094561E-01 0.12885731E+03</pdfrwt>
<totfact> 0.62089261E+03</totfact>
</mgrwt>
</event>
<event>
 8    1  0.2018715E-005  0.1423460E+03  0.7546771E-02  0.1215844E+00
         -1   -1    0    0    0  501 -0.00000000000E+00  0.00000000000E+00  0.18556565478E+03  0.18556565478E+03  0.00000000000E+00 0.  1.
          1   -1    0    0  501    0  0.00000000000E+00 -0.00000000000E+00 -0.20345767435E+03  0.20345767435E+03  0.00000000000E+00 0. -1.
         25    2    1    2    0    0 -0.47906716008E+02  0.48386688673E+02  0.13123649861E+03  0.19361149294E+03  0.12500426614E+03 0.  0.
         23    2    1    2    0    0  0.47906716008E+02 -0.48386688673E+02 -0.14912851818E+03  0.19541183619E+03  0.10634916883E+03 0.  0.
          5    1    4    4  502    0  0.29296245062E+02 -0.35798064343E+02 -0.16238079927E+03  0.16890643966E+03  0.47000000000E+01 0. -1.
         -5    1    4    4    0  502  0.18610470946E+02 -0.12588624330E+02  0.13252281092E+02  0.26505396535E+02  0.47000000000E+01 0.  1.
          5    1    3    3  503    0 -0.42687603981E+02 -0.20305131612E+02  0.11241860935E+03  0.12204328589E+03  0.47000000000E+01 0. -1.
         -5    1    3    3    0  503 -0.52191120269E+01  0.68691820285E+02  0.18817889263E+02  0.71568207052E+02  0.47000000000E+01 0. -1.
<mgrwt>
<rscale>  0 0.13814720E+03</rscale>
<asrwt>0</asrwt>
<pdfrwt beam="1">  1        1 0.31301181E-01 0.14234603E+03</pdfrwt>
<pdfrwt beam="2">  1       -1 0.28548562E-01 0.14234603E+03</pdfrwt>
<totfact> 0.15685412E+03</totfact>
</mgrwt>
</event>
<event>
 8    1  0.2018715E-005  0.2026248E+03  0.7546771E-02  0.1154898E+00
         -4   -1    0    0    0  501 -0.00000000000E+00  0.00000000000E+00  0.86349007933E+02  0.86349007933E+02  0.00000000000E+00 0. -1.
          4   -1    0    0  501    0  0.00000000000E+00 -0.00000000000E+00 -0.41749826620E+03  0.41749826620E+03  0.00000000000E+00 0.  1.
         25    2    1    2    0    0 -0.12159363384E+03 -0.10318115201E+03 -0.13202140871E+03  0.24183978393E+03  0.12500186724E+03 0.  0.
         23    2    1    2    0    0  0.12159363384E+03  0.10318115201E+03 -0.19912784955E+03  0.26200749020E+03  0.59704794869E+02 0.  0.
          5    1    3    3  502    0 -0.55095741319E+02 -0.67849926624E+01  0.11149142634E+02  0.56815228754E+02  0.47000000000E+01 0.  1.
         -5    1    4    4    0  503  0.11298922718E+02  0.19108870345E+02 -0.65677440216E+02  0.69486910521E+02  0.47000000000E+01 0.  1.
          5    1    4    4  503    0  0.11029471112E+03  0.84072281666E+02 -0.13345040934E+03  0.19252057967E+03  0.47000000000E+01 0. -1.
         -5    1    3    3    0  502 -0.66497892522E+02 -0.96396159348E+02 -0.14317055134E+03  0.18502455518E+03  0.47000000000E+01 0.  1.
<mgrwt>
<rscale>  0 0.19400451E+03</rscale>
<asrwt>0</asrwt>
<pdfrwt beam="1">  1        4 0.64230503E-01 0.20262485E+03</pdfrwt>
<pdfrwt beam="2">  1       -4 0.13284463E-01 0.20262485E+03</pdfrwt>
<totfact> 0.19056754E+02</totfact>
</mgrwt>
</event>
<event>
 8    1  0.2018715E-005  0.1975198E+03  0.7546771E-02  0.1154537E+00
          2   -1    0    0  501    0  0.00000000000E+00  0.00000000000E+00  0.10100891307E+04  0.10100891307E+04  0.00000000000E+00 0. -1.
         -2   -1    0    0    0  501 -0.00000000000E+00 -0.00000000000E+00 -0.37495610962E+02  0.37495610962E+02  0.00000000000E+00 0.  1.
         25    2    1    2    0    0 -0.60320840623E+02 -0.14053747427E+03  0.40732445216E+03  0.45268895058E+03  0.12499876466E+03 0.  0.
         23    2    1    2    0    0  0.60320840623E+02  0.14053747427E+03  0.56526906758E+03  0.59489579108E+03  0.10479741405E+03 0.  0.
          5    1    4    4  502    0  0.34558433602E+02  0.14076296266E+02  0.27016897918E+03  0.27277425605E+03  0.47000000000E+01 0. -1.
         -5    1    4    4    0  502  0.25762407020E+02  0.12646117801E+03  0.29510008840E+03  0.32212153503E+03  0.47000000000E+01 0.  1.
          5    1    3    3  503    0 -0.89251335762E+02 -0.65881837779E+02  0.29038373593E+03  0.31088747414E+03  0.47000000000E+01 0.  1.
         -5    1    3    3    0  503  0.28930495139E+02 -0.74655636495E+02  0.11694071622E+03  0.14180147644E+03  0.47000000000E+01 0.  1.
<mgrwt>
<rscale>  0 0.19441663E+03</rscale>
<asrwt>0</asrwt>
<pdfrwt beam="1">  1        2 0.15539831E+00 0.19751981E+03</pdfrwt>
<pdfrwt beam="2">  1       -2 0.57685563E-02 0.19751981E+03</pdfrwt>
<totfact> 0.40325111E+03</totfact>
</mgrwt>
</event>
<event>
 8    1  0.2018715E-005  0.1334296E+03  0.7546771E-02  0.1240806E+00
         -2   -1    0    0    0  501 -0.00000000000E+00  0.00000000000E+00  0.31185893606E+02  0.31185893606E+02  0.00000000000E+00 0.  1.
          2   -1    0    0  501    0  0.00000000000E+00 -0.00000000000E+00 -0.40608575907E+03  0.40608575907E+03  0.00000000000E+00 0. -1.
         25    2    1    2    0    0 -0.36732076395E+02 -0.28865650101E+02 -0.21319679990E+03  0.25150812166E+03  0.12498395329E+03 0.  0.
         23    2    1    2    0    0  0.36732076395E+02  0.28865650101E+02 -0.16170306557E+03  0.18576353102E+03  0.78598580465E+02 0.  0.
          5    1    3    3  502    0 -0.78163425421E+02 -0.37867660652E+02 -0.11292664762E+03  0.14254121698E+03  0.47000000000E+01 0. -1.
         -5    1    3    3    0  502  0.41431349026E+02  0.90020105503E+01 -0.10027015228E+03  0.10896690468E+03  0.47000000000E+01 0. -1.
          5    1    4    4  503    0  0.41389764297E+01  0.45168941704E+02 -0.12808436992E+03  0.13595977434E+03  0.47000000000E+01 0. -1.
         -5    1    4    4    0  503  0.32593099965E+02 -0.16303291602E+02 -0.33618695645E+02  0.49803756678E+02  0.47000000000E+01 0.  1.
<mgrwt>
<rscale>  0 0.12139933E+03</rscale>
<asrwt>0</asrwt>
<pdfrwt beam="1">  1        2 0.62474729E-01 0.13342961E+03</pdfrwt>
<pdfrwt beam="2">  1       -2 0.47978300E-02 0.13342961E+03</pdfrwt>
<totfact> 0.15406491E+04</totfact>
</mgrwt>
</event>
<event>
 8    1  0.2018715E-005  0.1416783E+03  0.7546771E-02  0.1215451E+00
         -2   -1    0    0    0  501 -0.00000000000E+00  0.00000000000E+00  0.42939396365E+02  0.42939396365E+02  0.00000000000E+00 0. -1.
          2   -1    0    0  501    0  0.00000000000E+00 -0.00000000000E+00 -0.52745717379E+03  0.52745717379E+03  0.00000000000E+00 0.  1.
         25    2    1    2    0    0 -0.66654453339E+02 -0.29550599008E+01 -0.12699316207E+03  0.19026299972E+03  0.12498478836E+03 0.  0.
         23    2    1    2    0    0  0.66654453339E+02  0.29550599008E+01 -0.35752461536E+03  0.38013357044E+03  0.11057184207E+03 0.  0.
          5    1    3    3  502    0 -0.45217231745E+02  0.58248273424E+02 -0.86078043184E+02  0.11344152204E+03  0.47000000000E+01 0. -1.
         -5    1    3    3    0  502 -0.21437221594E+02 -0.61203333324E+02 -0.40915118884E+02  0.76821477680E+02  0.47000000000E+01 0. -1.
          5    1    4    4  503    0  0.74676193186E+02  0.24978128021E+02 -0.13521767085E+03  0.15654503895E+03  0.47000000000E+01 0. -1.
         -5    1    4    4    0  503 -0.80217398469E+01 -0.22023068120E+02 -0.22230694451E+03  0.22358853150E+03  0.47000000000E+01 0.  1.
<mgrwt>
<rscale>  0 0.13843455E+03</rscale>
<asrwt>0</asrwt>
<pdfrwt beam="1">  1        2 0.81147260E-01 0.14167832E+03</pdfrwt>
<pdfrwt beam="2">  1       -2 0.66060607E-02 0.14167832E+03</pdfrwt>
<totfact> 0.71792446E+03</totfact>
</mgrwt>
</event>
<event>
 8    1  0.2018715E-005  0.1273842E+03  0.7546771E-02  0.1239219E+00
         -1   -1    0    0    0  501 -0.00000000000E+00  0.00000000000E+00  0.15543576975E+02  0.15543576975E+02  0.00000000000E+00 0.  1.
          1   -1    0    0  501    0  0.00000000000E+00 -0.00000000000E+00 -0.99171292272E+03  0.99171292272E+03  0.00000000000E+00 0. -1.
         25    2    1    2    0    0  0.18224936359E+02  0.16432915876E+02 -0.68006007875E+03  0.69188758930E+03  0.12499814590E+03 0.  0.
         23    2    1    2    0    0 -0.18224936359E+02 -0.16432915876E+02 -0.29610926700E+03  0.31536891040E+03  0.10571027679E+03 0.  0.
          5    1    4    4  502    0 -0.11362651316E+02 -0.52195929573E+02 -0.25355504881E+03  0.25916361180E+03  0.47000000000E+01 0. -1.
         -5    1    3    3    0  503  0.41335643056E+02  0.61732966511E+02 -0.34343895502E+03  0.35141428595E+03  0.47000000000E+01 0. -1.
          5    1    3    3  503    0 -0.23110706697E+02 -0.45300050635E+02 -0.33662112373E+03  0.34047330335E+03  0.47000000000E+01 0. -1.
         -5    1    4    4    0  502 -0.68622850431E+01  0.35763013697E+02 -0.42554218190E+02  0.56205298598E+02  0.47000000000E+01 0.  1.
<mgrwt>
<rscale>  0 0.12238135E+03</rscale>
<asrwt>0</asrwt>
<pdfrwt beam="1">  1        1 0.15257122E+00 0.12738417E+03</pdfrwt>
<pdfrwt beam="2">  1       -1 0.23913195E-02 0.12738417E+03</pdfrwt>
<totfact> 0.82479003E+03</totfact>
</mgrwt>
</event>
<event>
 8    1  0.2018715E-005  0.1264667E+03  0.7546771E-02  0.1266861E+00
          2   -1    0    0  501    0  0.00000000000E+00  0.00000000000E+00  0.22422864200E+03  0.22422864200E+03  0.00000000000E+00 0. -1.
         -2   -1    0    0    0  501 -0.00000000000E+00 -0.00000000000E+00 -0.45436249236E+02  0.45436249236E+02  0.00000000000E+00 0.  1.
         25    2    1    2    0    0 -0.14549992828E+02  0.12520023786E+02  0.15795633269E+03  0.20234633298E+03  0.12500152857E+03 0.  0.
         23    2    1    2    0    0  0.14549992828E+02 -0.12520023786E+02  0.20836060075E+02  0.67318558261E+02  0.61067123725E+02 0.  0.
          5    1    3    3  502    0  0.64466758131E+01  0.55953415278E+02  0.26861551237E+02  0.62577769577E+02  0.47000000000E+01 0. -1.
         -5    1    4    4    0  503 -0.82582584787E+00 -0.28439752567E+02 -0.86916496956E+01  0.30118703306E+02  0.47000000000E+01 0.  1.
          5    1    4    4  503    0  0.15375818676E+02  0.15919728781E+02  0.29527709771E+02  0.37199854956E+02  0.47000000000E+01 0. -1.
         -5    1    3    3    0  502 -0.20996668641E+02 -0.43433391493E+02  0.13109478146E+03  0.13976856340E+03  0.47000000000E+01 0. -1.
<mgrwt>
<rscale>  0 0.10667166E+03</rscale>
<asrwt>0</asrwt>
<pdfrwt beam="1">  1        2 0.34496713E-01 0.12646674E+03</pdfrwt>
<pdfrwt beam="2">  1       -2 0.69901924E-02 0.12646674E+03</pdfrwt>
<totfact> 0.16308987E+04</totfact>
</mgrwt>
</event>
<event>
 8    1  0.2018715E-005  0.1966044E+03  0.7546771E-02  0.1153012E+00
         -2   -1    0    0    0  501 -0.00000000000E+00  0.00000000000E+00  0.27173006580E+03  0.27173006580E+03  0.00000000000E+00 0.  1.
          2   -1    0    0  501    0  0.00000000000E+00 -0.00000000000E+00 -0.16452909232E+03  0.16452909232E+03  0.00000000000E+00 0. -1.
         25    2    1    2    0    0 -0.10979437110E+03  0.10475304949E+03  0.13629962958E+03  0.23922978818E+03  0.12500118890E+03 0.  0.
         23    2    1    2    0    0  0.10979437110E+03 -0.10475304949E+03 -0.29098656100E+02  0.19702936993E+03  0.12225316162E+03 0.  0.
          5    1    4    4  502    0  0.88651400714E+02 -0.11495607847E+03  0.15844842031E+02  0.14610653594E+03  0.47000000000E+01 0. -1.
         -5    1    4    4    0  502  0.21142970389E+02  0.10203028982E+02 -0.44943498131E+02  0.50922833990E+02  0.47000000000E+01 0.  1.
          5    1    3    3  503    0 -0.36533749846E+02 -0.13330184705E+02 -0.67390810524E+01  0.39748130968E+02  0.47000000000E+01 0.  1.
         -5    1    3    3    0  503 -0.73260621257E+02  0.11808323419E+03  0.14303871064E+03  0.19948165721E+03  0.47000000000E+01 0.  1.
<mgrwt>
<rscale>  0 0.19616907E+03</rscale>
<asrwt>0</asrwt>
<pdfrwt beam="1">  1        2 0.25312168E-01 0.19660443E+03</pdfrwt>
<pdfrwt beam="2">  1       -2 0.41804625E-01 0.19660443E+03</pdfrwt>
<totfact> 0.11519716E+03</totfact>
</mgrwt>
</event>
<event>
 8    1  0.2660768E-005  0.2472328E+03  0.7546771E-02  0.1116267E+00
          2   -1    0    0  501    0  0.00000000000E+00  0.00000000000E+00  0.58843032666E+03  0.58843032666E+03  0.00000000000E+00 0. -1.
         -2   -1    0    0    0  501 -0.00000000000E+00 -0.00000000000E+00 -0.12603103587E+03  0.12603103587E+03  0.00000000000E+00 0.  1.
         25    2    1    2    0    0 -0.19294215355E+03 -0.90952611089E+02  0.39381743685E+03  0.46499054499E+03  0.12499992513E+03 0.  0.
         23    2    1    2    0    0  0.19294215355E+03  0.90952611089E+02  0.68581853941E+02  0.24947081754E+03  0.10969578859E+03 0.  0.
          5    1    3    3  502    0 -0.15915186491E+02  0.28947568676E+02  0.52192677737E+02  0.61946916814E+02  0.47000000000E+01 0.  1.
         -5    1    3    3    0  502 -0.17702696706E+03 -0.11990017977E+03  0.34162475911E+03  0.40304362817E+03  0.47000000000E+01 0.  1.
          5    1    4    4  503    0  0.91379490543E+02  0.18483311746E+02 -0.21151414660E+02  0.95714766087E+02  0.47000000000E+01 0. -1.
         -5    1    4    4    0  503  0.10156266301E+03  0.72469299343E+02  0.89733268601E+02  0.15375605145E+03  0.47000000000E+01 0.  1.
<mgrwt>
<rscale>  0 0.24536826E+03</rscale>
<asrwt>0</asrwt>
<pdfrwt beam="1">  1        2 0.90527741E-01 0.24723275E+03</pdfrwt>
<pdfrwt beam="2">  1       -2 0.19389390E-01 0.24723275E+03</pdfrwt>
<totfact> 0.11454230E+03</totfact>
</mgrwt>
</event>
<event>
 8    1  0.2018715E-005  0.1873506E+03  0.7546771E-02  0.1163516E+00
         -2   -1    0    0    0  501 -0.00000000000E+00  0.00000000000E+00  0.77841663063E+02  0.77841663063E+02  0.00000000000E+00 0.  1.
          2   -1    0    0  501    0  0.00000000000E+00 -0.00000000000E+00 -0.50151612489E+03  0.50151612489E+03  0.00000000000E+00 0. -1.
         25    2    1    2    0    0 -0.65197435940E+01 -0.13940042005E+03 -0.33079279464E+03  0.38016329988E+03  0.12500110967E+03 0.  0.
         23    2    1    2    0    0  0.65197435940E+01  0.13940042005E+03 -0.92881667186E+02  0.19919448808E+03  0.10759393949E+03 0.  0.
          5    1    4    4  502    0 -0.46885379695E+02  0.79777985039E+02 -0.69025669640E+02  0.11553959839E+03  0.47000000000E+01 0. -1.
         -5    1    3    3    0  503 -0.40161725628E+02 -0.16975627369E+02 -0.16817522439E+03  0.17379911458E+03  0.47000000000E+01 0.  1.
          5    1    3    3  503    0  0.33641982034E+02 -0.12242479268E+03 -0.16261757026E+03  0.20636418530E+03  0.47000000000E+01 0.  1.
         -5    1    4    4    0  502  0.53405123289E+02  0.59622435013E+02 -0.23855997546E+02  0.83654889691E+02  0.47000000000E+01 0.  1.
<mgrwt>
<rscale>  0 0.18450222E+03</rscale>
<asrwt>0</asrwt>
<pdfrwt beam="1">  1        2 0.77156329E-01 0.18735064E+03</pdfrwt>
<pdfrwt beam="2">  1       -2 0.11975640E-01 0.18735064E+03</pdfrwt>
<totfact> 0.30318726E+03</totfact>
</mgrwt>
</event>
<event>
 8    1  0.2018715E-005  0.1373453E+03  0.7546771E-02  0.1221700E+00
         -4   -1    0    0    0  501 -0.00000000000E+00  0.00000000000E+00  0.44662677266E+03  0.44662677266E+03  0.00000000000E+00 0.  1.
          4   -1    0    0  501    0  0.00000000000E+00 -0.00000000000E+00 -0.38982920673E+02  0.38982920673E+02  0.00000000000E+00 0. -1.
         25    2    1    2    0    0  0.56310066634E+02 -0.82461280950E+01  0.24556060084E+03  0.28136052130E+03  0.12499964812E+03 0.  0.
         23    2    1    2    0    0 -0.56310066634E+02  0.82461280950E+01  0.16208325115E+03  0.20424917203E+03  0.11048946438E+03 0.  0.
          5    1    4    4  502    0 -0.60841556718E+02 -0.41601453055E+02  0.10144107128E+03  0.12547811309E+03  0.47000000000E+01 0. -1.
         -5    1    4    4    0  502  0.45314900847E+01  0.49847581150E+02  0.60642179862E+02  0.78771058945E+02  0.47000000000E+01 0.  1.
          5    1    3    3  503    0 -0.17121604497E+02 -0.39519496191E+02  0.33614653207E+02  0.54835889980E+02  0.47000000000E+01 0.  1.
         -5    1    3    3    0  503  0.73431671131E+02  0.31273368096E+02  0.21194594763E+03  0.22652463132E+03  0.47000000000E+01 0.  1.
<mgrwt>
<rscale>  0 0.13395687E+03</rscale>
<asrwt>0</asrwt>
<pdfrwt beam="1">  1        4 0.59973727E-02 0.13734531E+03</pdfrwt>
<pdfrwt beam="2">  1       -4 0.68711808E-01 0.13734531E+03</pdfrwt>
<totfact> 0.58638835E+02</totfact>
</mgrwt>
</event>
<event>
 8    1  0.2018715E-005  0.1303085E+03  0.7546771E-02  0.1246807E+00
          1   -1    0    0  501    0  0.00000000000E+00  0.00000000000E+00  0.42023016794E+03  0.42023016794E+03  0.00000000000E+00 0. -1.
         -1   -1    0    0    0  501 -0.00000000000E+00 -0.00000000000E+00 -0.40106058665E+02  0.40106058665E+02  0.00000000000E+00 0.  1.
         25    2    1    2    0    0 -0.36239210538E+02  0.59948607917E+01  0.92366701583E+02  0.15972451711E+03  0.12502437790E+03 0.  0.
         23    2    1    2    0    0  0.36239210538E+02 -0.59948607917E+01  0.28775740770E+03  0.30061170950E+03  0.78828011938E+02 0.  0.
          5    1    4    4  502    0 -0.79840347985E+01  0.24574378547E+02  0.15658470928E+03  0.15877186801E+03  0.47000000000E+01 0. -1.
         -5    1    4    4    0  502  0.44223245336E+02 -0.30569239338E+02  0.13117269842E+03  0.14183984148E+03  0.47000000000E+01 0.  1.
          5    1    3    3  503    0  0.11665567633E+02  0.54105318997E+02  0.67149513385E+02  0.87147106434E+02  0.47000000000E+01 0.  1.
         -5    1    3    3    0  503 -0.47904778170E+02 -0.48110458206E+02  0.25217188198E+02  0.72577410679E+02  0.47000000000E+01 0.  1.
<mgrwt>
<rscale>  0 0.11777875E+03</rscale>
<asrwt>0</asrwt>
<pdfrwt beam="1">  1        1 0.64650792E-01 0.13030853E+03</pdfrwt>
<pdfrwt beam="2">  1       -1 0.61701632E-02 0.13030853E+03</pdfrwt>
<totfact> 0.69393449E+03</totfact>
</mgrwt>
</event>
<event>
 8    1  0.2018715E-005  0.1371023E+03  0.7546771E-02  0.1236649E+00
         -2   -1    0    0    0  501 -0.00000000000E+00  0.00000000000E+00  0.29252551652E+03  0.29252551652E+03  0.00000000000E+00 0.  1.
          2   -1    0    0  501    0  0.00000000000E+00 -0.00000000000E+00 -0.44790384649E+02  0.44790384649E+02  0.00000000000E+00 0. -1.
         25    2    1    2    0    0  0.34051380266E+02 -0.44873672261E+02  0.14338100164E+03  0.19838133999E+03  0.12499560578E+03 0.  0.
         23    2    1    2    0    0 -0.34051380266E+02  0.44873672261E+02  0.10435413023E+03  0.13893456118E+03  0.72387048804E+02 0.  0.
          5    1    4    4  502    0 -0.33097607282E+02  0.18463100544E+02  0.81413315547E+01  0.39047521932E+02  0.47000000000E+01 0. -1.
         -5    1    3    3    0  503  0.35461888903E+02 -0.86969738637E+02  0.10772114807E+03  0.14299376470E+03  0.47000000000E+01 0.  1.
          5    1    3    3  503    0 -0.14105086374E+01  0.42096066376E+02  0.35659853575E+02  0.55387575285E+02  0.47000000000E+01 0.  1.
         -5    1    4    4    0  502 -0.95377298372E+00  0.26410571717E+02  0.96212798675E+02  0.99887039250E+02  0.47000000000E+01 0.  1.
<mgrwt>
<rscale>  0 0.12399456E+03</rscale>
<asrwt>0</asrwt>
<pdfrwt beam="1">  1        2 0.68908286E-02 0.13710231E+03</pdfrwt>
<pdfrwt beam="2">  1       -2 0.45003924E-01 0.13710231E+03</pdfrwt>
<totfact> 0.46454405E+03</totfact>
</mgrwt>
</event>
<event>
 8    1  0.2018715E-005  0.1616730E+03  0.7546771E-02  0.1188428E+00
          4   -1    0    0  501    0  0.00000000000E+00  0.00000000000E+00  0.27650854724E+02  0.27650854724E+02  0.00000000000E+00 0. -1.
         -4   -1    0    0    0  501 -0.00000000000E+00 -0.00000000000E+00 -0.94576410127E+03  0.94576410127E+03  0.00000000000E+00 0.  1.
         25    2    1    2    0    0 -0.59012732018E+02  0.83851775818E+02 -0.55824336610E+03  0.58118312625E+03  0.12499819039E+03 0.  0.
         23    2    1    2    0    0  0.59012732018E+02 -0.83851775818E+02 -0.35986988045E+03  0.39223182974E+03  0.11758339407E+03 0.  0.
          5    1    4    4  502    0  0.55755773973E+02  0.68789530643E+01 -0.79267224051E+02  0.97269775035E+02  0.47000000000E+01 0. -1.
         -5    1    4    4    0  502  0.32569580449E+01 -0.90730728882E+02 -0.28060265640E+03  0.29496205471E+03  0.47000000000E+01 0.  1.
          5    1    3    3  503    0 -0.23480640428E+02 -0.25925401769E+02 -0.24109898122E+03  0.24366837233E+03  0.47000000000E+01 0. -1.
         -5    1    3    3    0  503 -0.35532091590E+02  0.10977717759E+03 -0.31714438488E+03  0.33751475392E+03  0.47000000000E+01 0. -1.
<mgrwt>
<rscale>  0 0.16023858E+03</rscale>
<asrwt>0</asrwt>
<pdfrwt beam="1">  1        4 0.42539780E-02 0.16167304E+03</pdfrwt>
<pdfrwt beam="2">  1       -4 0.14550216E+00 0.16167304E+03</pdfrwt>
<totfact> 0.18359938E+02</totfact>
</mgrwt>
</event>
<event>
 8    1  0.2018715E-005  0.1251879E+03  0.7546771E-02  0.1239551E+00
         -2   -1    0    0    0  501 -0.00000000000E+00  0.00000000000E+00  0.94928773935E+02  0.94928773935E+02  0.00000000000E+00 0. -1.
          2   -1    0    0  501    0  0.00000000000E+00 -0.00000000000E+00 -0.15081541083E+03  0.15081541083E+03  0.00000000000E+00 0.  1.
         25    2    1    2    0    0  0.15162607050E+01  0.67442367445E+01 -0.37622578283E+02  0.13071907970E+03  0.12499694247E+03 0.  0.
         23    2    1    2    0    0 -0.15162607050E+01 -0.67442367445E+01 -0.18264058613E+02  0.11502510506E+03  0.11335526094E+03 0.  0.
          5    1    4    4  502    0  0.50672924037E+02 -0.22411899647E+02 -0.22897311688E+02  0.60136639071E+02  0.47000000000E+01 0. -1.
         -5    1    4    4    0  502 -0.52189184742E+02  0.15667662902E+02  0.46332530751E+01  0.54888465992E+02  0.47000000000E+01 0.  1.
          5    1    3    3  503    0 -0.10992823417E+02  0.30584332218E+02  0.38051089059E+02  0.50261505374E+02  0.47000000000E+01 0. -1.
         -5    1    3    3    0  503  0.12509084122E+02 -0.23840095474E+02 -0.75673667342E+02  0.80457574328E+02  0.47000000000E+01 0. -1.
<mgrwt>
<rscale>  0 0.12217540E+03</rscale>
<asrwt>0</asrwt>
<pdfrwt beam="1">  1        2 0.23202371E-01 0.12518794E+03</pdfrwt>
<pdfrwt beam="2">  1       -2 0.14604427E-01 0.12518794E+03</pdfrwt>
<totfact> 0.78769051E+03</totfact>
</mgrwt>
</event>
<event>
 8    1  0.2018715E-005  0.1263135E+03  0.7546771E-02  0.1257054E+00
          2   -1    0    0  501    0  0.00000000000E+00  0.00000000000E+00  0.20616217477E+03  0.20616217477E+03  0.00000000000E+00 0. -1.
         -2   -1    0    0    0  501 -0.00000000000E+00 -0.00000000000E+00 -0.53331219774E+02  0.53331219774E+02  0.00000000000E+00 0.  1.
         25    2    1    2    0    0  0.18036539635E+02  0.14960785461E-02  0.12243959293E+03  0.17591633069E+03  0.12501913742E+03 0.  0.
         23    2    1    2    0    0 -0.18036539635E+02 -0.14960785461E-02  0.30391362064E+02  0.83577063852E+02  0.75737533296E+02 0.  0.
          5    1    4    4  502    0 -0.30990206270E+02 -0.28153080674E+02  0.34964590660E+01  0.42276519040E+02  0.47000000000E+01 0. -1.
         -5    1    3    3    0  503  0.61836855307E+02  0.30912802429E+02  0.88072689966E+02  0.11206376197E+03  0.47000000000E+01 0.  1.
          5    1    3    3  503    0 -0.43800315672E+02 -0.30911306350E+02  0.34366902963E+02  0.63852568723E+02  0.47000000000E+01 0.  1.
         -5    1    4    4    0  502  0.12953666635E+02  0.28151584595E+02  0.26894902998E+02  0.41300544812E+02  0.47000000000E+01 0.  1.
<mgrwt>
<rscale>  0 0.11192053E+03</rscale>
<asrwt>0</asrwt>
<pdfrwt beam="1">  1        2 0.31717257E-01 0.12631350E+03</pdfrwt>
<pdfrwt beam="2">  1       -2 0.82048032E-02 0.12631350E+03</pdfrwt>
<totfact> 0.13952561E+04</totfact>
</mgrwt>
</event>
<event>
 8    1  0.2018715E-005  0.1295478E+03  0.7546771E-02  0.1260234E+00
          1   -1    0    0  501    0  0.00000000000E+00  0.00000000000E+00  0.81268000531E+02  0.81268000531E+02  0.00000000000E+00 0. -1.
         -1   -1    0    0    0  501 -0.00000000000E+00 -0.00000000000E+00 -0.13099977751E+03  0.13099977751E+03  0.00000000000E+00 0.  1.
         25    2    1    2    0    0 -0.33623052233E+02 -0.51978913035E+01 -0.23617402915E+01  0.12956933677E+03  0.12500042999E+03 0.  0.
         23    2    1    2    0    0  0.33623052233E+02  0.51978913035E+01 -0.47370036687E+02  0.82698441270E+02  0.58630914177E+02 0.  0.
          5    1    4    4  502    0  0.24469916244E+01  0.23322934182E+02 -0.12294040900E+01  0.23948871817E+02  0.47000000000E+01 0. -1.
         -5    1    3    3    0  503 -0.27565247978E+02  0.49502411975E+02  0.31284568157E+02  0.64893342434E+02  0.47000000000E+01 0.  1.
          5    1    3    3  503    0 -0.60578042552E+01 -0.54700303279E+02 -0.33646308449E+02  0.64675994337E+02  0.47000000000E+01 0.  1.
         -5    1    4    4    0  502  0.31176060609E+02 -0.18125042879E+02 -0.46140632597E+02  0.58749569453E+02  0.47000000000E+01 0.  1.
<mgrwt>
<rscale>  0 0.11018173E+03</rscale>
<asrwt>0</asrwt>
<pdfrwt beam="1">  1        1 0.12502769E-01 0.12954781E+03</pdfrwt>
<pdfrwt beam="2">  1       -1 0.20153812E-01 0.12954781E+03</pdfrwt>
<totfact> 0.88737815E+03</totfact>
</mgrwt>
</event>
<event>
 8    1  0.2018715E-005  0.1484488E+03  0.7546771E-02  0.1204519E+00
          1   -1    0    0  501    0  0.00000000000E+00  0.00000000000E+00  0.66869476420E+02  0.66869476420E+02  0.00000000000E+00 0. -1.
         -1   -1    0    0    0  501 -0.00000000000E+00 -0.00000000000E+00 -0.31553938995E+03  0.31553938995E+03  0.00000000000E+00 0.  1.
         25    2    1    2    0    0  0.55699394929E+02 -0.57478063750E+02 -0.13559118310E+03  0.20105225889E+03  0.12502356363E+03 0.  0.
         23    2    1    2    0    0 -0.55699394929E+02  0.57478063750E+02 -0.11307873043E+03  0.18135660747E+03  0.11703533394E+03 0.  0.
          5    1    3    3  502    0 -0.20698971899E+02 -0.51620452973E+02 -0.10401793262E+03  0.11804634221E+03  0.47000000000E+01 0.  1.
         -5    1    3    3    0  502  0.76398366828E+02 -0.58576107772E+01 -0.31573250474E+02  0.83005916678E+02  0.47000000000E+01 0.  1.
          5    1    4    4  503    0  0.33513512508E+02  0.30881948156E+02 -0.21224259334E+02  0.50491676808E+02  0.47000000000E+01 0. -1.
         -5    1    4    4    0  503 -0.89212907438E+02  0.26596115594E+02 -0.91854471096E+02  0.13086493067E+03  0.47000000000E+01 0.  1.
<mgrwt>
<rscale>  0 0.14675443E+03</rscale>
<asrwt>0</asrwt>
<pdfrwt beam="1">  1        1 0.10287611E-01 0.14844879E+03</pdfrwt>
<pdfrwt beam="2">  1       -1 0.48544523E-01 0.14844879E+03</pdfrwt>
<totfact> 0.26030648E+03</totfact>
</mgrwt>
</event>
<event>
 8    1  0.2018715E-005  0.2310037E+03  0.7546771E-02  0.1129919E+00
         -2   -1    0    0    0  501 -0.00000000000E+00  0.00000000000E+00  0.32366393116E+02  0.32366393116E+02  0.00000000000E+00 0.  1.
          2   -1    0    0  501    0  0.00000000000E+00 -0.00000000000E+00 -0.15979176549E+04  0.15979176549E+04  0.00000000000E+00 0. -1.
         25    2    1    2    0    0  0.15622205772E+02 -0.19363337482E+03 -0.61526521310E+03  0.65720163402E+03  0.12499907256E+03 0.  0.
         23    2    1    2    0    0 -0.15622205772E+02  0.19363337482E+03 -0.95028604864E+03  0.97308241396E+03  0.78152881964E+02 0.  0.
          5    1    3    3  502    0 -0.53783282672E+01 -0.20135071984E+03 -0.58832824242E+03  0.62187076602E+03  0.47000000000E+01 0.  1.
         -5    1    3    3    0  502  0.21000534039E+02  0.77173450220E+01 -0.26936970684E+02  0.35330868001E+02  0.47000000000E+01 0.  1.
          5    1    4    4  503    0 -0.12526294363E+02  0.16288168974E+03 -0.89289996147E+03  0.90773332212E+03  0.47000000000E+01 0. -1.
         -5    1    4    4    0  503 -0.30959114085E+01  0.30751685084E+02 -0.57386087171E+02  0.65349091836E+02  0.47000000000E+01 0.  1.
<mgrwt>
<rscale>  0 0.22540067E+03</rscale>
<asrwt>0</asrwt>
<pdfrwt beam="1">  1        2 0.24583344E+00 0.23100369E+03</pdfrwt>
<pdfrwt beam="2">  1       -2 0.49794460E-02 0.23100369E+03</pdfrwt>
<totfact> 0.23850417E+03</totfact>
</mgrwt>
</event>
<event>
 8    1  0.2018715E-005  0.1338590E+03  0.7546771E-02  0.1229304E+00
          3   -1    0    0  501    0  0.00000000000E+00  0.00000000000E+00  0.15043931608E+03  0.15043931608E+03  0.00000000000E+00 0. -1.
         -3   -1    0    0    0  501 -0.00000000000E+00 -0.00000000000E+00 -0.10322768229E+03  0.10322768229E+03  0.00000000000E+00 0.  1.
         25    2    1    2    0    0 -0.45416206686E+02 -0.15148488492E+02  0.15504387182E+02  0.13475388315E+03  0.12500445780E+03 0.  0.
         23    2    1    2    0    0  0.45416206686E+02  0.15148488492E+02  0.31707246606E+02  0.11891311522E+03  0.10412910712E+03 0.  0.
          5    1    4    4  502    0 -0.31484225116E+02 -0.19092720363E+01  0.23426629433E+02  0.39570174594E+02  0.47000000000E+01 0. -1.
         -5    1    4    4    0  502  0.76900431802E+02  0.17057760528E+02  0.82806171727E+01  0.79342940621E+02  0.47000000000E+01 0.  1.
          5    1    3    3  503    0 -0.29458552931E+02  0.12903680526E+02  0.66616707783E+02  0.74122783729E+02  0.47000000000E+01 0.  1.
         -5    1    3    3    0  503 -0.15957653755E+02 -0.28052169018E+02 -0.51112320601E+02  0.60631099423E+02  0.47000000000E+01 0.  1.
<mgrwt>
<rscale>  0 0.12876246E+03</rscale>
<asrwt>0</asrwt>
<pdfrwt beam="1">  1        3 0.23144510E-01 0.13385897E+03</pdfrwt>
<pdfrwt beam="2">  1       -3 0.15881182E-01 0.13385897E+03</pdfrwt>
<totfact> 0.13337248E+03</totfact>
</mgrwt>
</event>
<event>
 8    1  0.2018715E-005  0.2027029E+03  0.7546771E-02  0.1149508E+00
         -1   -1    0    0    0  501 -0.00000000000E+00  0.00000000000E+00  0.58092213917E+02  0.58092213917E+02  0.00000000000E+00 0.  1.
          1   -1    0    0  501    0  0.00000000000E+00 -0.00000000000E+00 -0.10546153287E+04  0.10546153287E+04  0.00000000000E+00 0. -1.
         25    2    1    2    0    0 -0.92421886723E+02  0.13008412531E+03 -0.83993975901E+03  0.86405281025E+03  0.12499910132E+03 0.  0.
         23    2    1    2    0    0  0.92421886723E+02 -0.13008412531E+03 -0.15658335579E+03  0.24865473238E+03  0.10884458564E+03 0.  0.
          5    1    3    3  502    0 -0.37748130547E+02  0.32149169340E+02 -0.69648500619E+02  0.85624144302E+02  0.47000000000E+01 0. -1.
         -5    1    4    4    0  503  0.20173996684E+02 -0.67758186125E+02 -0.70412669487E+01  0.71202748328E+02  0.47000000000E+01 0.  1.
          5    1    4    4  503    0  0.72247890038E+02 -0.62325939185E+02 -0.14954208884E+03  0.17745198406E+03  0.47000000000E+01 0. -1.
         -5    1    3    3    0  502 -0.54673756176E+02  0.97934955971E+02 -0.77029125839E+03  0.77842866595E+03  0.47000000000E+01 0. -1.
<mgrwt>
<rscale>  0 0.20027388E+03</rscale>
<asrwt>0</asrwt>
<pdfrwt beam="1">  1        1 0.16224851E+00 0.20270289E+03</pdfrwt>
<pdfrwt beam="2">  1       -1 0.89372638E-02 0.20270289E+03</pdfrwt>
<totfact> 0.10604711E+03</totfact>
</mgrwt>
</event>
<event>
 8    1  0.2018715E-005  0.1309831E+03  0.7546771E-02  0.1258973E+00
         -2   -1    0    0    0  501 -0.00000000000E+00  0.00000000000E+00  0.19444625370E+02  0.19444625370E+02  0.00000000000E+00 0.  1.
          2   -1    0    0  501    0  0.00000000000E+00 -0.00000000000E+00 -0.55744011941E+03  0.55744011941E+03  0.00000000000E+00 0. -1.
         25    2    1    2    0    0  0.17041610187E+02 -0.35180456400E+02 -0.26328462606E+03  0.29406694034E+03  0.12501395958E+03 0.  0.
         23    2    1    2    0    0 -0.17041610187E+02  0.35180456400E+02 -0.27471086798E+03  0.28281780444E+03  0.54697061453E+02 0.  0.
          5    1    3    3  502    0  0.87003818476E+01  0.38193616882E+02 -0.17245989536E+03  0.17691510541E+03  0.47000000000E+01 0. -1.
         -5    1    4    4    0  503 -0.35313326070E+02  0.13474712905E+02 -0.17122999119E+03  0.17541493314E+03  0.47000000000E+01 0.  1.
          5    1    4    4  503    0  0.18271715883E+02  0.21705743495E+02 -0.10348087679E+03  0.10740287130E+03  0.47000000000E+01 0. -1.
         -5    1    3    3    0  502  0.83412283398E+01 -0.73374073282E+02 -0.90824730694E+02  0.11715183492E+03  0.47000000000E+01 0. -1.
<mgrwt>
<rscale>  0 0.11086691E+03</rscale>
<asrwt>0</asrwt>
<pdfrwt beam="1">  1        2 0.85760009E-01 0.13098309E+03</pdfrwt>
<pdfrwt beam="2">  1       -2 0.29914812E-02 0.13098309E+03</pdfrwt>
<totfact> 0.21931419E+04</totfact>
</mgrwt>
</event>
<event>
 7    1  0.2018715E-005  0.2088576E+03  0.7546771E-02  0.1157676E+00
          2   -1    0    0  501    0  0.00000000000E+00  0.00000000000E+00  0.69034706137E+02  0.69034706137E+02  0.00000000000E+00 0. -1.
         -2   -1    0    0    0  501 -0.00000000000E+00 -0.00000000000E+00 -0.45980585096E+03  0.45980585096E+03  0.00000000000E+00 0.  1.
         25    2    1    2    0    0  0.64943111790E+02 -0.37178466719E+02 -0.18690860985E+03  0.23698198244E+03  0.12500314160E+03 0.  0.
          5    1    1    2  502    0 -0.10645656210E+02  0.70043694065E+02  0.72392292672E+01  0.71371881821E+02  0.47000000000E+01 0. -1.
         -5    1    1    2    0  502 -0.54297455580E+02 -0.32865227346E+02 -0.21110176424E+03  0.22048669283E+03  0.47000000000E+01 0.  1.
          5    1    3    3  503    0  0.53266989554E+02 -0.69550952663E+02 -0.18181801388E+03  0.20187765445E+03  0.47000000000E+01 0.  1.
         -5    1    3    3    0  503  0.11676122236E+02  0.32372485944E+02 -0.50905959655E+01  0.35104327994E+02  0.47000000000E+01 0.  1.
<mgrwt>
<rscale>  0 0.19087334E+03</rscale>
<asrwt>0</asrwt>
<pdfrwt beam="1">  1        2 0.10620724E-01 0.20885759E+03</pdfrwt>
<pdfrwt beam="2">  1       -2 0.70739359E-01 0.20885759E+03</pdfrwt>
<totfact> 0.10981789E+03</totfact>
</mgrwt>
</event>
<event>
 7    1  0.2018715E-005  0.2084767E+03  0.7546771E-02  0.1149992E+00
         -1   -1    0    0    0  501 -0.00000000000E+00  0.00000000000E+00  0.94397224275E+02  0.94397224275E+02  0.00000000000E+00 0.  1.
          1   -1    0    0  501    0  0.00000000000E+00 -0.00000000000E+00 -0.44498067391E+03  0.44498067391E+03  0.00000000000E+00 0. -1.
         25    2    1    2    0    0 -0.11148904216E+03 -0.12412918563E+03 -0.28253276569E+03  0.35112288894E+03  0.12499863280E+03 0.  0.
          5    1    1    2  502    0  0.20383959209E+02  0.32049711620E+02 -0.40535551395E+02  0.55748638861E+02  0.47000000000E+01 0. -1.
         -5    1    3    3    0  503  0.70327683101E+00 -0.90231893586E+02 -0.13854966144E+03  0.16540975758E+03  0.47000000000E+01 0.  1.
          5    1    3    3  503    0 -0.11219231899E+03 -0.33897292040E+02 -0.14398310425E+03  0.18571313136E+03  0.47000000000E+01 0.  1.
         -5    1    1    2    0  502  0.91105082952E+02  0.92079474006E+02 -0.27515132546E+02  0.13250637038E+03  0.47000000000E+01 0.  1.
<mgrwt>
<rscale>  0 0.19969992E+03</rscale>
<asrwt>0</asrwt>
<pdfrwt beam="1">  1        1 0.68458563E-01 0.20847666E+03</pdfrwt>
<pdfrwt beam="2">  1       -1 0.14522650E-01 0.20847666E+03</pdfrwt>
<totfact> 0.17732610E+03</totfact>
</mgrwt>
</event>
<event>
 7    1  0.2018715E-005  0.1526501E+03  0.7546771E-02  0.1198453E+00
         -2   -1    0    0    0  501 -0.00000000000E+00  0.00000000000E+00  0.51924216569E+02  0.51924216569E+02  0.00000000000E+00 0.  1.
          2   -1    0    0  501    0  0.00000000000E+00 -0.00000000000E+00 -0.58453134605E+03  0.58453134605E+03  0.00000000000E+00 0. -1.
         25    2    1    2    0    0  0.79683376162E+02  0.11864152321E+02 -0.42341995448E+03  0.44877528394E+03  0.12499839632E+03 0.  0.
          5    1    3    3  502    0  0.83068538076E+02  0.56383986729E+02 -0.33277342690E+03  0.34762016574E+03  0.47000000000E+01 0.  1.
         -5    1    1    2    0  503 -0.68356515345E+02 -0.66433669130E+02 -0.56876207852E+02  0.11109922864E+03  0.47000000000E+01 0.  1.
          5    1    1    2  503    0 -0.11326860816E+02  0.54569516809E+02 -0.52310967153E+02  0.76581050040E+02  0.47000000000E+01 0. -1.
         -5    1    3    3    0  502 -0.33851619149E+01 -0.44519834409E+02 -0.90646527575E+02  0.10115511820E+03  0.47000000000E+01 0.  1.
<mgrwt>
<rscale>  0 0.15165550E+03</rscale>
<asrwt>0</asrwt>
<pdfrwt beam="1">  1        2 0.89927895E-01 0.15265008E+03</pdfrwt>
<pdfrwt beam="2">  1       -2 0.79883414E-02 0.15265008E+03</pdfrwt>
<totfact> 0.47955328E+03</totfact>
</mgrwt>
</event>
<event>
 8    1  0.2018715E-005  0.1582203E+03  0.7546771E-02  0.1203278E+00
          1   -1    0    0  501    0  0.00000000000E+00  0.00000000000E+00  0.64861307262E+03  0.64861307262E+03  0.00000000000E+00 0. -1.
         -1   -1    0    0    0  501 -0.00000000000E+00 -0.00000000000E+00 -0.48191236588E+02  0.48191236588E+02  0.00000000000E+00 0.  1.
         25    2    1    2    0    0 -0.77016412786E+01 -0.96696232138E+02  0.11215304074E+03  0.19393806671E+03  0.12499677029E+03 0.  0.
         23    2    1    2    0    0  0.77016412786E+01  0.96696232138E+02  0.48826879529E+03  0.50286624250E+03  0.71123588226E+02 0.  0.
          5    1    4    4  502    0 -0.21663885754E+02  0.72636979965E+02  0.39175371905E+03  0.39904701627E+03  0.47000000000E+01 0. -1.
         -5    1    4    4    0  502  0.29365527033E+02  0.24059252173E+02  0.96515076243E+02  0.10381922623E+03  0.47000000000E+01 0.  1.
          5    1    3    3  503    0  0.10984634076E+02 -0.69495769504E+02  0.13583553981E+03  0.15304805795E+03  0.47000000000E+01 0.  1.
         -5    1    3    3    0  503 -0.18686275355E+02 -0.27200462634E+02 -0.23682499073E+02  0.40890008761E+02  0.47000000000E+01 0.  1.
<mgrwt>
<rscale>  0 0.14773994E+03</rscale>
<asrwt>0</asrwt>
<pdfrwt beam="1">  1        1 0.99786620E-01 0.15822032E+03</pdfrwt>
<pdfrwt beam="2">  1       -1 0.74140369E-02 0.15822032E+03</pdfrwt>
<totfact> 0.29944659E+03</totfact>
</mgrwt>
</event>
<event>
 8    1  0.2018715E-005  0.1707854E+03  0.7546771E-02  0.1186659E+00
          1   -1    0    0  501    0  0.00000000000E+00  0.00000000000E+00  0.94991287248E+02  0.94991287248E+02  0.00000000000E+00 0. -1.
         -1   -1    0    0    0  501 -0.00000000000E+00 -0.00000000000E+00 -0.28202159717E+03  0.28202159717E+03  0.00000000000E+00 0.  1.
         25    2    1    2    0    0 -0.87074602969E+02 -0.77199782470E+02 -0.16527098422E+03  0.23765970603E+03  0.12500337896E+03 0.  0.
         23    2    1    2    0    0  0.87074602969E+02  0.77199782470E+02 -0.21759325710E+02  0.13935317839E+03  0.73512224674E+02 0.  0.
          5    1    3    3  502    0 -0.94341558478E+02 -0.61792201601E+01 -0.12060008105E+03  0.15331334569E+03  0.47000000000E+01 0. -1.
         -5    1    4    4    0  503  0.29598083952E+01  0.43393017803E+02  0.66185269452E+01  0.44244879464E+02  0.47000000000E+01 0.  1.
          5    1    4    4  503    0  0.84114794574E+02  0.33806764666E+02 -0.28377852655E+02  0.95108298926E+02  0.47000000000E+01 0. -1.
         -5    1    3    3    0  502  0.72669555092E+01 -0.71020562310E+02 -0.44670903167E+02  0.84346360342E+02  0.47000000000E+01 0. -1.
<mgrwt>
<rscale>  0 0.16181814E+03</rscale>
<asrwt>0</asrwt>
<pdfrwt beam="1">  1        1 0.14614044E-01 0.17078536E+03</pdfrwt>
<pdfrwt beam="2">  1       -1 0.43387937E-01 0.17078536E+03</pdfrwt>
<totfact> 0.20197461E+03</totfact>
</mgrwt>
</event>
<event>
 8    1  0.2018715E-005  0.2570143E+03  0.7546771E-02  0.1112920E+00
         -2   -1    0    0    0  501 -0.00000000000E+00  0.00000000000E+00  0.10701104175E+04  0.10701104175E+04  0.00000000000E+00 0.  1.
          2   -1    0    0  501    0  0.00000000000E+00 -0.00000000000E+00 -0.55944231537E+02  0.55944231537E+02  0.00000000000E+00 0. -1.
         25    2    1    2    0    0 -0.87557951388E+02 -0.20679014192E+03  0.53325160326E+03  0.59195743397E+03  0.12501109394E+03 0.  0.
         23    2    1    2    0    0  0.87557951388E+02  0.20679014192E+03  0.48091458275E+03  0.53409721511E+03  0.59602362715E+02 0.  0.
          5    1    3    3  502    0 -0.40374199464E+01 -0.30002362362E+02  0.82765101399E+01  0.31733785264E+02  0.47000000000E+01 0.  1.
         -5    1    4    4    0  503  0.62128182180E+02  0.12829280832E+03  0.23748382320E+03  0.27701915452E+03  0.47000000000E+01 0.  1.
          5    1    4    4  503    0  0.25429769208E+02  0.78497333608E+02  0.24343075955E+03  0.25707806060E+03  0.47000000000E+01 0. -1.
         -5    1    3    3    0  502 -0.83520531442E+02 -0.17678777956E+03  0.52497509312E+03  0.56022364871E+03  0.47000000000E+01 0.  1.
<mgrwt>
<rscale>  0 0.25060979E+03</rscale>
<asrwt>0</asrwt>
<pdfrwt beam="1">  1        2 0.86068057E-02 0.25701426E+03</pdfrwt>
<pdfrwt beam="2">  1       -2 0.16463236E+00 0.25701426E+03</pdfrwt>
<totfact> 0.19222037E+02</totfact>
</mgrwt>
</event>
<event>
 8    1  0.2018715E-005  0.1465178E+03  0.7546771E-02  0.1206227E+00
          1   -1    0    0  501    0  0.00000000000E+00  0.00000000000E+00  0.44660373399E+02  0.44660373399E+02  0.00000000000E+00 0. -1.
         -1   -1    0    0    0  501 -0.00000000000E+00 -0.00000000000E+00 -0.56079349643E+03  0.56079349643E+03  0.00000000000E+00 0.  1.
         25    2    1    2    0    0 -0.16425387179E+02  0.74643999486E+02 -0.38548442613E+03  0.41239023663E+03  0.12500377786E+03 0.  0.
         23    2    1    2    0    0  0.16425387179E+02 -0.74643999486E+02 -0.13064869690E+03  0.19306363320E+03  0.11984558589E+03 0.  0.
          5    1    4    4  502    0 -0.44791543300E+02 -0.33250801386E+02 -0.19051894612E+02  0.59135123508E+02  0.47000000000E+01 0. -1.
         -5    1    4    4    0  502  0.61216930479E+02 -0.41393198100E+02 -0.11159680229E+03  0.13392850969E+03  0.47000000000E+01 0.  1.
          5    1    3    3  503    0  0.56665817768E+01  0.77453800974E+02 -0.38141422315E+03  0.38926867464E+03  0.47000000000E+01 0. -1.
         -5    1    3    3    0  503 -0.22091968956E+02 -0.28098014885E+01 -0.40702029803E+01  0.23121561994E+02  0.47000000000E+01 0. -1.
<mgrwt>
<rscale>  0 0.14541150E+03</rscale>
<asrwt>0</asrwt>
<pdfrwt beam="1">  1        1 0.68708265E-02 0.14651780E+03</pdfrwt>
<pdfrwt beam="2">  1       -1 0.86275925E-01 0.14651780E+03</pdfrwt>
<totfact> 0.14609791E+03</totfact>
</mgrwt>
</event>
<event>
 8    1  0.2018715E-005  0.1506288E+03  0.7546771E-02  0.1204737E+00
          2   -1    0    0  501    0  0.00000000000E+00  0.00000000000E+00  0.87808480501E+03  0.87808480501E+03  0.00000000000E+00 0. -1.
         -2   -1    0    0    0  501 -0.00000000000E+00 -0.00000000000E+00 -0.37443665022E+02  0.37443665022E+02  0.00000000000E+00 0.  1.
         25    2    1    2    0    0  0.15308602861E+02  0.82640290464E+02  0.15285023624E+03  0.21459786800E+03  0.12500111721E+03 0.  0.
         23    2    1    2    0    0 -0.15308602861E+02 -0.82640290464E+02  0.68779090375E+03  0.70093060203E+03  0.10575259170E+03 0.  0.
          5    1    3    3  502    0 -0.46563076313E+02  0.46393564808E+02  0.30295432346E+02  0.72528519579E+02  0.47000000000E+01 0.  1.
         -5    1    3    3    0  502  0.61871679174E+02  0.36246725656E+02  0.12255480389E+03  0.14206934842E+03  0.47000000000E+01 0.  1.
          5    1    4    4  503    0 -0.27670005175E+02  0.15063375746E+02  0.25894764345E+03  0.26089941840E+03  0.47000000000E+01 0. -1.
         -5    1    4    4    0  503  0.12361402313E+02 -0.97703666210E+02  0.42884326030E+03  0.44003118362E+03  0.47000000000E+01 0.  1.
<mgrwt>
<rscale>  0 0.14658218E+03</rscale>
<asrwt>0</asrwt>
<pdfrwt beam="1">  1        2 0.13508995E+00 0.15062885E+03</pdfrwt>
<pdfrwt beam="2">  1       -2 0.57605645E-02 0.15062885E+03</pdfrwt>
<totfact> 0.48401826E+03</totfact>
</mgrwt>
</event>
<event>
 8    1  0.2018715E-005  0.2102173E+03  0.7546771E-02  0.1146997E+00
          1   -1    0    0  501    0  0.00000000000E+00  0.00000000000E+00  0.16202556776E+03  0.16202556776E+03  0.00000000000E+00 0. -1.
         -1   -1    0    0    0  501 -0.00000000000E+00 -0.00000000000E+00 -0.28571195465E+03  0.28571195465E+03  0.00000000000E+00 0.  1.
         25    2    1    2    0    0  0.73350166997E+01 -0.16885980857E+03  0.24470765085E+02  0.21163683004E+03  0.12499556819E+03 0.  0.
         23    2    1    2    0    0 -0.73350166997E+01  0.16885980857E+03 -0.14815715198E+03  0.23610069236E+03  0.72288019965E+02 0.  0.
          5    1    3    3  502    0 -0.90293618095E+01 -0.18405200756E+03  0.33023643625E+02  0.18726804826E+03  0.47000000000E+01 0. -1.
         -5    1    4    4    0  503 -0.21718125091E+02  0.71873346128E+02 -0.10427170908E+03  0.12857734698E+03  0.47000000000E+01 0.  1.
          5    1    4    4  503    0  0.14383108391E+02  0.96986462446E+02 -0.43885442899E+02  0.10752334539E+03  0.47000000000E+01 0. -1.
         -5    1    3    3    0  502  0.16364378509E+02  0.15192198989E+02 -0.85528785406E+01  0.24368781780E+02  0.47000000000E+01 0. -1.
<mgrwt>
<rscale>  0 0.20328472E+03</rscale>
<asrwt>0</asrwt>
<pdfrwt beam="1">  1        1 0.24927010E-01 0.21021734E+03</pdfrwt>
<pdfrwt beam="2">  1       -1 0.43955686E-01 0.21021734E+03</pdfrwt>
<totfact> 0.99749360E+02</totfact>
</mgrwt>
</event>
<event>
 8    1  0.2018715E-005  0.1611179E+03  0.7546771E-02  0.1190953E+00
         -2   -1    0    0    0  501 -0.00000000000E+00  0.00000000000E+00  0.72496219698E+02  0.72496219698E+02  0.00000000000E+00 0.  1.
          2   -1    0    0  501    0  0.00000000000E+00 -0.00000000000E+00 -0.36058817484E+03  0.36058817484E+03  0.00000000000E+00 0. -1.
         25    2    1    2    0    0  0.93892063251E+02 -0.38972191615E+02 -0.88049811237E+02  0.18360761403E+03  0.12499774162E+03 0.  0.
         23    2    1    2    0    0 -0.93892063251E+02  0.38972191615E+02 -0.20004214390E+03  0.24947678051E+03  0.10902868161E+03 0.  0.
          5    1    3    3  502    0  0.77125958492E+02 -0.56782002622E+02 -0.40299843138E+01  0.95973642573E+02  0.47000000000E+01 0.  1.
         -5    1    3    3    0  502  0.16766104759E+02  0.17809811008E+02 -0.84019826923E+02  0.87633971456E+02  0.47000000000E+01 0.  1.
          5    1    4    4  503    0  0.17796043256E+02  0.30304455723E+02 -0.34002475671E+02  0.49125528435E+02  0.47000000000E+01 0. -1.
         -5    1    4    4    0  503 -0.11168810651E+03  0.86677358917E+01 -0.16603966823E+03  0.20035125207E+03  0.47000000000E+01 0.  1.
<mgrwt>
<rscale>  0 0.15801755E+03</rscale>
<asrwt>0</asrwt>
<pdfrwt beam="1">  1        2 0.55475105E-01 0.16111793E+03</pdfrwt>
<pdfrwt beam="2">  1       -2 0.11153264E-01 0.16111793E+03</pdfrwt>
<totfact> 0.48311160E+03</totfact>
</mgrwt>
</event>
<event>
 8    1  0.2018715E-005  0.1463336E+03  0.7546771E-02  0.1218805E+00
         -1   -1    0    0    0  501 -0.00000000000E+00  0.00000000000E+00  0.15398394648E+02  0.15398394648E+02  0.00000000000E+00 0.  1.
          1   -1    0    0  501    0  0.00000000000E+00 -0.00000000000E+00 -0.10611536157E+04  0.10611536157E+04  0.00000000000E+00 0. -1.
         25    2    1    2    0    0  0.10516630359E+02 -0.75349360820E+02 -0.61549554415E+03  0.63265178203E+03  0.12500154695E+03 0.  0.
         23    2    1    2    0    0 -0.10516630359E+02  0.75349360820E+02 -0.43025967687E+03  0.44390022829E+03  0.78331969509E+02 0.  0.
          5    1    3    3  502    0 -0.41748920326E+01  0.28707080500E+02 -0.54885556955E+02  0.62257855380E+02  0.47000000000E+01 0. -1.
         -5    1    3    3    0  502  0.14691522391E+02 -0.10405644132E+03 -0.56060998720E+03  0.57039392665E+03  0.47000000000E+01 0. -1.
          5    1    4    4  503    0 -0.21353781921E+02  0.47592995214E+02 -0.39047826544E+03  0.39397518066E+03  0.47000000000E+01 0. -1.
         -5    1    4    4    0  503  0.10837151563E+02  0.27756365606E+02 -0.39781411434E+02  0.49925047635E+02  0.47000000000E+01 0.  1.
<mgrwt>
<rscale>  0 0.13600686E+03</rscale>
<asrwt>0</asrwt>
<pdfrwt beam="1">  1        1 0.16325443E+00 0.14633357E+03</pdfrwt>
<pdfrwt beam="2">  1       -1 0.23689833E-02 0.14633357E+03</pdfrwt>
<totfact> 0.74991120E+03</totfact>
</mgrwt>
</event>
<event>
 8    1  0.2018715E-005  0.1516932E+03  0.7546771E-02  0.1203628E+00
         -1   -1    0    0    0  501 -0.00000000000E+00  0.00000000000E+00  0.25425086166E+03  0.25425086166E+03  0.00000000000E+00 0.  1.
          1   -1    0    0  501    0  0.00000000000E+00 -0.00000000000E+00 -0.11241536033E+03  0.11241536033E+03  0.00000000000E+00 0. -1.
         25    2    1    2    0    0  0.52168119862E+02 -0.68289895829E+02 -0.22875667188E+02  0.15340833223E+03  0.12500319055E+03 0.  0.
         23    2    1    2    0    0 -0.52168119862E+02  0.68289895829E+02  0.16471116852E+03  0.21325788976E+03  0.10470976987E+03 0.  0.
          5    1    4    4  502    0 -0.65189104734E+02  0.19016911494E+01  0.61522445461E+02  0.89779380154E+02  0.47000000000E+01 0. -1.
         -5    1    4    4    0  502  0.13020984873E+02  0.66388204680E+02  0.10318872306E+03  0.12347850961E+03  0.47000000000E+01 0.  1.
          5    1    3    3  503    0  0.89962636277E+02 -0.24736538914E+02 -0.85897691509E+01  0.93813892454E+02  0.47000000000E+01 0. -1.
         -5    1    3    3    0  503 -0.37794516416E+02 -0.43553356916E+02 -0.14285898037E+02  0.59594439778E+02  0.47000000000E+01 0. -1.
<mgrwt>
<rscale>  0 0.14746079E+03</rscale>
<asrwt>0</asrwt>
<pdfrwt beam="1">  1        1 0.17294671E-01 0.15169318E+03</pdfrwt>
<pdfrwt beam="2">  1       -1 0.39115517E-01 0.15169318E+03</pdfrwt>
<totfact> 0.19420913E+03</totfact>
</mgrwt>
</event>
<event>
 8    1  0.2018715E-005  0.1356348E+03  0.7546771E-02  0.1244202E+00
         -2   -1    0    0    0  501 -0.00000000000E+00  0.00000000000E+00  0.23403016136E+03  0.23403016136E+03  0.00000000000E+00 0.  1.
          2   -1    0    0  501    0  0.00000000000E+00 -0.00000000000E+00 -0.58738782987E+02  0.58738782987E+02  0.00000000000E+00 0. -1.
         25    2    1    2    0    0 -0.33302331660E+02  0.40778581016E+02  0.16054921467E+03  0.21017338663E+03  0.12499945661E+03 0.  0.
         23    2    1    2    0    0  0.33302331660E+02 -0.40778581016E+02  0.14742163705E+02  0.82595557720E+02  0.61909262641E+02 0.  0.
          5    1    3    3  502    0 -0.12932077231E+02  0.49162126082E+02  0.31259881620E+01  0.51146994676E+02  0.47000000000E+01 0.  1.
         -5    1    4    4    0  503 -0.16352936886E+02 -0.21288493129E+02  0.91810221083E+01  0.28757601629E+02  0.47000000000E+01 0.  1.
          5    1    4    4  503    0  0.49655268546E+02 -0.19490087887E+02  0.55611415966E+01  0.53837956091E+02  0.47000000000E+01 0. -1.
         -5    1    3    3    0  502 -0.20370254428E+02 -0.83835450662E+01  0.15742322650E+03  0.15902639195E+03  0.47000000000E+01 0.  1.
<mgrwt>
<rscale>  0 0.11933284E+03</rscale>
<asrwt>0</asrwt>
<pdfrwt beam="1">  1        2 0.90367360E-02 0.13563481E+03</pdfrwt>
<pdfrwt beam="2">  1       -2 0.36004640E-01 0.13563481E+03</pdfrwt>
<totfact> 0.50389734E+03</totfact>
</mgrwt>
</event>
<event>
 8    1  0.2018715E-005  0.1791837E+03  0.7546771E-02  0.1170674E+00
         -1   -1    0    0    0  501 -0.00000000000E+00  0.00000000000E+00  0.69979399313E+02  0.69979399313E+02  0.00000000000E+00 0.  1.
          1   -1    0    0  501    0  0.00000000000E+00 -0.00000000000E+00 -0.47022053936E+03  0.47022053936E+03  0.00000000000E+00 0. -1.
         25    2    1    2    0    0 -0.30634968838E+02  0.12469341246E+03 -0.13357917952E+03  0.22349541606E+03  0.12497941981E+03 0.  0.
         23    2    1    2    0    0  0.30634968838E+02 -0.12469341246E+03 -0.26666196053E+03  0.31670452260E+03  0.11272180366E+03 0.  0.
          5    1    4    4  502    0  0.73259831861E+02 -0.73830224837E+02 -0.15485438561E+03  0.18660084621E+03  0.47000000000E+01 0. -1.
         -5    1    4    4    0  502 -0.42624863023E+02 -0.50863187620E+02 -0.11180757491E+03  0.13010367639E+03  0.47000000000E+01 0.  1.
          5    1    3    3  503    0 -0.40278793624E+02  0.17576581128E+02 -0.10222383843E+03  0.11136929812E+03  0.47000000000E+01 0.  1.
         -5    1    3    3    0  503  0.96438247861E+01  0.10711683133E+03 -0.31355341084E+02  0.11212611794E+03  0.47000000000E+01 0.  1.
<mgrwt>
<rscale>  0 0.17706553E+03</rscale>
<asrwt>0</asrwt>
<pdfrwt beam="1">  1        1 0.72341619E-01 0.17918372E+03</pdfrwt>
<pdfrwt beam="2">  1       -1 0.10766062E-01 0.17918372E+03</pdfrwt>
<totfact> 0.26233862E+03</totfact>
</mgrwt>
</event>
<event>
 8    1  0.2018715E-005  0.1995931E+03  0.7546771E-02  0.1156249E+00
          2   -1    0    0  501    0  0.00000000000E+00  0.00000000000E+00  0.73848161844E+03  0.73848161844E+03  0.00000000000E+00 0. -1.
         -2   -1    0    0    0  501 -0.00000000000E+00 -0.00000000000E+00 -0.97880364401E+02  0.97880364401E+02  0.00000000000E+00 0.  1.
         25    2    1    2    0    0  0.14602403394E+03  0.53766717755E+02  0.30001478104E+02  0.20183528778E+03  0.12499406498E+03 0.  0.
         23    2    1    2    0    0 -0.14602403394E+03 -0.53766717755E+02  0.61059977594E+03  0.63452669506E+03  0.74687093587E+02 0.  0.
          5    1    4    4  502    0 -0.10347175703E+03 -0.63372068206E+02  0.51823506831E+03  0.53227070139E+03  0.47000000000E+01 0. -1.
         -5    1    3    3    0  503  0.99566808735E+02  0.53410229642E+01  0.71507093208E+02  0.12279018815E+03  0.47000000000E+01 0. -1.
          5    1    3    3  503    0  0.46457225201E+02  0.48425694791E+02 -0.41505615104E+02  0.79045099624E+02  0.47000000000E+01 0. -1.
         -5    1    4    4    0  502 -0.42552276906E+02  0.96053504508E+01  0.92364707629E+02  0.10225599368E+03  0.47000000000E+01 0.  1.
<mgrwt>
<rscale>  0 0.19247380E+03</rscale>
<asrwt>0</asrwt>
<pdfrwt beam="1">  1        2 0.11361255E+00 0.19959307E+03</pdfrwt>
<pdfrwt beam="2">  1       -2 0.15058518E-01 0.19959307E+03</pdfrwt>
<totfact> 0.13337472E+03</totfact>
</mgrwt>
</event>
<event>
 7    1  0.2018715E-005  0.1478758E+03  0.7546771E-02  0.1224404E+00
          2   -1    0    0  501    0  0.00000000000E+00  0.00000000000E+00  0.59648967835E+03  0.59648967835E+03  0.00000000000E+00 0. -1.
         -2   -1    0    0    0  501 -0.00000000000E+00 -0.00000000000E+00 -0.25441201097E+02  0.25441201097E+02  0.00000000000E+00 0.  1.
         25    2    1    2    0    0  0.29290284999E+02 -0.73358404006E+02  0.40376182647E+03  0.42998937665E+03  0.12501150061E+03 0.  0.
          5    1    3    3  502    0 -0.45599610201E+00 -0.59828353276E+02  0.38938005991E+03  0.39397786847E+03  0.47000000000E+01 0. -1.
         -5    1    3    3    0  502  0.29746281101E+02 -0.13530050730E+02  0.14381766557E+02  0.36011508180E+02  0.47000000000E+01 0. -1.
          5    1    1    2  503    0 -0.85801393116E+01  0.48683911509E+02  0.14285206169E+03  0.15123671366E+03  0.47000000000E+01 0. -1.
         -5    1    1    2    0  503 -0.20710145687E+02  0.24674492497E+02  0.24434589098E+02  0.40704789138E+02  0.47000000000E+01 0.  1.
<mgrwt>
<rscale>  0 0.13207844E+03</rscale>
<asrwt>0</asrwt>
<pdfrwt beam="1">  1        2 0.91767632E-01 0.14787580E+03</pdfrwt>
<pdfrwt beam="2">  1       -2 0.39140314E-02 0.14787580E+03</pdfrwt>
<totfact> 0.13789806E+04</totfact>
</mgrwt>
</event>
<event>
 8    1  0.2018715E-005  0.1715987E+03  0.7546771E-02  0.1184831E+00
          1   -1    0    0  501    0  0.00000000000E+00  0.00000000000E+00  0.15397448370E+04  0.15397448370E+04  0.00000000000E+00 0.  1.
         -1   -1    0    0    0  501 -0.00000000000E+00 -0.00000000000E+00 -0.20543426731E+02  0.20543426731E+02  0.00000000000E+00 0. -1.
         25    2    1    2    0    0 -0.25724474717E+02 -0.11472285822E+03  0.11860321691E+04  0.11983815855E+04  0.12499214261E+03 0.  0.
         23    2    1    2    0    0  0.25724474717E+02  0.11472285822E+03  0.33316924125E+03  0.36190667824E+03  0.78432248703E+02 0.  0.
          5    1    3    3  502    0 -0.45842119382E+01 -0.11532198690E+03  0.11536640910E+04  0.11594322320E+04  0.47000000000E+01 0.  1.
         -5    1    3    3    0  502 -0.21140262779E+02  0.59912867804E+00  0.32368078002E+02  0.38949353513E+02  0.47000000000E+01 0.  1.
          5    1    4    4  503    0 -0.17919477038E+02  0.51366505813E+02  0.77025604235E+02  0.94417473407E+02  0.47000000000E+01 0. -1.
         -5    1    4    4    0  503  0.43643951755E+02  0.63356352409E+02  0.25614363702E+03  0.26748920483E+03  0.47000000000E+01 0.  1.
<mgrwt>
<rscale>  0 0.16347282E+03</rscale>
<asrwt>0</asrwt>
<pdfrwt beam="1">  1        1 0.23688373E+00 0.17159871E+03</pdfrwt>
<pdfrwt beam="2">  1       -1 0.31605284E-02 0.17159871E+03</pdfrwt>
<totfact> 0.23480517E+03</totfact>
</mgrwt>
</event>
<event>
 8    1  0.2018715E-005  0.1391008E+03  0.7546771E-02  0.1232853E+00
         -1   -1    0    0    0  501 -0.00000000000E+00  0.00000000000E+00  0.79186113145E+02  0.79186113145E+02  0.00000000000E+00 0.  1.
          1   -1    0    0  501    0  0.00000000000E+00 -0.00000000000E+00 -0.20991747625E+03  0.20991747625E+03  0.00000000000E+00 0. -1.
         25    2    1    2    0    0  0.15527038890E+02  0.58996395369E+02 -0.13532052137E+03  0.19406359097E+03  0.12500948057E+03 0.  0.
         23    2    1    2    0    0 -0.15527038890E+02 -0.58996395369E+02  0.45891582611E+01  0.95039998428E+02  0.72731542843E+02 0.  0.
          5    1    3    3  502    0 -0.58662599497E+01  0.49908760634E+02  0.59458446605E+01  0.50820669639E+02  0.47000000000E+01 0.  1.
         -5    1    4    4    0  503 -0.16864853560E+02 -0.37191545216E+02  0.37245457684E+02  0.55470248235E+02  0.47000000000E+01 0.  1.
          5    1    4    4  503    0  0.13378146703E+01 -0.21804850153E+02 -0.32656299423E+02  0.39569750193E+02  0.47000000000E+01 0. -1.
         -5    1    3    3    0  502  0.21393298840E+02  0.90876347346E+01 -0.14126636603E+03  0.14324292133E+03  0.47000000000E+01 0.  1.
<mgrwt>
<rscale>  0 0.12642912E+03</rscale>
<asrwt>0</asrwt>
<pdfrwt beam="1">  1        1 0.32294996E-01 0.13910080E+03</pdfrwt>
<pdfrwt beam="2">  1       -1 0.12182479E-01 0.13910080E+03</pdfrwt>
<totfact> 0.58897958E+03</totfact>
</mgrwt>
</event>
<event>
 7    1  0.2018715E-005  0.2679855E+03  0.7546771E-02  0.1104255E+00
          1   -1    0    0  501    0  0.00000000000E+00  0.00000000000E+00  0.11291169856E+03  0.11291169856E+03  0.00000000000E+00 0. -1.
         -1   -1    0    0    0  501 -0.00000000000E+00 -0.00000000000E+00 -0.64332570550E+03  0.64332570550E+03  0.00000000000E+00 0.  1.
         25    2    1    2    0    0  0.89708194557E+02  0.20425460839E+03 -0.16985005455E+03  0.30699073385E+03  0.12500705747E+03 0.  0.
          5    1    3    3  502    0  0.46691275988E+02  0.35150970177E+01 -0.13693417928E+02  0.49010517799E+02  0.47000000000E+01 0.  1.
         -5    1    1    2    0  503 -0.94894982958E+02 -0.40279621880E+02 -0.12400390047E+03  0.16132750250E+03  0.47000000000E+01 0.  1.
          5    1    1    2  503    0  0.51867884014E+01 -0.16397498651E+03 -0.23656005192E+03  0.28791916772E+03  0.47000000000E+01 0. -1.
         -5    1    3    3    0  502  0.43016918569E+02  0.20073951138E+03 -0.15615663663E+03  0.25798021605E+03  0.47000000000E+01 0.  1.
<mgrwt>
<rscale>  0 0.26486580E+03</rscale>
<asrwt>0</asrwt>
<pdfrwt beam="1">  1        1 0.17371031E-01 0.26798546E+03</pdfrwt>
<pdfrwt beam="2">  1       -1 0.98973185E-01 0.26798546E+03</pdfrwt>
<totfact> 0.31776565E+02</totfact>
</mgrwt>
</event>
<event>
 8    1  0.2018715E-005  0.1343110E+03  0.7546771E-02  0.1223978E+00
          4   -1    0    0  501    0  0.00000000000E+00  0.00000000000E+00  0.16520034428E+02  0.16520034428E+02  0.00000000000E+00 0. -1.
         -4   -1    0    0    0  501 -0.00000000000E+00 -0.00000000000E+00 -0.10397374788E+04  0.10397374788E+04  0.00000000000E+00 0.  1.
         25    2    1    2    0    0  0.38685822881E+02  0.30248769672E+02 -0.57435163851E+03  0.58984679284E+03  0.12501141313E+03 0.  0.
         23    2    1    2    0    0 -0.38685822881E+02 -0.30248769672E+02 -0.44886580586E+03  0.46641072038E+03  0.11681980763E+03 0.  0.
          5    1    4    4  502    0 -0.71417538607E+02 -0.46395350081E+01 -0.17126016983E+03  0.18567209234E+03  0.47000000000E+01 0. -1.
         -5    1    4    4    0  502  0.32731715726E+02 -0.25609234664E+02 -0.27760563603E+03  0.28073862803E+03  0.47000000000E+01 0.  1.
          5    1    3    3  503    0  0.57386056525E+02  0.67348931221E+02 -0.45040352094E+03  0.45903644702E+03  0.47000000000E+01 0. -1.
         -5    1    3    3    0  503 -0.18700233644E+02 -0.37100161549E+02 -0.12394811757E+03  0.13081034582E+03  0.47000000000E+01 0. -1.
<mgrwt>
<rscale>  0 0.13237213E+03</rscale>
<asrwt>0</asrwt>
<pdfrwt beam="1">  1        4 0.25415428E-02 0.13431096E+03</pdfrwt>
<pdfrwt beam="2">  1       -4 0.15995967E+00 0.13431096E+03</pdfrwt>
<totfact> 0.31443535E+02</totfact>
</mgrwt>
</event>
<event>
 8    1  0.2018715E-005  0.1429065E+03  0.7546771E-02  0.1225594E+00
         -1   -1    0    0    0  501 -0.00000000000E+00  0.00000000000E+00  0.36987699772E+02  0.36987699772E+02  0.00000000000E+00 0.  1.
          1   -1    0    0  501    0  0.00000000000E+00 -0.00000000000E+00 -0.44176478881E+03  0.44176478881E+03  0.00000000000E+00 0. -1.
         25    2    1    2    0    0  0.66973069904E+02 -0.17679243602E+02 -0.16495019612E+03  0.21824488254E+03  0.12499725520E+03 0.  0.
         23    2    1    2    0    0 -0.66973069904E+02  0.17679243602E+02 -0.23982689292E+03  0.26050760604E+03  0.74493801697E+02 0.  0.
          5    1    3    3  502    0  0.10278112487E+03 -0.46923530414E+00 -0.11756279996E+03  0.15622830008E+03  0.47000000000E+01 0.  1.
         -5    1    3    3    0  502 -0.35808054962E+02 -0.17210008298E+02 -0.47387396158E+02  0.62016582463E+02  0.47000000000E+01 0.  1.
          5    1    4    4  503    0 -0.42637918933E+01 -0.20303425116E+02 -0.10332029058E+03  0.10548735203E+03  0.47000000000E+01 0. -1.
         -5    1    4    4    0  503 -0.62709278011E+02  0.37982668717E+02 -0.13650660234E+03  0.15502025401E+03  0.47000000000E+01 0.  1.
<mgrwt>
<rscale>  0 0.13126296E+03</rscale>
<asrwt>0</asrwt>
<pdfrwt beam="1">  1        1 0.67963808E-01 0.14290648E+03</pdfrwt>
<pdfrwt beam="2">  1       -1 0.56904158E-02 0.14290648E+03</pdfrwt>
<totfact> 0.73883140E+03</totfact>
</mgrwt>
</event>
<event>
 8    1  0.2018715E-005  0.3430200E+03  0.7546771E-02  0.1067114E+00
          1   -1    0    0  501    0  0.00000000000E+00  0.00000000000E+00  0.14186883095E+04  0.14186883095E+04  0.00000000000E+00 0. -1.
         -1   -1    0    0    0  501 -0.00000000000E+00 -0.00000000000E+00 -0.88810005620E+02  0.88810005620E+02  0.00000000000E+00 0.  1.
         25    2    1    2    0    0 -0.25043733796E+03 -0.19828693708E+03  0.43267377040E+03  0.55214972616E+03  0.12500463529E+03 0.  0.
         23    2    1    2    0    0  0.25043733796E+03  0.19828693708E+03  0.89720453352E+03  0.95534858900E+03  0.75355038868E+02 0.  0.
          5    1    3    3  502    0 -0.18244457007E+03 -0.13320769435E+03  0.38532987011E+03  0.44668950041E+03  0.47000000000E+01 0.  1.
         -5    1    4    4    0  503  0.10930409461E+03  0.11591103821E+03  0.35738104157E+03  0.39131324122E+03  0.47000000000E+01 0.  1.
          5    1    4    4  503    0  0.14113324335E+03  0.82375898867E+02  0.53982349195E+03  0.56403534779E+03  0.47000000000E+01 0. -1.
         -5    1    3    3    0  502 -0.67992767890E+02 -0.65079242725E+02  0.47343900293E+02  0.10546022574E+03  0.47000000000E+01 0.  1.
<mgrwt>
<rscale>  0 0.33925331E+03</rscale>
<asrwt>0</asrwt>
<pdfrwt beam="1">  1        1 0.21825972E+00 0.34302001E+03</pdfrwt>
<pdfrwt beam="2">  1       -1 0.13663079E-01 0.34302001E+03</pdfrwt>
<totfact> 0.30076793E+02</totfact>
</mgrwt>
</event>
<event>
 8    1  0.2018715E-005  0.1283334E+03  0.7546771E-02  0.1250825E+00
          2   -1    0    0  501    0  0.00000000000E+00  0.00000000000E+00  0.27482747830E+03  0.27482747830E+03  0.00000000000E+00 0. -1.
         -2   -1    0    0    0  501 -0.00000000000E+00 -0.00000000000E+00 -0.49456573629E+02  0.49456573629E+02  0.00000000000E+00 0.  1.
         25    2    1    2    0    0 -0.16104593723E+02  0.24166068221E+02  0.19795651430E+03  0.23591577299E+03  0.12500445433E+03 0.  0.
         23    2    1    2    0    0  0.16104593723E+02 -0.24166068221E+02  0.27414390379E+02  0.88368278941E+02  0.78829227644E+02 0.  0.
          5    1    3    3  502    0  0.36301216289E+02 -0.31763772411E+02  0.10270930451E+03  0.11356939190E+03  0.47000000000E+01 0. -1.
         -5    1    3    3    0  502 -0.52405810012E+02  0.55929840632E+02  0.95247209783E+02  0.12234638110E+03  0.47000000000E+01 0. -1.
          5    1    4    4  503    0  0.44949954793E+02 -0.24251975066E+02  0.29321160964E+02  0.59080260754E+02  0.47000000000E+01 0. -1.
         -5    1    4    4    0  503 -0.28845361070E+02  0.85906845814E-01 -0.19067705848E+01  0.29288018187E+02  0.47000000000E+01 0.  1.
<mgrwt>
<rscale>  0 0.11543446E+03</rscale>
<asrwt>0</asrwt>
<pdfrwt beam="1">  1        2 0.42281150E-01 0.12833343E+03</pdfrwt>
<pdfrwt beam="2">  1       -2 0.76087038E-02 0.12833343E+03</pdfrwt>
<totfact> 0.11549527E+04</totfact>
</mgrwt>
</event>
<event>
 8    1  0.2018715E-005  0.1334283E+03  0.7546771E-02  0.1225742E+00
          2   -1    0    0  501    0  0.00000000000E+00  0.00000000000E+00  0.11594783478E+03  0.11594783478E+03  0.00000000000E+00 0. -1.
         -2   -1    0    0    0  501 -0.00000000000E+00 -0.00000000000E+00 -0.19441158702E+03  0.19441158702E+03  0.00000000000E+00 0.  1.
         25    2    1    2    0    0  0.39033233916E+02 -0.25585553131E+02 -0.11956759703E+03  0.17916340718E+03  0.12499960933E+03 0.  0.
         23    2    1    2    0    0 -0.39033233916E+02  0.25585553131E+02  0.41103844800E+02  0.13119601463E+03  0.11551906474E+03 0.  0.
          5    1    4    4  502    0 -0.75343233257E+02 -0.66851422057E+01  0.24754454372E+02  0.79725572655E+02  0.47000000000E+01 0. -1.
         -5    1    3    3    0  503  0.74795373029E+02  0.83589592847E+01 -0.10148864418E+03  0.12643676255E+03  0.47000000000E+01 0.  1.
          5    1    3    3  503    0 -0.35762139112E+02 -0.33944512415E+02 -0.18078952851E+02  0.52726644623E+02  0.47000000000E+01 0.  1.
         -5    1    4    4    0  502  0.36309999340E+02  0.32270695336E+02  0.16349390428E+02  0.51470441973E+02  0.47000000000E+01 0.  1.
<mgrwt>
<rscale>  0 0.13116184E+03</rscale>
<asrwt>0</asrwt>
<pdfrwt beam="1">  1        2 0.17838128E-01 0.13342832E+03</pdfrwt>
<pdfrwt beam="2">  1       -2 0.29909475E-01 0.13342832E+03</pdfrwt>
<totfact> 0.31365907E+03</totfact>
</mgrwt>
</event>
<event>
 8    1  0.2018715E-005  0.1655010E+03  0.7546771E-02  0.1192210E+00
          2   -1    0    0  501    0  0.00000000000E+00  0.00000000000E+00  0.21350434787E+03  0.21350434787E+03  0.00000000000E+00 0. -1.
         -2   -1    0    0    0  501 -0.00000000000E+00 -0.00000000000E+00 -0.12539002508E+03  0.12539002508E+03  0.00000000000E+00 0.  1.
         25    2    1    2    0    0  0.18954574649E+02  0.10680896510E+03 -0.20244197941E+02  0.16673458773E+03  0.12499265686E+03 0.  0.
         23    2    1    2    0    0 -0.18954574649E+02 -0.10680896510E+03  0.10835852073E+03  0.17215978522E+03  0.78294263557E+02 0.  0.
          5    1    3    3  502    0 -0.37438439184E+02 -0.69064591637E+01 -0.19757825224E+01  0.38410019830E+02  0.47000000000E+01 0.  1.
         -5    1    4    4    0  503 -0.30628779956E+02 -0.65858444116E+02  0.22460021351E+02  0.76170856514E+02  0.47000000000E+01 0.  1.
          5    1    4    4  503    0  0.11674205307E+02 -0.40950520988E+02  0.85898499382E+02  0.95988928709E+02  0.47000000000E+01 0. -1.
         -5    1    3    3    0  502  0.56393013834E+02  0.11371542427E+03 -0.18268415419E+02  0.12832456790E+03  0.47000000000E+01 0.  1.
<mgrwt>
<rscale>  0 0.15692761E+03</rscale>
<asrwt>0</asrwt>
<pdfrwt beam="1">  1        2 0.32846823E-01 0.16550104E+03</pdfrwt>
<pdfrwt beam="2">  1       -2 0.19290773E-01 0.16550104E+03</pdfrwt>
<totfact> 0.34537997E+03</totfact>
</mgrwt>
</event>
<event>
 8    1  0.2018715E-005  0.1256890E+03  0.7546771E-02  0.1262801E+00
          2   -1    0    0  501    0  0.00000000000E+00  0.00000000000E+00  0.50915248764E+03  0.50915248764E+03  0.00000000000E+00 0. -1.
         -2   -1    0    0    0  501 -0.00000000000E+00 -0.00000000000E+00 -0.19260883083E+02  0.19260883083E+02  0.00000000000E+00 0.  1.
         25    2    1    2    0    0  0.77822668888E+00  0.13073399494E+02  0.34651490932E+03  0.36860589258E+03  0.12500480892E+03 0.  0.
         23    2    1    2    0    0 -0.77822668888E+00 -0.13073399494E+02  0.14337669523E+03  0.15980747814E+03  0.69354408089E+02 0.  0.
          5    1    4    4  502    0  0.19533033765E+02  0.21943822003E+02  0.64163921592E+02  0.70726017605E+02  0.47000000000E+01 0. -1.
         -5    1    4    4    0  502 -0.20311260454E+02 -0.35017221497E+02  0.79212773643E+02  0.89081460534E+02  0.47000000000E+01 0.  1.
          5    1    3    3  503    0 -0.61841716227E+02  0.98800245737E+01  0.17086715218E+03  0.18204308953E+03  0.47000000000E+01 0.  1.
         -5    1    3    3    0  503  0.62619942916E+02  0.31933749203E+01  0.17564775713E+03  0.18656280305E+03  0.47000000000E+01 0.  1.
<mgrwt>
<rscale>  0 0.10880366E+03</rscale>
<asrwt>0</asrwt>
<pdfrwt beam="1">  1        2 0.78331142E-01 0.12568899E+03</pdfrwt>
<pdfrwt beam="2">  1       -2 0.29632132E-02 0.12568899E+03</pdfrwt>
<totfact> 0.24493721E+04</totfact>
</mgrwt>
</event>
<event>
 8    1  0.2018715E-005  0.1438007E+03  0.7546771E-02  0.1224757E+00
          2   -1    0    0  501    0  0.00000000000E+00  0.00000000000E+00  0.18587602156E+03  0.18587602156E+03  0.00000000000E+00 0. -1.
         -2   -1    0    0    0  501 -0.00000000000E+00 -0.00000000000E+00 -0.11001468769E+03  0.11001468769E+03  0.00000000000E+00 0.  1.
         25    2    1    2    0    0  0.70395933183E+02 -0.98848295948E+01  0.11789196812E+03  0.18594930717E+03  0.12500132569E+03 0.  0.
         23    2    1    2    0    0 -0.70395933183E+02  0.98848295948E+01 -0.42030634242E+02  0.10994140208E+03  0.72575756364E+02 0.  0.
          5    1    4    4  502    0 -0.60694185796E+02 -0.18471368016E+02 -0.76253933968E+01  0.64071930284E+02  0.47000000000E+01 0. -1.
         -5    1    3    3    0  503  0.15207208816E+02 -0.53578459622E+02  0.96097302324E+01  0.56712850841E+02  0.47000000000E+01 0. -1.
          5    1    3    3  503    0  0.55188724367E+02  0.43693630027E+02  0.10828223789E+03  0.12923645633E+03  0.47000000000E+01 0. -1.
         -5    1    4    4    0  502 -0.97017473874E+01  0.28356197611E+02 -0.34405240845E+02  0.45869471797E+02  0.47000000000E+01 0.  1.
<mgrwt>
<rscale>  0 0.13183582E+03</rscale>
<asrwt>0</asrwt>
<pdfrwt beam="1">  1        2 0.28596311E-01 0.14380066E+03</pdfrwt>
<pdfrwt beam="2">  1       -2 0.16925337E-01 0.14380066E+03</pdfrwt>
<totfact> 0.49598871E+03</totfact>
</mgrwt>
</event>
<event>
 8    1  0.2018715E-005  0.1694083E+03  0.7546771E-02  0.1180712E+00
          2   -1    0    0  501    0  0.00000000000E+00  0.00000000000E+00  0.94621880827E+03  0.94621880827E+03  0.00000000000E+00 0. -1.
         -2   -1    0    0    0  501 -0.00000000000E+00 -0.00000000000E+00 -0.30215305152E+02  0.30215305152E+02  0.00000000000E+00 0.  1.
         25    2    1    2    0    0  0.58885940643E+02  0.98020103848E+02  0.57261064935E+03  0.59714496813E+03  0.12499464971E+03 0.  0.
         23    2    1    2    0    0 -0.58885940643E+02 -0.98020103848E+02  0.34339285377E+03  0.37928914529E+03  0.11342887177E+03 0.  0.
          5    1    3    3  502    0  0.72794222387E+02  0.28494120090E+01  0.25763973063E+03  0.26778244670E+03  0.47000000000E+01 0.  1.
         -5    1    4    4    0  503 -0.77847592335E+02 -0.76977049253E+02  0.16164229299E+03  0.19528449664E+03  0.47000000000E+01 0.  1.
          5    1    4    4  503    0  0.18961651692E+02 -0.21043054595E+02  0.18175056078E+03  0.18400464865E+03  0.47000000000E+01 0. -1.
         -5    1    3    3    0  502 -0.13908281744E+02  0.95170691839E+02  0.31497091872E+03  0.32936252143E+03  0.47000000000E+01 0.  1.
<mgrwt>
<rscale>  0 0.16728251E+03</rscale>
<asrwt>0</asrwt>
<pdfrwt beam="1">  1        2 0.14557210E+00 0.16940826E+03</pdfrwt>
<pdfrwt beam="2">  1       -2 0.46485092E-02 0.16940826E+03</pdfrwt>
<totfact> 0.60891449E+03</totfact>
</mgrwt>
</event>
<event>
 7    1  0.2018715E-005  0.1340084E+03  0.7546771E-02  0.1254180E+00
         -1   -1    0    0    0  501 -0.00000000000E+00  0.00000000000E+00  0.21949524583E+02  0.21949524583E+02  0.00000000000E+00 0.  1.
          1   -1    0    0  501    0  0.00000000000E+00 -0.00000000000E+00 -0.52858533842E+03  0.52858533842E+03  0.00000000000E+00 0. -1.
         25    2    1    2    0    0  0.48252044245E+02 -0.14495005553E+01 -0.23758048421E+03  0.27276866270E+03  0.12501158365E+03 0.  0.
          5    1    3    3  502    0 -0.85960017709E+01  0.53445670513E+02 -0.10850053952E+03  0.12134573754E+03  0.47000000000E+01 0. -1.
         -5    1    3    3    0  502  0.56848046015E+02 -0.54895171068E+02 -0.12907994470E+03  0.15142292516E+03  0.47000000000E+01 0. -1.
          5    1    1    2  503    0 -0.24022336856E+02  0.13740410308E+02 -0.21747279954E+03  0.21927694836E+03  0.47000000000E+01 0. -1.
         -5    1    1    2    0  503 -0.24229707389E+02 -0.12290909753E+02 -0.51582530086E+02  0.58489251942E+02  0.47000000000E+01 0.  1.
<mgrwt>
<rscale>  0 0.11352394E+03</rscale>
<asrwt>0</asrwt>
<pdfrwt beam="1">  1        1 0.81320820E-01 0.13400842E+03</pdfrwt>
<pdfrwt beam="2">  1       -1 0.33768500E-02 0.13400842E+03</pdfrwt>
<totfact> 0.12575623E+04</totfact>
</mgrwt>
</event>
<event>
 8    1  0.2018715E-005  0.1639754E+03  0.7546771E-02  0.1186296E+00
         -1   -1    0    0    0  501 -0.00000000000E+00  0.00000000000E+00  0.89443041340E+02  0.89443041340E+02  0.00000000000E+00 0.  1.
          1   -1    0    0  501    0  0.00000000000E+00 -0.00000000000E+00 -0.38939179630E+03  0.38939179630E+03  0.00000000000E+00 0. -1.
         25    2    1    2    0    0 -0.23933265136E+02  0.10337730844E+03 -0.27486929409E+03  0.32006416564E+03  0.12501308816E+03 0.  0.
         23    2    1    2    0    0  0.23933265136E+02 -0.10337730844E+03 -0.25079460866E+02  0.15877067200E+03  0.11541004224E+03 0.  0.
          5    1    4    4  502    0  0.53465105929E+02 -0.16501171144E+02 -0.35300732650E+02  0.66325243511E+02  0.47000000000E+01 0. -1.
         -5    1    4    4    0  502 -0.29531840794E+02 -0.86876137294E+02  0.10221271784E+02  0.92445428489E+02  0.47000000000E+01 0.  1.
          5    1    3    3  503    0 -0.73746477385E+02  0.78302297027E+02 -0.19050379387E+03  0.21882316634E+03  0.47000000000E+01 0. -1.
         -5    1    3    3    0  503  0.49813212250E+02  0.25075011411E+02 -0.84365500222E+02  0.10124099930E+03  0.47000000000E+01 0. -1.
<mgrwt>
<rscale>  0 0.16214551E+03</rscale>
<asrwt>0</asrwt>
<pdfrwt beam="1">  1        1 0.59906430E-01 0.16397543E+03</pdfrwt>
<pdfrwt beam="2">  1       -1 0.13760468E-01 0.16397543E+03</pdfrwt>
<totfact> 0.22756887E+03</totfact>
</mgrwt>
</event>
<event>
 7    1  0.2018715E-005  0.1800147E+03  0.7546771E-02  0.1179984E+00
          2   -1    0    0  501    0  0.00000000000E+00  0.00000000000E+00  0.22591115410E+03  0.22591115410E+03  0.00000000000E+00 0. -1.
         -2   -1    0    0    0  501 -0.00000000000E+00 -0.00000000000E+00 -0.11747336277E+03  0.11747336277E+03  0.00000000000E+00 0.  1.
         25    2    1    2    0    0 -0.28678348841E+02 -0.12632280842E+03  0.10172056143E+03  0.20676647099E+03  0.12500160514E+03 0.  0.
          5    1    3    3  502    0  0.35830755884E+02 -0.51152985279E+02 -0.27938090803E+01  0.62692633853E+02  0.47000000000E+01 0. -1.
         -5    1    3    3    0  502 -0.64509104726E+02 -0.75169823145E+02  0.10451437051E+03  0.14407383714E+03  0.47000000000E+01 0. -1.
          5    1    1    2  503    0 -0.25198370445E+01  0.73823196857E+02  0.12620055197E+02  0.75083751679E+02  0.47000000000E+01 0. -1.
         -5    1    1    2    0  503  0.31198185886E+02  0.52499611567E+02 -0.59028252986E+01  0.61534294208E+02  0.47000000000E+01 0.  1.
<mgrwt>
<rscale>  0 0.16796804E+03</rscale>
<asrwt>0</asrwt>
<pdfrwt beam="1">  1        2 0.34755562E-01 0.18001472E+03</pdfrwt>
<pdfrwt beam="2">  1       -2 0.18072825E-01 0.18001472E+03</pdfrwt>
<totfact> 0.36411401E+03</totfact>
</mgrwt>
</event>
<event>
 8    1  0.2018715E-005  0.1492985E+03  0.7546771E-02  0.1214614E+00
          2   -1    0    0  501    0  0.00000000000E+00  0.00000000000E+00  0.68558548064E+03  0.68558548064E+03  0.00000000000E+00 0. -1.
         -2   -1    0    0    0  501 -0.00000000000E+00 -0.00000000000E+00 -0.28318954957E+02  0.28318954957E+02  0.00000000000E+00 0.  1.
         25    2    1    2    0    0 -0.79542900749E+02 -0.18406335835E+02  0.49139051808E+03  0.51357052500E+03  0.12499670650E+03 0.  0.
         23    2    1    2    0    0  0.79542900749E+02  0.18406335835E+02  0.16587600761E+03  0.20033391059E+03  0.77155424802E+02 0.  0.
          5    1    4    4  502    0  0.15928439686E+02 -0.22669484658E+02  0.84621080352E+02  0.89165228455E+02  0.47000000000E+01 0. -1.
         -5    1    4    4    0  502  0.63614461064E+02  0.41075820493E+02  0.81254927253E+02  0.11116868214E+03  0.47000000000E+01 0.  1.
          5    1    3    3  503    0 -0.24973634727E+02  0.21150883700E+02  0.22865010875E+02  0.40198769074E+02  0.47000000000E+01 0.  1.
         -5    1    3    3    0  503 -0.54569266022E+02 -0.39557219535E+02  0.46852550720E+03  0.47337175593E+03  0.47000000000E+01 0.  1.
<mgrwt>
<rscale>  0 0.13904935E+03</rscale>
<asrwt>0</asrwt>
<pdfrwt beam="1">  1        2 0.10547468E+00 0.14929850E+03</pdfrwt>
<pdfrwt beam="2">  1       -2 0.43567628E-02 0.14929850E+03</pdfrwt>
<totfact> 0.10005041E+04</totfact>
</mgrwt>
</event>
<event>
 7    1  0.2018715E-005  0.2066369E+03  0.7546771E-02  0.1146786E+00
          2   -1    0    0  501    0  0.00000000000E+00  0.00000000000E+00  0.28403695375E+03  0.28403695375E+03  0.00000000000E+00 0.  1.
         -2   -1    0    0    0  501 -0.00000000000E+00 -0.00000000000E+00 -0.18653472449E+03  0.18653472449E+03  0.00000000000E+00 0. -1.
         25    2    1    2    0    0  0.12652585922E+03  0.78770966795E+02  0.16301423250E+03  0.25379843187E+03  0.12500538292E+03 0.  0.
          5    1    1    2  502    0 -0.14017118302E+03 -0.31854748556E+02 -0.81300646617E+02  0.16521068578E+03  0.47000000000E+01 0. -1.
         -5    1    3    3    0  503  0.98124840296E+02  0.95050372483E+02  0.17183260968E+03  0.21957138553E+03  0.47000000000E+01 0.  1.
          5    1    3    3  503    0  0.28401018920E+02 -0.16279405688E+02 -0.88183771769E+01  0.34227046342E+02  0.47000000000E+01 0.  1.
         -5    1    1    2    0  502  0.13645323806E+02 -0.46916218239E+02  0.15788643365E+02  0.51562560594E+02  0.47000000000E+01 0.  1.
<mgrwt>
<rscale>  0 0.20354003E+03</rscale>
<asrwt>0</asrwt>
<pdfrwt beam="1">  1        2 0.43697993E-01 0.20663692E+03</pdfrwt>
<pdfrwt beam="2">  1       -2 0.28697650E-01 0.20663692E+03</pdfrwt>
<totfact> 0.12802403E+03</totfact>
</mgrwt>
</event>
<event>
 8    1  0.2018715E-005  0.1347154E+03  0.7546771E-02  0.1245149E+00
         -1   -1    0    0    0  501 -0.00000000000E+00  0.00000000000E+00  0.44894948357E+02  0.44894948357E+02  0.00000000000E+00 0.  1.
          1   -1    0    0  501    0  0.00000000000E+00 -0.00000000000E+00 -0.49933153678E+03  0.49933153678E+03  0.00000000000E+00 0. -1.
         25    2    1    2    0    0 -0.49200508007E+02 -0.10048037367E+02 -0.44178986384E+03  0.46187285348E+03  0.12500638364E+03 0.  0.
         23    2    1    2    0    0  0.49200508007E+02  0.10048037367E+02 -0.12646724583E+02  0.82353631653E+02  0.64035364921E+02 0.  0.
          5    1    4    4  502    0  0.23954103254E+02  0.16730304034E+02 -0.36280447167E+02  0.46819472257E+02  0.47000000000E+01 0. -1.
         -5    1    4    4    0  502  0.25246404753E+02 -0.66822666674E+01  0.23633722584E+02  0.35534159396E+02  0.47000000000E+01 0.  1.
          5    1    3    3  503    0 -0.55619422048E+02  0.43601397378E+02 -0.33133308703E+03  0.33881898784E+03  0.47000000000E+01 0.  1.
         -5    1    3    3    0  503  0.64189140405E+01 -0.53649434745E+02 -0.11045677681E+03  0.12305386564E+03  0.47000000000E+01 0.  1.
<mgrwt>
<rscale>  0 0.11876491E+03</rscale>
<asrwt>0</asrwt>
<pdfrwt beam="1">  1        1 0.76820235E-01 0.13471544E+03</pdfrwt>
<pdfrwt beam="2">  1       -1 0.69069153E-02 0.13471544E+03</pdfrwt>
<totfact> 0.47078678E+03</totfact>
</mgrwt>
</event>
<event>
 8    1  0.2018715E-005  0.1357054E+03  0.7546771E-02  0.1221980E+00
          1   -1    0    0  501    0  0.00000000000E+00  0.00000000000E+00  0.26510584445E+03  0.26510584445E+03  0.00000000000E+00 0. -1.
         -1   -1    0    0    0  501 -0.00000000000E+00 -0.00000000000E+00 -0.22452748576E+03  0.22452748576E+03  0.00000000000E+00 0.  1.
         25    2    1    2    0    0 -0.50320451881E+02 -0.16095387032E+02 -0.18547020519E+03  0.22981545396E+03  0.12499894601E+03 0.  0.
         23    2    1    2    0    0  0.50320451881E+02  0.16095387032E+02  0.22604856387E+03  0.25981787625E+03  0.11668832944E+03 0.  0.
          5    1    3    3  502    0  0.42346792494E+01  0.46425854333E+02 -0.37142568821E+02  0.59790909656E+02  0.47000000000E+01 0.  1.
         -5    1    4    4    0  503  0.47495585360E+02  0.38840694143E+02  0.42501686124E+02  0.74785783900E+02  0.47000000000E+01 0.  1.
          5    1    4    4  503    0  0.28248665215E+01 -0.22745307111E+02  0.18354687775E+03  0.18503209235E+03  0.47000000000E+01 0. -1.
         -5    1    3    3    0  502 -0.54555131131E+02 -0.62521241365E+02 -0.14832763637E+03  0.17002454430E+03  0.47000000000E+01 0.  1.
<mgrwt>
<rscale>  0 0.13376043E+03</rscale>
<asrwt>0</asrwt>
<pdfrwt beam="1">  1        1 0.40785515E-01 0.13570536E+03</pdfrwt>
<pdfrwt beam="2">  1       -1 0.34542690E-01 0.13570536E+03</pdfrwt>
<totfact> 0.81781964E+02</totfact>
</mgrwt>
</event>
<event>
 8    1  0.2018715E-005  0.1511013E+03  0.7546771E-02  0.1204231E+00
          1   -1    0    0  501    0  0.00000000000E+00  0.00000000000E+00  0.50623336572E+02  0.50623336572E+02  0.00000000000E+00 0. -1.
         -1   -1    0    0    0  501 -0.00000000000E+00 -0.00000000000E+00 -0.43371999780E+03  0.43371999780E+03  0.00000000000E+00 0.  1.
         25    2    1    2    0    0  0.26314467597E+02  0.80711516271E+02 -0.13924400229E+03  0.20547625472E+03  0.12499919605E+03 0.  0.
         23    2    1    2    0    0 -0.26314467597E+02 -0.80711516271E+02 -0.24385265894E+03  0.27886707966E+03  0.10533721461E+03 0.  0.
          5    1    4    4  502    0  0.30184288455E+02 -0.67125860391E+02 -0.16564581052E+03  0.18132180494E+03  0.47000000000E+01 0. -1.
         -5    1    4    4    0  502 -0.56498756052E+02 -0.13585655880E+02 -0.78206848419E+02  0.97545274722E+02  0.47000000000E+01 0.  1.
          5    1    3    3  503    0  0.97404735232E+01 -0.29462560415E+02 -0.63964468179E+01  0.32030045622E+02  0.47000000000E+01 0. -1.
         -5    1    3    3    0  503  0.16573994074E+02  0.11017407669E+03 -0.13284755548E+03  0.17344620909E+03  0.47000000000E+01 0. -1.
<mgrwt>
<rscale>  0 0.14698249E+03</rscale>
<asrwt>0</asrwt>
<pdfrwt beam="1">  1        1 0.77882059E-02 0.15110129E+03</pdfrwt>
<pdfrwt beam="2">  1       -1 0.66726152E-01 0.15110129E+03</pdfrwt>
<totfact> 0.20766375E+03</totfact>
</mgrwt>
</event>
<event>
 8    1  0.2018715E-005  0.1803498E+03  0.7546771E-02  0.1175005E+00
          1   -1    0    0  501    0  0.00000000000E+00  0.00000000000E+00  0.25615887736E+02  0.25615887736E+02  0.00000000000E+00 0. -1.
         -1   -1    0    0    0  501 -0.00000000000E+00 -0.00000000000E+00 -0.11373266787E+04  0.11373266787E+04  0.00000000000E+00 0.  1.
         25    2    1    2    0    0  0.12905947497E+03  0.15660641755E+02 -0.73455268061E+03  0.75636874672E+03  0.12499774652E+03 0.  0.
         23    2    1    2    0    0 -0.12905947497E+03 -0.15660641755E+02 -0.37715811037E+03  0.40657381974E+03  0.78437407518E+02 0.  0.
          5    1    4    4  502    0 -0.95924652365E+02  0.14141559266E+02 -0.18128783190E+03  0.20564262842E+03  0.47000000000E+01 0. -1.
         -5    1    3    3    0  503 -0.33635680677E+01 -0.31241654993E+02 -0.24449914673E+03  0.24655481612E+03  0.47000000000E+01 0. -1.
          5    1    3    3  503    0  0.13242304304E+03  0.46902296748E+02 -0.49005353388E+03  0.50981393060E+03  0.47000000000E+01 0. -1.
         -5    1    4    4    0  502 -0.33134822603E+02 -0.29802201021E+02 -0.19587027847E+03  0.20093119131E+03  0.47000000000E+01 0.  1.
<mgrwt>
<rscale>  0 0.17275477E+03</rscale>
<asrwt>0</asrwt>
<pdfrwt beam="1">  1        1 0.39409060E-02 0.18034977E+03</pdfrwt>
<pdfrwt beam="2">  1       -1 0.17497333E+00 0.18034977E+03</pdfrwt>
<totfact> 0.57360353E+02</totfact>
</mgrwt>
</event>
<event>
 8    1  0.2018715E-005  0.1559565E+03  0.7546771E-02  0.1204685E+00
         -1   -1    0    0    0  501 -0.00000000000E+00  0.00000000000E+00  0.25173543235E+03  0.25173543235E+03  0.00000000000E+00 0.  1.
          1   -1    0    0  501    0  0.00000000000E+00 -0.00000000000E+00 -0.88134214559E+02  0.88134214559E+02  0.00000000000E+00 0. -1.
         25    2    1    2    0    0  0.91256898269E+02  0.19251897002E+02  0.15150248398E+03  0.21742913826E+03  0.12499588191E+03 0.  0.
         23    2    1    2    0    0 -0.91256898269E+02 -0.19251897002E+02  0.12098733811E+02  0.12244050865E+03  0.78401797031E+02 0.  0.
          5    1    3    3  502    0  0.86998291788E+02 -0.29965561422E+01  0.16782462265E+03  0.18911603869E+03  0.47000000000E+01 0. -1.
         -5    1    3    3    0  502  0.42586064802E+01  0.22248453144E+02 -0.16322138671E+02  0.28313099570E+02  0.47000000000E+01 0. -1.
          5    1    4    4  503    0 -0.78590767890E+01 -0.34557585345E+02 -0.41129182773E+01  0.35986079108E+02  0.47000000000E+01 0. -1.
         -5    1    4    4    0  503 -0.83397821480E+02  0.15305688343E+02  0.16211652088E+02  0.86454429537E+02  0.47000000000E+01 0.  1.
<mgrwt>
<rscale>  0 0.14662270E+03</rscale>
<asrwt>0</asrwt>
<pdfrwt beam="1">  1        1 0.13559110E-01 0.15595649E+03</pdfrwt>
<pdfrwt beam="2">  1       -1 0.38728528E-01 0.15595649E+03</pdfrwt>
<totfact> 0.27129285E+03</totfact>
</mgrwt>
</event>
<event>
 8    1  0.2018715E-005  0.1405137E+03  0.7546771E-02  0.1213150E+00
          4   -1    0    0  501    0  0.00000000000E+00  0.00000000000E+00  0.40692330001E+03  0.40692330001E+03  0.00000000000E+00 0. -1.
         -4   -1    0    0    0  501 -0.00000000000E+00 -0.00000000000E+00 -0.54117474935E+02  0.54117474935E+02  0.00000000000E+00 0.  1.
         25    2    1    2    0    0 -0.14764095688E+02  0.58989117651E+02  0.98040896218E+02  0.17009530763E+03  0.12499080695E+03 0.  0.
         23    2    1    2    0    0  0.14764095688E+02 -0.58989117651E+02  0.25476492885E+03  0.29094546731E+03  0.12667439147E+03 0.  0.
          5    1    3    3  502    0 -0.10919796988E+02  0.82805004410E+02  0.16939943132E+02  0.85351991160E+02  0.47000000000E+01 0. -1.
         -5    1    4    4    0  503  0.22665164127E+02 -0.85326345871E+02  0.99118076956E+02  0.13281859111E+03  0.47000000000E+01 0.  1.
          5    1    4    4  503    0 -0.79010684393E+01  0.26337228220E+02  0.15564685190E+03  0.15812687620E+03  0.47000000000E+01 0. -1.
         -5    1    3    3    0  502 -0.38442986992E+01 -0.23815886759E+02  0.81100953086E+02  0.84743316468E+02  0.47000000000E+01 0. -1.
<mgrwt>
<rscale>  0 0.14013318E+03</rscale>
<asrwt>0</asrwt>
<pdfrwt beam="1">  1        4 0.62603583E-01 0.14051369E+03</pdfrwt>
<pdfrwt beam="2">  1       -4 0.83257656E-02 0.14051369E+03</pdfrwt>
<totfact> 0.41897301E+02</totfact>
</mgrwt>
</event>
<event>
 8    1  0.2018715E-005  0.1566122E+03  0.7546771E-02  0.1193210E+00
          1   -1    0    0  501    0  0.00000000000E+00  0.00000000000E+00  0.53532277302E+03  0.53532277302E+03  0.00000000000E+00 0.  1.
         -1   -1    0    0    0  501 -0.00000000000E+00 -0.00000000000E+00 -0.10673693258E+03  0.10673693258E+03  0.00000000000E+00 0. -1.
         25    2    1    2    0    0 -0.75228890747E+02  0.50666101691E+02  0.45744304043E+03  0.48281107428E+03  0.12500383333E+03 0.  0.
         23    2    1    2    0    0  0.75228890747E+02 -0.50666101691E+02 -0.28857199983E+02  0.15924863132E+03  0.12767516878E+03 0.  0.
          5    1    3    3  502    0  0.22025390827E+02  0.34010138435E+02  0.55320295040E+02  0.68733051734E+02  0.47000000000E+01 0.  1.
         -5    1    3    3    0  502 -0.97254281574E+02  0.16655963256E+02  0.40212274539E+03  0.41407802255E+03  0.47000000000E+01 0.  1.
          5    1    4    4  503    0  0.72797097338E+02 -0.11594941920E+02 -0.70353657049E+02  0.10200777970E+03  0.47000000000E+01 0. -1.
         -5    1    4    4    0  503  0.24317934089E+01 -0.39071159771E+02  0.41496457066E+02  0.57240851619E+02  0.47000000000E+01 0.  1.
<mgrwt>
<rscale>  0 0.15606688E+03</rscale>
<asrwt>0</asrwt>
<pdfrwt beam="1">  1        1 0.82357348E-01 0.15661222E+03</pdfrwt>
<pdfrwt beam="2">  1       -1 0.16421067E-01 0.15661222E+03</pdfrwt>
<totfact> 0.11406030E+03</totfact>
</mgrwt>
</event>
<event>
 7    1  0.2018715E-005  0.1771909E+03  0.7546771E-02  0.1171904E+00
         -1   -1    0    0    0  501 -0.00000000000E+00  0.00000000000E+00  0.66039183846E+02  0.66039183846E+02  0.00000000000E+00 0.  1.
          1   -1    0    0  501    0  0.00000000000E+00 -0.00000000000E+00 -0.56910284438E+03  0.56910284438E+03  0.00000000000E+00 0. -1.
         25    2    1    2    0    0 -0.11174785361E+03  0.37387354142E+02 -0.38673557969E+03  0.42317778433E+03  0.12501852469E+03 0.  0.
          5    1    1    2  502    0 -0.11638944029E+02 -0.31246889934E+02 -0.73980458249E+02  0.81283647504E+02  0.47000000000E+01 0. -1.
         -5    1    1    2    0  502  0.12338679764E+03 -0.61404642073E+01 -0.42347622593E+02  0.13068059639E+03  0.47000000000E+01 0.  1.
          5    1    3    3  503    0 -0.20568603642E+02  0.59854533234E+02 -0.78638858613E+02  0.10105341503E+03  0.47000000000E+01 0. -1.
         -5    1    3    3    0  503 -0.91179249973E+02 -0.22467179092E+02 -0.30809672108E+03  0.32212436931E+03  0.47000000000E+01 0. -1.
<mgrwt>
<rscale>  0 0.17582737E+03</rscale>
<asrwt>0</asrwt>
<pdfrwt beam="1">  1        1 0.87554284E-01 0.17719091E+03</pdfrwt>
<pdfrwt beam="2">  1       -1 0.10159874E-01 0.17719091E+03</pdfrwt>
<totfact> 0.22260149E+03</totfact>
</mgrwt>
</event>
<event>
 8    1  0.2018715E-005  0.1457567E+03  0.7546771E-02  0.1223973E+00
          1   -1    0    0  501    0  0.00000000000E+00  0.00000000000E+00  0.29184900561E+03  0.29184900561E+03  0.00000000000E+00 0. -1.
         -1   -1    0    0    0  501 -0.00000000000E+00 -0.00000000000E+00 -0.51384389415E+02  0.51384389415E+02  0.00000000000E+00 0.  1.
         25    2    1    2    0    0  0.74883000168E+02  0.34880226757E+01  0.14376122091E+03  0.20472497651E+03  0.12500158941E+03 0.  0.
         23    2    1    2    0    0 -0.74883000168E+02 -0.34880226757E+01  0.96703395282E+02  0.13850841851E+03  0.64910748900E+02 0.  0.
          5    1    3    3  502    0  0.34477580338E+02  0.34541475811E+02  0.14548008121E+03  0.15351990465E+03  0.47000000000E+01 0.  1.
         -5    1    3    3    0  502  0.40405419831E+02 -0.31053453135E+02 -0.17188602969E+01  0.51205071858E+02  0.47000000000E+01 0.  1.
          5    1    4    4  503    0 -0.49466274071E+02  0.17245893512E+02  0.22432196808E+02  0.57180648537E+02  0.47000000000E+01 0.  1.
         -5    1    4    4    0  503 -0.25416726097E+02 -0.20733916187E+02  0.74271198475E+02  0.81327769973E+02  0.47000000000E+01 0. -1.
<mgrwt>
<rscale>  0 0.13237545E+03</rscale>
<asrwt>0</asrwt>
<pdfrwt beam="1">  1        1 0.44899846E-01 0.14575674E+03</pdfrwt>
<pdfrwt beam="2">  1       -1 0.79052909E-02 0.14575674E+03</pdfrwt>
<totfact> 0.76011084E+03</totfact>
</mgrwt>
</event>
<event>
 8    1  0.2018715E-005  0.1559263E+03  0.7546771E-02  0.1197436E+00
         -1   -1    0    0    0  501 -0.00000000000E+00  0.00000000000E+00  0.13833678974E+03  0.13833678974E+03  0.00000000000E+00 0.  1.
          1   -1    0    0  501    0  0.00000000000E+00 -0.00000000000E+00 -0.16177521481E+03  0.16177521481E+03  0.00000000000E+00 0. -1.
         25    2    1    2    0    0  0.86698000714E+02  0.34174145904E+02 -0.26712127025E+01  0.15594921542E+03  0.12501442651E+03 0.  0.
         23    2    1    2    0    0 -0.86698000714E+02 -0.34174145904E+02 -0.20767212370E+02  0.14416278913E+03  0.10801489288E+03 0.  0.
          5    1    4    4  502    0 -0.16138219913E+02 -0.42409991016E+02 -0.49566351571E+02  0.67364402232E+02  0.47000000000E+01 0. -1.
         -5    1    3    3    0  503  0.89999654488E+02  0.68972897433E+02 -0.22194187060E+02  0.11563680352E+03  0.47000000000E+01 0.  1.
          5    1    3    3  503    0 -0.33016537740E+01 -0.34798751529E+02  0.19522974358E+02  0.40312411902E+02  0.47000000000E+01 0.  1.
         -5    1    4    4    0  502 -0.70559780801E+02  0.82358451121E+01  0.28799139202E+02  0.76798386898E+02  0.47000000000E+01 0.  1.
<mgrwt>
<rscale>  0 0.15249813E+03</rscale>
<asrwt>0</asrwt>
<pdfrwt beam="1">  1        1 0.24888494E-01 0.15592634E+03</pdfrwt>
<pdfrwt beam="2">  1       -1 0.21282583E-01 0.15592634E+03</pdfrwt>
<totfact> 0.33998611E+03</totfact>
</mgrwt>
</event>
<event>
 8    1  0.2018715E-005  0.1858962E+03  0.7546771E-02  0.1169707E+00
         -1   -1    0    0    0  501 -0.00000000000E+00  0.00000000000E+00  0.88403954842E+03  0.88403954842E+03  0.00000000000E+00 0.  1.
          1   -1    0    0  501    0  0.00000000000E+00 -0.00000000000E+00 -0.33156185826E+02  0.33156185826E+02  0.00000000000E+00 0. -1.
         25    2    1    2    0    0 -0.10415872442E+03  0.89904787951E+02  0.45187054589E+03  0.48861477801E+03  0.12500200112E+03 0.  0.
         23    2    1    2    0    0  0.10415872442E+03 -0.89904787951E+02  0.39901281671E+03  0.42858095623E+03  0.74421081551E+02 0.  0.
          5    1    3    3  502    0 -0.46689117104E+02  0.11400950295E+03  0.30773107281E+03  0.33150949246E+03  0.47000000000E+01 0.  1.
         -5    1    4    4    0  503  0.61968969969E+02 -0.85778293955E+01  0.12979489660E+03  0.14416149825E+03  0.47000000000E+01 0.  1.
          5    1    4    4  503    0  0.42189754453E+02 -0.81326958556E+02  0.26921792011E+03  0.28441945798E+03  0.47000000000E+01 0. -1.
         -5    1    3    3    0  502 -0.57469607318E+02 -0.24104714994E+02  0.14413947308E+03  0.15710528555E+03  0.47000000000E+01 0.  1.
<mgrwt>
<rscale>  0 0.17804636E+03</rscale>
<asrwt>0</asrwt>
<pdfrwt beam="1">  1        1 0.51009523E-02 0.18589624E+03</pdfrwt>
<pdfrwt beam="2">  1       -1 0.13600607E+00 0.18589624E+03</pdfrwt>
<totfact> 0.78267753E+02</totfact>
</mgrwt>
</event>
<event>
 8    1  0.2018715E-005  0.1802300E+03  0.7546771E-02  0.1169860E+00
         -1   -1    0    0    0  501 -0.00000000000E+00  0.00000000000E+00  0.96973559748E+03  0.96973559748E+03  0.00000000000E+00 0.  1.
          1   -1    0    0  501    0  0.00000000000E+00 -0.00000000000E+00 -0.32165468228E+02  0.32165468228E+02  0.00000000000E+00 0. -1.
         25    2    1    2    0    0  0.12689430143E+03  0.27528225082E+02  0.42846191463E+03  0.46482520009E+03  0.12499154943E+03 0.  0.
         23    2    1    2    0    0 -0.12689430143E+03 -0.27528225082E+02  0.50910821462E+03  0.53707586562E+03  0.11135234317E+03 0.  0.
          5    1    3    3  502    0  0.17835229013E+02 -0.41784333576E+02  0.16704194650E+03  0.17317369263E+03  0.47000000000E+01 0.  1.
         -5    1    3    3    0  502  0.10905907242E+03  0.69312558658E+02  0.26141996813E+03  0.29165150746E+03  0.47000000000E+01 0.  1.
          5    1    4    4  503    0 -0.18455663335E+02  0.97853472534E+01  0.77866078912E+01  0.22783454358E+02  0.47000000000E+01 0. -1.
         -5    1    4    4    0  503 -0.10843863810E+03 -0.37313572335E+02  0.50132160672E+03  0.51429241126E+03  0.47000000000E+01 0.  1.
<mgrwt>
<rscale>  0 0.17789074E+03</rscale>
<asrwt>0</asrwt>
<pdfrwt beam="1">  1        1 0.49485343E-02 0.18023000E+03</pdfrwt>
<pdfrwt beam="2">  1       -1 0.14919007E+00 0.18023000E+03</pdfrwt>
<totfact> 0.64442451E+02</totfact>
</mgrwt>
</event>
<event>
 8    1  0.2018715E-005  0.1364239E+03  0.7546771E-02  0.1224468E+00
         -1   -1    0    0    0  501 -0.00000000000E+00  0.00000000000E+00  0.33239267565E+02  0.33239267565E+02  0.00000000000E+00 0.  1.
          1   -1    0    0  501    0  0.00000000000E+00 -0.00000000000E+00 -0.49590388472E+03  0.49590388472E+03  0.00000000000E+00 0. -1.
         25    2    1    2    0    0  0.50735364900E+02 -0.20286317731E+02 -0.26525489233E+03  0.29828112178E+03  0.12500343102E+03 0.  0.
         23    2    1    2    0    0 -0.50735364900E+02  0.20286317731E+02 -0.19740972482E+03  0.23086203050E+03  0.10649443992E+03 0.  0.
          5    1    4    4  502    0  0.20765698349E+02  0.30957658334E+02 -0.28777617750E+02  0.47326864684E+02  0.47000000000E+01 0. -1.
         -5    1    3    3    0  503 -0.19266818291E+01  0.25204714516E+02 -0.20351490699E+03  0.20513263295E+03  0.47000000000E+01 0.  1.
          5    1    3    3  503    0  0.52662046729E+02 -0.45491032247E+02 -0.61739985344E+02  0.93148488828E+02  0.47000000000E+01 0.  1.
         -5    1    4    4    0  502 -0.71501063249E+02 -0.10671340603E+02 -0.16863210707E+03  0.18353516582E+03  0.47000000000E+01 0.  1.
<mgrwt>
<rscale>  0 0.13203405E+03</rscale>
<asrwt>0</asrwt>
<pdfrwt beam="1">  1        1 0.76292898E-01 0.13642386E+03</pdfrwt>
<pdfrwt beam="2">  1       -1 0.51137340E-02 0.13642386E+03</pdfrwt>
<totfact> 0.74373854E+03</totfact>
</mgrwt>
</event>
<event>
 8    1  0.2018715E-005  0.1342503E+03  0.7546771E-02  0.1249744E+00
         -1   -1    0    0    0  501 -0.00000000000E+00  0.00000000000E+00  0.10065448541E+03  0.10065448541E+03  0.00000000000E+00 0.  1.
          1   -1    0    0  501    0  0.00000000000E+00 -0.00000000000E+00 -0.15139672917E+03  0.15139672917E+03  0.00000000000E+00 0. -1.
         25    2    1    2    0    0  0.29644450213E+01  0.48918319520E+02 -0.95474595454E+02  0.16473778434E+03  0.12498539632E+03 0.  0.
         23    2    1    2    0    0 -0.29644450213E+01 -0.48918319520E+02  0.44732351688E+02  0.87313430241E+02  0.56752637771E+02 0.  0.
          5    1    4    4  502    0  0.22521759560E+02 -0.29607686488E+02  0.39694364898E+02  0.54603821822E+02  0.47000000000E+01 0. -1.
         -5    1    3    3    0  503  0.29393636703E+02 -0.92269551601E+01 -0.95750567994E+02  0.10069450755E+03  0.47000000000E+01 0.  1.
          5    1    3    3  503    0 -0.26429191681E+02  0.58145274680E+02  0.27597253994E+00  0.64043276785E+02  0.47000000000E+01 0.  1.
         -5    1    4    4    0  502 -0.25486204582E+02 -0.19310633032E+02  0.50379867901E+01  0.32709608420E+02  0.47000000000E+01 0.  1.
<mgrwt>
<rscale>  0 0.11605906E+03</rscale>
<asrwt>0</asrwt>
<pdfrwt beam="1">  1        1 0.23291805E-01 0.13425029E+03</pdfrwt>
<pdfrwt beam="2">  1       -1 0.15485305E-01 0.13425029E+03</pdfrwt>
<totfact> 0.60843381E+03</totfact>
</mgrwt>
</event>
<event>
 7    1  0.2018715E-005  0.1854087E+03  0.7546771E-02  0.1173101E+00
          2   -1    0    0  501    0  0.00000000000E+00  0.00000000000E+00  0.15892886655E+03  0.15892886655E+03  0.00000000000E+00 0.  1.
         -2   -1    0    0    0  501 -0.00000000000E+00 -0.00000000000E+00 -0.26472881876E+03  0.26472881876E+03  0.00000000000E+00 0. -1.
         25    2    1    2    0    0 -0.29868344029E+02  0.13364769468E+03  0.67312605413E+02  0.19724950540E+03  0.12499022468E+03 0.  0.
          5    1    3    3  502    0 -0.49366233709E+02  0.34169758148E+02 -0.19919006139E+02  0.63430703985E+02  0.47000000000E+01 0.  1.
         -5    1    1    2    0  503 -0.34388686645E+01 -0.44349648004E+02 -0.87221940111E+02  0.98022823529E+02  0.47000000000E+01 0.  1.
          5    1    1    2  503    0  0.33307212693E+02 -0.89298046671E+02 -0.85890617511E+02  0.12838535638E+03  0.47000000000E+01 0. -1.
         -5    1    3    3    0  502  0.19497889680E+02  0.99477936528E+02  0.87231611552E+02  0.13381880141E+03  0.47000000000E+01 0.  1.
<mgrwt>
<rscale>  0 0.17463304E+03</rscale>
<asrwt>0</asrwt>
<pdfrwt beam="1">  1        2 0.24450595E-01 0.18540869E+03</pdfrwt>
<pdfrwt beam="2">  1       -2 0.40727510E-01 0.18540869E+03</pdfrwt>
<totfact> 0.12567759E+03</totfact>
</mgrwt>
</event>
<event>
 8    1  0.2018715E-005  0.1392349E+03  0.7546771E-02  0.1233773E+00
         -2   -1    0    0    0  501 -0.00000000000E+00  0.00000000000E+00  0.21144641348E+02  0.21144641348E+02  0.00000000000E+00 0. -1.
          2   -1    0    0  501    0  0.00000000000E+00 -0.00000000000E+00 -0.81274164433E+03  0.81274164433E+03  0.00000000000E+00 0.  1.
         25    2    1    2    0    0 -0.90273889471E+01 -0.60671585467E+02 -0.64856052012E+03  0.66333784604E+03  0.12499525872E+03 0.  0.
         23    2    1    2    0    0  0.90273889471E+01  0.60671585467E+02 -0.14303648286E+03  0.17054843963E+03  0.69748116800E+02 0.  0.
          5    1    3    3  502    0 -0.51110416243E+02 -0.77957933384E+02 -0.44998169752E+03  0.45955993312E+03  0.47000000000E+01 0.  1.
         -5    1    3    3    0  502  0.42083027296E+02  0.17286347917E+02 -0.19857882260E+03  0.20377791293E+03  0.47000000000E+01 0.  1.
          5    1    4    4  503    0  0.20760071780E+02  0.50486695333E+00 -0.90593958525E+01  0.23138671616E+02  0.47000000000E+01 0. -1.
         -5    1    4    4    0  503 -0.11732682832E+02  0.60166718514E+02 -0.13397708701E+03  0.14740976801E+03  0.47000000000E+01 0.  1.
<mgrwt>
<rscale>  0 0.12583330E+03</rscale>
<asrwt>0</asrwt>
<pdfrwt beam="1">  1        2 0.12503717E+00 0.13923487E+03</pdfrwt>
<pdfrwt beam="2">  1       -2 0.32530219E-02 0.13923487E+03</pdfrwt>
<totfact> 0.12496440E+04</totfact>
</mgrwt>
</event>
<event>
 8    1  0.2018715E-005  0.1292140E+03  0.7546771E-02  0.1236988E+00
         -3   -1    0    0    0  501 -0.00000000000E+00  0.00000000000E+00  0.34705063055E+02  0.34705063055E+02  0.00000000000E+00 0.  1.
          3   -1    0    0  501    0  0.00000000000E+00 -0.00000000000E+00 -0.42678077458E+03  0.42678077458E+03  0.00000000000E+00 0. -1.
         25    2    1    2    0    0 -0.22547927317E+02 -0.23730241420E+02 -0.16403920589E+03  0.20881841455E+03  0.12499894321E+03 0.  0.
         23    2    1    2    0    0  0.22547927317E+02  0.23730241420E+02 -0.22803650564E+03  0.25266742308E+03  0.10377208391E+03 0.  0.
          5    1    3    3  502    0  0.21190413433E+02 -0.43798533364E+02 -0.13510214051E+02  0.50714505124E+02  0.47000000000E+01 0. -1.
         -5    1    3    3    0  502 -0.43738340750E+02  0.20068291944E+02 -0.15052899184E+03  0.15810390943E+03  0.47000000000E+01 0. -1.
          5    1    4    4  503    0  0.36360227292E+02 -0.95431179293E+01 -0.20750672218E+03  0.21093664210E+03  0.47000000000E+01 0. -1.
         -5    1    4    4    0  503 -0.13812299975E+02  0.33273359350E+02 -0.20529783458E+02  0.41730780988E+02  0.47000000000E+01 0.  1.
<mgrwt>
<rscale>  0 0.12378045E+03</rscale>
<asrwt>0</asrwt>
<pdfrwt beam="1">  1        3 0.65658582E-01 0.12921404E+03</pdfrwt>
<pdfrwt beam="2">  1       -3 0.53392404E-02 0.12921404E+03</pdfrwt>
<totfact> 0.10712086E+03</totfact>
</mgrwt>
</event>
<event>
 7    1  0.2018715E-005  0.2396371E+03  0.7546771E-02  0.1125052E+00
         -1   -1    0    0    0  501 -0.00000000000E+00  0.00000000000E+00  0.94540286710E+03  0.94540286710E+03  0.00000000000E+00 0.  1.
          1   -1    0    0  501    0  0.00000000000E+00 -0.00000000000E+00 -0.54023100452E+02  0.54023100452E+02  0.00000000000E+00 0. -1.
         25    2    1    2    0    0 -0.18700457354E+03  0.82644300546E+02  0.44276849167E+03  0.50345790742E+03  0.12500054557E+03 0.  0.
          5    1    3    3  502    0 -0.51319712196E+02  0.88602691602E+02  0.21601842122E+03  0.23910290279E+03  0.47000000000E+01 0.  1.
         -5    1    1    2    0  503  0.14727677761E+03 -0.39291077597E+02  0.32553970729E+03  0.35948912226E+03  0.47000000000E+01 0.  1.
          5    1    1    2  503    0  0.39727795924E+02 -0.43353222949E+02  0.12307156769E+03  0.13647893787E+03  0.47000000000E+01 0. -1.
         -5    1    3    3    0  502 -0.13568486134E+03 -0.59583910557E+01  0.22675007045E+03  0.26435500463E+03  0.47000000000E+01 0.  1.
<mgrwt>
<rscale>  0 0.23226998E+03</rscale>
<asrwt>0</asrwt>
<pdfrwt beam="1">  1        1 0.83112469E-02 0.23963707E+03</pdfrwt>
<pdfrwt beam="2">  1       -1 0.14544658E+00 0.23963707E+03</pdfrwt>
<totfact> 0.33871365E+02</totfact>
</mgrwt>
</event>
<event>
 8    1  0.2018715E-005  0.1766449E+03  0.7546771E-02  0.1179894E+00
         -1   -1    0    0    0  501 -0.00000000000E+00  0.00000000000E+00  0.49926573964E+03  0.49926573964E+03  0.00000000000E+00 0.  1.
          1   -1    0    0  501    0  0.00000000000E+00 -0.00000000000E+00 -0.54213065443E+02  0.54213065443E+02  0.00000000000E+00 0. -1.
         25    2    1    2    0    0  0.98943373384E+02 -0.76073291436E+02  0.30282423753E+03  0.35057943884E+03  0.12500594904E+03 0.  0.
         23    2    1    2    0    0 -0.98943373384E+02  0.76073291436E+02  0.14222843667E+03  0.20289936625E+03  0.73227643817E+02 0.  0.
          5    1    3    3  502    0 -0.18517668593E+02 -0.18518925816E+02  0.76470768343E+01  0.27684335781E+02  0.47000000000E+01 0.  1.
         -5    1    4    4    0  503 -0.68704369387E+02  0.78742144664E+02  0.13596449892E+03  0.17154897460E+03  0.47000000000E+01 0.  1.
          5    1    4    4  503    0 -0.30239003997E+02 -0.26688532284E+01  0.62639377493E+01  0.31350391647E+02  0.47000000000E+01 0. -1.
         -5    1    3    3    0  502  0.11746104198E+03 -0.57554365619E+02  0.29517716069E+03  0.32289510306E+03  0.47000000000E+01 0.  1.
<mgrwt>
<rscale>  0 0.16805286E+03</rscale>
<asrwt>0</asrwt>
<pdfrwt beam="1">  1        1 0.83404720E-02 0.17664491E+03</pdfrwt>
<pdfrwt beam="2">  1       -1 0.76810110E-01 0.17664491E+03</pdfrwt>
<totfact> 0.14383800E+03</totfact>
</mgrwt>
</event>
<event>
 7    1  0.2018715E-005  0.1356586E+03  0.7546771E-02  0.1248743E+00
         -2   -1    0    0    0  501 -0.00000000000E+00  0.00000000000E+00  0.84029539987E+02  0.84029539987E+02  0.00000000000E+00 0.  1.
          2   -1    0    0  501    0  0.00000000000E+00 -0.00000000000E+00 -0.13117911669E+03  0.13117911669E+03  0.00000000000E+00 0. -1.
         25    2    1    2    0    0  0.51165375375E+02  0.12551533925E+02 -0.26231083874E+02  0.13817136599E+03  0.12501127940E+03 0.  0.
          5    1    1    2  502    0 -0.27189924585E+02 -0.25281072094E+02 -0.30070468525E+02  0.48007787728E+02  0.47000000000E+01 0. -1.
         -5    1    3    3    0  503 -0.29456498400E+02  0.94917517533E+01 -0.45368600807E+02  0.55119675149E+02  0.47000000000E+01 0. -1.
          5    1    3    3  503    0  0.80621873774E+02  0.30597821716E+01  0.19137516933E+02  0.83051690845E+02  0.47000000000E+01 0. -1.
         -5    1    1    2    0  502 -0.23975450790E+02  0.12729538169E+02  0.91519756985E+01  0.29029502954E+02  0.47000000000E+01 0.  1.
<mgrwt>
<rscale>  0 0.11664142E+03</rscale>
<asrwt>0</asrwt>
<pdfrwt beam="1">  1        2 0.20181402E-01 0.13565860E+03</pdfrwt>
<pdfrwt beam="2">  1       -2 0.12927622E-01 0.13565860E+03</pdfrwt>
<totfact> 0.11287746E+04</totfact>
</mgrwt>
</event>
<event>
 8    1  0.2018715E-005  0.1918709E+03  0.7546771E-02  0.1163556E+00
          1   -1    0    0  501    0  0.00000000000E+00  0.00000000000E+00  0.63552694377E+03  0.63552694377E+03  0.00000000000E+00 0. -1.
         -1   -1    0    0    0  501 -0.00000000000E+00 -0.00000000000E+00 -0.61214645930E+02  0.61214645930E+02  0.00000000000E+00 0.  1.
         25    2    1    2    0    0  0.10837628771E+03  0.97183157126E+02  0.45563795142E+03  0.49438890062E+03  0.12499782604E+03 0.  0.
         23    2    1    2    0    0 -0.10837628771E+03 -0.97183157126E+02  0.11867434642E+03  0.20235268908E+03  0.75319482966E+02 0.  0.
          5    1    3    3  502    0  0.82074661768E+02  0.67143014616E+01  0.31065884613E+03  0.32142237107E+03  0.47000000000E+01 0.  1.
         -5    1    4    4    0  503 -0.98083978729E+02 -0.47631324773E+02  0.10053217804E+03  0.14838469869E+03  0.47000000000E+01 0.  1.
          5    1    4    4  503    0 -0.10292308978E+02 -0.49551832354E+02  0.18142168380E+02  0.53967990394E+02  0.47000000000E+01 0. -1.
         -5    1    3    3    0  502  0.26301625939E+02  0.90468855665E+02  0.14497910530E+03  0.17296652955E+03  0.47000000000E+01 0.  1.
<mgrwt>
<rscale>  0 0.18445956E+03</rscale>
<asrwt>0</asrwt>
<pdfrwt beam="1">  1        1 0.97773371E-01 0.19187090E+03</pdfrwt>
<pdfrwt beam="2">  1       -1 0.94176383E-02 0.19187090E+03</pdfrwt>
<totfact> 0.21522600E+03</totfact>
</mgrwt>
</event>
<event>
 7    1  0.2018715E-005  0.1585947E+03  0.7546771E-02  0.1211257E+00
          2   -1    0    0  501    0  0.00000000000E+00  0.00000000000E+00  0.44312850040E+03  0.44312850040E+03  0.00000000000E+00 0. -1.
         -2   -1    0    0    0  501 -0.00000000000E+00 -0.00000000000E+00 -0.53923443718E+02  0.53923443718E+02  0.00000000000E+00 0.  1.
         25    2    1    2    0    0  0.68119710786E+01  0.97372649915E+02  0.35820102295E+03  0.39174003100E+03  0.12499777256E+03 0.  0.
          5    1    1    2  502    0 -0.15025053169E+02 -0.54267192517E+02  0.18072811338E+02  0.59324505190E+02  0.47000000000E+01 0.  1.
         -5    1    1    2    0  502  0.82130820906E+01 -0.43105457398E+02  0.12931222391E+02  0.45987407923E+02  0.47000000000E+01 0. -1.
          5    1    3    3  503    0  0.27668293271E+02  0.43565551328E+02  0.33028112555E+02  0.61452729263E+02  0.47000000000E+01 0. -1.
         -5    1    3    3    0  503 -0.20856322192E+02  0.53807098588E+02  0.32517291040E+03  0.33028730174E+03  0.47000000000E+01 0. -1.
<mgrwt>
<rscale>  0 0.14155141E+03</rscale>
<asrwt>0</asrwt>
<pdfrwt beam="1">  1        2 0.68173613E-01 0.15859470E+03</pdfrwt>
<pdfrwt beam="2">  1       -2 0.82959147E-02 0.15859470E+03</pdfrwt>
<totfact> 0.61592337E+03</totfact>
</mgrwt>
</event>
<event>
 8    1  0.2018715E-005  0.1559740E+03  0.7546771E-02  0.1206265E+00
          2   -1    0    0  501    0  0.00000000000E+00  0.00000000000E+00  0.50754288410E+02  0.50754288410E+02  0.00000000000E+00 0. -1.
         -2   -1    0    0    0  501 -0.00000000000E+00 -0.00000000000E+00 -0.36902434652E+03  0.36902434652E+03  0.00000000000E+00 0.  1.
         25    2    1    2    0    0  0.92934118373E+02  0.78913393756E+01 -0.17979724291E+03  0.23802296239E+03  0.12501543293E+03 0.  0.
         23    2    1    2    0    0 -0.92934118373E+02 -0.78913393756E+01 -0.13847281520E+03  0.18175567254E+03  0.71842747418E+02 0.  0.
          5    1    3    3  502    0  0.11924614483E+03 -0.15258525508E+02 -0.14499196785E+03  0.18840707630E+03  0.47000000000E+01 0.  1.
         -5    1    4    4    0  503 -0.30861466423E+02  0.55920831782E+01 -0.10523709457E+03  0.10991195375E+03  0.47000000000E+01 0.  1.
          5    1    4    4  503    0 -0.62072651950E+02 -0.13483422554E+02 -0.33235720633E+02  0.71843718792E+02  0.47000000000E+01 0. -1.
         -5    1    3    3    0  502 -0.26312026459E+02  0.23149864883E+02 -0.34805275054E+02  0.49615886086E+02  0.47000000000E+01 0.  1.
<mgrwt>
<rscale>  0 0.14538215E+03</rscale>
<asrwt>0</asrwt>
<pdfrwt beam="1">  1        2 0.78083522E-02 0.15597398E+03</pdfrwt>
<pdfrwt beam="2">  1       -2 0.56772975E-01 0.15597398E+03</pdfrwt>
<totfact> 0.25205284E+03</totfact>
</mgrwt>
</event>
<event>
 8    1  0.2018715E-005  0.1451969E+03  0.7546771E-02  0.1221326E+00
         -1   -1    0    0    0  501 -0.00000000000E+00  0.00000000000E+00  0.15831785409E+02  0.15831785409E+02  0.00000000000E+00 0.  1.
          1   -1    0    0  501    0  0.00000000000E+00 -0.00000000000E+00 -0.99658410282E+03  0.99658410282E+03  0.00000000000E+00 0. -1.
         25    2    1    2    0    0 -0.73821154480E+02 -0.26824662572E+01 -0.56547633024E+03  0.58381985114E+03  0.12500152019E+03 0.  0.
         23    2    1    2    0    0  0.73821154480E+02  0.26824662572E+01 -0.41527598718E+03  0.42859603709E+03  0.76050371556E+02 0.  0.
          5    1    3    3  502    0  0.33177483021E+02 -0.12364429602E+02 -0.18609774171E+03  0.18949428479E+03  0.47000000000E+01 0. -1.
         -5    1    4    4    0  503  0.67174279696E+02  0.31201087514E+02 -0.25419812621E+03  0.26481062872E+03  0.47000000000E+01 0.  1.
          5    1    4    4  503    0  0.66468747847E+01 -0.28518621256E+02 -0.16107786097E+03  0.16378540837E+03  0.47000000000E+01 0. -1.
         -5    1    3    3    0  502 -0.10699863750E+03  0.96819633453E+01 -0.37937858852E+03  0.39432556634E+03  0.47000000000E+01 0. -1.
<mgrwt>
<rscale>  0 0.13421956E+03</rscale>
<asrwt>0</asrwt>
<pdfrwt beam="1">  1        1 0.15332067E+00 0.14519690E+03</pdfrwt>
<pdfrwt beam="2">  1       -1 0.24356587E-02 0.14519690E+03</pdfrwt>
<totfact> 0.80202690E+03</totfact>
</mgrwt>
</event>
<event>
 8    1  0.2018715E-005  0.1416521E+03  0.7546771E-02  0.1216984E+00
          2   -1    0    0  501    0  0.00000000000E+00  0.00000000000E+00  0.98438331402E+03  0.98438331402E+03  0.00000000000E+00 0. -1.
         -2   -1    0    0    0  501 -0.00000000000E+00 -0.00000000000E+00 -0.18070811579E+02  0.18070811579E+02  0.00000000000E+00 0.  1.
         25    2    1    2    0    0 -0.30255465762E+02  0.59360156986E+02  0.51382624331E+03  0.53299411656E+03  0.12500519397E+03 0.  0.
         23    2    1    2    0    0  0.30255465762E+02 -0.59360156986E+02  0.45248625913E+03  0.46946000904E+03  0.10587664495E+03 0.  0.
          5    1    3    3  502    0 -0.25085744315E+02  0.96781533524E+02  0.41951321243E+03  0.43128805363E+03  0.47000000000E+01 0. -1.
         -5    1    3    3    0  502 -0.51697214476E+01 -0.37421376539E+02  0.94313030888E+02  0.10170606293E+03  0.47000000000E+01 0. -1.
          5    1    4    4  503    0  0.31338600295E+01 -0.79648883529E+02  0.39132658885E+03  0.39938997842E+03  0.47000000000E+01 0. -1.
         -5    1    4    4    0  503  0.27121605733E+02  0.20288726543E+02  0.61159670283E+02  0.70070030622E+02  0.47000000000E+01 0.  1.
<mgrwt>
<rscale>  0 0.13731808E+03</rscale>
<asrwt>0</asrwt>
<pdfrwt beam="1">  1        2 0.15144355E+00 0.14165211E+03</pdfrwt>
<pdfrwt beam="2">  1       -2 0.27801256E-02 0.14165211E+03</pdfrwt>
<totfact> 0.12271535E+04</totfact>
</mgrwt>
</event>
<event>
 8    1  0.2018715E-005  0.3592891E+03  0.7546771E-02  0.1058999E+00
         -2   -1    0    0    0  501 -0.00000000000E+00  0.00000000000E+00  0.46356410868E+03  0.46356410868E+03  0.00000000000E+00 0.  1.
          2   -1    0    0  501    0  0.00000000000E+00 -0.00000000000E+00 -0.54396396973E+03  0.54396396973E+03  0.00000000000E+00 0. -1.
         25    2    1    2    0    0 -0.56052561926E+02 -0.33214697706E+03 -0.39286496292E+03  0.53238286590E+03  0.12500053099E+03 0.  0.
         23    2    1    2    0    0  0.56052561926E+02  0.33214697706E+03  0.31246510187E+03  0.47514521250E+03  0.12109925272E+03 0.  0.
          5    1    3    3  502    0  0.65299815137E+01 -0.13482955719E+03 -0.23859380863E+03  0.27417283904E+03  0.47000000000E+01 0.  1.
         -5    1    3    3    0  502 -0.62582543440E+02 -0.19731741987E+03 -0.15427115430E+03  0.25821002687E+03  0.47000000000E+01 0.  1.
          5    1    4    4  503    0  0.84166595431E+02  0.16516571671E+03  0.13190558670E+03  0.22756296615E+03  0.47000000000E+01 0. -1.
         -5    1    4    4    0  503 -0.28114033505E+02  0.16698126035E+03  0.18055951517E+03  0.24758224635E+03  0.47000000000E+01 0.  1.
<mgrwt>
<rscale>  0 0.35895395E+03</rscale>
<asrwt>0</asrwt>
<pdfrwt beam="1">  1        2 0.83686765E-01 0.35928907E+03</pdfrwt>
<pdfrwt beam="2">  1       -2 0.71317555E-01 0.35928907E+03</pdfrwt>
<totfact> 0.10366147E+02</totfact>
</mgrwt>
</event>
<event>
 8    1  0.2018715E-005  0.1970812E+03  0.7546771E-02  0.1159149E+00
         -1   -1    0    0    0  501 -0.00000000000E+00  0.00000000000E+00  0.47668780672E+02  0.47668780672E+02  0.00000000000E+00 0.  1.
          1   -1    0    0  501    0  0.00000000000E+00 -0.00000000000E+00 -0.82866394908E+03  0.82866394908E+03  0.00000000000E+00 0. -1.
         25    2    1    2    0    0  0.15186862839E+03 -0.12330774373E+02 -0.24310828541E+03  0.31295785435E+03  0.12499940752E+03 0.  0.
         23    2    1    2    0    0 -0.15186862839E+03  0.12330774373E+02 -0.53788688300E+03  0.56337487540E+03  0.69662206706E+02 0.  0.
          5    1    4    4  502    0 -0.54776600241E+02  0.31629299895E+02 -0.28017621067E+03  0.28726588306E+03  0.47000000000E+01 0. -1.
         -5    1    4    4    0  502 -0.97092028151E+02 -0.19298525522E+02 -0.25771067233E+03  0.27610899234E+03  0.47000000000E+01 0.  1.
          5    1    3    3  503    0  0.10581621704E+03 -0.28701781282E+02 -0.63562892140E+02  0.12681953830E+03  0.47000000000E+01 0.  1.
         -5    1    3    3    0  503  0.46052411350E+02  0.16371006909E+02 -0.17954539327E+03  0.18613831605E+03  0.47000000000E+01 0.  1.
<mgrwt>
<rscale>  0 0.18923963E+03</rscale>
<asrwt>0</asrwt>
<pdfrwt beam="1">  1        1 0.12748674E+00 0.19708115E+03</pdfrwt>
<pdfrwt beam="2">  1       -1 0.73336596E-02 0.19708115E+03</pdfrwt>
<totfact> 0.21342935E+03</totfact>
</mgrwt>
</event>
<event>
 8    1  0.2018715E-005  0.1256593E+03  0.7546771E-02  0.1239636E+00
         -2   -1    0    0    0  501 -0.00000000000E+00  0.00000000000E+00  0.52994375506E+02  0.52994375506E+02  0.00000000000E+00 0.  1.
          2   -1    0    0  501    0  0.00000000000E+00 -0.00000000000E+00 -0.27134620063E+03  0.27134620063E+03  0.00000000000E+00 0. -1.
         25    2    1    2    0    0 -0.12834675126E+02  0.23642960178E+01 -0.13653769348E+03  0.18556076406E+03  0.12497974490E+03 0.  0.
         23    2    1    2    0    0  0.12834675126E+02 -0.23642960178E+01 -0.81814131648E+02  0.13877981208E+03  0.11133716955E+03 0.  0.
          5    1    3    3  502    0 -0.50959456808E+02 -0.19745024394E+02 -0.12955980398E+03  0.14069315916E+03  0.47000000000E+01 0.  1.
         -5    1    3    3    0  502  0.38124781682E+02  0.22109320411E+02 -0.69778894987E+01  0.44867604897E+02  0.47000000000E+01 0.  1.
          5    1    4    4  503    0 -0.34690417110E+02  0.73067942859E+01 -0.82640575811E+02  0.90046482732E+02  0.47000000000E+01 0. -1.
         -5    1    4    4    0  503  0.47525092236E+02 -0.96710903037E+01  0.82644416279E+00  0.48733329351E+02  0.47000000000E+01 0.  1.
<mgrwt>
<rscale>  0 0.12212281E+03</rscale>
<asrwt>0</asrwt>
<pdfrwt beam="1">  1        2 0.41745570E-01 0.12565928E+03</pdfrwt>
<pdfrwt beam="2">  1       -2 0.81529807E-02 0.12565928E+03</pdfrwt>
<totfact> 0.10506947E+04</totfact>
</mgrwt>
</event>
<event>
 8    1  0.2018715E-005  0.2882379E+03  0.7546771E-02  0.1091422E+00
         -2   -1    0    0    0  501 -0.00000000000E+00  0.00000000000E+00  0.60705321971E+03  0.60705321971E+03  0.00000000000E+00 0.  1.
          2   -1    0    0  501    0  0.00000000000E+00 -0.00000000000E+00 -0.14568959239E+03  0.14568959239E+03  0.00000000000E+00 0. -1.
         25    2    1    2    0    0  0.21791857114E+03  0.13897759804E+03  0.32569777339E+03  0.43417366679E+03  0.12499782775E+03 0.  0.
         23    2    1    2    0    0 -0.21791857114E+03 -0.13897759804E+03  0.13566585394E+03  0.31856914530E+03  0.12758448185E+03 0.  0.
          5    1    4    4  502    0  0.35838454137E+01 -0.42672570711E+02  0.35536767934E+01  0.43226275086E+02  0.47000000000E+01 0. -1.
         -5    1    4    4    0  502 -0.22150241656E+03 -0.96305027324E+02  0.13211217715E+03  0.27534287022E+03  0.47000000000E+01 0.  1.
          5    1    3    3  503    0  0.35037568147E+02  0.23787917941E+02 -0.76921186548E+00  0.42616638870E+02  0.47000000000E+01 0. -1.
         -5    1    3    3    0  503  0.18288100300E+03  0.11518968009E+03  0.32646698525E+03  0.39155702792E+03  0.47000000000E+01 0. -1.
<mgrwt>
<rscale>  0 0.28795357E+03</rscale>
<asrwt>0</asrwt>
<pdfrwt beam="1">  1        2 0.22413784E-01 0.28823788E+03</pdfrwt>
<pdfrwt beam="2">  1       -2 0.93392801E-01 0.28823788E+03</pdfrwt>
<totfact> 0.24560449E+02</totfact>
</mgrwt>
</event>
<event>
 8    1  0.2018715E-005  0.1307296E+03  0.7546771E-02  0.1233305E+00
          1   -1    0    0  501    0  0.00000000000E+00  0.00000000000E+00  0.13378263139E+03  0.13378263139E+03  0.00000000000E+00 0. -1.
         -1   -1    0    0    0  501 -0.00000000000E+00 -0.00000000000E+00 -0.13171126910E+03  0.13171126910E+03  0.00000000000E+00 0.  1.
         25    2    1    2    0    0 -0.37337677735E+02 -0.84693460240E+01 -0.51068440649E+02  0.14035031654E+03  0.12499757486E+03 0.  0.
         23    2    1    2    0    0  0.37337677735E+02  0.84693460240E+01  0.53139802944E+02  0.12514358395E+03  0.10663604431E+03 0.  0.
          5    1    4    4  502    0  0.14344997341E+02  0.42918253604E+02  0.67200682828E+02  0.81152801637E+02  0.47000000000E+01 0. -1.
         -5    1    4    4    0  502  0.22992680395E+02 -0.34448907580E+02 -0.14060879884E+02  0.43990782310E+02  0.47000000000E+01 0.  1.
          5    1    3    3  503    0  0.38477999456E+02 -0.32044852724E+01 -0.51084300424E+02  0.64206860364E+02  0.47000000000E+01 0. -1.
         -5    1    3    3    0  503 -0.75815677192E+02 -0.52648607516E+01  0.15859774114E-01  0.76143456175E+02  0.47000000000E+01 0. -1.
<mgrwt>
<rscale>  0 0.12613590E+03</rscale>
<asrwt>0</asrwt>
<pdfrwt beam="1">  1        1 0.20581943E-01 0.13072959E+03</pdfrwt>
<pdfrwt beam="2">  1       -1 0.20263272E-01 0.13072959E+03</pdfrwt>
<totfact> 0.46338414E+03</totfact>
</mgrwt>
</event>
<event>
 8    1  0.2018715E-005  0.1655790E+03  0.7546771E-02  0.1182953E+00
         -2   -1    0    0    0  501 -0.00000000000E+00  0.00000000000E+00  0.94117303451E+02  0.94117303451E+02  0.00000000000E+00 0.  1.
          2   -1    0    0  501    0  0.00000000000E+00 -0.00000000000E+00 -0.91503528062E+03  0.91503528062E+03  0.00000000000E+00 0. -1.
         25    2    1    2    0    0 -0.68083621578E+02  0.81572552570E+02  0.76229897117E+01  0.16422860945E+03  0.12499386117E+03 0.  0.
         23    2    1    2    0    0  0.68083621578E+02 -0.81572552570E+02 -0.82854096688E+03  0.84492397462E+03  0.12699184317E+03 0.  0.
          5    1    4    4  502    0  0.21882395292E+02  0.32910618906E+02 -0.14789437711E+03  0.15315608000E+03  0.47000000000E+01 0. -1.
         -5    1    4    4    0  502  0.46201226286E+02 -0.11448317148E+03 -0.68064658978E+03  0.69176789463E+03  0.47000000000E+01 0.  1.
          5    1    3    3  503    0 -0.11176316215E+02 -0.25853590886E+02  0.29007683983E+02  0.40704470712E+02  0.47000000000E+01 0. -1.
         -5    1    3    3    0  503 -0.56907305363E+02  0.10742614346E+03 -0.21384694272E+02  0.12352413874E+03  0.47000000000E+01 0. -1.
<mgrwt>
<rscale>  0 0.16519578E+03</rscale>
<asrwt>0</asrwt>
<pdfrwt beam="1">  1        2 0.14077467E+00 0.16557895E+03</pdfrwt>
<pdfrwt beam="2">  1       -2 0.14479584E-01 0.16557895E+03</pdfrwt>
<totfact> 0.10817220E+03</totfact>
</mgrwt>
</event>
<event>
 8    1  0.2018715E-005  0.2041141E+03  0.7546771E-02  0.1151848E+00
          2   -1    0    0  501    0  0.00000000000E+00  0.00000000000E+00  0.10689988651E+04  0.10689988651E+04  0.00000000000E+00 0. -1.
         -2   -1    0    0    0  501 -0.00000000000E+00 -0.00000000000E+00 -0.34368715754E+02  0.34368715754E+02  0.00000000000E+00 0.  1.
         25    2    1    2    0    0  0.10156524552E+02 -0.16104450005E+03  0.57111940924E+03  0.60649808565E+03  0.12499624911E+03 0.  0.
         23    2    1    2    0    0 -0.10156524552E+02  0.16104450005E+03  0.46351074012E+03  0.49686949522E+03  0.77450649391E+02 0.  0.
          5    1    3    3  502    0  0.45635439847E+01  0.20909117509E+02  0.67519698311E+02  0.70986032349E+02  0.47000000000E+01 0.  1.
         -5    1    3    3    0  502  0.55929805674E+01 -0.18195361756E+03  0.50359971093E+03  0.53551205330E+03  0.47000000000E+01 0.  1.
          5    1    4    4  503    0 -0.24455373042E+01  0.46563901294E+02  0.25078937502E+03  0.25513051205E+03  0.47000000000E+01 0. -1.
         -5    1    4    4    0  503 -0.77109872478E+01  0.11448059876E+03  0.21272136510E+03  0.24173898317E+03  0.47000000000E+01 0.  1.
<mgrwt>
<rscale>  0 0.19752011E+03</rscale>
<asrwt>0</asrwt>
<pdfrwt beam="1">  1        2 0.16446134E+00 0.20411406E+03</pdfrwt>
<pdfrwt beam="2">  1       -2 0.52874956E-02 0.20411406E+03</pdfrwt>
<totfact> 0.42499777E+03</totfact>
</mgrwt>
</event>
<event>
 8    1  0.2018715E-005  0.1363299E+03  0.7546771E-02  0.1235923E+00
          1   -1    0    0  501    0  0.00000000000E+00  0.00000000000E+00  0.90304067372E+03  0.90304067372E+03  0.00000000000E+00 0. -1.
         -1   -1    0    0    0  501 -0.00000000000E+00 -0.00000000000E+00 -0.16158404053E+02  0.16158404053E+02  0.00000000000E+00 0.  1.
         25    2    1    2    0    0 -0.14314774470E+02  0.52493750512E+02  0.38404691581E+03  0.40752652064E+03  0.12500129945E+03 0.  0.
         23    2    1    2    0    0  0.14314774470E+02 -0.52493750512E+02  0.50283535385E+03  0.51167255714E+03  0.77491328753E+02 0.  0.
          5    1    3    3  502    0 -0.31538729781E+02 -0.82691348411E+01  0.21154686211E+02  0.39149467633E+02  0.47000000000E+01 0. -1.
         -5    1    4    4    0  503  0.42530600592E+02 -0.49761461602E+02  0.32962661095E+03  0.33609648569E+03  0.47000000000E+01 0.  1.
          5    1    4    4  503    0 -0.28215826122E+02 -0.27322889098E+01  0.17320874291E+03  0.17557607145E+03  0.47000000000E+01 0. -1.
         -5    1    3    3    0  502  0.17223955311E+02  0.60762885353E+02  0.36289222960E+03  0.36837705300E+03  0.47000000000E+01 0. -1.
<mgrwt>
<rscale>  0 0.12445563E+03</rscale>
<asrwt>0</asrwt>
<pdfrwt beam="1">  1        1 0.13892929E+00 0.13632986E+03</pdfrwt>
<pdfrwt beam="2">  1       -1 0.24859090E-02 0.13632986E+03</pdfrwt>
<totfact> 0.91209760E+03</totfact>
</mgrwt>
</event>
<event>
 8    1  0.2018715E-005  0.1585787E+03  0.7546771E-02  0.1195017E+00
          2   -1    0    0  501    0  0.00000000000E+00  0.00000000000E+00  0.14622104394E+03  0.14622104394E+03  0.00000000000E+00 0. -1.
         -2   -1    0    0    0  501 -0.00000000000E+00 -0.00000000000E+00 -0.16024389546E+03  0.16024389546E+03  0.00000000000E+00 0.  1.
         25    2    1    2    0    0  0.82203265096E+02  0.52582449921E+02 -0.33735606481E+02  0.16212736184E+03  0.12499959792E+03 0.  0.
         23    2    1    2    0    0 -0.82203265096E+02 -0.52582449921E+02  0.19712754960E+02  0.14433757755E+03  0.10451053895E+03 0.  0.
          5    1    3    3  502    0 -0.25472578799E+02 -0.16308053894E+02 -0.48266852004E+01  0.30986961492E+02  0.47000000000E+01 0.  1.
         -5    1    4    4    0  503 -0.31573798926E+02 -0.12280386739E+02 -0.42428538750E+02  0.54497555703E+02  0.47000000000E+01 0.  1.
          5    1    4    4  503    0 -0.50629466170E+02 -0.40302063183E+02  0.62141293711E+02  0.89840021847E+02  0.47000000000E+01 0. -1.
         -5    1    3    3    0  502  0.10767584390E+03  0.68890503815E+02 -0.28908921281E+02  0.13114040035E+03  0.47000000000E+01 0.  1.
<mgrwt>
<rscale>  0 0.15452767E+03</rscale>
<asrwt>0</asrwt>
<pdfrwt beam="1">  1        2 0.22495545E-01 0.15857866E+03</pdfrwt>
<pdfrwt beam="2">  1       -2 0.24652907E-01 0.15857866E+03</pdfrwt>
<totfact> 0.34281380E+03</totfact>
</mgrwt>
</event>
<event>
 7    1  0.2018715E-005  0.1271757E+03  0.7546771E-02  0.1272609E+00
         -1   -1    0    0    0  501 -0.00000000000E+00  0.00000000000E+00  0.18767563841E+02  0.18767563841E+02  0.00000000000E+00 0.  1.
          1   -1    0    0  501    0  0.00000000000E+00 -0.00000000000E+00 -0.48805439607E+03  0.48805439607E+03  0.00000000000E+00 0. -1.
         25    2    1    2    0    0 -0.25596049919E+01 -0.23270236908E+02 -0.38489556994E+03  0.40536188479E+03  0.12500240948E+03 0.  0.
          5    1    1    2  502    0 -0.22865151378E+02  0.11685740197E+02 -0.53590283145E+02  0.59610235019E+02  0.47000000000E+01 0. -1.
         -5    1    1    2    0  502  0.25424756370E+02  0.11584496711E+02 -0.30800979143E+02  0.41849840103E+02  0.47000000000E+01 0.  1.
          5    1    3    3  503    0  0.37944052166E+02  0.37659989617E+02 -0.17380836083E+03  0.18190509121E+03  0.47000000000E+01 0. -1.
         -5    1    3    3    0  503 -0.40503657158E+02 -0.60930226525E+02 -0.21108720911E+03  0.22345679358E+03  0.47000000000E+01 0. -1.
<mgrwt>
<rscale>  0 0.10374668E+03</rscale>
<asrwt>0</asrwt>
<pdfrwt beam="1">  1        1 0.75085287E-01 0.12717570E+03</pdfrwt>
<pdfrwt beam="2">  1       -1 0.28873177E-02 0.12717570E+03</pdfrwt>
<totfact> 0.17457806E+04</totfact>
</mgrwt>
</event>
<event>
 8    1  0.2018715E-005  0.1308084E+03  0.7546771E-02  0.1248089E+00
         -1   -1    0    0    0  501 -0.00000000000E+00  0.00000000000E+00  0.16878089711E+02  0.16878089711E+02  0.00000000000E+00 0.  1.
          1   -1    0    0  501    0  0.00000000000E+00 -0.00000000000E+00 -0.72885516021E+03  0.72885516021E+03  0.00000000000E+00 0. -1.
         25    2    1    2    0    0 -0.16817510896E+02  0.34677277889E+02 -0.33672696746E+03  0.36124216206E+03  0.12500202704E+03 0.  0.
         23    2    1    2    0    0  0.16817510896E+02 -0.34677277889E+02 -0.37525010305E+03  0.38449108786E+03  0.74400366499E+02 0.  0.
          5    1    3    3  502    0 -0.31650781943E+02 -0.35661099762E+02 -0.21069966549E+03  0.21607851599E+03  0.47000000000E+01 0. -1.
         -5    1    3    3    0  502  0.14833271047E+02  0.70338377651E+02 -0.12602730197E+03  0.14516364608E+03  0.47000000000E+01 0. -1.
          5    1    4    4  503    0  0.40321122351E+02 -0.12478533426E+02 -0.29179616359E+03  0.29487047629E+03  0.47000000000E+01 0. -1.
         -5    1    4    4    0  503 -0.23503611455E+02 -0.22198744463E+02 -0.83453939458E+02  0.89620611570E+02  0.47000000000E+01 0.  1.
<mgrwt>
<rscale>  0 0.11702397E+03</rscale>
<asrwt>0</asrwt>
<pdfrwt beam="1">  1        1 0.11213156E+00 0.13080844E+03</pdfrwt>
<pdfrwt beam="2">  1       -1 0.25966292E-02 0.13080844E+03</pdfrwt>
<totfact> 0.11821542E+04</totfact>
</mgrwt>
</event>
<event>
 8    1  0.2018715E-005  0.1492426E+03  0.7546771E-02  0.1203248E+00
          1   -1    0    0  501    0  0.00000000000E+00  0.00000000000E+00  0.61586884652E+03  0.61586884652E+03  0.00000000000E+00 0. -1.
         -1   -1    0    0    0  501 -0.00000000000E+00 -0.00000000000E+00 -0.37643563950E+02  0.37643563950E+02  0.00000000000E+00 0.  1.
         25    2    1    2    0    0 -0.76856059059E+02  0.27207129217E+02  0.38473736347E+03  0.41266958404E+03  0.12500506010E+03 0.  0.
         23    2    1    2    0    0  0.76856059059E+02 -0.27207129217E+02  0.19348791911E+03  0.24084282643E+03  0.11798563688E+03 0.  0.
          5    1    4    4  502    0  0.28074580832E+02 -0.60011971085E+02  0.15949777111E+03  0.17277513638E+03  0.47000000000E+01 0. -1.
         -5    1    4    4    0  502  0.48781478227E+02  0.32804841868E+02  0.33990147992E+02  0.68067690048E+02  0.47000000000E+01 0.  1.
          5    1    3    3  503    0 -0.32945670096E+02  0.75175251552E+02  0.18202688029E+03  0.19973134649E+03  0.47000000000E+01 0. -1.
         -5    1    3    3    0  503 -0.43910388963E+02 -0.47968122336E+02  0.20271048318E+03  0.21293823755E+03  0.47000000000E+01 0. -1.
<mgrwt>
<rscale>  0 0.14776370E+03</rscale>
<asrwt>0</asrwt>
<pdfrwt beam="1">  1        1 0.94749046E-01 0.14924258E+03</pdfrwt>
<pdfrwt beam="2">  1       -1 0.57913180E-02 0.14924258E+03</pdfrwt>
<totfact> 0.46500960E+03</totfact>
</mgrwt>
</event>
<event>
 8    1  0.2018715E-005  0.1533619E+03  0.7546771E-02  0.1196729E+00
          1   -1    0    0  501    0  0.00000000000E+00  0.00000000000E+00  0.72252180963E+03  0.72252180963E+03  0.00000000000E+00 0. -1.
         -1   -1    0    0    0  501 -0.00000000000E+00 -0.00000000000E+00 -0.63256641365E+02  0.63256641365E+02  0.00000000000E+00 0.  1.
         25    2    1    2    0    0 -0.86720866570E+02 -0.63859345303E+01  0.60378480522E+03  0.62268968774E+03  0.12500026937E+03 0.  0.
         23    2    1    2    0    0  0.86720866570E+02  0.63859345303E+01  0.55480363049E+02  0.16308876326E+03  0.12632729380E+03 0.  0.
          5    1    3    3  502    0 -0.79551006896E+02  0.48320202984E+02  0.30895705751E+03  0.32270692292E+03  0.47000000000E+01 0.  1.
         -5    1    4    4    0  503  0.11631027050E+03  0.18112845065E+02  0.28758705536E+02  0.12126544159E+03  0.47000000000E+01 0.  1.
          5    1    4    4  503    0 -0.29589403927E+02 -0.11726910534E+02  0.26721657513E+02  0.41823321672E+02  0.47000000000E+01 0. -1.
         -5    1    3    3    0  502 -0.71698596734E+01 -0.54706137514E+02  0.29482774771E+03  0.29998276482E+03  0.47000000000E+01 0.  1.
<mgrwt>
<rscale>  0 0.15308836E+03</rscale>
<asrwt>0</asrwt>
<pdfrwt beam="1">  1        1 0.11115720E+00 0.15336191E+03</pdfrwt>
<pdfrwt beam="2">  1       -1 0.97317915E-02 0.15336191E+03</pdfrwt>
<totfact> 0.16972993E+03</totfact>
</mgrwt>
</event>
<event>
 8    1  0.2018715E-005  0.2148063E+03  0.7546771E-02  0.1144017E+00
          2   -1    0    0  501    0  0.00000000000E+00  0.00000000000E+00  0.13195453504E+04  0.13195453504E+04  0.00000000000E+00 0. -1.
         -2   -1    0    0    0  501 -0.00000000000E+00 -0.00000000000E+00 -0.38821356288E+02  0.38821356288E+02  0.00000000000E+00 0.  1.
         25    2    1    2    0    0  0.62547305444E+01  0.17457425810E+03  0.99538161514E+03  0.10182957835E+04  0.12500579900E+03 0.  0.
         23    2    1    2    0    0 -0.62547305444E+01 -0.17457425810E+03  0.28534237895E+03  0.34007092312E+03  0.60931652537E+02 0.  0.
          5    1    3    3  502    0  0.54523576003E+02  0.13727459148E+03  0.80081473922E+03  0.81433621457E+03  0.47000000000E+01 0.  1.
         -5    1    4    4    0  503 -0.24214999861E+02 -0.13598306147E+03  0.24470322530E+03  0.28103294770E+03  0.47000000000E+01 0.  1.
          5    1    4    4  503    0  0.17960269317E+02 -0.38591196635E+02  0.40639153653E+02  0.59037975416E+02  0.47000000000E+01 0. -1.
         -5    1    3    3    0  502 -0.48268845459E+02  0.37299666624E+02  0.19456687592E+03  0.20395956898E+03  0.47000000000E+01 0.  1.
<mgrwt>
<rscale>  0 0.20693449E+03</rscale>
<asrwt>0</asrwt>
<pdfrwt beam="1">  1        2 0.20300694E+00 0.21480629E+03</pdfrwt>
<pdfrwt beam="2">  1       -2 0.59725174E-02 0.21480629E+03</pdfrwt>
<totfact> 0.25473993E+03</totfact>
</mgrwt>
</event>
<event>
 8    1  0.2018715E-005  0.1806931E+03  0.7546771E-02  0.1177414E+00
         -1   -1    0    0    0  501 -0.00000000000E+00  0.00000000000E+00  0.36081441757E+02  0.36081441757E+02  0.00000000000E+00 0.  1.
          1   -1    0    0  501    0  0.00000000000E+00 -0.00000000000E+00 -0.84230722676E+03  0.84230722676E+03  0.00000000000E+00 0. -1.
         25    2    1    2    0    0  0.12505424171E+03 -0.37245901467E+02 -0.28123235059E+03  0.33427779282E+03  0.12499674878E+03 0.  0.
         23    2    1    2    0    0 -0.12505424171E+03  0.37245901467E+02 -0.52499343441E+03  0.54411087570E+03  0.58418475970E+02 0.  0.
          5    1    4    4  502    0 -0.93510231656E+02  0.52170046600E+02 -0.41508668040E+03  0.42870143390E+03  0.47000000000E+01 0. -1.
         -5    1    3    3    0  503  0.14597728250E+02 -0.62603665125E+02 -0.74829756362E+02  0.98761809392E+02  0.47000000000E+01 0.  1.
          5    1    3    3  503    0  0.11045651346E+03  0.25357763658E+02 -0.20640259423E+03  0.23551598343E+03  0.47000000000E+01 0.  1.
         -5    1    4    4    0  502 -0.31544010055E+02 -0.14924145133E+02 -0.10990675401E+03  0.11540944180E+03  0.47000000000E+01 0.  1.
<mgrwt>
<rscale>  0 0.17041682E+03</rscale>
<asrwt>0</asrwt>
<pdfrwt beam="1">  1        1 0.12958573E+00 0.18069313E+03</pdfrwt>
<pdfrwt beam="2">  1       -1 0.55509911E-02 0.18069313E+03</pdfrwt>
<totfact> 0.31590014E+03</totfact>
</mgrwt>
</event>
<event>
 8    1  0.2018715E-005  0.2020606E+03  0.7546771E-02  0.1155436E+00
          2   -1    0    0  501    0  0.00000000000E+00  0.00000000000E+00  0.11795634406E+04  0.11795634406E+04  0.00000000000E+00 0. -1.
         -2   -1    0    0    0  501 -0.00000000000E+00 -0.00000000000E+00 -0.38544253514E+02  0.38544253514E+02  0.00000000000E+00 0.  1.
         25    2    1    2    0    0 -0.10699801868E+03  0.11728012049E+03  0.31050834033E+03  0.37046448192E+03  0.12500120113E+03 0.  0.
         23    2    1    2    0    0  0.10699801868E+03 -0.11728012049E+03  0.83051084675E+03  0.84764321218E+03  0.59561278799E+02 0.  0.
          5    1    4    4  502    0  0.90428747738E+02 -0.80350997358E+02  0.71452071204E+03  0.72470378716E+03  0.47000000000E+01 0. -1.
         -5    1    4    4    0  502  0.16569270946E+02 -0.36929123136E+02  0.11599013471E+03  0.12293942502E+03  0.47000000000E+01 0.  1.
          5    1    3    3  503    0  0.25180025189E+02  0.40912822636E+02  0.59158482449E+02  0.76352529560E+02  0.47000000000E+01 0.  1.
         -5    1    3    3    0  503 -0.13217804387E+03  0.76367297858E+02  0.25134985788E+03  0.29411195236E+03  0.47000000000E+01 0.  1.
<mgrwt>
<rscale>  0 0.19339375E+03</rscale>
<asrwt>0</asrwt>
<pdfrwt beam="1">  1        2 0.18147127E+00 0.20206064E+03</pdfrwt>
<pdfrwt beam="2">  1       -2 0.59298860E-02 0.20206064E+03</pdfrwt>
<totfact> 0.30796142E+03</totfact>
</mgrwt>
</event>
<event>
 8    1  0.2018715E-005  0.1281917E+03  0.7546771E-02  0.1257374E+00
          2   -1    0    0  501    0  0.00000000000E+00  0.00000000000E+00  0.13389143205E+03  0.13389143205E+03  0.00000000000E+00 0. -1.
         -2   -1    0    0    0  501 -0.00000000000E+00 -0.00000000000E+00 -0.94876660980E+02  0.94876660980E+02  0.00000000000E+00 0.  1.
         25    2    1    2    0    0  0.53978781104E+00 -0.28446225880E+02 -0.25359333341E+02  0.13067592469E+03  0.12499448935E+03 0.  0.
         23    2    1    2    0    0 -0.53978781104E+00  0.28446225880E+02  0.64374104414E+02  0.98092168346E+02  0.68326927591E+02 0.  0.
          5    1    3    3  502    0 -0.45997264071E+02 -0.47632682307E+02  0.12456413958E+02  0.67541638820E+02  0.47000000000E+01 0. -1.
         -5    1    4    4    0  503 -0.32907603698E+02  0.11772527618E+02  0.20149258374E+02  0.40615088338E+02  0.47000000000E+01 0.  1.
          5    1    4    4  503    0  0.32367815887E+02  0.16673698262E+02  0.44224846040E+02  0.57477080008E+02  0.47000000000E+01 0. -1.
         -5    1    3    3    0  502  0.46537051883E+02  0.19186456427E+02 -0.37815747299E+02  0.63134285867E+02  0.47000000000E+01 0. -1.
<mgrwt>
<rscale>  0 0.11174370E+03</rscale>
<asrwt>0</asrwt>
<pdfrwt beam="1">  1        2 0.20598682E-01 0.12819166E+03</pdfrwt>
<pdfrwt beam="2">  1       -2 0.14596409E-01 0.12819166E+03</pdfrwt>
<totfact> 0.90216894E+03</totfact>
</mgrwt>
</event>
<event>
 8    1  0.2018715E-005  0.1517734E+03  0.7546771E-02  0.1215881E+00
          1   -1    0    0  501    0  0.00000000000E+00  0.00000000000E+00  0.32137384132E+03  0.32137384132E+03  0.00000000000E+00 0. -1.
         -1   -1    0    0    0  501 -0.00000000000E+00 -0.00000000000E+00 -0.51011275328E+02  0.51011275328E+02  0.00000000000E+00 0.  1.
         25    2    1    2    0    0  0.46998297634E+02 -0.72118686096E+02  0.15301446387E+03  0.21551934281E+03  0.12500086443E+03 0.  0.
         23    2    1    2    0    0 -0.46998297634E+02  0.72118686096E+02  0.11734810212E+03  0.15686577384E+03  0.58535024253E+02 0.  0.
          5    1    3    3  502    0  0.27627938574E+02 -0.32635480588E+01  0.13981335598E+03  0.14263175749E+03  0.47000000000E+01 0. -1.
         -5    1    4    4    0  503  0.27864397820E+01  0.42969643147E+02  0.32488432256E+02  0.54145569618E+02  0.47000000000E+01 0.  1.
          5    1    4    4  503    0 -0.49784737416E+02  0.29149042949E+02  0.84859669867E+02  0.10272020422E+03  0.47000000000E+01 0. -1.
         -5    1    3    3    0  502  0.19370359060E+02 -0.68855138037E+02  0.13201107892E+02  0.72887585320E+02  0.47000000000E+01 0. -1.
<mgrwt>
<rscale>  0 0.13812008E+03</rscale>
<asrwt>0</asrwt>
<pdfrwt beam="1">  1        1 0.49442128E-01 0.15177339E+03</pdfrwt>
<pdfrwt beam="2">  1       -1 0.78478887E-02 0.15177339E+03</pdfrwt>
<totfact> 0.68359322E+03</totfact>
</mgrwt>
</event>
<event>
 7    1  0.2018715E-005  0.1550227E+03  0.7546771E-02  0.1216514E+00
          1   -1    0    0  501    0  0.00000000000E+00  0.00000000000E+00  0.79668809502E+02  0.79668809502E+02  0.00000000000E+00 0. -1.
         -1   -1    0    0    0  501 -0.00000000000E+00 -0.00000000000E+00 -0.35354192958E+03  0.35354192958E+03  0.00000000000E+00 0.  1.
         25    2    1    2    0    0  0.52183302168E+02 -0.75407247553E+02 -0.13548453025E+02  0.15561361765E+03  0.12499074929E+03 0.  0.
          5    1    3    3  502    0 -0.25129265256E+02 -0.26793439442E+01  0.31115031608E+02  0.40359559564E+02  0.47000000000E+01 0.  1.
         -5    1    1    2    0  503 -0.26447642970E+02  0.39640677386E+02 -0.94311072645E+02  0.10577111867E+03  0.47000000000E+01 0.  1.
          5    1    1    2  503    0 -0.25735659198E+02  0.35766570167E+02 -0.16601359441E+03  0.17182600276E+03  0.47000000000E+01 0. -1.
         -5    1    3    3    0  502  0.77312567424E+02 -0.72727903609E+02 -0.44663484632E+02  0.11525405808E+03  0.47000000000E+01 0.  1.
<mgrwt>
<rscale>  0 0.13765932E+03</rscale>
<asrwt>0</asrwt>
<pdfrwt beam="1">  1        1 0.12256740E-01 0.15502270E+03</pdfrwt>
<pdfrwt beam="2">  1       -1 0.54391065E-01 0.15502270E+03</pdfrwt>
<totfact> 0.16782646E+03</totfact>
</mgrwt>
</event>
<event>
 7    1  0.2018715E-005  0.2363252E+03  0.7546771E-02  0.1122817E+00
          1   -1    0    0  501    0  0.00000000000E+00  0.00000000000E+00  0.26645147520E+03  0.26645147520E+03  0.00000000000E+00 0. -1.
         -1   -1    0    0    0  501 -0.00000000000E+00 -0.00000000000E+00 -0.27264507705E+03  0.27264507705E+03  0.00000000000E+00 0.  1.
         25    2    1    2    0    0  0.27495264064E+02 -0.19481668654E+03  0.12942788000E+03  0.26662122039E+03  0.12500307252E+03 0.  0.
          5    1    3    3  502    0 -0.47461586848E+02 -0.50397919128E+02  0.27980974152E+02  0.74816959261E+02  0.47000000000E+01 0.  1.
         -5    1    3    3    0  502  0.74956850911E+02 -0.14441876742E+03  0.10144690585E+03  0.19180426113E+03  0.47000000000E+01 0.  1.
          5    1    1    2  503    0  0.49400428924E+02  0.11058232443E+03 -0.57514194739E+02  0.13415970129E+03  0.47000000000E+01 0. -1.
         -5    1    1    2    0  503 -0.76895692988E+02  0.84234362115E+02 -0.78107287113E+02  0.13831563057E+03  0.47000000000E+01 0.  1.
<mgrwt>
<rscale>  0 0.23551460E+03</rscale>
<asrwt>0</asrwt>
<pdfrwt beam="1">  1        1 0.40992534E-01 0.23632524E+03</pdfrwt>
<pdfrwt beam="2">  1       -1 0.41945397E-01 0.23632524E+03</pdfrwt>
<totfact> 0.57990948E+02</totfact>
</mgrwt>
</event>
<event>
 8    1  0.2018715E-005  0.1807664E+03  0.7546771E-02  0.1175406E+00
         -2   -1    0    0    0  501 -0.00000000000E+00  0.00000000000E+00  0.83518338175E+03  0.83518338175E+03  0.00000000000E+00 0.  1.
          2   -1    0    0  501    0  0.00000000000E+00 -0.00000000000E+00 -0.88578587122E+02  0.88578587122E+02  0.00000000000E+00 0. -1.
         25    2    1    2    0    0 -0.93789726249E+02 -0.90882302426E+02  0.75281157989E+03  0.77421041590E+03  0.12498154912E+03 0.  0.
         23    2    1    2    0    0  0.93789726249E+02  0.90882302426E+02 -0.62067852627E+01  0.14955155298E+03  0.72601908860E+02 0.  0.
          5    1    4    4  502    0 -0.39785629727E+00  0.42951484452E+02 -0.69350124549E+01  0.43762686206E+02  0.47000000000E+01 0. -1.
         -5    1    4    4    0  502  0.94187582546E+02  0.47930817974E+02  0.72822719226E+00  0.10578886677E+03  0.47000000000E+01 0.  1.
          5    1    3    3  503    0 -0.42388695349E+02 -0.85591099356E+02  0.23364264701E+03  0.25245517282E+03  0.47000000000E+01 0.  1.
         -5    1    3    3    0  503 -0.51401030899E+02 -0.52912030700E+01  0.51916893288E+03  0.52175524308E+03  0.47000000000E+01 0.  1.
<mgrwt>
<rscale>  0 0.17236236E+03</rscale>
<asrwt>0</asrwt>
<pdfrwt beam="1">  1        2 0.13627476E-01 0.18076641E+03</pdfrwt>
<pdfrwt beam="2">  1       -2 0.12848975E+00 0.18076641E+03</pdfrwt>
<totfact> 0.20583284E+02</totfact>
</mgrwt>
</event>
<event>
 7    1  0.2018715E-005  0.1946362E+03  0.7546771E-02  0.1161677E+00
          1   -1    0    0  501    0  0.00000000000E+00  0.00000000000E+00  0.32269039318E+03  0.32269039318E+03  0.00000000000E+00 0.  1.
         -1   -1    0    0    0  501 -0.00000000000E+00 -0.00000000000E+00 -0.10032024175E+03  0.10032024175E+03  0.00000000000E+00 0. -1.
         25    2    1    2    0    0  0.39056551493E+01 -0.10608530744E+03  0.84455059549E+02  0.18446540600E+03  0.12500192931E+03 0.  0.
          5    1    3    3  502    0  0.18690522892E+02 -0.12468517007E+03  0.37482378878E+02  0.13161590332E+03  0.47000000000E+01 0. -1.
         -5    1    1    2    0  503 -0.59328447570E+02 -0.83422464546E+01  0.76460026146E+02  0.97250621413E+02  0.47000000000E+01 0.  1.
          5    1    1    2  503    0  0.55422792420E+02  0.11442755390E+03  0.61455065737E+02  0.14129460752E+03  0.47000000000E+01 0. -1.
         -5    1    3    3    0  502 -0.14784867742E+02  0.18599862629E+02  0.46972680671E+02  0.52849502679E+02  0.47000000000E+01 0. -1.
<mgrwt>
<rscale>  0 0.18647745E+03</rscale>
<asrwt>0</asrwt>
<pdfrwt beam="1">  1        1 0.49644675E-01 0.19463621E+03</pdfrwt>
<pdfrwt beam="2">  1       -1 0.15433884E-01 0.19463621E+03</pdfrwt>
<totfact> 0.24199125E+03</totfact>
</mgrwt>
</event>
<event>
 8    1  0.2018715E-005  0.1289623E+03  0.7546771E-02  0.1235495E+00
          2   -1    0    0  501    0  0.00000000000E+00  0.00000000000E+00  0.30997238108E+03  0.30997238108E+03  0.00000000000E+00 0. -1.
         -2   -1    0    0    0  501 -0.00000000000E+00 -0.00000000000E+00 -0.51045367905E+02  0.51045367905E+02  0.00000000000E+00 0.  1.
         25    2    1    2    0    0 -0.28075057095E+02  0.14655623205E+02  0.18715911553E+03  0.22728792069E+03  0.12501307228E+03 0.  0.
         23    2    1    2    0    0  0.28075057095E+02 -0.14655623205E+02  0.71767897641E+02  0.13372982830E+03  0.10830530791E+03 0.  0.
          5    1    4    4  502    0 -0.24225335425E+02 -0.35009944420E+02  0.63809193799E+02  0.76852236780E+02  0.47000000000E+01 0. -1.
         -5    1    4    4    0  502  0.52300392520E+02  0.20354321215E+02  0.79587038412E+01  0.56877591517E+02  0.47000000000E+01 0.  1.
          5    1    3    3  503    0 -0.31984765030E+02  0.47992416263E+02  0.18441953838E+03  0.19328464334E+03  0.47000000000E+01 0. -1.
         -5    1    3    3    0  503  0.39097079349E+01 -0.33336793058E+02  0.27395771498E+01  0.34003277349E+02  0.47000000000E+01 0. -1.
<mgrwt>
<rscale>  0 0.12472786E+03</rscale>
<asrwt>0</asrwt>
<pdfrwt beam="1">  1        2 0.47688057E-01 0.12896226E+03</pdfrwt>
<pdfrwt beam="2">  1       -2 0.78531337E-02 0.12896226E+03</pdfrwt>
<totfact> 0.96900030E+03</totfact>
</mgrwt>
</event>
<event>
 8    1  0.2018715E-005  0.1742739E+03  0.7546771E-02  0.1181672E+00
          2   -1    0    0  501    0  0.00000000000E+00  0.00000000000E+00  0.56876230109E+02  0.56876230109E+02  0.00000000000E+00 0. -1.
         -2   -1    0    0    0  501 -0.00000000000E+00 -0.00000000000E+00 -0.68489627289E+03  0.68489627289E+03  0.00000000000E+00 0.  1.
         25    2    1    2    0    0 -0.89397893475E+02  0.82178740934E+02 -0.55072072154E+03  0.57763716079E+03  0.12500419023E+03 0.  0.
         23    2    1    2    0    0  0.89397893475E+02 -0.82178740934E+02 -0.77299321251E+02  0.16413534222E+03  0.78866321577E+02 0.  0.
          5    1    3    3  502    0 -0.37879320499E+02 -0.25194477558E+02 -0.80883824555E+02  0.92918715529E+02  0.47000000000E+01 0.  1.
         -5    1    4    4    0  503  0.51392284180E+02 -0.54159917735E+02 -0.87991554032E+02  0.11549487929E+03  0.47000000000E+01 0.  1.
          5    1    4    4  503    0  0.38005609294E+02 -0.28018823199E+02  0.10692232781E+02  0.48640462920E+02  0.47000000000E+01 0. -1.
         -5    1    3    3    0  502 -0.51518572976E+02  0.10737321849E+03 -0.46983689698E+03  0.48471844526E+03  0.47000000000E+01 0.  1.
<mgrwt>
<rscale>  0 0.16638402E+03</rscale>
<asrwt>0</asrwt>
<pdfrwt beam="1">  1        2 0.87501889E-02 0.17427385E+03</pdfrwt>
<pdfrwt beam="2">  1       -2 0.10536866E+00 0.17427385E+03</pdfrwt>
<totfact> 0.56930149E+02</totfact>
</mgrwt>
</event>
<event>
 8    1  0.2018715E-005  0.1394141E+03  0.7546771E-02  0.1233870E+00
          1   -1    0    0  501    0  0.00000000000E+00  0.00000000000E+00  0.17655516202E+02  0.17655516202E+02  0.00000000000E+00 0. -1.
         -1   -1    0    0    0  501 -0.00000000000E+00 -0.00000000000E+00 -0.84787438301E+03  0.84787438301E+03  0.00000000000E+00 0.  1.
         25    2    1    2    0    0 -0.61729465468E+02  0.18350229748E+01 -0.35443923692E+03  0.38087196545E+03  0.12498954829E+03 0.  0.
         23    2    1    2    0    0  0.61729465468E+02 -0.18350229748E+01 -0.47577962990E+03  0.48465793377E+03  0.68652475016E+02 0.  0.
          5    1    3    3  502    0 -0.94125106128E+02  0.26751419353E+02 -0.23771104942E+03  0.25710660640E+03  0.47000000000E+01 0. -1.
         -5    1    4    4    0  503  0.48577788325E+02 -0.24611611366E+02 -0.41049082180E+03  0.41411391877E+03  0.47000000000E+01 0.  1.
          5    1    4    4  503    0  0.13151677143E+02  0.22776588392E+02 -0.65288808094E+02  0.70544015003E+02  0.47000000000E+01 0. -1.
         -5    1    3    3    0  502  0.32395640660E+02 -0.24916396379E+02 -0.11672818750E+03  0.12376535904E+03  0.47000000000E+01 0. -1.
<mgrwt>
<rscale>  0 0.12577080E+03</rscale>
<asrwt>0</asrwt>
<pdfrwt beam="1">  1        1 0.27162335E-02 0.13941406E+03</pdfrwt>
<pdfrwt beam="2">  1       -1 0.13044220E+00 0.13941406E+03</pdfrwt>
<totfact> 0.20554016E+03</totfact>
</mgrwt>
</event>
<event>
 7    1  0.2018715E-005  0.1723216E+03  0.7546771E-02  0.1188623E+00
          1   -1    0    0  501    0  0.00000000000E+00  0.00000000000E+00  0.46729689257E+03  0.46729689257E+03  0.00000000000E+00 0. -1.
         -1   -1    0    0    0  501 -0.00000000000E+00 -0.00000000000E+00 -0.50215703605E+02  0.50215703605E+02  0.00000000000E+00 0.  1.
         25    2    1    2    0    0  0.11332406679E+03 -0.35116567590E+02  0.18850964006E+03  0.25540284264E+03  0.12497683866E+03 0.  0.
          5    1    1    2  502    0 -0.65489123321E+02  0.39030020240E+02  0.16904337736E+03  0.18549911369E+03  0.47000000000E+01 0. -1.
         -5    1    3    3    0  503 -0.11395244648E+02 -0.25371349920E+02 -0.10604852204E+01  0.28227143430E+02  0.47000000000E+01 0.  1.
          5    1    3    3  503    0  0.12471931144E+03 -0.97452176704E+01  0.18957012528E+03  0.22717569921E+03  0.47000000000E+01 0.  1.
         -5    1    1    2    0  502 -0.47834943472E+02 -0.39134526498E+01  0.59528171557E+02  0.76610639845E+02  0.47000000000E+01 0.  1.
<mgrwt>
<rscale>  0 0.16006529E+03</rscale>
<asrwt>0</asrwt>
<pdfrwt beam="1">  1        1 0.71891827E-01 0.17232158E+03</pdfrwt>
<pdfrwt beam="2">  1       -1 0.77254932E-02 0.17232158E+03</pdfrwt>
<totfact> 0.43860327E+03</totfact>
</mgrwt>
</event>
<event>
 8    1  0.2018715E-005  0.1287711E+03  0.7546771E-02  0.1233822E+00
         -2   -1    0    0    0  501 -0.00000000000E+00  0.00000000000E+00  0.33376000013E+03  0.33376000013E+03  0.00000000000E+00 0.  1.
          2   -1    0    0  501    0  0.00000000000E+00 -0.00000000000E+00 -0.45472619937E+02  0.45472619937E+02  0.00000000000E+00 0. -1.
         25    2    1    2    0    0  0.43899771576E+01  0.30601574693E+02  0.14119562922E+03  0.19109736488E+03  0.12500507543E+03 0.  0.
         23    2    1    2    0    0 -0.43899771576E+01 -0.30601574693E+02  0.14709175098E+03  0.18813525519E+03  0.11315106171E+03 0.  0.
          5    1    3    3  502    0  0.38168807024E+02  0.67018053679E+02  0.10013844508E+03  0.12648349905E+03  0.47000000000E+01 0.  1.
         -5    1    4    4    0  503  0.77905636964E+01  0.32007768600E+02  0.10838557492E+03  0.11337862666E+03  0.47000000000E+01 0.  1.
          5    1    4    4  503    0 -0.12180540854E+02 -0.62609343292E+02  0.38706176059E+02  0.74756628523E+02  0.47000000000E+01 0. -1.
         -5    1    3    3    0  502 -0.33778829866E+02 -0.36416478986E+02  0.41057184134E+02  0.64613865833E+02  0.47000000000E+01 0.  1.
<mgrwt>
<rscale>  0 0.12580177E+03</rscale>
<asrwt>0</asrwt>
<pdfrwt beam="1">  1        2 0.69957879E-02 0.12877110E+03</pdfrwt>
<pdfrwt beam="2">  1       -2 0.51347691E-01 0.12877110E+03</pdfrwt>
<totfact> 0.35030637E+03</totfact>
</mgrwt>
</event>
<event>
 8    1  0.2018715E-005  0.1267873E+03  0.7546771E-02  0.1235364E+00
          1   -1    0    0  501    0  0.00000000000E+00  0.00000000000E+00  0.43775162338E+03  0.43775162338E+03  0.00000000000E+00 0. -1.
         -1   -1    0    0    0  501 -0.00000000000E+00 -0.00000000000E+00 -0.41455026190E+02  0.41455026190E+02  0.00000000000E+00 0.  1.
         25    2    1    2    0    0  0.56941404038E+01  0.20457775120E+02  0.10536845563E+03  0.16485612214E+03  0.12499634301E+03 0.  0.
         23    2    1    2    0    0 -0.56941404038E+01 -0.20457775120E+02  0.29092814157E+03  0.31435052744E+03  0.11715855388E+03 0.  0.
          5    1    4    4  502    0 -0.30861441205E+02 -0.13548623500E+02  0.28519681564E+03  0.28721996344E+03  0.47000000000E+01 0. -1.
         -5    1    4    4    0  502  0.25167300801E+02 -0.69091516193E+01  0.57313259318E+01  0.27130563994E+02  0.47000000000E+01 0.  1.
          5    1    3    3  503    0 -0.92998453768E+01 -0.47101250460E+02  0.74914640448E+02  0.89102796097E+02  0.47000000000E+01 0. -1.
         -5    1    3    3    0  503  0.14993985781E+02  0.67559025580E+02  0.30453815177E+02  0.75753326038E+02  0.47000000000E+01 0. -1.
<mgrwt>
<rscale>  0 0.12481168E+03</rscale>
<asrwt>0</asrwt>
<pdfrwt beam="1">  1        1 0.67346401E-01 0.12678734E+03</pdfrwt>
<pdfrwt beam="2">  1       -1 0.63776966E-02 0.12678734E+03</pdfrwt>
<totfact> 0.62609184E+03</totfact>
</mgrwt>
</event>
<event>
 8    1  0.2018715E-005  0.1565071E+03  0.7546771E-02  0.1204819E+00
          2   -1    0    0  501    0  0.00000000000E+00  0.00000000000E+00  0.97823987066E+03  0.97823987066E+03  0.00000000000E+00 0.  1.
         -2   -1    0    0    0  501 -0.00000000000E+00 -0.00000000000E+00 -0.21519562150E+02  0.21519562150E+02  0.00000000000E+00 0. -1.
         25    2    1    2    0    0 -0.93074996564E+02 -0.14452797558E+02  0.68471165911E+03  0.70237065911E+03  0.12499059293E+03 0.  0.
         23    2    1    2    0    0  0.93074996564E+02  0.14452797558E+02  0.27200864940E+03  0.29738877369E+03  0.74696312019E+02 0.  0.
          5    1    3    3  502    0 -0.19149822756E+02 -0.63988101898E+02  0.32004687327E+03  0.32697596851E+03  0.47000000000E+01 0. -1.
         -5    1    3    3    0  502 -0.73925173808E+02  0.49535304340E+02  0.36466478584E+03  0.37539469060E+03  0.47000000000E+01 0. -1.
          5    1    4    4  503    0  0.15416384505E+02  0.22915745982E+02  0.22615171305E+02  0.36004614958E+02  0.47000000000E+01 0. -1.
         -5    1    4    4    0  503  0.77658612059E+02 -0.84629484239E+01  0.24939347809E+03  0.26138415874E+03  0.47000000000E+01 0.  1.
<mgrwt>
<rscale>  0 0.14651743E+03</rscale>
<asrwt>0</asrwt>
<pdfrwt beam="1">  1        2 0.15049841E+00 0.15650715E+03</pdfrwt>
<pdfrwt beam="2">  1       -2 0.33107026E-02 0.15650715E+03</pdfrwt>
<totfact> 0.96213496E+03</totfact>
</mgrwt>
</event>
<event>
 8    1  0.2018715E-005  0.2128888E+03  0.7546771E-02  0.1144657E+00
         -4   -1    0    0    0  501 -0.00000000000E+00  0.00000000000E+00  0.16254085282E+03  0.16254085282E+03  0.00000000000E+00 0. -1.
          4   -1    0    0  501    0  0.00000000000E+00 -0.00000000000E+00 -0.27170686836E+03  0.27170686836E+03  0.00000000000E+00 0.  1.
         25    2    1    2    0    0 -0.85103350952E+02 -0.14985048784E+03 -0.12422523490E+03  0.24648232955E+03  0.12499552290E+03 0.  0.
         23    2    1    2    0    0  0.85103350952E+02  0.14985048784E+03  0.15059219362E+02  0.18776539163E+03  0.73015841813E+02 0.  0.
          5    1    4    4  502    0  0.11609512540E+02  0.84666864672E+02  0.24335865398E+02  0.88980801859E+02  0.47000000000E+01 0. -1.
         -5    1    3    3    0  503  0.14981078227E+02 -0.27042139301E+02 -0.73811753041E+02  0.80162178674E+02  0.47000000000E+01 0. -1.
          5    1    3    3  503    0 -0.10008442918E+03 -0.12280834854E+03 -0.50413481863E+02  0.16632015088E+03  0.47000000000E+01 0. -1.
         -5    1    4    4    0  502  0.73493838412E+02  0.65183623168E+02 -0.92766460360E+01  0.98784589768E+02  0.47000000000E+01 0.  1.
<mgrwt>
<rscale>  0 0.20614278E+03</rscale>
<asrwt>0</asrwt>
<pdfrwt beam="1">  1        4 0.41801056E-01 0.21288877E+03</pdfrwt>
<pdfrwt beam="2">  1       -4 0.25006285E-01 0.21288877E+03</pdfrwt>
<totfact> 0.14961681E+02</totfact>
</mgrwt>
</event>
<event>
 8    1  0.2018715E-005  0.1456329E+03  0.7546771E-02  0.1212061E+00
          1   -1    0    0  501    0  0.00000000000E+00  0.00000000000E+00  0.11971247091E+04  0.11971247091E+04  0.00000000000E+00 0. -1.
         -1   -1    0    0    0  501 -0.00000000000E+00 -0.00000000000E+00 -0.20035616124E+02  0.20035616124E+02  0.00000000000E+00 0.  1.
         25    2    1    2    0    0  0.74662409052E+02  0.27346165887E+01  0.90403447583E+03  0.91568951541E+03  0.12500800650E+03 0.  0.
         23    2    1    2    0    0 -0.74662409052E+02 -0.27346165887E+01  0.27305461716E+03  0.30147080983E+03  0.10365264962E+03 0.  0.
          5    1    4    4  502    0 -0.35089673196E+02  0.10108980079E+02  0.25187053693E+03  0.25454731195E+03  0.47000000000E+01 0. -1.
         -5    1    4    4    0  502 -0.39572735856E+02 -0.12843596668E+02  0.21184080224E+02  0.46923497881E+02  0.47000000000E+01 0.  1.
          5    1    3    3  503    0  0.85568634200E+02  0.48372545043E+02  0.62409969329E+03  0.63181042365E+03  0.47000000000E+01 0.  1.
         -5    1    3    3    0  503 -0.10906225148E+02 -0.45637928454E+02  0.27993478255E+03  0.28387909176E+03  0.47000000000E+01 0.  1.
<mgrwt>
<rscale>  0 0.14094644E+03</rscale>
<asrwt>0</asrwt>
<pdfrwt beam="1">  1        1 0.18417297E+00 0.14563295E+03</pdfrwt>
<pdfrwt beam="2">  1       -1 0.30824034E-02 0.14563295E+03</pdfrwt>
<totfact> 0.41053396E+03</totfact>
</mgrwt>
</event>
<event>
 8    1  0.2018715E-005  0.1512859E+03  0.7546771E-02  0.1200608E+00
          2   -1    0    0  501    0  0.00000000000E+00  0.00000000000E+00  0.72642211280E+03  0.72642211280E+03  0.00000000000E+00 0. -1.
         -2   -1    0    0    0  501 -0.00000000000E+00 -0.00000000000E+00 -0.32851046791E+02  0.32851046791E+02  0.00000000000E+00 0.  1.
         25    2    1    2    0    0 -0.84470863867E+02  0.11227795627E+02  0.45702040827E+03  0.48140947916E+03  0.12500417118E+03 0.  0.
         23    2    1    2    0    0  0.84470863867E+02 -0.11227795627E+02  0.23655065774E+03  0.27786368043E+03  0.11828195547E+03 0.  0.
          5    1    3    3  502    0 -0.53925751037E+02  0.41682444165E+02  0.96208997955E+02  0.11799861891E+03  0.47000000000E+01 0.  1.
         -5    1    4    4    0  503  0.39274800031E+02  0.19537669774E+01  0.31638624745E+01  0.39729424217E+02  0.47000000000E+01 0.  1.
          5    1    4    4  503    0  0.45196063835E+02 -0.13181562604E+02  0.23338679526E+03  0.23813425621E+03  0.47000000000E+01 0. -1.
         -5    1    3    3    0  502 -0.30545112830E+02 -0.30454648539E+02  0.36081141032E+03  0.36341086025E+03  0.47000000000E+01 0.  1.
<mgrwt>
<rscale>  0 0.14989043E+03</rscale>
<asrwt>0</asrwt>
<pdfrwt beam="1">  1        2 0.11175724E+00 0.15128593E+03</pdfrwt>
<pdfrwt beam="2">  1       -2 0.50540077E-02 0.15128593E+03</pdfrwt>
<totfact> 0.74775054E+03</totfact>
</mgrwt>
</event>
<event>
 8    1  0.2018715E-005  0.1737982E+03  0.7546771E-02  0.1185098E+00
         -1   -1    0    0    0  501 -0.00000000000E+00  0.00000000000E+00  0.51805208700E+02  0.51805208700E+02  0.00000000000E+00 0.  1.
          1   -1    0    0  501    0  0.00000000000E+00 -0.00000000000E+00 -0.87139972966E+03  0.87139972966E+03  0.00000000000E+00 0. -1.
         25    2    1    2    0    0  0.75918212045E+02  0.93900436446E+02 -0.75238504709E+03  0.77219755448E+03  0.12499974870E+03 0.  0.
         23    2    1    2    0    0 -0.75918212045E+02 -0.93900436446E+02 -0.67209473869E+02  0.15100738388E+03  0.60870762468E+02 0.  0.
          5    1    3    3  502    0  0.10054063664E+03  0.43129281152E+02 -0.59368374578E+03  0.60369780065E+03  0.47000000000E+01 0.  1.
         -5    1    3    3    0  502 -0.24622424593E+02  0.50771155294E+02 -0.15870130132E+03  0.16849975383E+03  0.47000000000E+01 0.  1.
          5    1    4    4  503    0  0.47136890029E+01 -0.32578332243E+02 -0.22691030900E+02  0.40255924770E+02  0.47000000000E+01 0. -1.
         -5    1    4    4    0  503 -0.80631901048E+02 -0.61322104203E+02 -0.44518442969E+02  0.11075145911E+03  0.47000000000E+01 0.  1.
<mgrwt>
<rscale>  0 0.16322966E+03</rscale>
<asrwt>0</asrwt>
<pdfrwt beam="1">  1        1 0.13406149E+00 0.17379817E+03</pdfrwt>
<pdfrwt beam="2">  1       -1 0.79700323E-02 0.17379817E+03</pdfrwt>
<totfact> 0.17356309E+03</totfact>
</mgrwt>
</event>
<event>
 8    1  0.2018715E-005  0.1330522E+03  0.7546771E-02  0.1247230E+00
         -4   -1    0    0    0  501 -0.00000000000E+00  0.00000000000E+00  0.77658533591E+02  0.77658533591E+02  0.00000000000E+00 0.  1.
          4   -1    0    0  501    0  0.00000000000E+00 -0.00000000000E+00 -0.18812033817E+03  0.18812033817E+03  0.00000000000E+00 0. -1.
         25    2    1    2    0    0  0.37162167852E+02 -0.26411355002E+02 -0.12605838192E+03  0.18328560987E+03  0.12499725094E+03 0.  0.
         23    2    1    2    0    0 -0.37162167852E+02  0.26411355002E+02  0.15596577345E+02  0.82493261886E+02  0.66957439013E+02 0.  0.
          5    1    3    3  502    0 -0.76900768825E+01 -0.25234782517E+02 -0.13471096926E+03  0.13735016116E+03  0.47000000000E+01 0. -1.
         -5    1    4    4    0  503 -0.57618340136E+01 -0.19812039421E+02  0.15810481911E+02  0.26415468489E+02  0.47000000000E+01 0.  1.
          5    1    4    4  503    0 -0.31400333838E+02  0.46223394423E+02 -0.21390456613E+00  0.56077793397E+02  0.47000000000E+01 0. -1.
         -5    1    3    3    0  502  0.44852244734E+02 -0.11765724858E+01  0.86525873427E+01  0.45935448711E+02  0.47000000000E+01 0. -1.
<mgrwt>
<rscale>  0 0.11752905E+03</rscale>
<asrwt>0</asrwt>
<pdfrwt beam="1">  1        4 0.28941590E-01 0.13305224E+03</pdfrwt>
<pdfrwt beam="2">  1       -4 0.11947467E-01 0.13305224E+03</pdfrwt>
<totfact> 0.10475667E+03</totfact>
</mgrwt>
</event>
<event>
 8    1  0.2018715E-005  0.1509877E+03  0.7546771E-02  0.1212550E+00
          1   -1    0    0  501    0  0.00000000000E+00  0.00000000000E+00  0.34291466759E+03  0.34291466759E+03  0.00000000000E+00 0. -1.
         -1   -1    0    0    0  501 -0.00000000000E+00 -0.00000000000E+00 -0.52734260371E+02  0.52734260371E+02  0.00000000000E+00 0.  1.
         25    2    1    2    0    0 -0.81527065244E+02 -0.22914500640E+02  0.20064963621E+03  0.25111265141E+03  0.12500220191E+03 0.  0.
         23    2    1    2    0    0  0.81527065244E+02  0.22914500640E+02  0.89530771012E+02  0.14453627655E+03  0.75519795907E+02 0.  0.
          5    1    3    3  502    0 -0.37446287831E+02 -0.71082641702E+02  0.14199462494E+03  0.16321620611E+03  0.47000000000E+01 0. -1.
         -5    1    3    3    0  502 -0.44080777413E+02  0.48168141062E+02  0.58655011264E+02  0.87896445304E+02  0.47000000000E+01 0. -1.
          5    1    4    4  503    0  0.63133910045E+02  0.32577234786E+02  0.98403999902E+02  0.12146029812E+03  0.47000000000E+01 0. -1.
         -5    1    4    4    0  503  0.18393155200E+02 -0.96627341454E+01 -0.88732288895E+01  0.23075978425E+02  0.47000000000E+01 0.  1.
<mgrwt>
<rscale>  0 0.14058031E+03</rscale>
<asrwt>0</asrwt>
<pdfrwt beam="1">  1        1 0.52756101E-01 0.15098771E+03</pdfrwt>
<pdfrwt beam="2">  1       -1 0.81129633E-02 0.15098771E+03</pdfrwt>
<totfact> 0.59935441E+03</totfact>
</mgrwt>
</event>
<event>
 8    1  0.2018715E-005  0.1307470E+03  0.7546771E-02  0.1255351E+00
         -1   -1    0    0    0  501 -0.00000000000E+00  0.00000000000E+00  0.13003996025E+02  0.13003996025E+02  0.00000000000E+00 0.  1.
          1   -1    0    0  501    0  0.00000000000E+00 -0.00000000000E+00 -0.83175755190E+03  0.83175755190E+03  0.00000000000E+00 0. -1.
         25    2    1    2    0    0 -0.38306461302E+02  0.15534958079E+01 -0.43599136253E+03  0.45517386341E+03  0.12499991762E+03 0.  0.
         23    2    1    2    0    0  0.38306461302E+02 -0.15534958079E+01 -0.38276219335E+03  0.38958768452E+03  0.61659297303E+02 0.  0.
          5    1    3    3  502    0  0.27428345356E+02 -0.37732987258E+02 -0.24317331668E+03  0.24765186129E+03  0.47000000000E+01 0. -1.
         -5    1    3    3    0  502 -0.65734806658E+02  0.39286483066E+02 -0.19281804585E+03  0.20752200212E+03  0.47000000000E+01 0. -1.
          5    1    4    4  503    0  0.22057495916E+01 -0.27215763969E+02 -0.16603764775E+03  0.16833345957E+03  0.47000000000E+01 0. -1.
         -5    1    4    4    0  503  0.36100711710E+02  0.25662268161E+02 -0.21672454560E+03  0.22125422495E+03  0.47000000000E+01 0.  1.
<mgrwt>
<rscale>  0 0.11286708E+03</rscale>
<asrwt>0</asrwt>
<pdfrwt beam="1">  1        1 0.12796269E+00 0.13074700E+03</pdfrwt>
<pdfrwt beam="2">  1       -1 0.20006149E-02 0.13074700E+03</pdfrwt>
<totfact> 0.14157304E+04</totfact>
</mgrwt>
</event>
<event>
 8    1  0.2018715E-005  0.1788706E+03  0.7546771E-02  0.1172074E+00
         -2   -1    0    0    0  501 -0.00000000000E+00  0.00000000000E+00  0.35602725642E+02  0.35602725642E+02  0.00000000000E+00 0.  1.
          2   -1    0    0  501    0  0.00000000000E+00 -0.00000000000E+00 -0.10016362395E+04  0.10016362395E+04  0.00000000000E+00 0. -1.
         25    2    1    2    0    0  0.12372815601E+03 -0.32559834204E+02 -0.70785368686E+03  0.73010378152E+03  0.12500356151E+03 0.  0.
         23    2    1    2    0    0 -0.12372815601E+03  0.32559834204E+02 -0.25817982703E+03  0.30713518366E+03  0.10633155018E+03 0.  0.
          5    1    4    4  502    0 -0.83921639969E+02  0.21696579078E+01 -0.23890221347E+03  0.25326647364E+03  0.47000000000E+01 0. -1.
         -5    1    3    3    0  503  0.70726366890E+02  0.26204208713E+02 -0.53028378255E+03  0.53564154018E+03  0.47000000000E+01 0. -1.
          5    1    3    3  503    0  0.53001789119E+02 -0.58764042918E+02 -0.17756990431E+03  0.19446224134E+03  0.47000000000E+01 0. -1.
         -5    1    4    4    0  502 -0.39806516040E+02  0.30390176297E+02 -0.19277613566E+02  0.53868710021E+02  0.47000000000E+01 0.  1.
<mgrwt>
<rscale>  0 0.17565704E+03</rscale>
<asrwt>0</asrwt>
<pdfrwt beam="1">  1        2 0.15409789E+00 0.17887060E+03</pdfrwt>
<pdfrwt beam="2">  1       -2 0.54773423E-02 0.17887060E+03</pdfrwt>
<totfact> 0.44030987E+03</totfact>
</mgrwt>
</event>
<event>
 8    1  0.2018715E-005  0.1482593E+03  0.7546771E-02  0.1216113E+00
          1   -1    0    0  501    0  0.00000000000E+00  0.00000000000E+00  0.31694214823E+02  0.31694214823E+02  0.00000000000E+00 0. -1.
         -1   -1    0    0    0  501 -0.00000000000E+00 -0.00000000000E+00 -0.54080838731E+03  0.54080838731E+03  0.00000000000E+00 0.  1.
         25    2    1    2    0    0  0.73517355679E+02  0.30845510452E+02 -0.25160565948E+03  0.29203803691E+03  0.12499824006E+03 0.  0.
         23    2    1    2    0    0 -0.73517355679E+02 -0.30845510452E+02 -0.25750851301E+03  0.28046456522E+03  0.77417639939E+02 0.  0.
          5    1    3    3  502    0  0.80915363129E+01 -0.35361870525E+02 -0.14899677328E+03  0.15342119572E+03  0.47000000000E+01 0.  1.
         -5    1    4    4    0  503 -0.52678042976E+02  0.56218670851E+01 -0.68151243101E+02  0.86448039524E+02  0.47000000000E+01 0.  1.
          5    1    4    4  503    0 -0.20839312704E+02 -0.36467377537E+02 -0.18935726991E+03  0.19401652570E+03  0.47000000000E+01 0. -1.
         -5    1    3    3    0  502  0.65425819366E+02  0.66207380976E+02 -0.10260888620E+03  0.13861684119E+03  0.47000000000E+01 0.  1.
<mgrwt>
<rscale>  0 0.13795060E+03</rscale>
<asrwt>0</asrwt>
<pdfrwt beam="1">  1        1 0.48760333E-02 0.14825926E+03</pdfrwt>
<pdfrwt beam="2">  1       -1 0.83201287E-01 0.14825926E+03</pdfrwt>
<totfact> 0.25159726E+03</totfact>
</mgrwt>
</event>
<event>
 8    1  0.2018715E-005  0.1638242E+03  0.7546771E-02  0.1194966E+00
         -1   -1    0    0    0  501 -0.00000000000E+00  0.00000000000E+00  0.72958422469E+02  0.72958422469E+02  0.00000000000E+00 0. -1.
          1   -1    0    0  501    0  0.00000000000E+00 -0.00000000000E+00 -0.29833821803E+03  0.29833821803E+03  0.00000000000E+00 0.  1.
         25    2    1    2    0    0 -0.10589344372E+03  0.11779573959E+01 -0.14362950848E+03  0.21787105848E+03  0.12499421351E+03 0.  0.
         23    2    1    2    0    0  0.10589344372E+03 -0.11779573959E+01 -0.81750287086E+02  0.15342558202E+03  0.75109858042E+02 0.  0.
          5    1    3    3  502    0  0.27028253404E+02  0.12429326987E+02 -0.31006904233E+02  0.43226528446E+02  0.47000000000E+01 0. -1.
         -5    1    4    4    0  503  0.30061036428E+02  0.15135943154E+02 -0.65856022977E+02  0.74107141684E+02  0.47000000000E+01 0.  1.
          5    1    4    4  503    0  0.75832407289E+02 -0.16313900550E+02 -0.15894264109E+02  0.79318440340E+02  0.47000000000E+01 0. -1.
         -5    1    3    3    0  502 -0.13292169712E+03 -0.11251369591E+02 -0.11262260425E+03  0.17464453003E+03  0.47000000000E+01 0. -1.
<mgrwt>
<rscale>  0 0.15457127E+03</rscale>
<asrwt>0</asrwt>
<pdfrwt beam="1">  1        1 0.45898187E-01 0.16382418E+03</pdfrwt>
<pdfrwt beam="2">  1       -1 0.11224373E-01 0.16382418E+03</pdfrwt>
<totfact> 0.43609966E+03</totfact>
</mgrwt>
</event>
<event>
 8    1  0.2018715E-005  0.1405465E+03  0.7546771E-02  0.1216910E+00
          2   -1    0    0  501    0  0.00000000000E+00  0.00000000000E+00  0.76049398541E+03  0.76049398541E+03  0.00000000000E+00 0. -1.
         -2   -1    0    0    0  501 -0.00000000000E+00 -0.00000000000E+00 -0.23783990621E+02  0.23783990621E+02  0.00000000000E+00 0.  1.
         25    2    1    2    0    0 -0.64191339637E+02  0.23820428466E+01  0.37155768892E+03  0.39725109915E+03  0.12500846918E+03 0.  0.
         23    2    1    2    0    0  0.64191339637E+02 -0.23820428466E+01  0.36515230587E+03  0.38702687688E+03  0.11102880138E+03 0.  0.
          5    1    4    4  502    0 -0.29083714107E+02  0.14552225060E+02  0.10947110729E+03  0.11429629483E+03  0.47000000000E+01 0. -1.
         -5    1    4    4    0  502  0.93275053745E+02 -0.16934267907E+02  0.25568119858E+03  0.27273058206E+03  0.47000000000E+01 0.  1.
          5    1    3    3  503    0 -0.35329554417E+02  0.49771580746E+02  0.81683833772E+02  0.10207706091E+03  0.47000000000E+01 0.  1.
         -5    1    3    3    0  503 -0.28861785221E+02 -0.47389537899E+02  0.28987385515E+03  0.29517403823E+03  0.47000000000E+01 0.  1.
<mgrwt>
<rscale>  0 0.13737182E+03</rscale>
<asrwt>0</asrwt>
<pdfrwt beam="1">  1        2 0.11699906E+00 0.14054650E+03</pdfrwt>
<pdfrwt beam="2">  1       -2 0.36590761E-02 0.14054650E+03</pdfrwt>
<totfact> 0.11408482E+04</totfact>
</mgrwt>
</event>
<event>
 7    1  0.2018715E-005  0.2320587E+03  0.7546771E-02  0.1132947E+00
          2   -1    0    0  501    0  0.00000000000E+00  0.00000000000E+00  0.14538462427E+03  0.14538462427E+03  0.00000000000E+00 0. -1.
         -2   -1    0    0    0  501 -0.00000000000E+00 -0.00000000000E+00 -0.38132698968E+03  0.38132698968E+03  0.00000000000E+00 0.  1.
         25    2    1    2    0    0  0.93442288275E+02 -0.11148176154E+03 -0.22323278446E+03  0.29430514026E+03  0.12499198028E+03 0.  0.
          5    1    3    3  502    0  0.11599849919E+03 -0.11095126607E+03 -0.15867040415E+03  0.22575256900E+03  0.47000000000E+01 0.  1.
         -5    1    1    2    0  503 -0.96324346592E+02  0.88667451713E+02  0.68528086449E+02  0.14784615440E+03  0.47000000000E+01 0. -1.
          5    1    1    2  503    0  0.28820583166E+01  0.22814309828E+02 -0.81237667396E+02  0.84560319282E+02  0.47000000000E+01 0.  1.
         -5    1    3    3    0  502 -0.22556210912E+02 -0.53049547153E+00 -0.64562380311E+02  0.68552571269E+02  0.47000000000E+01 0.  1.
<mgrwt>
<rscale>  0 0.22126042E+03</rscale>
<asrwt>0</asrwt>
<pdfrwt beam="1">  1        2 0.22366865E-01 0.23205869E+03</pdfrwt>
<pdfrwt beam="2">  1       -2 0.58665691E-01 0.23205869E+03</pdfrwt>
<totfact> 0.67630053E+02</totfact>
</mgrwt>
</event>
<event>
 8    1  0.2018715E-005  0.1353721E+03  0.7546771E-02  0.1226974E+00
          2   -1    0    0  501    0  0.00000000000E+00  0.00000000000E+00  0.34835915618E+03  0.34835915618E+03  0.00000000000E+00 0. -1.
         -2   -1    0    0    0  501 -0.00000000000E+00 -0.00000000000E+00 -0.65737688143E+02  0.65737688143E+02  0.00000000000E+00 0.  1.
         25    2    1    2    0    0 -0.30680150902E+02 -0.41988801442E+02  0.33926947642E+02  0.13955872563E+03  0.12498507518E+03 0.  0.
         23    2    1    2    0    0  0.30680150902E+02  0.41988801442E+02  0.24869452039E+03  0.27453811869E+03  0.10400905266E+03 0.  0.
          5    1    3    3  502    0 -0.52147121372E+02 -0.57109176197E+02  0.63177689269E+02  0.99971449398E+02  0.47000000000E+01 0. -1.
         -5    1    3    3    0  502  0.21466970470E+02  0.15120374754E+02 -0.29250741627E+02  0.39587276234E+02  0.47000000000E+01 0. -1.
          5    1    4    4  503    0 -0.31892579632E+02 -0.86883715282E+01  0.99273457053E+02  0.10473745133E+03  0.47000000000E+01 0. -1.
         -5    1    4    4    0  503  0.62572730535E+02  0.50677172970E+02  0.14942106334E+03  0.16980066736E+03  0.47000000000E+01 0.  1.
<mgrwt>
<rscale>  0 0.13032502E+03</rscale>
<asrwt>0</asrwt>
<pdfrwt beam="1">  1        2 0.53593715E-01 0.13537208E+03</pdfrwt>
<pdfrwt beam="2">  1       -2 0.10113491E-01 0.13537208E+03</pdfrwt>
<totfact> 0.57954507E+03</totfact>
</mgrwt>
</event>
<event>
 8    1  0.2018715E-005  0.2322659E+03  0.7546771E-02  0.1126298E+00
         -1   -1    0    0    0  501 -0.00000000000E+00  0.00000000000E+00  0.25792857400E+02  0.25792857400E+02  0.00000000000E+00 0.  1.
          1   -1    0    0  501    0  0.00000000000E+00 -0.00000000000E+00 -0.20308101087E+04  0.20308101087E+04  0.00000000000E+00 0. -1.
         25    2    1    2    0    0 -0.18777561123E+03 -0.55347362040E+02 -0.10510862544E+04  0.10764431147E+04  0.12499781744E+03 0.  0.
         23    2    1    2    0    0  0.18777561123E+03  0.55347362040E+02 -0.95393099690E+03  0.98015985139E+03  0.11138212049E+03 0.  0.
          5    1    4    4  502    0  0.18283866974E+03  0.14126689048E+02 -0.77401742559E+03  0.79545874036E+03  0.47000000000E+01 0. -1.
         -5    1    4    4    0  502  0.49369414857E+01  0.41220672991E+02 -0.17991357131E+03  0.18470111102E+03  0.47000000000E+01 0.  1.
          5    1    3    3  503    0 -0.16994216673E+03  0.40611195359E+01 -0.77271813019E+03  0.79120934742E+03  0.47000000000E+01 0. -1.
         -5    1    3    3    0  503 -0.17833444497E+02 -0.59408481576E+02 -0.27836812420E+03  0.28523376728E+03  0.47000000000E+01 0. -1.
<mgrwt>
<rscale>  0 0.23048686E+03</rscale>
<asrwt>0</asrwt>
<pdfrwt beam="1">  1        1 0.31243226E+00 0.23226594E+03</pdfrwt>
<pdfrwt beam="2">  1       -1 0.39681327E-02 0.23226594E+03</pdfrwt>
<totfact> 0.80511813E+02</totfact>
</mgrwt>
</event>
<event>
 8    1  0.2018715E-005  0.1460733E+03  0.7546771E-02  0.1210184E+00
          2   -1    0    0  501    0  0.00000000000E+00  0.00000000000E+00  0.97339445012E+02  0.97339445012E+02  0.00000000000E+00 0. -1.
         -2   -1    0    0    0  501 -0.00000000000E+00 -0.00000000000E+00 -0.20620350177E+03  0.20620350177E+03  0.00000000000E+00 0.  1.
         25    2    1    2    0    0 -0.90353199422E+01 -0.75052500623E+02 -0.86812047599E+02  0.16992274562E+03  0.12499157177E+03 0.  0.
         23    2    1    2    0    0  0.90353199422E+01  0.75052500623E+02 -0.22052009163E+02  0.13362020117E+03  0.10795161970E+03 0.  0.
          5    1    4    4  502    0 -0.31490554650E+02 -0.71548371147E+01  0.13344812225E+02  0.35256499254E+02  0.47000000000E+01 0. -1.
         -5    1    4    4    0  502  0.40525874592E+02  0.82207337738E+02 -0.35396821389E+02  0.98363701912E+02  0.47000000000E+01 0.  1.
          5    1    3    3  503    0 -0.25957036293E+02  0.26806230522E+02 -0.46727038959E+01  0.37898098760E+02  0.47000000000E+01 0. -1.
         -5    1    3    3    0  503  0.16921716351E+02 -0.10185873114E+03 -0.82139343703E+02  0.13202464686E+03  0.47000000000E+01 0. -1.
<mgrwt>
<rscale>  0 0.14236298E+03</rscale>
<asrwt>0</asrwt>
<pdfrwt beam="1">  1        2 0.14975299E-01 0.14607330E+03</pdfrwt>
<pdfrwt beam="2">  1       -2 0.31723615E-01 0.14607330E+03</pdfrwt>
<totfact> 0.34715227E+03</totfact>
</mgrwt>
</event>
<event>
 8    1  0.2561765E-005  0.1460291E+03  0.7546771E-02  0.1211443E+00
         -3   -1    0    0    0  501 -0.00000000000E+00  0.00000000000E+00  0.20301100312E+03  0.20301100312E+03  0.00000000000E+00 0.  1.
          3   -1    0    0  501    0  0.00000000000E+00 -0.00000000000E+00 -0.10930124893E+03  0.10930124893E+03  0.00000000000E+00 0. -1.
         25    2    1    2    0    0 -0.63524749794E+02 -0.40796127704E+02 -0.11247473674E+02  0.14646157460E+03  0.12499907719E+03 0.  0.
         23    2    1    2    0    0  0.63524749794E+02  0.40796127704E+02  0.10495722787E+03  0.16585067745E+03  0.10387834065E+03 0.  0.
          5    1    3    3  502    0 -0.89926898325E+02 -0.42375686870E+02 -0.39866300916E+02  0.10720987748E+03  0.47000000000E+01 0. -1.
         -5    1    3    3    0  502  0.26402148531E+02  0.15795591658E+01  0.28618827243E+02  0.39251697122E+02  0.47000000000E+01 0. -1.
          5    1    4    4  503    0  0.56495339801E+02 -0.14828282291E+02  0.16256839771E+02  0.60810987611E+02  0.47000000000E+01 0. -1.
         -5    1    4    4    0  503  0.70294099932E+01  0.55624409995E+02  0.88700388098E+02  0.10503968984E+03  0.47000000000E+01 0.  1.
<mgrwt>
<rscale>  0 0.14141109E+03</rscale>
<asrwt>0</asrwt>
<pdfrwt beam="1">  1        3 0.16815577E-01 0.14602906E+03</pdfrwt>
<pdfrwt beam="2">  1       -3 0.31232462E-01 0.14602906E+03</pdfrwt>
<totfact> 0.70875553E+02</totfact>
</mgrwt>
</event>
<event>
 8    1  0.2018715E-005  0.1263366E+03  0.7546771E-02  0.1238108E+00
          3   -1    0    0  501    0  0.00000000000E+00  0.00000000000E+00  0.26063006390E+03  0.26063006390E+03  0.00000000000E+00 0. -1.
         -3   -1    0    0    0  501 -0.00000000000E+00 -0.00000000000E+00 -0.56992816396E+02  0.56992816396E+02  0.00000000000E+00 0.  1.
         25    2    1    2    0    0  0.17926853535E+02 -0.36785713232E+01  0.13424519860E+03  0.18434400891E+03  0.12500414517E+03 0.  0.
         23    2    1    2    0    0 -0.17926853535E+02  0.36785713232E+01  0.69392048905E+02  0.13327887139E+03  0.11230804576E+03 0.  0.
          5    1    4    4  502    0  0.12536333682E+02 -0.45138332862E+02  0.57528653110E+02  0.74338850437E+02  0.47000000000E+01 0. -1.
         -5    1    3    3    0  503 -0.37009651936E+02  0.15151797213E+02  0.25630186598E+01  0.40347866856E+02  0.47000000000E+01 0. -1.
          5    1    3    3  503    0  0.54936505471E+02 -0.18830368536E+02  0.13168217994E+03  0.14399614205E+03  0.47000000000E+01 0. -1.
         -5    1    4    4    0  502 -0.30463187217E+02  0.48816904185E+02  0.11863395796E+02  0.58940020949E+02  0.47000000000E+01 0.  1.
<mgrwt>
<rscale>  0 0.12307569E+03</rscale>
<asrwt>0</asrwt>
<pdfrwt beam="1">  1        3 0.40096932E-01 0.12633661E+03</pdfrwt>
<pdfrwt beam="2">  1       -3 0.87681257E-02 0.12633661E+03</pdfrwt>
<totfact> 0.12898485E+03</totfact>
</mgrwt>
</event>
<event>
 8    1  0.2018715E-005  0.1573518E+03  0.7546771E-02  0.1202861E+00
         -3   -1    0    0    0  501 -0.00000000000E+00  0.00000000000E+00  0.27254295465E+03  0.27254295465E+03  0.00000000000E+00 0.  1.
          3   -1    0    0  501    0  0.00000000000E+00 -0.00000000000E+00 -0.81962025038E+02  0.81962025038E+02  0.00000000000E+00 0. -1.
         25    2    1    2    0    0 -0.92950318782E+02  0.22246936754E+02  0.44988437439E+02  0.16365684566E+03  0.12499966269E+03 0.  0.
         23    2    1    2    0    0  0.92950318782E+02 -0.22246936754E+02  0.14559249217E+03  0.19084813402E+03  0.78045810436E+02 0.  0.
          5    1    3    3  502    0 -0.95240363280E+02 -0.14483702490E+02  0.69770890844E+02  0.11904021020E+03  0.47000000000E+01 0.  1.
         -5    1    4    4    0  503  0.77745638180E+02 -0.49176113388E+02  0.10866269555E+03  0.14245120494E+03  0.47000000000E+01 0.  1.
          5    1    4    4  503    0  0.15204680603E+02  0.26929176634E+02  0.36929796618E+02  0.48396929083E+02  0.47000000000E+01 0. -1.
         -5    1    3    3    0  502  0.22900444977E+01  0.36730639244E+02 -0.24782453406E+02  0.44616635461E+02  0.47000000000E+01 0.  1.
<mgrwt>
<rscale>  0 0.14807322E+03</rscale>
<asrwt>0</asrwt>
<pdfrwt beam="1">  1        3 0.12609542E-01 0.15735185E+03</pdfrwt>
<pdfrwt beam="2">  1       -3 0.41929685E-01 0.15735185E+03</pdfrwt>
<totfact> 0.66914390E+02</totfact>
</mgrwt>
</event>
<event>
 8    1  0.2018715E-005  0.1529651E+03  0.7546771E-02  0.1202107E+00
         -2   -1    0    0    0  501 -0.00000000000E+00  0.00000000000E+00  0.21595139248E+02  0.21595139248E+02  0.00000000000E+00 0.  1.
          2   -1    0    0  501    0  0.00000000000E+00 -0.00000000000E+00 -0.11773708737E+04  0.11773708737E+04  0.00000000000E+00 0. -1.
         25    2    1    2    0    0 -0.81752156366E+02  0.33012091721E+02 -0.85608118762E+03  0.86963977349E+03  0.12500049028E+03 0.  0.
         23    2    1    2    0    0  0.81752156366E+02 -0.33012091721E+02 -0.29969454680E+03  0.32932623943E+03  0.10423884747E+03 0.  0.
          5    1    4    4  502    0  0.14228378630E+02 -0.49495800324E+02 -0.20705418857E+03  0.21341463871E+03  0.47000000000E+01 0. -1.
         -5    1    3    3    0  503 -0.19079828062E+02 -0.31590931870E+02 -0.78693963689E+02  0.87045141946E+02  0.47000000000E+01 0. -1.
          5    1    3    3  503    0 -0.62672328304E+02  0.64603023591E+02 -0.77738722393E+03  0.78259463155E+03  0.47000000000E+01 0. -1.
         -5    1    4    4    0  502  0.67523777737E+02  0.16483708603E+02 -0.92640358227E+02  0.11591160072E+03  0.47000000000E+01 0.  1.
<mgrwt>
<rscale>  0 0.14867811E+03</rscale>
<asrwt>0</asrwt>
<pdfrwt beam="1">  1        2 0.18113396E+00 0.15296515E+03</pdfrwt>
<pdfrwt beam="2">  1       -2 0.33223294E-02 0.15296515E+03</pdfrwt>
<totfact> 0.73228327E+03</totfact>
</mgrwt>
</event>
<event>
 8    1  0.2018715E-005  0.3502831E+03  0.7546771E-02  0.1063965E+00
          2   -1    0    0  501    0  0.00000000000E+00  0.00000000000E+00  0.73961433137E+03  0.73961433137E+03  0.00000000000E+00 0. -1.
         -2   -1    0    0    0  501 -0.00000000000E+00 -0.00000000000E+00 -0.16380064705E+03  0.16380064705E+03  0.00000000000E+00 0.  1.
         25    2    1    2    0    0  0.85905208050E+02 -0.31574307615E+03  0.21903070155E+03  0.41312552394E+03  0.12499942161E+03 0.  0.
         23    2    1    2    0    0 -0.85905208050E+02  0.31574307615E+03  0.35678298277E+03  0.49028945448E+03  0.77564537481E+02 0.  0.
          5    1    4    4  502    0 -0.17239973433E+02  0.16790013399E+03  0.22076015551E+03  0.27792950174E+03  0.47000000000E+01 0. -1.
         -5    1    3    3    0  503  0.10862509167E+03 -0.18537405249E+03  0.10905040562E+03  0.24099176510E+03  0.47000000000E+01 0.  1.
          5    1    3    3  503    0 -0.22719883621E+02 -0.13036902365E+03  0.10998029593E+03  0.17213375884E+03  0.47000000000E+01 0.  1.
         -5    1    4    4    0  502 -0.68665234618E+02  0.14784294216E+03  0.13602282726E+03  0.21235995274E+03  0.47000000000E+01 0.  1.
<mgrwt>
<rscale>  0 0.34673066E+03</rscale>
<asrwt>0</asrwt>
<pdfrwt beam="1">  1        2 0.11378682E+00 0.35028310E+03</pdfrwt>
<pdfrwt beam="2">  1       -2 0.25200100E-01 0.35028310E+03</pdfrwt>
<totfact> 0.54969178E+02</totfact>
</mgrwt>
</event>
<event>
 7    1  0.2018715E-005  0.1665564E+03  0.7546771E-02  0.1184784E+00
         -1   -1    0    0    0  501 -0.00000000000E+00  0.00000000000E+00  0.40125348319E+02  0.40125348319E+02  0.00000000000E+00 0.  1.
          1   -1    0    0  501    0  0.00000000000E+00 -0.00000000000E+00 -0.64767425702E+03  0.64767425702E+03  0.00000000000E+00 0. -1.
         25    2    1    2    0    0 -0.10132922978E+02  0.90604782961E+02 -0.32152349352E+03  0.35681385512E+03  0.12500746979E+03 0.  0.
          5    1    3    3  502    0 -0.55304848755E+02  0.10149392576E+02 -0.17231466804E+03  0.18131759784E+03  0.47000000000E+01 0.  1.
         -5    1    1    2    0  503  0.63376609328E+02 -0.59765788612E+02 -0.89432214752E+02  0.12493500364E+03  0.47000000000E+01 0.  1.
          5    1    1    2  503    0 -0.53243686350E+02 -0.30838994349E+02 -0.19659320043E+03  0.20605074658E+03  0.47000000000E+01 0. -1.
         -5    1    3    3    0  502  0.45171925778E+02  0.80455390384E+02 -0.14920882548E+03  0.17549625728E+03  0.47000000000E+01 0.  1.
<mgrwt>
<rscale>  0 0.16351541E+03</rscale>
<asrwt>0</asrwt>
<pdfrwt beam="1">  1        1 0.99642189E-01 0.16655638E+03</pdfrwt>
<pdfrwt beam="2">  1       -1 0.61731308E-02 0.16655638E+03</pdfrwt>
<totfact> 0.39592621E+03</totfact>
</mgrwt>
</event>
<event>
 7    1  0.2018715E-005  0.1525398E+03  0.7546771E-02  0.1222249E+00
         -2   -1    0    0    0  501 -0.00000000000E+00  0.00000000000E+00  0.51718036994E+03  0.51718036994E+03  0.00000000000E+00 0. -1.
          2   -1    0    0  501    0  0.00000000000E+00 -0.00000000000E+00 -0.28362116280E+02  0.28362116280E+02  0.00000000000E+00 0.  1.
         25    2    1    2    0    0 -0.39338059231E+02  0.78085278955E+02  0.30891451615E+03  0.34452368443E+03  0.12499438849E+03 0.  0.
          5    1    1    2  502    0  0.15241633933E+02 -0.27342350525E+02  0.84121897970E+02  0.89880449794E+02  0.47000000000E+01 0. -1.
         -5    1    3    3    0  503 -0.32671190658E+02 -0.29232748108E+02  0.74243794992E+02  0.86349240620E+02  0.47000000000E+01 0.  1.
          5    1    3    3  503    0 -0.66668685729E+01  0.10731802706E+03  0.23467072116E+03  0.25817444381E+03  0.47000000000E+01 0.  1.
         -5    1    1    2    0  502  0.24096425299E+02 -0.50742928430E+02  0.95781839537E+02  0.11113835199E+03  0.47000000000E+01 0.  1.
<mgrwt>
<rscale>  0 0.13357218E+03</rscale>
<asrwt>0</asrwt>
<pdfrwt beam="1">  1        2 0.43634029E-02 0.15253980E+03</pdfrwt>
<pdfrwt beam="2">  1       -2 0.79566204E-01 0.15253980E+03</pdfrwt>
<totfact> 0.26218296E+03</totfact>
</mgrwt>
</event>
<event>
 8    1  0.2018715E-005  0.1620481E+03  0.7546771E-02  0.1199627E+00
         -1   -1    0    0    0  501 -0.00000000000E+00  0.00000000000E+00  0.13109305840E+03  0.13109305840E+03  0.00000000000E+00 0.  1.
          1   -1    0    0  501    0  0.00000000000E+00 -0.00000000000E+00 -0.19059545344E+03  0.19059545344E+03  0.00000000000E+00 0. -1.
         25    2    1    2    0    0 -0.56407477925E+02  0.86326141878E+02  0.37664677905E+02  0.16636769898E+03  0.12500230784E+03 0.  0.
         23    2    1    2    0    0  0.56407477925E+02 -0.86326141878E+02 -0.97167072941E+02  0.15532081286E+03  0.63632605683E+02 0.  0.
          5    1    4    4  502    0  0.20564460108E+01 -0.60286017741E+02 -0.53281738300E+02  0.80620509435E+02  0.47000000000E+01 0. -1.
         -5    1    4    4    0  502  0.54351031914E+02 -0.26040124137E+02 -0.43885334641E+02  0.74700303425E+02  0.47000000000E+01 0.  1.
          5    1    3    3  503    0  0.24254247881E+02  0.55597019468E+02  0.50382751413E+02  0.78992460108E+02  0.47000000000E+01 0.  1.
         -5    1    3    3    0  503 -0.80661725806E+02  0.30729122409E+02 -0.12718073508E+02  0.87375238871E+02  0.47000000000E+01 0.  1.
<mgrwt>
<rscale>  0 0.15069027E+03</rscale>
<asrwt>0</asrwt>
<pdfrwt beam="1">  1        1 0.29322377E-01 0.16204809E+03</pdfrwt>
<pdfrwt beam="2">  1       -1 0.20168163E-01 0.16204809E+03</pdfrwt>
<totfact> 0.30241767E+03</totfact>
</mgrwt>
</event>
<event>
 8    1  0.2018715E-005  0.1283528E+03  0.7546771E-02  0.1255490E+00
         -2   -1    0    0    0  501 -0.00000000000E+00  0.00000000000E+00  0.10243576981E+02  0.10243576981E+02  0.00000000000E+00 0.  1.
          2   -1    0    0  501    0  0.00000000000E+00 -0.00000000000E+00 -0.10552871249E+04  0.10552871249E+04  0.00000000000E+00 0. -1.
         25    2    1    2    0    0 -0.91218293798E+01 -0.27689125778E+02 -0.56270220633E+03  0.57715527536E+03  0.12499817364E+03 0.  0.
         23    2    1    2    0    0  0.91218293798E+01  0.27689125778E+02 -0.48234134156E+03  0.48837542648E+03  0.70763634454E+02 0.  0.
          5    1    4    4  502    0  0.32238840944E+02  0.35671695786E+02 -0.37945347023E+03  0.38251645561E+03  0.47000000000E+01 0. -1.
         -5    1    3    3    0  503  0.32871525374E+02 -0.62327437608E+02 -0.37802501176E+03  0.38456500904E+03  0.47000000000E+01 0.  1.
          5    1    3    3  503    0 -0.41993354753E+02  0.34638311830E+02 -0.18467719457E+03  0.19259026632E+03  0.47000000000E+01 0.  1.
         -5    1    4    4    0  502 -0.23117011564E+02 -0.79825700084E+01 -0.10288787133E+03  0.10585897087E+03  0.47000000000E+01 0.  1.
<mgrwt>
<rscale>  0 0.11278906E+03</rscale>
<asrwt>0</asrwt>
<pdfrwt beam="1">  1        2 0.16235182E+00 0.12835279E+03</pdfrwt>
<pdfrwt beam="2">  1       -2 0.15759354E-02 0.12835279E+03</pdfrwt>
<totfact> 0.25255180E+04</totfact>
</mgrwt>
</event>
<event>
 7    1  0.2018715E-005  0.1691554E+03  0.7546771E-02  0.1181958E+00
          1   -1    0    0  501    0  0.00000000000E+00  0.00000000000E+00  0.74220937243E+02  0.74220937243E+02  0.00000000000E+00 0. -1.
         -1   -1    0    0    0  501 -0.00000000000E+00 -0.00000000000E+00 -0.36211142501E+03  0.36211142501E+03  0.00000000000E+00 0.  1.
         25    2    1    2    0    0  0.69582058959E+02  0.65469679977E+02 -0.11867554534E+03  0.19706839145E+03  0.12499649564E+03 0.  0.
          5    1    3    3  502    0 -0.52315217548E+01  0.64082990744E+02 -0.10297584172E+02  0.65284981139E+02  0.47000000000E+01 0.  1.
         -5    1    3    3    0  502  0.74813580714E+02  0.13866892334E+01 -0.10837796117E+03  0.13178341031E+03  0.47000000000E+01 0.  1.
          5    1    1    2  503    0 -0.59323412718E+01 -0.82827230776E+02 -0.36193049989E+02  0.90705951836E+02  0.47000000000E+01 0. -1.
         -5    1    1    2    0  503 -0.63649717687E+02  0.17357550799E+02 -0.13302189243E+03  0.14855801896E+03  0.47000000000E+01 0.  1.
<mgrwt>
<rscale>  0 0.16611767E+03</rscale>
<asrwt>0</asrwt>
<pdfrwt beam="1">  1        1 0.11418605E-01 0.16915540E+03</pdfrwt>
<pdfrwt beam="2">  1       -1 0.55709452E-01 0.16915540E+03</pdfrwt>
<totfact> 0.17673366E+03</totfact>
</mgrwt>
</event>
<event>
 8    1  0.2018715E-005  0.1340319E+03  0.7546771E-02  0.1228491E+00
          3   -1    0    0  501    0  0.00000000000E+00  0.00000000000E+00  0.67354287169E+02  0.67354287169E+02  0.00000000000E+00 0. -1.
         -3   -1    0    0    0  501 -0.00000000000E+00 -0.00000000000E+00 -0.25078613102E+03  0.25078613102E+03  0.00000000000E+00 0.  1.
         25    2    1    2    0    0  0.42442196282E+02  0.23183504112E+02 -0.54633526511E+02  0.14473894925E+03  0.12500290525E+03 0.  0.
         23    2    1    2    0    0 -0.42442196282E+02 -0.23183504112E+02 -0.12879831734E+03  0.17340146894E+03  0.10554737322E+03 0.  0.
          5    1    4    4  502    0 -0.42203316894E+02 -0.55183386940E+02 -0.43314776085E+02  0.82003572961E+02  0.47000000000E+01 0. -1.
         -5    1    3    3    0  503 -0.20006728647E+02 -0.26788256404E+02  0.16517049662E+02  0.37587003098E+02  0.47000000000E+01 0. -1.
          5    1    3    3  503    0  0.62448924929E+02  0.49971760517E+02 -0.71150576172E+02  0.10715194615E+03  0.47000000000E+01 0. -1.
         -5    1    4    4    0  502 -0.23887938817E+00  0.31999882828E+02 -0.85483541254E+02  0.91397895981E+02  0.47000000000E+01 0.  1.
<mgrwt>
<rscale>  0 0.12930446E+03</rscale>
<asrwt>0</asrwt>
<pdfrwt beam="1">  1        3 0.10362198E-01 0.13403187E+03</pdfrwt>
<pdfrwt beam="2">  1       -3 0.38582481E-01 0.13403187E+03</pdfrwt>
<totfact> 0.10651410E+03</totfact>
</mgrwt>
</event>
<event>
 8    1  0.2018715E-005  0.1475959E+03  0.7546771E-02  0.1205045E+00
          4   -1    0    0  501    0  0.00000000000E+00  0.00000000000E+00  0.43214853918E+03  0.43214853918E+03  0.00000000000E+00 0. -1.
         -4   -1    0    0    0  501 -0.00000000000E+00 -0.00000000000E+00 -0.64219713864E+02  0.64219713864E+02  0.00000000000E+00 0.  1.
         25    2    1    2    0    0  0.51003686169E+02 -0.59646428732E+02  0.64472997645E+02  0.16106308027E+03  0.12500190374E+03 0.  0.
         23    2    1    2    0    0 -0.51003686169E+02  0.59646428732E+02  0.30345582767E+03  0.33530517277E+03  0.11910099528E+03 0.  0.
          5    1    4    4  502    0 -0.32687466519E+01 -0.29851089287E+02  0.13693226808E+03  0.14026513565E+03  0.47000000000E+01 0. -1.
         -5    1    3    3    0  503  0.17260169460E+02 -0.35681723914E+02 -0.35084978147E+02  0.53142681179E+02  0.47000000000E+01 0. -1.
          5    1    3    3  503    0  0.33743516710E+02 -0.23964704819E+02  0.99557975792E+02  0.10792039910E+03  0.47000000000E+01 0. -1.
         -5    1    4    4    0  502 -0.47734939518E+02  0.89497518019E+02  0.16652355958E+03  0.19504003712E+03  0.47000000000E+01 0.  1.
<mgrwt>
<rscale>  0 0.14633917E+03</rscale>
<asrwt>0</asrwt>
<pdfrwt beam="1">  1        4 0.66484389E-01 0.14759590E+03</pdfrwt>
<pdfrwt beam="2">  1       -4 0.98799562E-02 0.14759590E+03</pdfrwt>
<totfact> 0.27924888E+02</totfact>
</mgrwt>
</event>
<event>
 8    1  0.2018715E-005  0.1822959E+03  0.7546771E-02  0.1166998E+00
         -2   -1    0    0    0  501 -0.00000000000E+00  0.00000000000E+00  0.44548452432E+03  0.44548452432E+03  0.00000000000E+00 0.  1.
          2   -1    0    0  501    0  0.00000000000E+00 -0.00000000000E+00 -0.99640391811E+02  0.99640391811E+02  0.00000000000E+00 0. -1.
         25    2    1    2    0    0 -0.99915022569E+01 -0.13231879483E+03  0.31782720792E+03  0.36639586955E+03  0.12499482208E+03 0.  0.
         23    2    1    2    0    0  0.99915022569E+01  0.13231879483E+03  0.28016924598E+02  0.17872904659E+03  0.11640889333E+03 0.  0.
          5    1    3    3  502    0 -0.29690159577E+02 -0.26387770671E+02  0.11472310563E+02  0.41611584040E+02  0.47000000000E+01 0. -1.
         -5    1    4    4    0  503  0.44396849948E+01  0.64963130852E+02  0.72594038395E+02  0.97631468203E+02  0.47000000000E+01 0.  1.
          5    1    4    4  503    0  0.55518172621E+01  0.67355663982E+02 -0.44577113797E+02  0.81097578385E+02  0.47000000000E+01 0. -1.
         -5    1    3    3    0  502  0.19698657320E+02 -0.10593102416E+03  0.30635489735E+03  0.32478428551E+03  0.47000000000E+01 0. -1.
<mgrwt>
<rscale>  0 0.18083432E+03</rscale>
<asrwt>0</asrwt>
<pdfrwt beam="1">  1        2 0.15329291E-01 0.18229591E+03</pdfrwt>
<pdfrwt beam="2">  1       -2 0.68536080E-01 0.18229591E+03</pdfrwt>
<totfact> 0.75205575E+02</totfact>
</mgrwt>
</event>
<event>
 7    1  0.2018715E-005  0.2115966E+03  0.7546771E-02  0.1141880E+00
         -2   -1    0    0    0  501 -0.00000000000E+00  0.00000000000E+00  0.34977834949E+02  0.34977834949E+02  0.00000000000E+00 0.  1.
          2   -1    0    0  501    0  0.00000000000E+00 -0.00000000000E+00 -0.12388880746E+04  0.12388880746E+04  0.00000000000E+00 0. -1.
         25    2    1    2    0    0 -0.13535378151E+03 -0.86962272926E+02 -0.54646222579E+03  0.58320607470E+03  0.12500111307E+03 0.  0.
          5    1    3    3  502    0 -0.30539796572E+02  0.81245181009E+01 -0.19228770579E+02  0.37289711544E+02  0.47000000000E+01 0. -1.
         -5    1    3    3    0  502 -0.10481398494E+03 -0.95086791027E+02 -0.52723345521E+03  0.54591636316E+03  0.47000000000E+01 0. -1.
          5    1    1    2  503    0  0.13762832863E+03  0.11695069374E+03 -0.54505702284E+03  0.57421970513E+03  0.47000000000E+01 0. -1.
         -5    1    1    2    0  503 -0.22745471195E+01 -0.29988420811E+02 -0.11239099098E+03  0.11644012969E+03  0.47000000000E+01 0.  1.
<mgrwt>
<rscale>  0 0.20960346E+03</rscale>
<asrwt>0</asrwt>
<pdfrwt beam="1">  1        2 0.19059815E+00 0.21159659E+03</pdfrwt>
<pdfrwt beam="2">  1       -2 0.53812059E-02 0.21159659E+03</pdfrwt>
<totfact> 0.33096792E+03</totfact>
</mgrwt>
</event>
<event>
 8    1  0.2018715E-005  0.1282019E+03  0.7546771E-02  0.1234757E+00
          1   -1    0    0  501    0  0.00000000000E+00  0.00000000000E+00  0.26389611504E+03  0.26389611504E+03  0.00000000000E+00 0. -1.
         -1   -1    0    0    0  501 -0.00000000000E+00 -0.00000000000E+00 -0.62558626129E+02  0.62558626129E+02  0.00000000000E+00 0.  1.
         25    2    1    2    0    0 -0.25490872106E+02 -0.12706665990E+02  0.55420785231E+02  0.13966811523E+03  0.12499790020E+03 0.  0.
         23    2    1    2    0    0  0.25490872106E+02  0.12706665990E+02  0.14591670368E+03  0.18678662594E+03  0.11307659040E+03 0.  0.
          5    1    4    4  502    0  0.23575042157E+02  0.38320601333E+02  0.15315015228E+03  0.15969129670E+03  0.47000000000E+01 0. -1.
         -5    1    4    4    0  502  0.19158299492E+01 -0.25613935343E+02 -0.72334485980E+01  0.27095329242E+02  0.47000000000E+01 0.  1.
          5    1    3    3  503    0  0.23371835467E+02  0.45119235955E+02  0.12594454879E+02  0.52561377836E+02  0.47000000000E+01 0. -1.
         -5    1    3    3    0  503 -0.48862707574E+02 -0.57825901945E+02  0.42826330352E+02  0.87106737389E+02  0.47000000000E+01 0. -1.
<mgrwt>
<rscale>  0 0.12519973E+03</rscale>
<asrwt>0</asrwt>
<pdfrwt beam="1">  1        1 0.40599402E-01 0.12820187E+03</pdfrwt>
<pdfrwt beam="2">  1       -1 0.96244042E-02 0.12820187E+03</pdfrwt>
<totfact> 0.63349822E+03</totfact>
</mgrwt>
</event>
<event>
 8    1  0.2018715E-005  0.1614230E+03  0.7546771E-02  0.1197962E+00
          2   -1    0    0  501    0  0.00000000000E+00  0.00000000000E+00  0.77989347294E+03  0.77989347294E+03  0.00000000000E+00 0. -1.
         -2   -1    0    0    0  501 -0.00000000000E+00 -0.00000000000E+00 -0.39274595285E+02  0.39274595285E+02  0.00000000000E+00 0.  1.
         25    2    1    2    0    0 -0.10189171409E+03 -0.70426754328E+01  0.16947106597E+03  0.23404664179E+03  0.12500347058E+03 0.  0.
         23    2    1    2    0    0  0.10189171409E+03  0.70426754328E+01  0.57114781169E+03  0.58512142643E+03  0.75668620950E+02 0.  0.
          5    1    3    3  502    0  0.25540381020E+02  0.12953863834E+02  0.14751845016E+02  0.32554885690E+02  0.47000000000E+01 0.  1.
         -5    1    3    3    0  502 -0.12743209511E+03 -0.19996539267E+02  0.15471922095E+03  0.20149175610E+03  0.47000000000E+01 0.  1.
          5    1    4    4  503    0  0.56944914647E+02 -0.13711494633E+02  0.45495364080E+03  0.45873263855E+03  0.47000000000E+01 0. -1.
         -5    1    4    4    0  503  0.44946799440E+02  0.20754170066E+02  0.11619417088E+03  0.12638878788E+03  0.47000000000E+01 0.  1.
<mgrwt>
<rscale>  0 0.15206177E+03</rscale>
<asrwt>0</asrwt>
<pdfrwt beam="1">  1        2 0.11998360E+00 0.16142301E+03</pdfrwt>
<pdfrwt beam="2">  1       -2 0.60422460E-02 0.16142301E+03</pdfrwt>
<totfact> 0.52466261E+03</totfact>
</mgrwt>
</event>
<event>
 8    1  0.2018715E-005  0.1348872E+03  0.7546771E-02  0.1225693E+00
          2   -1    0    0  501    0  0.00000000000E+00  0.00000000000E+00  0.30724125825E+02  0.30724125825E+02  0.00000000000E+00 0. -1.
         -2   -1    0    0    0  501 -0.00000000000E+00 -0.00000000000E+00 -0.79263656653E+03  0.79263656653E+03  0.00000000000E+00 0.  1.
         25    2    1    2    0    0  0.42093125502E+02 -0.28251136175E+02 -0.63112841825E+03  0.64538178600E+03  0.12499844585E+03 0.  0.
         23    2    1    2    0    0 -0.42093125502E+02  0.28251136175E+02 -0.13078402245E+03  0.17797890635E+03  0.10955397149E+03 0.  0.
          5    1    3    3  502    0 -0.23538657677E+01 -0.70309210637E+02 -0.40408845077E+03  0.41019323719E+03  0.47000000000E+01 0.  1.
         -5    1    4    4    0  503  0.22632510473E+02  0.47305120878E+02 -0.49869665541E+02  0.72519504499E+02  0.47000000000E+01 0.  1.
          5    1    4    4  503    0 -0.64725635975E+02 -0.19053984703E+02 -0.80914356912E+02  0.10545940186E+03  0.47000000000E+01 0. -1.
         -5    1    3    3    0  502  0.44446991270E+02  0.42058074462E+02 -0.22703996748E+03  0.23518854881E+03  0.47000000000E+01 0.  1.
<mgrwt>
<rscale>  0 0.13119527E+03</rscale>
<asrwt>0</asrwt>
<pdfrwt beam="1">  1        2 0.47267889E-02 0.13488725E+03</pdfrwt>
<pdfrwt beam="2">  1       -2 0.12194408E+00 0.13488725E+03</pdfrwt>
<totfact> 0.87893853E+02</totfact>
</mgrwt>
</event>
<event>
 8    1  0.2018715E-005  0.1765208E+03  0.7546771E-02  0.1181037E+00
         -1   -1    0    0    0  501 -0.00000000000E+00  0.00000000000E+00  0.10410085905E+03  0.10410085905E+03  0.00000000000E+00 0.  1.
          1   -1    0    0  501    0  0.00000000000E+00 -0.00000000000E+00 -0.39185698130E+03  0.39185698130E+03  0.00000000000E+00 0. -1.
         25    2    1    2    0    0  0.12418707654E+03 -0.10550052467E+02 -0.12915977286E+01  0.17652553459E+03  0.12500345015E+03 0.  0.
         23    2    1    2    0    0 -0.12418707654E+03  0.10550052467E+02 -0.28646452451E+03  0.31943230576E+03  0.66643383546E+02 0.  0.
          5    1    4    4  502    0 -0.10708605469E+03 -0.17703597559E+01 -0.27461927316E+03  0.29480229388E+03  0.47000000000E+01 0.  1.
         -5    1    3    3    0  503  0.92783329346E+02  0.28336206533E+02 -0.47654629903E+02  0.10818844927E+03  0.47000000000E+01 0. -1.
          5    1    3    3  503    0  0.31403747198E+02 -0.38886259000E+02  0.46363032175E+02  0.68337085316E+02  0.47000000000E+01 0. -1.
         -5    1    4    4    0  502 -0.17101021849E+02  0.12320412223E+02 -0.11845251348E+02  0.24630011879E+02  0.47000000000E+01 0. -1.
<mgrwt>
<rscale>  0 0.16697751E+03</rscale>
<asrwt>0</asrwt>
<pdfrwt beam="1">  1        1 0.60285690E-01 0.17652081E+03</pdfrwt>
<pdfrwt beam="2">  1       -1 0.16015517E-01 0.17652081E+03</pdfrwt>
<totfact> 0.17812376E+03</totfact>
</mgrwt>
</event>
<event>
 7    1  0.2018715E-005  0.1636051E+03  0.7546771E-02  0.1201279E+00
          2   -1    0    0  501    0  0.00000000000E+00  0.00000000000E+00  0.63404578641E+03  0.63404578641E+03  0.00000000000E+00 0. -1.
         -2   -1    0    0    0  501 -0.00000000000E+00 -0.00000000000E+00 -0.31455720100E+02  0.31455720100E+02  0.00000000000E+00 0.  1.
         25    2    1    2    0    0  0.67731582173E+02 -0.80972185179E+02  0.29084336100E+03  0.33370120287E+03  0.12499028027E+03 0.  0.
          5    1    1    2  502    0 -0.10200757699E+02  0.20282978072E+02  0.12499027468E+03  0.12712243477E+03  0.47000000000E+01 0. -1.
         -5    1    1    2    0  502 -0.57530824474E+02  0.60689207107E+02  0.18675643063E+03  0.20467786887E+03  0.47000000000E+01 0.  1.
          5    1    3    3  503    0  0.92322913460E+02 -0.65942457892E+02  0.28068422510E+03  0.30278317708E+03  0.47000000000E+01 0.  1.
         -5    1    3    3    0  503 -0.24591331287E+02 -0.15029727287E+02  0.10159135909E+02  0.30918025798E+02  0.47000000000E+01 0.  1.
<mgrwt>
<rscale>  0 0.14934622E+03</rscale>
<asrwt>0</asrwt>
<pdfrwt beam="1">  1        2 0.97545496E-01 0.16360511E+03</pdfrwt>
<pdfrwt beam="2">  1       -2 0.48393420E-02 0.16360511E+03</pdfrwt>
<totfact> 0.94184215E+03</totfact>
</mgrwt>
</event>
<event>
 8    1  0.2018715E-005  0.1702229E+03  0.7546771E-02  0.1187917E+00
          1   -1    0    0  501    0  0.00000000000E+00  0.00000000000E+00  0.56383259781E+03  0.56383259781E+03  0.00000000000E+00 0. -1.
         -1   -1    0    0    0  501 -0.00000000000E+00 -0.00000000000E+00 -0.44984294960E+02  0.44984294960E+02  0.00000000000E+00 0.  1.
         25    2    1    2    0    0 -0.34517467470E+02 -0.11027136627E+03  0.20087679186E+03  0.26330084934E+03  0.12499848789E+03 0.  0.
         23    2    1    2    0    0  0.34517467470E+02  0.11027136627E+03  0.31797151099E+03  0.34551604343E+03  0.70172820142E+02 0.  0.
          5    1    3    3  502    0 -0.14248395465E+01  0.27735196196E+02  0.30705155846E+02  0.41667347784E+02  0.47000000000E+01 0. -1.
         -5    1    4    4    0  503  0.50973114360E+02  0.52097198155E+02  0.19904507765E+03  0.21202219077E+03  0.47000000000E+01 0.  1.
          5    1    4    4  503    0 -0.16455646889E+02  0.58174168120E+02  0.11892643335E+03  0.13349385267E+03  0.47000000000E+01 0. -1.
         -5    1    3    3    0  502 -0.33092627924E+02 -0.13800656247E+03  0.17017163601E+03  0.22163350155E+03  0.47000000000E+01 0. -1.
<mgrwt>
<rscale>  0 0.16069305E+03</rscale>
<asrwt>0</asrwt>
<pdfrwt beam="1">  1        1 0.86743471E-01 0.17022295E+03</pdfrwt>
<pdfrwt beam="2">  1       -1 0.69206612E-02 0.17022295E+03</pdfrwt>
<totfact> 0.40380233E+03</totfact>
</mgrwt>
</event>
<event>
 8    1  0.2018715E-005  0.1394393E+03  0.7546771E-02  0.1220185E+00
          1   -1    0    0  501    0  0.00000000000E+00  0.00000000000E+00  0.77045467703E+03  0.77045467703E+03  0.00000000000E+00 0. -1.
         -1   -1    0    0    0  501 -0.00000000000E+00 -0.00000000000E+00 -0.22446099727E+02  0.22446099727E+02  0.00000000000E+00 0.  1.
         25    2    1    2    0    0 -0.34685846773E+02 -0.51137546527E+02  0.36390642563E+03  0.38970656128E+03  0.12500064263E+03 0.  0.
         23    2    1    2    0    0  0.34685846773E+02  0.51137546527E+02  0.38410215167E+03  0.40319421548E+03  0.10589124537E+03 0.  0.
          5    1    3    3  502    0  0.32850164403E+02 -0.52372757802E+02  0.10357958175E+03  0.12071809648E+03  0.47000000000E+01 0.  1.
         -5    1    3    3    0  502 -0.67536011176E+02  0.12352112759E+01  0.26032684388E+03  0.26898846481E+03  0.47000000000E+01 0.  1.
          5    1    4    4  503    0 -0.66410659334E+01 -0.21101574882E+02  0.19786296209E+03  0.19915125404E+03  0.47000000000E+01 0. -1.
         -5    1    4    4    0  503  0.41326912706E+02  0.72239121408E+02  0.18623918958E+03  0.20404296143E+03  0.47000000000E+01 0.  1.
<mgrwt>
<rscale>  0 0.13502456E+03</rscale>
<asrwt>0</asrwt>
<pdfrwt beam="1">  1        1 0.11853147E+00 0.13943930E+03</pdfrwt>
<pdfrwt beam="2">  1       -1 0.34532467E-02 0.13943930E+03</pdfrwt>
<totfact> 0.72239031E+03</totfact>
</mgrwt>
</event>
<event>
 8    1  0.2018715E-005  0.1349493E+03  0.7546771E-02  0.1239157E+00
         -2   -1    0    0    0  501 -0.00000000000E+00  0.00000000000E+00  0.23091268637E+02  0.23091268637E+02  0.00000000000E+00 0. -1.
          2   -1    0    0  501    0  0.00000000000E+00 -0.00000000000E+00 -0.62729803227E+03  0.62729803227E+03  0.00000000000E+00 0.  1.
         25    2    1    2    0    0  0.22705901874E+02 -0.45509248876E+02 -0.24466542978E+03  0.27941455036E+03  0.12499867484E+03 0.  0.
         23    2    1    2    0    0 -0.22705901874E+02  0.45509248876E+02 -0.35954133386E+03  0.37097475055E+03  0.75931844955E+02 0.  0.
          5    1    4    4  502    0 -0.49305561809E+02  0.34943889543E+02 -0.20664745593E+03  0.21535406865E+03  0.47000000000E+01 0. -1.
         -5    1    4    4    0  502  0.26599659935E+02  0.10565359333E+02 -0.15289387792E+03  0.15562068189E+03  0.47000000000E+01 0.  1.
          5    1    3    3  503    0  0.59067898384E+01 -0.84501033822E+02 -0.20175959281E+03  0.21887059687E+03  0.47000000000E+01 0. -1.
         -5    1    3    3    0  503  0.16799112036E+02  0.38991784946E+02 -0.42905836965E+02  0.60543953489E+02  0.47000000000E+01 0. -1.
<mgrwt>
<rscale>  0 0.12242039E+03</rscale>
<asrwt>0</asrwt>
<pdfrwt beam="1">  1        2 0.96507404E-01 0.13494932E+03</pdfrwt>
<pdfrwt beam="2">  1       -2 0.35525024E-02 0.13494932E+03</pdfrwt>
<totfact> 0.14928833E+04</totfact>
</mgrwt>
</event>
<event>
 8    1  0.2018715E-005  0.1346836E+03  0.7546771E-02  0.1227782E+00
         -2   -1    0    0    0  501 -0.00000000000E+00  0.00000000000E+00  0.31210614146E+03  0.31210614146E+03  0.00000000000E+00 0.  1.
          2   -1    0    0  501    0  0.00000000000E+00 -0.00000000000E+00 -0.51941128139E+02  0.51941128139E+02  0.00000000000E+00 0. -1.
         25    2    1    2    0    0 -0.28879956533E+02 -0.40993128358E+02  0.10798604588E+03  0.17262870301E+03  0.12500077814E+03 0.  0.
         23    2    1    2    0    0  0.28879956533E+02  0.40993128358E+02  0.15217896744E+03  0.19141856659E+03  0.10472889306E+03 0.  0.
          5    1    3    3  502    0  0.46801993706E+02 -0.34748332630E+02  0.43349645562E+02  0.72795295217E+02  0.47000000000E+01 0.  1.
         -5    1    4    4    0  503 -0.26882815054E+02  0.61221616572E+01  0.10916910030E+03  0.11269493808E+03  0.47000000000E+01 0.  1.
          5    1    4    4  503    0  0.55762771588E+02  0.34870966701E+02  0.43009867140E+02  0.78723628507E+02  0.47000000000E+01 0. -1.
         -5    1    3    3    0  502 -0.75681950239E+02 -0.62447957281E+01  0.64636400317E+02  0.99833407793E+02  0.47000000000E+01 0.  1.
<mgrwt>
<rscale>  0 0.12978006E+03</rscale>
<asrwt>0</asrwt>
<pdfrwt beam="1">  1        2 0.79909430E-02 0.13468364E+03</pdfrwt>
<pdfrwt beam="2">  1       -2 0.48016328E-01 0.13468364E+03</pdfrwt>
<totfact> 0.33911940E+03</totfact>
</mgrwt>
</event>
<event>
 8    1  0.2018715E-005  0.1324103E+03  0.7546771E-02  0.1229241E+00
          4   -1    0    0  501    0  0.00000000000E+00  0.00000000000E+00  0.81374070677E+02  0.81374070677E+02  0.00000000000E+00 0. -1.
         -4   -1    0    0    0  501 -0.00000000000E+00 -0.00000000000E+00 -0.20172411472E+03  0.20172411472E+03  0.00000000000E+00 0.  1.
         25    2    1    2    0    0  0.43455962394E+02  0.44300517620E+01 -0.34846874262E+02  0.13691894043E+03  0.12499778229E+03 0.  0.
         23    2    1    2    0    0 -0.43455962394E+02 -0.44300517620E+01 -0.85503169779E+02  0.14617924496E+03  0.11022492272E+03 0.  0.
          5    1    3    3  502    0  0.67231283717E+02  0.28739394138E+01  0.25307244024E+02  0.72047565108E+02  0.47000000000E+01 0. -1.
         -5    1    4    4    0  503 -0.38693286895E+02 -0.31949919503E+02 -0.10173604518E+03  0.11353537200E+03  0.47000000000E+01 0.  1.
          5    1    4    4  503    0 -0.47626754991E+01  0.27519867741E+02  0.16232875397E+02  0.32643872963E+02  0.47000000000E+01 0. -1.
         -5    1    3    3    0  502 -0.23775321323E+02  0.15561123482E+01 -0.60154118286E+02  0.64871375323E+02  0.47000000000E+01 0. -1.
<mgrwt>
<rscale>  0 0.12880425E+03</rscale>
<asrwt>0</asrwt>
<pdfrwt beam="1">  1        4 0.12519088E-01 0.13241032E+03</pdfrwt>
<pdfrwt beam="2">  1       -4 0.31034479E-01 0.13241032E+03</pdfrwt>
<totfact> 0.84667560E+02</totfact>
</mgrwt>
</event>
<event>
 8    1  0.2018715E-005  0.1594830E+03  0.7546771E-02  0.1199942E+00
         -4   -1    0    0    0  501 -0.00000000000E+00  0.00000000000E+00  0.50975735360E+02  0.50975735360E+02  0.00000000000E+00 0.  1.
          4   -1    0    0  501    0  0.00000000000E+00 -0.00000000000E+00 -0.44321457757E+03  0.44321457757E+03  0.00000000000E+00 0. -1.
         25    2    1    2    0    0 -0.31942414925E+02  0.93758301075E+02 -0.29305185224E+03  0.33363786760E+03  0.12499560674E+03 0.  0.
         23    2    1    2    0    0  0.31942414925E+02 -0.93758301075E+02 -0.99186989971E+02  0.16055244533E+03  0.78282129696E+02 0.  0.
          5    1    4    4  502    0  0.22522437245E+02 -0.19645379294E+02 -0.76606358237E+02  0.82363980170E+02  0.47000000000E+01 0. -1.
         -5    1    3    3    0  503 -0.21988661967E+02 -0.16925679193E+02 -0.14903048342E+03  0.15166461308E+03  0.47000000000E+01 0.  1.
          5    1    3    3  503    0 -0.99537529581E+01  0.11068398027E+03 -0.14402136882E+03  0.18197325452E+03  0.47000000000E+01 0.  1.
         -5    1    4    4    0  502  0.94199776804E+01 -0.74112921781E+02 -0.22580631734E+02  0.78188465159E+02  0.47000000000E+01 0.  1.
<mgrwt>
<rscale>  0 0.15043317E+03</rscale>
<asrwt>0</asrwt>
<pdfrwt beam="1">  1        4 0.68186857E-01 0.15948304E+03</pdfrwt>
<pdfrwt beam="2">  1       -4 0.78424210E-02 0.15948304E+03</pdfrwt>
<totfact> 0.39465663E+02</totfact>
</mgrwt>
</event>
<event>
 8    1  0.2018715E-005  0.1289464E+03  0.7546771E-02  0.1252493E+00
          1   -1    0    0  501    0  0.00000000000E+00  0.00000000000E+00  0.16303360098E+03  0.16303360098E+03  0.00000000000E+00 0. -1.
         -1   -1    0    0    0  501 -0.00000000000E+00 -0.00000000000E+00 -0.75205727658E+02  0.75205727658E+02  0.00000000000E+00 0.  1.
         25    2    1    2    0    0 -0.27204529268E+02  0.16129733192E+02  0.14717171992E+02  0.12978350167E+03  0.12500762956E+03 0.  0.
         23    2    1    2    0    0  0.27204529268E+02 -0.16129733192E+02  0.73110701331E+02  0.10845582697E+03  0.73601882108E+02 0.  0.
          5    1    3    3  502    0 -0.13582112111E+02  0.70168734296E+02 -0.11985665758E+01  0.71635547070E+02  0.47000000000E+01 0.  1.
         -5    1    3    3    0  502 -0.13622417157E+02 -0.54039001104E+02  0.15915738568E+02  0.58147954596E+02  0.47000000000E+01 0.  1.
          5    1    4    4  503    0  0.18967196641E+02 -0.40053149658E+02  0.69368457284E+02  0.82450483394E+02  0.47000000000E+01 0. -1.
         -5    1    4    4    0  503  0.82373326274E+01  0.23923416465E+02  0.37422440469E+01  0.26005343580E+02  0.47000000000E+01 0.  1.
<mgrwt>
<rscale>  0 0.11447943E+03</rscale>
<asrwt>0</asrwt>
<pdfrwt beam="1">  1        1 0.25082092E-01 0.12894635E+03</pdfrwt>
<pdfrwt beam="2">  1       -1 0.11570112E-01 0.12894635E+03</pdfrwt>
<totfact> 0.86926655E+03</totfact>
</mgrwt>
</event>
<event>
 8    1  0.2018715E-005  0.1512246E+03  0.7546771E-02  0.1203574E+00
          1   -1    0    0  501    0  0.00000000000E+00  0.00000000000E+00  0.15171399383E+03  0.15171399383E+03  0.00000000000E+00 0. -1.
         -1   -1    0    0    0  501 -0.00000000000E+00 -0.00000000000E+00 -0.13687257781E+03  0.13687257781E+03  0.00000000000E+00 0.  1.
         25    2    1    2    0    0 -0.49224471934E+02 -0.69430509862E+02  0.11540446594E+02  0.15166428593E+03  0.12500091752E+03 0.  0.
         23    2    1    2    0    0  0.49224471934E+02  0.69430509862E+02  0.33009694246E+01  0.13692228571E+03  0.10720621058E+03 0.  0.
          5    1    3    3  502    0 -0.20656437937E+02 -0.56375557193E+02  0.65545838255E+02  0.89012576581E+02  0.47000000000E+01 0.  1.
         -5    1    3    3    0  502 -0.28568033997E+02 -0.13054952669E+02 -0.54005391661E+02  0.62651709347E+02  0.47000000000E+01 0.  1.
          5    1    4    4  503    0 -0.18254524742E+02  0.42321484855E+02  0.34386822263E+02  0.57696440958E+02  0.47000000000E+01 0. -1.
         -5    1    4    4    0  503  0.67478996677E+02  0.27109025008E+02 -0.31085852839E+02  0.79225844748E+02  0.47000000000E+01 0.  1.
<mgrwt>
<rscale>  0 0.14750399E+03</rscale>
<asrwt>0</asrwt>
<pdfrwt beam="1">  1        1 0.23340614E-01 0.15122458E+03</pdfrwt>
<pdfrwt beam="2">  1       -1 0.21057320E-01 0.15122458E+03</pdfrwt>
<totfact> 0.37450670E+03</totfact>
</mgrwt>
</event>
<event>
 7    1  0.2018715E-005  0.1604684E+03  0.7546771E-02  0.1203651E+00
          1   -1    0    0  501    0  0.00000000000E+00  0.00000000000E+00  0.14673460381E+03  0.14673460381E+03  0.00000000000E+00 0. -1.
         -1   -1    0    0    0  501 -0.00000000000E+00 -0.00000000000E+00 -0.14446848447E+03  0.14446848447E+03  0.00000000000E+00 0.  1.
         25    2    1    2    0    0 -0.57389411858E+02 -0.82648891916E+02  0.48801639685E+02  0.16772504893E+03  0.12500283227E+03 0.  0.
          5    1    3    3  502    0 -0.76384413160E+02 -0.31304589930E+02 -0.14453227350E+02  0.83937725162E+02  0.47000000000E+01 0. -1.
         -5    1    3    3    0  502  0.18995001303E+02 -0.51344301986E+02  0.63254867035E+02  0.83787323770E+02  0.47000000000E+01 0. -1.
          5    1    1    2  503    0  0.85333560787E+01  0.59012941801E+02 -0.21968662281E+02  0.63718581186E+02  0.47000000000E+01 0. -1.
         -5    1    1    2    0  503  0.48856055779E+02  0.23635950115E+02 -0.24566858071E+02  0.59759458160E+02  0.47000000000E+01 0.  1.
<mgrwt>
<rscale>  0 0.14744270E+03</rscale>
<asrwt>0</asrwt>
<pdfrwt beam="1">  1        1 0.22574554E-01 0.16046835E+03</pdfrwt>
<pdfrwt beam="2">  1       -1 0.22225921E-01 0.16046835E+03</pdfrwt>
<totfact> 0.35897565E+03</totfact>
</mgrwt>
</event>
<event>
 8    1  0.2076273E-005  0.1615402E+03  0.7546771E-02  0.1189708E+00
          1   -1    0    0  501    0  0.00000000000E+00  0.00000000000E+00  0.19955731285E+04  0.19955731285E+04  0.00000000000E+00 0. -1.
         -1   -1    0    0    0  501 -0.00000000000E+00 -0.00000000000E+00 -0.12348582470E+02  0.12348582470E+02  0.00000000000E+00 0.  1.
         25    2    1    2    0    0 -0.73502853606E+02 -0.71182568870E+02  0.10717032452E+04  0.10838095242E+04  0.12500244511E+03 0.  0.
         23    2    1    2    0    0  0.73502853606E+02  0.71182568870E+02  0.91152130080E+03  0.92411218679E+03  0.11243942524E+03 0.  0.
          5    1    4    4  502    0  0.59676603854E+02 -0.17186554033E+02  0.39615201238E+03  0.40101768240E+03  0.47000000000E+01 0. -1.
         -5    1    3    3    0  503  0.31636648192E+02 -0.41052189881E+02  0.35459751374E+03  0.35839593545E+03  0.47000000000E+01 0. -1.
          5    1    3    3  503    0 -0.10513950180E+03 -0.30130378989E+02  0.71710573147E+03  0.72541358871E+03  0.47000000000E+01 0. -1.
         -5    1    4    4    0  502  0.13826249752E+02  0.88369122903E+02  0.51536928842E+03  0.52309450438E+03  0.47000000000E+01 0.  1.
<mgrwt>
<rscale>  0 0.15910754E+03</rscale>
<asrwt>0</asrwt>
<pdfrwt beam="1">  1        1 0.30701099E+00 0.16154021E+03</pdfrwt>
<pdfrwt beam="2">  1       -1 0.18997835E-02 0.16154021E+03</pdfrwt>
<totfact> 0.25103206E+03</totfact>
</mgrwt>
</event>
<event>
 8    1  0.2018715E-005  0.1308076E+03  0.7546771E-02  0.1233081E+00
          2   -1    0    0  501    0  0.00000000000E+00  0.00000000000E+00  0.11919396629E+03  0.11919396629E+03  0.00000000000E+00 0. -1.
         -2   -1    0    0    0  501 -0.00000000000E+00 -0.00000000000E+00 -0.13272033071E+03  0.13272033071E+03  0.00000000000E+00 0.  1.
         25    2    1    2    0    0  0.21436333554E+02 -0.32011804433E+02 -0.36908697345E+02  0.13591499995E+03  0.12500545289E+03 0.  0.
         23    2    1    2    0    0 -0.21436333554E+02  0.32011804433E+02  0.23382332926E+02  0.11599929704E+03  0.10688700296E+03 0.  0.
          5    1    4    4  502    0 -0.37643971603E+02  0.64829190060E+02  0.24710686075E+02  0.79073386725E+02  0.47000000000E+01 0. -1.
         -5    1    3    3    0  503 -0.24541959099E+02 -0.59379420473E+02  0.92622795449E+01  0.65085352841E+02  0.47000000000E+01 0. -1.
          5    1    3    3  503    0  0.45978292653E+02  0.27367616040E+02 -0.46170976890E+02  0.70829647112E+02  0.47000000000E+01 0. -1.
         -5    1    4    4    0  502  0.16207638049E+02 -0.32817385627E+02 -0.13283531491E+01  0.36925910315E+02  0.47000000000E+01 0.  1.
<mgrwt>
<rscale>  0 0.12628065E+03</rscale>
<asrwt>0</asrwt>
<pdfrwt beam="1">  1        2 0.18337533E-01 0.13080763E+03</pdfrwt>
<pdfrwt beam="2">  1       -2 0.20418512E-01 0.13080763E+03</pdfrwt>
<totfact> 0.59053848E+03</totfact>
</mgrwt>
</event>
<event>
 8    1  0.2018715E-005  0.1260999E+03  0.7546771E-02  0.1242411E+00
         -1   -1    0    0    0  501 -0.00000000000E+00  0.00000000000E+00  0.13894939806E+02  0.13894939806E+02  0.00000000000E+00 0.  1.
          1   -1    0    0  501    0  0.00000000000E+00 -0.00000000000E+00 -0.11675120491E+04  0.11675120491E+04  0.00000000000E+00 0. -1.
         25    2    1    2    0    0  0.71671705716E+01  0.14885353999E+02 -0.86874620107E+03  0.87785029602E+03  0.12501295233E+03 0.  0.
         23    2    1    2    0    0 -0.71671705716E+01 -0.14885353999E+02 -0.28487090826E+03  0.30355669292E+03  0.10354848791E+03 0.  0.
          5    1    4    4  502    0 -0.15895413204E+02 -0.58080512680E+02 -0.15648777275E+03  0.16773945015E+03  0.47000000000E+01 0. -1.
         -5    1    3    3    0  503  0.43682330615E+02 -0.37250727362E+02 -0.29547576361E+03  0.30103783745E+03  0.47000000000E+01 0. -1.
          5    1    3    3  503    0 -0.36515160043E+02  0.52136081361E+02 -0.57327043746E+03  0.57681245857E+03  0.47000000000E+01 0. -1.
         -5    1    4    4    0  502  0.87282426324E+01  0.43195158681E+02 -0.12838313550E+03  0.13581724277E+03  0.47000000000E+01 0.  1.
<mgrwt>
<rscale>  0 0.12041665E+03</rscale>
<asrwt>0</asrwt>
<pdfrwt beam="1">  1        1 0.17961725E+00 0.12609988E+03</pdfrwt>
<pdfrwt beam="2">  1       -1 0.21376830E-02 0.12609988E+03</pdfrwt>
<totfact> 0.72754643E+03</totfact>
</mgrwt>
</event>
<event>
 8    1  0.2018715E-005  0.2078632E+03  0.7546771E-02  0.1144422E+00
          2   -1    0    0  501    0  0.00000000000E+00  0.00000000000E+00  0.49276901090E+03  0.49276901090E+03  0.00000000000E+00 0. -1.
         -2   -1    0    0    0  501 -0.00000000000E+00 -0.00000000000E+00 -0.99325408988E+02  0.99325408988E+02  0.00000000000E+00 0.  1.
         25    2    1    2    0    0  0.14782432019E+03  0.75698371922E+02  0.31024870213E+03  0.37344528470E+03  0.12499940137E+03 0.  0.
         23    2    1    2    0    0 -0.14782432019E+03 -0.75698371922E+02  0.83194899780E+02  0.21864913518E+03  0.11534201237E+03 0.  0.
          5    1    3    3  502    0  0.12515861791E+03  0.51822288776E+00  0.15391190631E+03  0.19843364910E+03  0.47000000000E+01 0.  1.
         -5    1    4    4    0  503 -0.19087930289E+02 -0.70337889480E+01 -0.28153585743E+02  0.35050501564E+02  0.47000000000E+01 0.  1.
          5    1    4    4  503    0 -0.12873638990E+03 -0.68664582974E+02  0.11134848552E+03  0.18359863362E+03  0.47000000000E+01 0. -1.
         -5    1    3    3    0  502  0.22665702279E+02  0.75180149034E+02  0.15633679582E+03  0.17501163560E+03  0.47000000000E+01 0.  1.
<mgrwt>
<rscale>  0 0.20643349E+03</rscale>
<asrwt>0</asrwt>
<pdfrwt beam="1">  1        2 0.75810616E-01 0.20786323E+03</pdfrwt>
<pdfrwt beam="2">  1       -2 0.15280832E-01 0.20786323E+03</pdfrwt>
<totfact> 0.20841064E+03</totfact>
</mgrwt>
</event>
<event>
 8    1  0.2018715E-005  0.2687078E+03  0.7546771E-02  0.1105170E+00
         -2   -1    0    0    0  501 -0.00000000000E+00  0.00000000000E+00  0.45725747606E+03  0.45725747606E+03  0.00000000000E+00 0.  1.
          2   -1    0    0  501    0  0.00000000000E+00 -0.00000000000E+00 -0.15031440794E+03  0.15031440794E+03  0.00000000000E+00 0. -1.
         25    2    1    2    0    0  0.23772936975E+03 -0.79747948840E+01  0.10711811698E+03  0.28927182422E+03  0.12500018681E+03 0.  0.
         23    2    1    2    0    0 -0.23772936975E+03  0.79747948840E+01  0.19982495114E+03  0.31830005978E+03  0.69325798697E+02 0.  0.
          5    1    3    3  502    0  0.10357593177E+03  0.27757735327E+02  0.10528252604E+03  0.15034947888E+03  0.47000000000E+01 0.  1.
         -5    1    4    4    0  503 -0.11178408103E+03  0.35704449160E+02  0.79176987848E+02  0.14163888543E+03  0.47000000000E+01 0.  1.
          5    1    4    4  503    0 -0.12594528872E+03 -0.27729654276E+02  0.12064796329E+03  0.17666117435E+03  0.47000000000E+01 0. -1.
         -5    1    3    3    0  502  0.13415343799E+03 -0.35732530211E+02  0.18355909442E+01  0.13892234533E+03  0.47000000000E+01 0.  1.
<mgrwt>
<rscale>  0 0.26331036E+03</rscale>
<asrwt>0</asrwt>
<pdfrwt beam="1">  1        2 0.23125294E-01 0.26870783E+03</pdfrwt>
<pdfrwt beam="2">  1       -2 0.70347303E-01 0.26870783E+03</pdfrwt>
<totfact> 0.44478811E+02</totfact>
</mgrwt>
</event>
<event>
 7    1  0.2018715E-005  0.1655528E+03  0.7546771E-02  0.1192679E+00
          1   -1    0    0  501    0  0.00000000000E+00  0.00000000000E+00  0.48221761597E+03  0.48221761597E+03  0.00000000000E+00 0. -1.
         -1   -1    0    0    0  501 -0.00000000000E+00 -0.00000000000E+00 -0.52401942842E+02  0.52401942842E+02  0.00000000000E+00 0.  1.
         25    2    1    2    0    0 -0.26335841224E+02 -0.34428671364E+02  0.10083608464E+03  0.16633256666E+03  0.12497878549E+03 0.  0.
          5    1    3    3  502    0 -0.71412684052E+01 -0.79006250326E+02  0.81634604418E+02  0.11392666037E+03  0.47000000000E+01 0. -1.
         -5    1    3    3    0  502 -0.19194572819E+02  0.44577578962E+02  0.19201480217E+02  0.52405906293E+02  0.47000000000E+01 0. -1.
          5    1    1    2  503    0 -0.47747800101E+02 -0.36419236352E+02  0.91039173411E+02  0.10916242159E+03  0.47000000000E+01 0. -1.
         -5    1    1    2    0  503  0.74083641326E+02  0.70847907716E+02  0.23794041508E+03  0.25912457056E+03  0.47000000000E+01 0.  1.
<mgrwt>
<rscale>  0 0.15652290E+03</rscale>
<asrwt>0</asrwt>
<pdfrwt beam="1">  1        1 0.74187322E-01 0.16555283E+03</pdfrwt>
<pdfrwt beam="2">  1       -1 0.80618377E-02 0.16555283E+03</pdfrwt>
<totfact> 0.39400710E+03</totfact>
</mgrwt>
</event>
<event>
 8    1  0.2018715E-005  0.1596464E+03  0.7546771E-02  0.1200513E+00
         -2   -1    0    0    0  501 -0.00000000000E+00  0.00000000000E+00  0.19700915609E+02  0.19700915609E+02  0.00000000000E+00 0.  1.
          2   -1    0    0  501    0  0.00000000000E+00 -0.00000000000E+00 -0.10282941073E+04  0.10282941073E+04  0.00000000000E+00 0. -1.
         25    2    1    2    0    0  0.31882582805E+02  0.94072094530E+02 -0.60331934379E+03  0.62408429303E+03  0.12498366356E+03 0.  0.
         23    2    1    2    0    0 -0.31882582805E+02 -0.94072094530E+02 -0.40527384789E+03  0.42391072987E+03  0.74748625805E+02 0.  0.
          5    1    4    4  502    0 -0.14244948788E+02 -0.56713583733E+02 -0.34925320450E+03  0.35414578919E+03  0.47000000000E+01 0. -1.
         -5    1    4    4    0  502 -0.17637634017E+02 -0.37358510797E+02 -0.56020643395E+02  0.69764940687E+02  0.47000000000E+01 0.  1.
          5    1    3    3  503    0 -0.34041364099E+02  0.67957114054E+02 -0.43118376656E+03  0.43785672813E+03  0.47000000000E+01 0. -1.
         -5    1    3    3    0  503  0.65923946905E+02  0.26114980476E+02 -0.17213557723E+03  0.18622756490E+03  0.47000000000E+01 0. -1.
<mgrwt>
<rscale>  0 0.14996759E+03</rscale>
<asrwt>0</asrwt>
<pdfrwt beam="1">  1        2 0.15819914E+00 0.15964640E+03</pdfrwt>
<pdfrwt beam="2">  1       -2 0.30309092E-02 0.15964640E+03</pdfrwt>
<totfact> 0.10240323E+04</totfact>
</mgrwt>
</event>
<event>
 8    1  0.2018715E-005  0.1283688E+03  0.7546771E-02  0.1252030E+00
          1   -1    0    0  501    0  0.00000000000E+00  0.00000000000E+00  0.14321072015E+03  0.14321072015E+03  0.00000000000E+00 0. -1.
         -1   -1    0    0    0  501 -0.00000000000E+00 -0.00000000000E+00 -0.86249167624E+02  0.86249167624E+02  0.00000000000E+00 0.  1.
         25    2    1    2    0    0  0.22099858153E+02 -0.19150517839E+02  0.70419631738E+02  0.14641540508E+03  0.12499360083E+03 0.  0.
         23    2    1    2    0    0 -0.22099858153E+02  0.19150517839E+02 -0.13458079208E+02  0.83044482697E+02  0.76551421584E+02 0.  0.
          5    1    4    4  502    0  0.54946324015E+01 -0.25392601955E+02 -0.15091461899E+02  0.30410811260E+02  0.47000000000E+01 0. -1.
         -5    1    3    3    0  503  0.23918533836E+02  0.18869810382E+02 -0.27464178917E+02  0.41286040356E+02  0.47000000000E+01 0. -1.
          5    1    3    3  503    0 -0.18186756828E+01 -0.38020328221E+02  0.97883810655E+02  0.10512936473E+03  0.47000000000E+01 0. -1.
         -5    1    4    4    0  502 -0.27594490554E+02  0.44543119794E+02  0.16333826912E+01  0.52633671437E+02  0.47000000000E+01 0.  1.
<mgrwt>
<rscale>  0 0.11474334E+03</rscale>
<asrwt>0</asrwt>
<pdfrwt beam="1">  1        1 0.22032418E-01 0.12836879E+03</pdfrwt>
<pdfrwt beam="2">  1       -1 0.13269103E-01 0.12836879E+03</pdfrwt>
<totfact> 0.82777952E+03</totfact>
</mgrwt>
</event>
<event>
 8    1  0.2018715E-005  0.1421835E+03  0.7546771E-02  0.1215513E+00
         -2   -1    0    0    0  501 -0.00000000000E+00  0.00000000000E+00  0.41788942592E+02  0.41788942592E+02  0.00000000000E+00 0.  1.
          2   -1    0    0  501    0  0.00000000000E+00 -0.00000000000E+00 -0.58600538068E+03  0.58600538068E+03  0.00000000000E+00 0. -1.
         25    2    1    2    0    0 -0.96747511590E+01 -0.67057169249E+02 -0.44198006107E+03  0.46428712407E+03  0.12500357769E+03 0.  0.
         23    2    1    2    0    0  0.96747511590E+01  0.67057169249E+02 -0.10223637701E+03  0.16350719919E+03  0.10812984161E+03 0.  0.
          5    1    3    3  502    0 -0.28152504886E+02 -0.82217558425E+02 -0.42680513902E+03  0.43558811639E+03  0.47000000000E+01 0. -1.
         -5    1    3    3    0  502  0.18477753727E+02  0.15160389176E+02 -0.15174922055E+02  0.28699007685E+02  0.47000000000E+01 0. -1.
          5    1    4    4  503    0 -0.16585772737E+02  0.83657670887E+02 -0.10070299286E+03  0.13204876572E+03  0.47000000000E+01 0. -1.
         -5    1    4    4    0  503  0.26260523896E+02 -0.16600501637E+02 -0.15333841453E+01  0.31458433477E+02  0.47000000000E+01 0.  1.
<mgrwt>
<rscale>  0 0.13838899E+03</rscale>
<asrwt>0</asrwt>
<pdfrwt beam="1">  1        2 0.90154679E-01 0.14218354E+03</pdfrwt>
<pdfrwt beam="2">  1       -2 0.64290677E-02 0.14218354E+03</pdfrwt>
<totfact> 0.66513569E+03</totfact>
</mgrwt>
</event>
<event>
 8    1  0.2018715E-005  0.1286562E+03  0.7546771E-02  0.1253693E+00
          4   -1    0    0  501    0  0.00000000000E+00  0.00000000000E+00  0.34832161476E+03  0.34832161476E+03  0.00000000000E+00 0. -1.
         -4   -1    0    0    0  501 -0.00000000000E+00 -0.00000000000E+00 -0.30875294195E+02  0.30875294195E+02  0.00000000000E+00 0.  1.
         25    2    1    2    0    0 -0.30177614435E+02 -0.30694682919E+01  0.19642290039E+03  0.23480711231E+03  0.12502925316E+03 0.  0.
         23    2    1    2    0    0  0.30177614435E+02  0.30694682919E+01  0.12102342017E+03  0.14438979664E+03  0.72674858758E+02 0.  0.
          5    1    4    4  502    0  0.33313319910E+02  0.25832175288E+02  0.11110304700E+03  0.11892457953E+03  0.47000000000E+01 0. -1.
         -5    1    4    4    0  502 -0.31357054750E+01 -0.22762706996E+02  0.99203731693E+01  0.25465217109E+02  0.47000000000E+01 0.  1.
          5    1    3    3  503    0 -0.24509011100E+02  0.24754971423E+02  0.20238404623E+03  0.20541395377E+03  0.47000000000E+01 0.  1.
         -5    1    3    3    0  503 -0.56686033350E+01 -0.27824439715E+02 -0.59611458394E+01  0.29393158540E+02  0.47000000000E+01 0.  1.
<mgrwt>
<rscale>  0 0.11379871E+03</rscale>
<asrwt>0</asrwt>
<pdfrwt beam="1">  1        4 0.53587938E-01 0.12865622E+03</pdfrwt>
<pdfrwt beam="2">  1       -4 0.47500455E-02 0.12865622E+03</pdfrwt>
<totfact> 0.14213574E+03</totfact>
</mgrwt>
</event>
<event>
 7    1  0.2018715E-005  0.2365821E+03  0.7546771E-02  0.1139070E+00
          2   -1    0    0  501    0  0.00000000000E+00  0.00000000000E+00  0.15486527154E+04  0.15486527154E+04  0.00000000000E+00 0. -1.
         -2   -1    0    0    0  501 -0.00000000000E+00 -0.00000000000E+00 -0.28301385339E+02  0.28301385339E+02  0.00000000000E+00 0.  1.
         25    2    1    2    0    0  0.52533046755E+02 -0.77099849871E+02  0.35383597950E+03  0.38668977790E+03  0.12499990438E+03 0.  0.
          5    1    3    3  502    0  0.65718427997E+02 -0.99261620534E+02  0.33147623829E+03  0.35223623840E+03  0.47000000000E+01 0. -1.
         -5    1    1    2    0  503  0.78230930834E+02  0.67409328265E+02  0.43851083792E+03  0.45053073263E+03  0.47000000000E+01 0.  1.
          5    1    1    2  503    0 -0.13076397759E+03  0.96905216063E+01  0.72800451269E+03  0.73973359024E+03  0.47000000000E+01 0. -1.
         -5    1    3    3    0  502 -0.13185381243E+02  0.22161770663E+02  0.22359741207E+02  0.34453539503E+02  0.47000000000E+01 0. -1.
<mgrwt>
<rscale>  0 0.21318279E+03</rscale>
<asrwt>0</asrwt>
<pdfrwt beam="1">  1        2 0.23825420E+00 0.23658211E+03</pdfrwt>
<pdfrwt beam="2">  1       -2 0.43540605E-02 0.23658211E+03</pdfrwt>
<totfact> 0.31040153E+03</totfact>
</mgrwt>
</event>
<event>
 8    1  0.2018715E-005  0.2025685E+03  0.7546771E-02  0.1153209E+00
          2   -1    0    0  501    0  0.00000000000E+00  0.00000000000E+00  0.13664208266E+04  0.13664208266E+04  0.00000000000E+00 0.  1.
         -2   -1    0    0    0  501 -0.00000000000E+00 -0.00000000000E+00 -0.26846436203E+02  0.26846436203E+02  0.00000000000E+00 0. -1.
         25    2    1    2    0    0 -0.68187140741E+02  0.14408024229E+03  0.62449715940E+03  0.65652928519E+03  0.12500159133E+03 0.  0.
         23    2    1    2    0    0  0.68187140741E+02 -0.14408024229E+03  0.71507723104E+03  0.73673797766E+03  0.77709709727E+02 0.  0.
          5    1    3    3  502    0 -0.56209900024E+02  0.93456848704E+01  0.29191062362E+03  0.29745721855E+03  0.47000000000E+01 0. -1.
         -5    1    4    4    0  503  0.45617558871E+02 -0.24110372992E+02  0.28387506792E+03  0.28856440521E+03  0.47000000000E+01 0.  1.
          5    1    4    4  503    0  0.22569581870E+02 -0.11996986930E+03  0.43120216312E+03  0.44817357245E+03  0.47000000000E+01 0. -1.
         -5    1    3    3    0  502 -0.11977240717E+02  0.13473455742E+03  0.33258653578E+03  0.35907206664E+03  0.47000000000E+01 0. -1.
<mgrwt>
<rscale>  0 0.19594178E+03</rscale>
<asrwt>0</asrwt>
<pdfrwt beam="1">  1        2 0.21021853E+00 0.20256851E+03</pdfrwt>
<pdfrwt beam="2">  1       -2 0.41302220E-02 0.20256851E+03</pdfrwt>
<totfact> 0.42004466E+03</totfact>
</mgrwt>
</event>
<event>
 7    1  0.2018715E-005  0.1408529E+03  0.7546771E-02  0.1213672E+00
          2   -1    0    0  501    0  0.00000000000E+00  0.00000000000E+00  0.63452380551E+03  0.63452380551E+03  0.00000000000E+00 0. -1.
         -2   -1    0    0    0  501 -0.00000000000E+00 -0.00000000000E+00 -0.35230890244E+02  0.35230890244E+02  0.00000000000E+00 0.  1.
         25    2    1    2    0    0  0.49035365611E+02 -0.24363887306E+02  0.17034047423E+03  0.21826854225E+03  0.12500885285E+03 0.  0.
          5    1    1    2  502    0 -0.61271187556E+02  0.52751888986E+02  0.40238878882E+03  0.41045797298E+03  0.47000000000E+01 0. -1.
         -5    1    3    3    0  503 -0.35306021005E+02 -0.30585572673E+02  0.34800271371E+02  0.58439209975E+02  0.47000000000E+01 0.  1.
          5    1    3    3  503    0  0.84341386616E+02  0.62216853664E+01  0.13554020285E+03  0.15982933227E+03  0.47000000000E+01 0.  1.
         -5    1    1    2    0  502  0.12235821945E+02 -0.28388001679E+02  0.26563652225E+02  0.41028180529E+02  0.47000000000E+01 0.  1.
<mgrwt>
<rscale>  0 0.13974532E+03</rscale>
<asrwt>0</asrwt>
<pdfrwt beam="1">  1        2 0.97619039E-01 0.14085294E+03</pdfrwt>
<pdfrwt beam="2">  1       -2 0.54201374E-02 0.14085294E+03</pdfrwt>
<totfact> 0.78626708E+03</totfact>
</mgrwt>
</event>
<event>
 8    1  0.2018715E-005  0.1550476E+03  0.7546771E-02  0.1194419E+00
         -2   -1    0    0    0  501 -0.00000000000E+00  0.00000000000E+00  0.10336739382E+03  0.10336739382E+03  0.00000000000E+00 0.  1.
          2   -1    0    0  501    0  0.00000000000E+00 -0.00000000000E+00 -0.30857431950E+03  0.30857431950E+03  0.00000000000E+00 0. -1.
         25    2    1    2    0    0 -0.29932885910E+02 -0.86702462914E+02 -0.34105626863E+00  0.15504798113E+03  0.12500586146E+03 0.  0.
         23    2    1    2    0    0  0.29932885910E+02  0.86702462914E+02 -0.20486586942E+03  0.25689373219E+03  0.12494426939E+03 0.  0.
          5    1    3    3  502    0 -0.18129279326E+02 -0.26602667570E+02 -0.60737400516E+02  0.68902064644E+02  0.47000000000E+01 0. -1.
         -5    1    4    4    0  503 -0.30449129686E+02  0.87722528735E+02 -0.10651125072E+03  0.14138291296E+03  0.47000000000E+01 0.  1.
          5    1    4    4  503    0  0.60382015596E+02 -0.10200658208E+01 -0.98354618694E+02  0.11551081923E+03  0.47000000000E+01 0. -1.
         -5    1    3    3    0  502 -0.11803606584E+02 -0.60099795344E+02  0.60396344247E+02  0.86145916486E+02  0.47000000000E+01 0. -1.
<mgrwt>
<rscale>  0 0.15503519E+03</rscale>
<asrwt>0</asrwt>
<pdfrwt beam="1">  1        2 0.47472972E-01 0.15504761E+03</pdfrwt>
<pdfrwt beam="2">  1       -2 0.15902676E-01 0.15504761E+03</pdfrwt>
<totfact> 0.32050302E+03</totfact>
</mgrwt>
</event>
<event>
 8    1  0.2018715E-005  0.1427004E+03  0.7546771E-02  0.1216179E+00
          2   -1    0    0  501    0  0.00000000000E+00  0.00000000000E+00  0.51211656394E+03  0.51211656394E+03  0.00000000000E+00 0.  1.
         -2   -1    0    0    0  501 -0.00000000000E+00 -0.00000000000E+00 -0.37235417733E+02  0.37235417733E+02  0.00000000000E+00 0. -1.
         25    2    1    2    0    0 -0.62742152402E+02  0.28315510580E+02  0.32209803959E+03  0.35229328383E+03  0.12500025959E+03 0.  0.
         23    2    1    2    0    0  0.62742152402E+02 -0.28315510580E+02  0.15278310662E+03  0.19705869784E+03  0.10368754458E+03 0.  0.
          5    1    4    4  502    0 -0.12457812037E+02  0.27542522473E+02  0.40484871691E+02  0.50743496733E+02  0.47000000000E+01 0. -1.
         -5    1    3    3    0  503 -0.29802852688E+02 -0.26365667917E+02  0.22539700634E+02  0.45972672075E+02  0.47000000000E+01 0.  1.
          5    1    3    3  503    0 -0.32939299713E+02  0.54681178497E+02  0.29955833896E+03  0.30632061175E+03  0.47000000000E+01 0.  1.
         -5    1    4    4    0  502  0.75199964439E+02 -0.55858033053E+02  0.11229823493E+03  0.14631520111E+03  0.47000000000E+01 0.  1.
<mgrwt>
<rscale>  0 0.13790292E+03</rscale>
<asrwt>0</asrwt>
<pdfrwt beam="1">  1        2 0.78787159E-01 0.14270042E+03</pdfrwt>
<pdfrwt beam="2">  1       -2 0.57285262E-02 0.14270042E+03</pdfrwt>
<totfact> 0.92165212E+03</totfact>
</mgrwt>
</event>
<event>
 7    1  0.2018715E-005  0.1792759E+03  0.7546771E-02  0.1175617E+00
          1   -1    0    0  501    0  0.00000000000E+00  0.00000000000E+00  0.28067956143E+02  0.28067956143E+02  0.00000000000E+00 0. -1.
         -1   -1    0    0    0  501 -0.00000000000E+00 -0.00000000000E+00 -0.13565007975E+04  0.13565007975E+04  0.00000000000E+00 0.  1.
         25    2    1    2    0    0 -0.87083342051E+02 -0.57520206007E+01 -0.98918958437E+03  0.10008685756E+04  0.12500111068E+03 0.  0.
          5    1    1    2  502    0  0.32054177054E+02  0.49370405510E+02 -0.29399843582E+02  0.65964748233E+02  0.47000000000E+01 0. -1.
         -5    1    1    2    0  502  0.55029164997E+02 -0.43618384909E+02 -0.30984341344E+03  0.31773542981E+03  0.47000000000E+01 0.  1.
          5    1    3    3  503    0  0.32376023380E+02 -0.96002784618E+00 -0.19980505884E+03  0.20246797298E+03  0.47000000000E+01 0. -1.
         -5    1    3    3    0  503 -0.11945936543E+03 -0.47919927545E+01 -0.78938452553E+03  0.79840060266E+03  0.47000000000E+01 0. -1.
<mgrwt>
<rscale>  0 0.17215723E+03</rscale>
<asrwt>0</asrwt>
<pdfrwt beam="1">  1        1 0.43181468E-02 0.17927587E+03</pdfrwt>
<pdfrwt beam="2">  1       -1 0.20869245E+00 0.17927587E+03</pdfrwt>
<totfact> 0.29937231E+02</totfact>
</mgrwt>
</event>
<event>
 8    1  0.2018715E-005  0.2501946E+03  0.7546771E-02  0.1117007E+00
          2   -1    0    0  501    0  0.00000000000E+00  0.00000000000E+00  0.77560004173E+03  0.77560004173E+03  0.00000000000E+00 0. -1.
         -2   -1    0    0    0  501 -0.00000000000E+00 -0.00000000000E+00 -0.79812243378E+02  0.79812243378E+02  0.00000000000E+00 0.  1.
         25    2    1    2    0    0  0.13486214144E+03 -0.16966251376E+03  0.48394410039E+03  0.54479281320E+03  0.12499660494E+03 0.  0.
         23    2    1    2    0    0 -0.13486214144E+03  0.16966251376E+03  0.21184369796E+03  0.31061947191E+03  0.68070097633E+02 0.  0.
          5    1    3    3  502    0  0.12486173994E+02  0.16257171659E+02  0.88716863812E+02  0.91175501621E+02  0.47000000000E+01 0. -1.
         -5    1    4    4    0  503 -0.32446507420E+02  0.59433900469E+01  0.23075931289E+02  0.40530091708E+02  0.47000000000E+01 0.  1.
          5    1    4    4  503    0 -0.10241563402E+03  0.16371912371E+03  0.18876776668E+03  0.27008938020E+03  0.47000000000E+01 0. -1.
         -5    1    3    3    0  502  0.12237596745E+03 -0.18591968541E+03  0.39522723658E+03  0.45361731158E+03  0.47000000000E+01 0. -1.
<mgrwt>
<rscale>  0 0.24422868E+03</rscale>
<asrwt>0</asrwt>
<pdfrwt beam="1">  1        2 0.11932308E+00 0.25019456E+03</pdfrwt>
<pdfrwt beam="2">  1       -2 0.12278807E-01 0.25019456E+03</pdfrwt>
<totfact> 0.17552587E+03</totfact>
</mgrwt>
</event>
<event>
 8    1  0.2018715E-005  0.1393536E+03  0.7546771E-02  0.1220151E+00
         -1   -1    0    0    0  501 -0.00000000000E+00  0.00000000000E+00  0.44363894229E+03  0.44363894229E+03  0.00000000000E+00 0. -1.
          1   -1    0    0  501    0  0.00000000000E+00 -0.00000000000E+00 -0.39079977085E+02  0.39079977085E+02  0.00000000000E+00 0.  1.
         25    2    1    2    0    0  0.60884261253E+02  0.94122617784E+01  0.23660145779E+03  0.27459003898E+03  0.12499582288E+03 0.  0.
         23    2    1    2    0    0 -0.60884261253E+02 -0.94122617784E+01  0.16795750741E+03  0.20812888039E+03  0.10635987316E+03 0.  0.
          5    1    3    3  502    0 -0.28818793117E+02 -0.28279197421E+02  0.53527532040E+02  0.67212517657E+02  0.47000000000E+01 0.  1.
         -5    1    4    4    0  503 -0.35776378787E+02 -0.70693486241E+01 -0.14422422925E+01  0.36798030272E+02  0.47000000000E+01 0.  1.
          5    1    4    4  503    0 -0.25107882466E+02 -0.23429131543E+01  0.16939974970E+03  0.17133085012E+03  0.47000000000E+01 0. -1.
         -5    1    3    3    0  502  0.89703054370E+02  0.37691459199E+02  0.18307392575E+03  0.20737752132E+03  0.47000000000E+01 0.  1.
<mgrwt>
<rscale>  0 0.13504835E+03</rscale>
<asrwt>0</asrwt>
<pdfrwt beam="1">  1        1 0.60123045E-02 0.13935365E+03</pdfrwt>
<pdfrwt beam="2">  1       -1 0.68252141E-01 0.13935365E+03</pdfrwt>
<totfact> 0.28088556E+03</totfact>
</mgrwt>
</event>
<event>
 8    1  0.2018715E-005  0.1279468E+03  0.7546771E-02  0.1253811E+00
         -4   -1    0    0    0  501 -0.00000000000E+00  0.00000000000E+00  0.61419894610E+02  0.61419894610E+02  0.00000000000E+00 0.  1.
          4   -1    0    0  501    0  0.00000000000E+00 -0.00000000000E+00 -0.18208771612E+03  0.18208771612E+03  0.00000000000E+00 0. -1.
         25    2    1    2    0    0 -0.13998289604E+02 -0.23445507683E+02 -0.95828923116E+02  0.15985485226E+03  0.12499898936E+03 0.  0.
         23    2    1    2    0    0  0.13998289604E+02  0.23445507683E+02 -0.24838898390E+02  0.83652758469E+02  0.75067763946E+02 0.  0.
          5    1    3    3  502    0 -0.15656668459E+02 -0.67582496076E+02 -0.20646823591E+02  0.72532105771E+02  0.47000000000E+01 0.  1.
         -5    1    4    4    0  503  0.24284188491E+02 -0.17625078965E+02  0.61324410928E+01  0.30984868129E+02  0.47000000000E+01 0.  1.
          5    1    4    4  503    0 -0.10285898887E+02  0.41070586648E+02 -0.30971339483E+02  0.52667890340E+02  0.47000000000E+01 0. -1.
         -5    1    3    3    0  502  0.16583788556E+01  0.44136988393E+02 -0.75182099525E+02  0.87322746486E+02  0.47000000000E+01 0.  1.
<mgrwt>
<rscale>  0 0.11373173E+03</rscale>
<asrwt>0</asrwt>
<pdfrwt beam="1">  1        4 0.28013494E-01 0.12794683E+03</pdfrwt>
<pdfrwt beam="2">  1       -4 0.94492147E-02 0.12794683E+03</pdfrwt>
<totfact> 0.16418255E+03</totfact>
</mgrwt>
</event>
<event>
 7    1  0.2018715E-005  0.1450018E+03  0.7546771E-02  0.1208929E+00
         -3   -1    0    0    0  501 -0.00000000000E+00  0.00000000000E+00  0.13904924291E+03  0.13904924291E+03  0.00000000000E+00 0.  1.
          3   -1    0    0  501    0  0.00000000000E+00 -0.00000000000E+00 -0.14492578950E+03  0.14492578950E+03  0.00000000000E+00 0. -1.
         25    2    1    2    0    0  0.67197109149E+01 -0.59014622240E+02 -0.11431338517E+02  0.13886686096E+03  0.12500179767E+03 0.  0.
          5    1    1    2  502    0 -0.13681170098E+02 -0.27191200252E+02 -0.37381819769E+02  0.48435794983E+02  0.47000000000E+01 0. -1.
         -5    1    3    3    0  503  0.52371801278E+02  0.58449174390E+01  0.15237030365E+02  0.55056568394E+02  0.47000000000E+01 0.  1.
          5    1    3    3  503    0 -0.45652090363E+02 -0.64859539678E+02 -0.26668368882E+02  0.83810292570E+02  0.47000000000E+01 0.  1.
         -5    1    1    2    0  502  0.69614591830E+01  0.86205822491E+02  0.42936611697E+02  0.96672376455E+02  0.47000000000E+01 0.  1.
<mgrwt>
<rscale>  0 0.14332126E+03</rscale>
<asrwt>0</asrwt>
<pdfrwt beam="1">  1        3 0.22296275E-01 0.14500181E+03</pdfrwt>
<pdfrwt beam="2">  1       -3 0.21392191E-01 0.14500181E+03</pdfrwt>
<totfact> 0.85792832E+02</totfact>
</mgrwt>
</event>
<event>
 8    1  0.2018715E-005  0.1370984E+03  0.7546771E-02  0.1234985E+00
         -2   -1    0    0    0  501 -0.00000000000E+00  0.00000000000E+00  0.47764264637E+02  0.47764264637E+02  0.00000000000E+00 0. -1.
          2   -1    0    0  501    0  0.00000000000E+00 -0.00000000000E+00 -0.31104376617E+03  0.31104376617E+03  0.00000000000E+00 0.  1.
         25    2    1    2    0    0 -0.10835312930E+02 -0.55255943485E+02 -0.20756866638E+03  0.24875833612E+03  0.12500134091E+03 0.  0.
         23    2    1    2    0    0  0.10835312930E+02  0.55255943485E+02 -0.55710835147E+02  0.11004969468E+03  0.76397741128E+02 0.  0.
          5    1    4    4  502    0  0.29779422993E+02  0.62935697518E+02 -0.27756955509E+02  0.75101628711E+02  0.47000000000E+01 0. -1.
         -5    1    3    3    0  503 -0.45273596630E+02 -0.23270514090E+02 -0.19280206309E+02  0.54635443927E+02  0.47000000000E+01 0. -1.
          5    1    3    3  503    0  0.34438283700E+02 -0.31985429395E+02 -0.18828846007E+03  0.19412289220E+03  0.47000000000E+01 0. -1.
         -5    1    4    4    0  502 -0.18944110063E+02 -0.76797540333E+01 -0.27953879638E+02  0.34948065968E+02  0.47000000000E+01 0.  1.
<mgrwt>
<rscale>  0 0.12505416E+03</rscale>
<asrwt>0</asrwt>
<pdfrwt beam="1">  1        2 0.47852889E-01 0.13709835E+03</pdfrwt>
<pdfrwt beam="2">  1       -2 0.73483481E-02 0.13709835E+03</pdfrwt>
<totfact> 0.10742638E+04</totfact>
</mgrwt>
</event>
<event>
 7    1  0.2018715E-005  0.1881305E+03  0.7546771E-02  0.1169976E+00
         -2   -1    0    0    0  501 -0.00000000000E+00  0.00000000000E+00  0.53064748746E+02  0.53064748746E+02  0.00000000000E+00 0.  1.
          2   -1    0    0  501    0  0.00000000000E+00 -0.00000000000E+00 -0.54040556559E+03  0.54040556559E+03  0.00000000000E+00 0. -1.
         25    2    1    2    0    0  0.14047898141E+03 -0.58074288004E+01 -0.28789901671E+03  0.34391701815E+03  0.12500000441E+03 0.  0.
          5    1    1    2  502    0 -0.91551480283E+02 -0.20342070960E+02 -0.13410438889E+03  0.16371179100E+03  0.47000000000E+01 0. -1.
         -5    1    1    2    0  502 -0.48927501127E+02  0.26149499761E+02 -0.65337411236E+02  0.85841505179E+02  0.47000000000E+01 0.  1.
          5    1    3    3  503    0  0.53541601113E+02  0.52532570695E+02 -0.17175089490E+03  0.18747488881E+03  0.47000000000E+01 0. -1.
         -5    1    3    3    0  503  0.86937380298E+02 -0.58339999495E+02 -0.11614812181E+03  0.15644212935E+03  0.47000000000E+01 0. -1.
<mgrwt>
<rscale>  0 0.17777337E+03</rscale>
<asrwt>0</asrwt>
<pdfrwt beam="1">  1        2 0.83139318E-01 0.18813046E+03</pdfrwt>
<pdfrwt beam="2">  1       -2 0.81638075E-02 0.18813046E+03</pdfrwt>
<totfact> 0.51145846E+03</totfact>
</mgrwt>
</event>
<event>
 8    1  0.2018715E-005  0.2212036E+03  0.7546771E-02  0.1135022E+00
         -2   -1    0    0    0  501 -0.00000000000E+00  0.00000000000E+00  0.94949046865E+02  0.94949046865E+02  0.00000000000E+00 0.  1.
          2   -1    0    0  501    0  0.00000000000E+00 -0.00000000000E+00 -0.60272042592E+03  0.60272042592E+03  0.00000000000E+00 0. -1.
         25    2    1    2    0    0 -0.16080627762E+03  0.86280440295E+02 -0.10866973439E+03  0.24645514517E+03  0.12501221584E+03 0.  0.
         23    2    1    2    0    0  0.16080627762E+03 -0.86280440295E+02 -0.39910164466E+03  0.45121432761E+03  0.10492508456E+03 0.  0.
          5    1    3    3  502    0 -0.97717408530E+02  0.11109242190E+03 -0.98347274287E+02  0.17772027035E+03  0.47000000000E+01 0. -1.
         -5    1    4    4    0  503 -0.12084901528E+02 -0.18297229053E+02 -0.25590417588E+02  0.34026356083E+02  0.47000000000E+01 0.  1.
          5    1    4    4  503    0  0.17289117915E+03 -0.67983211242E+02 -0.37351122708E+03  0.41718797153E+03  0.47000000000E+01 0. -1.
         -5    1    3    3    0  502 -0.63088869091E+02 -0.24811981604E+02 -0.10322460104E+02  0.68734874823E+02  0.47000000000E+01 0. -1.
<mgrwt>
<rscale>  0 0.21847895E+03</rscale>
<asrwt>0</asrwt>
<pdfrwt beam="1">  1        2 0.92726221E-01 0.22120359E+03</pdfrwt>
<pdfrwt beam="2">  1       -2 0.14607545E-01 0.22120359E+03</pdfrwt>
<totfact> 0.17885193E+03</totfact>
</mgrwt>
</event>
<event>
 8    1  0.2018715E-005  0.2373301E+03  0.7546771E-02  0.1122700E+00
         -1   -1    0    0    0  501 -0.00000000000E+00  0.00000000000E+00  0.17815492521E+03  0.17815492521E+03  0.00000000000E+00 0.  1.
          1   -1    0    0  501    0  0.00000000000E+00 -0.00000000000E+00 -0.30757037555E+03  0.30757037555E+03  0.00000000000E+00 0. -1.
         25    2    1    2    0    0  0.79473772469E+02  0.18543180349E+03 -0.63831846356E+02  0.24576428417E+03  0.12499817802E+03 0.  0.
         23    2    1    2    0    0 -0.79473772469E+02 -0.18543180349E+03 -0.65583603976E+02  0.23996101659E+03  0.11215634676E+03 0.  0.
          5    1    3    3  502    0  0.85621304176E+02  0.78108574993E+02  0.81948148161E+01  0.11628070436E+03  0.47000000000E+01 0. -1.
         -5    1    4    4    0  503 -0.34491467463E+02 -0.86660804211E+02  0.27012708329E+02  0.97218993646E+02  0.47000000000E+01 0.  1.
          5    1    4    4  503    0 -0.44982305006E+02 -0.98770999277E+02 -0.92596312305E+02  0.14274202294E+03  0.47000000000E+01 0. -1.
         -5    1    3    3    0  502 -0.61475317069E+01  0.10732322849E+03 -0.72026661173E+02  0.12948357981E+03  0.47000000000E+01 0. -1.
<mgrwt>
<rscale>  0 0.23568679E+03</rscale>
<asrwt>0</asrwt>
<pdfrwt beam="1">  1        1 0.47318519E-01 0.23733011E+03</pdfrwt>
<pdfrwt beam="2">  1       -1 0.27408450E-01 0.23733011E+03</pdfrwt>
<totfact> 0.10121775E+03</totfact>
</mgrwt>
</event>
<event>
 7    1  0.2018715E-005  0.1625531E+03  0.7546771E-02  0.1194507E+00
         -2   -1    0    0    0  501 -0.00000000000E+00  0.00000000000E+00  0.34104851022E+02  0.34104851022E+02  0.00000000000E+00 0.  1.
          2   -1    0    0  501    0  0.00000000000E+00 -0.00000000000E+00 -0.66822818964E+03  0.66822818964E+03  0.00000000000E+00 0. -1.
         25    2    1    2    0    0 -0.38935203499E+02  0.29674237377E+02 -0.35200984828E+03  0.37673893098E+03  0.12499911356E+03 0.  0.
          5    1    3    3  502    0  0.40845570738E+02 -0.13544043431E+02 -0.10693694633E+03  0.11536638268E+03  0.47000000000E+01 0. -1.
         -5    1    3    3    0  502 -0.79780774237E+02  0.43218280808E+02 -0.24507290195E+03  0.26137254830E+03  0.47000000000E+01 0. -1.
          5    1    1    2  503    0  0.21451181398E+02 -0.88500187431E+02 -0.22001184421E+03  0.23815906019E+03  0.47000000000E+01 0. -1.
         -5    1    1    2    0  503  0.17484022101E+02  0.58825950054E+02 -0.62101646125E+02  0.87435049494E+02  0.47000000000E+01 0.  1.
<mgrwt>
<rscale>  0 0.15496001E+03</rscale>
<asrwt>0</asrwt>
<pdfrwt beam="1">  1        2 0.10280433E+00 0.16255308E+03</pdfrwt>
<pdfrwt beam="2">  1       -2 0.52469005E-02 0.16255308E+03</pdfrwt>
<totfact> 0.78367219E+03</totfact>
</mgrwt>
</event>
<event>
 8    1  0.2018715E-005  0.1474279E+03  0.7546771E-02  0.1208844E+00
          2   -1    0    0  501    0  0.00000000000E+00  0.00000000000E+00  0.14645575893E+03  0.14645575893E+03  0.00000000000E+00 0. -1.
         -2   -1    0    0    0  501 -0.00000000000E+00 -0.00000000000E+00 -0.15476162763E+03  0.15476162763E+03  0.00000000000E+00 0.  1.
         25    2    1    2    0    0 -0.55446980304E+02  0.55091208909E+02 -0.60491711305E+02  0.15935567605E+03  0.12500230170E+03 0.  0.
         23    2    1    2    0    0  0.55446980304E+02 -0.55091208909E+02  0.52185842610E+02  0.14186171051E+03  0.10626369942E+03 0.  0.
          5    1    4    4  502    0  0.56732379011E+02  0.15505538820E+02  0.11103709366E+02  0.60036380004E+02  0.47000000000E+01 0.  1.
         -5    1    3    3    0  503 -0.76211318824E+01  0.87893628638E+02 -0.27815050884E+02  0.92623639866E+02  0.47000000000E+01 0. -1.
          5    1    3    3  503    0 -0.47825848422E+02 -0.32802419729E+02 -0.32676660420E+02  0.66732036186E+02  0.47000000000E+01 0. -1.
         -5    1    4    4    0  502 -0.12853987065E+01 -0.70596747729E+02  0.41082133243E+02  0.81825330501E+02  0.47000000000E+01 0. -1.
<mgrwt>
<rscale>  0 0.14338632E+03</rscale>
<asrwt>0</asrwt>
<pdfrwt beam="1">  1        2 0.22531655E-01 0.14742790E+03</pdfrwt>
<pdfrwt beam="2">  1       -2 0.23809481E-01 0.14742790E+03</pdfrwt>
<totfact> 0.36217759E+03</totfact>
</mgrwt>
</event>
<event>
 8    1  0.2018715E-005  0.1358745E+03  0.7546771E-02  0.1225871E+00
         -2   -1    0    0    0  501 -0.00000000000E+00  0.00000000000E+00  0.65298207874E+02  0.65298207874E+02  0.00000000000E+00 0.  1.
          2   -1    0    0  501    0  0.00000000000E+00 -0.00000000000E+00 -0.43074131358E+03  0.43074131358E+03  0.00000000000E+00 0. -1.
         25    2    1    2    0    0 -0.40780398388E+02 -0.34237941806E+02 -0.28080243841E+02  0.13874574879E+03  0.12500642048E+03 0.  0.
         23    2    1    2    0    0  0.40780398388E+02  0.34237941806E+02 -0.33736286187E+03  0.35729377267E+03  0.10492788890E+03 0.  0.
          5    1    4    4  502    0  0.65488233617E+02  0.51438205873E+02 -0.20196615722E+03  0.21851090688E+03  0.47000000000E+01 0. -1.
         -5    1    3    3    0  503 -0.24743924673E+02  0.44376190352E+02  0.61393292599E+01  0.51393476650E+02  0.47000000000E+01 0.  1.
          5    1    3    3  503    0 -0.16036473715E+02 -0.78614132158E+02 -0.34219573101E+02  0.87352272136E+02  0.47000000000E+01 0.  1.
         -5    1    4    4    0  502 -0.24707835229E+02 -0.17200264067E+02 -0.13539670465E+03  0.13878286579E+03  0.47000000000E+01 0.  1.
<mgrwt>
<rscale>  0 0.13107373E+03</rscale>
<asrwt>0</asrwt>
<pdfrwt beam="1">  1        2 0.66267895E-01 0.13587451E+03</pdfrwt>
<pdfrwt beam="2">  1       -2 0.10045878E-01 0.13587451E+03</pdfrwt>
<totfact> 0.46702919E+03</totfact>
</mgrwt>
</event>
<event>
 8    1  0.2018715E-005  0.1611037E+03  0.7546771E-02  0.1199481E+00
         -2   -1    0    0    0  501 -0.00000000000E+00  0.00000000000E+00  0.85077308981E+02  0.85077308981E+02  0.00000000000E+00 0.  1.
          2   -1    0    0  501    0  0.00000000000E+00 -0.00000000000E+00 -0.27086580368E+03  0.27086580368E+03  0.00000000000E+00 0. -1.
         25    2    1    2    0    0  0.90466825556E+02  0.46332638912E+02 -0.16480385778E+03  0.23046626481E+03  0.12499371073E+03 0.  0.
         23    2    1    2    0    0 -0.90466825556E+02 -0.46332638912E+02 -0.20984636911E+02  0.12547684785E+03  0.70520382901E+02 0.  0.
          5    1    4    4  502    0 -0.18543809051E+02 -0.47894323112E+02 -0.71250269877E+01  0.52063375323E+02  0.47000000000E+01 0.  1.
         -5    1    4    4    0  502 -0.71923016505E+02  0.15616842000E+01 -0.13859609923E+02  0.73413472523E+02  0.47000000000E+01 0. -1.
          5    1    3    3  503    0  0.88399117912E+02 -0.22469474859E+02 -0.82562325381E+02  0.12311745985E+03  0.47000000000E+01 0.  1.
         -5    1    3    3    0  503  0.20677076442E+01  0.68802113771E+02 -0.82241532403E+02  0.10734880496E+03  0.47000000000E+01 0.  1.
<mgrwt>
<rscale>  0 0.15080994E+03</rscale>
<asrwt>0</asrwt>
<pdfrwt beam="1">  1        2 0.41671662E-01 0.16110366E+03</pdfrwt>
<pdfrwt beam="2">  1       -2 0.13088817E-01 0.16110366E+03</pdfrwt>
<totfact> 0.50706554E+03</totfact>
</mgrwt>
</event>
<event>
 8    1  0.2018715E-005  0.1329578E+03  0.7546771E-02  0.1245090E+00
          2   -1    0    0  501    0  0.00000000000E+00  0.00000000000E+00  0.50673648316E+03  0.50673648316E+03  0.00000000000E+00 0. -1.
         -2   -1    0    0    0  501 -0.00000000000E+00 -0.00000000000E+00 -0.23755408944E+02  0.23755408944E+02  0.00000000000E+00 0.  1.
         25    2    1    2    0    0  0.30703930999E+01  0.45187545764E+02  0.26171684745E+03  0.29355319767E+03  0.12500571994E+03 0.  0.
         23    2    1    2    0    0 -0.30703930999E+01 -0.45187545764E+02  0.22126422677E+03  0.23693869443E+03  0.71629220760E+02 0.  0.
          5    1    4    4  502    0  0.12067888134E+02 -0.24175486740E+02  0.20313680580E+03  0.20497985256E+03  0.47000000000E+01 0. -1.
         -5    1    3    3    0  503 -0.47945163941E+02  0.61409552668E+02  0.17366371930E+03  0.19039708323E+03  0.47000000000E+01 0. -1.
          5    1    3    3  503    0  0.51015557041E+02 -0.16222006904E+02  0.88053128151E+02  0.10315611444E+03  0.47000000000E+01 0. -1.
         -5    1    4    4    0  502 -0.15138281234E+02 -0.21012059024E+02  0.18127420965E+02  0.31958841875E+02  0.47000000000E+01 0.  1.
<mgrwt>
<rscale>  0 0.11880006E+03</rscale>
<asrwt>0</asrwt>
<pdfrwt beam="1">  1        2 0.77959451E-01 0.13295778E+03</pdfrwt>
<pdfrwt beam="2">  1       -2 0.36546787E-02 0.13295778E+03</pdfrwt>
<totfact> 0.18170504E+04</totfact>
</mgrwt>
</event>
<event>
 8    1  0.2018715E-005  0.2037189E+03  0.7546771E-02  0.1148150E+00
         -2   -1    0    0    0  501 -0.00000000000E+00  0.00000000000E+00  0.75914934302E+02  0.75914934302E+02  0.00000000000E+00 0.  1.
          2   -1    0    0  501    0  0.00000000000E+00 -0.00000000000E+00 -0.64421088288E+03  0.64421088288E+03  0.00000000000E+00 0. -1.
         25    2    1    2    0    0  0.34850300050E+01 -0.16082404597E+03 -0.44155048493E+03  0.48627997983E+03  0.12499947539E+03 0.  0.
         23    2    1    2    0    0 -0.34850300050E+01  0.16082404597E+03 -0.12674546365E+03  0.23384583735E+03  0.11288464862E+03 0.  0.
          5    1    3    3  502    0  0.45133925436E+02 -0.47114797090E+02 -0.25923826907E+03  0.26736388215E+03  0.47000000000E+01 0.  1.
         -5    1    4    4    0  503 -0.37449190963E+02  0.12116673280E+02 -0.79007861703E+01  0.40419897294E+02  0.47000000000E+01 0.  1.
          5    1    4    4  503    0  0.33964160958E+02  0.14870737269E+03 -0.11884467748E+03  0.19342594006E+03  0.47000000000E+01 0. -1.
         -5    1    3    3    0  502 -0.41648895431E+02 -0.11370924888E+03 -0.18231221586E+03  0.21891609768E+03  0.47000000000E+01 0.  1.
<mgrwt>
<rscale>  0 0.20189440E+03</rscale>
<asrwt>0</asrwt>
<pdfrwt beam="1">  1        2 0.99109372E-01 0.20371889E+03</pdfrwt>
<pdfrwt beam="2">  1       -2 0.11679220E-01 0.20371889E+03</pdfrwt>
<totfact> 0.23773907E+03</totfact>
</mgrwt>
</event>
<event>
 8    1  0.2018715E-005  0.1372676E+03  0.7546771E-02  0.1217677E+00
          4   -1    0    0  501    0  0.00000000000E+00  0.00000000000E+00  0.81775261823E+03  0.81775261823E+03  0.00000000000E+00 0. -1.
         -4   -1    0    0    0  501 -0.00000000000E+00 -0.00000000000E+00 -0.22918110939E+02  0.22918110939E+02  0.00000000000E+00 0.  1.
         25    2    1    2    0    0 -0.31967939775E+00  0.56715219199E+02  0.43686363283E+03  0.45792164648E+03  0.12500272934E+03 0.  0.
         23    2    1    2    0    0  0.31967939775E+00 -0.56715219199E+02  0.35797087446E+03  0.38274908268E+03  0.12303249592E+03 0.  0.
          5    1    3    3  502    0  0.56945924554E+02  0.39769410397E+02  0.15738059694E+03  0.17209063490E+03  0.47000000000E+01 0. -1.
         -5    1    3    3    0  502 -0.57265603952E+02  0.16945808802E+02  0.27948303589E+03  0.28583101158E+03  0.47000000000E+01 0. -1.
          5    1    4    4  503    0  0.45367763802E+02 -0.26083542625E+02  0.29371538911E+03  0.29837795661E+03  0.47000000000E+01 0. -1.
         -5    1    4    4    0  503 -0.45048084404E+02 -0.30631676575E+02  0.64255485340E+02  0.84371126071E+02  0.47000000000E+01 0.  1.
<mgrwt>
<rscale>  0 0.13681748E+03</rscale>
<asrwt>0</asrwt>
<pdfrwt beam="1">  1        4 0.12580807E+00 0.13726762E+03</pdfrwt>
<pdfrwt beam="2">  1       -4 0.35258639E-02 0.13726762E+03</pdfrwt>
<totfact> 0.34532195E+02</totfact>
</mgrwt>
</event>
<event>
 8    1  0.2018715E-005  0.2206716E+03  0.7546771E-02  0.1138074E+00
          1   -1    0    0  501    0  0.00000000000E+00  0.00000000000E+00  0.61497074143E+03  0.61497074143E+03  0.00000000000E+00 0. -1.
         -1   -1    0    0    0  501 -0.00000000000E+00 -0.00000000000E+00 -0.76806844340E+02  0.76806844340E+02  0.00000000000E+00 0.  1.
         25    2    1    2    0    0  0.12439789199E+03  0.13265266729E+03  0.37915521497E+03  0.43869651487E+03  0.12499755775E+03 0.  0.
         23    2    1    2    0    0 -0.12439789199E+03 -0.13265266729E+03  0.15900868212E+03  0.25308107091E+03  0.75463247934E+02 0.  0.
          5    1    3    3  502    0 -0.24174846939E+02  0.19004664066E+02  0.33990751239E+02  0.46076693138E+02  0.47000000000E+01 0. -1.
         -5    1    4    4    0  503 -0.32052248486E+02 -0.86340020606E+02  0.89276619933E+02  0.12835244703E+03  0.47000000000E+01 0.  1.
          5    1    4    4  503    0 -0.92345643504E+02 -0.46312646688E+02  0.69732062190E+02  0.12472862388E+03  0.47000000000E+01 0. -1.
         -5    1    3    3    0  502  0.14857273893E+03  0.11364800323E+03  0.34516446373E+03  0.39261982173E+03  0.47000000000E+01 0. -1.
<mgrwt>
<rscale>  0 0.21447001E+03</rscale>
<asrwt>0</asrwt>
<pdfrwt beam="1">  1        1 0.94610880E-01 0.22067160E+03</pdfrwt>
<pdfrwt beam="2">  1       -1 0.11816438E-01 0.22067160E+03</pdfrwt>
<totfact> 0.15901415E+03</totfact>
</mgrwt>
</event>
<event>
 8    1  0.2018715E-005  0.1255959E+03  0.7546771E-02  0.1242025E+00
          2   -1    0    0  501    0  0.00000000000E+00  0.00000000000E+00  0.19665813157E+03  0.19665813157E+03  0.00000000000E+00 0. -1.
         -2   -1    0    0    0  501 -0.00000000000E+00 -0.00000000000E+00 -0.71010630157E+02  0.71010630157E+02  0.00000000000E+00 0.  1.
         25    2    1    2    0    0  0.11978128954E+02  0.21825524104E+01  0.43897489615E+02  0.13304626760E+03  0.12500432240E+03 0.  0.
         23    2    1    2    0    0 -0.11978128954E+02 -0.21825524104E+01  0.81750011802E+02  0.13462249413E+03  0.10626341039E+03 0.  0.
          5    1    4    4  502    0  0.70660695594E+01  0.48227372610E+02  0.21001899286E+02  0.53282066228E+02  0.47000000000E+01 0. -1.
         -5    1    4    4    0  502 -0.19044198513E+02 -0.50409925020E+02  0.60748112516E+02  0.81340427905E+02  0.47000000000E+01 0.  1.
          5    1    3    3  503    0  0.46811659755E+02  0.43830422344E+02  0.45091894706E+02  0.78535382982E+02  0.47000000000E+01 0.  1.
         -5    1    3    3    0  503 -0.34833530802E+02 -0.41647869934E+02 -0.11944050915E+01  0.54510884616E+02  0.47000000000E+01 0.  1.
<mgrwt>
<rscale>  0 0.12065226E+03</rscale>
<asrwt>0</asrwt>
<pdfrwt beam="1">  1        2 0.30255097E-01 0.12559586E+03</pdfrwt>
<pdfrwt beam="2">  1       -2 0.10924712E-01 0.12559586E+03</pdfrwt>
<totfact> 0.93835072E+03</totfact>
</mgrwt>
</event>
<event>
 7    1  0.2018715E-005  0.1888187E+03  0.7546771E-02  0.1167419E+00
          1   -1    0    0  501    0  0.00000000000E+00  0.00000000000E+00  0.31416448865E+03  0.31416448865E+03  0.00000000000E+00 0. -1.
         -1   -1    0    0    0  501 -0.00000000000E+00 -0.00000000000E+00 -0.96560454011E+02  0.96560454011E+02  0.00000000000E+00 0.  1.
         25    2    1    2    0    0 -0.66732606881E+02 -0.68383258713E+02  0.76061716292E+02  0.17474458661E+03  0.12498309874E+03 0.  0.
          5    1    1    2  502    0  0.19379175378E+02  0.64316448218E+02  0.16827533858E+03  0.18124800006E+03  0.47000000000E+01 0. -1.
         -5    1    3    3    0  503 -0.81558067608E+02 -0.79577420274E+01  0.76710836933E+02  0.11234627966E+03  0.47000000000E+01 0. -1.
          5    1    3    3  503    0  0.14825460726E+02 -0.60425516686E+02 -0.64912064132E+00  0.62398306949E+02  0.47000000000E+01 0. -1.
         -5    1    1    2    0  502  0.47353431504E+02  0.40668104949E+01 -0.26733020231E+02  0.54732356001E+02  0.47000000000E+01 0.  1.
<mgrwt>
<rscale>  0 0.18039782E+03</rscale>
<asrwt>0</asrwt>
<pdfrwt beam="1">  1        1 0.48332998E-01 0.18881870E+03</pdfrwt>
<pdfrwt beam="2">  1       -1 0.14855455E-01 0.18881870E+03</pdfrwt>
<totfact> 0.26556993E+03</totfact>
</mgrwt>
</event>
<event>
 8    1  0.2018715E-005  0.1395227E+03  0.7546771E-02  0.1214302E+00
          1   -1    0    0  501    0  0.00000000000E+00  0.00000000000E+00  0.46294657542E+03  0.46294657542E+03  0.00000000000E+00 0. -1.
         -1   -1    0    0    0  501 -0.00000000000E+00 -0.00000000000E+00 -0.45249941404E+02  0.45249941404E+02  0.00000000000E+00 0.  1.
         25    2    1    2    0    0  0.61829237177E+02 -0.45763704361E+01  0.28011309865E+03  0.31293756509E+03  0.12499109517E+03 0.  0.
         23    2    1    2    0    0 -0.61829237177E+02  0.45763704361E+01  0.13758353536E+03  0.19525895172E+03  0.12390734963E+03 0.  0.
          5    1    3    3  502    0  0.29675169555E+02  0.52921280227E+02  0.20030675860E+03  0.20934699695E+03  0.47000000000E+01 0. -1.
         -5    1    3    3    0  502  0.32154067622E+02 -0.57497650664E+02  0.79806340052E+02  0.10359056815E+03  0.47000000000E+01 0. -1.
          5    1    4    4  503    0 -0.43222630426E+02 -0.39557953140E+02  0.13479294526E+03  0.14705188040E+03  0.47000000000E+01 0. -1.
         -5    1    4    4    0  503 -0.18606606751E+02  0.44134323576E+02  0.27905900934E+01  0.48207071321E+02  0.47000000000E+01 0.  1.
<mgrwt>
<rscale>  0 0.13927951E+03</rscale>
<asrwt>0</asrwt>
<pdfrwt beam="1">  1        1 0.71222547E-01 0.13952266E+03</pdfrwt>
<pdfrwt beam="2">  1       -1 0.69615298E-02 0.13952266E+03</pdfrwt>
<totfact> 0.51407670E+03</totfact>
</mgrwt>
</event>
<event>
 7    1  0.2018715E-005  0.1433760E+03  0.7546771E-02  0.1233547E+00
          2   -1    0    0  501    0  0.00000000000E+00  0.00000000000E+00  0.57243206717E+03  0.57243206717E+03  0.00000000000E+00 0. -1.
         -2   -1    0    0    0  501 -0.00000000000E+00 -0.00000000000E+00 -0.23029950519E+02  0.23029950519E+02  0.00000000000E+00 0.  1.
         25    2    1    2    0    0 -0.46685589016E+02  0.52461445142E+02  0.36774253212E+03  0.39470401504E+03  0.12499976844E+03 0.  0.
          5    1    1    2  502    0  0.23565140665E+02 -0.49179711204E+02  0.84184371290E+02  0.10041443232E+03  0.47000000000E+01 0.  1.
         -5    1    1    2    0  502  0.23120448351E+02 -0.32817339378E+01  0.97475213244E+02  0.10034357033E+03  0.47000000000E+01 0. -1.
          5    1    3    3  503    0  0.26386874931E+02  0.31994100298E+02  0.38450839561E+02  0.56748979599E+02  0.47000000000E+01 0. -1.
         -5    1    3    3    0  503 -0.73072463947E+02  0.20467344843E+02  0.32929169255E+03  0.33795503544E+03  0.47000000000E+01 0. -1.
<mgrwt>
<rscale>  0 0.12597935E+03</rscale>
<asrwt>0</asrwt>
<pdfrwt beam="1">  1        2 0.88066461E-01 0.14337604E+03</pdfrwt>
<pdfrwt beam="2">  1       -2 0.35430697E-02 0.14337604E+03</pdfrwt>
<totfact> 0.16711310E+04</totfact>
</mgrwt>
</event>
<event>
 8    1  0.2018715E-005  0.1251954E+03  0.7546771E-02  0.1268363E+00
          1   -1    0    0  501    0  0.00000000000E+00  0.00000000000E+00  0.20377708290E+03  0.20377708290E+03  0.00000000000E+00 0. -1.
         -1   -1    0    0    0  501 -0.00000000000E+00 -0.00000000000E+00 -0.46652706717E+02  0.46652706717E+02  0.00000000000E+00 0.  1.
         25    2    1    2    0    0 -0.68345048524E+01  0.23803305455E+00  0.73861662294E+02  0.14535963031E+03  0.12500843912E+03 0.  0.
         23    2    1    2    0    0  0.68345048524E+01 -0.23803305455E+00  0.83262713891E+02  0.10507015930E+03  0.63720418512E+02 0.  0.
          5    1    4    4  502    0  0.34548273703E+02 -0.52425667270E+01  0.41122343659E+02  0.54168301337E+02  0.47000000000E+01 0. -1.
         -5    1    3    3    0  503  0.24058847172E+02  0.55440134348E+02  0.26306045641E+02  0.66079759844E+02  0.47000000000E+01 0. -1.
          5    1    3    3  503    0 -0.30893352024E+02 -0.55202101294E+02  0.47555616653E+02  0.79279870470E+02  0.47000000000E+01 0. -1.
         -5    1    4    4    0  502 -0.27713768851E+02  0.50045336725E+01  0.42140370232E+02  0.50901857967E+02  0.47000000000E+01 0.  1.
<mgrwt>
<rscale>  0 0.10589672E+03</rscale>
<asrwt>0</asrwt>
<pdfrwt beam="1">  1        1 0.31350320E-01 0.12519536E+03</pdfrwt>
<pdfrwt beam="2">  1       -1 0.71773396E-02 0.12519536E+03</pdfrwt>
<totfact> 0.13548909E+04</totfact>
</mgrwt>
</event>
<event>
 8    1  0.2018715E-005  0.1251773E+03  0.7546771E-02  0.1237361E+00
         -1   -1    0    0    0  501 -0.00000000000E+00  0.00000000000E+00  0.37727151522E+03  0.37727151522E+03  0.00000000000E+00 0.  1.
          1   -1    0    0  501    0  0.00000000000E+00 -0.00000000000E+00 -0.39804281983E+02  0.39804281983E+02  0.00000000000E+00 0. -1.
         25    2    1    2    0    0 -0.65287821054E+01 -0.38463199243E+00  0.15307987409E+03  0.19774429605E+03  0.12500634317E+03 0.  0.
         23    2    1    2    0    0  0.65287821054E+01  0.38463199243E+00  0.18438735914E+03  0.21933150115E+03  0.11859526233E+03 0.  0.
          5    1    3    3  502    0  0.48101756213E+02  0.29668087138E+02  0.43090859605E+02  0.71224199025E+02  0.47000000000E+01 0.  1.
         -5    1    4    4    0  503  0.47672063167E+02 -0.11479661281E+02  0.16481091046E+03  0.17201492504E+03  0.47000000000E+01 0.  1.
          5    1    4    4  503    0 -0.41143281061E+02  0.11864293274E+02  0.19576448678E+02  0.47316576104E+02  0.47000000000E+01 0. -1.
         -5    1    3    3    0  502 -0.54630538318E+02 -0.30052719131E+02  0.10998901449E+03  0.12652009703E+03  0.47000000000E+01 0.  1.
<mgrwt>
<rscale>  0 0.12354520E+03</rscale>
<asrwt>0</asrwt>
<pdfrwt beam="1">  1        1 0.61237359E-02 0.12517731E+03</pdfrwt>
<pdfrwt beam="2">  1       -1 0.58041769E-01 0.12517731E+03</pdfrwt>
<totfact> 0.37167576E+03</totfact>
</mgrwt>
</event>
<event>
 8    1  0.2018715E-005  0.1429800E+03  0.7546771E-02  0.1225978E+00
         -2   -1    0    0    0  501 -0.00000000000E+00  0.00000000000E+00  0.36068594186E+02  0.36068594186E+02  0.00000000000E+00 0.  1.
          2   -1    0    0  501    0  0.00000000000E+00 -0.00000000000E+00 -0.74265089331E+03  0.74265089331E+03  0.00000000000E+00 0. -1.
         25    2    1    2    0    0 -0.69029824427E+02  0.72101940798E+01 -0.64494945033E+03  0.66060811922E+03  0.12500476048E+03 0.  0.
         23    2    1    2    0    0  0.69029824427E+02 -0.72101940798E+01 -0.61632848791E+02  0.11811136827E+03  0.73038234549E+02 0.  0.
          5    1    4    4  502    0  0.65493846649E+02  0.19855233740E+02 -0.58652185608E+02  0.90254324729E+02  0.47000000000E+01 0. -1.
         -5    1    4    4    0  502  0.35359777775E+01 -0.27065427820E+02 -0.29806631838E+01  0.27857043543E+02  0.47000000000E+01 0.  1.
          5    1    3    3  503    0  0.18438827034E+02 -0.37232641932E+02 -0.13660726289E+03  0.14286320115E+03  0.47000000000E+01 0. -1.
         -5    1    3    3    0  503 -0.87468651461E+02  0.44442836012E+02 -0.50834218743E+03  0.51774491807E+03  0.47000000000E+01 0. -1.
<mgrwt>
<rscale>  0 0.13100077E+03</rscale>
<asrwt>0</asrwt>
<pdfrwt beam="1">  1        2 0.11425398E+00 0.14298005E+03</pdfrwt>
<pdfrwt beam="2">  1       -2 0.55490147E-02 0.14298005E+03</pdfrwt>
<totfact> 0.63046949E+03</totfact>
</mgrwt>
</event>
<event>
 8    1  0.2018715E-005  0.1706071E+03  0.7546771E-02  0.1185983E+00
         -1   -1    0    0    0  501 -0.00000000000E+00  0.00000000000E+00  0.19294811161E+02  0.19294811161E+02  0.00000000000E+00 0.  1.
          1   -1    0    0  501    0  0.00000000000E+00 -0.00000000000E+00 -0.12555598945E+04  0.12555598945E+04  0.00000000000E+00 0. -1.
         25    2    1    2    0    0  0.34672742453E+02  0.11081418069E+03 -0.71505715939E+03  0.73512823507E+03  0.12499919638E+03 0.  0.
         23    2    1    2    0    0 -0.34672742453E+02 -0.11081418069E+03 -0.52120792395E+03  0.53972647059E+03  0.78517395227E+02 0.  0.
          5    1    3    3  502    0  0.62703719080E+02  0.10290591959E+03 -0.67321511779E+03  0.68393133390E+03  0.47000000000E+01 0.  1.
         -5    1    4    4    0  503 -0.50959940488E+02 -0.35899512486E+02 -0.26364721983E+03  0.27095689151E+03  0.47000000000E+01 0.  1.
          5    1    4    4  503    0  0.16287198035E+02 -0.74914668207E+02 -0.25756070412E+03  0.26876957908E+03  0.47000000000E+01 0. -1.
         -5    1    3    3    0  502 -0.28030976627E+02  0.79082610987E+01 -0.41842041603E+02  0.51196901173E+02  0.47000000000E+01 0.  1.
<mgrwt>
<rscale>  0 0.16242757E+03</rscale>
<asrwt>0</asrwt>
<pdfrwt beam="1">  1        1 0.19316306E+00 0.17060709E+03</pdfrwt>
<pdfrwt beam="2">  1       -1 0.29684325E-02 0.17060709E+03</pdfrwt>
<totfact> 0.39735397E+03</totfact>
</mgrwt>
</event>
<event>
 8    1  0.2018715E-005  0.1740199E+03  0.7546771E-02  0.1174849E+00
          2   -1    0    0  501    0  0.00000000000E+00  0.00000000000E+00  0.13148324171E+03  0.13148324171E+03  0.00000000000E+00 0.  1.
         -2   -1    0    0    0  501 -0.00000000000E+00 -0.00000000000E+00 -0.46068362570E+03  0.46068362570E+03  0.00000000000E+00 0. -1.
         25    2    1    2    0    0  0.87549444125E+02 -0.83609467254E+02  0.46353537590E+02  0.18008764359E+03  0.12500984259E+03 0.  0.
         23    2    1    2    0    0 -0.87549444125E+02  0.83609467254E+02 -0.37555392158E+03  0.41207922381E+03  0.11879852905E+03 0.  0.
          5    1    4    4  502    0  0.13771298392E+02  0.38200450142E+02 -0.20127075318E+03  0.20537996284E+03  0.47000000000E+01 0. -1.
         -5    1    3    3    0  503  0.60542099907E+02 -0.11629957142E+03  0.38264908305E+02  0.13666466032E+03  0.47000000000E+01 0.  1.
          5    1    3    3  503    0  0.27007344218E+02  0.32690104164E+02  0.80886292852E+01  0.43422983266E+02  0.47000000000E+01 0.  1.
         -5    1    4    4    0  502 -0.10132074252E+03  0.45409017112E+02 -0.17428316840E+03  0.20669926097E+03  0.47000000000E+01 0.  1.
<mgrwt>
<rscale>  0 0.17290750E+03</rscale>
<asrwt>0</asrwt>
<pdfrwt beam="1">  1        2 0.20228191E-01 0.17401985E+03</pdfrwt>
<pdfrwt beam="2">  1       -2 0.70874404E-01 0.17401985E+03</pdfrwt>
<totfact> 0.50749663E+02</totfact>
</mgrwt>
</event>
<event>
 7    1  0.2018715E-005  0.1617474E+03  0.7546771E-02  0.1189095E+00
         -1   -1    0    0    0  501 -0.00000000000E+00  0.00000000000E+00  0.29580539500E+03  0.29580539500E+03  0.00000000000E+00 0.  1.
          1   -1    0    0  501    0  0.00000000000E+00 -0.00000000000E+00 -0.84438931394E+02  0.84438931394E+02  0.00000000000E+00 0. -1.
         25    2    1    2    0    0 -0.80934700634E+02 -0.37286519255E+02  0.11668674872E+03  0.19282376813E+03  0.12499799176E+03 0.  0.
          5    1    3    3  502    0  0.23135578312E+02 -0.42223165211E+02  0.27819560467E+02  0.55803840449E+02  0.47000000000E+01 0.  1.
         -5    1    3    3    0  502 -0.10407027895E+03  0.49366459557E+01  0.88867188252E+02  0.13701992768E+03  0.47000000000E+01 0.  1.
          5    1    1    2  503    0 -0.65365044458E+01 -0.36693515788E+02  0.53956292567E+02  0.65745809743E+02  0.47000000000E+01 0. -1.
         -5    1    1    2    0  503  0.87471205080E+02  0.73980035043E+02  0.40723422322E+02  0.12167474853E+03  0.47000000000E+01 0.  1.
<mgrwt>
<rscale>  0 0.15964741E+03</rscale>
<asrwt>0</asrwt>
<pdfrwt beam="1">  1        1 0.12990605E-01 0.16174739E+03</pdfrwt>
<pdfrwt beam="2">  1       -1 0.45508522E-01 0.16174739E+03</pdfrwt>
<totfact> 0.21585270E+03</totfact>
</mgrwt>
</event>
<event>
 7    1  0.2018715E-005  0.4614063E+03  0.7546771E-02  0.1024540E+00
         -2   -1    0    0    0  501 -0.00000000000E+00  0.00000000000E+00  0.80417640255E+03  0.80417640255E+03  0.00000000000E+00 0.  1.
          2   -1    0    0  501    0  0.00000000000E+00 -0.00000000000E+00 -0.26371747881E+03  0.26371747881E+03  0.00000000000E+00 0. -1.
         25    2    1    2    0    0 -0.10826865963E+03  0.42829915796E+03  0.28735528441E+03  0.54162664027E+03  0.12499634635E+03 0.  0.
          5    1    1    2  502    0  0.65072301631E+02 -0.19316620489E+03  0.43911256505E+02  0.20856144322E+03  0.47000000000E+01 0. -1.
         -5    1    1    2    0  502  0.43196357997E+02 -0.23513295308E+03  0.20919238283E+03  0.31770579787E+03  0.47000000000E+01 0.  1.
          5    1    3    3  503    0 -0.10372000453E+03  0.19973271884E+03  0.10136555981E+03  0.24687661904E+03  0.47000000000E+01 0.  1.
         -5    1    3    3    0  503 -0.45486551020E+01  0.22856643913E+03  0.18598972460E+03  0.29475002123E+03  0.47000000000E+01 0.  1.
<mgrwt>
<rscale>  0 0.46083233E+03</rscale>
<asrwt>0</asrwt>
<pdfrwt beam="1">  1        2 0.40571920E-01 0.46140628E+03</pdfrwt>
<pdfrwt beam="2">  1       -2 0.12371945E+00 0.46140628E+03</pdfrwt>
<totfact> 0.64173273E+01</totfact>
</mgrwt>
</event>
<event>
 8    1  0.2018715E-005  0.3368457E+03  0.7546771E-02  0.1069951E+00
         -2   -1    0    0    0  501 -0.00000000000E+00  0.00000000000E+00  0.61213684726E+02  0.61213684726E+02  0.00000000000E+00 0.  1.
          2   -1    0    0  501    0  0.00000000000E+00 -0.00000000000E+00 -0.20343730082E+04  0.20343730082E+04  0.00000000000E+00 0. -1.
         25    2    1    2    0    0  0.22259554358E+03  0.21974389059E+03 -0.62661531295E+03  0.71141535415E+03  0.12501560795E+03 0.  0.
         23    2    1    2    0    0 -0.22259554358E+03 -0.21974389059E+03 -0.13465440106E+04  0.13841713388E+04  0.70095430155E+02 0.  0.
          5    1    3    3  502    0  0.16138910927E+03  0.91959160321E+02 -0.27097494560E+03  0.32856117071E+03  0.47000000000E+01 0.  1.
         -5    1    3    3    0  502  0.61206434310E+02  0.12778473027E+03 -0.35564036734E+03  0.38285418344E+03  0.47000000000E+01 0.  1.
          5    1    4    4  503    0 -0.11696494309E+03 -0.12931159395E+03 -0.60294552692E+03  0.62766845124E+03  0.47000000000E+01 0. -1.
         -5    1    4    4    0  503 -0.10563060049E+03 -0.90432296640E+02 -0.74359848363E+03  0.75650288756E+03  0.47000000000E+01 0.  1.
<mgrwt>
<rscale>  0 0.33269462E+03</rscale>
<asrwt>0</asrwt>
<pdfrwt beam="1">  1        2 0.31298039E+00 0.33684574E+03</pdfrwt>
<pdfrwt beam="2">  1       -2 0.94174921E-02 0.33684574E+03</pdfrwt>
<totfact> 0.51587835E+02</totfact>
</mgrwt>
</event>
<event>
 7    1  0.2018715E-005  0.1475726E+03  0.7546771E-02  0.1229826E+00
          2   -1    0    0  501    0  0.00000000000E+00  0.00000000000E+00  0.99317747554E+02  0.99317747554E+02  0.00000000000E+00 0. -1.
         -2   -1    0    0    0  501 -0.00000000000E+00 -0.00000000000E+00 -0.14351165948E+03  0.14351165948E+03  0.00000000000E+00 0.  1.
         25    2    1    2    0    0  0.71075917308E+02 -0.33187159657E+02 -0.44747804375E+00  0.14757326548E+03  0.12499797943E+03 0.  0.
          5    1    3    3  502    0  0.11740597677E+02  0.39396160839E+02 -0.27744659789E+02  0.49817218604E+02  0.47000000000E+01 0. -1.
         -5    1    1    2    0  503 -0.49763075515E+02  0.27281695031E+02 -0.45047909173E+02  0.72608943590E+02  0.47000000000E+01 0.  1.
          5    1    1    2  503    0 -0.21312841794E+02  0.59054646265E+01  0.13014752860E+01  0.22647197966E+02  0.47000000000E+01 0. -1.
         -5    1    3    3    0  502  0.59335319631E+02 -0.72583320496E+02  0.27297181745E+02  0.97756046878E+02  0.47000000000E+01 0. -1.
<mgrwt>
<rscale>  0 0.12841574E+03</rscale>
<asrwt>0</asrwt>
<pdfrwt beam="1">  1        2 0.15279653E-01 0.14757259E+03</pdfrwt>
<pdfrwt beam="2">  1       -2 0.22078717E-01 0.14757259E+03</pdfrwt>
<totfact> 0.64347322E+03</totfact>
</mgrwt>
</event>
<event>
 8    1  0.2018715E-005  0.1645366E+03  0.7546771E-02  0.1186884E+00
         -2   -1    0    0    0  501 -0.00000000000E+00  0.00000000000E+00  0.51597542410E+03  0.51597542410E+03  0.00000000000E+00 0. -1.
          2   -1    0    0  501    0  0.00000000000E+00 -0.00000000000E+00 -0.49173719643E+02  0.49173719643E+02  0.00000000000E+00 0.  1.
         25    2    1    2    0    0  0.95750278786E+02 -0.47746184167E+02  0.22079948545E+03  0.27536287235E+03  0.12499793880E+03 0.  0.
         23    2    1    2    0    0 -0.95750278786E+02  0.47746184167E+02  0.24600221901E+03  0.28978627140E+03  0.10959551697E+03 0.  0.
          5    1    4    4  502    0 -0.13978254564E+01  0.57655952166E+02  0.10220825811E+03  0.11745118459E+03  0.47000000000E+01 0. -1.
         -5    1    3    3    0  503  0.59898885838E+02 -0.37201686061E+02  0.23458282330E+02  0.74459539217E+02  0.47000000000E+01 0. -1.
          5    1    3    3  503    0  0.35851392948E+02 -0.10544498106E+02  0.19734120312E+03  0.20090333313E+03  0.47000000000E+01 0. -1.
         -5    1    4    4    0  502 -0.94352453330E+02 -0.99097679991E+01  0.14379396090E+03  0.17233508680E+03  0.47000000000E+01 0.  1.
<mgrwt>
<rscale>  0 0.16161646E+03</rscale>
<asrwt>0</asrwt>
<pdfrwt beam="1">  1        2 0.75651880E-02 0.16453662E+03</pdfrwt>
<pdfrwt beam="2">  1       -2 0.79380831E-01 0.16453662E+03</pdfrwt>
<totfact> 0.12961577E+03</totfact>
</mgrwt>
</event>
<event>
 8    1  0.2018715E-005  0.1497684E+03  0.7546771E-02  0.1204908E+00
          1   -1    0    0  501    0  0.00000000000E+00  0.00000000000E+00  0.67745756008E+02  0.67745756008E+02  0.00000000000E+00 0. -1.
         -1   -1    0    0    0  501 -0.00000000000E+00 -0.00000000000E+00 -0.34448362893E+03  0.34448362893E+03  0.00000000000E+00 0.  1.
         25    2    1    2    0    0 -0.82504579442E+02 -0.11376418611E+01 -0.21503022031E+03  0.26204686910E+03  0.12498906393E+03 0.  0.
         23    2    1    2    0    0  0.82504579442E+02  0.11376418611E+01 -0.61707652614E+02  0.15018251584E+03  0.10926414698E+03 0.  0.
          5    1    3    3  502    0 -0.66989013383E+02 -0.43897879985E+02 -0.59366552653E+02  0.99804956566E+02  0.47000000000E+01 0. -1.
         -5    1    4    4    0  503  0.48856004432E+02 -0.46832612251E+02 -0.61247177490E+02  0.91397535469E+02  0.47000000000E+01 0.  1.
          5    1    4    4  503    0  0.33648575010E+02  0.47970254112E+02 -0.46047512463E+00  0.58784980370E+02  0.47000000000E+01 0. -1.
         -5    1    3    3    0  502 -0.15515566059E+02  0.42760238124E+02 -0.15566366766E+03  0.16224191254E+03  0.47000000000E+01 0. -1.
<mgrwt>
<rscale>  0 0.14644732E+03</rscale>
<asrwt>0</asrwt>
<pdfrwt beam="1">  1        1 0.10422424E-01 0.14976837E+03</pdfrwt>
<pdfrwt beam="2">  1       -1 0.52997480E-01 0.14976837E+03</pdfrwt>
<totfact> 0.21788050E+03</totfact>
</mgrwt>
</event>
<event>
 8    1  0.2018715E-005  0.1358561E+03  0.7546771E-02  0.1236431E+00
         -1   -1    0    0    0  501 -0.00000000000E+00  0.00000000000E+00  0.20310992440E+03  0.20310992440E+03  0.00000000000E+00 0.  1.
          1   -1    0    0  501    0  0.00000000000E+00 -0.00000000000E+00 -0.67232855939E+02  0.67232855939E+02  0.00000000000E+00 0. -1.
         25    2    1    2    0    0  0.50604754762E+02 -0.16465978104E+02  0.57906141535E+02  0.14768209837E+03  0.12499964524E+03 0.  0.
         23    2    1    2    0    0 -0.50604754762E+02  0.16465978104E+02  0.77970926924E+02  0.12266068197E+03  0.78321183701E+02 0.  0.
          5    1    3    3  502    0 -0.20335286044E+02 -0.50276852217E+02  0.38274131132E+02  0.66545359277E+02  0.47000000000E+01 0. -1.
         -5    1    4    4    0  503 -0.20627399807E+02 -0.45334125905E+01  0.82676356742E+02  0.85460583994E+02  0.47000000000E+01 0.  1.
          5    1    4    4  503    0 -0.29977354955E+02  0.20999390695E+02 -0.47054298171E+01  0.37200097976E+02  0.47000000000E+01 0. -1.
         -5    1    3    3    0  502  0.70940040806E+02  0.33810874113E+02  0.19632010403E+02  0.81136739091E+02  0.47000000000E+01 0. -1.
<mgrwt>
<rscale>  0 0.12413244E+03</rscale>
<asrwt>0</asrwt>
<pdfrwt beam="1">  1        1 0.10343516E-01 0.13585610E+03</pdfrwt>
<pdfrwt beam="2">  1       -1 0.31247680E-01 0.13585610E+03</pdfrwt>
<totfact> 0.55569351E+03</totfact>
</mgrwt>
</event>
<event>
 8    1  0.2018715E-005  0.1682578E+03  0.7546771E-02  0.1192667E+00
         -1   -1    0    0    0  501 -0.00000000000E+00  0.00000000000E+00  0.13020563147E+03  0.13020563147E+03  0.00000000000E+00 0.  1.
          1   -1    0    0  501    0  0.00000000000E+00 -0.00000000000E+00 -0.16629593952E+03  0.16629593952E+03  0.00000000000E+00 0. -1.
         25    2    1    2    0    0  0.91643583645E+02 -0.65480621738E+02 -0.21092592745E+02  0.16957469342E+03  0.12499768371E+03 0.  0.
         23    2    1    2    0    0 -0.91643583645E+02  0.65480621738E+02 -0.14997715298E+02  0.12692687757E+03  0.56561847033E+02 0.  0.
          5    1    4    4  502    0 -0.26749064549E+02  0.20822701707E+02 -0.31262561127E+02  0.46352293243E+02  0.47000000000E+01 0. -1.
         -5    1    3    3    0  503  0.87045301300E+02  0.12464852384E+02 -0.24091737277E+02  0.91294900342E+02  0.47000000000E+01 0. -1.
          5    1    3    3  503    0  0.45982823449E+01 -0.77945474121E+02  0.29991445320E+01  0.78279793079E+02  0.47000000000E+01 0. -1.
         -5    1    4    4    0  502 -0.64894519096E+02  0.44657920030E+02  0.16264845829E+02  0.80574584330E+02  0.47000000000E+01 0.  1.
<mgrwt>
<rscale>  0 0.15653320E+03</rscale>
<asrwt>0</asrwt>
<pdfrwt beam="1">  1        1 0.25583990E-01 0.16825778E+03</pdfrwt>
<pdfrwt beam="2">  1       -1 0.20031636E-01 0.16825778E+03</pdfrwt>
<totfact> 0.36351242E+03</totfact>
</mgrwt>
</event>
<event>
 8    1  0.2018715E-005  0.1905034E+03  0.7546771E-02  0.1165893E+00
         -1   -1    0    0    0  501 -0.00000000000E+00  0.00000000000E+00  0.81728654885E+02  0.81728654885E+02  0.00000000000E+00 0.  1.
          1   -1    0    0  501    0  0.00000000000E+00 -0.00000000000E+00 -0.48099783500E+03  0.48099783500E+03  0.00000000000E+00 0. -1.
         25    2    1    2    0    0 -0.13838330252E+03  0.38955956738E+02 -0.34669377872E+03  0.39558580826E+03  0.12499620198E+03 0.  0.
         23    2    1    2    0    0  0.13838330252E+03 -0.38955956738E+02 -0.52575401393E+02  0.16714068163E+03  0.67114302815E+02 0.  0.
          5    1    4    4  502    0  0.93247758897E+02  0.62429070442E+01 -0.21793522493E+02  0.96078957376E+02  0.47000000000E+01 0. -1.
         -5    1    3    3    0  503 -0.12426141192E+03  0.21911701065E+02 -0.35058133487E+03  0.37262633226E+03  0.47000000000E+01 0.  1.
          5    1    3    3  503    0 -0.14121890592E+02  0.17044255673E+02  0.38875561440E+01  0.22959475998E+02  0.47000000000E+01 0.  1.
         -5    1    4    4    0  502  0.45135543619E+02 -0.45198863782E+02 -0.30781878900E+02  0.71061724251E+02  0.47000000000E+01 0.  1.
<mgrwt>
<rscale>  0 0.18198746E+03</rscale>
<asrwt>0</asrwt>
<pdfrwt beam="1">  1        1 0.73999666E-01 0.19050343E+03</pdfrwt>
<pdfrwt beam="2">  1       -1 0.12573639E-01 0.19050343E+03</pdfrwt>
<totfact> 0.20052025E+03</totfact>
</mgrwt>
</event>
<event>
 8    1  0.2018715E-005  0.1894848E+03  0.7546771E-02  0.1166007E+00
         -2   -1    0    0    0  501 -0.00000000000E+00  0.00000000000E+00  0.10042905362E+03  0.10042905362E+03  0.00000000000E+00 0.  1.
          2   -1    0    0  501    0  0.00000000000E+00 -0.00000000000E+00 -0.31284456644E+03  0.31284456644E+03  0.00000000000E+00 0. -1.
         25    2    1    2    0    0  0.79361663582E+02  0.11825073578E+03 -0.14636045562E+03  0.23942821353E+03  0.12499190496E+03 0.  0.
         23    2    1    2    0    0 -0.79361663582E+02 -0.11825073578E+03 -0.66055057190E+02  0.17384540653E+03  0.74682291298E+02 0.  0.
          5    1    3    3  502    0 -0.16393486734E+02  0.86989646747E+02 -0.68813216913E+02  0.11221984615E+03  0.47000000000E+01 0. -1.
         -5    1    4    4    0  503 -0.33417892593E+02 -0.58234569679E+02  0.81779198282E+01  0.67801098986E+02  0.47000000000E+01 0.  1.
          5    1    4    4  503    0 -0.45943770990E+02 -0.60016166097E+02 -0.74232977018E+02  0.10604430755E+03  0.47000000000E+01 0. -1.
         -5    1    3    3    0  502  0.95755150317E+02  0.31261089029E+02 -0.77547238709E+02  0.12720836738E+03  0.47000000000E+01 0. -1.
<mgrwt>
<rscale>  0 0.18186836E+03</rscale>
<asrwt>0</asrwt>
<pdfrwt beam="1">  1        2 0.48129934E-01 0.18948479E+03</pdfrwt>
<pdfrwt beam="2">  1       -2 0.15450623E-01 0.18948479E+03</pdfrwt>
<totfact> 0.33407213E+03</totfact>
</mgrwt>
</event>
<event>
 8    1  0.2018715E-005  0.1692792E+03  0.7546771E-02  0.1180213E+00
         -2   -1    0    0    0  501 -0.00000000000E+00  0.00000000000E+00  0.53653394972E+02  0.53653394972E+02  0.00000000000E+00 0.  1.
          2   -1    0    0  501    0  0.00000000000E+00 -0.00000000000E+00 -0.56711690540E+03  0.56711690540E+03  0.00000000000E+00 0. -1.
         25    2    1    2    0    0  0.54735613120E+02 -0.10016765856E+03 -0.16709068803E+03  0.23785448983E+03  0.12500365251E+03 0.  0.
         23    2    1    2    0    0 -0.54735613120E+02  0.10016765856E+03 -0.34637282240E+03  0.38291581054E+03  0.11670834888E+03 0.  0.
          5    1    4    4  502    0 -0.39925636440E+02  0.50863411941E+02 -0.31678803867E+03  0.32335413181E+03  0.47000000000E+01 0. -1.
         -5    1    3    3    0  503  0.43831528982E+02 -0.12456336131E+03 -0.16390975765E+03  0.21053677248E+03  0.47000000000E+01 0.  1.
          5    1    3    3  503    0  0.10904084138E+02  0.24395702745E+02 -0.31809303795E+01  0.27317717353E+02  0.47000000000E+01 0.  1.
         -5    1    4    4    0  502 -0.14809976680E+02  0.49304246620E+02 -0.29584783732E+02  0.59561678725E+02  0.47000000000E+01 0.  1.
<mgrwt>
<rscale>  0 0.16775123E+03</rscale>
<asrwt>0</asrwt>
<pdfrwt beam="1">  1        2 0.87248758E-01 0.16927924E+03</pdfrwt>
<pdfrwt beam="2">  1       -2 0.82543682E-02 0.16927924E+03</pdfrwt>
<totfact> 0.47386727E+03</totfact>
</mgrwt>
</event>
<event>
 8    1  0.2018715E-005  0.1326390E+03  0.7546771E-02  0.1243867E+00
          2   -1    0    0  501    0  0.00000000000E+00  0.00000000000E+00  0.48604274365E+03  0.48604274365E+03  0.00000000000E+00 0. -1.
         -2   -1    0    0    0  501 -0.00000000000E+00 -0.00000000000E+00 -0.41581112010E+02  0.41581112010E+02  0.00000000000E+00 0.  1.
         25    2    1    2    0    0  0.44073850625E+02  0.47240586040E+01  0.84698246634E+02  0.15737503499E+03  0.12501314977E+03 0.  0.
         23    2    1    2    0    0 -0.44073850625E+02 -0.47240586040E+01  0.35976338501E+03  0.37024882068E+03  0.75429934252E+02 0.  0.
          5    1    3    3  502    0  0.76640801061E+02 -0.26513611855E+02  0.75869811311E+02  0.11115350768E+03  0.47000000000E+01 0. -1.
         -5    1    4    4    0  503  0.92319276844E+01 -0.21478183364E+02  0.18938213263E+03  0.19087750786E+03  0.47000000000E+01 0.  1.
          5    1    4    4  503    0 -0.53305778310E+02  0.16754124760E+02  0.17038125238E+03  0.17937131281E+03  0.47000000000E+01 0. -1.
         -5    1    3    3    0  502 -0.32566950435E+02  0.31237670459E+02  0.88284353231E+01  0.46221527307E+02  0.47000000000E+01 0. -1.
<mgrwt>
<rscale>  0 0.11953444E+03</rscale>
<asrwt>0</asrwt>
<pdfrwt beam="1">  1        2 0.74775803E-01 0.13263902E+03</pdfrwt>
<pdfrwt beam="2">  1       -2 0.63970945E-02 0.13263902E+03</pdfrwt>
<totfact> 0.82169056E+03</totfact>
</mgrwt>
</event>
<event>
 7    1  0.2018715E-005  0.1667606E+03  0.7546771E-02  0.1182769E+00
         -1   -1    0    0    0  501 -0.00000000000E+00  0.00000000000E+00  0.48945066133E+02  0.48945066133E+02  0.00000000000E+00 0.  1.
          1   -1    0    0  501    0  0.00000000000E+00 -0.00000000000E+00 -0.54956779909E+03  0.54956779909E+03  0.00000000000E+00 0. -1.
         25    2    1    2    0    0 -0.59362899886E+02  0.82782038902E+02 -0.24763029152E+03  0.29550417618E+03  0.12500054805E+03 0.  0.
          5    1    1    2  502    0  0.21134126107E+02 -0.70184513354E+02 -0.25198578034E+03  0.26247179029E+03  0.47000000000E+01 0. -1.
         -5    1    1    2    0  502  0.38228773779E+02 -0.12597525548E+02 -0.10066610966E+01  0.40536898760E+02  0.47000000000E+01 0.  1.
          5    1    3    3  503    0 -0.64779234362E+02 -0.96767773740E+01 -0.13065239475E+03  0.14622628860E+03  0.47000000000E+01 0. -1.
         -5    1    3    3    0  503  0.54163344763E+01  0.92458816276E+02 -0.11697789677E+03  0.14927788757E+03  0.47000000000E+01 0. -1.
<mgrwt>
<rscale>  0 0.16536584E+03</rscale>
<asrwt>0</asrwt>
<pdfrwt beam="1">  1        1 0.84548888E-01 0.16676058E+03</pdfrwt>
<pdfrwt beam="2">  1       -1 0.75300106E-02 0.16676058E+03</pdfrwt>
<totfact> 0.36768178E+03</totfact>
</mgrwt>
</event>
<event>
 8    1  0.2018715E-005  0.3123536E+03  0.7546771E-02  0.1081469E+00
         -2   -1    0    0    0  501 -0.00000000000E+00  0.00000000000E+00  0.70609572599E+02  0.70609572599E+02  0.00000000000E+00 0.  1.
          2   -1    0    0  501    0  0.00000000000E+00 -0.00000000000E+00 -0.13220273018E+04  0.13220273018E+04  0.00000000000E+00 0. -1.
         25    2    1    2    0    0 -0.25888082508E+03  0.12216434607E+03 -0.55838406448E+03  0.63981056279E+03  0.12498553418E+03 0.  0.
         23    2    1    2    0    0  0.25888082508E+03 -0.12216434607E+03 -0.69303366471E+03  0.75282631159E+03  0.67144515479E+02 0.  0.
          5    1    3    3  502    0 -0.23857503408E+03  0.12273255159E+03 -0.55776048737E+03  0.61895086831E+03  0.47000000000E+01 0. -1.
         -5    1    3    3    0  502 -0.20305791001E+02 -0.56820552052E+00 -0.62357710850E+00  0.20859694487E+02  0.47000000000E+01 0. -1.
          5    1    4    4  503    0  0.20811321022E+03 -0.77835314842E+02 -0.47212884794E+03  0.52182102637E+03  0.47000000000E+01 0. -1.
         -5    1    4    4    0  503  0.50767614859E+02 -0.44329031226E+02 -0.22090481677E+03  0.23100528522E+03  0.47000000000E+01 0.  1.
<mgrwt>
<rscale>  0 0.30766754E+03</rscale>
<asrwt>0</asrwt>
<pdfrwt beam="1">  1        2 0.20338879E+00 0.31235363E+03</pdfrwt>
<pdfrwt beam="2">  1       -2 0.10863013E-01 0.31235363E+03</pdfrwt>
<totfact> 0.99024479E+02</totfact>
</mgrwt>
</event>
<event>
 8    1  0.2018715E-005  0.1430156E+03  0.7546771E-02  0.1224605E+00
          2   -1    0    0  501    0  0.00000000000E+00  0.00000000000E+00  0.18155002006E+03  0.18155002006E+03  0.00000000000E+00 0. -1.
         -2   -1    0    0    0  501 -0.00000000000E+00 -0.00000000000E+00 -0.10379172032E+03  0.10379172032E+03  0.00000000000E+00 0.  1.
         25    2    1    2    0    0  0.66745156490E+02 -0.19314617558E+02  0.10593858165E+03  0.17797874854E+03  0.12500192592E+03 0.  0.
         23    2    1    2    0    0 -0.66745156490E+02  0.19314617558E+02 -0.28180281911E+02  0.10736299183E+03  0.76842132719E+02 0.  0.
          5    1    4    4  502    0 -0.53960369031E+02 -0.11760181962E+02  0.99609615762E+01  0.56314599007E+02  0.47000000000E+01 0. -1.
         -5    1    3    3    0  503  0.25724361350E+02 -0.65293694377E+02  0.21902328553E+02  0.73666894113E+02  0.47000000000E+01 0.  1.
          5    1    3    3  503    0  0.41020795140E+02  0.45979076818E+02  0.84036253099E+02  0.10431185443E+03  0.47000000000E+01 0.  1.
         -5    1    4    4    0  502 -0.12784787459E+02  0.31074799520E+02 -0.38141243487E+02  0.51048392828E+02  0.47000000000E+01 0.  1.
<mgrwt>
<rscale>  0 0.13193986E+03</rscale>
<asrwt>0</asrwt>
<pdfrwt beam="1">  1        2 0.27930772E-01 0.14301557E+03</pdfrwt>
<pdfrwt beam="2">  1       -2 0.15967957E-01 0.14301557E+03</pdfrwt>
<totfact> 0.56011638E+03</totfact>
</mgrwt>
</event>
<event>
 8    1  0.2018715E-005  0.1828928E+03  0.7546771E-02  0.1167717E+00
          2   -1    0    0  501    0  0.00000000000E+00  0.00000000000E+00  0.12388700360E+03  0.12388700360E+03  0.00000000000E+00 0. -1.
         -2   -1    0    0    0  501 -0.00000000000E+00 -0.00000000000E+00 -0.29006734083E+03  0.29006734083E+03  0.00000000000E+00 0.  1.
         25    2    1    2    0    0 -0.10936085472E+03 -0.76582980397E+02 -0.15822800798E+03  0.24183850530E+03  0.12500004282E+03 0.  0.
         23    2    1    2    0    0  0.10936085472E+03  0.76582980397E+02 -0.79523292510E+01  0.17211583913E+03  0.10833223485E+03 0.  0.
          5    1    3    3  502    0 -0.57714829068E+02 -0.94782013522E+02 -0.52880910252E+02  0.12301671533E+03  0.47000000000E+01 0. -1.
         -5    1    4    4    0  503  0.74850851095E+02 -0.12635482669E+02 -0.64534605429E+01  0.76328516852E+02  0.47000000000E+01 0. -1.
          5    1    4    4  503    0  0.34510003625E+02  0.89218463066E+02 -0.14988687081E+01  0.95787322279E+02  0.47000000000E+01 0.  1.
         -5    1    3    3    0  502 -0.51646025651E+02  0.18199033125E+02 -0.10534709773E+03  0.11882178997E+03  0.47000000000E+01 0. -1.
<mgrwt>
<rscale>  0 0.18008875E+03</rscale>
<asrwt>0</asrwt>
<pdfrwt beam="1">  1        2 0.19059539E-01 0.18289276E+03</pdfrwt>
<pdfrwt beam="2">  1       -2 0.44625744E-01 0.18289276E+03</pdfrwt>
<totfact> 0.13960294E+03</totfact>
</mgrwt>
</event>
<event>
 8    1  0.2018715E-005  0.1287803E+03  0.7546771E-02  0.1258944E+00
         -2   -1    0    0    0  501 -0.00000000000E+00  0.00000000000E+00  0.10328658222E+03  0.10328658222E+03  0.00000000000E+00 0. -1.
          2   -1    0    0  501    0  0.00000000000E+00 -0.00000000000E+00 -0.98806183277E+02  0.98806183277E+02  0.00000000000E+00 0.  1.
         25    2    1    2    0    0 -0.30157743706E+02  0.70793477821E+01  0.18003260207E+02  0.13003261130E+03  0.12499902381E+03 0.  0.
         23    2    1    2    0    0  0.30157743706E+02 -0.70793477821E+01 -0.13522861266E+02  0.72060154194E+02  0.63641113875E+02 0.  0.
          5    1    4    4  502    0  0.50264003206E+01 -0.26656888666E+02 -0.25671774037E+02  0.37642853183E+02  0.47000000000E+01 0. -1.
         -5    1    3    3    0  503  0.59772893447E+01  0.54359143967E+02  0.38359991458E+02  0.66964344732E+02  0.47000000000E+01 0. -1.
          5    1    3    3  503    0 -0.36135033051E+02 -0.47279796185E+02 -0.20356731251E+02  0.63068266570E+02  0.47000000000E+01 0. -1.
         -5    1    4    4    0  502  0.25131343385E+02  0.19577540884E+02  0.12148912771E+02  0.34417301012E+02  0.47000000000E+01 0.  1.
<mgrwt>
<rscale>  0 0.11088290E+03</rscale>
<asrwt>0</asrwt>
<pdfrwt beam="1">  1        2 0.15200951E-01 0.12878029E+03</pdfrwt>
<pdfrwt beam="2">  1       -2 0.15890243E-01 0.12878029E+03</pdfrwt>
<totfact> 0.11126872E+04</totfact>
</mgrwt>
</event>
<event>
 7    1  0.2018715E-005  0.1511216E+03  0.7546771E-02  0.1219267E+00
          1   -1    0    0  501    0  0.00000000000E+00  0.00000000000E+00  0.50341885835E+03  0.50341885835E+03  0.00000000000E+00 0. -1.
         -1   -1    0    0    0  501 -0.00000000000E+00 -0.00000000000E+00 -0.33815927050E+02  0.33815927050E+02  0.00000000000E+00 0.  1.
         25    2    1    2    0    0 -0.84929374364E+02  0.77148799595E-01  0.20262126927E+03  0.25277088908E+03  0.12499895610E+03 0.  0.
          5    1    3    3  502    0  0.17010072986E+02  0.15842337095E+02 -0.17659532571E+01  0.23780891878E+02  0.47000000000E+01 0.  1.
         -5    1    3    3    0  502 -0.10193944735E+03 -0.15765188296E+02  0.20438722253E+03  0.22898999721E+03  0.47000000000E+01 0.  1.
          5    1    1    2  503    0  0.34306882512E+02 -0.23865314543E+02  0.11499683306E+03  0.12244540433E+03  0.47000000000E+01 0. -1.
         -5    1    1    2    0  503  0.50622491852E+02  0.23788165743E+02  0.15198482897E+03  0.16201849199E+03  0.47000000000E+01 0.  1.
<mgrwt>
<rscale>  0 0.13567736E+03</rscale>
<asrwt>0</asrwt>
<pdfrwt beam="1">  1        1 0.77449050E-01 0.15112162E+03</pdfrwt>
<pdfrwt beam="2">  1       -1 0.52024507E-02 0.15112162E+03</pdfrwt>
<totfact> 0.71529476E+03</totfact>
</mgrwt>
</event>
<event>
 7    1  0.2018715E-005  0.2101114E+03  0.7546771E-02  0.1157262E+00
          2   -1    0    0  501    0  0.00000000000E+00  0.00000000000E+00  0.10929492892E+04  0.10929492892E+04  0.00000000000E+00 0. -1.
         -2   -1    0    0    0  501 -0.00000000000E+00 -0.00000000000E+00 -0.40163462340E+02  0.40163462340E+02  0.00000000000E+00 0.  1.
         25    2    1    2    0    0  0.42483012796E+02 -0.58744769886E+02  0.15849603835E+03  0.21447189697E+03  0.12498578339E+03 0.  0.
          5    1    3    3  502    0  0.58207808001E+02 -0.86735646919E+02  0.14626313166E+03  0.17979492496E+03  0.47000000000E+01 0. -1.
         -5    1    3    3    0  502 -0.15724795205E+02  0.27990877033E+02  0.12232906689E+02  0.34676972004E+02  0.47000000000E+01 0. -1.
          5    1    1    2  503    0 -0.56888921745E+02  0.12113530848E+03  0.73133582527E+03  0.74349464807E+03  0.47000000000E+01 0. -1.
         -5    1    1    2    0  503  0.14405908948E+02 -0.62390538597E+02  0.16295396324E+03  0.17514620651E+03  0.47000000000E+01 0.  1.
<mgrwt>
<rscale>  0 0.19133579E+03</rscale>
<asrwt>0</asrwt>
<pdfrwt beam="1">  1        2 0.16814602E+00 0.21011138E+03</pdfrwt>
<pdfrwt beam="2">  1       -2 0.61789950E-02 0.21011138E+03</pdfrwt>
<totfact> 0.32449887E+03</totfact>
</mgrwt>
</event>
<event>
 8    1  0.2018715E-005  0.1324183E+03  0.7546771E-02  0.1227565E+00
          3   -1    0    0  501    0  0.00000000000E+00  0.00000000000E+00  0.73044430057E+02  0.73044430057E+02  0.00000000000E+00 0. -1.
         -3   -1    0    0    0  501 -0.00000000000E+00 -0.00000000000E+00 -0.34192526045E+03  0.34192526045E+03  0.00000000000E+00 0.  1.
         25    2    1    2    0    0 -0.43511099918E+02 -0.45482490078E+01 -0.15362406321E+02  0.13330647759E+03  0.12498284304E+03 0.  0.
         23    2    1    2    0    0  0.43511099918E+02  0.45482490078E+01 -0.25351842407E+03  0.28166321291E+03  0.11466765796E+03 0.  0.
          5    1    3    3  502    0 -0.15386620697E+02  0.26817447745E+02 -0.62515068311E+02  0.69900982582E+02  0.47000000000E+01 0. -1.
         -5    1    3    3    0  502 -0.28124479221E+02 -0.31365696752E+02  0.47152661990E+02  0.63405495006E+02  0.47000000000E+01 0. -1.
          5    1    4    4  503    0  0.46432100407E+02 -0.20407848858E+02 -0.35346952168E+02  0.61999332825E+02  0.47000000000E+01 0. -1.
         -5    1    4    4    0  503 -0.29210004891E+01  0.24956097866E+02 -0.21817147190E+03  0.21966388009E+03  0.47000000000E+01 0.  1.
<mgrwt>
<rscale>  0 0.12992672E+03</rscale>
<asrwt>0</asrwt>
<pdfrwt beam="1">  1        3 0.11237605E-01 0.13241833E+03</pdfrwt>
<pdfrwt beam="2">  1       -3 0.52603887E-01 0.13241833E+03</pdfrwt>
<totfact> 0.50574042E+02</totfact>
</mgrwt>
</event>
<event>
 8    1  0.2018715E-005  0.1871749E+03  0.7546771E-02  0.1162852E+00
          1   -1    0    0  501    0  0.00000000000E+00  0.00000000000E+00  0.25990077759E+03  0.25990077759E+03  0.00000000000E+00 0. -1.
         -1   -1    0    0    0  501 -0.00000000000E+00 -0.00000000000E+00 -0.15770961360E+03  0.15770961360E+03  0.00000000000E+00 0.  1.
         25    2    1    2    0    0 -0.13459008439E+03  0.36001353750E+02 -0.36642446103E+02  0.19072780112E+03  0.12499534782E+03 0.  0.
         23    2    1    2    0    0  0.13459008439E+03 -0.36001353750E+02  0.13883361009E+03  0.22688259007E+03  0.11309443001E+03 0.  0.
          5    1    4    4  502    0  0.32662621412E+02  0.39780402859E+02  0.49181193715E+02  0.71345687357E+02  0.47000000000E+01 0. -1.
         -5    1    4    4    0  502  0.10192746298E+03 -0.75781756610E+02  0.89652416378E+02  0.15553690272E+03  0.47000000000E+01 0.  1.
          5    1    3    3  503    0 -0.38214844592E+02  0.61840482818E+02  0.20463543389E+02  0.75666810891E+02  0.47000000000E+01 0. -1.
         -5    1    3    3    0  503 -0.96375239797E+02 -0.25839129068E+02 -0.57105989492E+02  0.11506099023E+03  0.47000000000E+01 0. -1.
<mgrwt>
<rscale>  0 0.18521203E+03</rscale>
<asrwt>0</asrwt>
<pdfrwt beam="1">  1        1 0.39984735E-01 0.18717485E+03</pdfrwt>
<pdfrwt beam="2">  1       -1 0.24263017E-01 0.18717485E+03</pdfrwt>
<totfact> 0.15257805E+03</totfact>
</mgrwt>
</event>
<event>
 7    1  0.2018715E-005  0.2848914E+03  0.7546771E-02  0.1094056E+00
          1   -1    0    0  501    0  0.00000000000E+00  0.00000000000E+00  0.16066627308E+03  0.16066627308E+03  0.00000000000E+00 0. -1.
         -1   -1    0    0    0  501 -0.00000000000E+00 -0.00000000000E+00 -0.54734542238E+03  0.54734542238E+03  0.00000000000E+00 0.  1.
         25    2    1    2    0    0  0.22868827780E+03  0.95127952816E+02 -0.30355806458E+03  0.41124202735E+03  0.12499940271E+03 0.  0.
          5    1    1    2  502    0 -0.12847024686E+03 -0.10932998681E+03 -0.50179933145E+01  0.16883400310E+03  0.47000000000E+01 0. -1.
         -5    1    1    2    0  502 -0.10021803093E+03  0.14202033997E+02 -0.78103091413E+02  0.12793566501E+03  0.47000000000E+01 0.  1.
          5    1    3    3  503    0  0.44971891015E+02  0.69143877142E+02 -0.14611818416E+03  0.16785696432E+03  0.47000000000E+01 0.  1.
         -5    1    3    3    0  503  0.18371638678E+03  0.25984075674E+02 -0.15743988042E+03  0.24338506303E+03  0.47000000000E+01 0.  1.
<mgrwt>
<rscale>  0 0.28300980E+03</rscale>
<asrwt>0</asrwt>
<pdfrwt beam="1">  1        1 0.24717888E-01 0.28489142E+03</pdfrwt>
<pdfrwt beam="2">  1       -1 0.84206989E-01 0.28489142E+03</pdfrwt>
<totfact> 0.28550175E+02</totfact>
</mgrwt>
</event>
<event>
 8    1  0.2018715E-005  0.2034225E+03  0.7546771E-02  0.1152678E+00
          1   -1    0    0  501    0  0.00000000000E+00  0.00000000000E+00  0.16479875686E+04  0.16479875686E+04  0.00000000000E+00 0. -1.
         -1   -1    0    0    0  501 -0.00000000000E+00 -0.00000000000E+00 -0.25366107902E+02  0.25366107902E+02  0.00000000000E+00 0.  1.
         25    2    1    2    0    0  0.98083992739E+02  0.12702612431E+03  0.11641357738E+04  0.11817752856E+04  0.12499847930E+03 0.  0.
         23    2    1    2    0    0 -0.98083992739E+02 -0.12702612431E+03  0.45848568692E+03  0.49157839097E+03  0.75392860844E+02 0.  0.
          5    1    3    3  502    0  0.86854639739E+02  0.13187754995E+02  0.56339649622E+03  0.57022394485E+03  0.47000000000E+01 0. -1.
         -5    1    4    4    0  503 -0.18026460824E+02 -0.42732474542E+02  0.23544512818E+03  0.24001565793E+03  0.47000000000E+01 0.  1.
          5    1    4    4  503    0 -0.80057531915E+02 -0.84293649767E+02  0.22304055874E+03  0.25156273304E+03  0.47000000000E+01 0. -1.
         -5    1    3    3    0  502  0.11229353001E+02  0.11383836931E+03  0.60073927759E+03  0.61155134072E+03  0.47000000000E+01 0. -1.
<mgrwt>
<rscale>  0 0.19655538E+03</rscale>
<asrwt>0</asrwt>
<pdfrwt beam="1">  1        1 0.25353646E+00 0.20342253E+03</pdfrwt>
<pdfrwt beam="2">  1       -1 0.39024794E-02 0.20342253E+03</pdfrwt>
<totfact> 0.14629501E+03</totfact>
</mgrwt>
</event>
<event>
 8    1  0.2018715E-005  0.1358939E+03  0.7546771E-02  0.1223567E+00
          1   -1    0    0  501    0  0.00000000000E+00  0.00000000000E+00  0.59898837199E+02  0.59898837199E+02  0.00000000000E+00 0.  1.
         -1   -1    0    0    0  501 -0.00000000000E+00 -0.00000000000E+00 -0.30057554655E+03  0.30057554655E+03  0.00000000000E+00 0. -1.
         25    2    1    2    0    0  0.10171982478E+02  0.52339134983E+02 -0.17216062021E+03  0.21933180452E+03  0.12499722815E+03 0.  0.
         23    2    1    2    0    0 -0.10171982478E+02 -0.52339134983E+02 -0.68516089141E+02  0.14114257923E+03  0.11128305766E+03 0.  0.
          5    1    3    3  502    0  0.67243071348E+02  0.22751177848E+02 -0.83101677138E+02  0.10939481469E+03  0.47000000000E+01 0.  1.
         -5    1    3    3    0  502 -0.57071088870E+02  0.29587957135E+02 -0.89058943074E+02  0.10993698983E+03  0.47000000000E+01 0.  1.
          5    1    4    4  503    0  0.24958933250E+02 -0.38473855798E+00 -0.73779717483E+02  0.78029693609E+02  0.47000000000E+01 0.  1.
         -5    1    4    4    0  503 -0.35130915728E+02 -0.51954396425E+02  0.52636283429E+01  0.63112885618E+02  0.47000000000E+01 0.  1.
<mgrwt>
<rscale>  0 0.13265574E+03</rscale>
<asrwt>0</asrwt>
<pdfrwt beam="1">  1        1 0.92152057E-02 0.13589393E+03</pdfrwt>
<pdfrwt beam="2">  1       -1 0.46242392E-01 0.13589393E+03</pdfrwt>
<totfact> 0.32753047E+03</totfact>
</mgrwt>
</event>
<event>
 8    1  0.2018715E-005  0.1285639E+03  0.7546771E-02  0.1257943E+00
         -1   -1    0    0    0  501 -0.00000000000E+00  0.00000000000E+00  0.88501525182E+02  0.88501525182E+02  0.00000000000E+00 0.  1.
          1   -1    0    0  501    0  0.00000000000E+00 -0.00000000000E+00 -0.13004590497E+03  0.13004590497E+03  0.00000000000E+00 0. -1.
         25    2    1    2    0    0  0.28804406961E+02 -0.86427591500E+01 -0.62607658033E+02  0.14299784745E+03  0.12499709751E+03 0.  0.
         23    2    1    2    0    0 -0.28804406961E+02  0.86427591500E+01  0.21063278249E+02  0.75549582694E+02  0.66027922945E+02 0.  0.
          5    1    3    3  502    0  0.36429119925E+02  0.38764856302E+02 -0.76037619535E+02  0.92917191343E+02  0.47000000000E+01 0.  1.
         -5    1    3    3    0  502 -0.76247129637E+01 -0.47407615452E+02  0.13429961502E+02  0.50080656111E+02  0.47000000000E+01 0.  1.
          5    1    4    4  503    0  0.11092263652E+02 -0.17125406836E+02 -0.44877899787E+01  0.21413736973E+02  0.47000000000E+01 0. -1.
         -5    1    4    4    0  503 -0.39896670613E+02  0.25768165986E+02  0.25551068228E+02  0.54135845721E+02  0.47000000000E+01 0.  1.
<mgrwt>
<rscale>  0 0.11143060E+03</rscale>
<asrwt>0</asrwt>
<pdfrwt beam="1">  1        1 0.20007062E-01 0.12856386E+03</pdfrwt>
<pdfrwt beam="2">  1       -1 0.13615619E-01 0.12856386E+03</pdfrwt>
<totfact> 0.89861423E+03</totfact>
</mgrwt>
</event>
<event>
 8    1  0.3235949E-005  0.2894165E+03  0.7546771E-02  0.1091315E+00
          2   -1    0    0  501    0  0.00000000000E+00  0.00000000000E+00  0.12220539062E+04  0.12220539062E+04  0.00000000000E+00 0. -1.
         -2   -1    0    0    0  501 -0.00000000000E+00 -0.00000000000E+00 -0.69712686647E+02  0.69712686647E+02  0.00000000000E+00 0.  1.
         25    2    1    2    0    0  0.14318243938E+03 -0.21826488340E+03  0.46242114431E+03  0.54552289243E+03  0.12498456378E+03 0.  0.
         23    2    1    2    0    0 -0.14318243938E+03  0.21826488340E+03  0.68992007521E+03  0.74624370038E+03  0.11291226648E+03 0.  0.
          5    1    4    4  502    0 -0.79325422120E+02  0.11659505145E+03  0.22121751718E+03  0.26238561036E+03  0.47000000000E+01 0. -1.
         -5    1    3    3    0  503  0.39812653472E+02 -0.10653121338E+03  0.96676203733E+02  0.14933963027E+03  0.47000000000E+01 0. -1.
          5    1    3    3  503    0  0.10336978591E+03 -0.11173367001E+03  0.36574494058E+03  0.39618326216E+03  0.47000000000E+01 0. -1.
         -5    1    4    4    0  502 -0.63857017261E+02  0.10166983194E+03  0.46870255802E+03  0.48385809002E+03  0.47000000000E+01 0.  1.
<mgrwt>
<rscale>  0 0.28815708E+03</rscale>
<asrwt>0</asrwt>
<pdfrwt beam="1">  1        2 0.18800828E+00 0.28941650E+03</pdfrwt>
<pdfrwt beam="2">  1       -2 0.10725030E-01 0.28941650E+03</pdfrwt>
<totfact> 0.11517241E+03</totfact>
</mgrwt>
</event>
<event>
 8    1  0.2018715E-005  0.1918976E+03  0.7546771E-02  0.1163664E+00
          2   -1    0    0  501    0  0.00000000000E+00  0.00000000000E+00  0.53187696050E+02  0.53187696050E+02  0.00000000000E+00 0. -1.
         -2   -1    0    0    0  501 -0.00000000000E+00 -0.00000000000E+00 -0.61393237110E+03  0.61393237110E+03  0.00000000000E+00 0.  1.
         25    2    1    2    0    0  0.10488758147E+03  0.10098738926E+03 -0.36286081040E+03  0.41047858427E+03  0.12499937152E+03 0.  0.
         23    2    1    2    0    0 -0.10488758147E+03 -0.10098738926E+03 -0.19788386465E+03  0.25664148288E+03  0.74208957075E+02 0.  0.
          5    1    4    4  502    0 -0.14836806747E+02 -0.61056558559E+02 -0.59111429901E+02  0.86396095528E+02  0.47000000000E+01 0. -1.
         -5    1    3    3    0  503  0.80584547731E+02  0.13298164793E+02 -0.26237618874E+03  0.27483461379E+03  0.47000000000E+01 0. -1.
          5    1    3    3  503    0  0.24303033742E+02  0.87689224467E+02 -0.10048462167E+03  0.13564397048E+03  0.47000000000E+01 0. -1.
         -5    1    4    4    0  502 -0.90050774726E+02 -0.39930830701E+02 -0.13877243475E+03  0.17024538735E+03  0.47000000000E+01 0.  1.
<mgrwt>
<rscale>  0 0.18434442E+03</rscale>
<asrwt>0</asrwt>
<pdfrwt beam="1">  1        2 0.81827218E-02 0.19189763E+03</pdfrwt>
<pdfrwt beam="2">  1       -2 0.94451142E-01 0.19189763E+03</pdfrwt>
<totfact> 0.80017643E+02</totfact>
</mgrwt>
</event>
<event>
 8    1  0.2122462E-005  0.1731677E+03  0.7546771E-02  0.1178320E+00
          2   -1    0    0  501    0  0.00000000000E+00  0.00000000000E+00  0.61490354627E+03  0.61490354627E+03  0.00000000000E+00 0. -1.
         -2   -1    0    0    0  501 -0.00000000000E+00 -0.00000000000E+00 -0.50587763235E+02  0.50587763235E+02  0.00000000000E+00 0.  1.
         25    2    1    2    0    0 -0.37215035947E+02  0.11391763514E+03  0.18120657250E+03  0.25064489165E+03  0.12499941318E+03 0.  0.
         23    2    1    2    0    0  0.37215035947E+02 -0.11391763514E+03  0.38310921053E+03  0.41484641786E+03  0.10470289736E+03 0.  0.
          5    1    4    4  502    0 -0.27353196985E+02 -0.73141159976E+02  0.24198871248E+03  0.25431958956E+03  0.47000000000E+01 0. -1.
         -5    1    4    4    0  502  0.64568232932E+02 -0.40776475163E+02  0.14112049806E+03  0.16052682829E+03  0.47000000000E+01 0.  1.
          5    1    3    3  503    0 -0.82403931448E+02  0.79698103530E+02  0.13639241237E+03  0.17823348669E+03  0.47000000000E+01 0. -1.
         -5    1    3    3    0  503  0.45188895501E+02  0.34219531608E+02  0.44814160127E+02  0.72411404958E+02  0.47000000000E+01 0. -1.
<mgrwt>
<rscale>  0 0.16954834E+03</rscale>
<asrwt>0</asrwt>
<pdfrwt beam="1">  1        2 0.94600540E-01 0.17316766E+03</pdfrwt>
<pdfrwt beam="2">  1       -2 0.77827333E-02 0.17316766E+03</pdfrwt>
<totfact> 0.47376710E+03</totfact>
</mgrwt>
</event>
<event>
 8    1  0.2018715E-005  0.2080826E+03  0.7546771E-02  0.1145162E+00
          4   -1    0    0  501    0  0.00000000000E+00  0.00000000000E+00  0.60366776883E+03  0.60366776883E+03  0.00000000000E+00 0.  1.
         -4   -1    0    0    0  501 -0.00000000000E+00 -0.00000000000E+00 -0.86649842673E+02  0.86649842673E+02  0.00000000000E+00 0. -1.
         25    2    1    2    0    0 -0.16631049804E+03  0.37259841896E+01  0.42235073040E+03  0.47082745991E+03  0.12500117130E+03 0.  0.
         23    2    1    2    0    0  0.16631049804E+03 -0.37259841896E+01  0.94667195764E+02  0.21949015159E+03  0.10742897178E+03 0.  0.
          5    1    4    4  502    0  0.64345259118E+02  0.26743073947E+02  0.88568476671E+02  0.11279170818E+03  0.47000000000E+01 0. -1.
         -5    1    4    4    0  502  0.10196523892E+03 -0.30469058137E+02  0.60987190938E+01  0.10669844341E+03  0.47000000000E+01 0.  1.
          5    1    3    3  503    0 -0.16502428336E+03  0.30489594904E+02  0.28468799204E+03  0.33050260560E+03  0.47000000000E+01 0. -1.
         -5    1    3    3    0  503 -0.12862146784E+01 -0.26763610714E+02  0.13766273836E+03  0.14032485432E+03  0.47000000000E+01 0. -1.
<mgrwt>
<rscale>  0 0.20552137E+03</rscale>
<asrwt>0</asrwt>
<pdfrwt beam="1">  1        4 0.92871962E-01 0.20808257E+03</pdfrwt>
<pdfrwt beam="2">  1       -4 0.13330745E-01 0.20808257E+03</pdfrwt>
<totfact> 0.83931899E+01</totfact>
</mgrwt>
</event>
<event>
 7    1  0.2018715E-005  0.1425305E+03  0.7546771E-02  0.1211938E+00
         -2   -1    0    0    0  501 -0.00000000000E+00  0.00000000000E+00  0.20909348317E+03  0.20909348317E+03  0.00000000000E+00 0.  1.
          2   -1    0    0  501    0  0.00000000000E+00 -0.00000000000E+00 -0.10309756176E+03  0.10309756176E+03  0.00000000000E+00 0. -1.
         25    2    1    2    0    0  0.54725750629E+02  0.73555346673E+01  0.10036059292E+03  0.16954920973E+03  0.12500269693E+03 0.  0.
          5    1    3    3  502    0  0.45135986168E+02  0.50555125961E+02  0.10473113661E+03  0.12483500704E+03  0.47000000000E+01 0.  1.
         -5    1    1    2    0  503 -0.37346184708E+02 -0.56269447559E+02  0.41469327576E+02  0.79390070982E+02  0.47000000000E+01 0.  1.
          5    1    1    2  503    0 -0.17379565921E+02  0.48913912892E+02 -0.35833999085E+02  0.63251764216E+02  0.47000000000E+01 0. -1.
         -5    1    3    3    0  502  0.95897644612E+01 -0.43199591293E+02 -0.43705436881E+01  0.44714202693E+02  0.47000000000E+01 0.  1.
<mgrwt>
<rscale>  0 0.14103843E+03</rscale>
<asrwt>0</asrwt>
<pdfrwt beam="1">  1        2 0.15861163E-01 0.14253047E+03</pdfrwt>
<pdfrwt beam="2">  1       -2 0.32168228E-01 0.14253047E+03</pdfrwt>
<totfact> 0.31604625E+03</totfact>
</mgrwt>
</event>
<event>
 8    1  0.2018715E-005  0.1255652E+03  0.7546771E-02  0.1263496E+00
         -2   -1    0    0    0  501 -0.00000000000E+00  0.00000000000E+00  0.90849054106E+02  0.90849054106E+02  0.00000000000E+00 0.  1.
          2   -1    0    0  501    0  0.00000000000E+00 -0.00000000000E+00 -0.15481212775E+03  0.15481212775E+03  0.00000000000E+00 0. -1.
         25    2    1    2    0    0  0.10328247614E+02  0.58978848690E+01  0.29505831245E+02  0.12898535226E+03  0.12500067710E+03 0.  0.
         23    2    1    2    0    0 -0.10328247614E+02 -0.58978848690E+01 -0.93468904893E+02  0.11667582960E+03  0.68813917816E+02 0.  0.
          5    1    4    4  502    0 -0.26328795661E+02 -0.28031017453E+02 -0.71459956623E+02  0.81286892062E+02  0.47000000000E+01 0. -1.
         -5    1    4    4    0  502  0.16000548047E+02  0.22133132584E+02 -0.22008948269E+02  0.35388937533E+02  0.47000000000E+01 0.  1.
          5    1    3    3  503    0  0.43786875410E+02  0.50441193687E+02  0.27800662987E+01  0.67018081496E+02  0.47000000000E+01 0.  1.
         -5    1    3    3    0  503 -0.33458627796E+02 -0.44543308818E+02  0.26725764946E+02  0.61967270768E+02  0.47000000000E+01 0.  1.
<mgrwt>
<rscale>  0 0.10843489E+03</rscale>
<asrwt>0</asrwt>
<pdfrwt beam="1">  1        2 0.23817250E-01 0.12556523E+03</pdfrwt>
<pdfrwt beam="2">  1       -2 0.13976778E-01 0.12556523E+03</pdfrwt>
<totfact> 0.82190846E+03</totfact>
</mgrwt>
</event>
<event>
 7    1  0.2018715E-005  0.1377454E+03  0.7546771E-02  0.1218247E+00
          1   -1    0    0  501    0  0.00000000000E+00  0.00000000000E+00  0.63365999483E+03  0.63365999483E+03  0.00000000000E+00 0. -1.
         -1   -1    0    0    0  501 -0.00000000000E+00 -0.00000000000E+00 -0.34594265432E+02  0.34594265432E+02  0.00000000000E+00 0.  1.
         25    2    1    2    0    0  0.40531670972E+02  0.16710278617E+02  0.15802617995E+03  0.20620482190E+03  0.12500442097E+03 0.  0.
          5    1    1    2  502    0  0.46703887139E+02 -0.60654997356E+00  0.11734704838E+03  0.12638845176E+03  0.47000000000E+01 0. -1.
         -5    1    3    3    0  503  0.33415810342E+02 -0.52502462312E+02  0.81824467173E+02  0.10290995267E+03  0.47000000000E+01 0. -1.
          5    1    3    3  503    0  0.71158606305E+01  0.69212740929E+02  0.76201712781E+02  0.10329486923E+03  0.47000000000E+01 0. -1.
         -5    1    1    2    0  502 -0.87235558111E+02 -0.16103728643E+02  0.32369250107E+03  0.33566098660E+03  0.47000000000E+01 0.  1.
<mgrwt>
<rscale>  0 0.13640704E+03</rscale>
<asrwt>0</asrwt>
<pdfrwt beam="1">  1        1 0.97486145E-01 0.13774541E+03</pdfrwt>
<pdfrwt beam="2">  1       -1 0.53221951E-02 0.13774541E+03</pdfrwt>
<totfact> 0.50504693E+03</totfact>
</mgrwt>
</event>
<event>
 8    1  0.2018715E-005  0.1259562E+03  0.7546771E-02  0.1257171E+00
         -1   -1    0    0    0  501 -0.00000000000E+00  0.00000000000E+00  0.23715616233E+03  0.23715616233E+03  0.00000000000E+00 0.  1.
          1   -1    0    0  501    0  0.00000000000E+00 -0.00000000000E+00 -0.54157588791E+02  0.54157588791E+02  0.00000000000E+00 0. -1.
         25    2    1    2    0    0 -0.14699747404E+02  0.48877906343E+01  0.47141753919E+02  0.13448905689E+03  0.12499995356E+03 0.  0.
         23    2    1    2    0    0  0.14699747404E+02 -0.48877906343E+01  0.13585681962E+03  0.15682469423E+03  0.76791511338E+02 0.  0.
          5    1    3    3  502    0 -0.38517253329E+02 -0.51547322902E+02  0.23849109770E+02  0.68786447351E+02  0.47000000000E+01 0.  1.
         -5    1    3    3    0  502  0.23817505925E+02  0.56435113537E+02  0.23292644149E+02  0.65702609536E+02  0.47000000000E+01 0.  1.
          5    1    4    4  503    0 -0.29935759784E+02 -0.11743710093E+02  0.64959168281E+02  0.72635032762E+02  0.47000000000E+01 0. -1.
         -5    1    4    4    0  503  0.44635507187E+02  0.68559194586E+01  0.70897651337E+02  0.84189661471E+02  0.47000000000E+01 0.  1.
<mgrwt>
<rscale>  0 0.11185576E+03</rscale>
<asrwt>0</asrwt>
<pdfrwt beam="1">  1        1 0.83319369E-02 0.12595619E+03</pdfrwt>
<pdfrwt beam="2">  1       -1 0.36485563E-01 0.12595619E+03</pdfrwt>
<totfact> 0.56571312E+03</totfact>
</mgrwt>
</event>
<event>
 7    1  0.2018715E-005  0.1456181E+03  0.7546771E-02  0.1233470E+00
          1   -1    0    0  501    0  0.00000000000E+00  0.00000000000E+00  0.17805859117E+03  0.17805859117E+03  0.00000000000E+00 0. -1.
         -1   -1    0    0    0  501 -0.00000000000E+00 -0.00000000000E+00 -0.73066779653E+02  0.73066779653E+02  0.00000000000E+00 0.  1.
         25    2    1    2    0    0 -0.68051037642E+02 -0.30678998675E+02  0.57040961423E+02  0.15639151382E+03  0.12502995493E+03 0.  0.
          5    1    1    2  502    0  0.30761103950E+02  0.14415886431E+01  0.69978705632E+01  0.31927791756E+02  0.47000000000E+01 0. -1.
         -5    1    1    2    0  502  0.37289933693E+02  0.29237410032E+02  0.40952979535E+02  0.62806065256E+02  0.47000000000E+01 0.  1.
          5    1    3    3  503    0 -0.32095191828E+01 -0.47908303638E+02 -0.21645689600E+02  0.52878468672E+02  0.47000000000E+01 0. -1.
         -5    1    3    3    0  503 -0.64841518460E+02  0.17229304963E+02  0.78686651023E+02  0.10351304514E+03  0.47000000000E+01 0. -1.
<mgrwt>
<rscale>  0 0.12602878E+03</rscale>
<asrwt>0</asrwt>
<pdfrwt beam="1">  1        1 0.27393629E-01 0.14561811E+03</pdfrwt>
<pdfrwt beam="2">  1       -1 0.11241043E-01 0.14561811E+03</pdfrwt>
<totfact> 0.82107891E+03</totfact>
</mgrwt>
</event>
<event>
 8    1  0.2018715E-005  0.2797832E+03  0.7546771E-02  0.1098467E+00
          1   -1    0    0  501    0  0.00000000000E+00  0.00000000000E+00  0.12362596755E+04  0.12362596755E+04  0.00000000000E+00 0. -1.
         -1   -1    0    0    0  501 -0.00000000000E+00 -0.00000000000E+00 -0.64211366148E+02  0.64211366148E+02  0.00000000000E+00 0.  1.
         25    2    1    2    0    0 -0.23593683211E+03 -0.83581957882E+02  0.42222025895E+03  0.50650625256E+03  0.12500601740E+03 0.  0.
         23    2    1    2    0    0  0.23593683211E+03  0.83581957882E+02  0.74982805038E+03  0.79396478906E+03  0.74066515383E+02 0.  0.
          5    1    3    3  502    0 -0.17747392536E+03 -0.26837886786E+02  0.36519588772E+03  0.40694888224E+03  0.47000000000E+01 0.  1.
         -5    1    4    4    0  503  0.20341861404E+03  0.74165564500E+02  0.54761643889E+03  0.58888497828E+03  0.47000000000E+01 0.  1.
          5    1    4    4  503    0  0.32518218078E+02  0.94163933826E+01  0.20221161149E+03  0.20507981078E+03  0.47000000000E+01 0. -1.
         -5    1    3    3    0  502 -0.58462906759E+02 -0.56744071096E+02  0.57024371223E+02  0.99557370318E+02  0.47000000000E+01 0.  1.
<mgrwt>
<rscale>  0 0.27497289E+03</rscale>
<asrwt>0</asrwt>
<pdfrwt beam="1">  1        1 0.19019378E+00 0.27978320E+03</pdfrwt>
<pdfrwt beam="2">  1       -1 0.98786726E-02 0.27978320E+03</pdfrwt>
<totfact> 0.67208550E+02</totfact>
</mgrwt>
</event>
<event>
 8    1  0.2018715E-005  0.1273465E+03  0.7546771E-02  0.1258520E+00
         -3   -1    0    0    0  501 -0.00000000000E+00  0.00000000000E+00  0.13307264920E+03  0.13307264920E+03  0.00000000000E+00 0.  1.
          3   -1    0    0  501    0  0.00000000000E+00 -0.00000000000E+00 -0.82511737850E+02  0.82511737850E+02  0.00000000000E+00 0. -1.
         25    2    1    2    0    0  0.23171448542E+02  0.74428062343E+01  0.22453136978E+01  0.12736626955E+03  0.12499925517E+03 0.  0.
         23    2    1    2    0    0 -0.23171448542E+02 -0.74428062343E+01  0.48315597652E+02  0.88218117502E+02  0.69683053082E+02 0.  0.
          5    1    3    3  502    0 -0.41551528917E+02 -0.26633205861E+02  0.17357551553E+02  0.52528390473E+02  0.47000000000E+01 0. -1.
         -5    1    4    4    0  503  0.23369392623E+02 -0.11012721834E+02  0.23015868114E+02  0.34917456076E+02  0.47000000000E+01 0.  1.
          5    1    4    4  503    0 -0.46540841165E+02  0.35699155993E+01  0.25299729538E+02  0.53300661426E+02  0.47000000000E+01 0. -1.
         -5    1    3    3    0  502  0.64722977459E+02  0.34076012095E+02 -0.15112237855E+02  0.74837879075E+02  0.47000000000E+01 0. -1.
<mgrwt>
<rscale>  0 0.11111437E+03</rscale>
<asrwt>0</asrwt>
<pdfrwt beam="1">  1        3 0.12694113E-01 0.12734648E+03</pdfrwt>
<pdfrwt beam="2">  1       -3 0.20472715E-01 0.12734648E+03</pdfrwt>
<totfact> 0.24058161E+03</totfact>
</mgrwt>
</event>
<event>
 8    1  0.2018715E-005  0.1297333E+03  0.7546771E-02  0.1234298E+00
          1   -1    0    0  501    0  0.00000000000E+00  0.00000000000E+00  0.44659408844E+03  0.44659408844E+03  0.00000000000E+00 0. -1.
         -1   -1    0    0    0  501 -0.00000000000E+00 -0.00000000000E+00 -0.33549504138E+02  0.33549504138E+02  0.00000000000E+00 0.  1.
         25    2    1    2    0    0 -0.17586446031E+01  0.34651272619E+02  0.24640864526E+03  0.27847432221E+03  0.12500769634E+03 0.  0.
         23    2    1    2    0    0  0.17586446031E+01 -0.34651272619E+02  0.16663593904E+03  0.20166927037E+03  0.10816263175E+03 0.  0.
          5    1    4    4  502    0 -0.35796576494E+02 -0.17593527527E+02  0.15267658919E+03  0.15787070022E+03  0.47000000000E+01 0. -1.
         -5    1    4    4    0  502  0.37555221097E+02 -0.17057745092E+02  0.13959349845E+02  0.43798570152E+02  0.47000000000E+01 0.  1.
          5    1    3    3  503    0 -0.51132801791E+02  0.55180430754E+01  0.43351833214E+02  0.67427617942E+02  0.47000000000E+01 0. -1.
         -5    1    3    3    0  503  0.49374157187E+02  0.29133229543E+02  0.20305681205E+03  0.21104670426E+03  0.47000000000E+01 0.  1.
<mgrwt>
<rscale>  0 0.12549452E+03</rscale>
<asrwt>0</asrwt>
<pdfrwt beam="1">  1        1 0.68706779E-01 0.12973329E+03</pdfrwt>
<pdfrwt beam="2">  1       -1 0.51614625E-02 0.12973329E+03</pdfrwt>
<totfact> 0.83687457E+03</totfact>
</mgrwt>
</event>
<event>
 8    1  0.2018715E-005  0.1301736E+03  0.7546771E-02  0.1233792E+00
         -1   -1    0    0    0  501 -0.00000000000E+00  0.00000000000E+00  0.23407276733E+02  0.23407276733E+02  0.00000000000E+00 0.  1.
          1   -1    0    0  501    0  0.00000000000E+00 -0.00000000000E+00 -0.76953151231E+03  0.76953151231E+03  0.00000000000E+00 0. -1.
         25    2    1    2    0    0  0.18362909347E+02 -0.31353206906E+02 -0.55955103422E+03  0.57449327374E+03  0.12499976659E+03 0.  0.
         23    2    1    2    0    0 -0.18362909347E+02  0.31353206906E+02 -0.18657320136E+03  0.21844551531E+03  0.10765065569E+03 0.  0.
          5    1    4    4  502    0 -0.31636235470E+02 -0.24704859954E+02 -0.13521419148E+03  0.14112458708E+03  0.47000000000E+01 0. -1.
         -5    1    3    3    0  503 -0.16736281146E+02 -0.61968775885E+02 -0.16392118489E+03  0.17610359777E+03  0.47000000000E+01 0. -1.
          5    1    3    3  503    0  0.35099190493E+02  0.30615568979E+02 -0.39562984932E+03  0.39838967596E+03  0.47000000000E+01 0. -1.
         -5    1    4    4    0  502  0.13273326122E+02  0.56058066860E+02 -0.51359009874E+02  0.77320928226E+02  0.47000000000E+01 0.  1.
<mgrwt>
<rscale>  0 0.12582103E+03</rscale>
<asrwt>0</asrwt>
<pdfrwt beam="1">  1        1 0.11838942E+00 0.13017358E+03</pdfrwt>
<pdfrwt beam="2">  1       -1 0.36011207E-02 0.13017358E+03</pdfrwt>
<totfact> 0.67812582E+03</totfact>
</mgrwt>
</event>
<event>
 8    1  0.2018715E-005  0.2982506E+03  0.7546771E-02  0.1086731E+00
         -2   -1    0    0    0  501 -0.00000000000E+00  0.00000000000E+00  0.12904527056E+03  0.12904527056E+03  0.00000000000E+00 0.  1.
          2   -1    0    0  501    0  0.00000000000E+00 -0.00000000000E+00 -0.70253815888E+03  0.70253815888E+03  0.00000000000E+00 0. -1.
         25    2    1    2    0    0 -0.26374580125E+03  0.61372865215E+02 -0.21164793961E+03  0.36571614239E+03  0.12499988081E+03 0.  0.
         23    2    1    2    0    0  0.26374580125E+03 -0.61372865215E+02 -0.36184494871E+03  0.46586728705E+03  0.11301365393E+03 0.  0.
          5    1    4    4  502    0  0.25249142633E+03 -0.30968546297E+02 -0.34600513529E+03  0.42947946968E+03  0.47000000000E+01 0. -1.
         -5    1    3    3    0  503 -0.64686690669E+02  0.74180209376E+02 -0.76146105795E+02  0.12452867477E+03  0.47000000000E+01 0.  1.
          5    1    3    3  503    0 -0.19905911058E+03 -0.12807344161E+02 -0.13550183381E+03  0.24118746762E+03  0.47000000000E+01 0.  1.
         -5    1    4    4    0  502  0.11254374917E+02 -0.30404318918E+02 -0.15839813423E+02  0.36387817369E+02  0.47000000000E+01 0.  1.
<mgrwt>
<rscale>  0 0.29703785E+03</rscale>
<asrwt>0</asrwt>
<pdfrwt beam="1">  1        2 0.10808279E+00 0.29825064E+03</pdfrwt>
<pdfrwt beam="2">  1       -2 0.19853119E-01 0.29825064E+03</pdfrwt>
<totfact> 0.89083024E+02</totfact>
</mgrwt>
</event>
<event>
 8    1  0.2018715E-005  0.1647120E+03  0.7546771E-02  0.1193110E+00
          3   -1    0    0  501    0  0.00000000000E+00  0.00000000000E+00  0.13877875919E+03  0.13877875919E+03  0.00000000000E+00 0. -1.
         -3   -1    0    0    0  501 -0.00000000000E+00 -0.00000000000E+00 -0.17018383222E+03  0.17018383222E+03  0.00000000000E+00 0.  1.
         25    2    1    2    0    0  0.27677244644E+02 -0.10363197620E+03 -0.55368433491E+02  0.17376915935E+03  0.12499776379E+03 0.  0.
         23    2    1    2    0    0 -0.27677244644E+02  0.10363197620E+03  0.23963360455E+02  0.13519343205E+03  0.78723599155E+02 0.  0.
          5    1    3    3  502    0  0.72536816548E+02 -0.30614077723E+02 -0.27625146976E+02  0.83570630339E+02  0.47000000000E+01 0. -1.
         -5    1    4    4    0  503  0.22018660546E+02  0.47323286446E+02 -0.87666289624E+01  0.53134345161E+02  0.47000000000E+01 0.  1.
          5    1    4    4  503    0 -0.49695905190E+02  0.56308689755E+02  0.32729989417E+02  0.82059086894E+02  0.47000000000E+01 0. -1.
         -5    1    3    3    0  502 -0.44859571904E+02 -0.73017898478E+02 -0.27743286515E+02  0.90198529014E+02  0.47000000000E+01 0. -1.
<mgrwt>
<rscale>  0 0.15615286E+03</rscale>
<asrwt>0</asrwt>
<pdfrwt beam="1">  1        3 0.21350578E-01 0.16471204E+03</pdfrwt>
<pdfrwt beam="2">  1       -3 0.26182128E-01 0.16471204E+03</pdfrwt>
<totfact> 0.65622593E+02</totfact>
</mgrwt>
</event>
<event>
 8    1  0.2018715E-005  0.1528446E+03  0.7546771E-02  0.1210785E+00
          2   -1    0    0  501    0  0.00000000000E+00  0.00000000000E+00  0.29388188616E+03  0.29388188616E+03  0.00000000000E+00 0. -1.
         -2   -1    0    0    0  501 -0.00000000000E+00 -0.00000000000E+00 -0.18519246271E+03  0.18519246271E+03  0.00000000000E+00 0.  1.
         25    2    1    2    0    0  0.85893549916E+02  0.18928652830E+02 -0.13899401596E+03  0.20659335971E+03  0.12500193594E+03 0.  0.
         23    2    1    2    0    0 -0.85893549916E+02 -0.18928652830E+02  0.24768343941E+03  0.27248098916E+03  0.71852679025E+02 0.  0.
          5    1    4    4  502    0 -0.82326352373E+02 -0.38611563643E+02  0.21920358254E+03  0.23736213207E+03  0.47000000000E+01 0. -1.
         -5    1    3    3    0  503  0.94985191856E+02  0.42344524140E+02 -0.52871257615E+02  0.11675917642E+03  0.47000000000E+01 0.  1.
          5    1    3    3  503    0 -0.90916419396E+01 -0.23415871310E+02 -0.86122758348E+02  0.89834183293E+02  0.47000000000E+01 0.  1.
         -5    1    4    4    0  502 -0.35671975427E+01  0.19682910813E+02  0.28479856870E+02  0.35118857096E+02  0.47000000000E+01 0.  1.
<mgrwt>
<rscale>  0 0.14190781E+03</rscale>
<asrwt>0</asrwt>
<pdfrwt beam="1">  1        2 0.45212598E-01 0.15284463E+03</pdfrwt>
<pdfrwt beam="2">  1       -2 0.28491148E-01 0.15284463E+03</pdfrwt>
<totfact> 0.12422850E+03</totfact>
</mgrwt>
</event>
<event>
 8    1  0.2018715E-005  0.1532545E+03  0.7546771E-02  0.1201366E+00
          2   -1    0    0  501    0  0.00000000000E+00  0.00000000000E+00  0.23889010794E+03  0.23889010794E+03  0.00000000000E+00 0. -1.
         -2   -1    0    0    0  501 -0.00000000000E+00 -0.00000000000E+00 -0.90866940521E+02  0.90866940521E+02  0.00000000000E+00 0.  1.
         25    2    1    2    0    0 -0.88323664834E+02 -0.78195790899E+01  0.10298440115E+03  0.18464218111E+03  0.12499893031E+03 0.  0.
         23    2    1    2    0    0  0.88323664834E+02  0.78195790899E+01  0.45038766267E+02  0.14511486735E+03  0.10567695431E+03 0.  0.
          5    1    4    4  502    0 -0.10249743710E+00  0.40676170885E+02  0.26750218717E+02  0.48910383203E+02  0.47000000000E+01 0. -1.
         -5    1    3    3    0  503 -0.10619648278E+03  0.29097889926E+02  0.61928670662E+02  0.12641847335E+03  0.47000000000E+01 0. -1.
          5    1    3    3  503    0  0.17872817946E+02 -0.36917469016E+02  0.41055730487E+02  0.58223707763E+02  0.47000000000E+01 0. -1.
         -5    1    4    4    0  502  0.88426162271E+02 -0.32856591795E+02  0.18288547549E+02  0.96204484147E+02  0.47000000000E+01 0.  1.
<mgrwt>
<rscale>  0 0.14927578E+03</rscale>
<asrwt>0</asrwt>
<pdfrwt beam="1">  1        2 0.36752324E-01 0.15325452E+03</pdfrwt>
<pdfrwt beam="2">  1       -2 0.13979529E-01 0.15325452E+03</pdfrwt>
<totfact> 0.51974295E+03</totfact>
</mgrwt>
</event>
<event>
 8    1  0.2018715E-005  0.1382585E+03  0.7546771E-02  0.1233050E+00
          4   -1    0    0  501    0  0.00000000000E+00  0.00000000000E+00  0.21671639158E+02  0.21671639158E+02  0.00000000000E+00 0. -1.
         -4   -1    0    0    0  501 -0.00000000000E+00 -0.00000000000E+00 -0.69990582700E+03  0.69990582700E+03  0.00000000000E+00 0.  1.
         25    2    1    2    0    0  0.43483953108E+02 -0.40024054580E+02 -0.50275008760E+03  0.52141448463E+03  0.12499053994E+03 0.  0.
         23    2    1    2    0    0 -0.43483953108E+02  0.40024054580E+02 -0.17548410024E+03  0.20016298153E+03  0.76011647887E+02 0.  0.
          5    1    3    3  502    0  0.26801660387E+02  0.34858875039E+02 -0.32168919604E+03  0.32471448847E+03  0.47000000000E+01 0.  1.
         -5    1    4    4    0  503 -0.54060226966E+02  0.17232463668E+02 -0.16102743902E+03  0.17079634674E+03  0.47000000000E+01 0.  1.
          5    1    4    4  503    0  0.10576273858E+02  0.22791590912E+02 -0.14456661222E+02  0.29366634787E+02  0.47000000000E+01 0. -1.
         -5    1    3    3    0  502  0.16682292720E+02 -0.74882929619E+02 -0.18106089156E+03  0.19669999616E+03  0.47000000000E+01 0.  1.
<mgrwt>
<rscale>  0 0.12630108E+03</rscale>
<asrwt>0</asrwt>
<pdfrwt beam="1">  1        4 0.33340985E-02 0.13825850E+03</pdfrwt>
<pdfrwt beam="2">  1       -4 0.10767781E+00 0.13825850E+03</pdfrwt>
<totfact> 0.54754539E+02</totfact>
</mgrwt>
</event>
<event>
 7    1  0.2018715E-005  0.1361093E+03  0.7546771E-02  0.1220108E+00
         -1   -1    0    0    0  501 -0.00000000000E+00  0.00000000000E+00  0.14544953059E+02  0.14544953059E+02  0.00000000000E+00 0.  1.
          1   -1    0    0  501    0  0.00000000000E+00 -0.00000000000E+00 -0.13374329340E+04  0.13374329340E+04  0.00000000000E+00 0. -1.
         25    2    1    2    0    0  0.23813596525E+02 -0.35242093107E+02 -0.83843224995E+03  0.84876511456E+03  0.12499795774E+03 0.  0.
          5    1    1    2  502    0 -0.50061106816E+02  0.21102179936E+02 -0.46295532520E+03  0.46615570312E+03  0.47000000000E+01 0. -1.
         -5    1    3    3    0  503 -0.23493092451E+02  0.37088260563E+02 -0.34280511611E+03  0.34563695128E+03  0.47000000000E+01 0.  1.
          5    1    3    3  503    0  0.47306688976E+02 -0.72330353670E+02 -0.49562713384E+03  0.50312816328E+03  0.47000000000E+01 0.  1.
         -5    1    1    2    0  502  0.26247510291E+02  0.14139913171E+02 -0.21500405758E+02  0.37057069349E+02  0.47000000000E+01 0.  1.
<mgrwt>
<rscale>  0 0.13507941E+03</rscale>
<asrwt>0</asrwt>
<pdfrwt beam="1">  1        1 0.20575896E+00 0.13610929E+03</pdfrwt>
<pdfrwt beam="2">  1       -1 0.22376845E-02 0.13610929E+03</pdfrwt>
<totfact> 0.52465886E+03</totfact>
</mgrwt>
</event>
<event>
 8    1  0.2018715E-005  0.1527950E+03  0.7546771E-02  0.1211327E+00
          2   -1    0    0  501    0  0.00000000000E+00  0.00000000000E+00  0.39604261223E+03  0.39604261223E+03  0.00000000000E+00 0. -1.
         -2   -1    0    0    0  501 -0.00000000000E+00 -0.00000000000E+00 -0.44428038554E+02  0.44428038554E+02  0.00000000000E+00 0.  1.
         25    2    1    2    0    0  0.17496190561E+02  0.86109677105E+02  0.19593475262E+03  0.24846878804E+03  0.12500127268E+03 0.  0.
         23    2    1    2    0    0 -0.17496190561E+02 -0.86109677105E+02  0.15567982106E+03  0.19200186274E+03  0.70053661132E+02 0.  0.
          5    1    3    3  502    0  0.35722899860E+02 -0.37459170246E+01  0.49464465207E+01  0.36561110513E+02  0.47000000000E+01 0.  1.
         -5    1    3    3    0  502 -0.18226709299E+02  0.89855594129E+02  0.19098830610E+03  0.21190767753E+03  0.47000000000E+01 0.  1.
          5    1    4    4  503    0 -0.40815654833E+01 -0.20592976017E+02  0.10702565231E+03  0.10916643298E+03  0.47000000000E+01 0. -1.
         -5    1    4    4    0  503 -0.13414625078E+02 -0.65516701088E+02  0.48654168748E+02  0.82835429763E+02  0.47000000000E+01 0.  1.
<mgrwt>
<rscale>  0 0.14149818E+03</rscale>
<asrwt>0</asrwt>
<pdfrwt beam="1">  1        2 0.60929630E-01 0.15279500E+03</pdfrwt>
<pdfrwt beam="2">  1       -2 0.68350831E-02 0.15279500E+03</pdfrwt>
<totfact> 0.93532561E+03</totfact>
</mgrwt>
</event>
<event>
 7    1  0.2018715E-005  0.1641791E+03  0.7546771E-02  0.1198749E+00
         -4   -1    0    0    0  501 -0.00000000000E+00  0.00000000000E+00  0.14405234115E+03  0.14405234115E+03  0.00000000000E+00 0. -1.
          4   -1    0    0  501    0  0.00000000000E+00 -0.00000000000E+00 -0.14072122179E+03  0.14072122179E+03  0.00000000000E+00 0.  1.
         25    2    1    2    0    0  0.98536377879E+02 -0.40264201895E+02  0.17752665146E+02  0.16513608238E+03  0.12499657942E+03 0.  0.
          5    1    1    2  502    0 -0.59437099842E+02 -0.11559413457E+01 -0.18228920327E+02  0.62357746706E+02  0.47000000000E+01 0. -1.
         -5    1    3    3    0  503  0.12005382566E+03 -0.46162066218E+01  0.24466496008E+02  0.12269853237E+03  0.47000000000E+01 0.  1.
          5    1    3    3  503    0 -0.21517447783E+02 -0.35647995273E+02 -0.67138308620E+01  0.42437550010E+02  0.47000000000E+01 0.  1.
         -5    1    1    2    0  502 -0.39099278038E+02  0.41420143240E+02  0.38073745315E+01  0.57279733850E+02  0.47000000000E+01 0.  1.
<mgrwt>
<rscale>  0 0.15141209E+03</rscale>
<asrwt>0</asrwt>
<pdfrwt beam="1">  1        4 0.21649419E-01 0.16417907E+03</pdfrwt>
<pdfrwt beam="2">  1       -4 0.22161899E-01 0.16417907E+03</pdfrwt>
<totfact> 0.62799256E+02</totfact>
</mgrwt>
</event>
<event>
 8    1  0.2018715E-005  0.1429868E+03  0.7546771E-02  0.1226647E+00
          2   -1    0    0  501    0  0.00000000000E+00  0.00000000000E+00  0.35955040554E+03  0.35955040554E+03  0.00000000000E+00 0.  1.
         -2   -1    0    0    0  501 -0.00000000000E+00 -0.00000000000E+00 -0.40980072689E+02  0.40980072689E+02  0.00000000000E+00 0. -1.
         25    2    1    2    0    0 -0.32041566115E+02 -0.61589902271E+02  0.19960547125E+03  0.24553526276E+03  0.12500097234E+03 0.  0.
         23    2    1    2    0    0  0.32041566115E+02  0.61589902271E+02  0.11896486160E+03  0.15499521547E+03  0.71069687636E+02 0.  0.
          5    1    3    3  502    0 -0.46507560550E+02 -0.85195479550E+02  0.19388792573E+03  0.21687747847E+03  0.47000000000E+01 0. -1.
         -5    1    4    4    0  503  0.33706821899E+02  0.22838021627E+02  0.10629174456E+03  0.11391992818E+03  0.47000000000E+01 0.  1.
          5    1    4    4  503    0 -0.16652557838E+01  0.38751880644E+02  0.12673117041E+02  0.41075287288E+02  0.47000000000E+01 0. -1.
         -5    1    3    3    0  502  0.14465994435E+02  0.23605577279E+02  0.57175455180E+01  0.28657784290E+02  0.47000000000E+01 0. -1.
<mgrwt>
<rscale>  0 0.13054685E+03</rscale>
<asrwt>0</asrwt>
<pdfrwt beam="1">  1        2 0.55315445E-01 0.14298679E+03</pdfrwt>
<pdfrwt beam="2">  1       -2 0.63046268E-02 0.14298679E+03</pdfrwt>
<totfact> 0.11677663E+04</totfact>
</mgrwt>
</event>
<event>
 8    1  0.2018715E-005  0.1953813E+03  0.7546771E-02  0.1159930E+00
         -4   -1    0    0    0  501 -0.00000000000E+00  0.00000000000E+00  0.15947172797E+03  0.15947172797E+03  0.00000000000E+00 0.  1.
          4   -1    0    0  501    0  0.00000000000E+00 -0.00000000000E+00 -0.21135324280E+03  0.21135324280E+03  0.00000000000E+00 0. -1.
         25    2    1    2    0    0  0.12136650595E+03  0.88432092873E+02 -0.44073963863E+01  0.19543097835E+03  0.12499511327E+03 0.  0.
         23    2    1    2    0    0 -0.12136650595E+03 -0.88432092873E+02 -0.47474118439E+02  0.17539399242E+03  0.77195834329E+02 0.  0.
          5    1    3    3  502    0  0.10155800005E+02 -0.18712912878E+02 -0.31765301871E+02  0.38528402316E+02  0.47000000000E+01 0.  1.
         -5    1    4    4    0  503 -0.96964529464E+02 -0.39295728733E+02 -0.32668763444E+01  0.10478089879E+03  0.47000000000E+01 0.  1.
          5    1    4    4  503    0 -0.24401976484E+02 -0.49136364140E+02 -0.44207242095E+02  0.70613093622E+02  0.47000000000E+01 0. -1.
         -5    1    3    3    0  502  0.11121070594E+03  0.10714500575E+03  0.27357905484E+02  0.15690257603E+03  0.47000000000E+01 0.  1.
<mgrwt>
<rscale>  0 0.18838028E+03</rscale>
<asrwt>0</asrwt>
<pdfrwt beam="1">  1        4 0.32515883E-01 0.19538127E+03</pdfrwt>
<pdfrwt beam="2">  1       -4 0.24534112E-01 0.19538127E+03</pdfrwt>
<totfact> 0.25054178E+02</totfact>
</mgrwt>
</event>
<event>
 8    1  0.2018715E-005  0.1455415E+03  0.7546771E-02  0.1219900E+00
         -1   -1    0    0    0  501 -0.00000000000E+00  0.00000000000E+00  0.27605764894E+02  0.27605764894E+02  0.00000000000E+00 0.  1.
          1   -1    0    0  501    0  0.00000000000E+00 -0.00000000000E+00 -0.60282210013E+03  0.60282210013E+03  0.00000000000E+00 0. -1.
         25    2    1    2    0    0 -0.70698219218E+02  0.23642661021E+02 -0.27360160233E+03  0.30990346962E+03  0.12500044025E+03 0.  0.
         23    2    1    2    0    0  0.70698219218E+02 -0.23642661021E+02 -0.30161473290E+03  0.32052439540E+03  0.78785958921E+02 0.  0.
          5    1    3    3  502    0 -0.88869911211E+02 -0.25295887565E+02 -0.18793615216E+03  0.20947513059E+03  0.47000000000E+01 0.  1.
         -5    1    4    4    0  503  0.20121660153E+02 -0.44366852206E+02 -0.96524059215E+02  0.10822330058E+03  0.47000000000E+01 0.  1.
          5    1    4    4  503    0  0.50576559065E+02  0.20724191185E+02 -0.20509067369E+03  0.21230109482E+03  0.47000000000E+01 0. -1.
         -5    1    3    3    0  502  0.18171691993E+02  0.48938548585E+02 -0.85665450165E+02  0.10042833903E+03  0.47000000000E+01 0.  1.
<mgrwt>
<rscale>  0 0.13522641E+03</rscale>
<asrwt>0</asrwt>
<pdfrwt beam="1">  1        1 0.92741856E-01 0.14554148E+03</pdfrwt>
<pdfrwt beam="2">  1       -1 0.42470410E-02 0.14554148E+03</pdfrwt>
<totfact> 0.75732339E+03</totfact>
</mgrwt>
</event>
<event>
 8    1  0.2018715E-005  0.1264042E+03  0.7546771E-02  0.1234162E+00
          2   -1    0    0  501    0  0.00000000000E+00  0.00000000000E+00  0.19039823061E+02  0.19039823061E+02  0.00000000000E+00 0. -1.
         -2   -1    0    0    0  501 -0.00000000000E+00 -0.00000000000E+00 -0.84567208856E+03  0.84567208856E+03  0.00000000000E+00 0.  1.
         25    2    1    2    0    0  0.10129071836E+01 -0.18785834873E+02 -0.33991989555E+03  0.36266175390E+03  0.12499631505E+03 0.  0.
         23    2    1    2    0    0 -0.10129071836E+01  0.18785834873E+02 -0.48671236995E+03  0.50205015773E+03  0.12170249067E+03 0.  0.
          5    1    4    4  502    0 -0.25734295946E+02  0.57178470444E+02 -0.15645208911E+03  0.16861487971E+03  0.47000000000E+01 0. -1.
         -5    1    4    4    0  502  0.24721388763E+02 -0.38392635571E+02 -0.33026028084E+03  0.33343527802E+03  0.47000000000E+01 0.  1.
          5    1    3    3  503    0  0.49316620527E+02 -0.47014398356E+02 -0.15436920042E+03  0.16880291097E+03  0.47000000000E+01 0.  1.
         -5    1    3    3    0  503 -0.48303713343E+02  0.28228563484E+02 -0.18555069513E+03  0.19385884293E+03  0.47000000000E+01 0.  1.
<mgrwt>
<rscale>  0 0.12558214E+03</rscale>
<asrwt>0</asrwt>
<pdfrwt beam="1">  1        2 0.29292032E-02 0.12640416E+03</pdfrwt>
<pdfrwt beam="2">  1       -2 0.13010341E+00 0.12640416E+03</pdfrwt>
<totfact> 0.14120683E+03</totfact>
</mgrwt>
</event>
<event>
 8    1  0.2018715E-005  0.1380089E+03  0.7546771E-02  0.1222088E+00
          1   -1    0    0  501    0  0.00000000000E+00  0.00000000000E+00  0.63497342349E+02  0.63497342349E+02  0.00000000000E+00 0. -1.
         -1   -1    0    0    0  501 -0.00000000000E+00 -0.00000000000E+00 -0.26525949084E+03  0.26525949084E+03  0.00000000000E+00 0.  1.
         25    2    1    2    0    0  0.23838736901E+02  0.53408348540E+02 -0.11036784975E+03  0.17671310465E+03  0.12500288807E+03 0.  0.
         23    2    1    2    0    0 -0.23838736901E+02 -0.53408348540E+02 -0.91394298734E+02  0.15204372854E+03  0.10650652785E+03 0.  0.
          5    1    3    3  502    0  0.28075087492E+02  0.74534131363E+02 -0.18054589542E+02  0.81802233950E+02  0.47000000000E+01 0. -1.
         -5    1    3    3    0  502 -0.42363505900E+01 -0.21125782823E+02 -0.92313260210E+02  0.94910870699E+02  0.47000000000E+01 0. -1.
          5    1    4    4  503    0  0.50514375769E+01 -0.77800373143E+02 -0.39112739214E+02  0.87351653972E+02  0.47000000000E+01 0. -1.
         -5    1    4    4    0  503 -0.28890174478E+02  0.24392024603E+02 -0.52281559520E+02  0.64692074564E+02  0.47000000000E+01 0.  1.
<mgrwt>
<rscale>  0 0.13368486E+03</rscale>
<asrwt>0</asrwt>
<pdfrwt beam="1">  1        1 0.97688219E-02 0.13800891E+03</pdfrwt>
<pdfrwt beam="2">  1       -1 0.40809152E-01 0.13800891E+03</pdfrwt>
<totfact> 0.37886294E+03</totfact>
</mgrwt>
</event>
<event>
 8    1  0.2018715E-005  0.1254390E+03  0.7546771E-02  0.1242692E+00
         -2   -1    0    0    0  501 -0.00000000000E+00  0.00000000000E+00  0.19561608409E+03  0.19561608409E+03  0.00000000000E+00 0.  1.
          2   -1    0    0  501    0  0.00000000000E+00 -0.00000000000E+00 -0.68754330190E+02  0.68754330190E+02  0.00000000000E+00 0. -1.
         25    2    1    2    0    0 -0.13448897184E+01 -0.10388056885E+02  0.59413775482E+02  0.13879821891E+03  0.12500091360E+03 0.  0.
         23    2    1    2    0    0  0.13448897184E+01  0.10388056885E+02  0.67447978421E+02  0.12557219537E+03  0.10540126187E+03 0.  0.
          5    1    4    4  502    0 -0.26128095073E+02 -0.39463069940E+02  0.21158888582E+02  0.52055737505E+02  0.47000000000E+01 0. -1.
         -5    1    3    3    0  503 -0.38534765796E+02 -0.29807778541E+02  0.78467246509E+02  0.92480433667E+02  0.47000000000E+01 0. -1.
          5    1    3    3  503    0  0.37189876078E+02  0.19419721655E+02 -0.19053471027E+02  0.46317785245E+02  0.47000000000E+01 0. -1.
         -5    1    4    4    0  502  0.27472984792E+02  0.49851126825E+02  0.46289089839E+02  0.73516457866E+02  0.47000000000E+01 0.  1.
<mgrwt>
<rscale>  0 0.12024568E+03</rscale>
<asrwt>0</asrwt>
<pdfrwt beam="1">  1        2 0.10577589E-01 0.12543902E+03</pdfrwt>
<pdfrwt beam="2">  1       -2 0.30094782E-01 0.12543902E+03</pdfrwt>
<totfact> 0.57279179E+03</totfact>
</mgrwt>
</event>
<event>
 7    1  0.2018715E-005  0.1604133E+03  0.7546771E-02  0.1206337E+00
          2   -1    0    0  501    0  0.00000000000E+00  0.00000000000E+00  0.96647676507E+03  0.96647676507E+03  0.00000000000E+00 0.  1.
         -2   -1    0    0    0  501 -0.00000000000E+00 -0.00000000000E+00 -0.18894151380E+02  0.18894151380E+02  0.00000000000E+00 0. -1.
         25    2    1    2    0    0  0.69057523492E+02 -0.73062636736E+02  0.50936852762E+03  0.53403063488E+03  0.12500132649E+03 0.  0.
          5    1    3    3  502    0  0.90707150024E+02 -0.11975960851E+02  0.35307483444E+03  0.36476724005E+03  0.47000000000E+01 0. -1.
         -5    1    3    3    0  502 -0.21649626532E+02 -0.61086675884E+02  0.15629369318E+03  0.16926339482E+03  0.47000000000E+01 0. -1.
          5    1    1    2  503    0 -0.29863276990E+02  0.40329371873E+02  0.14106858811E+03  0.14980223663E+03  0.47000000000E+01 0. -1.
         -5    1    1    2    0  503 -0.39194246502E+02  0.32733264863E+02  0.29714549797E+03  0.30153804495E+03  0.47000000000E+01 0.  1.
<mgrwt>
<rscale>  0 0.14532628E+03</rscale>
<asrwt>0</asrwt>
<pdfrwt beam="1">  1        2 0.14868869E+00 0.16041329E+03</pdfrwt>
<pdfrwt beam="2">  1       -2 0.29067933E-02 0.16041329E+03</pdfrwt>
<totfact> 0.11870419E+04</totfact>
</mgrwt>
</event>
