<event>
 8    1  0.3520338E-004  0.2471332E+03  0.7546771E-02  0.1117779E+00
         -2   -1    0    0    0  501 -0.00000000000E+00  0.00000000000E+00  0.11441833105E+03  0.11441833105E+03  0.00000000000E+00 0.  1.
          2   -1    0    0  501    0  0.00000000000E+00 -0.00000000000E+00 -0.59868515711E+03  0.59868515711E+03  0.00000000000E+00 0. -1.
         25    2    1    2    0    0  0.47448727473E+02 -0.20784295148E+03 -0.10411048633E+03  0.26816748425E+03  0.12499892811E+03 0.  0.
         23    2    1    2    0    0 -0.47448727473E+02  0.20784295148E+03 -0.38015633973E+03  0.44493600392E+03  0.89437859582E+02 0.  0.
          5    1    3    3  502    0 -0.39789780450E+02 -0.71228065869E+02 -0.55823035414E+02  0.98969516915E+02  0.47000000000E+01 0.  1.
         -5    1    3    3    0  502  0.87238507924E+02 -0.13661488561E+03 -0.48287450912E+02  0.16919796733E+03  0.47000000000E+01 0.  1.
          5    1    4    4  503    0 -0.33521145734E+02  0.15404224920E+03 -0.34410119983E+03  0.37852398534E+03  0.47000000000E+01 0. -1.
         -5    1    4    4    0  503 -0.13927581739E+02  0.53800702280E+02 -0.36055139901E+02  0.66412018583E+02  0.47000000000E+01 0.  1.
<mgrwt>
<rscale>  0 0.24304738E+03</rscale>
<asrwt>0</asrwt>
<pdfrwt beam="1">  1        2 0.92105408E-01 0.24713318E+03</pdfrwt>
<pdfrwt beam="2">  1       -2 0.17602820E-01 0.24713318E+03</pdfrwt>
<totfact> 0.13227621E+03</totfact>
</mgrwt>
</event>
<event>
 8    1  0.3520338E-004  0.1841453E+03  0.7546771E-02  0.1169459E+00
         -2   -1    0    0    0  501 -0.00000000000E+00  0.00000000000E+00  0.20480686371E+02  0.20480686371E+02  0.00000000000E+00 0.  1.
          2   -1    0    0  501    0  0.00000000000E+00 -0.00000000000E+00 -0.14812899442E+04  0.14812899442E+04  0.00000000000E+00 0. -1.
         25    2    1    2    0    0  0.60096498521E+02  0.12112849666E+03 -0.86387971941E+03  0.88328798878E+03  0.12500319868E+03 0.  0.
         23    2    1    2    0    0 -0.60096498521E+02 -0.12112849666E+03 -0.59692953847E+03  0.61848264184E+03  0.88950562249E+02 0.  0.
          5    1    4    4  502    0 -0.77279657035E+01 -0.62915416342E+02 -0.42213248230E+03  0.42689107941E+03  0.47000000000E+01 0. -1.
         -5    1    3    3    0  503 -0.67537390929E+01  0.85669395324E+02 -0.24288695169E+03  0.25768395292E+03  0.47000000000E+01 0. -1.
          5    1    3    3  503    0  0.66850237614E+02  0.35459101332E+02 -0.62099276772E+03  0.62560403587E+03  0.47000000000E+01 0. -1.
         -5    1    4    4    0  502 -0.52368532817E+02 -0.58213080314E+02 -0.17479705617E+03  0.19159156243E+03  0.47000000000E+01 0.  1.
<mgrwt>
<rscale>  0 0.17829933E+03</rscale>
<asrwt>0</asrwt>
<pdfrwt beam="1">  1        2 0.22789069E+00 0.18414533E+03</pdfrwt>
<pdfrwt beam="2">  1       -2 0.31508757E-02 0.18414533E+03</pdfrwt>
<totfact> 0.54515256E+03</totfact>
</mgrwt>
</event>
<event>
 8    1  0.3520338E-004  0.3271745E+03  0.7546771E-02  0.1073710E+00
          1   -1    0    0  501    0  0.00000000000E+00  0.00000000000E+00  0.21801574206E+03  0.21801574206E+03  0.00000000000E+00 0. -1.
         -1   -1    0    0    0  501 -0.00000000000E+00 -0.00000000000E+00 -0.47435658673E+03  0.47435658673E+03  0.00000000000E+00 0.  1.
         25    2    1    2    0    0 -0.30028246707E+03 -0.35314918003E+02 -0.14210516492E+03  0.35670299152E+03  0.12500577107E+03 0.  0.
         23    2    1    2    0    0  0.30028246707E+03  0.35314918003E+02 -0.11423567976E+03  0.33566933727E+03  0.90594756979E+02 0.  0.
          5    1    4    4  502    0  0.18188877912E+03  0.48760104730E+02 -0.32637055257E+02  0.19117620971E+03  0.47000000000E+01 0. -1.
         -5    1    3    3    0  503 -0.51649203833E+02 -0.51317569879E+02 -0.71404194866E+01  0.73308995528E+02  0.47000000000E+01 0.  1.
          5    1    3    3  503    0 -0.24863326324E+03  0.16002651876E+02 -0.13496474543E+03  0.28339399599E+03  0.47000000000E+01 0.  1.
         -5    1    4    4    0  502  0.11839368795E+03 -0.13445186727E+02 -0.81598624502E+02  0.14449312757E+03  0.47000000000E+01 0.  1.
<mgrwt>
<rscale>  0 0.32425011E+03</rscale>
<asrwt>0</asrwt>
<pdfrwt beam="1">  1        1 0.33540884E-01 0.32717449E+03</pdfrwt>
<pdfrwt beam="2">  1       -1 0.72977935E-01 0.32717449E+03</pdfrwt>
<totfact> 0.25958199E+02</totfact>
</mgrwt>
</event>
<event>
 8    1  0.3520338E-004  0.1972695E+03  0.7546771E-02  0.1156451E+00
         -1   -1    0    0    0  501 -0.00000000000E+00  0.00000000000E+00  0.31579918195E+02  0.31579918195E+02  0.00000000000E+00 0.  1.
          1   -1    0    0  501    0  0.00000000000E+00 -0.00000000000E+00 -0.11163452613E+04  0.11163452613E+04  0.00000000000E+00 0. -1.
         25    2    1    2    0    0 -0.14655599873E+03  0.42561200268E+02 -0.54657205710E+03  0.58108198553E+03  0.12500057510E+03 0.  0.
         23    2    1    2    0    0  0.14655599873E+03 -0.42561200268E+02 -0.53819328604E+03  0.56684319400E+03  0.91482659091E+02 0.  0.
          5    1    4    4  502    0  0.29665296960E+01 -0.30459750344E+02 -0.13915003165E+03  0.14255321111E+03  0.47000000000E+01 0. -1.
         -5    1    3    3    0  503 -0.12834106405E+03  0.82831229713E+02 -0.42395071649E+03  0.45065368228E+03  0.47000000000E+01 0. -1.
          5    1    3    3  503    0 -0.18214934676E+02 -0.40270029445E+02 -0.12262134060E+03  0.13042830325E+03  0.47000000000E+01 0. -1.
         -5    1    4    4    0  502  0.14358946903E+03 -0.12101449924E+02 -0.39904325439E+03  0.42428998288E+03  0.47000000000E+01 0.  1.
<mgrwt>
<rscale>  0 0.19224606E+03</rscale>
<asrwt>0</asrwt>
<pdfrwt beam="1">  1        1 0.17174541E+00 0.19726951E+03</pdfrwt>
<pdfrwt beam="2">  1       -1 0.48584494E-02 0.19726951E+03</pdfrwt>
<totfact> 0.24040354E+03</totfact>
</mgrwt>
</event>
<event>
 8    1  0.3520338E-004  0.1318267E+03  0.7546771E-02  0.1236403E+00
         -1   -1    0    0    0  501 -0.00000000000E+00  0.00000000000E+00  0.64073860769E+02  0.64073860769E+02  0.00000000000E+00 0.  1.
          1   -1    0    0  501    0  0.00000000000E+00 -0.00000000000E+00 -0.21661367277E+03  0.21661367277E+03  0.00000000000E+00 0. -1.
         25    2    1    2    0    0 -0.41443685007E+02 -0.59743755326E+01 -0.81476415274E+02  0.15497317312E+03  0.12500002381E+03 0.  0.
         23    2    1    2    0    0  0.41443685007E+02  0.59743755326E+01 -0.71063396722E+02  0.12571436041E+03  0.94872661341E+02 0.  0.
          5    1    3    3  502    0 -0.41307177593E+02  0.26620983756E+02 -0.10396793254E+03  0.11509292199E+03  0.47000000000E+01 0. -1.
         -5    1    4    4    0  503  0.49006784878E+02  0.40336199353E+02 -0.27010907169E+02  0.69140097255E+02  0.47000000000E+01 0.  1.
          5    1    4    4  503    0 -0.75630998702E+01 -0.34361823820E+02 -0.44052489553E+02  0.56574263156E+02  0.47000000000E+01 0. -1.
         -5    1    3    3    0  502 -0.13650741450E+00 -0.32595359289E+02  0.22491517263E+02  0.39880251130E+02  0.47000000000E+01 0. -1.
<mgrwt>
<rscale>  0 0.12415072E+03</rscale>
<asrwt>0</asrwt>
<pdfrwt beam="1">  1        1 0.33325181E-01 0.13182670E+03</pdfrwt>
<pdfrwt beam="2">  1       -1 0.98575170E-02 0.13182670E+03</pdfrwt>
<totfact> 0.78115888E+03</totfact>
</mgrwt>
</event>
<event>
 8    1  0.3520338E-004  0.1273094E+03  0.7546771E-02  0.1242603E+00
         -1   -1    0    0    0  501 -0.00000000000E+00  0.00000000000E+00  0.33857318799E+02  0.33857318799E+02  0.00000000000E+00 0. -1.
          1   -1    0    0  501    0  0.00000000000E+00 -0.00000000000E+00 -0.49307197429E+03  0.49307197429E+03  0.00000000000E+00 0.  1.
         25    2    1    2    0    0  0.13940465151E+02  0.19733625179E+02 -0.37173475879E+03  0.39293053310E+03  0.12499568162E+03 0.  0.
         23    2    1    2    0    0 -0.13940465151E+02 -0.19733625179E+02 -0.87479896707E+02  0.13399875999E+03  0.98585915926E+02 0.  0.
          5    1    3    3  502    0 -0.47911946313E+02  0.24801032262E+01 -0.74020505198E+02  0.88333632900E+02  0.47000000000E+01 0. -1.
         -5    1    4    4    0  503 -0.89945386910E+01  0.20706438691E+02 -0.90002530341E+02  0.92909653951E+02  0.47000000000E+01 0.  1.
          5    1    4    4  503    0 -0.49459264596E+01 -0.40440063871E+02  0.25226336339E+01  0.41089106036E+02  0.47000000000E+01 0. -1.
         -5    1    3    3    0  502  0.61852411464E+02  0.17253521953E+02 -0.29771425359E+03  0.30459690020E+03  0.47000000000E+01 0. -1.
<mgrwt>
<rscale>  0 0.12029993E+03</rscale>
<asrwt>0</asrwt>
<pdfrwt beam="1">  1        1 0.75857224E-01 0.12730936E+03</pdfrwt>
<pdfrwt beam="2">  1       -1 0.52088184E-02 0.12730936E+03</pdfrwt>
<totfact> 0.72597216E+03</totfact>
</mgrwt>
</event>
<event>
 8    1  0.3520338E-004  0.1316088E+03  0.7546771E-02  0.1238743E+00
         -2   -1    0    0    0  501 -0.00000000000E+00  0.00000000000E+00  0.28551199255E+02  0.28551199255E+02  0.00000000000E+00 0.  1.
          2   -1    0    0  501    0  0.00000000000E+00 -0.00000000000E+00 -0.47661063099E+03  0.47661063099E+03  0.00000000000E+00 0. -1.
         25    2    1    2    0    0  0.40187358050E+02  0.92089303427E+01 -0.28999324735E+03  0.31846029275E+03  0.12498418462E+03 0.  0.
         23    2    1    2    0    0 -0.40187358050E+02 -0.92089303427E+01 -0.15806618439E+03  0.18670153750E+03  0.90403082426E+02 0.  0.
          5    1    3    3  502    0 -0.23637229339E+02  0.11612869731E+02 -0.22719981748E+03  0.22876936949E+03  0.47000000000E+01 0. -1.
         -5    1    4    4    0  503 -0.65749548697E+02 -0.16955182026E+02 -0.85826988914E+02  0.10953923214E+03  0.47000000000E+01 0.  1.
          5    1    4    4  503    0  0.25562190646E+02  0.77462516836E+01 -0.72239195473E+02  0.77162305359E+02  0.47000000000E+01 0. -1.
         -5    1    3    3    0  502  0.63824587390E+02 -0.24039393880E+01 -0.62793429869E+02  0.89690923258E+02  0.47000000000E+01 0. -1.
<mgrwt>
<rscale>  0 0.12267818E+03</rscale>
<asrwt>0</asrwt>
<pdfrwt beam="1">  1        2 0.73324710E-01 0.13160879E+03</pdfrwt>
<pdfrwt beam="2">  1       -2 0.43924923E-02 0.13160879E+03</pdfrwt>
<totfact> 0.14774481E+04</totfact>
</mgrwt>
</event>
<event>
 8    1  0.3609716E-004  0.1597954E+03  0.7546771E-02  0.1195138E+00
         -1   -1    0    0    0  501 -0.00000000000E+00  0.00000000000E+00  0.12538927504E+02  0.12538927504E+02  0.00000000000E+00 0.  1.
          1   -1    0    0  501    0  0.00000000000E+00 -0.00000000000E+00 -0.19419943491E+04  0.19419943491E+04  0.00000000000E+00 0. -1.
         25    2    1    2    0    0  0.70362050869E+02 -0.70400653912E+02 -0.13029645291E+04  0.13127265974E+04  0.12500994008E+03 0.  0.
         23    2    1    2    0    0 -0.70362050869E+02  0.70400653912E+02 -0.62649089252E+03  0.64180667924E+03  0.97559750084E+02 0.  0.
          5    1    3    3  502    0 -0.14828026981E+02 -0.72454512680E+02 -0.64879631243E+03  0.65301475620E+03  0.47000000000E+01 0. -1.
         -5    1    3    3    0  502  0.85190077850E+02  0.20538587682E+01 -0.65416821664E+03  0.65971184115E+03  0.47000000000E+01 0. -1.
          5    1    4    4  503    0  0.14676865753E+02  0.49136097306E+02 -0.24313048424E+03  0.24852422179E+03  0.47000000000E+01 0. -1.
         -5    1    4    4    0  503 -0.85038916622E+02  0.21264556606E+02 -0.38336040827E+03  0.39328245745E+03  0.47000000000E+01 0.  1.
<mgrwt>
<rscale>  0 0.15442520E+03</rscale>
<asrwt>0</asrwt>
<pdfrwt beam="1">  1        1 0.29876845E+00 0.15979535E+03</pdfrwt>
<pdfrwt beam="2">  1       -1 0.19290652E-02 0.15979535E+03</pdfrwt>
<totfact> 0.26566355E+03</totfact>
</mgrwt>
</event>
<event>
 8    1  0.3520338E-004  0.1552479E+03  0.7546771E-02  0.1202598E+00
         -2   -1    0    0    0  501 -0.00000000000E+00  0.00000000000E+00  0.16162519115E+02  0.16162519115E+02  0.00000000000E+00 0.  1.
          2   -1    0    0  501    0  0.00000000000E+00 -0.00000000000E+00 -0.13731534851E+04  0.13731534851E+04  0.00000000000E+00 0. -1.
         25    2    1    2    0    0  0.25554580630E+02 -0.88453268286E+02 -0.94099596143E+03  0.95371658150E+03  0.12499960452E+03 0.  0.
         23    2    1    2    0    0 -0.25554580630E+02  0.88453268286E+02 -0.41599500459E+03  0.43559942276E+03  0.90653163199E+02 0.  0.
          5    1    3    3  502    0  0.26656975509E+02  0.24788979879E+02 -0.13958525550E+03  0.14433025122E+03  0.47000000000E+01 0. -1.
         -5    1    3    3    0  502 -0.11023948793E+01 -0.11324224817E+03 -0.80141070594E+03  0.80938633028E+03  0.47000000000E+01 0. -1.
          5    1    4    4  503    0 -0.55635456723E+02  0.72999002135E+02 -0.34154072760E+03  0.35368957713E+03  0.47000000000E+01 0. -1.
         -5    1    4    4    0  503  0.30080876093E+02  0.15454266151E+02 -0.74454276988E+02  0.81909845627E+02  0.47000000000E+01 0.  1.
<mgrwt>
<rscale>  0 0.14828346E+03</rscale>
<asrwt>0</asrwt>
<pdfrwt beam="1">  1        2 0.21125432E+00 0.15524793E+03</pdfrwt>
<pdfrwt beam="2">  1       -2 0.24865421E-02 0.15524793E+03</pdfrwt>
<totfact> 0.87766971E+03</totfact>
</mgrwt>
</event>
<event>
 8    1  0.3520338E-004  0.1299889E+03  0.7546771E-02  0.1244447E+00
         -2   -1    0    0    0  501 -0.00000000000E+00  0.00000000000E+00  0.36412944572E+02  0.36412944572E+02  0.00000000000E+00 0. -1.
          2   -1    0    0  501    0  0.00000000000E+00 -0.00000000000E+00 -0.35884612465E+03  0.35884612465E+03  0.00000000000E+00 0.  1.
         25    2    1    2    0    0  0.27491151032E+02 -0.22728715534E+02 -0.23434026194E+03  0.26797848244E+03  0.12499900316E+03 0.  0.
         23    2    1    2    0    0 -0.27491151032E+02  0.22728715534E+02 -0.88092918138E+02  0.12728058678E+03  0.84661842940E+02 0.  0.
          5    1    3    3  502    0  0.41379405513E+02 -0.69400559967E+02 -0.14016519070E+03  0.16185506976E+03  0.47000000000E+01 0. -1.
         -5    1    4    4    0  503  0.10692802164E+02  0.33761621577E+02 -0.78318121379E+02  0.86081364104E+02  0.47000000000E+01 0.  1.
          5    1    4    4  503    0 -0.38183953196E+02 -0.11032906043E+02 -0.97747967590E+01  0.41199222676E+02  0.47000000000E+01 0. -1.
         -5    1    3    3    0  502 -0.13888254481E+02  0.46671844434E+02 -0.94175071238E+02  0.10612341268E+03  0.47000000000E+01 0. -1.
<mgrwt>
<rscale>  0 0.11918521E+03</rscale>
<asrwt>0</asrwt>
<pdfrwt beam="1">  1        2 0.55207096E-01 0.12998888E+03</pdfrwt>
<pdfrwt beam="2">  1       -2 0.56019915E-02 0.12998888E+03</pdfrwt>
<totfact> 0.13892908E+04</totfact>
</mgrwt>
</event>
<event>
 8    1  0.3520338E-004  0.1406361E+03  0.7546771E-02  0.1223795E+00
         -1   -1    0    0    0  501 -0.00000000000E+00  0.00000000000E+00  0.31592025517E+02  0.31592025517E+02  0.00000000000E+00 0.  1.
          1   -1    0    0  501    0  0.00000000000E+00 -0.00000000000E+00 -0.50221194602E+03  0.50221194602E+03  0.00000000000E+00 0. -1.
         25    2    1    2    0    0 -0.28329276199E+02 -0.57856159970E+02 -0.24677052754E+03  0.28403202680E+03  0.12501446257E+03 0.  0.
         23    2    1    2    0    0  0.28329276199E+02  0.57856159970E+02 -0.22384939296E+03  0.24977194473E+03  0.90153150298E+02 0.  0.
          5    1    4    4  502    0  0.52320422270E+01  0.48055351861E+02 -0.21831483903E+03  0.22365185009E+03  0.47000000000E+01 0. -1.
         -5    1    3    3    0  503  0.36839695447E+02 -0.25154941445E+02 -0.26817190916E+02  0.52260749787E+02  0.47000000000E+01 0.  1.
          5    1    3    3  503    0 -0.65168971646E+02 -0.32701218525E+02 -0.21995333662E+03  0.23177127702E+03  0.47000000000E+01 0.  1.
         -5    1    4    4    0  502  0.23097233972E+02  0.98008081093E+01 -0.55345539315E+01  0.26120094640E+02  0.47000000000E+01 0.  1.
<mgrwt>
<rscale>  0 0.13249855E+03</rscale>
<asrwt>0</asrwt>
<pdfrwt beam="1">  1        1 0.77263375E-01 0.14063605E+03</pdfrwt>
<pdfrwt beam="2">  1       -1 0.48603117E-02 0.14063605E+03</pdfrwt>
<totfact> 0.79021387E+03</totfact>
</mgrwt>
</event>
<event>
 8    1  0.3520338E-004  0.2579300E+03  0.7546771E-02  0.1110688E+00
         -1   -1    0    0    0  501 -0.00000000000E+00  0.00000000000E+00  0.29348932240E+03  0.29348932240E+03  0.00000000000E+00 0.  1.
          1   -1    0    0  501    0  0.00000000000E+00 -0.00000000000E+00 -0.22616506516E+03  0.22616506516E+03  0.00000000000E+00 0. -1.
         25    2    1    2    0    0 -0.22171792445E+03 -0.41763888929E+02 -0.25685237996E+02  0.25920578998E+03  0.12499939867E+03 0.  0.
         23    2    1    2    0    0  0.22171792445E+03  0.41763888929E+02  0.93009495228E+02  0.26044859758E+03  0.90992556503E+02 0.  0.
          5    1    4    4  502    0  0.13612572524E+03  0.19392829307E+02  0.82296092691E+01  0.13782638125E+03  0.47000000000E+01 0. -1.
         -5    1    3    3    0  503 -0.69451518182E+02 -0.66554249779E+02 -0.39825013824E+02  0.10421661704E+03  0.47000000000E+01 0. -1.
          5    1    3    3  503    0 -0.15226640627E+03  0.24790360849E+02  0.14139775829E+02  0.15498917294E+03  0.47000000000E+01 0. -1.
         -5    1    4    4    0  502  0.85592199211E+02  0.22371059623E+02  0.84779885959E+02  0.12262221633E+03  0.47000000000E+01 0.  1.
<mgrwt>
<rscale>  0 0.25418552E+03</rscale>
<asrwt>0</asrwt>
<pdfrwt beam="1">  1        1 0.34794625E-01 0.25793005E+03</pdfrwt>
<pdfrwt beam="2">  1       -1 0.45152204E-01 0.25793005E+03</pdfrwt>
<totfact> 0.62397252E+02</totfact>
</mgrwt>
</event>
<event>
 8    1  0.3520338E-004  0.1432011E+03  0.7546771E-02  0.1218517E+00
          1   -1    0    0  501    0  0.00000000000E+00  0.00000000000E+00  0.17424357544E+02  0.17424357544E+02  0.00000000000E+00 0. -1.
         -1   -1    0    0    0  501 -0.00000000000E+00 -0.00000000000E+00 -0.12845994023E+04  0.12845994023E+04  0.00000000000E+00 0.  1.
         25    2    1    2    0    0 -0.18062405742E+02  0.67491069211E+02 -0.10008047166E+04  0.10109978466E+04  0.12500107977E+03 0.  0.
         23    2    1    2    0    0  0.18062405742E+02 -0.67491069211E+02 -0.26637032814E+03  0.29102591332E+03  0.94136260750E+02 0.  0.
          5    1    4    4  502    0  0.46824931454E+02 -0.44924600475E+02 -0.23082784016E+03  0.23982154976E+03  0.47000000000E+01 0. -1.
         -5    1    3    3    0  503 -0.52010298667E+02 -0.10622820889E+02 -0.26816249981E+03  0.27340653210E+03  0.47000000000E+01 0.  1.
          5    1    3    3  503    0  0.33947892926E+02  0.78113890101E+02 -0.73264221683E+03  0.73759131445E+03  0.47000000000E+01 0.  1.
         -5    1    4    4    0  502 -0.28762525713E+02 -0.22566468737E+02 -0.35542487975E+02  0.51204363564E+02  0.47000000000E+01 0.  1.
<mgrwt>
<rscale>  0 0.13621338E+03</rscale>
<asrwt>0</asrwt>
<pdfrwt beam="1">  1        1 0.26806690E-02 0.14320113E+03</pdfrwt>
<pdfrwt beam="2">  1       -1 0.19763078E+00 0.14320113E+03</pdfrwt>
<totfact> 0.68430480E+02</totfact>
</mgrwt>
</event>
<event>
 8    1  0.3520338E-004  0.1430880E+03  0.7546771E-02  0.1218981E+00
          1   -1    0    0  501    0  0.00000000000E+00  0.00000000000E+00  0.48916875643E+03  0.48916875643E+03  0.00000000000E+00 0. -1.
         -1   -1    0    0    0  501 -0.00000000000E+00 -0.00000000000E+00 -0.40526531903E+02  0.40526531903E+02  0.00000000000E+00 0.  1.
         25    2    1    2    0    0 -0.65943380553E+02 -0.22384943768E+02  0.14145473439E+03  0.20120542486E+03  0.12499826384E+03 0.  0.
         23    2    1    2    0    0  0.65943380553E+02  0.22384943768E+02  0.30718749013E+03  0.32848986347E+03  0.93229937062E+02 0.  0.
          5    1    4    4  502    0 -0.22418984676E+02  0.12861132997E+02  0.52609470208E+02  0.58803622094E+02  0.47000000000E+01 0. -1.
         -5    1    3    3    0  503  0.25284623753E+02 -0.17798219998E+02  0.92119659217E+02  0.97284173675E+02  0.47000000000E+01 0.  1.
          5    1    3    3  503    0 -0.91228004305E+02 -0.45867237705E+01  0.49335075173E+02  0.10392125118E+03  0.47000000000E+01 0.  1.
         -5    1    4    4    0  502  0.88362365228E+02  0.95238107709E+01  0.25457801992E+03  0.26968624138E+03  0.47000000000E+01 0.  1.
<mgrwt>
<rscale>  0 0.13588157E+03</rscale>
<asrwt>0</asrwt>
<pdfrwt beam="1">  1        1 0.75256727E-01 0.14308802E+03</pdfrwt>
<pdfrwt beam="2">  1       -1 0.62348514E-02 0.14308802E+03</pdfrwt>
<totfact> 0.56535385E+03</totfact>
</mgrwt>
</event>
<event>
 8    1  0.3520338E-004  0.1281058E+03  0.7546771E-02  0.1245670E+00
         -2   -1    0    0    0  501 -0.00000000000E+00  0.00000000000E+00  0.14175874165E+02  0.14175874165E+02  0.00000000000E+00 0.  1.
          2   -1    0    0  501    0  0.00000000000E+00 -0.00000000000E+00 -0.94039453311E+03  0.94039453311E+03  0.00000000000E+00 0. -1.
         25    2    1    2    0    0 -0.21679320290E+01  0.27973634333E+02 -0.39782208194E+03  0.41793959844E+03  0.12499549961E+03 0.  0.
         23    2    1    2    0    0  0.21679320290E+01 -0.27973634333E+02 -0.52839657701E+03  0.53663080884E+03  0.89344603915E+02 0.  0.
          5    1    4    4  502    0  0.37525429810E+02 -0.24764063853E+02 -0.42101119810E+03  0.42343114631E+03  0.47000000000E+01 0. -1.
         -5    1    3    3    0  503  0.27610245797E+02 -0.41087277218E+02 -0.11581358462E+03  0.12603716279E+03  0.47000000000E+01 0. -1.
          5    1    3    3  503    0 -0.29778177826E+02  0.69060911552E+02 -0.28200849732E+03  0.29190243565E+03  0.47000000000E+01 0. -1.
         -5    1    4    4    0  502 -0.35357497781E+02 -0.32095704802E+01 -0.10738537891E+03  0.11319966253E+03  0.47000000000E+01 0.  1.
<mgrwt>
<rscale>  0 0.11845397E+03</rscale>
<asrwt>0</asrwt>
<pdfrwt beam="1">  1        2 0.14467607E+00 0.12810581E+03</pdfrwt>
<pdfrwt beam="2">  1       -2 0.21809038E-02 0.12810581E+03</pdfrwt>
<totfact> 0.18479700E+04</totfact>
</mgrwt>
</event>
<event>
 8    1  0.3520338E-004  0.1301073E+03  0.7546771E-02  0.1241100E+00
          1   -1    0    0  501    0  0.00000000000E+00  0.00000000000E+00  0.36263848673E+03  0.36263848673E+03  0.00000000000E+00 0. -1.
         -1   -1    0    0    0  501 -0.00000000000E+00 -0.00000000000E+00 -0.36066928075E+02  0.36066928075E+02  0.00000000000E+00 0.  1.
         25    2    1    2    0    0  0.28629228111E+02  0.21995649461E+02  0.20026488169E+03  0.23881778330E+03  0.12499787792E+03 0.  0.
         23    2    1    2    0    0 -0.28629228111E+02 -0.21995649461E+02  0.12630667697E+03  0.15988763151E+03  0.91144044047E+02 0.  0.
          5    1    3    3  502    0  0.29656074764E+01  0.57020451051E+02  0.33364889400E+02  0.66298058119E+02  0.47000000000E+01 0.  1.
         -5    1    3    3    0  502  0.25663620634E+02 -0.35024801589E+02  0.16689999229E+03  0.17251972518E+03  0.47000000000E+01 0.  1.
          5    1    4    4  503    0 -0.22402756368E+02  0.24767718822E+02  0.10028967038E+03  0.10580846551E+03  0.47000000000E+01 0. -1.
         -5    1    4    4    0  503 -0.62264717429E+01 -0.46763368283E+02  0.26017006594E+02  0.54079166004E+02  0.47000000000E+01 0.  1.
<mgrwt>
<rscale>  0 0.12121895E+03</rscale>
<asrwt>0</asrwt>
<pdfrwt beam="1">  1        1 0.55790534E-01 0.13010730E+03</pdfrwt>
<pdfrwt beam="2">  1       -1 0.55487584E-02 0.13010730E+03</pdfrwt>
<totfact> 0.97772696E+03</totfact>
</mgrwt>
</event>
<event>
 8    1  0.3520338E-004  0.2666305E+03  0.7546771E-02  0.1105387E+00
         -2   -1    0    0    0  501 -0.00000000000E+00  0.00000000000E+00  0.37476035146E+02  0.37476035146E+02  0.00000000000E+00 0.  1.
          2   -1    0    0  501    0  0.00000000000E+00 -0.00000000000E+00 -0.18701094776E+04  0.18701094776E+04  0.00000000000E+00 0. -1.
         25    2    1    2    0    0  0.11620522870E+03 -0.20484257460E+03 -0.11310930110E+04  0.11620943269E+04  0.12501075730E+03 0.  0.
         23    2    1    2    0    0 -0.11620522870E+03  0.20484257460E+03 -0.70154043138E+03  0.74549118581E+03  0.90188667368E+02 0.  0.
          5    1    3    3  502    0  0.32033972143E+02 -0.11138768459E+03 -0.79098946146E+03  0.79944969185E+03  0.47000000000E+01 0. -1.
         -5    1    3    3    0  502  0.84171256556E+02 -0.93454890002E+02 -0.34010354957E+03  0.36264463504E+03  0.47000000000E+01 0. -1.
          5    1    4    4  503    0 -0.99719204621E+02  0.89498926554E+02 -0.33440355773E+03  0.36028017854E+03  0.47000000000E+01 0. -1.
         -5    1    4    4    0  503 -0.16486024077E+02  0.11534364804E+03 -0.36713687364E+03  0.38521100727E+03  0.47000000000E+01 0.  1.
<mgrwt>
<rscale>  0 0.26294379E+03</rscale>
<asrwt>0</asrwt>
<pdfrwt beam="1">  1        2 0.28770921E+00 0.26663050E+03</pdfrwt>
<pdfrwt beam="2">  1       -2 0.57655426E-02 0.26663050E+03</pdfrwt>
<totfact> 0.13689443E+03</totfact>
</mgrwt>
</event>
<event>
 8    1  0.3520338E-004  0.1354440E+03  0.7546771E-02  0.1232109E+00
          2   -1    0    0  501    0  0.00000000000E+00  0.00000000000E+00  0.22101637028E+03  0.22101637028E+03  0.00000000000E+00 0. -1.
         -2   -1    0    0    0  501 -0.00000000000E+00 -0.00000000000E+00 -0.67452177721E+02  0.67452177721E+02  0.00000000000E+00 0.  1.
         25    2    1    2    0    0 -0.18951047400E+02  0.48584776888E+02  0.11321855343E+03  0.17653189616E+03  0.12500178710E+03 0.  0.
         23    2    1    2    0    0  0.18951047400E+02 -0.48584776888E+02  0.40345639125E+02  0.11193665184E+03  0.90456733778E+02 0.  0.
          5    1    3    3  502    0 -0.23945869517E+02  0.70173906863E+01 -0.22807633308E+02  0.34131020730E+02  0.47000000000E+01 0. -1.
         -5    1    3    3    0  502  0.49948221169E+01  0.41567386202E+02  0.13602618674E+03  0.14240087543E+03  0.47000000000E+01 0. -1.
          5    1    4    4  503    0 -0.22595831049E+02 -0.24577034076E+02  0.52334528825E+02  0.62254277701E+02  0.47000000000E+01 0. -1.
         -5    1    4    4    0  503  0.41546878449E+02 -0.24007742812E+02 -0.11988889700E+02  0.49682374139E+02  0.47000000000E+01 0.  1.
<mgrwt>
<rscale>  0 0.12691363E+03</rscale>
<asrwt>0</asrwt>
<pdfrwt beam="1">  1        2 0.34002518E-01 0.13544397E+03</pdfrwt>
<pdfrwt beam="2">  1       -2 0.10377258E-01 0.13544397E+03</pdfrwt>
<totfact> 0.90271007E+03</totfact>
</mgrwt>
</event>
<event>
 8    1  0.3520338E-004  0.2634018E+03  0.7546771E-02  0.1107253E+00
          4   -1    0    0  501    0  0.00000000000E+00  0.00000000000E+00  0.16088924661E+03  0.16088924661E+03  0.00000000000E+00 0. -1.
         -4   -1    0    0    0  501 -0.00000000000E+00 -0.00000000000E+00 -0.45734573288E+03  0.45734573288E+03  0.00000000000E+00 0.  1.
         25    2    1    2    0    0  0.20881087110E+03 -0.10075460527E+03 -0.25280446048E+03  0.36508983971E+03  0.12500810151E+03 0.  0.
         23    2    1    2    0    0 -0.20881087110E+03  0.10075460527E+03 -0.43652025785E+02  0.25314513979E+03  0.91779584164E+02 0.  0.
          5    1    4    4  502    0 -0.47535633165E+02  0.29216537438E+02  0.28070730901E+02  0.62636238821E+02  0.47000000000E+01 0. -1.
         -5    1    4    4    0  502 -0.16127523794E+03  0.71538067830E+02 -0.71722756686E+02  0.19050890097E+03  0.47000000000E+01 0.  1.
          5    1    3    3  503    0  0.17250467364E+03 -0.12851597092E+03 -0.22531334774E+03  0.31154841017E+03  0.47000000000E+01 0. -1.
         -5    1    3    3    0  503  0.36306197467E+02  0.27761365652E+02 -0.27491112742E+02  0.53541429540E+02  0.47000000000E+01 0. -1.
<mgrwt>
<rscale>  0 0.25981709E+03</rscale>
<asrwt>0</asrwt>
<pdfrwt beam="1">  1        4 0.24752192E-01 0.26340178E+03</pdfrwt>
<pdfrwt beam="2">  1       -4 0.70360882E-01 0.26340178E+03</pdfrwt>
<totfact> 0.52729612E+01</totfact>
</mgrwt>
</event>
<event>
 8    1  0.3520338E-004  0.1298007E+03  0.7546771E-02  0.1241694E+00
         -3   -1    0    0    0  501 -0.00000000000E+00  0.00000000000E+00  0.94639599449E+02  0.94639599449E+02  0.00000000000E+00 0.  1.
          3   -1    0    0  501    0  0.00000000000E+00 -0.00000000000E+00 -0.13682579876E+03  0.13682579876E+03  0.00000000000E+00 0. -1.
         25    2    1    2    0    0  0.33190959476E+02  0.11059812990E+02 -0.18836314686E+02  0.13116029018E+03  0.12499702283E+03 0.  0.
         23    2    1    2    0    0 -0.33190959476E+02 -0.11059812990E+02 -0.23349884620E+02  0.10030510802E+03  0.91060080877E+02 0.  0.
          5    1    3    3  502    0 -0.22674021174E+02 -0.42193179834E+02  0.90292585241E+01  0.48969308451E+02  0.47000000000E+01 0. -1.
         -5    1    3    3    0  502  0.55864980649E+02  0.53252992824E+02 -0.27865573210E+02  0.82190981731E+02  0.47000000000E+01 0. -1.
          5    1    4    4  503    0  0.22888628687E+02 -0.30097873899E+02 -0.10472401527E+02  0.39516231224E+02  0.47000000000E+01 0. -1.
         -5    1    4    4    0  503 -0.56079588162E+02  0.19038060909E+02 -0.12877483093E+02  0.60788876799E+02  0.47000000000E+01 0.  1.
<mgrwt>
<rscale>  0 0.12085481E+03</rscale>
<asrwt>0</asrwt>
<pdfrwt beam="1">  1        3 0.21050123E-01 0.12980067E+03</pdfrwt>
<pdfrwt beam="2">  1       -3 0.14559938E-01 0.12980067E+03</pdfrwt>
<totfact> 0.18223013E+03</totfact>
</mgrwt>
</event>
<event>
 8    1  0.3520338E-004  0.2051189E+03  0.7546771E-02  0.1149557E+00
         -1   -1    0    0    0  501 -0.00000000000E+00  0.00000000000E+00  0.42009557479E+03  0.42009557479E+03  0.00000000000E+00 0.  1.
          1   -1    0    0  501    0  0.00000000000E+00 -0.00000000000E+00 -0.12738870248E+03  0.12738870248E+03  0.00000000000E+00 0. -1.
         25    2    1    2    0    0 -0.95605113806E+01  0.16235051252E+03  0.29734237919E+03  0.36122883501E+03  0.12499875395E+03 0.  0.
         23    2    1    2    0    0  0.95605113806E+01 -0.16235051252E+03 -0.46355068754E+01  0.18625544226E+03  0.90667025719E+02 0.  0.
          5    1    4    4  502    0 -0.16166070054E+02 -0.14037176941E+03 -0.28966791952E+02  0.14431472726E+03  0.47000000000E+01 0. -1.
         -5    1    4    4    0  502  0.25726581435E+02 -0.21978743113E+02  0.24331285076E+02  0.41940714998E+02  0.47000000000E+01 0.  1.
          5    1    3    3  503    0 -0.10344857074E+02  0.19316190939E+02 -0.81736250089E+01  0.23854338097E+02  0.47000000000E+01 0. -1.
         -5    1    3    3    0  503  0.78434569361E+00  0.14303432158E+03  0.30551600420E+03  0.33737449692E+03  0.47000000000E+01 0. -1.
<mgrwt>
<rscale>  0 0.20021561E+03</rscale>
<asrwt>0</asrwt>
<pdfrwt beam="1">  1        1 0.19598262E-01 0.20511894E+03</pdfrwt>
<pdfrwt beam="2">  1       -1 0.64630088E-01 0.20511894E+03</pdfrwt>
<totfact> 0.65932835E+02</totfact>
</mgrwt>
</event>
<event>
 8    1  0.3520338E-004  0.2110883E+03  0.7546771E-02  0.1144080E+00
         -2   -1    0    0    0  501 -0.00000000000E+00  0.00000000000E+00  0.23008720067E+03  0.23008720067E+03  0.00000000000E+00 0.  1.
          2   -1    0    0  501    0  0.00000000000E+00 -0.00000000000E+00 -0.17943147342E+03  0.17943147342E+03  0.00000000000E+00 0. -1.
         25    2    1    2    0    0  0.53980013133E+02 -0.16130929370E+03  0.37675451549E+02  0.21442411428E+03  0.12499492422E+03 0.  0.
         23    2    1    2    0    0 -0.53980013133E+02  0.16130929370E+03  0.12980275704E+02  0.19509455981E+03  0.94651305632E+02 0.  0.
          5    1    4    4  502    0 -0.63918904516E+02  0.74410282373E+02 -0.22228780792E+02  0.10069123682E+03  0.47000000000E+01 0. -1.
         -5    1    4    4    0  502  0.99388913831E+01  0.86899011328E+02  0.35209056496E+02  0.94403322988E+02  0.47000000000E+01 0.  1.
          5    1    3    3  503    0  0.26135171226E+02 -0.67023709006E+01 -0.32332089249E+02  0.42372431437E+02  0.47000000000E+01 0. -1.
         -5    1    3    3    0  503  0.27844841906E+02 -0.15460692280E+03  0.70007540798E+02  0.17205168284E+03  0.47000000000E+01 0. -1.
<mgrwt>
<rscale>  0 0.20685620E+03</rscale>
<asrwt>0</asrwt>
<pdfrwt beam="1">  1        2 0.27604842E-01 0.21108828E+03</pdfrwt>
<pdfrwt beam="2">  1       -2 0.35398031E-01 0.21108828E+03</pdfrwt>
<totfact> 0.14363044E+03</totfact>
</mgrwt>
</event>
<event>
 8    1  0.3520338E-004  0.1454622E+03  0.7546771E-02  0.1215829E+00
         -2   -1    0    0    0  501 -0.00000000000E+00  0.00000000000E+00  0.12545915931E+03  0.12545915931E+03  0.00000000000E+00 0.  1.
          2   -1    0    0  501    0  0.00000000000E+00 -0.00000000000E+00 -0.17486860240E+03  0.17486860240E+03  0.00000000000E+00 0. -1.
         25    2    1    2    0    0 -0.70837265654E+02 -0.22707846091E+02  0.41281053540E+02  0.15120635838E+03  0.12500269178E+03 0.  0.
         23    2    1    2    0    0  0.70837265654E+02  0.22707846091E+02 -0.90690496630E+02  0.14912140333E+03  0.92080737802E+02 0.  0.
          5    1    4    4  502    0 -0.16972367881E+02  0.14513462108E+02 -0.43173046964E+02  0.48833429513E+02  0.47000000000E+01 0. -1.
         -5    1    3    3    0  503 -0.63645367662E+02  0.26725448893E+02  0.65693598559E+02  0.95408182746E+02  0.47000000000E+01 0.  1.
          5    1    3    3  503    0 -0.71918979920E+01 -0.49433294984E+02 -0.24412545018E+02  0.55798175633E+02  0.47000000000E+01 0.  1.
         -5    1    4    4    0  502  0.87809633536E+02  0.81943839832E+01 -0.47517449665E+02  0.10028797382E+03  0.47000000000E+01 0.  1.
<mgrwt>
<rscale>  0 0.13815820E+03</rscale>
<asrwt>0</asrwt>
<pdfrwt beam="1">  1        2 0.26902862E-01 0.14546215E+03</pdfrwt>
<pdfrwt beam="2">  1       -2 0.19301409E-01 0.14546215E+03</pdfrwt>
<totfact> 0.42591652E+03</totfact>
</mgrwt>
</event>
<event>
 8    1  0.3520338E-004  0.1273099E+03  0.7546771E-02  0.1248130E+00
          2   -1    0    0  501    0  0.00000000000E+00  0.00000000000E+00  0.13003878954E+04  0.13003878954E+04  0.00000000000E+00 0. -1.
         -2   -1    0    0    0  501 -0.00000000000E+00 -0.00000000000E+00 -0.95291072505E+01  0.95291072505E+01  0.00000000000E+00 0.  1.
         25    2    1    2    0    0 -0.65509696495E+01 -0.23243528796E+02  0.61968778190E+03  0.63263003643E+03  0.12499855647E+03 0.  0.
         23    2    1    2    0    0  0.65509696495E+01  0.23243528796E+02  0.67117100620E+03  0.67728696618E+03  0.87543921274E+02 0.  0.
          5    1    3    3  502    0  0.41955311291E+02  0.31741485432E+02  0.22059225373E+03  0.22682769330E+03  0.47000000000E+01 0. -1.
         -5    1    3    3    0  502 -0.48506280940E+02 -0.54985014228E+02  0.39909552817E+03  0.40580234313E+03  0.47000000000E+01 0. -1.
          5    1    4    4  503    0  0.46200150237E+02  0.95496609604E+01  0.29991911398E+03  0.30364323611E+03  0.47000000000E+01 0. -1.
         -5    1    4    4    0  503 -0.39649180588E+02  0.13693867836E+02  0.37125189222E+03  0.37364373006E+03  0.47000000000E+01 0.  1.
<mgrwt>
<rscale>  0 0.11699962E+03</rscale>
<asrwt>0</asrwt>
<pdfrwt beam="1">  1        2 0.20005954E+00 0.12730992E+03</pdfrwt>
<pdfrwt beam="2">  1       -2 0.14660175E-02 0.12730992E+03</pdfrwt>
<totfact> 0.20456012E+04</totfact>
</mgrwt>
</event>
<event>
 8    1  0.3520338E-004  0.1254251E+03  0.7546771E-02  0.1246052E+00
         -2   -1    0    0    0  501 -0.00000000000E+00  0.00000000000E+00  0.18151980629E+03  0.18151980629E+03  0.00000000000E+00 0.  1.
          2   -1    0    0  501    0  0.00000000000E+00 -0.00000000000E+00 -0.98914617840E+02  0.98914617840E+02  0.00000000000E+00 0. -1.
         25    2    1    2    0    0 -0.93398278173E+01 -0.43426990332E+01  0.12096055895E+03  0.17424955424E+03  0.12500143565E+03 0.  0.
         23    2    1    2    0    0  0.93398278173E+01  0.43426990332E+01 -0.38355370493E+02  0.10618486989E+03  0.98478427739E+02 0.  0.
          5    1    4    4  502    0 -0.55271863151E+01  0.43464924061E+02 -0.45643238277E+02  0.63444027399E+02  0.47000000000E+01 0. -1.
         -5    1    4    4    0  502  0.14867014132E+02 -0.39122225028E+02  0.72878677832E+01  0.42740842495E+02  0.47000000000E+01 0.  1.
          5    1    3    3  503    0 -0.15523435038E+02 -0.37978679318E+02 -0.68479961905E+01  0.41860986252E+02  0.47000000000E+01 0. -1.
         -5    1    3    3    0  503  0.61836072209E+01  0.33635980285E+02  0.12780855514E+03  0.13238856799E+03  0.47000000000E+01 0. -1.
<mgrwt>
<rscale>  0 0.11822633E+03</rscale>
<asrwt>0</asrwt>
<pdfrwt beam="1">  1        2 0.15217634E-01 0.12542508E+03</pdfrwt>
<pdfrwt beam="2">  1       -2 0.27926124E-01 0.12542508E+03</pdfrwt>
<totfact> 0.42440642E+03</totfact>
</mgrwt>
</event>
<event>
 8    1  0.3520338E-004  0.1897339E+03  0.7546771E-02  0.1163515E+00
         -1   -1    0    0    0  501 -0.00000000000E+00  0.00000000000E+00  0.10336086398E+03  0.10336086398E+03  0.00000000000E+00 0.  1.
          1   -1    0    0  501    0  0.00000000000E+00 -0.00000000000E+00 -0.35832576801E+03  0.35832576801E+03  0.00000000000E+00 0. -1.
         25    2    1    2    0    0  0.81863703601E+02 -0.11692705169E+03 -0.21621385076E+03  0.28765843355E+03  0.12500137499E+03 0.  0.
         23    2    1    2    0    0 -0.81863703601E+02  0.11692705169E+03 -0.38751053276E+02  0.17402819844E+03  0.91709150778E+02 0.  0.
          5    1    4    4  502    0 -0.77181395621E+02  0.32358339974E+02 -0.28734472523E+02  0.88610326188E+02  0.47000000000E+01 0. -1.
         -5    1    3    3    0  503  0.15607402842E+02 -0.71684117251E+02 -0.20855460430E+02  0.76414945654E+02  0.47000000000E+01 0. -1.
          5    1    3    3  503    0  0.66256300759E+02 -0.45242934440E+02 -0.19535839033E+03  0.21124348790E+03  0.47000000000E+01 0. -1.
         -5    1    4    4    0  502 -0.46823079798E+01  0.84568711717E+02 -0.10016580753E+02  0.85417872248E+02  0.47000000000E+01 0.  1.
<mgrwt>
<rscale>  0 0.18450276E+03</rscale>
<asrwt>0</asrwt>
<pdfrwt beam="1">  1        1 0.55127042E-01 0.18973388E+03</pdfrwt>
<pdfrwt beam="2">  1       -1 0.15901671E-01 0.18973388E+03</pdfrwt>
<totfact> 0.20212813E+03</totfact>
</mgrwt>
</event>
<event>
 8    1  0.3520338E-004  0.2532288E+03  0.7546771E-02  0.1113719E+00
          2   -1    0    0  501    0  0.00000000000E+00  0.00000000000E+00  0.31614744994E+03  0.31614744994E+03  0.00000000000E+00 0. -1.
         -2   -1    0    0    0  501 -0.00000000000E+00 -0.00000000000E+00 -0.23702984712E+03  0.23702984712E+03  0.00000000000E+00 0.  1.
         25    2    1    2    0    0 -0.11262922718E+03 -0.18925075750E+03  0.16257245914E+03  0.30092296683E+03  0.12499454175E+03 0.  0.
         23    2    1    2    0    0  0.11262922718E+03  0.18925075750E+03 -0.83454856327E+02  0.25225433022E+03  0.90367815298E+02 0.  0.
          5    1    4    4  502    0  0.75696903795E+02  0.14792034592E+03 -0.19308151448E+02  0.16734797487E+03  0.47000000000E+01 0. -1.
         -5    1    4    4    0  502  0.36932323389E+02  0.41330411579E+02 -0.64146704879E+02  0.84906355351E+02  0.47000000000E+01 0.  1.
          5    1    3    3  503    0 -0.52635570000E+02 -0.54143289099E+02  0.12854286475E+03  0.14915547949E+03  0.47000000000E+01 0.  1.
         -5    1    3    3    0  503 -0.59993657184E+02 -0.13510746840E+03  0.34029594388E+02  0.15176748734E+03  0.47000000000E+01 0.  1.
<mgrwt>
<rscale>  0 0.24934555E+03</rscale>
<asrwt>0</asrwt>
<pdfrwt beam="1">  1        2 0.48638069E-01 0.25322880E+03</pdfrwt>
<pdfrwt beam="2">  1       -2 0.36466130E-01 0.25322880E+03</pdfrwt>
<totfact> 0.73586927E+02</totfact>
</mgrwt>
</event>
<event>
 8    1  0.3520338E-004  0.1270891E+03  0.7546771E-02  0.1246516E+00
          1   -1    0    0  501    0  0.00000000000E+00  0.00000000000E+00  0.64964569418E+02  0.64964569418E+02  0.00000000000E+00 0. -1.
         -1   -1    0    0    0  501 -0.00000000000E+00 -0.00000000000E+00 -0.19569050676E+03  0.19569050676E+03  0.00000000000E+00 0.  1.
         25    2    1    2    0    0  0.19704667325E+02  0.11753310261E+02 -0.99232053769E+02  0.16124093040E+03  0.12500089169E+03 0.  0.
         23    2    1    2    0    0 -0.19704667325E+02 -0.11753310261E+02 -0.31493883575E+02  0.99414145783E+02  0.91459791508E+02 0.  0.
          5    1    4    4  502    0 -0.84913628353E+00 -0.50608400254E+02 -0.17920245963E+02  0.53899503004E+02  0.47000000000E+01 0. -1.
         -5    1    4    4    0  502 -0.18855531041E+02  0.38855089993E+02 -0.13573637611E+02  0.45514642778E+02  0.47000000000E+01 0.  1.
          5    1    3    3  503    0 -0.17361861287E+02  0.61756400378E+02 -0.56301499014E+02  0.85482372488E+02  0.47000000000E+01 0. -1.
         -5    1    3    3    0  503  0.37066528612E+02 -0.50003090117E+02 -0.42930554755E+02  0.75758557907E+02  0.47000000000E+01 0. -1.
<mgrwt>
<rscale>  0 0.11795108E+03</rscale>
<asrwt>0</asrwt>
<pdfrwt beam="1">  1        1 0.99945492E-02 0.12708909E+03</pdfrwt>
<pdfrwt beam="2">  1       -1 0.30106232E-01 0.12708909E+03</pdfrwt>
<totfact> 0.61618226E+03</totfact>
</mgrwt>
</event>
<event>
 8    1  0.3520338E-004  0.1455854E+03  0.7546771E-02  0.1214537E+00
         -3   -1    0    0    0  501 -0.00000000000E+00  0.00000000000E+00  0.24932426009E+03  0.24932426009E+03  0.00000000000E+00 0.  1.
          3   -1    0    0  501    0  0.00000000000E+00 -0.00000000000E+00 -0.77126469400E+02  0.77126469400E+02  0.00000000000E+00 0. -1.
         25    2    1    2    0    0 -0.74490827566E+02 -0.51926924761E+01  0.49215661888E+02  0.15367915238E+03  0.12497701010E+03 0.  0.
         23    2    1    2    0    0  0.74490827566E+02  0.51926924761E+01  0.12298212880E+03  0.17277157711E+03  0.95653365895E+02 0.  0.
          5    1    3    3  502    0  0.24333485847E+02 -0.22382305785E+02 -0.12676811794E+02  0.35719430328E+02  0.47000000000E+01 0.  1.
         -5    1    4    4    0  503 -0.20205824117E+02 -0.90657028613E+01  0.40030269842E+02  0.45988855174E+02  0.47000000000E+01 0.  1.
          5    1    4    4  503    0  0.94696651682E+02  0.14258395337E+02  0.82951858958E+02  0.12678272194E+03  0.47000000000E+01 0. -1.
         -5    1    3    3    0  502 -0.98824313412E+02  0.17189613309E+02  0.61892473681E+02  0.11795972205E+03  0.47000000000E+01 0.  1.
<mgrwt>
<rscale>  0 0.13910628E+03</rscale>
<asrwt>0</asrwt>
<pdfrwt beam="1">  1        3 0.11865611E-01 0.14558537E+03</pdfrwt>
<pdfrwt beam="2">  1       -3 0.38357578E-01 0.14558537E+03</pdfrwt>
<totfact> 0.87037319E+02</totfact>
</mgrwt>
</event>
<event>
 8    1  0.3520338E-004  0.2607453E+03  0.7546771E-02  0.1108975E+00
         -2   -1    0    0    0  501 -0.00000000000E+00  0.00000000000E+00  0.37882260340E+02  0.37882260340E+02  0.00000000000E+00 0. -1.
          2   -1    0    0  501    0  0.00000000000E+00 -0.00000000000E+00 -0.19215980282E+04  0.19215980282E+04  0.00000000000E+00 0.  1.
         25    2    1    2    0    0  0.61446745116E+02 -0.22043128150E+03 -0.13027032191E+04  0.13285419758E+04  0.12498980721E+03 0.  0.
         23    2    1    2    0    0 -0.61446745116E+02  0.22043128150E+03 -0.58101254872E+03  0.63093831276E+03  0.90232590518E+02 0.  0.
          5    1    4    4  502    0 -0.84571374454E+02  0.17937598028E+03 -0.48012197735E+03  0.51948750015E+03  0.47000000000E+01 0. -1.
         -5    1    4    4    0  502  0.23124629338E+02  0.41055301220E+02 -0.10089057137E+03  0.11145081261E+03  0.47000000000E+01 0.  1.
          5    1    3    3  503    0 -0.35816709369E+02 -0.94868191580E+02 -0.47535585246E+03  0.48607415784E+03  0.47000000000E+01 0. -1.
         -5    1    3    3    0  503  0.97263454484E+02 -0.12556308992E+03 -0.82734736666E+03  0.84246781793E+03  0.47000000000E+01 0. -1.
<mgrwt>
<rscale>  0 0.25697363E+03</rscale>
<asrwt>0</asrwt>
<pdfrwt beam="1">  1        2 0.29563039E+00 0.26074529E+03</pdfrwt>
<pdfrwt beam="2">  1       -2 0.58280415E-02 0.26074529E+03</pdfrwt>
<totfact> 0.12659059E+03</totfact>
</mgrwt>
</event>
<event>
 8    1  0.3520338E-004  0.1428025E+03  0.7546771E-02  0.1218417E+00
         -1   -1    0    0    0  501 -0.00000000000E+00  0.00000000000E+00  0.19586382231E+02  0.19586382231E+02  0.00000000000E+00 0.  1.
          1   -1    0    0  501    0  0.00000000000E+00 -0.00000000000E+00 -0.87456690826E+03  0.87456690826E+03  0.00000000000E+00 0. -1.
         25    2    1    2    0    0 -0.39081667247E+02 -0.56923441104E+02 -0.49451699923E+03  0.51472286125E+03  0.12499962601E+03 0.  0.
         23    2    1    2    0    0  0.39081667247E+02  0.56923441104E+02 -0.36046352680E+03  0.37943042924E+03  0.96259241746E+02 0.  0.
          5    1    4    4  502    0 -0.20631698809E+02  0.28937010396E+02 -0.23397819400E+03  0.23670847647E+03  0.47000000000E+01 0. -1.
         -5    1    3    3    0  503 -0.20883226724E+02  0.38427752404E+02 -0.19217064094E+03  0.19714067706E+03  0.47000000000E+01 0. -1.
          5    1    3    3  503    0 -0.18198440522E+02 -0.95351193508E+02 -0.30234635830E+03  0.31758218419E+03  0.47000000000E+01 0. -1.
         -5    1    4    4    0  502  0.59713366056E+02  0.27986430708E+02 -0.12648533280E+03  0.14272195277E+03  0.47000000000E+01 0.  1.
<mgrwt>
<rscale>  0 0.13628487E+03</rscale>
<asrwt>0</asrwt>
<pdfrwt beam="1">  1        1 0.13454880E+00 0.14280253E+03</pdfrwt>
<pdfrwt beam="2">  1       -1 0.30132885E-02 0.14280253E+03</pdfrwt>
<totfact> 0.72727409E+03</totfact>
</mgrwt>
</event>
<event>
 8    1  0.3520338E-004  0.1257105E+03  0.7546771E-02  0.1249240E+00
          1   -1    0    0  501    0  0.00000000000E+00  0.00000000000E+00  0.11359618084E+04  0.11359618084E+04  0.00000000000E+00 0. -1.
         -1   -1    0    0    0  501 -0.00000000000E+00 -0.00000000000E+00 -0.11475173066E+02  0.11475173066E+02  0.00000000000E+00 0.  1.
         25    2    1    2    0    0 -0.11408491676E+02 -0.69130264963E+01  0.81005939468E+03  0.81975566880E+03  0.12500076002E+03 0.  0.
         23    2    1    2    0    0  0.11408491676E+02  0.69130264963E+01  0.31442724068E+03  0.32768131269E+03  0.91283127616E+02 0.  0.
          5    1    3    3  502    0 -0.22104917699E+02  0.56684015468E+02  0.40168683226E+03  0.40629558969E+03  0.47000000000E+01 0.  1.
         -5    1    3    3    0  502  0.10696426023E+02 -0.63597041964E+02  0.40837256243E+03  0.41346007911E+03  0.47000000000E+01 0.  1.
          5    1    4    4  503    0  0.26687875579E+02  0.44055515815E+02  0.18374948238E+03  0.19089026547E+03  0.47000000000E+01 0. -1.
         -5    1    4    4    0  503 -0.15279383903E+02 -0.37142489318E+02  0.13067775830E+03  0.13679104722E+03  0.47000000000E+01 0.  1.
<mgrwt>
<rscale>  0 0.11635189E+03</rscale>
<asrwt>0</asrwt>
<pdfrwt beam="1">  1        1 0.17476327E+00 0.12571052E+03</pdfrwt>
<pdfrwt beam="2">  1       -1 0.17654121E-02 0.12571052E+03</pdfrwt>
<totfact> 0.10072977E+04</totfact>
</mgrwt>
</event>
<event>
 8    1  0.3520338E-004  0.1299313E+03  0.7546771E-02  0.1239500E+00
         -1   -1    0    0    0  501 -0.00000000000E+00  0.00000000000E+00  0.59553678053E+02  0.59553678053E+02  0.00000000000E+00 0.  1.
          1   -1    0    0  501    0  0.00000000000E+00 -0.00000000000E+00 -0.22741931128E+03  0.22741931128E+03  0.00000000000E+00 0. -1.
         25    2    1    2    0    0 -0.19697295662E+02 -0.29478450308E+02 -0.79978335296E+02  0.15257352866E+03  0.12500074017E+03 0.  0.
         23    2    1    2    0    0  0.19697295662E+02  0.29478450308E+02 -0.87887297934E+02  0.13439946067E+03  0.95299923412E+02 0.  0.
          5    1    3    3  502    0  0.21923743418E+02 -0.42462133437E+02 -0.94814036330E+02  0.10628017118E+03  0.47000000000E+01 0. -1.
         -5    1    4    4    0  503 -0.16975766173E+02  0.15859210233E+02  0.12328232303E+02  0.26716408779E+02  0.47000000000E+01 0.  1.
          5    1    4    4  503    0  0.36673061834E+02  0.13619240075E+02 -0.10021553024E+03  0.10768305189E+03  0.47000000000E+01 0. -1.
         -5    1    3    3    0  502 -0.41621039079E+02  0.12983683129E+02  0.14835701034E+02  0.46293357480E+02  0.47000000000E+01 0. -1.
<mgrwt>
<rscale>  0 0.12220681E+03</rscale>
<asrwt>0</asrwt>
<pdfrwt beam="1">  1        1 0.34987586E-01 0.12993132E+03</pdfrwt>
<pdfrwt beam="2">  1       -1 0.91621044E-02 0.12993132E+03</pdfrwt>
<totfact> 0.82114190E+03</totfact>
</mgrwt>
</event>
<event>
 8    1  0.3520338E-004  0.1318024E+03  0.7546771E-02  0.1238401E+00
          4   -1    0    0  501    0  0.00000000000E+00  0.00000000000E+00  0.28119328971E+03  0.28119328971E+03  0.00000000000E+00 0. -1.
         -4   -1    0    0    0  501 -0.00000000000E+00 -0.00000000000E+00 -0.47622100681E+02  0.47622100681E+02  0.00000000000E+00 0.  1.
         25    2    1    2    0    0 -0.78342923585E+01  0.41059583076E+02  0.13084640457E+03  0.18572195013E+03  0.12499838267E+03 0.  0.
         23    2    1    2    0    0  0.78342923585E+01 -0.41059583076E+02  0.10272478445E+03  0.14309344026E+03  0.90421710916E+02 0.  0.
          5    1    4    4  502    0 -0.23579250775E+02 -0.54716349241E+02  0.41435367091E+02  0.72724408470E+02  0.47000000000E+01 0. -1.
         -5    1    4    4    0  502  0.31413543133E+02  0.13656766165E+02  0.61289417362E+02  0.70369031789E+02  0.47000000000E+01 0.  1.
          5    1    3    3  503    0  0.57023757410E+02  0.33479465776E+02  0.68164813365E+02  0.95084779639E+02  0.47000000000E+01 0.  1.
         -5    1    3    3    0  503 -0.64858049769E+02  0.75801172994E+01  0.62681591208E+02  0.90637170490E+02  0.47000000000E+01 0.  1.
<mgrwt>
<rscale>  0 0.12289230E+03</rscale>
<asrwt>0</asrwt>
<pdfrwt beam="1">  1        4 0.43260505E-01 0.13180236E+03</pdfrwt>
<pdfrwt beam="2">  1       -4 0.73264773E-02 0.13180236E+03</pdfrwt>
<totfact> 0.10909054E+03</totfact>
</mgrwt>
</event>
<event>
 8    1  0.3520338E-004  0.1364098E+03  0.7546771E-02  0.1229984E+00
         -2   -1    0    0    0  501 -0.00000000000E+00  0.00000000000E+00  0.28148361621E+02  0.28148361621E+02  0.00000000000E+00 0.  1.
          2   -1    0    0  501    0  0.00000000000E+00 -0.00000000000E+00 -0.59999699566E+03  0.59999699566E+03  0.00000000000E+00 0. -1.
         25    2    1    2    0    0 -0.54507520702E+02 -0.31664607673E+01 -0.20631425542E+03  0.24733218915E+03  0.12500617390E+03 0.  0.
         23    2    1    2    0    0  0.54507520702E+02  0.31664607673E+01 -0.36553437862E+03  0.38081316813E+03  0.91772494691E+02 0.  0.
          5    1    4    4  502    0  0.20585367570E+02 -0.34583646925E+02 -0.26517133004E+03  0.26824934346E+03  0.47000000000E+01 0. -1.
         -5    1    4    4    0  502  0.33922153132E+02  0.37750107693E+02 -0.10036304859E+03  0.11256382467E+03  0.47000000000E+01 0.  1.
          5    1    3    3  503    0  0.70551979993E+01  0.43200471879E+02 -0.25872368424E+02  0.51063940675E+02  0.47000000000E+01 0. -1.
         -5    1    3    3    0  503 -0.61562718702E+02 -0.46366932647E+02 -0.18044188699E+03  0.19626824847E+03  0.47000000000E+01 0. -1.
<mgrwt>
<rscale>  0 0.12831073E+03</rscale>
<asrwt>0</asrwt>
<pdfrwt beam="1">  1        2 0.92307219E-01 0.13640982E+03</pdfrwt>
<pdfrwt beam="2">  1       -2 0.43305177E-02 0.13640982E+03</pdfrwt>
<totfact> 0.11715713E+04</totfact>
</mgrwt>
</event>
<event>
 8    1  0.3520338E-004  0.1481194E+03  0.7546771E-02  0.1212170E+00
         -1   -1    0    0    0  501 -0.00000000000E+00  0.00000000000E+00  0.68802500477E+02  0.68802500477E+02  0.00000000000E+00 0.  1.
          1   -1    0    0  501    0  0.00000000000E+00 -0.00000000000E+00 -0.27086520123E+03  0.27086520123E+03  0.00000000000E+00 0. -1.
         25    2    1    2    0    0  0.18592991783E+01  0.79443528909E+02 -0.13876403480E+03  0.20296509203E+03  0.12499855978E+03 0.  0.
         23    2    1    2    0    0 -0.18592991783E+01 -0.79443528909E+02 -0.63298665950E+02  0.13670260968E+03  0.91466666623E+02 0.  0.
          5    1    4    4  502    0 -0.41955488571E+02 -0.52433913681E+02 -0.56039316248E+02  0.87590372134E+02  0.47000000000E+01 0. -1.
         -5    1    3    3    0  503 -0.52465698656E+02  0.31969816288E+02 -0.21608808296E+02  0.65297391104E+02  0.47000000000E+01 0. -1.
          5    1    3    3  503    0  0.54324997834E+02  0.47473712621E+02 -0.11715522651E+03  0.13766770092E+03  0.47000000000E+01 0. -1.
         -5    1    4    4    0  502  0.40096189392E+02 -0.27009615228E+02 -0.72593497021E+01  0.49112237545E+02  0.47000000000E+01 0.  1.
<mgrwt>
<rscale>  0 0.14086500E+03</rscale>
<asrwt>0</asrwt>
<pdfrwt beam="1">  1        1 0.41671569E-01 0.14811945E+03</pdfrwt>
<pdfrwt beam="2">  1       -1 0.10585000E-01 0.14811945E+03</pdfrwt>
<totfact> 0.53519013E+03</totfact>
</mgrwt>
</event>
<event>
 8    1  0.3520338E-004  0.3401701E+03  0.7546771E-02  0.1067859E+00
         -1   -1    0    0    0  501 -0.00000000000E+00  0.00000000000E+00  0.14794607031E+03  0.14794607031E+03  0.00000000000E+00 0.  1.
          1   -1    0    0  501    0  0.00000000000E+00 -0.00000000000E+00 -0.78160752596E+03  0.78160752596E+03  0.00000000000E+00 0. -1.
         25    2    1    2    0    0  0.12475164010E+03 -0.29073506479E+03 -0.24123403648E+03  0.41702463137E+03  0.12500333279E+03 0.  0.
         23    2    1    2    0    0 -0.12475164010E+03  0.29073506479E+03 -0.39242741917E+03  0.51252896490E+03  0.92718989065E+02 0.  0.
          5    1    4    4  502    0 -0.72062706479E+02  0.10248024909E+03 -0.98212061944E+02  0.15925744639E+03  0.47000000000E+01 0. -1.
         -5    1    4    4    0  502 -0.52688933626E+02  0.18825481570E+03 -0.29421535723E+03  0.35327151851E+03  0.47000000000E+01 0.  1.
          5    1    3    3  503    0  0.86449611924E+02 -0.17033420383E+03 -0.21547949076E+03  0.28799440504E+03  0.47000000000E+01 0.  1.
         -5    1    3    3    0  503  0.38302028180E+02 -0.12040086096E+03 -0.25754545720E+02  0.12903022633E+03  0.47000000000E+01 0.  1.
<mgrwt>
<rscale>  0 0.33751580E+03</rscale>
<asrwt>0</asrwt>
<pdfrwt beam="1">  1        1 0.12024731E+00 0.34017008E+03</pdfrwt>
<pdfrwt beam="2">  1       -1 0.22760935E-01 0.34017008E+03</pdfrwt>
<totfact> 0.38925622E+02</totfact>
</mgrwt>
</event>
<event>
 8    1  0.3520338E-004  0.1416221E+03  0.7546771E-02  0.1223827E+00
         -2   -1    0    0    0  501 -0.00000000000E+00  0.00000000000E+00  0.49762298404E+02  0.49762298404E+02  0.00000000000E+00 0.  1.
          2   -1    0    0  501    0  0.00000000000E+00 -0.00000000000E+00 -0.59164502193E+03  0.59164502193E+03  0.00000000000E+00 0. -1.
         25    2    1    2    0    0  0.60516725713E+02  0.27735453135E+02 -0.71422529968E+02  0.15861274223E+03  0.12500117903E+03 0.  0.
         23    2    1    2    0    0 -0.60516725713E+02 -0.27735453135E+02 -0.47046019356E+03  0.48279457811E+03  0.85593699942E+02 0.  0.
          5    1    4    4  502    0 -0.78360524213E+02 -0.37892192823E+02 -0.36668412034E+03  0.37690253931E+03  0.47000000000E+01 0. -1.
         -5    1    4    4    0  502  0.17843798499E+02  0.10156739689E+02 -0.10377607322E+03  0.10589203879E+03  0.47000000000E+01 0.  1.
          5    1    3    3  503    0  0.90286402859E+02  0.45037568752E+02 -0.31763686244E+02  0.10588219352E+03  0.47000000000E+01 0.  1.
         -5    1    3    3    0  503 -0.29769677146E+02 -0.17302115617E+02 -0.39658843724E+02  0.52730548715E+02  0.47000000000E+01 0.  1.
<mgrwt>
<rscale>  0 0.13247658E+03</rscale>
<asrwt>0</asrwt>
<pdfrwt beam="1">  1        2 0.91022310E-01 0.14162212E+03</pdfrwt>
<pdfrwt beam="2">  1       -2 0.76557383E-02 0.14162212E+03</pdfrwt>
<totfact> 0.50335393E+03</totfact>
</mgrwt>
</event>
<event>
 8    1  0.3520338E-004  0.1364860E+03  0.7546771E-02  0.1230129E+00
         -1   -1    0    0    0  501 -0.00000000000E+00  0.00000000000E+00  0.60610177519E+02  0.60610177519E+02  0.00000000000E+00 0.  1.
          1   -1    0    0  501    0  0.00000000000E+00 -0.00000000000E+00 -0.47436166855E+03  0.47436166855E+03  0.00000000000E+00 0. -1.
         25    2    1    2    0    0  0.54353012541E+02 -0.68215899442E+01 -0.34042827886E+02  0.14066745179E+03  0.12501053476E+03 0.  0.
         23    2    1    2    0    0 -0.54353012541E+02  0.68215899442E+01 -0.37970866315E+03  0.39430439428E+03  0.91085138278E+02 0.  0.
          5    1    4    4  502    0 -0.26627762321E+02  0.48476278253E+02 -0.17967462982E+03  0.18805331659E+03  0.47000000000E+01 0. -1.
         -5    1    4    4    0  502 -0.27725250221E+02 -0.41654688308E+02 -0.20003403332E+03  0.20625107768E+03  0.47000000000E+01 0.  1.
          5    1    3    3  503    0  0.68800478346E+02  0.42492035012E+02 -0.36852079784E+02  0.88990137906E+02  0.47000000000E+01 0. -1.
         -5    1    3    3    0  503 -0.14447465805E+02 -0.49313624956E+02  0.28092518977E+01  0.51677313888E+02  0.47000000000E+01 0. -1.
<mgrwt>
<rscale>  0 0.12821468E+03</rscale>
<asrwt>0</asrwt>
<pdfrwt beam="1">  1        1 0.72978717E-01 0.13648596E+03</pdfrwt>
<pdfrwt beam="2">  1       -1 0.93246428E-02 0.13648596E+03</pdfrwt>
<totfact> 0.32011061E+03</totfact>
</mgrwt>
</event>
<event>
 8    1  0.3520338E-004  0.1600424E+03  0.7546771E-02  0.1196499E+00
         -2   -1    0    0    0  501 -0.00000000000E+00  0.00000000000E+00  0.38239120655E+02  0.38239120655E+02  0.00000000000E+00 0. -1.
          2   -1    0    0  501    0  0.00000000000E+00 -0.00000000000E+00 -0.60167311003E+03  0.60167311003E+03  0.00000000000E+00 0.  1.
         25    2    1    2    0    0 -0.94918585717E+02  0.31297585779E+02 -0.38026177555E+03  0.41256827689E+03  0.12499795342E+03 0.  0.
         23    2    1    2    0    0  0.94918585717E+02 -0.31297585779E+02 -0.18317221383E+03  0.22734395380E+03  0.90244870332E+02 0.  0.
          5    1    3    3  502    0 -0.11727661592E+03 -0.18634248573E+00 -0.31995814785E+03  0.34080661047E+03  0.47000000000E+01 0. -1.
         -5    1    4    4    0  503  0.84516580284E+02  0.90728927721E+00 -0.17147039797E+03  0.19122777753E+03  0.47000000000E+01 0.  1.
          5    1    4    4  503    0  0.10402005432E+02 -0.32204875056E+02 -0.11701815856E+02  0.36116176275E+02  0.47000000000E+01 0. -1.
         -5    1    3    3    0  502  0.22358030199E+02  0.31483928265E+02 -0.60303627704E+02  0.71761666421E+02  0.47000000000E+01 0. -1.
<mgrwt>
<rscale>  0 0.15328004E+03</rscale>
<asrwt>0</asrwt>
<pdfrwt beam="1">  1        2 0.92565096E-01 0.16004239E+03</pdfrwt>
<pdfrwt beam="2">  1       -2 0.58829415E-02 0.16004239E+03</pdfrwt>
<totfact> 0.74368465E+03</totfact>
</mgrwt>
</event>
<event>
 8    1  0.3520338E-004  0.4648200E+03  0.7546771E-02  0.1023956E+00
          2   -1    0    0  501    0  0.00000000000E+00  0.00000000000E+00  0.12946592295E+04  0.12946592295E+04  0.00000000000E+00 0. -1.
         -2   -1    0    0    0  501 -0.00000000000E+00 -0.00000000000E+00 -0.16722956896E+03  0.16722956896E+03  0.00000000000E+00 0.  1.
         25    2    1    2    0    0  0.54349955113E+02  0.44438692386E+03  0.46830645697E+03  0.65982467638E+03  0.12499604075E+03 0.  0.
         23    2    1    2    0    0 -0.54349955113E+02 -0.44438692386E+03  0.65912320360E+03  0.80206412210E+03  0.91813957138E+02 0.  0.
          5    1    4    4  502    0  0.51990764151E+01 -0.30304350347E+03  0.45408542134E+03  0.54596525097E+03  0.47000000000E+01 0. -1.
         -5    1    4    4    0  502 -0.59549031528E+02 -0.14134342038E+03  0.20503778226E+03  0.25609887113E+03  0.47000000000E+01 0.  1.
          5    1    3    3  503    0  0.12321243295E+02  0.70618841935E+02  0.15289801717E+03  0.16893409226E+03  0.47000000000E+01 0.  1.
         -5    1    3    3    0  503  0.42028711818E+02  0.37376808192E+03  0.31540843979E+03  0.49089058411E+03  0.47000000000E+01 0.  1.
<mgrwt>
<rscale>  0 0.46285658E+03</rscale>
<asrwt>0</asrwt>
<pdfrwt beam="1">  1        2 0.19917834E+00 0.46482004E+03</pdfrwt>
<pdfrwt beam="2">  1       -2 0.25727627E-01 0.46482004E+03</pdfrwt>
<totfact> 0.23460680E+02</totfact>
</mgrwt>
</event>
<event>
 8    1  0.3520338E-004  0.1878619E+03  0.7546771E-02  0.1165409E+00
          1   -1    0    0  501    0  0.00000000000E+00  0.00000000000E+00  0.64699104166E+03  0.64699104166E+03  0.00000000000E+00 0. -1.
         -1   -1    0    0    0  501 -0.00000000000E+00 -0.00000000000E+00 -0.49652505714E+02  0.49652505714E+02  0.00000000000E+00 0.  1.
         25    2    1    2    0    0  0.37405986812E+02  0.13515852291E+03  0.26852410294E+03  0.32771525491E+03  0.12500024112E+03 0.  0.
         23    2    1    2    0    0 -0.37405986812E+02 -0.13515852291E+03  0.32881443301E+03  0.36892829246E+03  0.91225651305E+02 0.  0.
          5    1    3    3  502    0  0.34410353501E+02  0.27324826089E+02  0.18771826790E+03  0.19284957000E+03  0.47000000000E+01 0.  1.
         -5    1    3    3    0  502  0.29956333109E+01  0.10783369682E+03  0.80805835041E+02  0.13486568491E+03  0.47000000000E+01 0.  1.
          5    1    4    4  503    0 -0.19224563207E+02 -0.17715861419E+02  0.16137977216E+03  0.16355108204E+03  0.47000000000E+01 0. -1.
         -5    1    4    4    0  503 -0.18181423606E+02 -0.11744266149E+03  0.16743466086E+03  0.20537721042E+03  0.47000000000E+01 0.  1.
<mgrwt>
<rscale>  0 0.18249575E+03</rscale>
<asrwt>0</asrwt>
<pdfrwt beam="1">  1        1 0.99537077E-01 0.18786190E+03</pdfrwt>
<pdfrwt beam="2">  1       -1 0.76388475E-02 0.18786190E+03</pdfrwt>
<totfact> 0.28870610E+03</totfact>
</mgrwt>
</event>
<event>
 8    1  0.3520338E-004  0.2816099E+03  0.7546771E-02  0.1096650E+00
         -2   -1    0    0    0  501 -0.00000000000E+00  0.00000000000E+00  0.75734213148E+02  0.75734213148E+02  0.00000000000E+00 0.  1.
          2   -1    0    0  501    0  0.00000000000E+00 -0.00000000000E+00 -0.10271122257E+04  0.10271122257E+04  0.00000000000E+00 0. -1.
         25    2    1    2    0    0  0.18263891619E+03 -0.17413089026E+03 -0.57865496720E+03  0.64354155238E+03  0.12500247167E+03 0.  0.
         23    2    1    2    0    0 -0.18263891619E+03  0.17413089026E+03 -0.37272304536E+03  0.45930488648E+03  0.91432869074E+02 0.  0.
          5    1    3    3  502    0  0.82661918893E+01 -0.22802879278E+02 -0.18891379503E+03  0.19052247422E+03  0.47000000000E+01 0. -1.
         -5    1    3    3    0  502  0.17437272430E+03 -0.15132801098E+03 -0.38974117217E+03  0.45301907815E+03  0.47000000000E+01 0. -1.
          5    1    4    4  503    0 -0.23958535199E+01  0.39484652715E+02 -0.86344994876E+02  0.95091146035E+02  0.47000000000E+01 0. -1.
         -5    1    4    4    0  503 -0.18024306267E+03  0.13464623755E+03 -0.28637805049E+03  0.36421374044E+03  0.47000000000E+01 0.  1.
<mgrwt>
<rscale>  0 0.27824770E+03</rscale>
<asrwt>0</asrwt>
<pdfrwt beam="1">  1        2 0.15801727E+00 0.28160994E+03</pdfrwt>
<pdfrwt beam="2">  1       -2 0.11651417E-01 0.28160994E+03</pdfrwt>
<totfact> 0.13112781E+03</totfact>
</mgrwt>
</event>
<event>
 8    1  0.3520338E-004  0.1296293E+03  0.7546771E-02  0.1246473E+00
          1   -1    0    0  501    0  0.00000000000E+00  0.00000000000E+00  0.32686973251E+03  0.32686973251E+03  0.00000000000E+00 0. -1.
         -1   -1    0    0    0  501 -0.00000000000E+00 -0.00000000000E+00 -0.37583812530E+02  0.37583812530E+02  0.00000000000E+00 0.  1.
         25    2    1    2    0    0 -0.20162826727E+02  0.27799194234E+02  0.20072584482E+03  0.23894479649E+03  0.12499766481E+03 0.  0.
         23    2    1    2    0    0  0.20162826727E+02 -0.27799194234E+02  0.88560075164E+02  0.12550874856E+03  0.82037944086E+02 0.  0.
          5    1    4    4  502    0 -0.98317862761E+01 -0.48791709585E+02  0.63832724258E+02  0.81080217266E+02  0.47000000000E+01 0. -1.
         -5    1    3    3    0  503  0.86687872589E+01 -0.38653767768E+02  0.13585922422E+03  0.14159477547E+03  0.47000000000E+01 0. -1.
          5    1    3    3  503    0 -0.28831613986E+02  0.66452962002E+02  0.64866620603E+02  0.97350021018E+02  0.47000000000E+01 0. -1.
         -5    1    4    4    0  502  0.29994613003E+02  0.20992515351E+02  0.24727350906E+02  0.44428531292E+02  0.47000000000E+01 0.  1.
<mgrwt>
<rscale>  0 0.11797674E+03</rscale>
<asrwt>0</asrwt>
<pdfrwt beam="1">  1        1 0.50287649E-01 0.12962928E+03</pdfrwt>
<pdfrwt beam="2">  1       -1 0.57821252E-02 0.12962928E+03</pdfrwt>
<totfact> 0.10462969E+04</totfact>
</mgrwt>
</event>
<event>
 8    1  0.3520338E-004  0.1648203E+03  0.7546771E-02  0.1190673E+00
         -2   -1    0    0    0  501 -0.00000000000E+00  0.00000000000E+00  0.36256615741E+02  0.36256615741E+02  0.00000000000E+00 0.  1.
          2   -1    0    0  501    0  0.00000000000E+00 -0.00000000000E+00 -0.65447712250E+03  0.65447712250E+03  0.00000000000E+00 0. -1.
         25    2    1    2    0    0 -0.92755179949E+02  0.54202911236E+02 -0.38276425239E+03  0.41674235603E+03  0.12499695762E+03 0.  0.
         23    2    1    2    0    0  0.92755179949E+02 -0.54202911236E+02 -0.23545625437E+03  0.27399138221E+03  0.89945265618E+02 0.  0.
          5    1    3    3  502    0  0.89027057066E+01  0.28560801706E+02 -0.14050623539E+02  0.33383942021E+02  0.47000000000E+01 0. -1.
         -5    1    3    3    0  502 -0.10165788566E+03  0.25642109530E+02 -0.36871362885E+03  0.38335841401E+03  0.47000000000E+01 0. -1.
          5    1    4    4  503    0  0.79989490786E+02 -0.78475423772E+02 -0.18375150538E+03  0.21527521107E+03  0.47000000000E+01 0. -1.
         -5    1    4    4    0  503  0.12765689163E+02  0.24272512535E+02 -0.51704748989E+02  0.58716171134E+02  0.47000000000E+01 0.  1.
<mgrwt>
<rscale>  0 0.15826231E+03</rscale>
<asrwt>0</asrwt>
<pdfrwt beam="1">  1        2 0.10068878E+00 0.16482026E+03</pdfrwt>
<pdfrwt beam="2">  1       -2 0.55779413E-02 0.16482026E+03</pdfrwt>
<totfact> 0.73253123E+03</totfact>
</mgrwt>
</event>
<event>
 8    1  0.3520338E-004  0.1619533E+03  0.7546771E-02  0.1195202E+00
         -1   -1    0    0    0  501 -0.00000000000E+00  0.00000000000E+00  0.33238417513E+03  0.33238417513E+03  0.00000000000E+00 0.  1.
          1   -1    0    0  501    0  0.00000000000E+00 -0.00000000000E+00 -0.69407187872E+02  0.69407187872E+02  0.00000000000E+00 0. -1.
         25    2    1    2    0    0 -0.94378893633E+02 -0.41188085506E+02  0.97422231487E+02  0.18899725228E+03  0.12500014492E+03 0.  0.
         23    2    1    2    0    0  0.94378893633E+02  0.41188085506E+02  0.16555475578E+03  0.21279411073E+03  0.85259148780E+02 0.  0.
          5    1    4    4  502    0  0.71056401780E+02  0.41880038482E+02  0.53926330952E+02  0.98656419087E+02  0.47000000000E+01 0. -1.
         -5    1    4    4    0  502  0.23322491853E+02 -0.69195297556E+00  0.11162842482E+03  0.11413769164E+03  0.47000000000E+01 0.  1.
          5    1    3    3  503    0 -0.82230439117E+02 -0.83685213089E+02  0.67898406501E+02  0.13563680773E+03  0.47000000000E+01 0. -1.
         -5    1    3    3    0  503 -0.12148454515E+02  0.42497127583E+02  0.29523824986E+02  0.53360444542E+02  0.47000000000E+01 0. -1.
<mgrwt>
<rscale>  0 0.15437142E+03</rscale>
<asrwt>0</asrwt>
<pdfrwt beam="1">  1        1 0.10678029E-01 0.16195330E+03</pdfrwt>
<pdfrwt beam="2">  1       -1 0.51136026E-01 0.16195330E+03</pdfrwt>
<totfact> 0.22614144E+03</totfact>
</mgrwt>
</event>
<event>
 8    1  0.3520338E-004  0.1779809E+03  0.7546771E-02  0.1175708E+00
          1   -1    0    0  501    0  0.00000000000E+00  0.00000000000E+00  0.61038564635E+03  0.61038564635E+03  0.00000000000E+00 0. -1.
         -1   -1    0    0    0  501 -0.00000000000E+00 -0.00000000000E+00 -0.46559707183E+02  0.46559707183E+02  0.00000000000E+00 0.  1.
         25    2    1    2    0    0  0.94031579392E+02 -0.84939947361E+02  0.25211106555E+03  0.30860522213E+03  0.12498184338E+03 0.  0.
         23    2    1    2    0    0 -0.94031579392E+02  0.84939947361E+02  0.31171487362E+03  0.34834013141E+03  0.90099678854E+02 0.  0.
          5    1    3    3  502    0  0.74814429637E+02  0.14517668454E+02  0.10074206532E+03  0.12640812990E+03  0.47000000000E+01 0.  1.
         -5    1    4    4    0  503 -0.47489005854E+02  0.21696344794E+02  0.41359710634E+02  0.66773143689E+02  0.47000000000E+01 0.  1.
          5    1    4    4  503    0 -0.46542573538E+02  0.63243602567E+02  0.27035516299E+03  0.28156698772E+03  0.47000000000E+01 0. -1.
         -5    1    3    3    0  502  0.19217149756E+02 -0.99457615814E+02  0.15136900023E+03  0.18219709223E+03  0.47000000000E+01 0.  1.
<mgrwt>
<rscale>  0 0.17206800E+03</rscale>
<asrwt>0</asrwt>
<pdfrwt beam="1">  1        1 0.93905478E-01 0.17798088E+03</pdfrwt>
<pdfrwt beam="2">  1       -1 0.71630323E-02 0.17798088E+03</pdfrwt>
<totfact> 0.34457510E+03</totfact>
</mgrwt>
</event>
<event>
 8    1  0.3520338E-004  0.1341761E+03  0.7546771E-02  0.1234747E+00
          1   -1    0    0  501    0  0.00000000000E+00  0.00000000000E+00  0.74602588583E+03  0.74602588583E+03  0.00000000000E+00 0. -1.
         -1   -1    0    0    0  501 -0.00000000000E+00 -0.00000000000E+00 -0.25333234794E+02  0.25333234794E+02  0.00000000000E+00 0.  1.
         25    2    1    2    0    0  0.48718170276E+02  0.20142185707E+01  0.59352840267E+03  0.60850571322E+03  0.12500288419E+03 0.  0.
         23    2    1    2    0    0 -0.48718170276E+02 -0.20142185707E+01  0.12716424837E+03  0.16285340740E+03  0.89291483629E+02 0.  0.
          5    1    3    3  502    0 -0.19922775319E+02  0.40678509556E+02  0.11817838647E+03  0.12664864446E+03  0.47000000000E+01 0.  1.
         -5    1    3    3    0  502  0.68640945595E+02 -0.38664290985E+02  0.47535001620E+03  0.48185706875E+03  0.47000000000E+01 0.  1.
          5    1    4    4  503    0  0.23666708570E+02 -0.13045018899E+02  0.44970171149E+02  0.52675344382E+02  0.47000000000E+01 0. -1.
         -5    1    4    4    0  503 -0.72384878846E+02  0.11030800329E+02  0.82194077220E+02  0.11017806302E+03  0.47000000000E+01 0.  1.
<mgrwt>
<rscale>  0 0.12520641E+03</rscale>
<asrwt>0</asrwt>
<pdfrwt beam="1">  1        1 0.11477320E+00 0.13417615E+03</pdfrwt>
<pdfrwt beam="2">  1       -1 0.38974213E-02 0.13417615E+03</pdfrwt>
<totfact> 0.63320024E+03</totfact>
</mgrwt>
</event>
<event>
 8    1  0.3520338E-004  0.1662790E+03  0.7546771E-02  0.1188720E+00
         -2   -1    0    0    0  501 -0.00000000000E+00  0.00000000000E+00  0.27327128901E+02  0.27327128901E+02  0.00000000000E+00 0.  1.
          2   -1    0    0  501    0  0.00000000000E+00 -0.00000000000E+00 -0.10030107067E+04  0.10030107067E+04  0.00000000000E+00 0. -1.
         25    2    1    2    0    0  0.10958453145E+03 -0.36819562258E+01 -0.33492550395E+03  0.37393022004E+03  0.12500555957E+03 0.  0.
         23    2    1    2    0    0 -0.10958453145E+03  0.36819562258E+01 -0.64075807382E+03  0.65640761554E+03  0.90981988531E+02 0.  0.
          5    1    4    4  502    0 -0.12879622814E+02  0.33496920544E+02 -0.10258949344E+03  0.10878705132E+03  0.47000000000E+01 0. -1.
         -5    1    3    3    0  503  0.12816157710E+03 -0.14046309570E+02 -0.20519727571E+03  0.24238543813E+03  0.47000000000E+01 0.  1.
          5    1    3    3  503    0 -0.18577045647E+02  0.10364353344E+02 -0.12972822824E+03  0.13154478191E+03  0.47000000000E+01 0.  1.
         -5    1    4    4    0  502 -0.96704908636E+02 -0.29814964318E+02 -0.53816858038E+03  0.54762056422E+03  0.47000000000E+01 0.  1.
<mgrwt>
<rscale>  0 0.15997984E+03</rscale>
<asrwt>0</asrwt>
<pdfrwt beam="1">  1        2 0.15430934E+00 0.16627903E+03</pdfrwt>
<pdfrwt beam="2">  1       -2 0.42041736E-02 0.16627903E+03</pdfrwt>
<totfact> 0.65318618E+03</totfact>
</mgrwt>
</event>
<event>
 8    1  0.3520338E-004  0.1575009E+03  0.7546771E-02  0.1199568E+00
          1   -1    0    0  501    0  0.00000000000E+00  0.00000000000E+00  0.21494453408E+02  0.21494453408E+02  0.00000000000E+00 0. -1.
         -1   -1    0    0    0  501 -0.00000000000E+00 -0.00000000000E+00 -0.10504028453E+04  0.10504028453E+04  0.00000000000E+00 0.  1.
         25    2    1    2    0    0 -0.66638063548E+02 -0.68826548180E+02 -0.41395072278E+03  0.44290147895E+03  0.12501517476E+03 0.  0.
         23    2    1    2    0    0  0.66638063548E+02  0.68826548180E+02 -0.61495766916E+03  0.62899581980E+03  0.91022421545E+02 0.  0.
          5    1    3    3  502    0  0.36372964701E+02 -0.24265178282E+02 -0.93341516234E+02  0.10318197561E+03  0.47000000000E+01 0.  1.
         -5    1    4    4    0  503  0.51305894947E+02  0.29781769636E+02 -0.53749672560E+03  0.54078098033E+03  0.47000000000E+01 0.  1.
          5    1    4    4  503    0  0.15332168602E+02  0.39044778544E+02 -0.77460943557E+02  0.88214839468E+02  0.47000000000E+01 0. -1.
         -5    1    3    3    0  502 -0.10301102825E+03 -0.44561369898E+02 -0.32060920655E+03  0.33971950334E+03  0.47000000000E+01 0.  1.
<mgrwt>
<rscale>  0 0.15073928E+03</rscale>
<asrwt>0</asrwt>
<pdfrwt beam="1">  1        1 0.33068390E-02 0.15750085E+03</pdfrwt>
<pdfrwt beam="2">  1       -1 0.16160044E+00 0.15750085E+03</pdfrwt>
<totfact> 0.90853796E+02</totfact>
</mgrwt>
</event>
<event>
 8    1  0.3520338E-004  0.1543604E+03  0.7546771E-02  0.1203100E+00
         -1   -1    0    0    0  501 -0.00000000000E+00  0.00000000000E+00  0.53169554543E+03  0.53169554543E+03  0.00000000000E+00 0.  1.
          1   -1    0    0  501    0  0.00000000000E+00 -0.00000000000E+00 -0.38734047059E+02  0.38734047059E+02  0.00000000000E+00 0. -1.
         25    2    1    2    0    0  0.29244584529E+02  0.85726117802E+02  0.30551680117E+03  0.34229758945E+03  0.12499164351E+03 0.  0.
         23    2    1    2    0    0 -0.29244584529E+02 -0.85726117802E+02  0.18744469720E+03  0.22813200304E+03  0.93297820469E+02 0.  0.
          5    1    4    4  502    0 -0.31311465042E+02 -0.41848928047E+02  0.22019063978E+02  0.56909312069E+02  0.47000000000E+01 0. -1.
         -5    1    4    4    0  502  0.20668805131E+01 -0.43877189755E+02  0.16542563322E+03  0.17122269097E+03  0.47000000000E+01 0.  1.
          5    1    3    3  503    0  0.69267326730E+02  0.16200979726E+02  0.17581080002E+03  0.18971547565E+03  0.47000000000E+01 0.  1.
         -5    1    3    3    0  503 -0.40022742201E+02  0.69525138076E+02  0.12970600115E+03  0.15258211380E+03  0.47000000000E+01 0.  1.
<mgrwt>
<rscale>  0 0.14788211E+03</rscale>
<asrwt>0</asrwt>
<pdfrwt beam="1">  1        1 0.59590845E-02 0.15436037E+03</pdfrwt>
<pdfrwt beam="2">  1       -1 0.81799310E-01 0.15436037E+03</pdfrwt>
<totfact> 0.19846954E+03</totfact>
</mgrwt>
</event>
<event>
 8    1  0.3520338E-004  0.1533965E+03  0.7546771E-02  0.1204849E+00
          1   -1    0    0  501    0  0.00000000000E+00  0.00000000000E+00  0.17563515080E+03  0.17563515080E+03  0.00000000000E+00 0. -1.
         -1   -1    0    0    0  501 -0.00000000000E+00 -0.00000000000E+00 -0.12086225418E+03  0.12086225418E+03  0.00000000000E+00 0.  1.
         25    2    1    2    0    0  0.72652376889E+01 -0.88623270508E+02  0.68831703403E+02  0.16813173435E+03  0.12499443567E+03 0.  0.
         23    2    1    2    0    0 -0.72652376889E+01  0.88623270508E+02 -0.14058806782E+02  0.12836567063E+03  0.91505341890E+02 0.  0.
          5    1    4    4  502    0 -0.10485126166E+02  0.20338280066E+02  0.36412894905E+02  0.43261673825E+02  0.47000000000E+01 0. -1.
         -5    1    3    3    0  503 -0.44659545193E+02 -0.48214546860E+02 -0.85615329997E+01  0.66441759106E+02  0.47000000000E+01 0.  1.
          5    1    3    3  503    0  0.51924782882E+02 -0.40408723649E+02  0.77393236402E+02  0.10168997524E+03  0.47000000000E+01 0.  1.
         -5    1    4    4    0  502  0.32198884773E+01  0.68284990442E+02 -0.50471701686E+02  0.85103996808E+02  0.47000000000E+01 0.  1.
<mgrwt>
<rscale>  0 0.14649360E+03</rscale>
<asrwt>0</asrwt>
<pdfrwt beam="1">  1        1 0.27020793E-01 0.15339647E+03</pdfrwt>
<pdfrwt beam="2">  1       -1 0.18594193E-01 0.15339647E+03</pdfrwt>
<totfact> 0.38074401E+03</totfact>
</mgrwt>
</event>
<event>
 8    1  0.3520338E-004  0.1515479E+03  0.7546771E-02  0.1207153E+00
          2   -1    0    0  501    0  0.00000000000E+00  0.00000000000E+00  0.40972726553E+03  0.40972726553E+03  0.00000000000E+00 0. -1.
         -2   -1    0    0    0  501 -0.00000000000E+00 -0.00000000000E+00 -0.46982570987E+02  0.46982570987E+02  0.00000000000E+00 0.  1.
         25    2    1    2    0    0  0.69738991842E+02 -0.49839604265E+02  0.19560992516E+03  0.24744699773E+03  0.12497704080E+03 0.  0.
         23    2    1    2    0    0 -0.69738991842E+02  0.49839604265E+02  0.16713476939E+03  0.20926283879E+03  0.92246362658E+02 0.  0.
          5    1    3    3  502    0  0.49022058644E+02 -0.20276542458E+02  0.51127762450E+01  0.53502625063E+02  0.47000000000E+01 0.  1.
         -5    1    4    4    0  503  0.56958970393E+01  0.38035915307E+02  0.20408205293E+02  0.43792224648E+02  0.47000000000E+01 0.  1.
          5    1    4    4  503    0 -0.75434888882E+02  0.11803688958E+02  0.14672656409E+03  0.16547061414E+03  0.47000000000E+01 0. -1.
         -5    1    3    3    0  502  0.20716933198E+02 -0.29563061807E+02  0.19049714891E+03  0.19394437266E+03  0.47000000000E+01 0.  1.
<mgrwt>
<rscale>  0 0.14469043E+03</rscale>
<asrwt>0</asrwt>
<pdfrwt beam="1">  1        2 0.63034962E-01 0.15154793E+03</pdfrwt>
<pdfrwt beam="2">  1       -2 0.72280881E-02 0.15154793E+03</pdfrwt>
<totfact> 0.82719740E+03</totfact>
</mgrwt>
</event>
<event>
 8    1  0.3520338E-004  0.1475357E+03  0.7546771E-02  0.1212937E+00
          2   -1    0    0  501    0  0.00000000000E+00  0.00000000000E+00  0.69481696362E+03  0.69481696362E+03  0.00000000000E+00 0. -1.
         -2   -1    0    0    0  501 -0.00000000000E+00 -0.00000000000E+00 -0.32264142815E+02  0.32264142815E+02  0.00000000000E+00 0.  1.
         25    2    1    2    0    0  0.75262480524E+02  0.21785985075E+02  0.51907296737E+03  0.53963277870E+03  0.12501088061E+03 0.  0.
         23    2    1    2    0    0 -0.75262480524E+02 -0.21785985075E+02  0.14347985344E+03  0.18744832774E+03  0.91713342046E+02 0.  0.
          5    1    4    4  502    0 -0.80108831708E+02  0.14519260562E+02  0.11416478804E+03  0.14029940368E+03  0.47000000000E+01 0. -1.
         -5    1    3    3    0  503  0.68340174014E+02  0.63566532592E+02  0.43995154718E+03  0.44976720347E+03  0.47000000000E+01 0.  1.
          5    1    3    3  503    0  0.69223065102E+01 -0.41780547517E+02  0.79121420187E+02  0.89865575226E+02  0.47000000000E+01 0.  1.
         -5    1    4    4    0  502  0.48463511838E+01 -0.36305245637E+02  0.29315065395E+02  0.47148924056E+02  0.47000000000E+01 0.  1.
<mgrwt>
<rscale>  0 0.14029180E+03</rscale>
<asrwt>0</asrwt>
<pdfrwt beam="1">  1        2 0.10689491E+00 0.14753573E+03</pdfrwt>
<pdfrwt beam="2">  1       -2 0.49637148E-02 0.14753573E+03</pdfrwt>
<totfact> 0.80924409E+03</totfact>
</mgrwt>
</event>
<event>
 8    1  0.3520338E-004  0.1308203E+03  0.7546771E-02  0.1239974E+00
         -2   -1    0    0    0  501 -0.00000000000E+00  0.00000000000E+00  0.47295663974E+02  0.47295663974E+02  0.00000000000E+00 0. -1.
          2   -1    0    0  501    0  0.00000000000E+00 -0.00000000000E+00 -0.31338671799E+03  0.31338671799E+03  0.00000000000E+00 0.  1.
         25    2    1    2    0    0 -0.38433641002E+02  0.36030583524E+01 -0.89857481653E+02  0.15870828399E+03  0.12499530234E+03 0.  0.
         23    2    1    2    0    0  0.38433641002E+02 -0.36030583524E+01 -0.17623357237E+03  0.20197409798E+03  0.90802739136E+02 0.  0.
          5    1    4    4  502    0  0.33048677832E+02  0.36117495475E+02 -0.53014698197E+02  0.72314153599E+02  0.47000000000E+01 0. -1.
         -5    1    4    4    0  502  0.53849631700E+01 -0.39720553827E+02 -0.12321887417E+03  0.12965994438E+03  0.47000000000E+01 0.  1.
          5    1    3    3  503    0 -0.13218627331E+02  0.57053328726E+02 -0.78973994592E+02  0.98431683157E+02  0.47000000000E+01 0.  1.
         -5    1    3    3    0  503 -0.25215013671E+02 -0.53450270373E+02 -0.10883487061E+02  0.60276600833E+02  0.47000000000E+01 0.  1.
<mgrwt>
<rscale>  0 0.12191295E+03</rscale>
<asrwt>0</asrwt>
<pdfrwt beam="1">  1        2 0.48213340E-01 0.13082031E+03</pdfrwt>
<pdfrwt beam="2">  1       -2 0.72762562E-02 0.13082031E+03</pdfrwt>
<totfact> 0.10781675E+04</totfact>
</mgrwt>
</event>
<event>
 8    1  0.3520338E-004  0.1770874E+03  0.7546771E-02  0.1176724E+00
         -1   -1    0    0    0  501 -0.00000000000E+00  0.00000000000E+00  0.10668113928E+03  0.10668113928E+03  0.00000000000E+00 0.  1.
          1   -1    0    0  501    0  0.00000000000E+00 -0.00000000000E+00 -0.33001868118E+03  0.33001868118E+03  0.00000000000E+00 0. -1.
         25    2    1    2    0    0  0.84724572908E+02 -0.92483283600E+02 -0.21997782112E+03  0.28240075668E+03  0.12501413756E+03 0.  0.
         23    2    1    2    0    0 -0.84724572908E+02  0.92483283600E+02 -0.33597207756E+01  0.15429906378E+03  0.89808141945E+02 0.  0.
          5    1    4    4  502    0 -0.27524686860E+02  0.73248121255E+02  0.31461315609E+02  0.84467745525E+02  0.47000000000E+01 0. -1.
         -5    1    4    4    0  502 -0.57199886047E+02  0.19235162345E+02 -0.34821036385E+02  0.69831318255E+02  0.47000000000E+01 0.  1.
          5    1    3    3  503    0  0.77519781763E+02 -0.50663848558E+02 -0.46474092594E+02  0.10372113284E+03  0.47000000000E+01 0.  1.
         -5    1    3    3    0  503  0.72047911449E+01 -0.41819435042E+02 -0.17350372853E+03  0.17867962384E+03  0.47000000000E+01 0.  1.
<mgrwt>
<rscale>  0 0.17108259E+03</rscale>
<asrwt>0</asrwt>
<pdfrwt beam="1">  1        1 0.50772104E-01 0.17708740E+03</pdfrwt>
<pdfrwt beam="2">  1       -1 0.16412483E-01 0.17708740E+03</pdfrwt>
<totfact> 0.21277358E+03</totfact>
</mgrwt>
</event>
<event>
 8    1  0.3520338E-004  0.1749556E+03  0.7546771E-02  0.1178485E+00
         -4   -1    0    0    0  501 -0.00000000000E+00  0.00000000000E+00  0.75409360591E+03  0.75409360591E+03  0.00000000000E+00 0.  1.
          4   -1    0    0  501    0  0.00000000000E+00 -0.00000000000E+00 -0.36547718059E+02  0.36547718059E+02  0.00000000000E+00 0. -1.
         25    2    1    2    0    0  0.21221414719E+02 -0.12056324535E+03  0.32567861453E+03  0.36969722358E+03  0.12499453023E+03 0.  0.
         23    2    1    2    0    0 -0.21221414719E+02  0.12056324535E+03  0.39186727332E+03  0.42094410039E+03  0.92995328796E+02 0.  0.
          5    1    3    3  502    0  0.63865372282E+02 -0.24796625802E+02  0.15174112931E+03  0.16655665328E+03  0.47000000000E+01 0.  1.
         -5    1    4    4    0  503 -0.42191330733E+02  0.47810241480E+02  0.26941259918E+03  0.27689558714E+03  0.47000000000E+01 0.  1.
          5    1    4    4  503    0  0.20969916014E+02  0.72753003874E+02  0.12245467414E+03  0.14404851325E+03  0.47000000000E+01 0. -1.
         -5    1    3    3    0  502 -0.42643957563E+02 -0.95766619552E+02  0.17393748522E+03  0.20314057030E+03  0.47000000000E+01 0.  1.
<mgrwt>
<rscale>  0 0.16939012E+03</rscale>
<asrwt>0</asrwt>
<pdfrwt beam="1">  1        4 0.56227265E-02 0.17495564E+03</pdfrwt>
<pdfrwt beam="2">  1       -4 0.11601439E+00 0.17495564E+03</pdfrwt>
<totfact> 0.20712026E+02</totfact>
</mgrwt>
</event>
<event>
 8    1  0.3520338E-004  0.1412664E+03  0.7546771E-02  0.1222973E+00
          2   -1    0    0  501    0  0.00000000000E+00  0.00000000000E+00  0.80454805689E+03  0.80454805689E+03  0.00000000000E+00 0. -1.
         -2   -1    0    0    0  501 -0.00000000000E+00 -0.00000000000E+00 -0.22288130915E+02  0.22288130915E+02  0.00000000000E+00 0.  1.
         25    2    1    2    0    0  0.56584989912E+02 -0.33606417326E+02  0.29548549174E+03  0.32751774974E+03  0.12499979280E+03 0.  0.
         23    2    1    2    0    0 -0.56584989912E+02  0.33606417326E+02  0.48677443424E+03  0.49931843807E+03  0.89656569163E+02 0.  0.
          5    1    3    3  502    0  0.10087813029E+02 -0.76372653619E+02  0.14548729617E+03  0.16469119448E+03  0.47000000000E+01 0. -1.
         -5    1    4    4    0  503 -0.16543063241E+02  0.46140505436E+02  0.11425772503E+03  0.12441678710E+03  0.47000000000E+01 0.  1.
          5    1    4    4  503    0 -0.40041926671E+02 -0.12534088109E+02  0.37251670921E+03  0.37490165097E+03  0.47000000000E+01 0. -1.
         -5    1    3    3    0  502  0.46497176883E+02  0.42766236292E+02  0.14999819556E+03  0.16282655526E+03  0.47000000000E+01 0. -1.
<mgrwt>
<rscale>  0 0.13306794E+03</rscale>
<asrwt>0</asrwt>
<pdfrwt beam="1">  1        2 0.12377660E+00 0.14126642E+03</pdfrwt>
<pdfrwt beam="2">  1       -2 0.34289438E-02 0.14126642E+03</pdfrwt>
<totfact> 0.11719668E+04</totfact>
</mgrwt>
</event>
<event>
 8    1  0.3520338E-004  0.1285656E+03  0.7546771E-02  0.1242291E+00
         -1   -1    0    0    0  501 -0.00000000000E+00  0.00000000000E+00  0.34511236247E+02  0.34511236247E+02  0.00000000000E+00 0.  1.
          1   -1    0    0  501    0  0.00000000000E+00 -0.00000000000E+00 -0.37588582700E+03  0.37588582700E+03  0.00000000000E+00 0. -1.
         25    2    1    2    0    0  0.29472845143E+01 -0.29918975110E+02 -0.18863224471E+03  0.22827886586E+03  0.12500114118E+03 0.  0.
         23    2    1    2    0    0 -0.29472845143E+01  0.29918975110E+02 -0.15274234605E+03  0.18211819739E+03  0.94514453860E+02 0.  0.
          5    1    4    4  502    0 -0.31281818998E+02  0.52147948957E+02 -0.11205586824E+03  0.12757965507E+03  0.47000000000E+01 0.  1.
         -5    1    4    4    0  502  0.28334534484E+02 -0.22228973847E+02 -0.40686477806E+02  0.54538542325E+02  0.47000000000E+01 0. -1.
          5    1    3    3  503    0 -0.14951983835E+02  0.33913066829E+02 -0.14265223809E+03  0.14746324612E+03  0.47000000000E+01 0. -1.
         -5    1    3    3    0  503  0.17899268349E+02 -0.63832041939E+02 -0.45980006617E+02  0.80815619741E+02  0.47000000000E+01 0. -1.
<mgrwt>
<rscale>  0 0.12048984E+03</rscale>
<asrwt>0</asrwt>
<pdfrwt beam="1">  1        1 0.57828591E-01 0.12856561E+03</pdfrwt>
<pdfrwt beam="2">  1       -1 0.53094208E-02 0.12856561E+03</pdfrwt>
<totfact> 0.99706432E+03</totfact>
</mgrwt>
</event>
<event>
 8    1  0.3520338E-004  0.1671535E+03  0.7546771E-02  0.1187582E+00
          2   -1    0    0  501    0  0.00000000000E+00  0.00000000000E+00  0.60662667989E+02  0.60662667989E+02  0.00000000000E+00 0. -1.
         -2   -1    0    0    0  501 -0.00000000000E+00 -0.00000000000E+00 -0.45989846479E+03  0.45989846479E+03  0.00000000000E+00 0.  1.
         25    2    1    2    0    0  0.40515742409E+02  0.10331811001E+03 -0.30740644443E+03  0.34991287048E+03  0.12499655041E+03 0.  0.
         23    2    1    2    0    0 -0.40515742409E+02 -0.10331811001E+03 -0.91829352377E+02  0.17064826230E+03  0.91498864628E+02 0.  0.
          5    1    3    3  502    0 -0.19900132022E+02  0.29193842521E+01 -0.16105476710E+03  0.16237384661E+03  0.47000000000E+01 0.  1.
         -5    1    3    3    0  502  0.60415874431E+02  0.10039872576E+03 -0.14635167733E+03  0.18753902387E+03  0.47000000000E+01 0.  1.
          5    1    4    4  503    0  0.28887708620E+02 -0.34024491662E+02 -0.20814678772E+02  0.49472281073E+02  0.47000000000E+01 0. -1.
         -5    1    4    4    0  503 -0.69403451029E+02 -0.69293618348E+02 -0.71014673605E+02  0.12117598122E+03  0.47000000000E+01 0.  1.
<mgrwt>
<rscale>  0 0.16099113E+03</rscale>
<asrwt>0</asrwt>
<pdfrwt beam="1">  1        2 0.93327182E-02 0.16715351E+03</pdfrwt>
<pdfrwt beam="2">  1       -2 0.70753609E-01 0.16715351E+03</pdfrwt>
<totfact> 0.12779781E+03</totfact>
</mgrwt>
</event>
<event>
 8    1  0.3520338E-004  0.1553897E+03  0.7546771E-02  0.1202662E+00
         -2   -1    0    0    0  501 -0.00000000000E+00  0.00000000000E+00  0.21469780444E+03  0.21469780444E+03  0.00000000000E+00 0.  1.
          2   -1    0    0  501    0  0.00000000000E+00 -0.00000000000E+00 -0.96035889586E+02  0.96035889586E+02  0.00000000000E+00 0. -1.
         25    2    1    2    0    0 -0.16506680034E+01  0.92289555980E+02  0.42058989234E+02  0.16098115616E+03  0.12500354881E+03 0.  0.
         23    2    1    2    0    0  0.16506680034E+01 -0.92289555980E+02  0.76602925623E+02  0.14975253787E+03  0.89653374372E+02 0.  0.
          5    1    3    3  502    0 -0.32863080111E+02 -0.12181986772E+02  0.37800396576E+02  0.51762368738E+02  0.47000000000E+01 0.  1.
         -5    1    3    3    0  502  0.31212412107E+02  0.10447154275E+03  0.42585926577E+01  0.10921878742E+03  0.47000000000E+01 0.  1.
          5    1    4    4  503    0 -0.29865524377E+02 -0.43328010975E+02 -0.72611828453E+00  0.52838275228E+02  0.47000000000E+01 0. -1.
         -5    1    4    4    0  503  0.31516192380E+02 -0.48961545005E+02  0.77329043908E+02  0.96914262640E+02  0.47000000000E+01 0.  1.
<mgrwt>
<rscale>  0 0.14823206E+03</rscale>
<asrwt>0</asrwt>
<pdfrwt beam="1">  1        2 0.14774752E-01 0.15538975E+03</pdfrwt>
<pdfrwt beam="2">  1       -2 0.33030431E-01 0.15538975E+03</pdfrwt>
<totfact> 0.32878815E+03</totfact>
</mgrwt>
</event>
<event>
 8    1  0.3520338E-004  0.1284344E+03  0.7546771E-02  0.1243872E+00
         -2   -1    0    0    0  501 -0.00000000000E+00  0.00000000000E+00  0.38332524139E+03  0.38332524139E+03  0.00000000000E+00 0.  1.
          2   -1    0    0  501    0  0.00000000000E+00 -0.00000000000E+00 -0.44562697071E+02  0.44562697071E+02  0.00000000000E+00 0. -1.
         25    2    1    2    0    0 -0.21919861683E+02 -0.19750877873E+02  0.29561816689E+03  0.32231272193E+03  0.12499925043E+03 0.  0.
         23    2    1    2    0    0  0.21919861683E+02  0.19750877873E+02  0.43144377422E+02  0.10557521653E+03  0.91728466292E+02 0.  0.
          5    1    4    4  502    0  0.24355332057E+02 -0.31557896708E+02  0.30707491638E+01  0.40256708071E+02  0.47000000000E+01 0. -1.
         -5    1    3    3    0  503 -0.73867348603E+01 -0.43892310088E+02  0.28970195760E+03  0.29313889707E+03  0.47000000000E+01 0. -1.
          5    1    3    3  503    0 -0.14533126823E+02  0.24141432215E+02  0.59162092904E+01  0.29173824861E+02  0.47000000000E+01 0. -1.
         -5    1    4    4    0  502 -0.24354703743E+01  0.51308774581E+02  0.40073628258E+02  0.65318508454E+02  0.47000000000E+01 0.  1.
<mgrwt>
<rscale>  0 0.11953137E+03</rscale>
<asrwt>0</asrwt>
<pdfrwt beam="1">  1        2 0.68557998E-02 0.12843438E+03</pdfrwt>
<pdfrwt beam="2">  1       -2 0.58973112E-01 0.12843438E+03</pdfrwt>
<totfact> 0.27185787E+03</totfact>
</mgrwt>
</event>
<event>
 8    1  0.3520338E-004  0.1306299E+03  0.7546771E-02  0.1240200E+00
          2   -1    0    0  501    0  0.00000000000E+00  0.00000000000E+00  0.17485416230E+03  0.17485416230E+03  0.00000000000E+00 0. -1.
         -2   -1    0    0    0  501 -0.00000000000E+00 -0.00000000000E+00 -0.77859822263E+02  0.77859822263E+02  0.00000000000E+00 0.  1.
         25    2    1    2    0    0  0.37044683356E+02 -0.82522668176E+01  0.78336165338E+02  0.15231786642E+03  0.12499507654E+03 0.  0.
         23    2    1    2    0    0 -0.37044683356E+02  0.82522668176E+01  0.18658174695E+02  0.10039611814E+03  0.91054075039E+02 0.  0.
          5    1    3    3  502    0 -0.23585511475E+02 -0.50913518596E+02  0.31950807801E+02  0.64741075420E+02  0.47000000000E+01 0. -1.
         -5    1    4    4    0  503 -0.26399270477E+02  0.34036819019E+02 -0.23754742639E+02  0.49414616547E+02  0.47000000000E+01 0.  1.
          5    1    4    4  503    0 -0.10645412879E+02 -0.25784552201E+02  0.42412917333E+02  0.50981501589E+02  0.47000000000E+01 0. -1.
         -5    1    3    3    0  502  0.60630194830E+02  0.42661251779E+02  0.46385357538E+02  0.87576791003E+02  0.47000000000E+01 0. -1.
<mgrwt>
<rscale>  0 0.12177359E+03</rscale>
<asrwt>0</asrwt>
<pdfrwt beam="1">  1        2 0.26900640E-01 0.13062993E+03</pdfrwt>
<pdfrwt beam="2">  1       -2 0.11978434E-01 0.13062993E+03</pdfrwt>
<totfact> 0.92398642E+03</totfact>
</mgrwt>
</event>
<event>
 8    1  0.3520338E-004  0.1297193E+03  0.7546771E-02  0.1241398E+00
         -2   -1    0    0    0  501 -0.00000000000E+00  0.00000000000E+00  0.26997960679E+02  0.26997960679E+02  0.00000000000E+00 0.  1.
          2   -1    0    0  501    0  0.00000000000E+00 -0.00000000000E+00 -0.50993560197E+03  0.50993560197E+03  0.00000000000E+00 0. -1.
         25    2    1    2    0    0  0.18600046247E+02 -0.29262005848E+02 -0.33565657562E+03  0.35985055924E+03  0.12499944611E+03 0.  0.
         23    2    1    2    0    0 -0.18600046247E+02  0.29262005848E+02 -0.14728106567E+03  0.17708300340E+03  0.92002451496E+02 0.  0.
          5    1    4    4  502    0 -0.22433153786E+01  0.48077903122E+02 -0.14350344099E+03  0.15143264116E+03  0.47000000000E+01 0. -1.
         -5    1    3    3    0  503 -0.46472699286E+02 -0.20916258134E+02 -0.22814600893E+03  0.23381593835E+03  0.47000000000E+01 0.  1.
          5    1    3    3  503    0  0.65072745533E+02 -0.83457477145E+01 -0.10751056668E+03  0.12603462090E+03  0.47000000000E+01 0.  1.
         -5    1    4    4    0  502 -0.16356730869E+02 -0.18815897274E+02 -0.37776246837E+01  0.25650362243E+02  0.47000000000E+01 0.  1.
<mgrwt>
<rscale>  0 0.12103557E+03</rscale>
<asrwt>0</asrwt>
<pdfrwt beam="1">  1        2 0.78451635E-01 0.12971927E+03</pdfrwt>
<pdfrwt beam="2">  1       -2 0.41535322E-02 0.12971927E+03</pdfrwt>
<totfact> 0.14895554E+04</totfact>
</mgrwt>
</event>
<event>
 8    1  0.3520338E-004  0.1350129E+03  0.7546771E-02  0.1232521E+00
         -1   -1    0    0    0  501 -0.00000000000E+00  0.00000000000E+00  0.26108745410E+02  0.26108745410E+02  0.00000000000E+00 0.  1.
          1   -1    0    0  501    0  0.00000000000E+00 -0.00000000000E+00 -0.73584757905E+03  0.73584757905E+03  0.00000000000E+00 0. -1.
         25    2    1    2    0    0  0.28342802891E+02  0.42375421545E+02 -0.57918975002E+03  0.59471779373E+03  0.12501798600E+03 0.  0.
         23    2    1    2    0    0 -0.28342802891E+02 -0.42375421545E+02 -0.13054908362E+03  0.16723853073E+03  0.91250600546E+02 0.  0.
          5    1    4    4  502    0 -0.60317075522E+02 -0.28910100856E+02 -0.67637272364E+02  0.95240926833E+02  0.47000000000E+01 0. -1.
         -5    1    3    3    0  503  0.66342280596E+02  0.58555666477E+02 -0.31298330517E+03  0.32528557236E+03  0.47000000000E+01 0. -1.
          5    1    3    3  503    0 -0.37999477705E+02 -0.16180244933E+02 -0.26620644486E+03  0.26943222137E+03  0.47000000000E+01 0. -1.
         -5    1    4    4    0  502  0.31974272631E+02 -0.13465320689E+02 -0.62911811254E+02  0.71997603897E+02  0.47000000000E+01 0.  1.
<mgrwt>
<rscale>  0 0.12664483E+03</rscale>
<asrwt>0</asrwt>
<pdfrwt beam="1">  1        1 0.11320733E+00 0.13501292E+03</pdfrwt>
<pdfrwt beam="2">  1       -1 0.40167296E-02 0.13501292E+03</pdfrwt>
<totfact> 0.61825377E+03</totfact>
</mgrwt>
</event>
<event>
 8    1  0.3520338E-004  0.1872059E+03  0.7546771E-02  0.1165837E+00
         -1   -1    0    0    0  501 -0.00000000000E+00  0.00000000000E+00  0.59247988104E+02  0.59247988104E+02  0.00000000000E+00 0.  1.
          1   -1    0    0  501    0  0.00000000000E+00 -0.00000000000E+00 -0.63113140241E+03  0.63113140241E+03  0.00000000000E+00 0. -1.
         25    2    1    2    0    0 -0.24134413038E+02 -0.13725446535E+03 -0.16178417516E+03  0.24742712892E+03  0.12499922657E+03 0.  0.
         23    2    1    2    0    0  0.24134413038E+02  0.13725446535E+03 -0.41009923914E+03  0.44295226159E+03  0.92758082952E+02 0.  0.
          5    1    4    4  502    0 -0.18050354587E+02  0.32533264475E+02 -0.20849709904E+03  0.21184276930E+03  0.47000000000E+01 0. -1.
         -5    1    4    4    0  502  0.42184767625E+02  0.10472120087E+03 -0.20160214011E+03  0.23110949229E+03  0.47000000000E+01 0.  1.
          5    1    3    3  503    0 -0.46485201760E+02 -0.14898743447E+03 -0.15677519117E+03  0.22126608457E+03  0.47000000000E+01 0. -1.
         -5    1    3    3    0  503  0.22350788722E+02  0.11732969127E+02 -0.50089839933E+01  0.26161044354E+02  0.47000000000E+01 0. -1.
<mgrwt>
<rscale>  0 0.18204701E+03</rscale>
<asrwt>0</asrwt>
<pdfrwt beam="1">  1        1 0.97097140E-01 0.18720594E+03</pdfrwt>
<pdfrwt beam="2">  1       -1 0.91150750E-02 0.18720594E+03</pdfrwt>
<totfact> 0.22835176E+03</totfact>
</mgrwt>
</event>
<event>
 8    1  0.3520338E-004  0.1706291E+03  0.7546771E-02  0.1183931E+00
         -1   -1    0    0    0  501 -0.00000000000E+00  0.00000000000E+00  0.87275716332E+02  0.87275716332E+02  0.00000000000E+00 0.  1.
          1   -1    0    0  501    0  0.00000000000E+00 -0.00000000000E+00 -0.42079130580E+03  0.42079130580E+03  0.00000000000E+00 0. -1.
         25    2    1    2    0    0 -0.71550765491E+02 -0.91448491536E+02 -0.31760418025E+03  0.36053667541E+03  0.12502775834E+03 0.  0.
         23    2    1    2    0    0  0.71550765491E+02  0.91448491536E+02 -0.15911409215E+02  0.14753034672E+03  0.89608546542E+02 0.  0.
          5    1    4    4  502    0  0.25303013221E+02  0.50757337878E+02 -0.51055148309E+02  0.76454352364E+02  0.47000000000E+01 0. -1.
         -5    1    4    4    0  502  0.46247752270E+02  0.40691153658E+02  0.35143739094E+02  0.71075994355E+02  0.47000000000E+01 0.  1.
          5    1    3    3  503    0  0.10437489614E+02  0.23302603637E+02 -0.80891162188E+02  0.84955415636E+02  0.47000000000E+01 0.  1.
         -5    1    3    3    0  503 -0.81988255105E+02 -0.11475109517E+03 -0.23671301807E+03  0.27558125978E+03  0.47000000000E+01 0.  1.
<mgrwt>
<rscale>  0 0.16429522E+03</rscale>
<asrwt>0</asrwt>
<pdfrwt beam="1">  1        1 0.64737123E-01 0.17062907E+03</pdfrwt>
<pdfrwt beam="2">  1       -1 0.13427033E-01 0.17062907E+03</pdfrwt>
<totfact> 0.21451523E+03</totfact>
</mgrwt>
</event>
<event>
 8    1  0.3520338E-004  0.1327680E+03  0.7546771E-02  0.1234504E+00
          2   -1    0    0  501    0  0.00000000000E+00  0.00000000000E+00  0.13638621092E+04  0.13638621092E+04  0.00000000000E+00 0. -1.
         -2   -1    0    0    0  501 -0.00000000000E+00 -0.00000000000E+00 -0.10523291723E+02  0.10523291723E+02  0.00000000000E+00 0.  1.
         25    2    1    2    0    0  0.22626910255E+02  0.38615257232E+02  0.68208690867E+03  0.69488839861E+03  0.12499688154E+03 0.  0.
         23    2    1    2    0    0 -0.22626910255E+02 -0.38615257232E+02  0.67125190879E+03  0.67949700229E+03  0.95571627100E+02 0.  0.
          5    1    4    4  502    0  0.16881005410E+02 -0.54100844815E+02  0.26651909943E+03  0.27251860508E+03  0.47000000000E+01 0. -1.
         -5    1    4    4    0  502 -0.39507915666E+02  0.15485587583E+02  0.40473280935E+03  0.40697839720E+03  0.47000000000E+01 0.  1.
          5    1    3    3  503    0  0.23659365482E+02  0.78936795508E+02  0.56415217074E+03  0.57015835083E+03  0.47000000000E+01 0.  1.
         -5    1    3    3    0  503 -0.10324552262E+01 -0.40321538276E+02  0.11793473792E+03  0.12473004779E+03  0.47000000000E+01 0.  1.
<mgrwt>
<rscale>  0 0.12536211E+03</rscale>
<asrwt>0</asrwt>
<pdfrwt beam="1">  1        2 0.20982480E+00 0.13276798E+03</pdfrwt>
<pdfrwt beam="2">  1       -2 0.16189690E-02 0.13276798E+03</pdfrwt>
<totfact> 0.16441650E+04</totfact>
</mgrwt>
</event>
<event>
 8    1  0.3520338E-004  0.1533127E+03  0.7546771E-02  0.1202990E+00
          2   -1    0    0  501    0  0.00000000000E+00  0.00000000000E+00  0.12389312204E+03  0.12389312204E+03  0.00000000000E+00 0. -1.
         -2   -1    0    0    0  501 -0.00000000000E+00 -0.00000000000E+00 -0.32318743128E+03  0.32318743128E+03  0.00000000000E+00 0.  1.
         25    2    1    2    0    0  0.84665411536E+02 -0.26692234286E+02  0.52707182731E+02  0.16211982542E+03  0.12499633355E+03 0.  0.
         23    2    1    2    0    0 -0.84665411536E+02  0.26692234286E+02 -0.25200149197E+03  0.28496072790E+03  0.99081568455E+02 0.  0.
          5    1    3    3  502    0  0.99754143196E+02  0.55290536034E+01  0.70200384945E+02  0.12219510450E+03  0.47000000000E+01 0.  1.
         -5    1    3    3    0  502 -0.15088731659E+02 -0.32221287889E+02 -0.17493202215E+02  0.39924720914E+02  0.47000000000E+01 0.  1.
          5    1    4    4  503    0 -0.21235486984E+02  0.49776658568E+02 -0.57848104114E+02  0.79354614202E+02  0.47000000000E+01 0. -1.
         -5    1    4    4    0  503 -0.63429924552E+02 -0.23084424282E+02 -0.19415338786E+03  0.20560611370E+03  0.47000000000E+01 0.  1.
<mgrwt>
<rscale>  0 0.14797003E+03</rscale>
<asrwt>0</asrwt>
<pdfrwt beam="1">  1        2 0.19060481E-01 0.15331272E+03</pdfrwt>
<pdfrwt beam="2">  1       -2 0.49721143E-01 0.15331272E+03</pdfrwt>
<totfact> 0.11228746E+03</totfact>
</mgrwt>
</event>
<event>
 8    1  0.3520338E-004  0.1581621E+03  0.7546771E-02  0.1198513E+00
          2   -1    0    0  501    0  0.00000000000E+00  0.00000000000E+00  0.14672443970E+03  0.14672443970E+03  0.00000000000E+00 0. -1.
         -2   -1    0    0    0  501 -0.00000000000E+00 -0.00000000000E+00 -0.20813026344E+03  0.20813026344E+03  0.00000000000E+00 0.  1.
         25    2    1    2    0    0  0.65265440222E+02 -0.71613771067E+02  0.64990126144E+02  0.17099407194E+03  0.12500858470E+03 0.  0.
         23    2    1    2    0    0 -0.65265440222E+02  0.71613771067E+02 -0.12639594989E+03  0.18386063120E+03  0.91873204278E+02 0.  0.
          5    1    3    3  502    0  0.68364131017E+01  0.34776371626E+02  0.71661842051E+01  0.36463361936E+02  0.47000000000E+01 0.  1.
         -5    1    3    3    0  502  0.58429027121E+02 -0.10639014269E+03  0.57823941939E+02  0.13453071000E+03  0.47000000000E+01 0.  1.
          5    1    4    4  503    0 -0.23932225938E+02  0.31636125921E+02  0.50942065075E+01  0.40269552289E+02  0.47000000000E+01 0. -1.
         -5    1    4    4    0  503 -0.41333214284E+02  0.39977645146E+02 -0.13149015640E+03  0.14359107892E+03  0.47000000000E+01 0.  1.
<mgrwt>
<rscale>  0 0.15160625E+03</rscale>
<asrwt>0</asrwt>
<pdfrwt beam="1">  1        2 0.22572991E-01 0.15816212E+03</pdfrwt>
<pdfrwt beam="2">  1       -2 0.32020041E-01 0.15816212E+03</pdfrwt>
<totfact> 0.21410225E+03</totfact>
</mgrwt>
</event>
<event>
 8    1  0.3520338E-004  0.1644680E+03  0.7546771E-02  0.1190868E+00
         -2   -1    0    0    0  501 -0.00000000000E+00  0.00000000000E+00  0.42851045355E+02  0.42851045355E+02  0.00000000000E+00 0.  1.
          2   -1    0    0  501    0  0.00000000000E+00 -0.00000000000E+00 -0.57211106156E+03  0.57211106156E+03  0.00000000000E+00 0. -1.
         25    2    1    2    0    0 -0.68913196017E+02 -0.81714520958E+02 -0.21442130506E+03  0.27023364563E+03  0.12499374244E+03 0.  0.
         23    2    1    2    0    0  0.68913196017E+02  0.81714520958E+02 -0.31483871115E+03  0.34472846128E+03  0.91038488894E+02 0.  0.
          5    1    4    4  502    0  0.22847431890E+02  0.84487881414E+02 -0.25064576553E+03  0.26552890055E+03  0.47000000000E+01 0. -1.
         -5    1    4    4    0  502  0.46065764127E+02 -0.27733604554E+01 -0.64192945615E+02  0.79199560728E+02  0.47000000000E+01 0.  1.
          5    1    3    3  503    0 -0.27934964021E+02 -0.87303564902E+02 -0.58476754797E+02  0.10882966283E+03  0.47000000000E+01 0. -1.
         -5    1    3    3    0  503 -0.40978231996E+02  0.55890439436E+01 -0.15594455026E+03  0.16140398281E+03  0.47000000000E+01 0. -1.
<mgrwt>
<rscale>  0 0.15809158E+03</rscale>
<asrwt>0</asrwt>
<pdfrwt beam="1">  1        2 0.88017083E-01 0.16446801E+03</pdfrwt>
<pdfrwt beam="2">  1       -2 0.65924688E-02 0.16446801E+03</pdfrwt>
<totfact> 0.66293355E+03</totfact>
</mgrwt>
</event>
<event>
 8    1  0.3520338E-004  0.1429539E+03  0.7546771E-02  0.1219988E+00
         -2   -1    0    0    0  501 -0.00000000000E+00  0.00000000000E+00  0.25505321998E+03  0.25505321998E+03  0.00000000000E+00 0. -1.
          2   -1    0    0  501    0  0.00000000000E+00 -0.00000000000E+00 -0.78618318778E+02  0.78618318778E+02  0.00000000000E+00 0.  1.
         25    2    1    2    0    0  0.51888209840E+02 -0.46017809829E+02  0.26863792449E+02  0.14545609966E+03  0.12500315373E+03 0.  0.
         23    2    1    2    0    0 -0.51888209840E+02  0.46017809829E+02  0.14957110875E+03  0.18821543909E+03  0.90793776210E+02 0.  0.
          5    1    3    3  502    0  0.28248654721E+02 -0.43475165836E+02  0.75154938653E+02  0.91424457023E+02  0.47000000000E+01 0. -1.
         -5    1    3    3    0  502  0.23639555120E+02 -0.25426439929E+01 -0.48291146204E+02  0.54031642640E+02  0.47000000000E+01 0. -1.
          5    1    4    4  503    0  0.12230564663E+02  0.46166887118E+02  0.47073288332E+02  0.67223155627E+02  0.47000000000E+01 0. -1.
         -5    1    4    4    0  503 -0.64118774503E+02 -0.14907728860E+00  0.10249782042E+03  0.12099228347E+03  0.47000000000E+01 0.  1.
<mgrwt>
<rscale>  0 0.13516461E+03</rscale>
<asrwt>0</asrwt>
<pdfrwt beam="1">  1        2 0.12095126E-01 0.14295389E+03</pdfrwt>
<pdfrwt beam="2">  1       -2 0.39238956E-01 0.14295389E+03</pdfrwt>
<totfact> 0.30144792E+03</totfact>
</mgrwt>
</event>
<event>
 8    1  0.3520338E-004  0.2537898E+03  0.7546771E-02  0.1113333E+00
         -1   -1    0    0    0  501 -0.00000000000E+00  0.00000000000E+00  0.48963997928E+03  0.48963997928E+03  0.00000000000E+00 0.  1.
          1   -1    0    0  501    0  0.00000000000E+00 -0.00000000000E+00 -0.13460056735E+03  0.13460056735E+03  0.00000000000E+00 0. -1.
         25    2    1    2    0    0 -0.31118664394E+02  0.21866919987E+03  0.27051119209E+03  0.37092527006E+03  0.12499864271E+03 0.  0.
         23    2    1    2    0    0  0.31118664394E+02 -0.21866919987E+03  0.84528219839E+02  0.25331527658E+03  0.90769042934E+02 0.  0.
          5    1    4    4  502    0 -0.18289648464E+01 -0.33844025637E+02 -0.18723054925E+02  0.39005204390E+02  0.47000000000E+01 0. -1.
         -5    1    3    3    0  503 -0.38809566277E+01  0.22162572736E+03  0.25874290002E+03  0.34073890762E+03  0.47000000000E+01 0. -1.
          5    1    3    3  503    0 -0.27237707766E+02 -0.29565274985E+01  0.11768292072E+02  0.30186362442E+02  0.47000000000E+01 0. -1.
         -5    1    4    4    0  502  0.32947629240E+02 -0.18482517423E+03  0.10325127476E+03  0.21431007219E+03  0.47000000000E+01 0.  1.
<mgrwt>
<rscale>  0 0.24995535E+03</rscale>
<asrwt>0</asrwt>
<pdfrwt beam="1">  1        1 0.20707780E-01 0.25378978E+03</pdfrwt>
<pdfrwt beam="2">  1       -1 0.75329227E-01 0.25378978E+03</pdfrwt>
<totfact> 0.45238604E+02</totfact>
</mgrwt>
</event>
<event>
 8    1  0.3520338E-004  0.1512773E+03  0.7546771E-02  0.1207830E+00
         -1   -1    0    0    0  501 -0.00000000000E+00  0.00000000000E+00  0.17319029376E+03  0.17319029376E+03  0.00000000000E+00 0.  1.
          1   -1    0    0  501    0  0.00000000000E+00 -0.00000000000E+00 -0.13601685359E+03  0.13601685359E+03  0.00000000000E+00 0. -1.
         25    2    1    2    0    0  0.62627417299E+02 -0.57771361082E+02 -0.47329834845E+02  0.15850842482E+03  0.12500033565E+03 0.  0.
         23    2    1    2    0    0 -0.62627417299E+02  0.57771361082E+02  0.84503275011E+02  0.15069872254E+03  0.91156886341E+02 0.  0.
          5    1    3    3  502    0 -0.36841890266E+01 -0.64218769391E+02 -0.62724747379E+02  0.89967258070E+02  0.47000000000E+01 0. -1.
         -5    1    3    3    0  502  0.66311606326E+02  0.64474083083E+01  0.15394912535E+02  0.68541166749E+02  0.47000000000E+01 0. -1.
          5    1    4    4  503    0 -0.49815512748E+01  0.48357635184E+02  0.12064175221E+01  0.48855114133E+02  0.47000000000E+01 0. -1.
         -5    1    4    4    0  503 -0.57645866024E+02  0.94137258987E+01  0.83296857489E+02  0.10184360840E+03  0.47000000000E+01 0.  1.
<mgrwt>
<rscale>  0 0.14416634E+03</rscale>
<asrwt>0</asrwt>
<pdfrwt beam="1">  1        1 0.20925670E-01 0.15127725E+03</pdfrwt>
<pdfrwt beam="2">  1       -1 0.26644661E-01 0.15127725E+03</pdfrwt>
<totfact> 0.29254614E+03</totfact>
</mgrwt>
</event>
<event>
 8    1  0.3520338E-004  0.1926161E+03  0.7546771E-02  0.1160011E+00
          2   -1    0    0  501    0  0.00000000000E+00  0.00000000000E+00  0.60382833245E+03  0.60382833245E+03  0.00000000000E+00 0.  1.
         -2   -1    0    0    0  501 -0.00000000000E+00 -0.00000000000E+00 -0.73929923442E+02  0.73929923442E+02  0.00000000000E+00 0. -1.
         25    2    1    2    0    0  0.14460051023E+03  0.23765875271E+02  0.43980557748E+03  0.48013530494E+03  0.12500736253E+03 0.  0.
         23    2    1    2    0    0 -0.14460051023E+03 -0.23765875271E+02  0.90092831534E+02  0.19762295095E+03  0.97283030704E+02 0.  0.
          5    1    3    3  502    0  0.14499833128E+03  0.32565726624E+01  0.43497726440E+03  0.45854381675E+03  0.47000000000E+01 0.  1.
         -5    1    4    4    0  503 -0.11080397725E+03  0.22973761234E+02  0.37166525754E+02  0.11920048538E+03  0.47000000000E+01 0.  1.
          5    1    4    4  503    0 -0.33796532982E+02 -0.46739636505E+02  0.52926305779E+02  0.78422465567E+02  0.47000000000E+01 0. -1.
         -5    1    3    3    0  502 -0.39782105379E+00  0.20509302609E+02  0.48283130820E+01  0.21591488191E+02  0.47000000000E+01 0.  1.
<mgrwt>
<rscale>  0 0.18829170E+03</rscale>
<asrwt>0</asrwt>
<pdfrwt beam="1">  1        2 0.92896663E-01 0.19261611E+03</pdfrwt>
<pdfrwt beam="2">  1       -2 0.11373835E-01 0.19261611E+03</pdfrwt>
<totfact> 0.26715896E+03</totfact>
</mgrwt>
</event>
<event>
 8    1  0.3520338E-004  0.1634893E+03  0.7546771E-02  0.1191954E+00
         -1   -1    0    0    0  501 -0.00000000000E+00  0.00000000000E+00  0.87213108726E+02  0.87213108726E+02  0.00000000000E+00 0.  1.
          1   -1    0    0  501    0  0.00000000000E+00 -0.00000000000E+00 -0.30019601322E+03  0.30019601322E+03  0.00000000000E+00 0. -1.
         25    2    1    2    0    0  0.66627128472E+01  0.10517072794E+03 -0.46111592866E+02  0.16986768355E+03  0.12499390850E+03 0.  0.
         23    2    1    2    0    0 -0.66627128472E+01 -0.10517072794E+03 -0.16687131163E+03  0.21754143839E+03  0.91503928966E+02 0.  0.
          5    1    3    3  502    0 -0.25489455369E+02 -0.19404282163E+02  0.19731405081E+01  0.32437968258E+02  0.47000000000E+01 0. -1.
         -5    1    3    3    0  502  0.32152168216E+02  0.12457501010E+03 -0.48084733374E+02  0.13742971529E+03  0.47000000000E+01 0. -1.
          5    1    4    4  503    0  0.20118915675E+02 -0.10652576320E+03 -0.15126651983E+03  0.18616164754E+03  0.47000000000E+01 0. -1.
         -5    1    4    4    0  503 -0.26781628522E+02  0.13550352625E+01 -0.15604791796E+02  0.31379790851E+02  0.47000000000E+01 0.  1.
<mgrwt>
<rscale>  0 0.15714867E+03</rscale>
<asrwt>0</asrwt>
<pdfrwt beam="1">  1        1 0.46184002E-01 0.16348930E+03</pdfrwt>
<pdfrwt beam="2">  1       -1 0.13417401E-01 0.16348930E+03</pdfrwt>
<totfact> 0.32798941E+03</totfact>
</mgrwt>
</event>
<event>
 8    1  0.3520338E-004  0.1497366E+03  0.7546771E-02  0.1210098E+00
         -1   -1    0    0    0  501 -0.00000000000E+00  0.00000000000E+00  0.14996650470E+03  0.14996650470E+03  0.00000000000E+00 0.  1.
          1   -1    0    0  501    0  0.00000000000E+00 -0.00000000000E+00 -0.12361710284E+03  0.12361710284E+03  0.00000000000E+00 0. -1.
         25    2    1    2    0    0 -0.55547741771E+02 -0.60912063615E+02  0.14297747399E+02  0.15041761940E+03  0.12500081414E+03 0.  0.
         23    2    1    2    0    0  0.55547741771E+02  0.60912063615E+02  0.12051654459E+02  0.12316598814E+03  0.90712662560E+02 0.  0.
          5    1    3    3  502    0 -0.26863872958E+02 -0.21739896265E+02  0.68885591054E+02  0.77211433187E+02  0.47000000000E+01 0. -1.
         -5    1    3    3    0  502 -0.28683868813E+02 -0.39172167350E+02 -0.54587843655E+02  0.73206186213E+02  0.47000000000E+01 0. -1.
          5    1    4    4  503    0  0.43323485856E+02 -0.11541586917E+02 -0.10257725934E+02  0.46232495029E+02  0.47000000000E+01 0. -1.
         -5    1    4    4    0  503  0.12224255915E+02  0.72453650532E+02  0.22309380393E+02  0.76933493107E+02  0.47000000000E+01 0.  1.
<mgrwt>
<rscale>  0 0.14242830E+03</rscale>
<asrwt>0</asrwt>
<pdfrwt beam="1">  1        1 0.19018016E-01 0.14973655E+03</pdfrwt>
<pdfrwt beam="2">  1       -1 0.23071770E-01 0.14973655E+03</pdfrwt>
<totfact> 0.41859284E+03</totfact>
</mgrwt>
</event>
<event>
 8    1  0.3520338E-004  0.1497206E+03  0.7546771E-02  0.1210106E+00
         -2   -1    0    0    0  501 -0.00000000000E+00  0.00000000000E+00  0.28357983205E+03  0.28357983205E+03  0.00000000000E+00 0. -1.
          2   -1    0    0  501    0  0.00000000000E+00 -0.00000000000E+00 -0.88114642814E+02  0.88114642814E+02  0.00000000000E+00 0.  1.
         25    2    1    2    0    0 -0.76407659438E+02 -0.30872645900E+02  0.19901891993E+03  0.24904773739E+03  0.12499997730E+03 0.  0.
         23    2    1    2    0    0  0.76407659438E+02  0.30872645900E+02 -0.35537306885E+01  0.12264673747E+03  0.90765315651E+02 0.  0.
          5    1    4    4  502    0  0.96006973159E+01  0.51134910334E+02  0.32836040399E+01  0.52343332903E+02  0.47000000000E+01 0. -1.
         -5    1    4    4    0  502  0.66806962122E+02 -0.20262264434E+02 -0.68373347284E+01  0.70303404571E+02  0.47000000000E+01 0.  1.
          5    1    3    3  503    0  0.30561774770E+00  0.42907255477E+02  0.59088370419E+02  0.73175484238E+02  0.47000000000E+01 0.  1.
         -5    1    3    3    0  503 -0.76713277186E+02 -0.73779901378E+02  0.13993054951E+03  0.17587225316E+03  0.47000000000E+01 0.  1.
<mgrwt>
<rscale>  0 0.14242279E+03</rscale>
<asrwt>0</asrwt>
<pdfrwt beam="1">  1        2 0.13556099E-01 0.14972056E+03</pdfrwt>
<pdfrwt beam="2">  1       -2 0.43627666E-01 0.14972056E+03</pdfrwt>
<totfact> 0.21538780E+03</totfact>
</mgrwt>
</event>
<event>
 8    1  0.3520338E-004  0.1532409E+03  0.7546771E-02  0.1205338E+00
         -1   -1    0    0    0  501 -0.00000000000E+00  0.00000000000E+00  0.23723850034E+03  0.23723850034E+03  0.00000000000E+00 0. -1.
          1   -1    0    0  501    0  0.00000000000E+00 -0.00000000000E+00 -0.84830559127E+02  0.84830559127E+02  0.00000000000E+00 0.  1.
         25    2    1    2    0    0 -0.59009734436E+02 -0.66144656830E+02  0.56952357527E+02  0.16348193082E+03  0.12500202515E+03 0.  0.
         23    2    1    2    0    0  0.59009734436E+02  0.66144656830E+02  0.95455583681E+02  0.15858712864E+03  0.90448021145E+02 0.  0.
          5    1    3    3  502    0 -0.44722517594E+01 -0.57044459810E+02  0.84003604511E+02  0.10174854791E+03  0.47000000000E+01 0.  1.
         -5    1    3    3    0  502 -0.54537482677E+02 -0.91001970194E+01 -0.27051246984E+02  0.61733382913E+02  0.47000000000E+01 0.  1.
          5    1    4    4  503    0 -0.73161642447E+01  0.31721335888E+02  0.73557085949E+02  0.80576077734E+02  0.47000000000E+01 0. -1.
         -5    1    4    4    0  503  0.66325898681E+02  0.34423320942E+02  0.21898497733E+02  0.78011050906E+02  0.47000000000E+01 0.  1.
<mgrwt>
<rscale>  0 0.14610839E+03</rscale>
<asrwt>0</asrwt>
<pdfrwt beam="1">  1        1 0.13050855E-01 0.15324089E+03</pdfrwt>
<pdfrwt beam="2">  1       -1 0.36498231E-01 0.15324089E+03</pdfrwt>
<totfact> 0.31594338E+03</totfact>
</mgrwt>
</event>
<event>
 8    1  0.3520338E-004  0.1256256E+03  0.7546771E-02  0.1246666E+00
         -3   -1    0    0    0  501 -0.00000000000E+00  0.00000000000E+00  0.13777197453E+03  0.13777197453E+03  0.00000000000E+00 0.  1.
          3   -1    0    0  501    0  0.00000000000E+00 -0.00000000000E+00 -0.90761910292E+02  0.90761910292E+02  0.00000000000E+00 0. -1.
         25    2    1    2    0    0  0.97313664155E+01 -0.79697760198E+01  0.17587394881E+02  0.12685075381E+03  0.12499432172E+03 0.  0.
         23    2    1    2    0    0 -0.97313664155E+01  0.79697760198E+01  0.29422669356E+02  0.10168313101E+03  0.96517090911E+02 0.  0.
          5    1    4    4  502    0  0.89893307383E+01  0.18234919847E+02 -0.31033111372E+02  0.37396047524E+02  0.47000000000E+01 0. -1.
         -5    1    3    3    0  503  0.34940037070E+02 -0.55575886946E+02  0.28444395032E+02  0.71698389166E+02  0.47000000000E+01 0.  1.
          5    1    3    3  503    0 -0.25208670654E+02  0.47606110926E+02 -0.10857000151E+02  0.55152364645E+02  0.47000000000E+01 0.  1.
         -5    1    4    4    0  502 -0.18720697154E+02 -0.10265143827E+02  0.60455780729E+02  0.64287083487E+02  0.47000000000E+01 0.  1.
<mgrwt>
<rscale>  0 0.11786205E+03</rscale>
<asrwt>0</asrwt>
<pdfrwt beam="1">  1        3 0.13963371E-01 0.12562562E+03</pdfrwt>
<pdfrwt beam="2">  1       -3 0.21195688E-01 0.12562562E+03</pdfrwt>
<totfact> 0.19215957E+03</totfact>
</mgrwt>
</event>
<event>
 8    1  0.3520338E-004  0.1677139E+03  0.7546771E-02  0.1186902E+00
         -1   -1    0    0    0  501 -0.00000000000E+00  0.00000000000E+00  0.50557482713E+03  0.50557482713E+03  0.00000000000E+00 0.  1.
          1   -1    0    0  501    0  0.00000000000E+00 -0.00000000000E+00 -0.49279558221E+02  0.49279558221E+02  0.00000000000E+00 0. -1.
         25    2    1    2    0    0  0.11152048427E+03 -0.84031881506E+01  0.28525526964E+03  0.33090558454E+03  0.12498201888E+03 0.  0.
         23    2    1    2    0    0 -0.11152048427E+03  0.84031881506E+01  0.17103999927E+03  0.22394880081E+03  0.91602139979E+02 0.  0.
          5    1    4    4  502    0 -0.61613977045E+02 -0.39962664067E+02  0.72750346873E+02  0.10347946490E+03  0.47000000000E+01 0. -1.
         -5    1    3    3    0  503  0.15781578605E+02 -0.41865146711E+02  0.24818114165E+02  0.51378765294E+02  0.47000000000E+01 0. -1.
          5    1    3    3  503    0  0.95738905668E+02  0.33461958561E+02  0.26043715547E+03  0.27952681925E+03  0.47000000000E+01 0. -1.
         -5    1    4    4    0  502 -0.49906507228E+02  0.48365852218E+02  0.98289652398E+02  0.12046933590E+03  0.47000000000E+01 0.  1.
<mgrwt>
<rscale>  0 0.16159979E+03</rscale>
<asrwt>0</asrwt>
<pdfrwt beam="1">  1        1 0.75814708E-02 0.16771385E+03</pdfrwt>
<pdfrwt beam="2">  1       -1 0.77780739E-01 0.16771385E+03</pdfrwt>
<totfact> 0.15921581E+03</totfact>
</mgrwt>
</event>
<event>
 8    1  0.3520338E-004  0.1285137E+03  0.7546771E-02  0.1243694E+00
         -2   -1    0    0    0  501 -0.00000000000E+00  0.00000000000E+00  0.44049652747E+02  0.44049652747E+02  0.00000000000E+00 0.  1.
          2   -1    0    0  501    0  0.00000000000E+00 -0.00000000000E+00 -0.32365844183E+03  0.32365844183E+03  0.00000000000E+00 0. -1.
         25    2    1    2    0    0  0.17570405587E+02 -0.24149247468E+02 -0.96485497569E+02  0.16070231349E+03  0.12499550797E+03 0.  0.
         23    2    1    2    0    0 -0.17570405587E+02  0.24149247468E+02 -0.18312329152E+03  0.20700578109E+03  0.91789695524E+02 0.  0.
          5    1    4    4  502    0  0.14056742319E+02  0.20289782504E+02 -0.17061535596E+03  0.17245566667E+03  0.47000000000E+01 0. -1.
         -5    1    4    4    0  502 -0.31627147907E+02  0.38594649642E+01 -0.12507935558E+02  0.34550114420E+02  0.47000000000E+01 0.  1.
          5    1    3    3  503    0  0.90389920989E+01 -0.47797957303E+02  0.11101818971E+02  0.50116748547E+02  0.47000000000E+01 0.  1.
         -5    1    3    3    0  503  0.85314134885E+01  0.23648709834E+02 -0.10758731654E+03  0.11058556494E+03  0.47000000000E+01 0.  1.
<mgrwt>
<rscale>  0 0.11963911E+03</rscale>
<asrwt>0</asrwt>
<pdfrwt beam="1">  1        2 0.49793606E-01 0.12851374E+03</pdfrwt>
<pdfrwt beam="2">  1       -2 0.67768697E-02 0.12851374E+03</pdfrwt>
<totfact> 0.11600299E+04</totfact>
</mgrwt>
</event>
<event>
 8    1  0.3520338E-004  0.1688088E+03  0.7546771E-02  0.1185632E+00
         -2   -1    0    0    0  501 -0.00000000000E+00  0.00000000000E+00  0.10680246883E+03  0.10680246883E+03  0.00000000000E+00 0.  1.
          2   -1    0    0  501    0  0.00000000000E+00 -0.00000000000E+00 -0.23593533244E+03  0.23593533244E+03  0.00000000000E+00 0. -1.
         25    2    1    2    0    0  0.10614140487E+03 -0.40063669256E+02 -0.46382610071E+02  0.17506502372E+03  0.12500128236E+03 0.  0.
         23    2    1    2    0    0 -0.10614140487E+03  0.40063669256E+02 -0.82750253537E+02  0.16767277754E+03  0.91626745259E+02 0.  0.
          5    1    4    4  502    0 -0.55453906383E+02  0.16754007538E+02 -0.94046908063E+02  0.11055651685E+03  0.47000000000E+01 0. -1.
         -5    1    3    3    0  503  0.87985765405E+02 -0.23826758398E+01 -0.81652162031E+02  0.12015131136E+03  0.47000000000E+01 0.  1.
          5    1    3    3  503    0  0.18155639464E+02 -0.37680993416E+02  0.35269551960E+02  0.54913712355E+02  0.47000000000E+01 0.  1.
         -5    1    4    4    0  502 -0.50687498487E+02  0.23309661718E+02  0.11296654525E+02  0.57116260694E+02  0.47000000000E+01 0.  1.
<mgrwt>
<rscale>  0 0.16274531E+03</rscale>
<asrwt>0</asrwt>
<pdfrwt beam="1">  1        2 0.36297743E-01 0.16880881E+03</pdfrwt>
<pdfrwt beam="2">  1       -2 0.16431149E-01 0.16880881E+03</pdfrwt>
<totfact> 0.40607136E+03</totfact>
</mgrwt>
</event>
<event>
 8    1  0.3520338E-004  0.1606381E+03  0.7546771E-02  0.1197587E+00
          1   -1    0    0  501    0  0.00000000000E+00  0.00000000000E+00  0.56077056246E+03  0.56077056246E+03  0.00000000000E+00 0. -1.
         -1   -1    0    0    0  501 -0.00000000000E+00 -0.00000000000E+00 -0.39152462793E+02  0.39152462793E+02  0.00000000000E+00 0.  1.
         25    2    1    2    0    0 -0.97415475853E+02  0.26253483947E+02  0.22914895759E+03  0.27984609006E+03  0.12500227598E+03 0.  0.
         23    2    1    2    0    0  0.97415475853E+02 -0.26253483947E+02  0.29246914208E+03  0.32007693520E+03  0.82048918471E+02 0.  0.
          5    1    4    4  502    0  0.16718010781E+02 -0.41550702443E+02  0.73935672172E+02  0.86570932636E+02  0.47000000000E+01 0. -1.
         -5    1    3    3    0  503  0.15963423510E+02  0.42422458541E+02  0.56051144974E+02  0.72237917549E+02  0.47000000000E+01 0.  1.
          5    1    3    3  503    0 -0.11337889936E+03 -0.16168974594E+02  0.17309781262E+03  0.20760817251E+03  0.47000000000E+01 0.  1.
         -5    1    4    4    0  502  0.80697465073E+02  0.15297218495E+02  0.21853346991E+03  0.23350600256E+03  0.47000000000E+01 0.  1.
<mgrwt>
<rscale>  0 0.15237288E+03</rscale>
<asrwt>0</asrwt>
<pdfrwt beam="1">  1        1 0.86272388E-01 0.16063807E+03</pdfrwt>
<pdfrwt beam="2">  1       -1 0.60234562E-02 0.16063807E+03</pdfrwt>
<totfact> 0.49984074E+03</totfact>
</mgrwt>
</event>
<event>
 8    1  0.3520338E-004  0.1507040E+03  0.7546771E-02  0.1211409E+00
         -2   -1    0    0    0  501 -0.00000000000E+00  0.00000000000E+00  0.91562648599E+02  0.91562648599E+02  0.00000000000E+00 0.  1.
          2   -1    0    0  501    0  0.00000000000E+00 -0.00000000000E+00 -0.19555129974E+03  0.19555129974E+03  0.00000000000E+00 0. -1.
         25    2    1    2    0    0  0.80224863839E+02  0.25516185077E+02 -0.58861933299E+02  0.16179130070E+03  0.12499837323E+03 0.  0.
         23    2    1    2    0    0 -0.80224863839E+02 -0.25516185077E+02 -0.45126717845E+02  0.12532264764E+03  0.81131010535E+02 0.  0.
          5    1    3    3  502    0  0.46321409589E+02 -0.32785653696E+02  0.17719616976E+02  0.59637629902E+02  0.47000000000E+01 0.  1.
         -5    1    3    3    0  502  0.33903454250E+02  0.58301838773E+02 -0.76581550275E+02  0.10215367079E+03  0.47000000000E+01 0.  1.
          5    1    4    4  503    0  0.24516686481E+01 -0.31407247711E+02 -0.23353615371E+02  0.39495661013E+02  0.47000000000E+01 0. -1.
         -5    1    4    4    0  503 -0.82676532487E+02  0.58910626338E+01 -0.21773102474E+02  0.85826986632E+02  0.47000000000E+01 0.  1.
<mgrwt>
<rscale>  0 0.14143668E+03</rscale>
<asrwt>0</asrwt>
<pdfrwt beam="1">  1        2 0.30084815E-01 0.15070401E+03</pdfrwt>
<pdfrwt beam="2">  1       -2 0.14086561E-01 0.15070401E+03</pdfrwt>
<totfact> 0.63639266E+03</totfact>
</mgrwt>
</event>
<event>
 8    1  0.3520338E-004  0.1387790E+03  0.7546771E-02  0.1226925E+00
          2   -1    0    0  501    0  0.00000000000E+00  0.00000000000E+00  0.51644384932E+03  0.51644384932E+03  0.00000000000E+00 0. -1.
         -2   -1    0    0    0  501 -0.00000000000E+00 -0.00000000000E+00 -0.35531087308E+02  0.35531087308E+02  0.00000000000E+00 0.  1.
         25    2    1    2    0    0  0.19854690377E+02 -0.56919013153E+02  0.15224461928E+03  0.20600496281E+03  0.12500255122E+03 0.  0.
         23    2    1    2    0    0 -0.19854690377E+02  0.56919013153E+02  0.32866814272E+03  0.34596997382E+03  0.89657637453E+02 0.  0.
          5    1    4    4  502    0  0.22351338699E+02 -0.81816277782E+01  0.13716197781E+03  0.13929113228E+03  0.47000000000E+01 0. -1.
         -5    1    4    4    0  502 -0.42206029076E+02  0.65100640931E+02  0.19150616492E+03  0.20667884154E+03  0.47000000000E+01 0.  1.
          5    1    3    3  503    0  0.59634254625E+02 -0.97583931258E+01  0.27086633372E+02  0.66387094141E+02  0.47000000000E+01 0. -1.
         -5    1    3    3    0  503 -0.39779564248E+02 -0.47160620027E+02  0.12515798591E+03  0.13961786867E+03  0.47000000000E+01 0. -1.
<mgrwt>
<rscale>  0 0.13035817E+03</rscale>
<asrwt>0</asrwt>
<pdfrwt beam="1">  1        2 0.79452894E-01 0.13877904E+03</pdfrwt>
<pdfrwt beam="2">  1       -2 0.54663215E-02 0.13877904E+03</pdfrwt>
<totfact> 0.97834713E+03</totfact>
</mgrwt>
</event>
<event>
 8    1  0.3520338E-004  0.4713118E+03  0.7546771E-02  0.1022071E+00
          2   -1    0    0  501    0  0.00000000000E+00  0.00000000000E+00  0.32123869680E+04  0.32123869680E+04  0.00000000000E+00 0. -1.
         -2   -1    0    0    0  501 -0.00000000000E+00 -0.00000000000E+00 -0.76118921746E+02  0.76118921746E+02  0.00000000000E+00 0.  1.
         25    2    1    2    0    0 -0.33193309707E+03  0.31037291730E+03  0.21135542469E+04  0.21654667745E+04  0.12499547368E+03 0.  0.
         23    2    1    2    0    0  0.33193309707E+03 -0.31037291730E+03  0.10227137993E+04  0.11230391152E+04  0.93607745957E+02 0.  0.
          5    1    3    3  502    0 -0.33228537419E+03  0.26325764213E+03  0.18986862102E+04  0.19454432839E+04  0.47000000000E+01 0.  1.
         -5    1    3    3    0  502  0.35227711444E+00  0.47115275166E+02  0.21486803671E+03  0.22002349068E+03  0.47000000000E+01 0.  1.
          5    1    4    4  503    0  0.24352720519E+03 -0.27784234103E+03  0.82661000779E+03  0.90543252709E+03  0.47000000000E+01 0. -1.
         -5    1    4    4    0  503  0.88405891887E+02 -0.32530576267E+02  0.19610379155E+03  0.21760658807E+03  0.47000000000E+01 0.  1.
<mgrwt>
<rscale>  0 0.46946693E+03</rscale>
<asrwt>0</asrwt>
<pdfrwt beam="1">  1        2 0.49421328E+00 0.47131178E+03</pdfrwt>
<pdfrwt beam="2">  1       -2 0.11710606E-01 0.47131178E+03</pdfrwt>
<totfact> 0.75341321E+01</totfact>
</mgrwt>
</event>
<event>
 8    1  0.3520338E-004  0.1267989E+03  0.7546771E-02  0.1247833E+00
          1   -1    0    0  501    0  0.00000000000E+00  0.00000000000E+00  0.50354810483E+03  0.50354810483E+03  0.00000000000E+00 0. -1.
         -1   -1    0    0    0  501 -0.00000000000E+00 -0.00000000000E+00 -0.27195561087E+02  0.27195561087E+02  0.00000000000E+00 0.  1.
         25    2    1    2    0    0  0.53041873574E+01 -0.20593026694E+02  0.17910253418E+03  0.21944399486E+03  0.12500296788E+03 0.  0.
         23    2    1    2    0    0 -0.53041873574E+01  0.20593026694E+02  0.29725000956E+03  0.31129967106E+03  0.89987276117E+02 0.  0.
          5    1    4    4  502    0  0.12646596469E+02  0.48371806921E+02  0.23837595376E+03  0.24360819658E+03  0.47000000000E+01 0. -1.
         -5    1    4    4    0  502 -0.17950783826E+02 -0.27778780227E+02  0.58874055799E+02  0.67691474479E+02  0.47000000000E+01 0.  1.
          5    1    3    3  503    0  0.62728749121E+02 -0.27550973295E+02  0.10118283363E+03  0.12228658110E+03  0.47000000000E+01 0.  1.
         -5    1    3    3    0  503 -0.57424561763E+02  0.69579466006E+01  0.77919700546E+02  0.97157413757E+02  0.47000000000E+01 0.  1.
<mgrwt>
<rscale>  0 0.11717413E+03</rscale>
<asrwt>0</asrwt>
<pdfrwt beam="1">  1        1 0.77468933E-01 0.12679885E+03</pdfrwt>
<pdfrwt beam="2">  1       -1 0.41839328E-02 0.12679885E+03</pdfrwt>
<totfact> 0.97526350E+03</totfact>
</mgrwt>
</event>
<event>
 8    1  0.3520338E-004  0.2013715E+03  0.7546771E-02  0.1152671E+00
         -2   -1    0    0    0  501 -0.00000000000E+00  0.00000000000E+00  0.16030301286E+03  0.16030301286E+03  0.00000000000E+00 0.  1.
          2   -1    0    0  501    0  0.00000000000E+00 -0.00000000000E+00 -0.36453415799E+03  0.36453415799E+03  0.00000000000E+00 0. -1.
         25    2    1    2    0    0  0.12601049040E+03  0.95118140297E+02  0.53958330580E+02  0.20847536504E+03  0.12499748832E+03 0.  0.
         23    2    1    2    0    0 -0.12601049040E+03 -0.95118140297E+02 -0.25818947572E+03  0.31636180581E+03  0.92178536008E+02 0.  0.
          5    1    3    3  502    0  0.13975909096E+02  0.45935807904E+02 -0.32862477614E+02  0.58373426469E+02  0.47000000000E+01 0. -1.
         -5    1    3    3    0  502  0.11203458131E+03  0.49182332393E+02  0.86820808193E+02  0.15010193857E+03  0.47000000000E+01 0. -1.
          5    1    4    4  503    0 -0.10171385906E+03 -0.45647338986E+02 -0.22679192518E+03  0.25275691090E+03  0.47000000000E+01 0. -1.
         -5    1    4    4    0  503 -0.24296631347E+02 -0.49470801310E+02 -0.31397550536E+02  0.63604894912E+02  0.47000000000E+01 0.  1.
<mgrwt>
<rscale>  0 0.19656407E+03</rscale>
<asrwt>0</asrwt>
<pdfrwt beam="1">  1        2 0.56082178E-01 0.20137149E+03</pdfrwt>
<pdfrwt beam="2">  1       -2 0.24662002E-01 0.20137149E+03</pdfrwt>
<totfact> 0.12813880E+03</totfact>
</mgrwt>
</event>
<event>
 8    1  0.3520338E-004  0.1551603E+03  0.7546771E-02  0.1202193E+00
         -2   -1    0    0    0  501 -0.00000000000E+00  0.00000000000E+00  0.10720622339E+03  0.10720622339E+03  0.00000000000E+00 0.  1.
          2   -1    0    0  501    0  0.00000000000E+00 -0.00000000000E+00 -0.26640794739E+03  0.26640794739E+03  0.00000000000E+00 0. -1.
         25    2    1    2    0    0  0.72548350525E+01  0.91632296148E+02 -0.18402501210E+03  0.24070711515E+03  0.12500239949E+03 0.  0.
         23    2    1    2    0    0 -0.72548350525E+01 -0.91632296148E+02  0.24823288105E+02  0.13290705563E+03  0.92730682488E+02 0.  0.
          5    1    3    3  502    0  0.18770960013E+02  0.68779927567E+02 -0.19397557885E+02  0.74036360174E+02  0.47000000000E+01 0.  1.
         -5    1    4    4    0  503 -0.49444327193E+02 -0.51721863115E+02  0.73800147838E+01  0.72086387299E+02  0.47000000000E+01 0.  1.
          5    1    4    4  503    0  0.42189492140E+02 -0.39910433033E+02  0.17443273321E+02  0.60820668330E+02  0.47000000000E+01 0. -1.
         -5    1    3    3    0  502 -0.11516124960E+02  0.22852368582E+02 -0.16462745422E+03  0.16667075498E+03  0.47000000000E+01 0.  1.
<mgrwt>
<rscale>  0 0.14860892E+03</rscale>
<asrwt>0</asrwt>
<pdfrwt beam="1">  1        2 0.40985837E-01 0.15516027E+03</pdfrwt>
<pdfrwt beam="2">  1       -2 0.16493265E-01 0.15516027E+03</pdfrwt>
<totfact> 0.35285592E+03</totfact>
</mgrwt>
</event>
<event>
 8    1  0.3520338E-004  0.1294691E+03  0.7546771E-02  0.1242317E+00
         -1   -1    0    0    0  501 -0.00000000000E+00  0.00000000000E+00  0.14256917446E+03  0.14256917446E+03  0.00000000000E+00 0.  1.
          1   -1    0    0  501    0  0.00000000000E+00 -0.00000000000E+00 -0.89995545024E+02  0.89995545024E+02  0.00000000000E+00 0. -1.
         25    2    1    2    0    0 -0.18469642837E+02  0.28237743332E+02  0.29132247178E+02  0.13270624076E+03  0.12499504253E+03 0.  0.
         23    2    1    2    0    0  0.18469642837E+02 -0.28237743332E+02  0.23441382262E+02  0.99858478725E+02  0.91014941169E+02 0.  0.
          5    1    4    4  502    0  0.46609896084E+02  0.11416249091E+02  0.11685781585E+02  0.49613109633E+02  0.47000000000E+01 0. -1.
         -5    1    4    4    0  502 -0.28140253247E+02 -0.39653992423E+02  0.11755600677E+02  0.50245369092E+02  0.47000000000E+01 0.  1.
          5    1    3    3  503    0 -0.16940054955E+02  0.75577154351E+02  0.13748525120E+01  0.77607035384E+02  0.47000000000E+01 0.  1.
         -5    1    3    3    0  503 -0.15295878818E+01 -0.47339411019E+02  0.27757394666E+02  0.55099205379E+02  0.47000000000E+01 0.  1.
<mgrwt>
<rscale>  0 0.12047414E+03</rscale>
<asrwt>0</asrwt>
<pdfrwt beam="1">  1        1 0.13845468E-01 0.12946914E+03</pdfrwt>
<pdfrwt beam="2">  1       -1 0.21933719E-01 0.12946914E+03</pdfrwt>
<totfact> 0.67785153E+03</totfact>
</mgrwt>
</event>
<event>
 8    1  0.3520338E-004  0.1533134E+03  0.7546771E-02  0.1204968E+00
         -2   -1    0    0    0  501 -0.00000000000E+00  0.00000000000E+00  0.38139728957E+02  0.38139728957E+02  0.00000000000E+00 0.  1.
          2   -1    0    0  501    0  0.00000000000E+00 -0.00000000000E+00 -0.55056193114E+03  0.55056193114E+03  0.00000000000E+00 0. -1.
         25    2    1    2    0    0  0.16201707858E+02 -0.87276305079E+02 -0.35095013022E+03  0.38297648801E+03  0.12500139079E+03 0.  0.
         23    2    1    2    0    0 -0.16201707858E+02  0.87276305079E+02 -0.16147207196E+03  0.20572517208E+03  0.91487527242E+02 0.  0.
          5    1    3    3  502    0 -0.32694427057E+02 -0.89587369044E+02 -0.16501738200E+03  0.19065059301E+03  0.47000000000E+01 0.  1.
         -5    1    4    4    0  503  0.84931754758E+01  0.83405838798E+02 -0.65654309111E+02  0.10658914710E+03  0.47000000000E+01 0.  1.
          5    1    4    4  503    0 -0.24694883334E+02  0.38704662814E+01 -0.95817762847E+02  0.99136024981E+02  0.47000000000E+01 0. -1.
         -5    1    3    3    0  502  0.48896134915E+02  0.23110639649E+01 -0.18593274822E+03  0.19232589500E+03  0.47000000000E+01 0.  1.
<mgrwt>
<rscale>  0 0.14639979E+03</rscale>
<asrwt>0</asrwt>
<pdfrwt beam="1">  1        2 0.84701829E-01 0.15331339E+03</pdfrwt>
<pdfrwt beam="2">  1       -2 0.58676510E-02 0.15331339E+03</pdfrwt>
<totfact> 0.82361349E+03</totfact>
</mgrwt>
</event>
<event>
 8    1  0.3520338E-004  0.1264685E+03  0.7546771E-02  0.1248500E+00
          4   -1    0    0  501    0  0.00000000000E+00  0.00000000000E+00  0.17653131856E+02  0.17653131856E+02  0.00000000000E+00 0. -1.
         -4   -1    0    0    0  501 -0.00000000000E+00 -0.00000000000E+00 -0.67840865653E+03  0.67840865653E+03  0.00000000000E+00 0.  1.
         25    2    1    2    0    0 -0.10208627651E+02  0.16272656691E+02 -0.40432577285E+03  0.42364326457E+03  0.12500107834E+03 0.  0.
         23    2    1    2    0    0  0.10208627651E+02 -0.16272656691E+02 -0.25642975182E+03  0.27241852381E+03  0.89925630753E+02 0.  0.
          5    1    3    3  502    0 -0.43339098657E+02 -0.61341120915E+01 -0.48319228319E+02  0.65366219326E+02  0.47000000000E+01 0.  1.
         -5    1    3    3    0  502  0.33130471006E+02  0.22406768782E+02 -0.35600654453E+03  0.35827704524E+03  0.47000000000E+01 0.  1.
          5    1    4    4  503    0  0.36316767564E+02 -0.10407028988E+02 -0.43682942087E+02  0.57943966796E+02  0.47000000000E+01 0. -1.
         -5    1    4    4    0  503 -0.26108139913E+02 -0.58656277022E+01 -0.21274680973E+03  0.21447455702E+03  0.47000000000E+01 0.  1.
<mgrwt>
<rscale>  0 0.11678312E+03</rscale>
<asrwt>0</asrwt>
<pdfrwt beam="1">  1        4 0.27158665E-02 0.12646851E+03</pdfrwt>
<pdfrwt beam="2">  1       -4 0.10437056E+00 0.12646851E+03</pdfrwt>
<totfact> 0.79772211E+02</totfact>
</mgrwt>
</event>
<event>
 8    1  0.3520338E-004  0.1298626E+03  0.7546771E-02  0.1239895E+00
          1   -1    0    0  501    0  0.00000000000E+00  0.00000000000E+00  0.63646696998E+03  0.63646696998E+03  0.00000000000E+00 0. -1.
         -1   -1    0    0    0  501 -0.00000000000E+00 -0.00000000000E+00 -0.28213005561E+02  0.28213005561E+02  0.00000000000E+00 0.  1.
         25    2    1    2    0    0 -0.34936474088E+02 -0.43653752699E+01  0.16455941834E+03  0.20962846039E+03  0.12499870207E+03 0.  0.
         23    2    1    2    0    0  0.34936474088E+02  0.43653752699E+01  0.44369454609E+03  0.45505151516E+03  0.94696449228E+02 0.  0.
          5    1    4    4  502    0 -0.42139127987E+01  0.33857803119E+02  0.32103764092E+03  0.32287979927E+03  0.47000000000E+01 0. -1.
         -5    1    3    3    0  503 -0.47389766951E+02  0.34710561767E+02  0.24862218526E+02  0.63959620230E+02  0.47000000000E+01 0. -1.
          5    1    3    3  503    0  0.12453292863E+02 -0.39075937037E+02  0.13969719981E+03  0.14566884016E+03  0.47000000000E+01 0. -1.
         -5    1    4    4    0  502  0.39150386887E+02 -0.29492427849E+02  0.12265690517E+03  0.13217171588E+03  0.47000000000E+01 0.  1.
<mgrwt>
<rscale>  0 0.12196226E+03</rscale>
<asrwt>0</asrwt>
<pdfrwt beam="1">  1        1 0.97917985E-01 0.12986258E+03</pdfrwt>
<pdfrwt beam="2">  1       -1 0.43404629E-02 0.12986258E+03</pdfrwt>
<totfact> 0.67624605E+03</totfact>
</mgrwt>
</event>
<event>
 8    1  0.3520338E-004  0.1786864E+03  0.7546771E-02  0.1174659E+00
          4   -1    0    0  501    0  0.00000000000E+00  0.00000000000E+00  0.26226009693E+03  0.26226009693E+03  0.00000000000E+00 0. -1.
         -4   -1    0    0    0  501 -0.00000000000E+00 -0.00000000000E+00 -0.11837678265E+03  0.11837678265E+03  0.00000000000E+00 0.  1.
         25    2    1    2    0    0  0.10591309091E+02 -0.12724773384E+03  0.18881437594E+02  0.17968123103E+03  0.12499869800E+03 0.  0.
         23    2    1    2    0    0 -0.10591309091E+02  0.12724773384E+03  0.12500187669E+03  0.20095564855E+03  0.91943144993E+02 0.  0.
          5    1    4    4  502    0 -0.28545343520E+02  0.81599719545E+02  0.12454097171E+03  0.15167694123E+03  0.47000000000E+01 0. -1.
         -5    1    3    3    0  503  0.55183731830E+02 -0.76052345876E+02  0.48046468671E+02  0.10563974973E+03  0.47000000000E+01 0.  1.
          5    1    3    3  503    0 -0.44592422739E+02 -0.51195387968E+02 -0.29165031076E+02  0.74041481297E+02  0.47000000000E+01 0.  1.
         -5    1    4    4    0  502  0.17954034429E+02  0.45648014299E+02  0.46090498200E+00  0.49278707320E+02  0.47000000000E+01 0.  1.
<mgrwt>
<rscale>  0 0.17309417E+03</rscale>
<asrwt>0</asrwt>
<pdfrwt beam="1">  1        4 0.40347707E-01 0.17868642E+03</pdfrwt>
<pdfrwt beam="2">  1       -4 0.18211813E-01 0.17868642E+03</pdfrwt>
<totfact> 0.27894748E+02</totfact>
</mgrwt>
</event>
<event>
 8    1  0.3520338E-004  0.1411964E+03  0.7546771E-02  0.1220327E+00
          2   -1    0    0  501    0  0.00000000000E+00  0.00000000000E+00  0.15767547007E+03  0.15767547007E+03  0.00000000000E+00 0. -1.
         -2   -1    0    0    0  501 -0.00000000000E+00 -0.00000000000E+00 -0.10633903203E+03  0.10633903203E+03  0.00000000000E+00 0.  1.
         25    2    1    2    0    0 -0.60303324913E+02 -0.25983699866E+02  0.30572169795E+02  0.14446825913E+03  0.12499910670E+03 0.  0.
         23    2    1    2    0    0  0.60303324913E+02  0.25983699866E+02  0.20764268241E+02  0.11954624297E+03  0.97716455722E+02 0.  0.
          5    1    4    4  502    0  0.36796125246E+01  0.48771187471E+02  0.30098562690E+02  0.57621018315E+02  0.47000000000E+01 0. -1.
         -5    1    4    4    0  502  0.56623712388E+02 -0.22787487605E+02 -0.93342944487E+01  0.61925224657E+02  0.47000000000E+01 0.  1.
          5    1    3    3  503    0 -0.64152920505E+02 -0.47077949976E+02  0.65529655527E+02  0.10318990424E+03  0.47000000000E+01 0. -1.
         -5    1    3    3    0  503  0.38495955923E+01  0.21094250110E+02 -0.34957485732E+02  0.41278354893E+02  0.47000000000E+01 0. -1.
<mgrwt>
<rscale>  0 0.13492384E+03</rscale>
<asrwt>0</asrwt>
<pdfrwt beam="1">  1        2 0.24257765E-01 0.14119639E+03</pdfrwt>
<pdfrwt beam="2">  1       -2 0.16359851E-01 0.14119639E+03</pdfrwt>
<totfact> 0.62792135E+03</totfact>
</mgrwt>
</event>
<event>
 8    1  0.3520338E-004  0.1339725E+03  0.7546771E-02  0.1231246E+00
         -1   -1    0    0    0  501 -0.00000000000E+00  0.00000000000E+00  0.11881445542E+02  0.11881445542E+02  0.00000000000E+00 0.  1.
          1   -1    0    0  501    0  0.00000000000E+00 -0.00000000000E+00 -0.13830498338E+04  0.13830498338E+04  0.00000000000E+00 0. -1.
         25    2    1    2    0    0 -0.26023684214E+02 -0.40520436593E+02 -0.53213129597E+03  0.54873704135E+03  0.12501794459E+03 0.  0.
         23    2    1    2    0    0  0.26023684214E+02  0.40520436593E+02 -0.83903709226E+03  0.84619423797E+03  0.98703131989E+02 0.  0.
          5    1    3    3  502    0 -0.30873284253E+02 -0.77759750266E+02 -0.45691820260E+03  0.46453855847E+03  0.47000000000E+01 0.  1.
         -5    1    3    3    0  502  0.48496000389E+01  0.37239313673E+02 -0.75213093378E+02  0.84198482877E+02  0.47000000000E+01 0.  1.
          5    1    4    4  503    0  0.46401010740E+02 -0.16137481598E+02 -0.36139134445E+03  0.36474548106E+03  0.47000000000E+01 0. -1.
         -5    1    4    4    0  503 -0.20377326526E+02  0.56657918191E+02 -0.47764574781E+03  0.48144875691E+03  0.47000000000E+01 0.  1.
<mgrwt>
<rscale>  0 0.12747840E+03</rscale>
<asrwt>0</asrwt>
<pdfrwt beam="1">  1        1 0.21277691E+00 0.13397248E+03</pdfrwt>
<pdfrwt beam="2">  1       -1 0.18279146E-02 0.13397248E+03</pdfrwt>
<totfact> 0.65494607E+03</totfact>
</mgrwt>
</event>
<event>
 8    1  0.3520338E-004  0.1448435E+03  0.7546771E-02  0.1217211E+00
         -3   -1    0    0    0  501 -0.00000000000E+00  0.00000000000E+00  0.14938805276E+03  0.14938805276E+03  0.00000000000E+00 0.  1.
          3   -1    0    0  501    0  0.00000000000E+00 -0.00000000000E+00 -0.11456959502E+03  0.11456959502E+03  0.00000000000E+00 0. -1.
         25    2    1    2    0    0  0.47930044444E+02 -0.55317519798E+02  0.12430266897E+02  0.14537593729E+03  0.12498933734E+03 0.  0.
         23    2    1    2    0    0 -0.47930044444E+02  0.55317519798E+02  0.22388190842E+02  0.11858171049E+03  0.90570822099E+02 0.  0.
          5    1    3    3  502    0  0.58662299030E+02 -0.45997237963E+01 -0.40148221804E+02  0.71389022269E+02  0.47000000000E+01 0. -1.
         -5    1    3    3    0  502 -0.10732254585E+02 -0.50717796002E+02  0.52578488701E+02  0.73986915018E+02  0.47000000000E+01 0. -1.
          5    1    4    4  503    0 -0.19376091794E+02  0.52977165001E+02 -0.25891300172E+02  0.62245179487E+02  0.47000000000E+01 0. -1.
         -5    1    4    4    0  503 -0.28553952651E+02  0.23403547970E+01  0.48279491013E+02  0.56336531000E+02  0.47000000000E+01 0.  1.
<mgrwt>
<rscale>  0 0.13715397E+03</rscale>
<asrwt>0</asrwt>
<pdfrwt beam="1">  1        3 0.17626092E-01 0.14484354E+03</pdfrwt>
<pdfrwt beam="2">  1       -3 0.22982777E-01 0.14484354E+03</pdfrwt>
<totfact> 0.11419640E+03</totfact>
</mgrwt>
</event>
<event>
 8    1  0.3520338E-004  0.2007618E+03  0.7546771E-02  0.1153356E+00
         -2   -1    0    0    0  501 -0.00000000000E+00  0.00000000000E+00  0.44436962565E+02  0.44436962565E+02  0.00000000000E+00 0.  1.
          2   -1    0    0  501    0  0.00000000000E+00 -0.00000000000E+00 -0.82373012228E+03  0.82373012228E+03  0.00000000000E+00 0. -1.
         25    2    1    2    0    0  0.13642910467E+03 -0.77892037295E+02 -0.42764650284E+03  0.47242651911E+03  0.12500085795E+03 0.  0.
         23    2    1    2    0    0 -0.13642910467E+03  0.77892037295E+02 -0.35164665688E+03  0.39574056574E+03  0.90967873474E+02 0.  0.
          5    1    3    3  502    0  0.54526261201E+02 -0.83682067580E+02 -0.32971351173E+03  0.34454156704E+03  0.47000000000E+01 0. -1.
         -5    1    3    3    0  502  0.81902843471E+02  0.57900302851E+01 -0.97932991103E+02  0.12788495207E+03  0.47000000000E+01 0. -1.
          5    1    4    4  503    0 -0.49160731973E+02  0.46856741019E+02 -0.24560508580E+03  0.25486521912E+03  0.47000000000E+01 0. -1.
         -5    1    4    4    0  503 -0.87268372699E+02  0.31035296276E+02 -0.10604157108E+03  0.14087534662E+03  0.47000000000E+01 0.  1.
<mgrwt>
<rscale>  0 0.19577232E+03</rscale>
<asrwt>0</asrwt>
<pdfrwt beam="1">  1        2 0.12672771E+00 0.20076176E+03</pdfrwt>
<pdfrwt beam="2">  1       -2 0.68364557E-02 0.20076176E+03</pdfrwt>
<totfact> 0.40841733E+03</totfact>
</mgrwt>
</event>
<event>
 8    1  0.3520338E-004  0.2195892E+03  0.7546771E-02  0.1137637E+00
          3   -1    0    0  501    0  0.00000000000E+00  0.00000000000E+00  0.66072904332E+02  0.66072904332E+02  0.00000000000E+00 0. -1.
         -3   -1    0    0    0  501 -0.00000000000E+00 -0.00000000000E+00 -0.67288681619E+03  0.67288681619E+03  0.00000000000E+00 0.  1.
         25    2    1    2    0    0 -0.10073189008E+03 -0.14982535569E+03 -0.32677983045E+03  0.39370605162E+03  0.12499938643E+03 0.  0.
         23    2    1    2    0    0  0.10073189008E+03  0.14982535569E+03 -0.28003408142E+03  0.34525366890E+03  0.90479048678E+02 0.  0.
          5    1    4    4  502    0  0.84561379799E+02  0.75045420028E+02 -0.10584211650E+03  0.15494220099E+03  0.47000000000E+01 0. -1.
         -5    1    4    4    0  502  0.16170510281E+02  0.74779935667E+02 -0.17419196491E+03  0.19031146792E+03  0.47000000000E+01 0.  1.
          5    1    3    3  503    0  0.19643931358E+02 -0.66469331379E+02 -0.73670616187E+02  0.10125959581E+03  0.47000000000E+01 0. -1.
         -5    1    3    3    0  503 -0.12037582144E+03 -0.83356024315E+02 -0.25310921426E+03  0.29244645582E+03  0.47000000000E+01 0. -1.
<mgrwt>
<rscale>  0 0.21503810E+03</rscale>
<asrwt>0</asrwt>
<pdfrwt beam="1">  1        3 0.10165062E-01 0.21958916E+03</pdfrwt>
<pdfrwt beam="2">  1       -3 0.10352105E+00 0.21958916E+03</pdfrwt>
<totfact> 0.14781533E+02</totfact>
</mgrwt>
</event>
<event>
 8    1  0.3520338E-004  0.1725569E+03  0.7546771E-02  0.1181184E+00
         -1   -1    0    0    0  501 -0.00000000000E+00  0.00000000000E+00  0.60188902770E+02  0.60188902770E+02  0.00000000000E+00 0.  1.
          1   -1    0    0  501    0  0.00000000000E+00 -0.00000000000E+00 -0.48178664141E+03  0.48178664141E+03  0.00000000000E+00 0. -1.
         25    2    1    2    0    0  0.68104187723E+02 -0.97530396250E+02 -0.30849166145E+03  0.35347274593E+03  0.12500207340E+03 0.  0.
         23    2    1    2    0    0 -0.68104187723E+02  0.97530396250E+02 -0.11310607719E+03  0.18850279825E+03  0.92682046119E+02 0.  0.
          5    1    4    4  502    0  0.34052097184E+01  0.55279411156E+02 -0.83281991896E+02  0.10012686415E+03  0.47000000000E+01 0. -1.
         -5    1    4    4    0  502 -0.71509397441E+02  0.42250985094E+02 -0.29824085293E+02  0.88375934096E+02  0.47000000000E+01 0.  1.
          5    1    3    3  503    0 -0.71746166261E+01 -0.93027942713E+02 -0.20547794653E+03  0.22571874038E+03  0.47000000000E+01 0. -1.
         -5    1    3    3    0  503  0.75278804349E+02 -0.45024535367E+01 -0.10301371492E+03  0.12775400555E+03  0.47000000000E+01 0. -1.
<mgrwt>
<rscale>  0 0.16683946E+03</rscale>
<asrwt>0</asrwt>
<pdfrwt beam="1">  1        1 0.74121024E-01 0.17255688E+03</pdfrwt>
<pdfrwt beam="2">  1       -1 0.92598309E-02 0.17255688E+03</pdfrwt>
<totfact> 0.31995641E+03</totfact>
</mgrwt>
</event>
<event>
 8    1  0.3520338E-004  0.1280383E+03  0.7546771E-02  0.1247087E+00
          2   -1    0    0  501    0  0.00000000000E+00  0.00000000000E+00  0.64761945123E+02  0.64761945123E+02  0.00000000000E+00 0. -1.
         -2   -1    0    0    0  501 -0.00000000000E+00 -0.00000000000E+00 -0.29590121992E+03  0.29590121992E+03  0.00000000000E+00 0.  1.
         25    2    1    2    0    0 -0.46429808258E+01 -0.27318905342E+02 -0.18578322694E+02  0.12937915299E+03  0.12500372513E+03 0.  0.
         23    2    1    2    0    0  0.46429808258E+01  0.27318905342E+02 -0.21256095210E+03  0.23128401204E+03  0.86846162899E+02 0.  0.
          5    1    4    4  502    0 -0.10120227396E+02  0.52101070869E+02 -0.84238018063E+02  0.99674842741E+02  0.47000000000E+01 0. -1.
         -5    1    3    3    0  503  0.54844221335E+02 -0.17219545697E+02 -0.33963699559E+02  0.66932983316E+02  0.47000000000E+01 0. -1.
          5    1    3    3  503    0 -0.59487202161E+02 -0.10099359646E+02  0.15385376864E+02  0.62446169678E+02  0.47000000000E+01 0. -1.
         -5    1    4    4    0  502  0.14763208222E+02 -0.24782165527E+02 -0.12832293404E+03  0.13160916930E+03  0.47000000000E+01 0.  1.
<mgrwt>
<rscale>  0 0.11761318E+03</rscale>
<asrwt>0</asrwt>
<pdfrwt beam="1">  1        2 0.99633762E-02 0.12803832E+03</pdfrwt>
<pdfrwt beam="2">  1       -2 0.45523265E-01 0.12803832E+03</pdfrwt>
<totfact> 0.28528140E+03</totfact>
</mgrwt>
</event>
<event>
 8    1  0.3520338E-004  0.1288007E+03  0.7546771E-02  0.1242392E+00
          1   -1    0    0  501    0  0.00000000000E+00  0.00000000000E+00  0.72251795873E+03  0.72251795873E+03  0.00000000000E+00 0. -1.
         -1   -1    0    0    0  501 -0.00000000000E+00 -0.00000000000E+00 -0.21369388814E+02  0.21369388814E+02  0.00000000000E+00 0.  1.
         25    2    1    2    0    0  0.65967785159E+01 -0.30358632917E+02  0.53918437175E+03  0.55435493755E+03  0.12499778384E+03 0.  0.
         23    2    1    2    0    0 -0.65967785159E+01  0.30358632917E+02  0.16196419816E+03  0.18953240999E+03  0.93407541838E+02 0.  0.
          5    1    4    4  502    0  0.21334651481E+02 -0.14912186556E+02  0.11629764967E+03  0.11926765689E+03  0.47000000000E+01 0. -1.
         -5    1    4    4    0  502 -0.27931429997E+02  0.45270819473E+02  0.45666548497E+02  0.70264753107E+02  0.47000000000E+01 0.  1.
          5    1    3    3  503    0 -0.41894488796E+02 -0.48212555225E+02  0.41272813989E+03  0.41766757849E+03  0.47000000000E+01 0. -1.
         -5    1    3    3    0  503  0.48491267311E+02  0.17853922307E+02  0.12645623187E+03  0.13668735906E+03  0.47000000000E+01 0. -1.
<mgrwt>
<rscale>  0 0.12042864E+03</rscale>
<asrwt>0</asrwt>
<pdfrwt beam="1">  1        1 0.11115659E+00 0.12880066E+03</pdfrwt>
<pdfrwt beam="2">  1       -1 0.32875988E-02 0.12880066E+03</pdfrwt>
<totfact> 0.84873876E+03</totfact>
</mgrwt>
</event>
<event>
 8    1  0.3520338E-004  0.1398672E+03  0.7546771E-02  0.1224489E+00
         -2   -1    0    0    0  501 -0.00000000000E+00  0.00000000000E+00  0.32895102951E+02  0.32895102951E+02  0.00000000000E+00 0.  1.
          2   -1    0    0  501    0  0.00000000000E+00 -0.00000000000E+00 -0.56134866868E+03  0.56134866868E+03  0.00000000000E+00 0. -1.
         25    2    1    2    0    0 -0.62059513764E+02 -0.92799595116E+01 -0.17653128781E+03  0.22522463508E+03  0.12500135908E+03 0.  0.
         23    2    1    2    0    0  0.62059513764E+02  0.92799595116E+01 -0.35192227792E+03  0.36901913655E+03  0.91587840619E+02 0.  0.
          5    1    4    4  502    0  0.15556594196E+02 -0.22543859746E+02 -0.25724297748E+03  0.25873977796E+03  0.47000000000E+01 0. -1.
         -5    1    4    4    0  502  0.46502919568E+02  0.31823819257E+02 -0.94679300441E+02  0.11027935860E+03  0.47000000000E+01 0.  1.
          5    1    3    3  503    0 -0.10635670122E+02  0.21165964836E+02  0.12303648943E+02  0.27103234561E+02  0.47000000000E+01 0.  1.
         -5    1    3    3    0  503 -0.51423843642E+02 -0.30445924348E+02 -0.18883493675E+03  0.19812140051E+03  0.47000000000E+01 0.  1.
<mgrwt>
<rscale>  0 0.13201978E+03</rscale>
<asrwt>0</asrwt>
<pdfrwt beam="1">  1        2 0.86361328E-01 0.13986723E+03</pdfrwt>
<pdfrwt beam="2">  1       -2 0.50607854E-02 0.13986723E+03</pdfrwt>
<totfact> 0.10019191E+04</totfact>
</mgrwt>
</event>
<event>
 8    1  0.3520338E-004  0.1579323E+03  0.7546771E-02  0.1199193E+00
         -3   -1    0    0    0  501 -0.00000000000E+00  0.00000000000E+00  0.12470345469E+03  0.12470345469E+03  0.00000000000E+00 0.  1.
          3   -1    0    0  501    0  0.00000000000E+00 -0.00000000000E+00 -0.24983089934E+03  0.24983089934E+03  0.00000000000E+00 0. -1.
         25    2    1    2    0    0 -0.62167527999E+02 -0.73830202490E+02 -0.17276407327E+03  0.23407271433E+03  0.12500764076E+03 0.  0.
         23    2    1    2    0    0  0.62167527999E+02  0.73830202490E+02  0.47636628614E+02  0.14046163969E+03  0.90247013810E+02 0.  0.
          5    1    3    3  502    0 -0.35518113198E+02 -0.10782840043E+03 -0.11366268550E+03  0.16071650936E+03  0.47000000000E+01 0. -1.
         -5    1    3    3    0  502 -0.26649414800E+02  0.33998197944E+02 -0.59101387769E+02  0.73356204979E+02  0.47000000000E+01 0. -1.
          5    1    4    4  503    0  0.48154123065E+02  0.99351319625E+01 -0.13073031727E+02  0.51093253702E+02  0.47000000000E+01 0. -1.
         -5    1    4    4    0  503  0.14013404933E+02  0.63895070527E+02  0.60709660341E+02  0.89368385988E+02  0.47000000000E+01 0.  1.
<mgrwt>
<rscale>  0 0.15104607E+03</rscale>
<asrwt>0</asrwt>
<pdfrwt beam="1">  1        3 0.38435522E-01 0.15793230E+03</pdfrwt>
<pdfrwt beam="2">  1       -3 0.19185147E-01 0.15793230E+03</pdfrwt>
<totfact> 0.38458877E+02</totfact>
</mgrwt>
</event>
<event>
 8    1  0.3520338E-004  0.2361718E+03  0.7546771E-02  0.1125161E+00
         -2   -1    0    0    0  501 -0.00000000000E+00  0.00000000000E+00  0.51306129087E+02  0.51306129087E+02  0.00000000000E+00 0.  1.
          2   -1    0    0  501    0  0.00000000000E+00 -0.00000000000E+00 -0.10180458181E+04  0.10180458181E+04  0.00000000000E+00 0. -1.
         25    2    1    2    0    0  0.28755108598E+02  0.19830802363E+03 -0.52664018293E+03  0.57717153430E+03  0.12499667683E+03 0.  0.
         23    2    1    2    0    0 -0.28755108598E+02 -0.19830802363E+03 -0.44009950611E+03  0.49218041292E+03  0.91657269649E+02 0.  0.
          5    1    4    4  502    0 -0.20827178777E+02 -0.14932170811E+03 -0.40222273382E+03  0.42957649085E+03  0.47000000000E+01 0. -1.
         -5    1    3    3    0  503 -0.97883769118E+01  0.72315537897E+02 -0.67640504191E+02  0.99612635499E+02  0.47000000000E+01 0.  1.
          5    1    3    3  503    0  0.38543485509E+02  0.12599248573E+03 -0.45899967874E+03  0.47755889880E+03  0.47000000000E+01 0.  1.
         -5    1    4    4    0  502 -0.79279298206E+01 -0.48986315521E+02 -0.37876772283E+02  0.62603922066E+02  0.47000000000E+01 0.  1.
<mgrwt>
<rscale>  0 0.23211279E+03</rscale>
<asrwt>0</asrwt>
<pdfrwt beam="1">  1        2 0.15662242E+00 0.23617175E+03</pdfrwt>
<pdfrwt beam="2">  1       -2 0.78932515E-02 0.23617175E+03</pdfrwt>
<totfact> 0.24651347E+03</totfact>
</mgrwt>
</event>
<event>
 8    1  0.3520338E-004  0.1290321E+03  0.7546771E-02  0.1243870E+00
          2   -1    0    0  501    0  0.00000000000E+00  0.00000000000E+00  0.89092566843E+02  0.89092566843E+02  0.00000000000E+00 0. -1.
         -2   -1    0    0    0  501 -0.00000000000E+00 -0.00000000000E+00 -0.15207865813E+03  0.15207865813E+03  0.00000000000E+00 0.  1.
         25    2    1    2    0    0 -0.65396250689E+01  0.31329929357E+02 -0.68301406033E+02  0.14599437809E+03  0.12499978080E+03 0.  0.
         23    2    1    2    0    0  0.65396250689E+01 -0.31329929357E+02  0.53153147442E+01  0.95176846880E+02  0.89476524528E+02 0.  0.
          5    1    4    4  502    0  0.10916189164E+02  0.20248773106E+02  0.29620913136E+02  0.37797678410E+02  0.47000000000E+01 0. -1.
         -5    1    3    3    0  503 -0.48319172685E+02  0.28443440522E+02  0.99288945195E+01  0.57135319235E+02  0.47000000000E+01 0. -1.
          5    1    3    3  503    0  0.41779547616E+02  0.28864888353E+01 -0.78230300552E+02  0.88859058859E+02  0.47000000000E+01 0. -1.
         -5    1    4    4    0  502 -0.43765640955E+01 -0.51578702464E+02 -0.24305598392E+02  0.57379168470E+02  0.47000000000E+01 0.  1.
<mgrwt>
<rscale>  0 0.11953264E+03</rscale>
<asrwt>0</asrwt>
<pdfrwt beam="1">  1        2 0.13706549E-01 0.12903207E+03</pdfrwt>
<pdfrwt beam="2">  1       -2 0.23396717E-01 0.12903207E+03</pdfrwt>
<totfact> 0.65532094E+03</totfact>
</mgrwt>
</event>
<event>
 8    1  0.3520338E-004  0.1288114E+03  0.7546771E-02  0.1243478E+00
         -2   -1    0    0    0  501 -0.00000000000E+00  0.00000000000E+00  0.66550621475E+02  0.66550621475E+02  0.00000000000E+00 0.  1.
          2   -1    0    0  501    0  0.00000000000E+00 -0.00000000000E+00 -0.19108930165E+03  0.19108930165E+03  0.00000000000E+00 0. -1.
         25    2    1    2    0    0  0.16201208677E+02 -0.26546017931E+02 -0.79299270400E+02  0.15126388480E+03  0.12500087331E+03 0.  0.
         23    2    1    2    0    0 -0.16201208677E+02  0.26546017931E+02 -0.45239409773E+02  0.10637603832E+03  0.91115789534E+02 0.  0.
          5    1    4    4  502    0  0.28143594113E+02  0.35602447396E+01 -0.48194125937E+02  0.56120415243E+02  0.47000000000E+01 0. -1.
         -5    1    3    3    0  503 -0.49256853225E+02  0.47790678790E+01 -0.97864936308E+01  0.50665003080E+02  0.47000000000E+01 0. -1.
          5    1    3    3  503    0  0.65458061902E+02 -0.31325085810E+02 -0.69512776770E+02  0.10059888172E+03  0.47000000000E+01 0. -1.
         -5    1    4    4    0  502 -0.44344802790E+02  0.22985773192E+02  0.29547161644E+01  0.50255623081E+02  0.47000000000E+01 0.  1.
<mgrwt>
<rscale>  0 0.11976956E+03</rscale>
<asrwt>0</asrwt>
<pdfrwt beam="1">  1        2 0.29398354E-01 0.12881145E+03</pdfrwt>
<pdfrwt beam="2">  1       -2 0.10238557E-01 0.12881145E+03</pdfrwt>
<totfact> 0.10743524E+04</totfact>
</mgrwt>
</event>
<event>
 8    1  0.3520338E-004  0.1413221E+03  0.7546771E-02  0.1222099E+00
         -1   -1    0    0    0  501 -0.00000000000E+00  0.00000000000E+00  0.21960118652E+02  0.21960118652E+02  0.00000000000E+00 0.  1.
          1   -1    0    0  501    0  0.00000000000E+00 -0.00000000000E+00 -0.84930180319E+03  0.84930180319E+03  0.00000000000E+00 0. -1.
         25    2    1    2    0    0 -0.49836624492E+02  0.43166538552E+02 -0.29596304410E+03  0.32797267109E+03  0.12499964127E+03 0.  0.
         23    2    1    2    0    0  0.49836624492E+02 -0.43166538552E+02 -0.53137864044E+03  0.54328925075E+03  0.91939715455E+02 0.  0.
          5    1    3    3  502    0 -0.34215208671E+02 -0.15886975059E+02 -0.15764349293E+02  0.41154358088E+02  0.47000000000E+01 0.  1.
         -5    1    3    3    0  502 -0.15621415821E+02  0.59053513611E+02 -0.28019869481E+03  0.28681831301E+03  0.47000000000E+01 0.  1.
          5    1    4    4  503    0 -0.25874395684E+02 -0.16839423524E+02 -0.11090361841E+03  0.11521611481E+03  0.47000000000E+01 0. -1.
         -5    1    4    4    0  503  0.75711020176E+02 -0.26327115028E+02 -0.42047502203E+03  0.42807313594E+03  0.47000000000E+01 0.  1.
<mgrwt>
<rscale>  0 0.13367762E+03</rscale>
<asrwt>0</asrwt>
<pdfrwt beam="1">  1        1 0.13066180E+00 0.14132215E+03</pdfrwt>
<pdfrwt beam="2">  1       -1 0.33784803E-02 0.14132215E+03</pdfrwt>
<totfact> 0.64387061E+03</totfact>
</mgrwt>
</event>
<event>
 8    1  0.3520338E-004  0.1487726E+03  0.7546771E-02  0.1211240E+00
          2   -1    0    0  501    0  0.00000000000E+00  0.00000000000E+00  0.36479066004E+03  0.36479066004E+03  0.00000000000E+00 0. -1.
         -2   -1    0    0    0  501 -0.00000000000E+00 -0.00000000000E+00 -0.55654484279E+02  0.55654484279E+02  0.00000000000E+00 0.  1.
         25    2    1    2    0    0 -0.73691185853E+02 -0.32812892782E+02  0.10306749148E+03  0.18098670507E+03  0.12500481114E+03 0.  0.
         23    2    1    2    0    0  0.73691185853E+02  0.32812892782E+02  0.20606868428E+03  0.23945843924E+03  0.91482045666E+02 0.  0.
          5    1    3    3  502    0 -0.33183925195E+02  0.29573822742E+02 -0.97730175185E+01  0.45753532698E+02  0.47000000000E+01 0.  1.
         -5    1    4    4    0  503  0.72136747345E+02 -0.15010035442E+02  0.12119146063E+03  0.14191008284E+03  0.47000000000E+01 0.  1.
          5    1    4    4  503    0  0.15544385078E+01  0.47822928224E+02  0.84877223653E+02  0.97548356408E+02  0.47000000000E+01 0. -1.
         -5    1    3    3    0  502 -0.40507260658E+02 -0.62386715524E+02  0.11284050900E+03  0.13523317237E+03  0.47000000000E+01 0.  1.
<mgrwt>
<rscale>  0 0.14156409E+03</rscale>
<asrwt>0</asrwt>
<pdfrwt beam="1">  1        2 0.56121639E-01 0.14877258E+03</pdfrwt>
<pdfrwt beam="2">  1       -2 0.85622286E-02 0.14877258E+03</pdfrwt>
<totfact> 0.72001638E+03</totfact>
</mgrwt>
</event>
<event>
 8    1  0.3520338E-004  0.1274879E+03  0.7546771E-02  0.1244109E+00
         -1   -1    0    0    0  501 -0.00000000000E+00  0.00000000000E+00  0.43208166008E+02  0.43208166008E+02  0.00000000000E+00 0.  1.
          1   -1    0    0  501    0  0.00000000000E+00 -0.00000000000E+00 -0.35909013610E+03  0.35909013610E+03  0.00000000000E+00 0. -1.
         25    2    1    2    0    0  0.13317224643E+02  0.21244725940E+02 -0.90003174189E+02  0.15605685524E+03  0.12499793539E+03 0.  0.
         23    2    1    2    0    0 -0.13317224643E+02 -0.21244725940E+02 -0.22587879590E+03  0.24624144687E+03  0.94788885767E+02 0.  0.
          5    1    3    3  502    0 -0.40219368432E+02 -0.20663112214E+02 -0.30274291057E+01  0.45561136184E+02  0.47000000000E+01 0. -1.
         -5    1    4    4    0  503 -0.10205480183E+02  0.36670600832E+02 -0.11149972941E+03  0.11791168072E+03  0.47000000000E+01 0.  1.
          5    1    4    4  503    0 -0.31117444603E+01 -0.57915326772E+02 -0.11437906649E+03  0.12832976615E+03  0.47000000000E+01 0. -1.
         -5    1    3    3    0  502  0.53536593075E+02  0.41907838154E+02 -0.86975745083E+02  0.11049571906E+03  0.47000000000E+01 0. -1.
<mgrwt>
<rscale>  0 0.11938854E+03</rscale>
<asrwt>0</asrwt>
<pdfrwt beam="1">  1        1 0.55244639E-01 0.12748792E+03</pdfrwt>
<pdfrwt beam="2">  1       -1 0.66474099E-02 0.12748792E+03</pdfrwt>
<totfact> 0.75533758E+03</totfact>
</mgrwt>
</event>
<event>
 8    1  0.3520338E-004  0.1324880E+03  0.7546771E-02  0.1237761E+00
          1   -1    0    0  501    0  0.00000000000E+00  0.00000000000E+00  0.14330453436E+03  0.14330453436E+03  0.00000000000E+00 0. -1.
         -1   -1    0    0    0  501 -0.00000000000E+00 -0.00000000000E+00 -0.11796477641E+03  0.11796477641E+03  0.00000000000E+00 0.  1.
         25    2    1    2    0    0 -0.37520256990E+02 -0.22807052459E+02 -0.44561208785E+02  0.13978116096E+03  0.12500056121E+03 0.  0.
         23    2    1    2    0    0  0.37520256990E+02  0.22807052459E+02  0.69900966740E+02  0.12148814981E+03  0.89136379031E+02 0.  0.
          5    1    3    3  502    0 -0.10673519909E+02 -0.63893870212E+02  0.10586464137E+02  0.65806640249E+02  0.47000000000E+01 0. -1.
         -5    1    3    3    0  502 -0.26846737081E+02  0.41086817754E+02 -0.55147672922E+02  0.73974520707E+02  0.47000000000E+01 0. -1.
          5    1    4    4  503    0  0.11816592731E+02  0.30210850170E+02  0.84513982660E+02  0.90647838347E+02  0.47000000000E+01 0. -1.
         -5    1    4    4    0  503  0.25703664259E+02 -0.74037977115E+01 -0.14613015921E+02  0.30840311464E+02  0.47000000000E+01 0.  1.
<mgrwt>
<rscale>  0 0.12329339E+03</rscale>
<asrwt>0</asrwt>
<pdfrwt beam="1">  1        1 0.22046851E-01 0.13248801E+03</pdfrwt>
<pdfrwt beam="2">  1       -1 0.18148427E-01 0.13248801E+03</pdfrwt>
<totfact> 0.50703569E+03</totfact>
</mgrwt>
</event>
<event>
 8    1  0.3520338E-004  0.1731040E+03  0.7546771E-02  0.1180886E+00
         -2   -1    0    0    0  501 -0.00000000000E+00  0.00000000000E+00  0.31014772060E+03  0.31014772060E+03  0.00000000000E+00 0.  1.
          2   -1    0    0  501    0  0.00000000000E+00 -0.00000000000E+00 -0.10055047986E+03  0.10055047986E+03  0.00000000000E+00 0. -1.
         25    2    1    2    0    0  0.33868685009E+02 -0.11483584029E+03  0.19323517083E+03  0.25943171784E+03  0.12502250572E+03 0.  0.
         23    2    1    2    0    0 -0.33868685009E+02  0.11483584029E+03  0.16362069901E+02  0.15126648262E+03  0.90991611661E+02 0.  0.
          5    1    4    4  502    0 -0.24123553060E+01  0.21433790440E+02 -0.33961454292E+02  0.40505520714E+02  0.47000000000E+01 0. -1.
         -5    1    3    3    0  503 -0.46721683745E+02 -0.29514902758E+02  0.56494444239E+02  0.79169169799E+02  0.47000000000E+01 0.  1.
          5    1    3    3  503    0  0.80590368753E+02 -0.85320937530E+02  0.13674072659E+03  0.18026254804E+03  0.47000000000E+01 0.  1.
         -5    1    4    4    0  502 -0.31456329703E+02  0.93402049848E+02  0.50323524193E+02  0.11076096190E+03  0.47000000000E+01 0.  1.
<mgrwt>
<rscale>  0 0.16711947E+03</rscale>
<asrwt>0</asrwt>
<pdfrwt beam="1">  1        2 0.15469305E-01 0.17310397E+03</pdfrwt>
<pdfrwt beam="2">  1       -2 0.47715033E-01 0.17310397E+03</pdfrwt>
<totfact> 0.15574516E+03</totfact>
</mgrwt>
</event>
<event>
 8    1  0.3520338E-004  0.1618136E+03  0.7546771E-02  0.1193851E+00
         -2   -1    0    0    0  501 -0.00000000000E+00  0.00000000000E+00  0.92770143209E+03  0.92770143209E+03  0.00000000000E+00 0.  1.
          2   -1    0    0  501    0  0.00000000000E+00 -0.00000000000E+00 -0.24240655505E+02  0.24240655505E+02  0.00000000000E+00 0. -1.
         25    2    1    2    0    0  0.29867997279E+02  0.98315940160E+02  0.49545256232E+03  0.52120713683E+03  0.12500206647E+03 0.  0.
         23    2    1    2    0    0 -0.29867997279E+02 -0.98315940160E+02  0.40800821426E+03  0.43073495076E+03  0.92215907263E+02 0.  0.
          5    1    3    3  502    0  0.76005250806E+02  0.40832869177E+02  0.23090021387E+03  0.24653827313E+03  0.47000000000E+01 0.  1.
         -5    1    4    4    0  503 -0.27141651904E+02  0.98415578355E+01  0.10296180275E+03  0.10703620114E+03  0.47000000000E+01 0.  1.
          5    1    4    4  503    0 -0.27263453744E+01 -0.10815749800E+03  0.30504641151E+03  0.32369874962E+03  0.47000000000E+01 0. -1.
         -5    1    3    3    0  502 -0.46137253528E+02  0.57483070983E+02  0.26455234846E+03  0.27466886370E+03  0.47000000000E+01 0.  1.
<mgrwt>
<rscale>  0 0.15551848E+03</rscale>
<asrwt>0</asrwt>
<pdfrwt beam="1">  1        2 0.37293323E-02 0.16181359E+03</pdfrwt>
<pdfrwt beam="2">  1       -2 0.14272327E+00 0.16181359E+03</pdfrwt>
<totfact> 0.82261815E+02</totfact>
</mgrwt>
</event>
<event>
 8    1  0.3520338E-004  0.1292716E+03  0.7546771E-02  0.1242656E+00
         -1   -1    0    0    0  501 -0.00000000000E+00  0.00000000000E+00  0.24817571875E+02  0.24817571875E+02  0.00000000000E+00 0.  1.
          1   -1    0    0  501    0  0.00000000000E+00 -0.00000000000E+00 -0.52200720593E+03  0.52200720593E+03  0.00000000000E+00 0. -1.
         25    2    1    2    0    0  0.31650693417E+02 -0.90674229643E+01 -0.31498988496E+03  0.34048463159E+03  0.12500868837E+03 0.  0.
         23    2    1    2    0    0 -0.31650693417E+02  0.90674229643E+01 -0.18219974909E+03  0.20634014621E+03  0.91079760744E+02 0.  0.
          5    1    4    4  502    0 -0.21476697787E+02  0.36252495573E+02 -0.16876969295E+03  0.17401376739E+03  0.47000000000E+01 0. -1.
         -5    1    4    4    0  502 -0.10173995630E+02 -0.27185072608E+02 -0.13430056141E+02  0.32326378822E+02  0.47000000000E+01 0.  1.
          5    1    3    3  503    0 -0.18496843777E+02  0.16044714332E+02 -0.50028945862E+01  0.25430002791E+02  0.47000000000E+01 0. -1.
         -5    1    3    3    0  503  0.50147537194E+02 -0.25112137296E+02 -0.30998699037E+03  0.31505462880E+03  0.47000000000E+01 0. -1.
<mgrwt>
<rscale>  0 0.12026796E+03</rscale>
<asrwt>0</asrwt>
<pdfrwt beam="1">  1        1 0.80308795E-01 0.12927164E+03</pdfrwt>
<pdfrwt beam="2">  1       -1 0.38180883E-02 0.12927164E+03</pdfrwt>
<totfact> 0.10654521E+04</totfact>
</mgrwt>
</event>
<event>
 8    1  0.3520338E-004  0.1610381E+03  0.7546771E-02  0.1194454E+00
         -1   -1    0    0    0  501 -0.00000000000E+00  0.00000000000E+00  0.47736143527E+02  0.47736143527E+02  0.00000000000E+00 0.  1.
          1   -1    0    0  501    0  0.00000000000E+00 -0.00000000000E+00 -0.48534144202E+03  0.48534144202E+03  0.00000000000E+00 0. -1.
         25    2    1    2    0    0  0.95437448612E+02 -0.34648943091E+02 -0.18621341071E+03  0.24618837965E+03  0.12499771234E+03 0.  0.
         23    2    1    2    0    0 -0.95437448612E+02  0.34648943091E+02 -0.25139188778E+03  0.28688920589E+03  0.93801275908E+02 0.  0.
          5    1    4    4  502    0  0.14236253714E+02  0.19014296600E+02 -0.25012004585E+02  0.34812422615E+02  0.47000000000E+01 0. -1.
         -5    1    3    3    0  503 -0.13294224180E+02 -0.48497915336E+02 -0.70596739493E+02  0.86803074920E+02  0.47000000000E+01 0.  1.
          5    1    3    3  503    0  0.10873167279E+03  0.13848972245E+02 -0.11561667122E+03  0.15938530473E+03  0.47000000000E+01 0.  1.
         -5    1    4    4    0  502 -0.10967370233E+03  0.15634646491E+02 -0.22637988319E+03  0.25207678328E+03  0.47000000000E+01 0.  1.
<mgrwt>
<rscale>  0 0.15500552E+03</rscale>
<asrwt>0</asrwt>
<pdfrwt beam="1">  1        1 0.74667914E-01 0.16103814E+03</pdfrwt>
<pdfrwt beam="2">  1       -1 0.73440221E-02 0.16103814E+03</pdfrwt>
<totfact> 0.44936189E+03</totfact>
</mgrwt>
</event>
<event>
 8    1  0.3520338E-004  0.2318913E+03  0.7546771E-02  0.1128272E+00
         -1   -1    0    0    0  501 -0.00000000000E+00  0.00000000000E+00  0.35098393703E+03  0.35098393703E+03  0.00000000000E+00 0. -1.
          1   -1    0    0  501    0  0.00000000000E+00 -0.00000000000E+00 -0.15573410605E+03  0.15573410605E+03  0.00000000000E+00 0.  1.
         25    2    1    2    0    0 -0.19479604737E+03  0.14334558452E+02  0.27379640031E+02  0.23350204757E+03  0.12499032720E+03 0.  0.
         23    2    1    2    0    0  0.19479604737E+03 -0.14334558452E+02  0.16787019095E+03  0.27321599551E+03  0.91189909276E+02 0.  0.
          5    1    4    4  502    0  0.89759585025E+02 -0.50682837074E+02  0.66874965858E+02  0.12296293806E+03  0.47000000000E+01 0. -1.
         -5    1    4    4    0  502  0.10503646235E+03  0.36348278622E+02  0.10099522509E+03  0.15025305745E+03  0.47000000000E+01 0.  1.
          5    1    3    3  503    0  0.64814494757E+01 -0.19165061908E+02  0.20653294608E+02  0.29290909228E+02  0.47000000000E+01 0. -1.
         -5    1    3    3    0  503 -0.20127749685E+03  0.33499620359E+02  0.67263454233E+01  0.20421113835E+03  0.47000000000E+01 0. -1.
<mgrwt>
<rscale>  0 0.22769626E+03</rscale>
<asrwt>0</asrwt>
<pdfrwt beam="1">  1        1 0.23959093E-01 0.23189127E+03</pdfrwt>
<pdfrwt beam="2">  1       -1 0.53997529E-01 0.23189127E+03</pdfrwt>
<totfact> 0.71946209E+02</totfact>
</mgrwt>
</event>
<event>
 8    1  0.3520338E-004  0.1281280E+03  0.7546771E-02  0.1245003E+00
         -1   -1    0    0    0  501 -0.00000000000E+00  0.00000000000E+00  0.24586164770E+02  0.24586164770E+02  0.00000000000E+00 0.  1.
          1   -1    0    0  501    0  0.00000000000E+00 -0.00000000000E+00 -0.52751482081E+03  0.52751482081E+03  0.00000000000E+00 0. -1.
         25    2    1    2    0    0 -0.26738025954E+02 -0.88229627576E+01 -0.23177936218E+03  0.26483667498E+03  0.12499609985E+03 0.  0.
         23    2    1    2    0    0  0.26738025954E+02  0.88229627576E+01 -0.27114929386E+03  0.28726431060E+03  0.90587404643E+02 0.  0.
          5    1    4    4  502    0 -0.16074071273E+01  0.34162941182E+02 -0.22337367116E+03  0.22602561199E+03  0.47000000000E+01 0. -1.
         -5    1    4    4    0  502  0.28345433081E+02 -0.25339978424E+02 -0.47775622699E+02  0.61238698609E+02  0.47000000000E+01 0.  1.
          5    1    3    3  503    0  0.16336791851E+02 -0.39762352445E+02 -0.19594048754E+03  0.20065567547E+03  0.47000000000E+01 0.  1.
         -5    1    3    3    0  503 -0.43074817805E+02  0.30939389687E+02 -0.35838874642E+02  0.64180999515E+02  0.47000000000E+01 0.  1.
<mgrwt>
<rscale>  0 0.11885199E+03</rscale>
<asrwt>0</asrwt>
<pdfrwt beam="1">  1        1 0.81156116E-01 0.12812803E+03</pdfrwt>
<pdfrwt beam="2">  1       -1 0.37824874E-02 0.12812803E+03</pdfrwt>
<totfact> 0.10646690E+04</totfact>
</mgrwt>
</event>
<event>
 8    1  0.3520338E-004  0.1301158E+03  0.7546771E-02  0.1240525E+00
          2   -1    0    0  501    0  0.00000000000E+00  0.00000000000E+00  0.73926316196E+02  0.73926316196E+02  0.00000000000E+00 0. -1.
         -2   -1    0    0    0  501 -0.00000000000E+00 -0.00000000000E+00 -0.18876279035E+03  0.18876279035E+03  0.00000000000E+00 0.  1.
         25    2    1    2    0    0 -0.31345642377E+02 -0.17960771944E+02 -0.33302169590E+02  0.13430993216E+03  0.12499993901E+03 0.  0.
         23    2    1    2    0    0  0.31345642377E+02  0.17960771944E+02 -0.81534304564E+02  0.12837917438E+03  0.92348421587E+02 0.  0.
          5    1    4    4  502    0  0.35194306640E+02 -0.20138703188E+02 -0.30612168892E+01  0.40934919504E+02  0.47000000000E+01 0. -1.
         -5    1    3    3    0  503 -0.41756822457E+02 -0.65803999554E+02 -0.33900431933E+02  0.85118316855E+02  0.47000000000E+01 0. -1.
          5    1    3    3  503    0  0.10411180080E+02  0.47843227610E+02  0.59826234325E+00  0.49191615309E+02  0.47000000000E+01 0. -1.
         -5    1    4    4    0  502 -0.38486642636E+01  0.38099475132E+02 -0.78473087674E+02  0.87444254878E+02  0.47000000000E+01 0.  1.
<mgrwt>
<rscale>  0 0.12157250E+03</rscale>
<asrwt>0</asrwt>
<pdfrwt beam="1">  1        2 0.11373280E-01 0.13011581E+03</pdfrwt>
<pdfrwt beam="2">  1       -2 0.29040429E-01 0.13011581E+03</pdfrwt>
<totfact> 0.56072456E+03</totfact>
</mgrwt>
</event>
<event>
 8    1  0.3520338E-004  0.1687996E+03  0.7546771E-02  0.1187735E+00
          2   -1    0    0  501    0  0.00000000000E+00  0.00000000000E+00  0.12134761636E+04  0.12134761636E+04  0.00000000000E+00 0. -1.
         -2   -1    0    0    0  501 -0.00000000000E+00 -0.00000000000E+00 -0.20106658534E+02  0.20106658534E+02  0.00000000000E+00 0.  1.
         25    2    1    2    0    0  0.11342306178E+03  0.17751017155E+01  0.54964170699E+03  0.57497765975E+03  0.12500144485E+03 0.  0.
         23    2    1    2    0    0 -0.11342306178E+03 -0.17751017155E+01  0.64372779810E+03  0.65860516241E+03  0.80668085236E+02 0.  0.
          5    1    4    4  502    0 -0.31438865730E+02 -0.37912945920E+02  0.22951261569E+03  0.23478484727E+03  0.47000000000E+01 0. -1.
         -5    1    3    3    0  503  0.12992336391E+03  0.30613220820E+02  0.46861566541E+03  0.48727813581E+03  0.47000000000E+01 0.  1.
          5    1    3    3  503    0 -0.16500302122E+02 -0.28838119104E+02  0.81026041582E+02  0.87699523933E+02  0.47000000000E+01 0.  1.
         -5    1    4    4    0  502 -0.81984196054E+02  0.36137844204E+02  0.41421518241E+03  0.42382031514E+03  0.47000000000E+01 0.  1.
<mgrwt>
<rscale>  0 0.16085500E+03</rscale>
<asrwt>0</asrwt>
<pdfrwt beam="1">  1        2 0.18668858E+00 0.16879959E+03</pdfrwt>
<pdfrwt beam="2">  1       -2 0.30933330E-02 0.16879959E+03</pdfrwt>
<totfact> 0.77999290E+03</totfact>
</mgrwt>
</event>
<event>
 8    1  0.3520338E-004  0.1561422E+03  0.7546771E-02  0.1201134E+00
          3   -1    0    0  501    0  0.00000000000E+00  0.00000000000E+00  0.18477472170E+03  0.18477472170E+03  0.00000000000E+00 0. -1.
         -3   -1    0    0    0  501 -0.00000000000E+00 -0.00000000000E+00 -0.12283400693E+03  0.12283400693E+03  0.00000000000E+00 0.  1.
         25    2    1    2    0    0  0.65396693181E+02 -0.66914420623E+02 -0.12870889044E+02  0.15667179531E+03  0.12500449790E+03 0.  0.
         23    2    1    2    0    0 -0.65396693181E+02  0.66914420623E+02  0.74811603807E+02  0.15093693331E+03  0.91820012023E+02 0.  0.
          5    1    4    4  502    0  0.20769090236E+02  0.25571930982E+02  0.79748701428E+01  0.34219399720E+02  0.47000000000E+01 0. -1.
         -5    1    4    4    0  502 -0.86165783417E+02  0.41342489641E+02  0.66836733664E+02  0.11671753359E+03  0.47000000000E+01 0.  1.
          5    1    3    3  503    0 -0.58735881930E+01 -0.73987833427E+02 -0.34113120092E+02  0.81819884477E+02  0.47000000000E+01 0.  1.
         -5    1    3    3    0  503  0.71270281374E+02  0.70734128038E+01  0.21242231048E+02  0.74851910835E+02  0.47000000000E+01 0.  1.
<mgrwt>
<rscale>  0 0.14946328E+03</rscale>
<asrwt>0</asrwt>
<pdfrwt beam="1">  1        3 0.28426880E-01 0.15614222E+03</pdfrwt>
<pdfrwt beam="2">  1       -3 0.18897540E-01 0.15614222E+03</pdfrwt>
<totfact> 0.69518039E+02</totfact>
</mgrwt>
</event>
<event>
 8    1  0.3520338E-004  0.1889316E+03  0.7546771E-02  0.1164621E+00
          2   -1    0    0  501    0  0.00000000000E+00  0.00000000000E+00  0.12173054555E+03  0.12173054555E+03  0.00000000000E+00 0. -1.
         -2   -1    0    0    0  501 -0.00000000000E+00 -0.00000000000E+00 -0.31016275177E+03  0.31016275177E+03  0.00000000000E+00 0.  1.
         25    2    1    2    0    0 -0.13279028973E+03 -0.49363292889E+02 -0.18491240317E+03  0.26436289816E+03  0.12500059739E+03 0.  0.
         23    2    1    2    0    0  0.13279028973E+03  0.49363292889E+02 -0.35198030568E+01  0.16753039915E+03  0.89353510813E+02 0.  0.
          5    1    4    4  502    0  0.10006739030E+03  0.59781279449E+02  0.28775024983E+02  0.12015563256E+03  0.47000000000E+01 0. -1.
         -5    1    4    4    0  502  0.32722899435E+02 -0.10417986560E+02 -0.32294828040E+02  0.47374766591E+02  0.47000000000E+01 0.  1.
          5    1    3    3  503    0 -0.66120685418E+02  0.18650543042E+01 -0.16500541026E+03  0.17783222116E+03  0.47000000000E+01 0. -1.
         -5    1    3    3    0  503 -0.66669604316E+02 -0.51228347194E+02 -0.19906992907E+02  0.86530677002E+02  0.47000000000E+01 0. -1.
<mgrwt>
<rscale>  0 0.18332761E+03</rscale>
<asrwt>0</asrwt>
<pdfrwt beam="1">  1        2 0.18727776E-01 0.18893159E+03</pdfrwt>
<pdfrwt beam="2">  1       -2 0.47717346E-01 0.18893159E+03</pdfrwt>
<totfact> 0.12507122E+03</totfact>
</mgrwt>
</event>
<event>
 8    1  0.3520338E-004  0.1983077E+03  0.7546771E-02  0.1155367E+00
         -1   -1    0    0    0  501 -0.00000000000E+00  0.00000000000E+00  0.21307446596E+03  0.21307446596E+03  0.00000000000E+00 0.  1.
          1   -1    0    0  501    0  0.00000000000E+00 -0.00000000000E+00 -0.21104723899E+03  0.21104723899E+03  0.00000000000E+00 0. -1.
         25    2    1    2    0    0  0.15354031210E+03 -0.11320111218E+02  0.97160613027E+02  0.22083054798E+03  0.12499269515E+03 0.  0.
         23    2    1    2    0    0 -0.15354031210E+03  0.11320111218E+02 -0.95133386060E+02  0.20329115696E+03  0.92596765594E+02 0.  0.
          5    1    4    4  502    0 -0.35218528431E+02 -0.16754249624E+02  0.12084923230E+02  0.41099695799E+02  0.47000000000E+01 0. -1.
         -5    1    4    4    0  502 -0.11832178367E+03  0.28074360843E+02 -0.10721830929E+03  0.16219146116E+03  0.47000000000E+01 0.  1.
          5    1    3    3  503    0  0.63888266742E+02 -0.44551481006E+02 -0.82198977050E+01  0.78461467010E+02  0.47000000000E+01 0.  1.
         -5    1    3    3    0  503  0.89652045356E+02  0.33231369788E+02  0.10538051073E+03  0.14236908097E+03  0.47000000000E+01 0.  1.
<mgrwt>
<rscale>  0 0.19347116E+03</rscale>
<asrwt>0</asrwt>
<pdfrwt beam="1">  1        1 0.32468806E-01 0.19830771E+03</pdfrwt>
<pdfrwt beam="2">  1       -1 0.32780687E-01 0.19830771E+03</pdfrwt>
<totfact> 0.11950309E+03</totfact>
</mgrwt>
</event>
<event>
 8    1  0.3520338E-004  0.2074055E+03  0.7546771E-02  0.1147574E+00
         -1   -1    0    0    0  501 -0.00000000000E+00  0.00000000000E+00  0.40712065774E+03  0.40712065774E+03  0.00000000000E+00 0.  1.
          1   -1    0    0  501    0  0.00000000000E+00 -0.00000000000E+00 -0.13840067953E+03  0.13840067953E+03  0.00000000000E+00 0. -1.
         25    2    1    2    0    0 -0.65333760684E+02  0.15206113345E+03  0.28891074194E+03  0.35564935827E+03  0.12500384249E+03 0.  0.
         23    2    1    2    0    0  0.65333760684E+02 -0.15206113345E+03 -0.20190763733E+02  0.18987197899E+03  0.90843892887E+02 0.  0.
          5    1    4    4  502    0  0.44411876131E+02 -0.10936244324E+03 -0.55443665095E+02  0.13049386473E+03  0.47000000000E+01 0. -1.
         -5    1    4    4    0  502  0.20921884553E+02 -0.42698690216E+02  0.35252901362E+02  0.59378114267E+02  0.47000000000E+01 0.  1.
          5    1    3    3  503    0 -0.32129066342E+02  0.12231038375E+03  0.99426824246E+02  0.16093442844E+03  0.47000000000E+01 0.  1.
         -5    1    3    3    0  503 -0.33204694342E+02  0.29750749704E+02  0.18948391770E+03  0.19471492983E+03  0.47000000000E+01 0.  1.
<mgrwt>
<rscale>  0 0.20258770E+03</rscale>
<asrwt>0</asrwt>
<pdfrwt beam="1">  1        1 0.21292412E-01 0.20740552E+03</pdfrwt>
<pdfrwt beam="2">  1       -1 0.62633947E-01 0.20740552E+03</pdfrwt>
<totfact> 0.63006341E+02</totfact>
</mgrwt>
</event>
<event>
 8    1  0.3520338E-004  0.1268843E+03  0.7546771E-02  0.1247590E+00
          4   -1    0    0  501    0  0.00000000000E+00  0.00000000000E+00  0.19359948500E+03  0.19359948500E+03  0.00000000000E+00 0. -1.
         -4   -1    0    0    0  501 -0.00000000000E+00 -0.00000000000E+00 -0.62282590036E+02  0.62282590036E+02  0.00000000000E+00 0.  1.
         25    2    1    2    0    0 -0.13299464311E+01  0.21734511962E+02  0.75366334594E+02  0.14757950045E+03  0.12500186717E+03 0.  0.
         23    2    1    2    0    0  0.13299464311E+01 -0.21734511962E+02  0.55950560370E+02  0.10830257458E+03  0.90137809423E+02 0.  0.
          5    1    3    3  502    0  0.25633795847E+01  0.73155908187E+02  0.56037407867E+02  0.92307306851E+02  0.47000000000E+01 0.  1.
         -5    1    4    4    0  503 -0.28318326762E+02 -0.73693736380E+01 -0.12520454931E+02  0.32172769388E+02  0.47000000000E+01 0.  1.
          5    1    4    4  503    0  0.29648273193E+02 -0.14365138324E+02  0.68471015301E+02  0.76129805193E+02  0.47000000000E+01 0. -1.
         -5    1    3    3    0  502 -0.38933260158E+01 -0.51421396226E+02  0.19328926727E+02  0.55272193603E+02  0.47000000000E+01 0.  1.
<mgrwt>
<rscale>  0 0.11731723E+03</rscale>
<asrwt>0</asrwt>
<pdfrwt beam="1">  1        4 0.29784536E-01 0.12688430E+03</pdfrwt>
<pdfrwt beam="2">  1       -4 0.95819370E-02 0.12688430E+03</pdfrwt>
<totfact> 0.14267588E+03</totfact>
</mgrwt>
</event>
<event>
 8    1  0.3520338E-004  0.1431584E+03  0.7546771E-02  0.1219093E+00
         -2   -1    0    0    0  501 -0.00000000000E+00  0.00000000000E+00  0.30948405134E+02  0.30948405134E+02  0.00000000000E+00 0.  1.
          2   -1    0    0  501    0  0.00000000000E+00 -0.00000000000E+00 -0.80168488078E+03  0.80168488078E+03  0.00000000000E+00 0. -1.
         25    2    1    2    0    0  0.45851267936E+02  0.52591493472E+02 -0.64872955299E+03  0.66433753159E+03  0.12500447593E+03 0.  0.
         23    2    1    2    0    0 -0.45851267936E+02 -0.52591493472E+02 -0.12200692265E+03  0.16829575432E+03  0.92571960061E+02 0.  0.
          5    1    3    3  502    0 -0.19149765960E+02  0.31976479382E+02 -0.54521654562E+02  0.66211098663E+02  0.47000000000E+01 0.  1.
         -5    1    4    4    0  503  0.20990407322E+02  0.40525838925E+01 -0.57246211700E+01  0.22624807696E+02  0.47000000000E+01 0.  1.
          5    1    4    4  503    0 -0.66841675258E+02 -0.56644077365E+02 -0.11628230148E+03  0.14567094662E+03  0.47000000000E+01 0. -1.
         -5    1    3    3    0  502  0.65001033896E+02  0.20615014090E+02 -0.59420789843E+03  0.59812643293E+03  0.47000000000E+01 0.  1.
<mgrwt>
<rscale>  0 0.13580117E+03</rscale>
<asrwt>0</asrwt>
<pdfrwt beam="1">  1        2 0.12333615E+00 0.14315838E+03</pdfrwt>
<pdfrwt beam="2">  1       -2 0.47612925E-02 0.14315838E+03</pdfrwt>
<totfact> 0.72267999E+03</totfact>
</mgrwt>
</event>
<event>
 8    1  0.3520338E-004  0.1511612E+03  0.7546771E-02  0.1207648E+00
          2   -1    0    0  501    0  0.00000000000E+00  0.00000000000E+00  0.10024646515E+03  0.10024646515E+03  0.00000000000E+00 0. -1.
         -2   -1    0    0    0  501 -0.00000000000E+00 -0.00000000000E+00 -0.19271089272E+03  0.19271089272E+03  0.00000000000E+00 0.  1.
         25    2    1    2    0    0  0.16274741059E+01 -0.84979365099E+02 -0.64389148619E+02  0.16430358247E+03  0.12500225434E+03 0.  0.
         23    2    1    2    0    0 -0.16274741059E+01  0.84979365099E+02 -0.28075278951E+02  0.12865377540E+03  0.92409044319E+02 0.  0.
          5    1    3    3  502    0 -0.45769757726E+02 -0.20665418422E+02  0.13930467975E+02  0.52326648840E+02  0.47000000000E+01 0.  1.
         -5    1    4    4    0  503  0.30533756779E+02  0.67029900199E+02 -0.46469904851E+02  0.87217314110E+02  0.47000000000E+01 0.  1.
          5    1    4    4  503    0 -0.32161230885E+02  0.17949464900E+02  0.18394625900E+02  0.41436461290E+02  0.47000000000E+01 0. -1.
         -5    1    3    3    0  502  0.47397231832E+02 -0.64313946677E+02 -0.78319616594E+02  0.11197693363E+03  0.47000000000E+01 0.  1.
<mgrwt>
<rscale>  0 0.14430689E+03</rscale>
<asrwt>0</asrwt>
<pdfrwt beam="1">  1        2 0.15422533E-01 0.15116119E+03</pdfrwt>
<pdfrwt beam="2">  1       -2 0.29647829E-01 0.15116119E+03</pdfrwt>
<totfact> 0.37979355E+03</totfact>
</mgrwt>
</event>
<event>
 8    1  0.3520338E-004  0.1617610E+03  0.7546771E-02  0.1192862E+00
         -1   -1    0    0    0  501 -0.00000000000E+00  0.00000000000E+00  0.17426193019E+03  0.17426193019E+03  0.00000000000E+00 0.  1.
          1   -1    0    0  501    0  0.00000000000E+00 -0.00000000000E+00 -0.14222982139E+03  0.14222982139E+03  0.00000000000E+00 0. -1.
         25    2    1    2    0    0  0.73486549970E+02  0.71691970796E+02  0.59969564114E+02  0.17251950759E+03  0.12500648053E+03 0.  0.
         23    2    1    2    0    0 -0.73486549970E+02 -0.71691970796E+02 -0.27937455308E+02  0.14397224399E+03  0.96992236425E+02 0.  0.
          5    1    4    4  502    0 -0.73486809051E+02 -0.45687209337E+01 -0.11088030352E+02  0.74607095726E+02  0.47000000000E+01 0. -1.
         -5    1    3    3    0  503  0.44230221283E+02 -0.27818704636E+02  0.41876470803E+02  0.67126161884E+02  0.47000000000E+01 0.  1.
          5    1    3    3  503    0  0.29256328688E+02  0.99510675432E+02  0.18093093311E+02  0.10539334570E+03  0.47000000000E+01 0.  1.
         -5    1    4    4    0  502  0.25908087773E-03 -0.67123249862E+02 -0.16849424956E+02  0.69365148263E+02  0.47000000000E+01 0.  1.
<mgrwt>
<rscale>  0 0.15636571E+03</rscale>
<asrwt>0</asrwt>
<pdfrwt beam="1">  1        1 0.21881511E-01 0.16176103E+03</pdfrwt>
<pdfrwt beam="2">  1       -1 0.26809528E-01 0.16176103E+03</pdfrwt>
<totfact> 0.27441616E+03</totfact>
</mgrwt>
</event>
<event>
 8    1  0.3520338E-004  0.1299839E+03  0.7546771E-02  0.1244162E+00
         -1   -1    0    0    0  501 -0.00000000000E+00  0.00000000000E+00  0.30408533817E+02  0.30408533817E+02  0.00000000000E+00 0.  1.
          1   -1    0    0  501    0  0.00000000000E+00 -0.00000000000E+00 -0.43906432193E+03  0.43906432193E+03  0.00000000000E+00 0. -1.
         25    2    1    2    0    0  0.33991355375E+02 -0.10733625856E+02 -0.17334139166E+03  0.21666346673E+03  0.12500078714E+03 0.  0.
         23    2    1    2    0    0 -0.33991355375E+02  0.10733625856E+02 -0.23531439645E+03  0.25280938902E+03  0.85259011465E+02 0.  0.
          5    1    3    3  502    0  0.80164103603E+02  0.41054581137E+01 -0.95650882555E+02  0.12495727120E+03  0.47000000000E+01 0.  1.
         -5    1    3    3    0  502 -0.46172748228E+02 -0.14839083970E+02 -0.77690509107E+02  0.91706195523E+02  0.47000000000E+01 0.  1.
          5    1    4    4  503    0 -0.17506742030E+02 -0.12290374289E+02 -0.21839366327E+03  0.21948900080E+03  0.47000000000E+01 0. -1.
         -5    1    4    4    0  503 -0.16484613345E+02  0.23024000145E+02 -0.16920733184E+02  0.33320388222E+02  0.47000000000E+01 0.  1.
<mgrwt>
<rscale>  0 0.11935694E+03</rscale>
<asrwt>0</asrwt>
<pdfrwt beam="1">  1        1 0.67548354E-01 0.12998392E+03</pdfrwt>
<pdfrwt beam="2">  1       -1 0.46782362E-02 0.12998392E+03</pdfrwt>
<totfact> 0.98896358E+03</totfact>
</mgrwt>
</event>
<event>
 8    1  0.3520338E-004  0.1252981E+03  0.7546771E-02  0.1249912E+00
         -1   -1    0    0    0  501 -0.00000000000E+00  0.00000000000E+00  0.22583784260E+03  0.22583784260E+03  0.00000000000E+00 0.  1.
          1   -1    0    0  501    0  0.00000000000E+00 -0.00000000000E+00 -0.56191677614E+02  0.56191677614E+02  0.00000000000E+00 0. -1.
         25    2    1    2    0    0  0.22516534866E+01  0.83160125083E+01  0.13395419889E+03  0.18342120733E+03  0.12500154356E+03 0.  0.
         23    2    1    2    0    0 -0.22516534866E+01 -0.83160125083E+01  0.35691966099E+02  0.98608312883E+02  0.91517522465E+02 0.  0.
          5    1    4    4  502    0  0.39738602892E+02  0.83924354842E+01  0.91556241381E-01  0.40886280287E+02  0.47000000000E+01 0. -1.
         -5    1    3    3    0  503  0.75600343727E+01 -0.57800058454E+02  0.69255702225E+02  0.90644598116E+02  0.47000000000E+01 0.  1.
          5    1    3    3  503    0 -0.53083808860E+01  0.66116070962E+02  0.64698496663E+02  0.92776609216E+02  0.47000000000E+01 0.  1.
         -5    1    4    4    0  502 -0.41990256378E+02 -0.16708447992E+02  0.35600409857E+02  0.57722032596E+02  0.47000000000E+01 0.  1.
<mgrwt>
<rscale>  0 0.11596139E+03</rscale>
<asrwt>0</asrwt>
<pdfrwt beam="1">  1        1 0.86448736E-02 0.12529809E+03</pdfrwt>
<pdfrwt beam="2">  1       -1 0.34744283E-01 0.12529809E+03</pdfrwt>
<totfact> 0.58550476E+03</totfact>
</mgrwt>
</event>
<event>
 8    1  0.3520338E-004  0.1352371E+03  0.7546771E-02  0.1232150E+00
         -2   -1    0    0    0  501 -0.00000000000E+00  0.00000000000E+00  0.76821133132E+03  0.76821133132E+03  0.00000000000E+00 0.  1.
          2   -1    0    0  501    0  0.00000000000E+00 -0.00000000000E+00 -0.20676067554E+02  0.20676067554E+02  0.00000000000E+00 0. -1.
         25    2    1    2    0    0 -0.28365409305E+02  0.43136651598E+02  0.53621210788E+03  0.55300316598E+03  0.12499483903E+03 0.  0.
         23    2    1    2    0    0  0.28365409305E+02 -0.43136651598E+02  0.21132315589E+03  0.23588423290E+03  0.91205964505E+02 0.  0.
          5    1    4    4  502    0 -0.11363176398E+02  0.19229241399E+02  0.18716913383E+02  0.29517763283E+02  0.47000000000E+01 0. -1.
         -5    1    4    4    0  502  0.39728585703E+02 -0.62365892998E+02  0.19260624250E+03  0.20636646962E+03  0.47000000000E+01 0.  1.
          5    1    3    3  503    0 -0.91314145702E+01  0.65501371448E+02  0.50667762182E+03  0.51099717695E+03  0.47000000000E+01 0.  1.
         -5    1    3    3    0  503 -0.19233994735E+02 -0.22364719850E+02  0.29534486061E+02  0.42005989029E+02  0.47000000000E+01 0.  1.
<mgrwt>
<rscale>  0 0.12688681E+03</rscale>
<asrwt>0</asrwt>
<pdfrwt beam="1">  1        2 0.31809341E-02 0.13523711E+03</pdfrwt>
<pdfrwt beam="2">  1       -2 0.11818634E+00 0.13523711E+03</pdfrwt>
<totfact> 0.16026967E+03</totfact>
</mgrwt>
</event>
<event>
 8    1  0.3520338E-004  0.1309446E+03  0.7546771E-02  0.1239946E+00
         -1   -1    0    0    0  501 -0.00000000000E+00  0.00000000000E+00  0.13336405407E+03  0.13336405407E+03  0.00000000000E+00 0.  1.
          1   -1    0    0  501    0  0.00000000000E+00 -0.00000000000E+00 -0.99495796921E+02  0.99495796921E+02  0.00000000000E+00 0. -1.
         25    2    1    2    0    0 -0.29490590474E+02  0.25531072872E+02  0.30022319635E+02  0.13434218413E+03  0.12499980861E+03 0.  0.
         23    2    1    2    0    0  0.29490590474E+02 -0.25531072872E+02  0.38459375122E+01  0.98517666858E+02  0.90384782123E+02 0.  0.
          5    1    3    3  502    0 -0.60777298755E+02  0.45589216903E+02  0.50790823196E+02  0.91509859921E+02  0.47000000000E+01 0. -1.
         -5    1    4    4    0  503  0.19813868745E+02  0.20308321973E+02  0.32501288609E+02  0.43398630131E+02  0.47000000000E+01 0.  1.
          5    1    4    4  503    0  0.96767217293E+01 -0.45839394845E+02 -0.28655351097E+02  0.55119036727E+02  0.47000000000E+01 0. -1.
         -5    1    3    3    0  502  0.31286708281E+02 -0.20058144031E+02 -0.20768503561E+02  0.42832324210E+02  0.47000000000E+01 0. -1.
<mgrwt>
<rscale>  0 0.12193023E+03</rscale>
<asrwt>0</asrwt>
<pdfrwt beam="1">  1        1 0.15307046E-01 0.13094458E+03</pdfrwt>
<pdfrwt beam="2">  1       -1 0.20517547E-01 0.13094458E+03</pdfrwt>
<totfact> 0.66345152E+03</totfact>
</mgrwt>
</event>
<event>
 8    1  0.3520338E-004  0.1604580E+03  0.7546771E-02  0.1196337E+00
          1   -1    0    0  501    0  0.00000000000E+00  0.00000000000E+00  0.63783664276E+02  0.63783664276E+02  0.00000000000E+00 0. -1.
         -1   -1    0    0    0  501 -0.00000000000E+00 -0.00000000000E+00 -0.41562286962E+03  0.41562286962E+03  0.00000000000E+00 0.  1.
         25    2    1    2    0    0  0.13971559953E+02 -0.99634910739E+02 -0.29068064619E+03  0.33202711458E+03  0.12499778725E+03 0.  0.
         23    2    1    2    0    0 -0.13971559953E+02  0.99634910739E+02 -0.61158559149E+02  0.14737941932E+03  0.88645383159E+02 0.  0.
          5    1    3    3  502    0  0.27398527880E+02  0.23439940795E+02 -0.73127774578E+02  0.81669281674E+02  0.47000000000E+01 0.  1.
         -5    1    4    4    0  503  0.17001089302E+01  0.75856393093E+02 -0.81969827587E+02  0.11179546224E+03  0.47000000000E+01 0.  1.
          5    1    4    4  503    0 -0.15671668884E+02  0.23778517646E+02  0.20811268438E+02  0.35583957074E+02  0.47000000000E+01 0. -1.
         -5    1    3    3    0  502 -0.13426967926E+02 -0.12307485153E+03 -0.21755287161E+03  0.25035783290E+03  0.47000000000E+01 0.  1.
<mgrwt>
<rscale>  0 0.15341602E+03</rscale>
<asrwt>0</asrwt>
<pdfrwt beam="1">  1        1 0.98128715E-02 0.16045799E+03</pdfrwt>
<pdfrwt beam="2">  1       -1 0.63941979E-01 0.16045799E+03</pdfrwt>
<totfact> 0.16591670E+03</totfact>
</mgrwt>
</event>
<event>
 8    1  0.3520338E-004  0.3780166E+03  0.7546771E-02  0.1052583E+00
         -2   -1    0    0    0  501 -0.00000000000E+00  0.00000000000E+00  0.12019847668E+03  0.12019847668E+03  0.00000000000E+00 0. -1.
          2   -1    0    0  501    0  0.00000000000E+00 -0.00000000000E+00 -0.11597636453E+04  0.11597636453E+04  0.00000000000E+00 0.  1.
         25    2    1    2    0    0  0.16587029169E+03 -0.31585372705E+03 -0.54697461640E+03  0.66488927612E+03  0.12497995022E+03 0.  0.
         23    2    1    2    0    0 -0.16587029169E+03  0.31585372705E+03 -0.49259055219E+03  0.61507284582E+03  0.91611260239E+02 0.  0.
          5    1    4    4  502    0 -0.74323246374E+02  0.65323728862E+02 -0.16674186862E+03  0.19394864077E+03  0.47000000000E+01 0. -1.
         -5    1    4    4    0  502 -0.91547045313E+02  0.25052999819E+03 -0.32584868356E+03  0.42112420505E+03  0.47000000000E+01 0.  1.
          5    1    3    3  503    0  0.11731048914E+03 -0.30632204901E+03 -0.46643018532E+03  0.57024043732E+03  0.47000000000E+01 0. -1.
         -5    1    3    3    0  503  0.48559802544E+02 -0.95316780478E+01 -0.80544431080E+02  0.94648838807E+02  0.47000000000E+01 0. -1.
<mgrwt>
<rscale>  0 0.37557204E+03</rscale>
<asrwt>0</asrwt>
<pdfrwt beam="1">  1        2 0.17842518E+00 0.37801656E+03</pdfrwt>
<pdfrwt beam="2">  1       -2 0.18492073E-01 0.37801656E+03</pdfrwt>
<totfact> 0.50452609E+02</totfact>
</mgrwt>
</event>
<event>
 8    1  0.3520338E-004  0.1284237E+03  0.7546771E-02  0.1244228E+00
         -2   -1    0    0    0  501 -0.00000000000E+00  0.00000000000E+00  0.98911736995E+02  0.98911736995E+02  0.00000000000E+00 0. -1.
          2   -1    0    0  501    0  0.00000000000E+00 -0.00000000000E+00 -0.13369929092E+03  0.13369929092E+03  0.00000000000E+00 0.  1.
         25    2    1    2    0    0 -0.44891992940E+01  0.29114830765E+02 -0.45670829560E+02  0.13630288460E+03  0.12499930158E+03 0.  0.
         23    2    1    2    0    0  0.44891992940E+01 -0.29114830765E+02  0.10883275636E+02  0.96308143317E+02  0.91043871292E+02 0.  0.
          5    1    4    4  502    0 -0.14788293740E+02  0.19090679952E+02  0.31742699223E+02  0.40160137534E+02  0.47000000000E+01 0. -1.
         -5    1    4    4    0  502  0.19277493034E+02 -0.48205510717E+02 -0.20859423587E+02  0.56148005784E+02  0.47000000000E+01 0.  1.
          5    1    3    3  503    0  0.14197419838E+02 -0.33951570130E+02  0.20915055475E+02  0.42588794182E+02  0.47000000000E+01 0. -1.
         -5    1    3    3    0  503 -0.18686619132E+02  0.63066400895E+02 -0.66585885034E+02  0.93714090414E+02  0.47000000000E+01 0. -1.
<mgrwt>
<rscale>  0 0.11931690E+03</rscale>
<asrwt>0</asrwt>
<pdfrwt beam="1">  1        2 0.20569122E-01 0.12842372E+03</pdfrwt>
<pdfrwt beam="2">  1       -2 0.15217190E-01 0.12842372E+03</pdfrwt>
<totfact> 0.84441885E+03</totfact>
</mgrwt>
</event>
<event>
 8    1  0.3520338E-004  0.2646779E+03  0.7546771E-02  0.1106875E+00
         -2   -1    0    0    0  501 -0.00000000000E+00  0.00000000000E+00  0.68077379585E+02  0.68077379585E+02  0.00000000000E+00 0.  1.
          2   -1    0    0  501    0  0.00000000000E+00 -0.00000000000E+00 -0.97611509768E+03  0.97611509768E+03  0.00000000000E+00 0. -1.
         25    2    1    2    0    0  0.20714451028E+03 -0.10732842443E+03 -0.41484199000E+03  0.49208565282E+03  0.12500469677E+03 0.  0.
         23    2    1    2    0    0 -0.20714451028E+03  0.10732842443E+03 -0.49319572810E+03  0.55210682444E+03  0.84567609353E+02 0.  0.
          5    1    3    3  502    0  0.13435109095E+02 -0.61787600653E+02 -0.74674071422E+02  0.97961812425E+02  0.47000000000E+01 0. -1.
         -5    1    3    3    0  502  0.19370940119E+03 -0.45540823779E+02 -0.34016791857E+03  0.39412384039E+03  0.47000000000E+01 0. -1.
          5    1    4    4  503    0 -0.13840823679E+03  0.28347428672E+02 -0.31709845300E+03  0.34717997583E+03  0.47000000000E+01 0. -1.
         -5    1    4    4    0  503 -0.68736273495E+02  0.78980995760E+02 -0.17609727509E+03  0.20492684861E+03  0.47000000000E+01 0.  1.
<mgrwt>
<rscale>  0 0.26044631E+03</rscale>
<asrwt>0</asrwt>
<pdfrwt beam="1">  1        2 0.15017154E+00 0.26467794E+03</pdfrwt>
<pdfrwt beam="2">  1       -2 0.10473444E-01 0.26467794E+03</pdfrwt>
<totfact> 0.16734124E+03</totfact>
</mgrwt>
</event>
<event>
 8    1  0.3520338E-004  0.1253605E+03  0.7546771E-02  0.1249996E+00
          2   -1    0    0  501    0  0.00000000000E+00  0.00000000000E+00  0.35618469136E+02  0.35618469136E+02  0.00000000000E+00 0. -1.
         -2   -1    0    0    0  501 -0.00000000000E+00 -0.00000000000E+00 -0.43479017474E+03  0.43479017474E+03  0.00000000000E+00 0.  1.
         25    2    1    2    0    0  0.41268867809E+00 -0.94513112876E+01 -0.10902789717E+03  0.16613953997E+03  0.12500306710E+03 0.  0.
         23    2    1    2    0    0 -0.41268867809E+00  0.94513112876E+01 -0.29014380843E+03  0.30426910390E+03  0.91141430870E+02 0.  0.
          5    1    4    4  502    0 -0.14547790355E+02 -0.32817775269E+02 -0.62268712410E+02  0.72028654875E+02  0.47000000000E+01 0. -1.
         -5    1    3    3    0  503 -0.60607046984E+02 -0.18221909500E+02 -0.58067932072E+02  0.86018758798E+02  0.47000000000E+01 0. -1.
          5    1    3    3  503    0  0.61019735662E+02  0.87705982128E+01 -0.50959965101E+02  0.80120781177E+02  0.47000000000E+01 0. -1.
         -5    1    4    4    0  502  0.14135101677E+02  0.42269086556E+02 -0.22787509602E+03  0.23224044902E+03  0.47000000000E+01 0.  1.
<mgrwt>
<rscale>  0 0.11591279E+03</rscale>
<asrwt>0</asrwt>
<pdfrwt beam="1">  1        2 0.54797647E-02 0.12536054E+03</pdfrwt>
<pdfrwt beam="2">  1       -2 0.66890793E-01 0.12536054E+03</pdfrwt>
<totfact> 0.27867642E+03</totfact>
</mgrwt>
</event>
<event>
 8    1  0.3520338E-004  0.1569437E+03  0.7546771E-02  0.1199878E+00
         -3   -1    0    0    0  501 -0.00000000000E+00  0.00000000000E+00  0.97422588413E+02  0.97422588413E+02  0.00000000000E+00 0.  1.
          3   -1    0    0  501    0  0.00000000000E+00 -0.00000000000E+00 -0.21555976105E+03  0.21555976105E+03  0.00000000000E+00 0. -1.
         25    2    1    2    0    0  0.66427049443E+02  0.67777819940E+02 -0.70181308523E+02  0.17192078455E+03  0.12499981728E+03 0.  0.
         23    2    1    2    0    0 -0.66427049443E+02 -0.67777819940E+02 -0.47955864112E+02  0.14106156491E+03  0.92694198415E+02 0.  0.
          5    1    4    4  502    0 -0.59025534165E+02  0.37745861989E+01 -0.12119243967E+02  0.60557635842E+02  0.47000000000E+01 0. -1.
         -5    1    3    3    0  503  0.92716310198E+01  0.36782601655E+02 -0.94817816840E+02  0.10223224206E+03  0.47000000000E+01 0. -1.
          5    1    3    3  503    0  0.57155418423E+02  0.30995218285E+02  0.24636508318E+02  0.69688542486E+02  0.47000000000E+01 0. -1.
         -5    1    4    4    0  502 -0.74015152782E+01 -0.71552406139E+02 -0.35836620144E+02  0.80503929072E+02  0.47000000000E+01 0.  1.
<mgrwt>
<rscale>  0 0.15048485E+03</rscale>
<asrwt>0</asrwt>
<pdfrwt beam="1">  1        3 0.33163040E-01 0.15694375E+03</pdfrwt>
<pdfrwt beam="2">  1       -3 0.14988091E-01 0.15694375E+03</pdfrwt>
<totfact> 0.78079380E+02</totfact>
</mgrwt>
</event>
<event>
 8    1  0.3520338E-004  0.1369112E+03  0.7546771E-02  0.1229024E+00
         -1   -1    0    0    0  501 -0.00000000000E+00  0.00000000000E+00  0.11903312352E+03  0.11903312352E+03  0.00000000000E+00 0.  1.
          1   -1    0    0  501    0  0.00000000000E+00 -0.00000000000E+00 -0.19156468617E+03  0.19156468617E+03  0.00000000000E+00 0. -1.
         25    2    1    2    0    0 -0.47400168048E+02 -0.29553058780E+02 -0.12973790363E+03  0.18861758492E+03  0.12499804193E+03 0.  0.
         23    2    1    2    0    0  0.47400168048E+02  0.29553058780E+02  0.57206340980E+02  0.12198022477E+03  0.92121933180E+02 0.  0.
          5    1    4    4  502    0  0.16961631078E+02 -0.23227440829E+02 -0.10312329889E+02  0.30913509734E+02  0.47000000000E+01 0. -1.
         -5    1    4    4    0  502  0.30438536970E+02  0.52780499609E+02  0.67518670869E+02  0.91066715038E+02  0.47000000000E+01 0.  1.
          5    1    3    3  503    0 -0.37609533468E+02 -0.78402540630E-01 -0.14766393767E+03  0.15245068593E+03  0.47000000000E+01 0.  1.
         -5    1    3    3    0  503 -0.97906345801E+01 -0.29474656239E+02  0.17926034036E+02  0.36166898984E+02  0.47000000000E+01 0.  1.
<mgrwt>
<rscale>  0 0.12894881E+03</rscale>
<asrwt>0</asrwt>
<pdfrwt beam="1">  1        1 0.29471490E-01 0.13691117E+03</pdfrwt>
<pdfrwt beam="2">  1       -1 0.18312788E-01 0.13691117E+03</pdfrwt>
<totfact> 0.34799721E+03</totfact>
</mgrwt>
</event>
<event>
 8    1  0.3520338E-004  0.3326426E+03  0.7546771E-02  0.1071259E+00
          1   -1    0    0  501    0  0.00000000000E+00  0.00000000000E+00  0.11833751711E+04  0.11833751711E+04  0.00000000000E+00 0. -1.
         -1   -1    0    0    0  501 -0.00000000000E+00 -0.00000000000E+00 -0.92119923595E+02  0.92119923595E+02  0.00000000000E+00 0.  1.
         25    2    1    2    0    0 -0.11232881713E+03 -0.28707551064E+03  0.46527446893E+03  0.57195406396E+03  0.12498403050E+03 0.  0.
         23    2    1    2    0    0  0.11232881713E+03  0.28707551064E+03  0.62598077861E+03  0.70354103076E+03  0.89932946210E+02 0.  0.
          5    1    3    3  502    0 -0.26270900753E+02 -0.50191287552E+02  0.19967313823E+02  0.60250387499E+02  0.47000000000E+01 0. -1.
         -5    1    4    4    0  503  0.25691970337E+02  0.15658730435E+02  0.10966610510E+03  0.11381571854E+03  0.47000000000E+01 0.  1.
          5    1    4    4  503    0  0.86636846797E+02  0.27141678020E+03  0.51631467350E+03  0.58972531222E+03  0.47000000000E+01 0. -1.
         -5    1    3    3    0  502 -0.86057916381E+02 -0.23688422309E+03  0.44530715510E+03  0.51170367646E+03  0.47000000000E+01 0. -1.
<mgrwt>
<rscale>  0 0.32972378E+03</rscale>
<asrwt>0</asrwt>
<pdfrwt beam="1">  1        1 0.18205771E+00 0.33264263E+03</pdfrwt>
<pdfrwt beam="2">  1       -1 0.14172297E-01 0.33264263E+03</pdfrwt>
<totfact> 0.41308565E+02</totfact>
</mgrwt>
</event>
<event>
 8    1  0.3520338E-004  0.1416108E+03  0.7546771E-02  0.1222040E+00
          2   -1    0    0  501    0  0.00000000000E+00  0.00000000000E+00  0.95842219291E+03  0.95842219291E+03  0.00000000000E+00 0. -1.
         -2   -1    0    0    0  501 -0.00000000000E+00 -0.00000000000E+00 -0.17617094453E+02  0.17617094453E+02  0.00000000000E+00 0.  1.
         25    2    1    2    0    0 -0.64664428772E+02 -0.15749073020E+02  0.62267790490E+03  0.63857763123E+03  0.12499638476E+03 0.  0.
         23    2    1    2    0    0  0.64664428772E+02  0.15749073020E+02  0.31812719355E+03  0.33746165613E+03  0.90807138665E+02 0.  0.
          5    1    3    3  502    0 -0.35047124780E+02  0.54019218172E+02  0.32624085112E+03  0.33256812810E+03  0.47000000000E+01 0.  1.
         -5    1    4    4    0  503  0.62581924061E+02  0.47896114917E+02  0.20270443626E+03  0.21753554542E+03  0.47000000000E+01 0.  1.
          5    1    4    4  503    0  0.20825047109E+01 -0.32147041898E+02  0.11542275729E+03  0.11992611071E+03  0.47000000000E+01 0. -1.
         -5    1    3    3    0  502 -0.29617303992E+02 -0.69768291191E+02  0.29643705378E+03  0.30600950313E+03  0.47000000000E+01 0.  1.
<mgrwt>
<rscale>  0 0.13371888E+03</rscale>
<asrwt>0</asrwt>
<pdfrwt beam="1">  1        2 0.14744953E+00 0.14161080E+03</pdfrwt>
<pdfrwt beam="2">  1       -2 0.27103230E-02 0.14161080E+03</pdfrwt>
<totfact> 0.13208365E+04</totfact>
</mgrwt>
</event>
<event>
 8    1  0.3520338E-004  0.1939483E+03  0.7546771E-02  0.1159675E+00
         -2   -1    0    0    0  501 -0.00000000000E+00  0.00000000000E+00  0.55456345502E+02  0.55456345502E+02  0.00000000000E+00 0.  1.
          2   -1    0    0  501    0  0.00000000000E+00 -0.00000000000E+00 -0.60929054761E+03  0.60929054761E+03  0.00000000000E+00 0. -1.
         25    2    1    2    0    0 -0.47707787402E+02  0.14041028905E+03 -0.28722337988E+03  0.34657354234E+03  0.12499947219E+03 0.  0.
         23    2    1    2    0    0  0.47707787402E+02 -0.14041028905E+03 -0.26661082223E+03  0.31817335078E+03  0.90343059300E+02 0.  0.
          5    1    4    4  502    0  0.66792403259E+02 -0.60332574489E+02 -0.15671146155E+03  0.18078112971E+03  0.47000000000E+01 0. -1.
         -5    1    4    4    0  502 -0.19084615857E+02 -0.80077714563E+02 -0.10989936068E+03  0.13739222107E+03  0.47000000000E+01 0.  1.
          5    1    3    3  503    0 -0.25262649480E+02  0.30274989711E+02 -0.20086272792E+03  0.20475034048E+03  0.47000000000E+01 0. -1.
         -5    1    3    3    0  503 -0.22445137922E+02  0.11013529934E+03 -0.86360651960E+02  0.14182320185E+03  0.47000000000E+01 0. -1.
<mgrwt>
<rscale>  0 0.18866040E+03</rscale>
<asrwt>0</asrwt>
<pdfrwt beam="1">  1        2 0.93737006E-01 0.19394832E+03</pdfrwt>
<pdfrwt beam="2">  1       -2 0.85317456E-02 0.19394832E+03</pdfrwt>
<totfact> 0.41685185E+03</totfact>
</mgrwt>
</event>
<event>
 8    1  0.3520338E-004  0.1335241E+03  0.7546771E-02  0.1234363E+00
         -2   -1    0    0    0  501 -0.00000000000E+00  0.00000000000E+00  0.52222872347E+02  0.52222872347E+02  0.00000000000E+00 0. -1.
          2   -1    0    0  501    0  0.00000000000E+00 -0.00000000000E+00 -0.30619748292E+03  0.30619748292E+03  0.00000000000E+00 0.  1.
         25    2    1    2    0    0 -0.31856971525E+02  0.34560554045E+02 -0.79859685586E+02  0.15558360746E+03  0.12497756198E+03 0.  0.
         23    2    1    2    0    0  0.31856971525E+02 -0.34560554045E+02 -0.17411492499E+03  0.20283674781E+03  0.92830170889E+02 0.  0.
          5    1    4    4  502    0  0.11232953659E+02 -0.25628522696E+02 -0.11952643748E+01  0.28399279575E+02  0.47000000000E+01 0. -1.
         -5    1    3    3    0  503  0.28292385979E+02 -0.11980409496E+02  0.14501493001E+02  0.34298288811E+02  0.47000000000E+01 0.  1.
          5    1    3    3  503    0 -0.60149357505E+02  0.46540963541E+02 -0.94361178586E+02  0.12128531865E+03  0.47000000000E+01 0.  1.
         -5    1    4    4    0  502  0.20624017867E+02 -0.89320313493E+01 -0.17291966061E+03  0.17443746823E+03  0.47000000000E+01 0.  1.
<mgrwt>
<rscale>  0 0.12545327E+03</rscale>
<asrwt>0</asrwt>
<pdfrwt beam="1">  1        2 0.47107305E-01 0.13352412E+03</pdfrwt>
<pdfrwt beam="2">  1       -2 0.80342881E-02 0.13352412E+03</pdfrwt>
<totfact> 0.95019761E+03</totfact>
</mgrwt>
</event>
<event>
 8    1  0.3520338E-004  0.2199554E+03  0.7546771E-02  0.1137286E+00
          2   -1    0    0  501    0  0.00000000000E+00  0.00000000000E+00  0.27100647659E+03  0.27100647659E+03  0.00000000000E+00 0. -1.
         -2   -1    0    0    0  501 -0.00000000000E+00 -0.00000000000E+00 -0.16475611165E+03  0.16475611165E+03  0.00000000000E+00 0.  1.
         25    2    1    2    0    0 -0.17981427399E+03 -0.20480488224E+02  0.55297076623E+02  0.22679978364E+03  0.12501100611E+03 0.  0.
         23    2    1    2    0    0  0.17981427399E+03  0.20480488224E+02  0.50953288319E+02  0.20896280460E+03  0.91195353965E+02 0.  0.
          5    1    4    4  502    0  0.10698571691E+03 -0.71762641327E+01  0.70619719745E+02  0.12847831415E+03  0.47000000000E+01 0. -1.
         -5    1    3    3    0  503 -0.18194934891E+03 -0.50045064888E+02  0.39382158320E+02  0.19282924696E+03  0.47000000000E+01 0.  1.
          5    1    3    3  503    0  0.21350749182E+01  0.29564576663E+02  0.15914918303E+02  0.33970536686E+02  0.47000000000E+01 0.  1.
         -5    1    4    4    0  502  0.72828557081E+02  0.27656752357E+02 -0.19666431425E+02  0.80484490447E+02  0.47000000000E+01 0.  1.
<mgrwt>
<rscale>  0 0.21549665E+03</rscale>
<asrwt>0</asrwt>
<pdfrwt beam="1">  1        2 0.41693304E-01 0.21995539E+03</pdfrwt>
<pdfrwt beam="2">  1       -2 0.25347094E-01 0.21995539E+03</pdfrwt>
<totfact> 0.16828012E+03</totfact>
</mgrwt>
</event>
<event>
 8    1  0.3520338E-004  0.2086924E+03  0.7546771E-02  0.1146433E+00
          2   -1    0    0  501    0  0.00000000000E+00  0.00000000000E+00  0.68891423020E+03  0.68891423020E+03  0.00000000000E+00 0. -1.
         -2   -1    0    0    0  501 -0.00000000000E+00 -0.00000000000E+00 -0.84782256256E+02  0.84782256256E+02  0.00000000000E+00 0.  1.
         25    2    1    2    0    0 -0.67674460951E+02 -0.15279022592E+03  0.93440180578E+02  0.22865602756E+03  0.12501130265E+03 0.  0.
         23    2    1    2    0    0  0.67674460951E+02  0.15279022592E+03  0.51069179336E+03  0.54504045889E+03  0.91314337448E+02 0.  0.
          5    1    4    4  502    0 -0.42735883238E+01  0.77320751239E+02  0.30059592757E+03  0.31044607229E+03  0.47000000000E+01 0. -1.
         -5    1    4    4    0  502  0.71948049275E+02  0.75469474681E+02  0.21009586579E+03  0.23459438660E+03  0.47000000000E+01 0.  1.
          5    1    3    3  503    0 -0.85311219027E+02 -0.81621705290E+02  0.10012866470E+03  0.15488042601E+03  0.47000000000E+01 0. -1.
         -5    1    3    3    0  503  0.17636758076E+02 -0.71168520630E+02 -0.66884841211E+01  0.73775601549E+02  0.47000000000E+01 0. -1.
<mgrwt>
<rscale>  0 0.20396841E+03</rscale>
<asrwt>0</asrwt>
<pdfrwt beam="1">  1        2 0.10598680E+00 0.20869239E+03</pdfrwt>
<pdfrwt beam="2">  1       -2 0.13043424E-01 0.20869239E+03</pdfrwt>
<totfact> 0.18368658E+03</totfact>
</mgrwt>
</event>
<event>
 8    1  0.3520338E-004  0.1472368E+03  0.7546771E-02  0.1213767E+00
          3   -1    0    0  501    0  0.00000000000E+00  0.00000000000E+00  0.12216972375E+04  0.12216972375E+04  0.00000000000E+00 0. -1.
         -3   -1    0    0    0  501 -0.00000000000E+00 -0.00000000000E+00 -0.16350772551E+02  0.16350772551E+02  0.00000000000E+00 0.  1.
         25    2    1    2    0    0 -0.12040832942E+02  0.76873305202E+02  0.45344829334E+03  0.47675363005E+03  0.12499672923E+03 0.  0.
         23    2    1    2    0    0  0.12040832942E+02 -0.76873305202E+02  0.75189817157E+03  0.76129437996E+03  0.90353670893E+02 0.  0.
          5    1    3    3  502    0  0.27753135530E+02 -0.23805596734E+02  0.83806212745E+02  0.91556071684E+02  0.47000000000E+01 0.  1.
         -5    1    4    4    0  503 -0.36790618807E+02 -0.14409216548E+02  0.25835220431E+03  0.26139840594E+03  0.47000000000E+01 0.  1.
          5    1    4    4  503    0  0.48831451750E+02 -0.62464088654E+02  0.49354596726E+03  0.49989597403E+03  0.47000000000E+01 0. -1.
         -5    1    3    3    0  502 -0.39793968472E+02  0.10067890194E+03  0.36964208059E+03  0.38519755836E+03  0.47000000000E+01 0.  1.
<mgrwt>
<rscale>  0 0.13967481E+03</rscale>
<asrwt>0</asrwt>
<pdfrwt beam="1">  1        3 0.18795335E+00 0.14723678E+03</pdfrwt>
<pdfrwt beam="2">  1       -3 0.25155044E-02 0.14723678E+03</pdfrwt>
<totfact> 0.30242526E+02</totfact>
</mgrwt>
</event>
<event>
 8    1  0.3520338E-004  0.1288539E+03  0.7546771E-02  0.1245261E+00
         -1   -1    0    0    0  501 -0.00000000000E+00  0.00000000000E+00  0.64660962909E+03  0.64660962909E+03  0.00000000000E+00 0.  1.
          1   -1    0    0  501    0  0.00000000000E+00 -0.00000000000E+00 -0.19255569172E+02  0.19255569172E+02  0.00000000000E+00 0. -1.
         25    2    1    2    0    0  0.23814514482E+02 -0.20263312199E+02  0.32563806894E+03  0.35020492811E+03  0.12500242720E+03 0.  0.
         23    2    1    2    0    0 -0.23814514482E+02  0.20263312199E+02  0.30171599097E+03  0.31566027015E+03  0.87356362222E+02 0.  0.
          5    1    3    3  502    0  0.70245224222E+02 -0.22946245242E+02  0.25473848623E+03  0.26528231766E+03  0.47000000000E+01 0. -1.
         -5    1    3    3    0  502 -0.46430709740E+02  0.26829330435E+01  0.70899582714E+02  0.84922610451E+02  0.47000000000E+01 0. -1.
          5    1    4    4  503    0  0.74029751850E+01  0.33442774183E+02  0.45369974544E+02  0.57041631961E+02  0.47000000000E+01 0. -1.
         -5    1    4    4    0  503 -0.31217489667E+02 -0.13179461985E+02  0.25634601643E+03  0.25861863819E+03  0.47000000000E+01 0.  1.
<mgrwt>
<rscale>  0 0.11869749E+03</rscale>
<asrwt>0</asrwt>
<pdfrwt beam="1">  1        1 0.29623958E-02 0.12885395E+03</pdfrwt>
<pdfrwt beam="2">  1       -1 0.99478388E-01 0.12885395E+03</pdfrwt>
<totfact> 0.33899518E+03</totfact>
</mgrwt>
</event>
<event>
 8    1  0.3520338E-004  0.2282859E+03  0.7546771E-02  0.1130884E+00
          1   -1    0    0  501    0  0.00000000000E+00  0.00000000000E+00  0.99718221804E+02  0.99718221804E+02  0.00000000000E+00 0. -1.
         -1   -1    0    0    0  501 -0.00000000000E+00 -0.00000000000E+00 -0.83019195497E+03  0.83019195497E+03  0.00000000000E+00 0.  1.
         25    2    1    2    0    0 -0.16221732693E+03 -0.10086723767E+03 -0.73831923284E+02  0.23992836789E+03  0.12500323208E+03 0.  0.
         23    2    1    2    0    0  0.16221732693E+03  0.10086723767E+03 -0.65664180988E+03  0.68998180889E+03  0.91693889192E+02 0.  0.
          5    1    4    4  502    0  0.45972322768E+02 -0.29624922007E+01 -0.25424976736E+03  0.25843232194E+03  0.47000000000E+01 0. -1.
         -5    1    4    4    0  502  0.11624500416E+03  0.10382972987E+03 -0.40239204253E+03  0.43154948695E+03  0.47000000000E+01 0.  1.
          5    1    3    3  503    0 -0.70853464691E+02 -0.11494637049E+03 -0.35144579063E+02  0.13960699476E+03  0.47000000000E+01 0.  1.
         -5    1    3    3    0  503 -0.91363862240E+02  0.14079132823E+02 -0.38687344221E+02  0.10032137313E+03  0.47000000000E+01 0.  1.
<mgrwt>
<rscale>  0 0.22407110E+03</rscale>
<asrwt>0</asrwt>
<pdfrwt beam="1">  1        1 0.15341265E-01 0.22828594E+03</pdfrwt>
<pdfrwt beam="2">  1       -1 0.12772184E+00 0.22828594E+03</pdfrwt>
<totfact> 0.20707157E+02</totfact>
</mgrwt>
</event>
<event>
 8    1  0.3520338E-004  0.2145676E+03  0.7546771E-02  0.1141547E+00
          1   -1    0    0  501    0  0.00000000000E+00  0.00000000000E+00  0.13806959369E+04  0.13806959369E+04  0.00000000000E+00 0. -1.
         -1   -1    0    0    0  501 -0.00000000000E+00 -0.00000000000E+00 -0.31203604231E+02  0.31203604231E+02  0.00000000000E+00 0.  1.
         25    2    1    2    0    0  0.12358743437E+03  0.12304273923E+03  0.61044883797E+03  0.64706028988E+03  0.12500346138E+03 0.  0.
         23    2    1    2    0    0 -0.12358743437E+03 -0.12304273923E+03  0.73904349465E+03  0.76483925120E+03  0.91544653451E+02 0.  0.
          5    1    3    3  502    0  0.60621052520E+02  0.88046268635E+02  0.52217756006E+03  0.53302772129E+03  0.47000000000E+01 0. -1.
         -5    1    3    3    0  502  0.62966381849E+02  0.34996470597E+02  0.88271277908E+02  0.11403256860E+03  0.47000000000E+01 0. -1.
          5    1    4    4  503    0 -0.72238315760E+02 -0.45070117860E+02  0.51599471372E+03  0.52299361791E+03  0.47000000000E+01 0. -1.
         -5    1    4    4    0  503 -0.51349118609E+02 -0.77972621372E+02  0.22304878093E+03  0.24184563329E+03  0.47000000000E+01 0.  1.
<mgrwt>
<rscale>  0 0.21002371E+03</rscale>
<asrwt>0</asrwt>
<pdfrwt beam="1">  1        1 0.21241471E+00 0.21456755E+03</pdfrwt>
<pdfrwt beam="2">  1       -1 0.48005556E-02 0.21456755E+03</pdfrwt>
<totfact> 0.16110640E+03</totfact>
</mgrwt>
</event>
<event>
 8    1  0.3520338E-004  0.1691167E+03  0.7546771E-02  0.1185425E+00
         -2   -1    0    0    0  501 -0.00000000000E+00  0.00000000000E+00  0.36206176733E+02  0.36206176733E+02  0.00000000000E+00 0.  1.
          2   -1    0    0  501    0  0.00000000000E+00 -0.00000000000E+00 -0.89154818144E+03  0.89154818144E+03  0.00000000000E+00 0. -1.
         25    2    1    2    0    0 -0.37311042974E+01 -0.11384043325E+03 -0.67522723722E+03  0.69608354148E+03  0.12500763757E+03 0.  0.
         23    2    1    2    0    0  0.37311042974E+01  0.11384043325E+03 -0.18011476749E+03  0.23167081670E+03  0.90865133353E+02 0.  0.
          5    1    3    3  502    0  0.51537807614E+02 -0.98602600535E+02 -0.42755186655E+03  0.44181591985E+03  0.47000000000E+01 0. -1.
         -5    1    3    3    0  502 -0.55268911911E+02 -0.15237832717E+02 -0.24767537067E+03  0.25426762163E+03  0.47000000000E+01 0. -1.
          5    1    4    4  503    0 -0.14639519504E+02  0.50062702292E+02 -0.14954001529E+03  0.15844524563E+03  0.47000000000E+01 0. -1.
         -5    1    4    4    0  503  0.18370623801E+02  0.63777730960E+02 -0.30574752201E+02  0.73225571062E+02  0.47000000000E+01 0.  1.
<mgrwt>
<rscale>  0 0.16293291E+03</rscale>
<asrwt>0</asrwt>
<pdfrwt beam="1">  1        2 0.13716125E+00 0.16911675E+03</pdfrwt>
<pdfrwt beam="2">  1       -2 0.55701813E-02 0.16911675E+03</pdfrwt>
<totfact> 0.50146711E+03</totfact>
</mgrwt>
</event>
<event>
 8    1  0.3520338E-004  0.1853254E+03  0.7546771E-02  0.1168344E+00
         -4   -1    0    0    0  501 -0.00000000000E+00  0.00000000000E+00  0.14563860536E+03  0.14563860536E+03  0.00000000000E+00 0.  1.
          4   -1    0    0  501    0  0.00000000000E+00 -0.00000000000E+00 -0.21485975929E+03  0.21485975929E+03  0.00000000000E+00 0. -1.
         25    2    1    2    0    0 -0.10915426085E+03  0.82496408496E+02 -0.49650282960E+01  0.18539190480E+03  0.12500078713E+03 0.  0.
         23    2    1    2    0    0  0.10915426085E+03 -0.82496408496E+02 -0.64256125630E+02  0.17510645985E+03  0.88391812539E+02 0.  0.
          5    1    4    4  502    0  0.14519144147E+02 -0.25328629115E+02 -0.56991449546E+02  0.64206388475E+02  0.47000000000E+01 0. -1.
         -5    1    3    3    0  503 -0.63604428630E+02 -0.14095792070E+02  0.31408464600E+02  0.72476177768E+02  0.47000000000E+01 0. -1.
          5    1    3    3  503    0 -0.45549832215E+02  0.96592200566E+02 -0.36373492895E+02  0.11291572703E+03  0.47000000000E+01 0. -1.
         -5    1    4    4    0  502  0.94635116698E+02 -0.57167779381E+02 -0.72646760834E+01  0.11090007137E+03  0.47000000000E+01 0.  1.
<mgrwt>
<rscale>  0 0.17944253E+03</rscale>
<asrwt>0</asrwt>
<pdfrwt beam="1">  1        4 0.33055347E-01 0.18532541E+03</pdfrwt>
<pdfrwt beam="2">  1       -4 0.22405939E-01 0.18532541E+03</pdfrwt>
<totfact> 0.28454502E+02</totfact>
</mgrwt>
</event>
<event>
 8    1  0.3520338E-004  0.1430581E+03  0.7546771E-02  0.1220407E+00
          2   -1    0    0  501    0  0.00000000000E+00  0.00000000000E+00  0.30416748281E+03  0.30416748281E+03  0.00000000000E+00 0. -1.
         -2   -1    0    0    0  501 -0.00000000000E+00 -0.00000000000E+00 -0.66759165007E+02  0.66759165007E+02  0.00000000000E+00 0.  1.
         25    2    1    2    0    0  0.22493492704E+02  0.65840966582E+02  0.21092443522E+03  0.25486217917E+03  0.12499849160E+03 0.  0.
         23    2    1    2    0    0 -0.22493492704E+02 -0.65840966582E+02  0.26483882582E+02  0.11606446865E+03  0.89042544619E+02 0.  0.
          5    1    4    4  502    0  0.12502656350E+01 -0.81823921070E+02  0.29007210300E+02  0.86949557059E+02  0.47000000000E+01 0. -1.
         -5    1    3    3    0  503  0.38263389039E+02  0.86316292250E+02  0.87970695557E+02  0.12913373891E+03  0.47000000000E+01 0.  1.
          5    1    3    3  503    0 -0.15769896335E+02 -0.20475325668E+02  0.12295373967E+03  0.12572844026E+03  0.47000000000E+01 0.  1.
         -5    1    4    4    0  502 -0.23743758339E+02  0.15982954488E+02 -0.25233277177E+01  0.29114911592E+02  0.47000000000E+01 0.  1.
<mgrwt>
<rscale>  0 0.13486719E+03</rscale>
<asrwt>0</asrwt>
<pdfrwt beam="1">  1        2 0.46794997E-01 0.14305808E+03</pdfrwt>
<pdfrwt beam="2">  1       -2 0.10270641E-01 0.14305808E+03</pdfrwt>
<totfact> 0.65541211E+03</totfact>
</mgrwt>
</event>
<event>
 8    1  0.3520338E-004  0.1788746E+03  0.7546771E-02  0.1175255E+00
          2   -1    0    0  501    0  0.00000000000E+00  0.00000000000E+00  0.78607132104E+03  0.78607132104E+03  0.00000000000E+00 0. -1.
         -2   -1    0    0    0  501 -0.00000000000E+00 -0.00000000000E+00 -0.36284777769E+02  0.36284777769E+02  0.00000000000E+00 0.  1.
         25    2    1    2    0    0  0.10502042299E+03 -0.73094458786E+02  0.46545399803E+03  0.49864171910E+03  0.12499620234E+03 0.  0.
         23    2    1    2    0    0 -0.10502042299E+03  0.73094458786E+02  0.28433254525E+03  0.32371437971E+03  0.87028237921E+02 0.  0.
          5    1    3    3  502    0  0.31040964515E+02 -0.74985552021E+02  0.36406054830E+03  0.37302620192E+03  0.47000000000E+01 0. -1.
         -5    1    3    3    0  502  0.73979458471E+02  0.18910932351E+01  0.10139344973E+03  0.12561551719E+03  0.47000000000E+01 0. -1.
          5    1    4    4  503    0 -0.89678644577E+02  0.26020788948E+02  0.23814954283E+03  0.25584494426E+03  0.47000000000E+01 0. -1.
         -5    1    4    4    0  503 -0.15341778409E+02  0.47073669838E+02  0.46183002414E+02  0.67869435453E+02  0.47000000000E+01 0.  1.
<mgrwt>
<rscale>  0 0.17251058E+03</rscale>
<asrwt>0</asrwt>
<pdfrwt beam="1">  1        2 0.12093404E+00 0.17887465E+03</pdfrwt>
<pdfrwt beam="2">  1       -2 0.55822741E-02 0.17887465E+03</pdfrwt>
<totfact> 0.58853567E+03</totfact>
</mgrwt>
</event>
<event>
 8    1  0.3520338E-004  0.2085409E+03  0.7546771E-02  0.1146672E+00
         -2   -1    0    0    0  501 -0.00000000000E+00  0.00000000000E+00  0.12087320447E+03  0.12087320447E+03  0.00000000000E+00 0. -1.
          2   -1    0    0  501    0  0.00000000000E+00 -0.00000000000E+00 -0.40604072021E+03  0.40604072021E+03  0.00000000000E+00 0.  1.
         25    2    1    2    0    0 -0.15655851339E+03  0.57913012383E+02 -0.26332385237E+03  0.33589994749E+03  0.12499935349E+03 0.  0.
         23    2    1    2    0    0  0.15655851339E+03 -0.57913012383E+02 -0.21843663370E+02  0.19101397720E+03  0.90248040066E+02 0.  0.
          5    1    4    4  502    0  0.12390789941E+03 -0.34797642996E+01 -0.27685963803E+02  0.12709791064E+03  0.47000000000E+01 0. -1.
         -5    1    4    4    0  502  0.32650613982E+02 -0.54433248083E+02  0.58423004328E+01  0.63916066561E+02  0.47000000000E+01 0.  1.
          5    1    3    3  503    0 -0.78485631214E+02  0.12618119170E+02 -0.28998954452E+02  0.84748100851E+02  0.47000000000E+01 0.  1.
         -5    1    3    3    0  503 -0.78072882180E+02  0.45294893212E+02 -0.23432489792E+03  0.25115184664E+03  0.47000000000E+01 0.  1.
<mgrwt>
<rscale>  0 0.20367849E+03</rscale>
<asrwt>0</asrwt>
<pdfrwt beam="1">  1        2 0.62467804E-01 0.20854094E+03</pdfrwt>
<pdfrwt beam="2">  1       -2 0.18595877E-01 0.20854094E+03</pdfrwt>
<totfact> 0.18565732E+03</totfact>
</mgrwt>
</event>
<event>
 8    1  0.3520338E-004  0.1447009E+03  0.7546771E-02  0.1217109E+00
          2   -1    0    0  501    0  0.00000000000E+00  0.00000000000E+00  0.41142381366E+03  0.41142381366E+03  0.00000000000E+00 0. -1.
         -2   -1    0    0    0  501 -0.00000000000E+00 -0.00000000000E+00 -0.53551969035E+02  0.53551969035E+02  0.00000000000E+00 0.  1.
         25    2    1    2    0    0  0.50834945719E+02 -0.52234402383E+02  0.30284848136E+03  0.33564200574E+03  0.12500291539E+03 0.  0.
         23    2    1    2    0    0 -0.50834945719E+02  0.52234402383E+02  0.55023363266E+02  0.12933377696E+03  0.91580734100E+02 0.  0.
          5    1    4    4  502    0 -0.37597468465E+02  0.77439024918E+02  0.51087849364E+02  0.10021192827E+03  0.47000000000E+01 0. -1.
         -5    1    3    3    0  503  0.90298240505E+02 -0.19684443877E+02  0.17745939480E+03  0.20013789340E+03  0.47000000000E+01 0.  1.
          5    1    3    3  503    0 -0.39463294787E+02 -0.32549958506E+02  0.12538908656E+03  0.13550411234E+03  0.47000000000E+01 0.  1.
         -5    1    4    4    0  502 -0.13237477254E+02 -0.25204622535E+02  0.39355139022E+01  0.29121848685E+02  0.47000000000E+01 0.  1.
<mgrwt>
<rscale>  0 0.13722782E+03</rscale>
<asrwt>0</asrwt>
<pdfrwt beam="1">  1        2 0.63295969E-01 0.14470091E+03</pdfrwt>
<pdfrwt beam="2">  1       -2 0.82387647E-02 0.14470091E+03</pdfrwt>
<totfact> 0.67094311E+03</totfact>
</mgrwt>
</event>
<event>
 8    1  0.3520338E-004  0.1265625E+03  0.7546771E-02  0.1247334E+00
         -1   -1    0    0    0  501 -0.00000000000E+00  0.00000000000E+00  0.17666978029E+02  0.17666978029E+02  0.00000000000E+00 0.  1.
          1   -1    0    0  501    0  0.00000000000E+00 -0.00000000000E+00 -0.77936671609E+03  0.77936671609E+03  0.00000000000E+00 0. -1.
         25    2    1    2    0    0  0.94520019817E+01  0.17446744751E+02 -0.56581721153E+03  0.57979925766E+03  0.12499733227E+03 0.  0.
         23    2    1    2    0    0 -0.94520019817E+01 -0.17446744751E+02 -0.19588252653E+03  0.21723443646E+03  0.91799275269E+02 0.  0.
          5    1    4    4  502    0  0.35357095074E+02 -0.30163487891E+02 -0.10774436257E+03  0.11743465349E+03  0.47000000000E+01 0. -1.
         -5    1    4    4    0  502 -0.44809097056E+02  0.12716743140E+02 -0.88138163960E+02  0.99799782972E+02  0.47000000000E+01 0.  1.
          5    1    3    3  503    0  0.34432073723E+01 -0.53812795336E+02 -0.27553090486E+03  0.28079715481E+03  0.47000000000E+01 0.  1.
         -5    1    3    3    0  503  0.60087946094E+01  0.71259540087E+02 -0.29028630667E+03  0.29900210285E+03  0.47000000000E+01 0.  1.
<mgrwt>
<rscale>  0 0.11746743E+03</rscale>
<asrwt>0</asrwt>
<pdfrwt beam="1">  1        1 0.11990261E+00 0.12656248E+03</pdfrwt>
<pdfrwt beam="2">  1       -1 0.27179959E-02 0.12656248E+03</pdfrwt>
<totfact> 0.10006290E+04</totfact>
</mgrwt>
</event>
<event>
 8    1  0.3520338E-004  0.2405838E+03  0.7546771E-02  0.1122213E+00
          2   -1    0    0  501    0  0.00000000000E+00  0.00000000000E+00  0.83034027085E+03  0.83034027085E+03  0.00000000000E+00 0. -1.
         -2   -1    0    0    0  501 -0.00000000000E+00 -0.00000000000E+00 -0.96763776886E+02  0.96763776886E+02  0.00000000000E+00 0.  1.
         25    2    1    2    0    0  0.53086491812E+02  0.19858570265E+03  0.64064033223E+03  0.68432490787E+03  0.12500434930E+03 0.  0.
         23    2    1    2    0    0 -0.53086491812E+02 -0.19858570265E+03  0.92936161737E+02  0.24277913987E+03  0.89722481510E+02 0.  0.
          5    1    3    3  502    0  0.53894981182E+02  0.11715775093E+03  0.53779237395E+03  0.55305816609E+03  0.47000000000E+01 0.  1.
         -5    1    4    4    0  503 -0.66157535374E+02 -0.94483494927E+02  0.26294204672E+02  0.11839520894E+03  0.47000000000E+01 0.  1.
          5    1    4    4  503    0  0.13071043562E+02 -0.10410220772E+03  0.66641957066E+02  0.12438393093E+03  0.47000000000E+01 0. -1.
         -5    1    3    3    0  502 -0.80848936986E+00  0.81427951715E+02  0.10284795828E+03  0.13126674178E+03  0.47000000000E+01 0.  1.
<mgrwt>
<rscale>  0 0.23640174E+03</rscale>
<asrwt>0</asrwt>
<pdfrwt beam="1">  1        2 0.12774465E+00 0.24058376E+03</pdfrwt>
<pdfrwt beam="2">  1       -2 0.14886735E-01 0.24058376E+03</pdfrwt>
<totfact> 0.11735204E+03</totfact>
</mgrwt>
</event>
<event>
 8    1  0.3520338E-004  0.1315423E+03  0.7546771E-02  0.1238506E+00
         -2   -1    0    0    0  501 -0.00000000000E+00  0.00000000000E+00  0.36110873774E+03  0.36110873774E+03  0.00000000000E+00 0. -1.
          2   -1    0    0  501    0  0.00000000000E+00 -0.00000000000E+00 -0.41596285248E+02  0.41596285248E+02  0.00000000000E+00 0.  1.
         25    2    1    2    0    0 -0.27671916753E+02  0.30259229833E+02  0.11362970676E+03  0.17382488208E+03  0.12498809305E+03 0.  0.
         23    2    1    2    0    0  0.27671916753E+02 -0.30259229833E+02  0.20588274573E+03  0.22888014091E+03  0.91197905377E+02 0.  0.
          5    1    4    4  502    0  0.44608084585E+02 -0.18600574358E+01  0.18292272717E+03  0.18835114850E+03  0.47000000000E+01 0. -1.
         -5    1    3    3    0  503  0.18932350337E+02 -0.28945684024E+02  0.87052577741E+02  0.93789806505E+02  0.47000000000E+01 0.  1.
          5    1    3    3  503    0 -0.46604267090E+02  0.59204913857E+02  0.26577129022E+02  0.80035075578E+02  0.47000000000E+01 0.  1.
         -5    1    4    4    0  502 -0.16936167832E+02 -0.28399172397E+02  0.22960018563E+02  0.40528992414E+02  0.47000000000E+01 0.  1.
<mgrwt>
<rscale>  0 0.12282605E+03</rscale>
<asrwt>0</asrwt>
<pdfrwt beam="1">  1        2 0.63994287E-02 0.13154231E+03</pdfrwt>
<pdfrwt beam="2">  1       -2 0.55555188E-01 0.13154231E+03</pdfrwt>
<totfact> 0.33565325E+03</totfact>
</mgrwt>
</event>
<event>
 8    1  0.3520338E-004  0.2246459E+03  0.7546771E-02  0.1134294E+00
         -1   -1    0    0    0  501 -0.00000000000E+00  0.00000000000E+00  0.69965710879E+02  0.69965710879E+02  0.00000000000E+00 0.  1.
          1   -1    0    0  501    0  0.00000000000E+00 -0.00000000000E+00 -0.73446822034E+03  0.73446822034E+03  0.00000000000E+00 0. -1.
         25    2    1    2    0    0  0.14010788428E+03  0.12333788974E+03 -0.21675514837E+03  0.31216756648E+03  0.12499336355E+03 0.  0.
         23    2    1    2    0    0 -0.14010788428E+03 -0.12333788974E+03 -0.44774736110E+03  0.49226636475E+03  0.83701972548E+02 0.  0.
          5    1    3    3  502    0  0.21125805956E+02  0.69458721325E+01  0.14679081549E+02  0.27057535958E+02  0.47000000000E+01 0.  1.
         -5    1    4    4    0  503 -0.11383838365E+03 -0.11199531399E+03 -0.28295866444E+03  0.32494587815E+03  0.47000000000E+01 0.  1.
          5    1    4    4  503    0 -0.26269500628E+02 -0.11342575758E+02 -0.16478869666E+03  0.16732048660E+03  0.47000000000E+01 0. -1.
         -5    1    3    3    0  502  0.11898207832E+03  0.11639201761E+03 -0.23143422992E+03  0.28511003052E+03  0.47000000000E+01 0.  1.
<mgrwt>
<rscale>  0 0.21944914E+03</rscale>
<asrwt>0</asrwt>
<pdfrwt beam="1">  1        1 0.11299511E+00 0.22464593E+03</pdfrwt>
<pdfrwt beam="2">  1       -1 0.10763955E-01 0.22464593E+03</pdfrwt>
<totfact> 0.14249223E+03</totfact>
</mgrwt>
</event>
<event>
 8    1  0.3520338E-004  0.1303133E+03  0.7546771E-02  0.1241024E+00
          1   -1    0    0  501    0  0.00000000000E+00  0.00000000000E+00  0.88665594575E+02  0.88665594575E+02  0.00000000000E+00 0. -1.
         -1   -1    0    0    0  501 -0.00000000000E+00 -0.00000000000E+00 -0.19712624951E+03  0.19712624951E+03  0.00000000000E+00 0.  1.
         25    2    1    2    0    0  0.15404776912E+02  0.33503027743E+02 -0.13177734654E+03  0.18532898208E+03  0.12498720942E+03 0.  0.
         23    2    1    2    0    0 -0.15404776912E+02 -0.33503027743E+02  0.23316691599E+02  0.10046286201E+03  0.90495074544E+02 0.  0.
          5    1    4    4  502    0  0.37005308755E+02 -0.44107584278E+01  0.77551754651E+01  0.38354666111E+02  0.47000000000E+01 0. -1.
         -5    1    3    3    0  503  0.50731475782E+02 -0.17874323750E+02 -0.10343176813E+03  0.11667645325E+03  0.47000000000E+01 0.  1.
          5    1    3    3  503    0 -0.35326698870E+02  0.51377351493E+02 -0.28345578411E+02  0.68652528831E+02  0.47000000000E+01 0.  1.
         -5    1    4    4    0  502 -0.52410085668E+02 -0.29092269315E+02  0.15561516133E+02  0.62108195900E+02  0.47000000000E+01 0.  1.
<mgrwt>
<rscale>  0 0.12126543E+03</rscale>
<asrwt>0</asrwt>
<pdfrwt beam="1">  1        1 0.13640861E-01 0.13031332E+03</pdfrwt>
<pdfrwt beam="2">  1       -1 0.30327115E-01 0.13031332E+03</pdfrwt>
<totfact> 0.40539875E+03</totfact>
</mgrwt>
</event>
<event>
 8    1  0.3520338E-004  0.1625360E+03  0.7546771E-02  0.1193126E+00
          2   -1    0    0  501    0  0.00000000000E+00  0.00000000000E+00  0.43442506605E+03  0.43442506605E+03  0.00000000000E+00 0. -1.
         -2   -1    0    0    0  501 -0.00000000000E+00 -0.00000000000E+00 -0.52917597099E+02  0.52917597099E+02  0.00000000000E+00 0.  1.
         25    2    1    2    0    0 -0.22460801837E+02 -0.10144067491E+03  0.23556526192E+03  0.28619736890E+03  0.12499297259E+03 0.  0.
         23    2    1    2    0    0  0.22460801837E+02  0.10144067491E+03  0.14594220704E+03  0.20114529425E+03  0.91463672898E+02 0.  0.
          5    1    4    4  502    0  0.58363977199E+01  0.41746857581E+02  0.13034812218E+03  0.13707511303E+03  0.47000000000E+01 0. -1.
         -5    1    4    4    0  502  0.16624404117E+02  0.59693817330E+02  0.15594084858E+02  0.64070181225E+02  0.47000000000E+01 0.  1.
          5    1    3    3  503    0 -0.59931822713E+02 -0.94946292711E+02  0.11981446634E+03  0.16426873780E+03  0.47000000000E+01 0.  1.
         -5    1    3    3    0  503  0.37471020876E+02 -0.64943821998E+01  0.11575079558E+03  0.12192863110E+03  0.47000000000E+01 0.  1.
<mgrwt>
<rscale>  0 0.15613936E+03</rscale>
<asrwt>0</asrwt>
<pdfrwt beam="1">  1        2 0.66834623E-01 0.16253597E+03</pdfrwt>
<pdfrwt beam="2">  1       -2 0.81411691E-02 0.16253597E+03</pdfrwt>
<totfact> 0.64887953E+03</totfact>
</mgrwt>
</event>
<event>
 8    1  0.3520338E-004  0.2144923E+03  0.7546771E-02  0.1141674E+00
         -2   -1    0    0    0  501 -0.00000000000E+00  0.00000000000E+00  0.12167506391E+03  0.12167506391E+03  0.00000000000E+00 0.  1.
          2   -1    0    0  501    0  0.00000000000E+00 -0.00000000000E+00 -0.35778495170E+03  0.35778495170E+03  0.00000000000E+00 0. -1.
         25    2    1    2    0    0  0.17422847845E+03 -0.53828571990E+01 -0.81806670737E+02  0.22956318849E+03  0.12498955268E+03 0.  0.
         23    2    1    2    0    0 -0.17422847845E+03  0.53828571990E+01 -0.15430321706E+03  0.24989682712E+03  0.90853748155E+02 0.  0.
          5    1    3    3  502    0  0.10904509895E+02 -0.18254756372E+02 -0.60483109262E+02  0.64284064683E+02  0.47000000000E+01 0.  1.
         -5    1    4    4    0  503 -0.11976823412E+03  0.69620653801E+01 -0.46004571450E+02  0.12857453423E+03  0.47000000000E+01 0.  1.
          5    1    4    4  503    0 -0.54460244335E+02 -0.15792081811E+01 -0.10829864561E+03  0.12132229289E+03  0.47000000000E+01 0. -1.
         -5    1    3    3    0  502  0.16332396856E+03  0.12871899173E+02 -0.21323561476E+02  0.16527912381E+03  0.47000000000E+01 0.  1.
<mgrwt>
<rscale>  0 0.20986347E+03</rscale>
<asrwt>0</asrwt>
<pdfrwt beam="1">  1        2 0.55043838E-01 0.21449225E+03</pdfrwt>
<pdfrwt beam="2">  1       -2 0.18719241E-01 0.21449225E+03</pdfrwt>
<totfact> 0.21067745E+03</totfact>
</mgrwt>
</event>
<event>
 8    1  0.3520338E-004  0.1299551E+03  0.7546771E-02  0.1241465E+00
         -2   -1    0    0    0  501 -0.00000000000E+00  0.00000000000E+00  0.52611311165E+02  0.52611311165E+02  0.00000000000E+00 0.  1.
          2   -1    0    0  501    0  0.00000000000E+00 -0.00000000000E+00 -0.26528441433E+03  0.26528441433E+03  0.00000000000E+00 0. -1.
         25    2    1    2    0    0  0.30850237706E+02  0.17663409055E+02 -0.16260459692E+03  0.20815521917E+03  0.12499842857E+03 0.  0.
         23    2    1    2    0    0 -0.30850237706E+02 -0.17663409055E+02 -0.50068506249E+02  0.10974050632E+03  0.90952681238E+02 0.  0.
          5    1    3    3  502    0  0.78127509465E+02  0.22390602734E+02 -0.11338221239E+03  0.13958102634E+03  0.47000000000E+01 0. -1.
         -5    1    3    3    0  502 -0.47277271758E+02 -0.47271936788E+01 -0.49222384525E+02  0.68574192837E+02  0.47000000000E+01 0. -1.
          5    1    4    4  503    0 -0.54105139227E+02 -0.35413919486E+02 -0.46734360737E+02  0.79923102152E+02  0.47000000000E+01 0. -1.
         -5    1    4    4    0  503  0.23254901521E+02  0.17750510431E+02 -0.33341455125E+01  0.29817404173E+02  0.47000000000E+01 0.  1.
<mgrwt>
<rscale>  0 0.12099477E+03</rscale>
<asrwt>0</asrwt>
<pdfrwt beam="1">  1        2 0.40812987E-01 0.12995515E+03</pdfrwt>
<pdfrwt beam="2">  1       -2 0.80940479E-02 0.12995515E+03</pdfrwt>
<totfact> 0.10911878E+04</totfact>
</mgrwt>
</event>
<event>
 8    1  0.3520338E-004  0.1420852E+03  0.7546771E-02  0.1221363E+00
          2   -1    0    0  501    0  0.00000000000E+00  0.00000000000E+00  0.18907242421E+02  0.18907242421E+02  0.00000000000E+00 0.  1.
         -2   -1    0    0    0  501 -0.00000000000E+00 -0.00000000000E+00 -0.10691860573E+04  0.10691860573E+04  0.00000000000E+00 0. -1.
         25    2    1    2    0    0 -0.33910551290E+02 -0.58406612264E+02 -0.81222774512E+03  0.82456176374E+03  0.12500773752E+03 0.  0.
         23    2    1    2    0    0  0.33910551290E+02  0.58406612264E+02 -0.23805106981E+03  0.26353153603E+03  0.90660359581E+02 0.  0.
          5    1    4    4  502    0 -0.13106988426E+02 -0.16080269053E+02 -0.24301056160E+02  0.32295503231E+02  0.47000000000E+01 0. -1.
         -5    1    3    3    0  503 -0.73945491448E+02 -0.65813772509E+02 -0.50704220802E+03  0.51663650574E+03  0.47000000000E+01 0. -1.
          5    1    3    3  503    0  0.40034940158E+02  0.74071602450E+01 -0.30518553710E+03  0.30792525800E+03  0.47000000000E+01 0. -1.
         -5    1    4    4    0  502  0.47017539715E+02  0.74486881317E+02 -0.21375001365E+03  0.23123603280E+03  0.47000000000E+01 0.  1.
<mgrwt>
<rscale>  0 0.13419313E+03</rscale>
<asrwt>0</asrwt>
<pdfrwt beam="1">  1        2 0.29088067E-02 0.14208516E+03</pdfrwt>
<pdfrwt beam="2">  1       -2 0.16449015E+00 0.14208516E+03</pdfrwt>
<totfact> 0.79132580E+02</totfact>
</mgrwt>
</event>
<event>
 8    1  0.3520338E-004  0.2330068E+03  0.7546771E-02  0.1127424E+00
          2   -1    0    0  501    0  0.00000000000E+00  0.00000000000E+00  0.71102992253E+03  0.71102992253E+03  0.00000000000E+00 0. -1.
         -2   -1    0    0    0  501 -0.00000000000E+00 -0.00000000000E+00 -0.77238573535E+02  0.77238573535E+02  0.00000000000E+00 0.  1.
         25    2    1    2    0    0  0.13460183321E+03 -0.14334193979E+03  0.43752335646E+03  0.49570035603E+03  0.12501036082E+03 0.  0.
         23    2    1    2    0    0 -0.13460183321E+03  0.14334193979E+03  0.19626799253E+03  0.29256814003E+03  0.91708377283E+02 0.  0.
          5    1    3    3  502    0  0.83082227442E+02 -0.89313190217E+01  0.11267928552E+03  0.14036073654E+03  0.47000000000E+01 0.  1.
         -5    1    4    4    0  503 -0.61619951649E+02  0.12361019005E+03  0.14928646704E+03  0.20343312603E+03  0.47000000000E+01 0.  1.
          5    1    4    4  503    0 -0.72981881559E+02  0.19731749743E+02  0.46981525494E+02  0.89135014004E+02  0.47000000000E+01 0. -1.
         -5    1    3    3    0  502  0.51519605766E+02 -0.13441062077E+03  0.32484407094E+03  0.35533961949E+03  0.47000000000E+01 0.  1.
<mgrwt>
<rscale>  0 0.22888914E+03</rscale>
<asrwt>0</asrwt>
<pdfrwt beam="1">  1        2 0.10938921E+00 0.23300677E+03</pdfrwt>
<pdfrwt beam="2">  1       -2 0.11882858E-01 0.23300677E+03</pdfrwt>
<totfact> 0.20596352E+03</totfact>
</mgrwt>
</event>
<event>
 8    1  0.3520338E-004  0.2202949E+03  0.7546771E-02  0.1137063E+00
          2   -1    0    0  501    0  0.00000000000E+00  0.00000000000E+00  0.16444765944E+03  0.16444765944E+03  0.00000000000E+00 0. -1.
         -2   -1    0    0    0  501 -0.00000000000E+00 -0.00000000000E+00 -0.27226577308E+03  0.27226577308E+03  0.00000000000E+00 0.  1.
         25    2    1    2    0    0  0.59448526343E+02 -0.17138630772E+03 -0.51635785370E+02  0.22626550653E+03  0.12498972499E+03 0.  0.
         23    2    1    2    0    0 -0.59448526343E+02  0.17138630772E+03 -0.56182328268E+02  0.21044792599E+03  0.90688928670E+02 0.  0.
          5    1    4    4  502    0 -0.67208286772E+02  0.92868894146E+02 -0.22391602559E+01  0.11475490904E+03  0.47000000000E+01 0. -1.
         -5    1    3    3    0  503  0.66337997373E+02 -0.95423904237E+02 -0.83797430533E+02  0.14335463285E+03  0.47000000000E+01 0. -1.
          5    1    3    3  503    0 -0.68894710293E+01 -0.75962403487E+02  0.32161645163E+02  0.82910873679E+02  0.47000000000E+01 0. -1.
         -5    1    4    4    0  502  0.77597604290E+01  0.78517413578E+02 -0.53943168012E+02  0.95693016945E+02  0.47000000000E+01 0.  1.
<mgrwt>
<rscale>  0 0.21578715E+03</rscale>
<asrwt>0</asrwt>
<pdfrwt beam="1">  1        2 0.25299640E-01 0.22029486E+03</pdfrwt>
<pdfrwt beam="2">  1       -2 0.41887042E-01 0.22029486E+03</pdfrwt>
<totfact> 0.11513098E+03</totfact>
</mgrwt>
</event>
<event>
 8    1  0.3520338E-004  0.1996713E+03  0.7546771E-02  0.1154157E+00
         -3   -1    0    0    0  501 -0.00000000000E+00  0.00000000000E+00  0.26761028722E+02  0.26761028722E+02  0.00000000000E+00 0.  1.
          3   -1    0    0  501    0  0.00000000000E+00 -0.00000000000E+00 -0.13606412592E+04  0.13606412592E+04  0.00000000000E+00 0. -1.
         25    2    1    2    0    0  0.15531181978E+03 -0.11309238000E+02 -0.65210947179E+03  0.68199369566E+03  0.12497590767E+03 0.  0.
         23    2    1    2    0    0 -0.15531181978E+03  0.11309238000E+02 -0.68177075865E+03  0.70540859222E+03  0.92413496859E+02 0.  0.
          5    1    3    3  502    0  0.92446658476E+02 -0.37631893905E+02 -0.18820681597E+03  0.21308786845E+03  0.47000000000E+01 0. -1.
         -5    1    4    4    0  503 -0.96951118986E+02  0.49695881005E+02 -0.36223438662E+03  0.37829226917E+03  0.47000000000E+01 0.  1.
          5    1    4    4  503    0 -0.58360700795E+02 -0.38386643005E+02 -0.31953637203E+03  0.32711632306E+03  0.47000000000E+01 0. -1.
         -5    1    3    3    0  502  0.62865161305E+02  0.26322655905E+02 -0.46390265581E+03  0.46890582721E+03  0.47000000000E+01 0. -1.
<mgrwt>
<rscale>  0 0.19485175E+03</rscale>
<asrwt>0</asrwt>
<pdfrwt beam="1">  1        3 0.20932943E+00 0.19967132E+03</pdfrwt>
<pdfrwt beam="2">  1       -3 0.41170813E-02 0.19967132E+03</pdfrwt>
<totfact> 0.10747108E+02</totfact>
</mgrwt>
</event>
<event>
 8    1  0.3520338E-004  0.1669131E+03  0.7546771E-02  0.1189504E+00
          2   -1    0    0  501    0  0.00000000000E+00  0.00000000000E+00  0.76847944115E+03  0.76847944115E+03  0.00000000000E+00 0. -1.
         -2   -1    0    0    0  501 -0.00000000000E+00 -0.00000000000E+00 -0.33299108209E+02  0.33299108209E+02  0.00000000000E+00 0.  1.
         25    2    1    2    0    0  0.32189583924E+02  0.10582052149E+03  0.27962735989E+03  0.32565542332E+03  0.12500336899E+03 0.  0.
         23    2    1    2    0    0 -0.32189583924E+02 -0.10582052149E+03  0.45555297305E+03  0.47612312603E+03  0.83250031870E+02 0.  0.
          5    1    4    4  502    0  0.25515741382E+02 -0.25372210980E+02  0.17082283093E+03  0.17463485253E+03  0.47000000000E+01 0.  1.
         -5    1    3    3    0  503  0.60663134929E+01  0.12727280368E+03  0.24923642568E+03  0.27995723353E+03  0.47000000000E+01 0. -1.
          5    1    3    3  503    0  0.26123270431E+02 -0.21452282186E+02  0.30390934207E+02  0.45698189800E+02  0.47000000000E+01 0. -1.
         -5    1    4    4    0  502 -0.57705325306E+02 -0.80448310513E+02  0.28473014211E+03  0.30148827350E+03  0.47000000000E+01 0. -1.
<mgrwt>
<rscale>  0 0.15928713E+03</rscale>
<asrwt>0</asrwt>
<pdfrwt beam="1">  1        2 0.11822759E+00 0.16691313E+03</pdfrwt>
<pdfrwt beam="2">  1       -2 0.51229403E-02 0.16691313E+03</pdfrwt>
<totfact> 0.68734517E+03</totfact>
</mgrwt>
</event>
<event>
 8    1  0.3520338E-004  0.1279337E+03  0.7546771E-02  0.1245596E+00
          1   -1    0    0  501    0  0.00000000000E+00  0.00000000000E+00  0.15857407206E+03  0.15857407206E+03  0.00000000000E+00 0. -1.
         -1   -1    0    0    0  501 -0.00000000000E+00 -0.00000000000E+00 -0.81048069553E+02  0.81048069553E+02  0.00000000000E+00 0.  1.
         25    2    1    2    0    0  0.96914621573E+01  0.25426657158E+02  0.20581706019E+02  0.12957868513E+03  0.12500635857E+03 0.  0.
         23    2    1    2    0    0 -0.96914621573E+01 -0.25426657158E+02  0.56944296485E+02  0.11004345648E+03  0.90146936048E+02 0.  0.
          5    1    4    4  502    0 -0.34927215144E+02 -0.21381393238E+02  0.69790774045E+02  0.81055021290E+02  0.47000000000E+01 0. -1.
         -5    1    4    4    0  502  0.25235752987E+02 -0.40452639201E+01 -0.12846477561E+02  0.28988435189E+02  0.47000000000E+01 0.  1.
          5    1    3    3  503    0 -0.54599575818E+02  0.27112952707E+02  0.22271819690E+02  0.65071882071E+02  0.47000000000E+01 0.  1.
         -5    1    3    3    0  503  0.64291037975E+02 -0.16862955490E+01 -0.16901136709E+01  0.64506803058E+02  0.47000000000E+01 0.  1.
<mgrwt>
<rscale>  0 0.11849778E+03</rscale>
<asrwt>0</asrwt>
<pdfrwt beam="1">  1        1 0.24396011E-01 0.12793369E+03</pdfrwt>
<pdfrwt beam="2">  1       -1 0.12468934E-01 0.12793369E+03</pdfrwt>
<totfact> 0.80154587E+03</totfact>
</mgrwt>
</event>
<event>
 8    1  0.3520338E-004  0.2044958E+03  0.7546771E-02  0.1150053E+00
         -2   -1    0    0    0  501 -0.00000000000E+00  0.00000000000E+00  0.72386207230E+02  0.72386207230E+02  0.00000000000E+00 0.  1.
          2   -1    0    0  501    0  0.00000000000E+00 -0.00000000000E+00 -0.55362627385E+03  0.55362627385E+03  0.00000000000E+00 0. -1.
         25    2    1    2    0    0  0.15158688382E+03 -0.56705321932E+02 -0.32163571605E+03  0.38114046405E+03  0.12499777042E+03 0.  0.
         23    2    1    2    0    0 -0.15158688382E+03  0.56705321932E+02 -0.15960435057E+03  0.24487201703E+03  0.91075129019E+02 0.  0.
          5    1    3    3  502    0 -0.40138672676E+01 -0.26847121487E+02 -0.12784997444E+03  0.13078449842E+03  0.47000000000E+01 0. -1.
         -5    1    4    4    0  503 -0.53416960109E+02  0.54514416155E+02 -0.29860726750E+02  0.82091084766E+02  0.47000000000E+01 0.  1.
          5    1    4    4  503    0 -0.98169923708E+02  0.21909057768E+01 -0.12974362382E+03  0.16278093227E+03  0.47000000000E+01 0. -1.
         -5    1    3    3    0  502  0.15560075108E+03 -0.29858200445E+02 -0.19378574162E+03  0.25035596563E+03  0.47000000000E+01 0. -1.
<mgrwt>
<rscale>  0 0.19962868E+03</rscale>
<asrwt>0</asrwt>
<pdfrwt beam="1">  1        2 0.85173274E-01 0.20449577E+03</pdfrwt>
<pdfrwt beam="2">  1       -2 0.11136339E-01 0.20449577E+03</pdfrwt>
<totfact> 0.30572759E+03</totfact>
</mgrwt>
</event>
<event>
 8    1  0.3520338E-004  0.1261099E+03  0.7546771E-02  0.1249203E+00
         -2   -1    0    0    0  501 -0.00000000000E+00  0.00000000000E+00  0.36944711974E+02  0.36944711974E+02  0.00000000000E+00 0.  1.
          2   -1    0    0  501    0  0.00000000000E+00 -0.00000000000E+00 -0.34953883465E+03  0.34953883465E+03  0.00000000000E+00 0. -1.
         25    2    1    2    0    0 -0.12374628054E+01 -0.16618548789E+02 -0.12385997009E+03  0.17676256555E+03  0.12500401958E+03 0.  0.
         23    2    1    2    0    0  0.12374628054E+01  0.16618548789E+02 -0.18873415259E+03  0.20972098108E+03  0.89914415260E+02 0.  0.
          5    1    4    4  502    0 -0.25277623586E+02 -0.21051247571E+02 -0.13384820528E+03  0.13791136768E+03  0.47000000000E+01 0. -1.
         -5    1    3    3    0  503 -0.40209661660E+02 -0.19754712794E+02  0.17944984497E+01  0.45081878766E+02  0.47000000000E+01 0.  1.
          5    1    3    3  503    0  0.38972198855E+02  0.31361640053E+01 -0.12565446854E+03  0.13168068678E+03  0.47000000000E+01 0.  1.
         -5    1    4    4    0  502  0.26515086392E+02  0.37669796359E+02 -0.54885947310E+02  0.71809613397E+02  0.47000000000E+01 0.  1.
<mgrwt>
<rscale>  0 0.11637313E+03</rscale>
<asrwt>0</asrwt>
<pdfrwt beam="1">  1        2 0.53775206E-01 0.12610992E+03</pdfrwt>
<pdfrwt beam="2">  1       -2 0.56838018E-02 0.12610992E+03</pdfrwt>
<totfact> 0.13941026E+04</totfact>
</mgrwt>
</event>
<event>
 8    1  0.3520338E-004  0.1330633E+03  0.7546771E-02  0.1237836E+00
         -2   -1    0    0    0  501 -0.00000000000E+00  0.00000000000E+00  0.16632051727E+03  0.16632051727E+03  0.00000000000E+00 0.  1.
          2   -1    0    0  501    0  0.00000000000E+00 -0.00000000000E+00 -0.96193798309E+02  0.96193798309E+02  0.00000000000E+00 0. -1.
         25    2    1    2    0    0  0.36541991530E+02  0.27420118541E+02  0.92506452485E+02  0.16205953470E+03  0.12497467339E+03 0.  0.
         23    2    1    2    0    0 -0.36541991530E+02 -0.27420118541E+02 -0.22379733523E+02  0.10045478088E+03  0.86620612345E+02 0.  0.
          5    1    4    4  502    0 -0.10968209927E+02 -0.33404751787E+02 -0.50485260028E+02  0.61701138977E+02  0.47000000000E+01 0. -1.
         -5    1    4    4    0  502 -0.25573781603E+02  0.59846332452E+01  0.28105526505E+02  0.38753641902E+02  0.47000000000E+01 0.  1.
          5    1    3    3  503    0  0.22493209983E+02  0.65952401075E+02  0.11009460370E+02  0.70703337407E+02  0.47000000000E+01 0.  1.
         -5    1    3    3    0  503  0.14048781547E+02 -0.38532282533E+02  0.81496992115E+02  0.91356197293E+02  0.47000000000E+01 0.  1.
<mgrwt>
<rscale>  0 0.12324601E+03</rscale>
<asrwt>0</asrwt>
<pdfrwt beam="1">  1        2 0.14799046E-01 0.13306333E+03</pdfrwt>
<pdfrwt beam="2">  1       -2 0.25587772E-01 0.13306333E+03</pdfrwt>
<totfact> 0.51358686E+03</totfact>
</mgrwt>
</event>
<event>
 8    1  0.3520338E-004  0.1420970E+03  0.7546771E-02  0.1221300E+00
          1   -1    0    0  501    0  0.00000000000E+00  0.00000000000E+00  0.14646324863E+04  0.14646324863E+04  0.00000000000E+00 0. -1.
         -1   -1    0    0    0  501 -0.00000000000E+00 -0.00000000000E+00 -0.11857749197E+02  0.11857749197E+02  0.00000000000E+00 0.  1.
         25    2    1    2    0    0 -0.48542839602E+02 -0.47013548094E+02  0.98627497573E+03  0.99645867116E+03  0.12499949837E+03 0.  0.
         23    2    1    2    0    0  0.48542839602E+02  0.47013548094E+02  0.46649976135E+03  0.48003156431E+03  0.90783227633E+02 0.  0.
          5    1    4    4  502    0  0.71515157761E+00  0.62081709248E+02  0.23425331455E+03  0.24238678892E+03  0.47000000000E+01 0. -1.
         -5    1    4    4    0  502  0.47827688024E+02 -0.15068161154E+02  0.23224644680E+03  0.23764477540E+03  0.47000000000E+01 0.  1.
          5    1    3    3  503    0  0.26328402369E+02 -0.57376184460E+02  0.55342974140E+03  0.55703840082E+03  0.47000000000E+01 0.  1.
         -5    1    3    3    0  503 -0.74871241971E+02  0.10362636367E+02  0.43284523433E+03  0.43942027034E+03  0.47000000000E+01 0.  1.
<mgrwt>
<rscale>  0 0.13423785E+03</rscale>
<asrwt>0</asrwt>
<pdfrwt beam="1">  1        1 0.22532793E+00 0.14209699E+03</pdfrwt>
<pdfrwt beam="2">  1       -1 0.18242703E-02 0.14209699E+03</pdfrwt>
<totfact> 0.58205278E+03</totfact>
</mgrwt>
</event>
<event>
 8    1  0.3520338E-004  0.1365058E+03  0.7546771E-02  0.1229198E+00
         -2   -1    0    0    0  501 -0.00000000000E+00  0.00000000000E+00  0.96971533412E+01  0.96971533412E+01  0.00000000000E+00 0.  1.
          2   -1    0    0  501    0  0.00000000000E+00 -0.00000000000E+00 -0.17700599242E+04  0.17700599242E+04  0.00000000000E+00 0. -1.
         25    2    1    2    0    0  0.20393908178E+02 -0.50919851171E+02 -0.12840854886E+04  0.12913207896E+04  0.12500038809E+03 0.  0.
         23    2    1    2    0    0 -0.20393908178E+02  0.50919851171E+02 -0.47627728229E+03  0.48843628792E+03  0.93387445605E+02 0.  0.
          5    1    3    3  502    0  0.56539033907E+02  0.17127787388E+02 -0.54077544897E+03  0.54401305100E+03  0.47000000000E+01 0.  1.
         -5    1    3    3    0  502 -0.36145125729E+02 -0.68047638559E+02 -0.74331003961E+03  0.74730773863E+03  0.47000000000E+01 0.  1.
          5    1    4    4  503    0  0.51271373545E+01  0.69461118741E+02 -0.39507796925E+03  0.40119798895E+03  0.47000000000E+01 0. -1.
         -5    1    4    4    0  503 -0.25521045532E+02 -0.18541267570E+02 -0.81199313041E+02  0.87238298966E+02  0.47000000000E+01 0.  1.
<mgrwt>
<rscale>  0 0.12883250E+03</rscale>
<asrwt>0</asrwt>
<pdfrwt beam="1">  1        2 0.27231661E+00 0.13650582E+03</pdfrwt>
<pdfrwt beam="2">  1       -2 0.14918714E-02 0.13650582E+03</pdfrwt>
<totfact> 0.11408393E+04</totfact>
</mgrwt>
</event>
<event>
 8    1  0.3520338E-004  0.1527189E+03  0.7546771E-02  0.1205884E+00
         -3   -1    0    0    0  501 -0.00000000000E+00  0.00000000000E+00  0.23665400274E+03  0.23665400274E+03  0.00000000000E+00 0.  1.
          3   -1    0    0  501    0  0.00000000000E+00 -0.00000000000E+00 -0.91864574895E+02  0.91864574895E+02  0.00000000000E+00 0. -1.
         25    2    1    2    0    0 -0.41230706247E+02 -0.77462968907E+02  0.25793445858E+02  0.15488175370E+03  0.12499029199E+03 0.  0.
         23    2    1    2    0    0  0.41230706247E+02  0.77462968907E+02  0.11899598198E+03  0.17363682393E+03  0.91045154762E+02 0.  0.
          5    1    3    3  502    0  0.23445805452E+02  0.18145803478E+02  0.25451841647E+02  0.39355586902E+02  0.47000000000E+01 0. -1.
         -5    1    3    3    0  502 -0.64676511699E+02 -0.95608772385E+02  0.34160421078E+00  0.11552616680E+03  0.47000000000E+01 0. -1.
          5    1    4    4  503    0  0.31991013275E+01  0.83723028576E+02  0.60598252527E+02  0.10350854058E+03  0.47000000000E+01 0. -1.
         -5    1    4    4    0  503  0.38031604920E+02 -0.62600596686E+01  0.58397729457E+02  0.70128283350E+02  0.47000000000E+01 0.  1.
<mgrwt>
<rscale>  0 0.14567989E+03</rscale>
<asrwt>0</asrwt>
<pdfrwt beam="1">  1        3 0.14133012E-01 0.15271888E+03</pdfrwt>
<pdfrwt beam="2">  1       -3 0.36408308E-01 0.15271888E+03</pdfrwt>
<totfact> 0.72048455E+02</totfact>
</mgrwt>
</event>
<event>
 8    1  0.3935181E-004  0.3572889E+03  0.7546771E-02  0.1060701E+00
         -2   -1    0    0    0  501 -0.00000000000E+00  0.00000000000E+00  0.10962982739E+03  0.10962982739E+03  0.00000000000E+00 0.  1.
          2   -1    0    0  501    0  0.00000000000E+00 -0.00000000000E+00 -0.11313299727E+04  0.11313299727E+04  0.00000000000E+00 0. -1.
         25    2    1    2    0    0 -0.33457589141E+03  0.94267988330E+01 -0.51659252718E+03  0.62811083234E+03  0.12500194764E+03 0.  0.
         23    2    1    2    0    0  0.33457589141E+03 -0.94267988330E+01 -0.50510761816E+03  0.61284896779E+03  0.91761973364E+02 0.  0.
          5    1    3    3  502    0 -0.23236293663E+03 -0.47440906251E+02 -0.38281422383E+03  0.45034652643E+03  0.47000000000E+01 0. -1.
         -5    1    3    3    0  502 -0.10221295478E+03  0.56867705084E+02 -0.13377830336E+03  0.17776430591E+03  0.47000000000E+01 0. -1.
          5    1    4    4  503    0  0.13409381169E+03 -0.26150278324E+02 -0.13824062206E+03  0.19441591236E+03  0.47000000000E+01 0. -1.
         -5    1    4    4    0  503  0.20048207971E+03  0.16723479491E+02 -0.36686699610E+03  0.41843305544E+03  0.47000000000E+01 0.  1.
<mgrwt>
<rscale>  0 0.35470359E+03</rscale>
<asrwt>0</asrwt>
<pdfrwt beam="1">  1        2 0.17405079E+00 0.35728893E+03</pdfrwt>
<pdfrwt beam="2">  1       -2 0.16866125E-01 0.35728893E+03</pdfrwt>
<totfact> 0.61406395E+02</totfact>
</mgrwt>
</event>
<event>
 8    1  0.3520338E-004  0.1253720E+03  0.7546771E-02  0.1250621E+00
         -2   -1    0    0    0  501 -0.00000000000E+00  0.00000000000E+00  0.10834138541E+03  0.10834138541E+03  0.00000000000E+00 0.  1.
          2   -1    0    0  501    0  0.00000000000E+00 -0.00000000000E+00 -0.14646044522E+03  0.14646044522E+03  0.00000000000E+00 0. -1.
         25    2    1    2    0    0 -0.96740497295E+01  0.61287412819E+00  0.43751427867E+02  0.13278680777E+03  0.12499674405E+03 0.  0.
         23    2    1    2    0    0  0.96740497295E+01 -0.61287412819E+00 -0.81870487680E+02  0.12201502287E+03  0.89949575871E+02 0.  0.
          5    1    4    4  502    0  0.31547645229E+02  0.12840427746E+02 -0.88614892078E+02  0.95051668066E+02  0.47000000000E+01 0. -1.
         -5    1    3    3    0  503  0.46180210096E+02 -0.33432892596E+02  0.33828127224E+02  0.66459027253E+02  0.47000000000E+01 0. -1.
          5    1    3    3  503    0 -0.55854259825E+02  0.34045766725E+02  0.99233006424E+01  0.66327780516E+02  0.47000000000E+01 0. -1.
         -5    1    4    4    0  502 -0.21873595500E+02 -0.13453301874E+02  0.67444043981E+01  0.26963354801E+02  0.47000000000E+01 0.  1.
<mgrwt>
<rscale>  0 0.11555191E+03</rscale>
<asrwt>0</asrwt>
<pdfrwt beam="1">  1        2 0.22532376E-01 0.12537204E+03</pdfrwt>
<pdfrwt beam="2">  1       -2 0.16667905E-01 0.12537204E+03</pdfrwt>
<totfact> 0.65542928E+03</totfact>
</mgrwt>
</event>
<event>
 8    1  0.3520338E-004  0.1958859E+03  0.7546771E-02  0.1157802E+00
         -2   -1    0    0    0  501 -0.00000000000E+00  0.00000000000E+00  0.15937822439E+03  0.15937822439E+03  0.00000000000E+00 0.  1.
          2   -1    0    0  501    0  0.00000000000E+00 -0.00000000000E+00 -0.23933998776E+03  0.23933998776E+03  0.00000000000E+00 0. -1.
         25    2    1    2    0    0  0.14456320912E+03 -0.43028662049E+02 -0.10271067875E+03  0.22118036546E+03  0.12498513251E+03 0.  0.
         23    2    1    2    0    0 -0.14456320912E+03  0.43028662049E+02  0.22748915387E+02  0.17753784669E+03  0.90841547037E+02 0.  0.
          5    1    3    3  502    0 -0.15068525393E+02 -0.25196637460E+02 -0.37260419679E+02  0.47669275970E+02  0.47000000000E+01 0.  1.
         -5    1    3    3    0  502  0.15963173451E+03 -0.17832024589E+02 -0.65450259075E+02  0.17351108949E+03  0.47000000000E+01 0.  1.
          5    1    4    4  503    0 -0.58700196452E+02  0.54966050519E+02  0.38536274567E+02  0.89297896003E+02  0.47000000000E+01 0. -1.
         -5    1    4    4    0  503 -0.85863012663E+02 -0.11937388469E+02 -0.15787359180E+02  0.88239950685E+02  0.47000000000E+01 0.  1.
<mgrwt>
<rscale>  0 0.19073322E+03</rscale>
<asrwt>0</asrwt>
<pdfrwt beam="1">  1        2 0.36821537E-01 0.19588586E+03</pdfrwt>
<pdfrwt beam="2">  1       -2 0.24519727E-01 0.19588586E+03</pdfrwt>
<totfact> 0.20331667E+03</totfact>
</mgrwt>
</event>
<event>
 8    1  0.3520338E-004  0.1460377E+03  0.7546771E-02  0.1215476E+00
         -1   -1    0    0    0  501 -0.00000000000E+00  0.00000000000E+00  0.73769050630E+02  0.73769050630E+02  0.00000000000E+00 0.  1.
          1   -1    0    0  501    0  0.00000000000E+00 -0.00000000000E+00 -0.38486714709E+03  0.38486714709E+03  0.00000000000E+00 0. -1.
         25    2    1    2    0    0  0.72922512214E+02  0.19592024873E+02 -0.23617866097E+02  0.14793512921E+03  0.12500183451E+03 0.  0.
         23    2    1    2    0    0 -0.72922512214E+02 -0.19592024873E+02 -0.28748023037E+03  0.31070106851E+03  0.90491606760E+02 0.  0.
          5    1    4    4  502    0 -0.29663500798E+02 -0.15906778340E+02 -0.25242365665E+03  0.25470127858E+03  0.47000000000E+01 0. -1.
         -5    1    4    4    0  502 -0.43259011416E+02 -0.36852465326E+01 -0.35056573720E+02  0.55999789926E+02  0.47000000000E+01 0.  1.
          5    1    3    3  503    0 -0.30873911346E+02  0.26236932712E+02 -0.15019998700E+02  0.43465680725E+02  0.47000000000E+01 0.  1.
         -5    1    3    3    0  503  0.10379642356E+03 -0.66449078389E+01 -0.85978673969E+01  0.10446944849E+03  0.47000000000E+01 0.  1.
<mgrwt>
<rscale>  0 0.13841638E+03</rscale>
<asrwt>0</asrwt>
<pdfrwt beam="1">  1        1 0.59210331E-01 0.14603766E+03</pdfrwt>
<pdfrwt beam="2">  1       -1 0.11349085E-01 0.14603766E+03</pdfrwt>
<totfact> 0.31013625E+03</totfact>
</mgrwt>
</event>
<event>
 8    1  0.3520338E-004  0.1304154E+03  0.7546771E-02  0.1240323E+00
          2   -1    0    0  501    0  0.00000000000E+00  0.00000000000E+00  0.54688377910E+02  0.54688377910E+02  0.00000000000E+00 0. -1.
         -2   -1    0    0    0  501 -0.00000000000E+00 -0.00000000000E+00 -0.26250485114E+03  0.26250485114E+03  0.00000000000E+00 0.  1.
         25    2    1    2    0    0  0.35576045925E+02 -0.10539326451E+02 -0.16265616361E+03  0.20848307249E+03  0.12502572339E+03 0.  0.
         23    2    1    2    0    0 -0.35576045925E+02  0.10539326451E+02 -0.45160309627E+02  0.10871015656E+03  0.91660853852E+02 0.  0.
          5    1    3    3  502    0 -0.32661319277E+02  0.30115088677E+02 -0.30062992079E+02  0.53847505380E+02  0.47000000000E+01 0. -1.
         -5    1    3    3    0  502  0.68237365202E+02 -0.40654415128E+02 -0.13259317153E+03  0.15463556711E+03  0.47000000000E+01 0. -1.
          5    1    4    4  503    0  0.20392244070E+02  0.14523590169E+02  0.12277119608E+02  0.28277127780E+02  0.47000000000E+01 0. -1.
         -5    1    4    4    0  503 -0.55968289995E+02 -0.39842637184E+01 -0.57437429235E+02  0.80433028785E+02  0.47000000000E+01 0.  1.
<mgrwt>
<rscale>  0 0.12169711E+03</rscale>
<asrwt>0</asrwt>
<pdfrwt beam="1">  1        2 0.84135968E-02 0.13041535E+03</pdfrwt>
<pdfrwt beam="2">  1       -2 0.40385361E-01 0.13041535E+03</pdfrwt>
<totfact> 0.44284079E+03</totfact>
</mgrwt>
</event>
<event>
 8    1  0.3520338E-004  0.1722510E+03  0.7546771E-02  0.1181725E+00
          2   -1    0    0  501    0  0.00000000000E+00  0.00000000000E+00  0.36300606504E+03  0.36300606504E+03  0.00000000000E+00 0. -1.
         -2   -1    0    0    0  501 -0.00000000000E+00 -0.00000000000E+00 -0.77811804554E+02  0.77811804554E+02  0.00000000000E+00 0.  1.
         25    2    1    2    0    0  0.11655173493E+03  0.21450654323E+02  0.21476736214E+03  0.27530971637E+03  0.12500393034E+03 0.  0.
         23    2    1    2    0    0 -0.11655173493E+03 -0.21450654323E+02  0.70426898342E+02  0.16550815322E+03  0.91589100263E+02 0.  0.
          5    1    4    4  502    0 -0.46472459102E+02 -0.51368775723E+02  0.14646876028E+02  0.70958167618E+02  0.47000000000E+01 0. -1.
         -5    1    4    4    0  502 -0.70079275826E+02  0.29918121399E+02  0.55780022314E+02  0.94549985604E+02  0.47000000000E+01 0.  1.
          5    1    3    3  503    0  0.80077154536E+02  0.70314727257E+02  0.10513466533E+03  0.14977282598E+03  0.47000000000E+01 0. -1.
         -5    1    3    3    0  503  0.36474580392E+02 -0.48864072934E+02  0.10963269681E+03  0.12553689039E+03  0.47000000000E+01 0. -1.
<mgrwt>
<rscale>  0 0.16633449E+03</rscale>
<asrwt>0</asrwt>
<pdfrwt beam="1">  1        2 0.55847086E-01 0.17225104E+03</pdfrwt>
<pdfrwt beam="2">  1       -2 0.11971047E-01 0.17225104E+03</pdfrwt>
<totfact> 0.42973702E+03</totfact>
</mgrwt>
</event>
<event>
 8    1  0.3520338E-004  0.1269618E+03  0.7546771E-02  0.1247089E+00
         -1   -1    0    0    0  501 -0.00000000000E+00  0.00000000000E+00  0.21298265949E+03  0.21298265949E+03  0.00000000000E+00 0.  1.
          1   -1    0    0  501    0  0.00000000000E+00 -0.00000000000E+00 -0.57055403899E+02  0.57055403899E+02  0.00000000000E+00 0. -1.
         25    2    1    2    0    0 -0.12172569021E+02 -0.18606941774E+02  0.91298722254E+02  0.15638016074E+03  0.12499963307E+03 0.  0.
         23    2    1    2    0    0  0.12172569021E+02  0.18606941774E+02  0.64628533335E+02  0.11365790265E+03  0.90812343849E+02 0.  0.
          5    1    4    4  502    0  0.46599935664E+02  0.19649283362E+02  0.14803092959E+02  0.52904346718E+02  0.47000000000E+01 0. -1.
         -5    1    3    3    0  503 -0.37862546264E+02  0.38375252374E+02  0.73402415869E+02  0.91193404695E+02  0.47000000000E+01 0. -1.
          5    1    3    3  503    0  0.25689977244E+02 -0.56982194149E+02  0.17896306385E+02  0.65186756040E+02  0.47000000000E+01 0. -1.
         -5    1    4    4    0  502 -0.34427366643E+02 -0.10423415875E+01  0.49825440375E+02  0.60753555933E+02  0.47000000000E+01 0.  1.
<mgrwt>
<rscale>  0 0.11761200E+03</rscale>
<asrwt>0</asrwt>
<pdfrwt beam="1">  1        1 0.87777546E-02 0.12696180E+03</pdfrwt>
<pdfrwt beam="2">  1       -1 0.32766563E-01 0.12696180E+03</pdfrwt>
<totfact> 0.63458802E+03</totfact>
</mgrwt>
</event>
<event>
 8    1  0.3520338E-004  0.1262436E+03  0.7546771E-02  0.1248687E+00
         -1   -1    0    0    0  501 -0.00000000000E+00  0.00000000000E+00  0.41192905847E+02  0.41192905847E+02  0.00000000000E+00 0.  1.
          1   -1    0    0  501    0  0.00000000000E+00 -0.00000000000E+00 -0.28967439858E+03  0.28967439858E+03  0.00000000000E+00 0. -1.
         25    2    1    2    0    0 -0.54302572994E+01 -0.16831892032E+02 -0.14922103038E+03  0.19545938982E+03  0.12499862751E+03 0.  0.
         23    2    1    2    0    0  0.54302572994E+01  0.16831892032E+02 -0.99260462352E+02  0.13540791460E+03  0.90387298145E+02 0.  0.
          5    1    3    3  502    0  0.65298938675E+01  0.29803246794E+02  0.72260124689E+01  0.31704546828E+02  0.47000000000E+01 0.  1.
         -5    1    4    4    0  503 -0.27406502604E+01  0.41395828552E+02 -0.10811867749E+02  0.43129018880E+02  0.47000000000E+01 0.  1.
          5    1    4    4  503    0  0.81709075598E+01 -0.24563936520E+02 -0.88448594603E+02  0.92278895718E+02  0.47000000000E+01 0. -1.
         -5    1    3    3    0  502 -0.11960151167E+02 -0.46635138826E+02 -0.15644704285E+03  0.16375484300E+03  0.47000000000E+01 0.  1.
<mgrwt>
<rscale>  0 0.11667389E+03</rscale>
<asrwt>0</asrwt>
<pdfrwt beam="1">  1        1 0.44565289E-01 0.12624364E+03</pdfrwt>
<pdfrwt beam="2">  1       -1 0.63373706E-02 0.12624364E+03</pdfrwt>
<totfact> 0.10577453E+04</totfact>
</mgrwt>
</event>
<event>
 8    1  0.3520338E-004  0.1354642E+03  0.7546771E-02  0.1231925E+00
         -3   -1    0    0    0  501 -0.00000000000E+00  0.00000000000E+00  0.31690752448E+02  0.31690752448E+02  0.00000000000E+00 0.  1.
          3   -1    0    0  501    0  0.00000000000E+00 -0.00000000000E+00 -0.69847090982E+03  0.69847090982E+03  0.00000000000E+00 0. -1.
         25    2    1    2    0    0 -0.44780494806E+02 -0.26836177742E+02 -0.14687492652E+03  0.19980691506E+03  0.12500034446E+03 0.  0.
         23    2    1    2    0    0  0.44780494806E+02  0.26836177742E+02 -0.51990523086E+03  0.53035474721E+03  0.90825302995E+02 0.  0.
          5    1    3    3  502    0  0.12638658964E+02  0.42442930616E+02 -0.38502429392E+02  0.58869900023E+02  0.47000000000E+01 0.  1.
         -5    1    4    4    0  503 -0.23177845365E+02  0.91117699165E+01 -0.60585105507E+02  0.65672535173E+02  0.47000000000E+01 0.  1.
          5    1    4    4  503    0  0.67958340171E+02  0.17724407825E+02 -0.45932012535E+03  0.46468221204E+03  0.47000000000E+01 0. -1.
         -5    1    3    3    0  502 -0.57419153770E+02 -0.69279108358E+02 -0.10837249713E+03  0.14093701504E+03  0.47000000000E+01 0.  1.
<mgrwt>
<rscale>  0 0.12703331E+03</rscale>
<asrwt>0</asrwt>
<pdfrwt beam="1">  1        3 0.10745706E+00 0.13546424E+03</pdfrwt>
<pdfrwt beam="2">  1       -3 0.48755004E-02 0.13546424E+03</pdfrwt>
<totfact> 0.42358244E+02</totfact>
</mgrwt>
</event>
<event>
 8    1  0.3520338E-004  0.1299510E+03  0.7546771E-02  0.1241297E+00
          2   -1    0    0  501    0  0.00000000000E+00  0.00000000000E+00  0.11033826320E+04  0.11033826320E+04  0.00000000000E+00 0. -1.
         -2   -1    0    0    0  501 -0.00000000000E+00 -0.00000000000E+00 -0.12007348428E+02  0.12007348428E+02  0.00000000000E+00 0.  1.
         25    2    1    2    0    0 -0.16589234722E+02  0.31424779819E+02  0.54349973347E+03  0.55881948362E+03  0.12499814198E+03 0.  0.
         23    2    1    2    0    0  0.16589234722E+02 -0.31424779819E+02  0.54787555014E+03  0.55657049685E+03  0.91325681053E+02 0.  0.
          5    1    4    4  502    0  0.52426588485E+01 -0.62797137793E+02  0.39536777814E+03  0.40038573399E+03  0.47000000000E+01 0. -1.
         -5    1    3    3    0  503  0.26292426691E+02  0.42440332299E+02  0.47154745299E+03  0.47420624619E+03  0.47000000000E+01 0.  1.
          5    1    3    3  503    0 -0.42881661413E+02 -0.11015552480E+02  0.71952280480E+02  0.84613237429E+02  0.47000000000E+01 0.  1.
         -5    1    4    4    0  502  0.11346575873E+02  0.31372357974E+02  0.15250777200E+03  0.15618476286E+03  0.47000000000E+01 0.  1.
<mgrwt>
<rscale>  0 0.12109775E+03</rscale>
<asrwt>0</asrwt>
<pdfrwt beam="1">  1        2 0.16975109E+00 0.12995097E+03</pdfrwt>
<pdfrwt beam="2">  1       -2 0.18472852E-02 0.12995097E+03</pdfrwt>
<totfact> 0.18854543E+04</totfact>
</mgrwt>
</event>
<event>
 8    1  0.3520338E-004  0.1464789E+03  0.7546771E-02  0.1214260E+00
          2   -1    0    0  501    0  0.00000000000E+00  0.00000000000E+00  0.26407982971E+03  0.26407982971E+03  0.00000000000E+00 0. -1.
         -2   -1    0    0    0  501 -0.00000000000E+00 -0.00000000000E+00 -0.92508516348E+02  0.92508516348E+02  0.00000000000E+00 0.  1.
         25    2    1    2    0    0  0.59402942231E+02 -0.47989481200E+02  0.18503228860E+03  0.23599366195E+03  0.12499744319E+03 0.  0.
         23    2    1    2    0    0 -0.59402942231E+02  0.47989481200E+02 -0.13460975236E+02  0.12059468411E+03  0.92358974284E+02 0.  0.
          5    1    4    4  502    0 -0.27245808440E+02  0.57273220418E+02  0.25939108484E+02  0.68683937012E+02  0.47000000000E+01 0. -1.
         -5    1    4    4    0  502 -0.32157133791E+02 -0.92837392181E+01 -0.39400083720E+02  0.51910747102E+02  0.47000000000E+01 0.  1.
          5    1    3    3  503    0 -0.36868373691E+00 -0.74816772126E+02  0.13103495860E+03  0.15096335878E+03  0.47000000000E+01 0. -1.
         -5    1    3    3    0  503  0.59771625968E+02  0.26827290926E+02  0.53997329999E+02  0.85030303165E+02  0.47000000000E+01 0. -1.
<mgrwt>
<rscale>  0 0.13931012E+03</rscale>
<asrwt>0</asrwt>
<pdfrwt beam="1">  1        2 0.40627666E-01 0.14647887E+03</pdfrwt>
<pdfrwt beam="2">  1       -2 0.14232080E-01 0.14647887E+03</pdfrwt>
<totfact> 0.45238193E+03</totfact>
</mgrwt>
</event>
<event>
 8    1  0.3520338E-004  0.1479971E+03  0.7546771E-02  0.1212428E+00
         -2   -1    0    0    0  501 -0.00000000000E+00  0.00000000000E+00  0.27578102573E+02  0.27578102573E+02  0.00000000000E+00 0.  1.
          2   -1    0    0  501    0  0.00000000000E+00 -0.00000000000E+00 -0.66887257410E+03  0.66887257410E+03  0.00000000000E+00 0. -1.
         25    2    1    2    0    0 -0.10088531203E+02  0.78586868679E+02 -0.30248091182E+03  0.33674595526E+03  0.12500184792E+03 0.  0.
         23    2    1    2    0    0  0.10088531203E+02 -0.78586868679E+02 -0.33881355971E+03  0.35970472141E+03  0.91187630575E+02 0.  0.
          5    1    4    4  502    0  0.33755455162E+02 -0.74672616477E+02 -0.31521851879E+03  0.32573031022E+03  0.47000000000E+01 0. -1.
         -5    1    4    4    0  502 -0.23666923959E+02 -0.39142522024E+01 -0.23595040922E+02  0.33974411196E+02  0.47000000000E+01 0.  1.
          5    1    3    3  503    0  0.20504204925E+01 -0.33849230518E+02 -0.58335146045E+02  0.67639144694E+02  0.47000000000E+01 0.  1.
         -5    1    3    3    0  503 -0.12138951695E+02  0.11243609920E+03 -0.24414576577E+03  0.26910681057E+03  0.47000000000E+01 0.  1.
<mgrwt>
<rscale>  0 0.14067192E+03</rscale>
<asrwt>0</asrwt>
<pdfrwt beam="1">  1        2 0.10290348E+00 0.14799708E+03</pdfrwt>
<pdfrwt beam="2">  1       -2 0.42427849E-02 0.14799708E+03</pdfrwt>
<totfact> 0.10710948E+04</totfact>
</mgrwt>
</event>
<event>
 8    1  0.3520338E-004  0.1267570E+03  0.7546771E-02  0.1246019E+00
          1   -1    0    0  501    0  0.00000000000E+00  0.00000000000E+00  0.77585150920E+02  0.77585150920E+02  0.00000000000E+00 0. -1.
         -1   -1    0    0    0  501 -0.00000000000E+00 -0.00000000000E+00 -0.34337028371E+03  0.34337028371E+03  0.00000000000E+00 0.  1.
         25    2    1    2    0    0  0.67793389109E+01  0.19917880012E+02 -0.29461701642E+03  0.32072811577E+03  0.12499862601E+03 0.  0.
         23    2    1    2    0    0 -0.67793389109E+01 -0.19917880012E+02  0.28831883631E+02  0.10022731885E+03  0.93656588400E+02 0.  0.
          5    1    4    4  502    0  0.13630358149E+02  0.29965286029E+02  0.31844441113E+02  0.46041974978E+02  0.47000000000E+01 0. -1.
         -5    1    4    4    0  502 -0.20409697060E+02 -0.49883166041E+02 -0.30125574821E+01  0.54185343876E+02  0.47000000000E+01 0.  1.
          5    1    3    3  503    0  0.37971004554E+02  0.61244941910E+02 -0.20195372757E+03  0.21447642802E+03  0.47000000000E+01 0. -1.
         -5    1    3    3    0  503 -0.31191665643E+02 -0.41327061898E+02 -0.92663288847E+02  0.10625168775E+03  0.47000000000E+01 0. -1.
<mgrwt>
<rscale>  0 0.11824598E+03</rscale>
<asrwt>0</asrwt>
<pdfrwt beam="1">  1        1 0.11936177E-01 0.12675700E+03</pdfrwt>
<pdfrwt beam="2">  1       -1 0.52826197E-01 0.12675700E+03</pdfrwt>
<totfact> 0.18203749E+03</totfact>
</mgrwt>
</event>
<event>
 8    1  0.3520338E-004  0.2116359E+03  0.7546771E-02  0.1144220E+00
          2   -1    0    0  501    0  0.00000000000E+00  0.00000000000E+00  0.59939994590E+03  0.59939994590E+03  0.00000000000E+00 0. -1.
         -2   -1    0    0    0  501 -0.00000000000E+00 -0.00000000000E+00 -0.71046328719E+02  0.71046328719E+02  0.00000000000E+00 0.  1.
         25    2    1    2    0    0 -0.15313467156E+03 -0.75583669156E+02  0.20824454041E+03  0.29691000656E+03  0.12500657865E+03 0.  0.
         23    2    1    2    0    0  0.15313467156E+03  0.75583669156E+02  0.32010907677E+03  0.37353626806E+03  0.88861711965E+02 0.  0.
          5    1    4    4  502    0  0.91820271893E+02  0.30234368054E+02  0.25638042228E+03  0.27404030774E+03  0.47000000000E+01 0. -1.
         -5    1    4    4    0  502  0.61314399663E+02  0.45349301102E+02  0.63728654495E+02  0.99495960321E+02  0.47000000000E+01 0.  1.
          5    1    3    3  503    0 -0.13157189163E+03 -0.10945290949E+03  0.16858572498E+03  0.24027970936E+03  0.47000000000E+01 0.  1.
         -5    1    3    3    0  503 -0.21562779928E+02  0.33869240336E+02  0.39658815432E+02  0.56630297197E+02  0.47000000000E+01 0.  1.
<mgrwt>
<rscale>  0 0.20668289E+03</rscale>
<asrwt>0</asrwt>
<pdfrwt beam="1">  1        2 0.92215373E-01 0.21163592E+03</pdfrwt>
<pdfrwt beam="2">  1       -2 0.10930205E-01 0.21163592E+03</pdfrwt>
<totfact> 0.28788150E+03</totfact>
</mgrwt>
</event>
<event>
 8    1  0.3520338E-004  0.1618737E+03  0.7546771E-02  0.1193648E+00
          2   -1    0    0  501    0  0.00000000000E+00  0.00000000000E+00  0.14291516659E+02  0.14291516659E+02  0.00000000000E+00 0. -1.
         -2   -1    0    0    0  501 -0.00000000000E+00 -0.00000000000E+00 -0.17421217729E+04  0.17421217729E+04  0.00000000000E+00 0.  1.
         25    2    1    2    0    0  0.81199049107E+02  0.63125608247E+02 -0.11930962815E+04  0.12040273413E+04  0.12499989472E+03 0.  0.
         23    2    1    2    0    0 -0.81199049107E+02 -0.63125608247E+02 -0.53473397472E+03  0.55238594824E+03  0.92799160002E+02 0.  0.
          5    1    3    3  502    0  0.10482852963E+03  0.80314011824E+02 -0.95500774522E+03  0.96410644877E+03  0.47000000000E+01 0. -1.
         -5    1    3    3    0  502 -0.23629480526E+02 -0.17188403577E+02 -0.23808853628E+03  0.23992089254E+03  0.47000000000E+01 0. -1.
          5    1    4    4  503    0  0.28064862750E+01 -0.53061253422E+02 -0.18536070187E+03  0.19288352127E+03  0.47000000000E+01 0. -1.
         -5    1    4    4    0  503 -0.84005535382E+02 -0.10064354825E+02 -0.34937327285E+03  0.35950242697E+03  0.47000000000E+01 0.  1.
<mgrwt>
<rscale>  0 0.15569193E+03</rscale>
<asrwt>0</asrwt>
<pdfrwt beam="1">  1        2 0.21986945E-02 0.16187372E+03</pdfrwt>
<pdfrwt beam="2">  1       -2 0.26801878E+00 0.16187372E+03</pdfrwt>
<totfact> 0.26881206E+02</totfact>
</mgrwt>
</event>
<event>
 8    1  0.3520338E-004  0.1687525E+03  0.7546771E-02  0.1185506E+00
         -2   -1    0    0    0  501 -0.00000000000E+00  0.00000000000E+00  0.30132123042E+03  0.30132123042E+03  0.00000000000E+00 0. -1.
          2   -1    0    0  501    0  0.00000000000E+00 -0.00000000000E+00 -0.11983628320E+03  0.11983628320E+03  0.00000000000E+00 0.  1.
         25    2    1    2    0    0 -0.11025455493E+03 -0.26402825764E+02  0.21266778639E+03  0.27148665415E+03  0.12499695966E+03 0.  0.
         23    2    1    2    0    0  0.11025455493E+03  0.26402825764E+02 -0.31182839160E+02  0.14967085947E+03  0.92605726740E+02 0.  0.
          5    1    4    4  502    0  0.10546913414E+03 -0.61926411227E+01 -0.25756566577E+01  0.10578662991E+03  0.47000000000E+01 0. -1.
         -5    1    3    3    0  503 -0.88590815194E+02 -0.73765441525E+02  0.13159243774E+03  0.17500952137E+03  0.47000000000E+01 0.  1.
          5    1    3    3  503    0 -0.21663739737E+02  0.47362615761E+02  0.81075348646E+02  0.96477132779E+02  0.47000000000E+01 0.  1.
         -5    1    4    4    0  502  0.47854207946E+01  0.32595466886E+02 -0.28607182502E+02  0.43884229564E+02  0.47000000000E+01 0.  1.
<mgrwt>
<rscale>  0 0.16285944E+03</rscale>
<asrwt>0</asrwt>
<pdfrwt beam="1">  1        2 0.18436351E-01 0.16875253E+03</pdfrwt>
<pdfrwt beam="2">  1       -2 0.46357112E-01 0.16875253E+03</pdfrwt>
<totfact> 0.13430531E+03</totfact>
</mgrwt>
</event>
<event>
 8    1  0.3520338E-004  0.1687529E+03  0.7546771E-02  0.1185295E+00
         -2   -1    0    0    0  501 -0.00000000000E+00  0.00000000000E+00  0.63075386014E+02  0.63075386014E+02  0.00000000000E+00 0.  1.
          2   -1    0    0  501    0  0.00000000000E+00 -0.00000000000E+00 -0.39602068623E+03  0.39602068623E+03  0.00000000000E+00 0. -1.
         25    2    1    2    0    0 -0.10610829441E+03  0.39871849609E+02 -0.16843760249E+03  0.23842978044E+03  0.12501519802E+03 0.  0.
         23    2    1    2    0    0  0.10610829441E+03 -0.39871849609E+02 -0.16450769773E+03  0.22066629180E+03  0.93712833653E+02 0.  0.
          5    1    4    4  502    0  0.58885931636E+02 -0.28313971741E+02 -0.15843945168E+03  0.17144790401E+03  0.47000000000E+01 0. -1.
         -5    1    4    4    0  502  0.47222362776E+02 -0.11557877867E+02 -0.60682460505E+01  0.49218387794E+02  0.47000000000E+01 0.  1.
          5    1    3    3  503    0 -0.11316689307E+03  0.72869625152E+02 -0.13494180072E+03  0.19065179658E+03  0.47000000000E+01 0. -1.
         -5    1    3    3    0  503  0.70585986627E+01 -0.32997775544E+02 -0.33495801768E+02  0.47777983863E+02  0.47000000000E+01 0. -1.
<mgrwt>
<rscale>  0 0.16305065E+03</rscale>
<asrwt>0</asrwt>
<pdfrwt beam="1">  1        2 0.60926259E-01 0.16875288E+03</pdfrwt>
<pdfrwt beam="2">  1       -2 0.97039056E-02 0.16875288E+03</pdfrwt>
<totfact> 0.54596288E+03</totfact>
</mgrwt>
</event>
<event>
 8    1  0.3520338E-004  0.1432463E+03  0.7546771E-02  0.1219133E+00
          2   -1    0    0  501    0  0.00000000000E+00  0.00000000000E+00  0.10911034737E+04  0.10911034737E+04  0.00000000000E+00 0. -1.
         -2   -1    0    0    0  501 -0.00000000000E+00 -0.00000000000E+00 -0.17209915052E+02  0.17209915052E+02  0.00000000000E+00 0.  1.
         25    2    1    2    0    0  0.51358599145E+02  0.47510958667E+02  0.40699267222E+03  0.43146556904E+03  0.12499802048E+03 0.  0.
         23    2    1    2    0    0 -0.51358599145E+02 -0.47510958667E+02  0.66690088645E+03  0.67684781974E+03  0.92039023440E+02 0.  0.
          5    1    3    3  502    0  0.26346695605E+02 -0.41647791853E+02  0.11802799785E+03  0.12798978558E+03  0.47000000000E+01 0.  1.
         -5    1    3    3    0  502  0.25011903540E+02  0.89158750519E+02  0.28896467437E+03  0.30347578346E+03  0.47000000000E+01 0.  1.
          5    1    4    4  503    0 -0.38013153518E+02 -0.75072191156E+02  0.51013851772E+03  0.51705341212E+03  0.47000000000E+01 0. -1.
         -5    1    4    4    0  503 -0.13345445628E+02  0.27561232489E+02  0.15676236873E+03  0.15979440762E+03  0.47000000000E+01 0.  1.
<mgrwt>
<rscale>  0 0.13577302E+03</rscale>
<asrwt>0</asrwt>
<pdfrwt beam="1">  1        2 0.16786202E+00 0.14324630E+03</pdfrwt>
<pdfrwt beam="2">  1       -2 0.26476801E-02 0.14324630E+03</pdfrwt>
<totfact> 0.11414083E+04</totfact>
</mgrwt>
</event>
<event>
 8    1  0.3520338E-004  0.1389211E+03  0.7546771E-02  0.1226121E+00
          2   -1    0    0  501    0  0.00000000000E+00  0.00000000000E+00  0.53920627468E+02  0.53920627468E+02  0.00000000000E+00 0. -1.
         -2   -1    0    0    0  501 -0.00000000000E+00 -0.00000000000E+00 -0.29477793155E+03  0.29477793155E+03  0.00000000000E+00 0.  1.
         25    2    1    2    0    0  0.60582497170E+02 -0.88201276744E+00 -0.10469489229E+03  0.17395426542E+03  0.12501219572E+03 0.  0.
         23    2    1    2    0    0 -0.60582497170E+02  0.88201276744E+00 -0.13616241179E+03  0.17474429359E+03  0.91237869595E+02 0.  0.
          5    1    3    3  502    0  0.84688098499E+02 -0.41495549990E+01 -0.11835013674E+03  0.14566446959E+03  0.47000000000E+01 0.  1.
         -5    1    4    4    0  503 -0.41196030694E+02  0.24086189269E+02 -0.13593376655E+03  0.14414345752E+03  0.47000000000E+01 0.  1.
          5    1    4    4  503    0 -0.19386466476E+02 -0.23204176501E+02 -0.22864524384E+00  0.30600836070E+02  0.47000000000E+01 0. -1.
         -5    1    3    3    0  502 -0.24105601329E+02  0.32675422316E+01  0.13655244449E+02  0.28289795839E+02  0.47000000000E+01 0.  1.
<mgrwt>
<rscale>  0 0.13090396E+03</rscale>
<asrwt>0</asrwt>
<pdfrwt beam="1">  1        2 0.82954811E-02 0.13892108E+03</pdfrwt>
<pdfrwt beam="2">  1       -2 0.45350452E-01 0.13892108E+03</pdfrwt>
<totfact> 0.36244102E+03</totfact>
</mgrwt>
</event>
<event>
 8    1  0.3520338E-004  0.1729312E+03  0.7546771E-02  0.1181158E+00
         -1   -1    0    0    0  501 -0.00000000000E+00  0.00000000000E+00  0.26716935508E+02  0.26716935508E+02  0.00000000000E+00 0.  1.
          1   -1    0    0  501    0  0.00000000000E+00 -0.00000000000E+00 -0.10773961376E+04  0.10773961376E+04  0.00000000000E+00 0. -1.
         25    2    1    2    0    0 -0.13727917049E+02  0.11872357341E+03 -0.38968509774E+03  0.42633281619E+03  0.12498580788E+03 0.  0.
         23    2    1    2    0    0  0.13727917049E+02 -0.11872357341E+03 -0.66099410439E+03  0.67778025695E+03  0.90493801397E+02 0.  0.
          5    1    4    4  502    0 -0.22951199701E+02 -0.53104544346E+02 -0.45034197589E+03  0.45406699445E+03  0.47000000000E+01 0. -1.
         -5    1    4    4    0  502  0.36679116749E+02 -0.65619029061E+02 -0.21065212850E+03  0.22371326251E+03  0.47000000000E+01 0.  1.
          5    1    3    3  503    0  0.30240325846E+02  0.10616412055E+03 -0.17635866127E+03  0.20810998343E+03  0.47000000000E+01 0. -1.
         -5    1    3    3    0  503 -0.43968242894E+02  0.12559452857E+02 -0.21332643647E+03  0.21822283276E+03  0.47000000000E+01 0. -1.
<mgrwt>
<rscale>  0 0.16686387E+03</rscale>
<asrwt>0</asrwt>
<pdfrwt beam="1">  1        1 0.16575323E+00 0.17293119E+03</pdfrwt>
<pdfrwt beam="2">  1       -1 0.41102983E-02 0.17293119E+03</pdfrwt>
<totfact> 0.32777579E+03</totfact>
</mgrwt>
</event>
<event>
 8    1  0.3520338E-004  0.1269972E+03  0.7546771E-02  0.1243553E+00
          1   -1    0    0  501    0  0.00000000000E+00  0.00000000000E+00  0.47646618992E+03  0.47646618992E+03  0.00000000000E+00 0.  1.
         -1   -1    0    0    0  501 -0.00000000000E+00 -0.00000000000E+00 -0.27127226220E+02  0.27127226220E+02  0.00000000000E+00 0. -1.
         25    2    1    2    0    0 -0.14445504382E+02  0.17240817999E+02  0.25732016295E+03  0.28695287671E+03  0.12498947470E+03 0.  0.
         23    2    1    2    0    0  0.14445504382E+02 -0.17240817999E+02  0.19201880075E+03  0.21664053943E+03  0.97754718988E+02 0.  0.
          5    1    3    3  502    0  0.39375675567E+02  0.29968504437E+02  0.20406511616E+03  0.21003146602E+03  0.47000000000E+01 0.  1.
         -5    1    3    3    0  502 -0.53821179949E+02 -0.12727686438E+02  0.53255046797E+02  0.76921410690E+02  0.47000000000E+01 0.  1.
          5    1    4    4  503    0 -0.13607888372E+02  0.36473772730E+02  0.83816429608E+02  0.92535369428E+02  0.47000000000E+01 0. -1.
         -5    1    4    4    0  503  0.28053392755E+02 -0.53714590729E+02  0.10820237114E+03  0.12410517001E+03  0.47000000000E+01 0.  1.
<mgrwt>
<rscale>  0 0.11972383E+03</rscale>
<asrwt>0</asrwt>
<pdfrwt beam="1">  1        1 0.73302485E-01 0.12699719E+03</pdfrwt>
<pdfrwt beam="2">  1       -1 0.41734198E-02 0.12699719E+03</pdfrwt>
<totfact> 0.10516883E+04</totfact>
</mgrwt>
</event>
<event>
 8    1  0.3520338E-004  0.1426273E+03  0.7546771E-02  0.1220397E+00
          2   -1    0    0  501    0  0.00000000000E+00  0.00000000000E+00  0.66615687677E+03  0.66615687677E+03  0.00000000000E+00 0.  1.
         -2   -1    0    0    0  501 -0.00000000000E+00 -0.00000000000E+00 -0.24874447976E+02  0.24874447976E+02  0.00000000000E+00 0. -1.
         25    2    1    2    0    0 -0.63603494606E+02  0.25917882909E+02  0.32959982719E+03  0.35913588238E+03  0.12500157900E+03 0.  0.
         23    2    1    2    0    0  0.63603494606E+02 -0.25917882909E+02  0.31168260161E+03  0.33189544237E+03  0.91057121290E+02 0.  0.
          5    1    4    4  502    0  0.66849281949E+02 -0.53584400257E+02  0.23369224524E+03  0.24894631938E+03  0.47000000000E+01 0. -1.
         -5    1    4    4    0  502 -0.32457873423E+01  0.27666517348E+02  0.77990356368E+02  0.82949122985E+02  0.47000000000E+01 0.  1.
          5    1    3    3  503    0 -0.26760831101E+02  0.68074233850E+02  0.10799079998E+03  0.13051569360E+03  0.47000000000E+01 0. -1.
         -5    1    3    3    0  503 -0.36842663505E+02 -0.42156350941E+02  0.22160902720E+03  0.22862018878E+03  0.47000000000E+01 0. -1.
<mgrwt>
<rscale>  0 0.13487470E+03</rscale>
<asrwt>0</asrwt>
<pdfrwt beam="1">  1        2 0.10248566E+00 0.14262726E+03</pdfrwt>
<pdfrwt beam="2">  1       -2 0.38268387E-02 0.14262726E+03</pdfrwt>
<totfact> 0.12518829E+04</totfact>
</mgrwt>
</event>
<event>
 8    1  0.3520338E-004  0.1631962E+03  0.7546771E-02  0.1194173E+00
         -2   -1    0    0    0  501 -0.00000000000E+00  0.00000000000E+00  0.40945968961E+03  0.40945968961E+03  0.00000000000E+00 0.  1.
          2   -1    0    0  501    0  0.00000000000E+00 -0.00000000000E+00 -0.70041223525E+02  0.70041223525E+02  0.00000000000E+00 0. -1.
         25    2    1    2    0    0  0.82325248013E+02 -0.65075196421E+02  0.29771012462E+03  0.33950601014E+03  0.12498313875E+03 0.  0.
         23    2    1    2    0    0 -0.82325248013E+02  0.65075196421E+02  0.41708341463E+02  0.13999490299E+03  0.82745147692E+02 0.  0.
          5    1    4    4  502    0 -0.32874474188E+02  0.68983426282E+01 -0.22012030799E+02  0.40434362664E+02  0.47000000000E+01 0. -1.
         -5    1    4    4    0  502 -0.49450773825E+02  0.58176853793E+02  0.63720372263E+02  0.99560540328E+02  0.47000000000E+01 0.  1.
          5    1    3    3  503    0  0.77444701763E+02  0.35312272119E+00  0.77429339775E+02  0.10961386402E+03  0.47000000000E+01 0.  1.
         -5    1    3    3    0  503  0.48805462505E+01 -0.65428319142E+02  0.22028078485E+03  0.22989214613E+03  0.47000000000E+01 0.  1.
<mgrwt>
<rscale>  0 0.15524396E+03</rscale>
<asrwt>0</asrwt>
<pdfrwt beam="1">  1        2 0.10775573E-01 0.16319624E+03</pdfrwt>
<pdfrwt beam="2">  1       -2 0.62993797E-01 0.16319624E+03</pdfrwt>
<totfact> 0.13662731E+03</totfact>
</mgrwt>
</event>
<event>
 8    1  0.3520338E-004  0.1448677E+03  0.7546771E-02  0.1215224E+00
         -1   -1    0    0    0  501 -0.00000000000E+00  0.00000000000E+00  0.12419924074E+02  0.12419924074E+02  0.00000000000E+00 0.  1.
          1   -1    0    0  501    0  0.00000000000E+00 -0.00000000000E+00 -0.15275109021E+04  0.15275109021E+04  0.00000000000E+00 0. -1.
         25    2    1    2    0    0  0.69972070082E+02  0.21514603158E+02 -0.62308712087E+03  0.63970635706E+03  0.12501077684E+03 0.  0.
         23    2    1    2    0    0 -0.69972070082E+02 -0.21514603158E+02 -0.89200385720E+03  0.90022446916E+03  0.96820684131E+02 0.  0.
          5    1    4    4  502    0 -0.82067190437E+02  0.98885502518E+01 -0.73103003754E+03  0.73570361760E+03  0.47000000000E+01 0. -1.
         -5    1    3    3    0  503 -0.26846925436E+01  0.24078124538E+02 -0.18750117520E+02  0.30993879434E+02  0.47000000000E+01 0. -1.
          5    1    3    3  503    0  0.72656762625E+02 -0.25635213803E+01 -0.60433700335E+03  0.60871247762E+03  0.47000000000E+01 0. -1.
         -5    1    4    4    0  502  0.12095120355E+02 -0.31403153410E+02 -0.16097381966E+03  0.16452085155E+03  0.47000000000E+01 0.  1.
<mgrwt>
<rscale>  0 0.13860087E+03</rscale>
<asrwt>0</asrwt>
<pdfrwt beam="1">  1        1 0.23500177E+00 0.14486774E+03</pdfrwt>
<pdfrwt beam="2">  1       -1 0.19107568E-02 0.14486774E+03</pdfrwt>
<totfact> 0.49584104E+03</totfact>
</mgrwt>
</event>
<event>
 8    1  0.3520338E-004  0.1391915E+03  0.7546771E-02  0.1225762E+00
          1   -1    0    0  501    0  0.00000000000E+00  0.00000000000E+00  0.90997014640E+02  0.90997014640E+02  0.00000000000E+00 0. -1.
         -1   -1    0    0    0  501 -0.00000000000E+00 -0.00000000000E+00 -0.17469907183E+03  0.17469907183E+03  0.00000000000E+00 0.  1.
         25    2    1    2    0    0 -0.54604552205E+02 -0.27699148283E+02 -0.67876990388E+02  0.15485984889E+03  0.12500154813E+03 0.  0.
         23    2    1    2    0    0  0.54604552205E+02  0.27699148283E+02 -0.15825066801E+02  0.11083623758E+03  0.91023836907E+02 0.  0.
          5    1    3    3  502    0  0.25747477331E+02 -0.36799711820E+02  0.55914003814E+01  0.45502803619E+02  0.47000000000E+01 0.  1.
         -5    1    3    3    0  502 -0.80352029536E+02  0.91005635368E+01 -0.73468390769E+02  0.10935704527E+03  0.47000000000E+01 0.  1.
          5    1    4    4  503    0 -0.18100428691E+02 -0.88138277921E+01  0.12968961460E+02  0.24404774953E+02  0.47000000000E+01 0. -1.
         -5    1    4    4    0  503  0.72704980896E+02  0.36512976075E+02 -0.28794028260E+02  0.86431462631E+02  0.47000000000E+01 0.  1.
<mgrwt>
<rscale>  0 0.13114809E+03</rscale>
<asrwt>0</asrwt>
<pdfrwt beam="1">  1        1 0.13999541E-01 0.13919155E+03</pdfrwt>
<pdfrwt beam="2">  1       -1 0.26876780E-01 0.13919155E+03</pdfrwt>
<totfact> 0.48139838E+03</totfact>
</mgrwt>
</event>
<event>
 8    1  0.3520338E-004  0.1473957E+03  0.7546771E-02  0.1212821E+00
          4   -1    0    0  501    0  0.00000000000E+00  0.00000000000E+00  0.29146914791E+03  0.29146914791E+03  0.00000000000E+00 0.  1.
         -4   -1    0    0    0  501 -0.00000000000E+00 -0.00000000000E+00 -0.10657588753E+03  0.10657588753E+03  0.00000000000E+00 0. -1.
         25    2    1    2    0    0 -0.97850882451E+01 -0.77510653378E+02 -0.30818228183E+02  0.15058302086E+03  0.12498733393E+03 0.  0.
         23    2    1    2    0    0  0.97850882451E+01  0.77510653378E+02  0.21571148856E+03  0.24746201459E+03  0.92748870761E+02 0.  0.
          5    1    4    4  502    0 -0.38910326935E+02  0.16397444049E+02  0.86880574334E+02  0.96712015334E+02  0.47000000000E+01 0. -1.
         -5    1    4    4    0  502  0.48695415180E+02  0.61113209330E+02  0.12883091422E+03  0.15074999925E+03  0.47000000000E+01 0.  1.
          5    1    3    3  503    0  0.24012561497E+02 -0.38771697688E+02  0.41425342251E+02  0.61789939568E+02  0.47000000000E+01 0. -1.
         -5    1    3    3    0  503 -0.33797649742E+02 -0.38738955690E+02 -0.72243570434E+02  0.88793081290E+02  0.47000000000E+01 0. -1.
<mgrwt>
<rscale>  0 0.14037843E+03</rscale>
<asrwt>0</asrwt>
<pdfrwt beam="1">  1        4 0.44841407E-01 0.14739567E+03</pdfrwt>
<pdfrwt beam="2">  1       -4 0.16396291E-01 0.14739567E+03</pdfrwt>
<totfact> 0.26365797E+02</totfact>
</mgrwt>
</event>
<event>
 8    1  0.3520338E-004  0.1267780E+03  0.7546771E-02  0.1247593E+00
         -3   -1    0    0    0  501 -0.00000000000E+00  0.00000000000E+00  0.13973627694E+03  0.13973627694E+03  0.00000000000E+00 0.  1.
          3   -1    0    0  501    0  0.00000000000E+00 -0.00000000000E+00 -0.11329688845E+03  0.11329688845E+03  0.00000000000E+00 0. -1.
         25    2    1    2    0    0  0.10586961538E+02  0.18345386991E+02  0.75873317956E+02  0.14774783374E+03  0.12499610002E+03 0.  0.
         23    2    1    2    0    0 -0.10586961538E+02 -0.18345386991E+02 -0.49433929473E+02  0.10528533165E+03  0.90513262557E+02 0.  0.
          5    1    3    3  502    0 -0.41669093892E+02 -0.10269645833E+02  0.76658786320E+02  0.87979762056E+02  0.47000000000E+01 0. -1.
         -5    1    3    3    0  502  0.52256055430E+02  0.28615032824E+02 -0.78546836473E+00  0.59768071687E+02  0.47000000000E+01 0. -1.
          5    1    4    4  503    0 -0.30787236673E+02 -0.44926331990E+02 -0.45910488287E+02  0.71386918849E+02  0.47000000000E+01 0. -1.
         -5    1    4    4    0  503  0.20200275135E+02  0.26580944999E+02 -0.35234411858E+01  0.33898412800E+02  0.47000000000E+01 0.  1.
<mgrwt>
<rscale>  0 0.11731546E+03</rscale>
<asrwt>0</asrwt>
<pdfrwt beam="1">  1        3 0.17430290E-01 0.12677800E+03</pdfrwt>
<pdfrwt beam="2">  1       -3 0.21497889E-01 0.12677800E+03</pdfrwt>
<totfact> 0.12835096E+03</totfact>
</mgrwt>
</event>
<event>
 8    1  0.3520338E-004  0.1549867E+03  0.7546771E-02  0.1202773E+00
          2   -1    0    0  501    0  0.00000000000E+00  0.00000000000E+00  0.81033608604E+03  0.81033608604E+03  0.00000000000E+00 0.  1.
         -2   -1    0    0    0  501 -0.00000000000E+00 -0.00000000000E+00 -0.30072041952E+02  0.30072041952E+02  0.00000000000E+00 0. -1.
         25    2    1    2    0    0  0.79471664289E+02  0.45604116561E+02  0.24639452784E+03  0.29108612329E+03  0.12500154779E+03 0.  0.
         23    2    1    2    0    0 -0.79471664289E+02 -0.45604116561E+02  0.53386951624E+03  0.54932200470E+03  0.91337416213E+02 0.  0.
          5    1    4    4  502    0  0.20389332374E+02 -0.92058102746E+01  0.85558853550E+02  0.88560031833E+02  0.47000000000E+01 0. -1.
         -5    1    3    3    0  503  0.66597450122E+02 -0.67079242321E+01  0.40870217407E+02  0.78566413187E+02  0.47000000000E+01 0.  1.
          5    1    3    3  503    0  0.12874214167E+02  0.52312040793E+02  0.20552431043E+03  0.21251971010E+03  0.47000000000E+01 0.  1.
         -5    1    4    4    0  502 -0.99860996662E+02 -0.36398306286E+02  0.44831066269E+03  0.46076197287E+03  0.47000000000E+01 0.  1.
<mgrwt>
<rscale>  0 0.14814388E+03</rscale>
<asrwt>0</asrwt>
<pdfrwt beam="1">  1        2 0.12466707E+00 0.15498667E+03</pdfrwt>
<pdfrwt beam="2">  1       -2 0.46264686E-02 0.15498667E+03</pdfrwt>
<totfact> 0.74743523E+03</totfact>
</mgrwt>
</event>
<event>
 8    1  0.3520338E-004  0.1343453E+03  0.7546771E-02  0.1233415E+00
          3   -1    0    0  501    0  0.00000000000E+00  0.00000000000E+00  0.64462058438E+03  0.64462058438E+03  0.00000000000E+00 0. -1.
         -3   -1    0    0    0  501 -0.00000000000E+00 -0.00000000000E+00 -0.35321063961E+02  0.35321063961E+02  0.00000000000E+00 0.  1.
         25    2    1    2    0    0 -0.46852931045E+02  0.15133562366E+02  0.53598522641E+03  0.55256566231E+03  0.12499770549E+03 0.  0.
         23    2    1    2    0    0  0.46852931045E+02 -0.15133562366E+02  0.73314294006E+02  0.12737598603E+03  0.91790164254E+02 0.  0.
          5    1    3    3  502    0  0.24744655270E+02 -0.24521723269E+02  0.31336155823E+03  0.31532708265E+03  0.47000000000E+01 0.  1.
         -5    1    4    4    0  503  0.67579874092E+02  0.62550733041E+01  0.29413219675E+02  0.74117425859E+02  0.47000000000E+01 0.  1.
          5    1    4    4  503    0 -0.20726943047E+02 -0.21388635670E+02  0.43901074331E+02  0.53258560170E+02  0.47000000000E+01 0. -1.
         -5    1    3    3    0  502 -0.71597586315E+02  0.39655285634E+02  0.22262366818E+03  0.23723857966E+03  0.47000000000E+01 0.  1.
<mgrwt>
<rscale>  0 0.12606477E+03</rscale>
<asrwt>0</asrwt>
<pdfrwt beam="1">  1        3 0.99172389E-01 0.13434526E+03</pdfrwt>
<pdfrwt beam="2">  1       -3 0.54340103E-02 0.13434526E+03</pdfrwt>
<totfact> 0.42800647E+02</totfact>
</mgrwt>
</event>
<event>
 8    1  0.3520338E-004  0.1412402E+03  0.7546771E-02  0.1223269E+00
          2   -1    0    0  501    0  0.00000000000E+00  0.00000000000E+00  0.27556181061E+03  0.27556181061E+03  0.00000000000E+00 0. -1.
         -2   -1    0    0    0  501 -0.00000000000E+00 -0.00000000000E+00 -0.66342430267E+02  0.66342430267E+02  0.00000000000E+00 0.  1.
         25    2    1    2    0    0  0.41144823290E+02  0.51290575120E+02  0.53772960010E+02  0.15113020627E+03  0.12500075376E+03 0.  0.
         23    2    1    2    0    0 -0.41144823290E+02 -0.51290575120E+02  0.15544642034E+03  0.19077403461E+03  0.88924254874E+02 0.  0.
          5    1    3    3  502    0  0.26782306887E+02  0.65688634301E+02  0.86714264534E+02  0.11213269957E+03  0.47000000000E+01 0. -1.
         -5    1    4    4    0  503  0.53205432428E+00 -0.34899519458E+02  0.73425530732E+01  0.35975861711E+02  0.47000000000E+01 0.  1.
          5    1    4    4  503    0 -0.41676877614E+02 -0.16391055661E+02  0.14810386726E+03  0.15479817289E+03  0.47000000000E+01 0. -1.
         -5    1    3    3    0  502  0.14362516403E+02 -0.14398059181E+02 -0.32941304524E+02  0.38997506707E+02  0.47000000000E+01 0. -1.
<mgrwt>
<rscale>  0 0.13286244E+03</rscale>
<asrwt>0</asrwt>
<pdfrwt beam="1">  1        2 0.42394124E-01 0.14124025E+03</pdfrwt>
<pdfrwt beam="2">  1       -2 0.10206528E-01 0.14124025E+03</pdfrwt>
<totfact> 0.73445471E+03</totfact>
</mgrwt>
</event>
<event>
 8    1  0.3520338E-004  0.1255450E+03  0.7546771E-02  0.1252348E+00
          1   -1    0    0  501    0  0.00000000000E+00  0.00000000000E+00  0.76589661347E+02  0.76589661347E+02  0.00000000000E+00 0. -1.
         -1   -1    0    0    0  501 -0.00000000000E+00 -0.00000000000E+00 -0.15160658439E+03  0.15160658439E+03  0.00000000000E+00 0.  1.
         25    2    1    2    0    0  0.11176990807E+02  0.30780628712E+01 -0.25697848200E+02  0.12814804413E+03  0.12500856857E+03 0.  0.
         23    2    1    2    0    0 -0.11176990807E+02 -0.30780628712E+01 -0.49319074847E+02  0.10004820161E+03  0.86272080697E+02 0.  0.
          5    1    3    3  502    0 -0.37668955697E+02 -0.24599064569E+02 -0.49440103745E+02  0.67011029385E+02  0.47000000000E+01 0.  1.
         -5    1    4    4    0  503 -0.13456032874E+02 -0.43608372263E+02 -0.30240939221E+02  0.54948697502E+02  0.47000000000E+01 0.  1.
          5    1    4    4  503    0  0.22790420663E+01  0.40530309392E+02 -0.19078135626E+02  0.45099504112E+02  0.47000000000E+01 0. -1.
         -5    1    3    3    0  502  0.48845946504E+02  0.27677127441E+02  0.23742255545E+02  0.61137014742E+02  0.47000000000E+01 0.  1.
<mgrwt>
<rscale>  0 0.11456148E+03</rscale>
<asrwt>0</asrwt>
<pdfrwt beam="1">  1        1 0.11783025E-01 0.12554498E+03</pdfrwt>
<pdfrwt beam="2">  1       -1 0.23324090E-01 0.12554498E+03</pdfrwt>
<totfact> 0.75544369E+03</totfact>
</mgrwt>
</event>
<event>
 8    1  0.3520338E-004  0.1264621E+03  0.7546771E-02  0.1247902E+00
         -2   -1    0    0    0  501 -0.00000000000E+00  0.00000000000E+00  0.27656645351E+03  0.27656645351E+03  0.00000000000E+00 0. -1.
          2   -1    0    0  501    0  0.00000000000E+00 -0.00000000000E+00 -0.44678371748E+02  0.44678371748E+02  0.00000000000E+00 0.  1.
         25    2    1    2    0    0  0.11346138092E+02  0.15490548899E+02  0.15817725638E+03  0.20251596737E+03  0.12499592254E+03 0.  0.
         23    2    1    2    0    0 -0.11346138092E+02 -0.15490548899E+02  0.73710825384E+02  0.11872885789E+03  0.91074496766E+02 0.  0.
          5    1    4    4  502    0 -0.28983165994E+02  0.20745419576E+02  0.69101890302E+02  0.77894528613E+02  0.47000000000E+01 0. -1.
         -5    1    3    3    0  503 -0.41239256231E+02 -0.28591236551E+02  0.34750254370E+02  0.61219320813E+02  0.47000000000E+01 0. -1.
          5    1    3    3  503    0  0.52585394323E+02  0.44081785450E+02  0.12342700201E+03  0.14129664656E+03  0.47000000000E+01 0. -1.
         -5    1    4    4    0  502  0.17637027902E+02 -0.36235968475E+02  0.46089350819E+01  0.40834329273E+02  0.47000000000E+01 0.  1.
<mgrwt>
<rscale>  0 0.11713334E+03</rscale>
<asrwt>0</asrwt>
<pdfrwt beam="1">  1        2 0.68735958E-02 0.12646214E+03</pdfrwt>
<pdfrwt beam="2">  1       -2 0.42548684E-01 0.12646214E+03</pdfrwt>
<totfact> 0.51601617E+03</totfact>
</mgrwt>
</event>
<event>
 8    1  0.3520338E-004  0.2572387E+03  0.7546771E-02  0.1111024E+00
         -3   -1    0    0    0  501 -0.00000000000E+00  0.00000000000E+00  0.12236161122E+03  0.12236161122E+03  0.00000000000E+00 0.  1.
          3   -1    0    0  501    0  0.00000000000E+00 -0.00000000000E+00 -0.51314491659E+03  0.51314491659E+03  0.00000000000E+00 0. -1.
         25    2    1    2    0    0  0.21913759438E+03  0.50248705776E+02 -0.18333487715E+03  0.31588516896E+03  0.12500218033E+03 0.  0.
         23    2    1    2    0    0 -0.21913759438E+03 -0.50248705776E+02 -0.20744842821E+03  0.31962135885E+03  0.92610717329E+02 0.  0.
          5    1    3    3  502    0  0.13967774845E+03  0.50504578144E+02 -0.18370629724E+03  0.23628516558E+03  0.47000000000E+01 0.  1.
         -5    1    4    4    0  503 -0.84024244696E+02 -0.45307072894E+02 -0.38149739502E+02  0.10290916954E+03  0.47000000000E+01 0.  1.
          5    1    4    4  503    0 -0.13511334968E+03 -0.49416328823E+01 -0.16929868871E+03  0.21671218931E+03  0.47000000000E+01 0. -1.
         -5    1    3    3    0  502  0.79459845932E+02 -0.25587236795E+00  0.37142008937E+00  0.79600003386E+02  0.47000000000E+01 0.  1.
<mgrwt>
<rscale>  0 0.25364236E+03</rscale>
<asrwt>0</asrwt>
<pdfrwt beam="1">  1        3 0.78945372E-01 0.25723873E+03</pdfrwt>
<pdfrwt beam="2">  1       -3 0.18824863E-01 0.25723873E+03</pdfrwt>
<totfact> 0.95728129E+01</totfact>
</mgrwt>
</event>
<event>
 8    1  0.3520338E-004  0.1540938E+03  0.7546771E-02  0.1204442E+00
          1   -1    0    0  501    0  0.00000000000E+00  0.00000000000E+00  0.54085276003E+03  0.54085276003E+03  0.00000000000E+00 0. -1.
         -1   -1    0    0    0  501 -0.00000000000E+00 -0.00000000000E+00 -0.37185892627E+02  0.37185892627E+02  0.00000000000E+00 0.  1.
         25    2    1    2    0    0  0.46270772954E+01  0.89994464082E+02  0.31428440728E+03  0.35002796893E+03  0.12499790783E+03 0.  0.
         23    2    1    2    0    0 -0.46270772954E+01 -0.89994464082E+02  0.18938246012E+03  0.22801068373E+03  0.89458047614E+02 0.  0.
          5    1    4    4  502    0  0.26079384661E+02 -0.61999488945E+02  0.16803871229E+03  0.18106123208E+03  0.47000000000E+01 0. -1.
         -5    1    4    4    0  502 -0.30706461956E+02 -0.27994975138E+02  0.21343747833E+02  0.46949451652E+02  0.47000000000E+01 0.  1.
          5    1    3    3  503    0  0.54555931357E+02  0.79263977567E+02  0.24914683611E+03  0.26712424774E+03  0.47000000000E+01 0. -1.
         -5    1    3    3    0  503 -0.49928854062E+02  0.10730486515E+02  0.65137571167E+02  0.82903721185E+02  0.47000000000E+01 0. -1.
<mgrwt>
<rscale>  0 0.14681488E+03</rscale>
<asrwt>0</asrwt>
<pdfrwt beam="1">  1        1 0.83208111E-01 0.15409377E+03</pdfrwt>
<pdfrwt beam="2">  1       -1 0.57209069E-02 0.15409377E+03</pdfrwt>
<totfact> 0.56544794E+03</totfact>
</mgrwt>
</event>
<event>
 8    1  0.3520338E-004  0.1303554E+03  0.7546771E-02  0.1239442E+00
          2   -1    0    0  501    0  0.00000000000E+00  0.00000000000E+00  0.45198323380E+03  0.45198323380E+03  0.00000000000E+00 0. -1.
         -2   -1    0    0    0  501 -0.00000000000E+00 -0.00000000000E+00 -0.44049040977E+02  0.44049040977E+02  0.00000000000E+00 0.  1.
         25    2    1    2    0    0 -0.21133653985E+02 -0.30345290414E+02  0.79985585381E+02  0.15293866057E+03  0.12500028818E+03 0.  0.
         23    2    1    2    0    0  0.21133653985E+02  0.30345290414E+02  0.32794860744E+03  0.34309361421E+03  0.93784172480E+02 0.  0.
          5    1    4    4  502    0 -0.80038281047E+01 -0.30096829878E+02  0.13918207892E+03  0.14270116162E+03  0.47000000000E+01 0. -1.
         -5    1    3    3    0  503 -0.65798377268E+02  0.46470029591E+01  0.17501730079E+02  0.68406298273E+02  0.47000000000E+01 0. -1.
          5    1    3    3  503    0  0.44664723283E+02 -0.34992293373E+02  0.62483855302E+02  0.84532362293E+02  0.47000000000E+01 0. -1.
         -5    1    4    4    0  502  0.29137482089E+02  0.60442120292E+02  0.18876652852E+03  0.20039245259E+03  0.47000000000E+01 0.  1.
<mgrwt>
<rscale>  0 0.12224308E+03</rscale>
<asrwt>0</asrwt>
<pdfrwt beam="1">  1        2 0.69535879E-01 0.13035544E+03</pdfrwt>
<pdfrwt beam="2">  1       -2 0.67767759E-02 0.13035544E+03</pdfrwt>
<totfact> 0.81344925E+03</totfact>
</mgrwt>
</event>
<event>
 8    1  0.3520338E-004  0.1265565E+03  0.7546771E-02  0.1247465E+00
         -1   -1    0    0    0  501 -0.00000000000E+00  0.00000000000E+00  0.45342442123E+03  0.45342442123E+03  0.00000000000E+00 0.  1.
          1   -1    0    0  501    0  0.00000000000E+00 -0.00000000000E+00 -0.27263746940E+02  0.27263746940E+02  0.00000000000E+00 0. -1.
         25    2    1    2    0    0 -0.16041499959E+02 -0.11583410906E+02  0.21148869353E+03  0.24646301348E+03  0.12500017757E+03 0.  0.
         23    2    1    2    0    0  0.16041499959E+02  0.11583410906E+02  0.21467198076E+03  0.23422515469E+03  0.91574333946E+02 0.  0.
          5    1    4    4  502    0  0.25654614415E+02 -0.27876289708E+02  0.41905554716E+02  0.56686967503E+02  0.47000000000E+01 0. -1.
         -5    1    4    4    0  502 -0.96131144561E+01  0.39459700614E+02  0.17276642604E+03  0.17753818719E+03  0.47000000000E+01 0.  1.
          5    1    3    3  503    0 -0.15986338284E+02  0.53197510096E+02  0.13537280455E+03  0.14640158573E+03  0.47000000000E+01 0. -1.
         -5    1    3    3    0  503 -0.55161674853E-01 -0.64780921001E+02  0.76115888986E+02  0.10006142776E+03  0.47000000000E+01 0. -1.
<mgrwt>
<rscale>  0 0.11739075E+03</rscale>
<asrwt>0</asrwt>
<pdfrwt beam="1">  1        1 0.41944230E-02 0.12655651E+03</pdfrwt>
<pdfrwt beam="2">  1       -1 0.69757597E-01 0.12655651E+03</pdfrwt>
<totfact> 0.43742104E+03</totfact>
</mgrwt>
</event>
<event>
 8    1  0.3520338E-004  0.1439017E+03  0.7546771E-02  0.1217984E+00
          1   -1    0    0  501    0  0.00000000000E+00  0.00000000000E+00  0.99521912510E+03  0.99521912510E+03  0.00000000000E+00 0. -1.
         -1   -1    0    0    0  501 -0.00000000000E+00 -0.00000000000E+00 -0.17710577056E+02  0.17710577056E+02  0.00000000000E+00 0.  1.
         25    2    1    2    0    0  0.64158914587E+02 -0.31089504338E+02  0.63297833415E+03  0.64912962091E+03  0.12499907857E+03 0.  0.
         23    2    1    2    0    0 -0.64158914587E+02  0.31089504338E+02  0.34453021389E+03  0.36380008124E+03  0.92555427850E+02 0.  0.
          5    1    4    4  502    0 -0.19473190517E+02 -0.31048936608E+02  0.15503883855E+03  0.15938121933E+03  0.47000000000E+01 0. -1.
         -5    1    4    4    0  502 -0.44685724070E+02  0.62138440946E+02  0.18949137534E+03  0.20441886191E+03  0.47000000000E+01 0.  1.
          5    1    3    3  503    0 -0.37758626677E+02 -0.49111773526E+01  0.15408308766E+03  0.15878766153E+03  0.47000000000E+01 0. -1.
         -5    1    3    3    0  503  0.10191754126E+03 -0.26178326985E+02  0.47889524649E+03  0.49034195938E+03  0.47000000000E+01 0. -1.
<mgrwt>
<rscale>  0 0.13659623E+03</rscale>
<asrwt>0</asrwt>
<pdfrwt beam="1">  1        1 0.15311059E+00 0.14390168E+03</pdfrwt>
<pdfrwt beam="2">  1       -1 0.27247049E-02 0.14390168E+03</pdfrwt>
<totfact> 0.68272003E+03</totfact>
</mgrwt>
</event>
<event>
 8    1  0.3520338E-004  0.1280077E+03  0.7546771E-02  0.1245142E+00
          1   -1    0    0  501    0  0.00000000000E+00  0.00000000000E+00  0.85266335062E+03  0.85266335062E+03  0.00000000000E+00 0. -1.
         -1   -1    0    0    0  501 -0.00000000000E+00 -0.00000000000E+00 -0.15986276655E+02  0.15986276655E+02  0.00000000000E+00 0.  1.
         25    2    1    2    0    0  0.25596687366E+02 -0.10295721450E+02  0.34676486676E+03  0.36963746221E+03  0.12499915346E+03 0.  0.
         23    2    1    2    0    0 -0.25596687366E+02  0.10295721450E+02  0.48991220721E+03  0.49901216506E+03  0.90763306624E+02 0.  0.
          5    1    3    3  502    0 -0.44287213492E+02  0.22463028077E+02  0.15664046631E+03  0.16439060373E+03  0.47000000000E+01 0. -1.
         -5    1    3    3    0  502  0.69883900858E+02 -0.32758749527E+02  0.19012440045E+03  0.20524685848E+03  0.47000000000E+01 0. -1.
          5    1    4    4  503    0  0.16047482848E+02  0.40055296633E+02  0.23305185199E+03  0.23705949508E+03  0.47000000000E+01 0. -1.
         -5    1    4    4    0  503 -0.41644170214E+02 -0.29759575183E+02  0.25686035522E+03  0.26195266998E+03  0.47000000000E+01 0.  1.
<mgrwt>
<rscale>  0 0.11876883E+03</rscale>
<asrwt>0</asrwt>
<pdfrwt beam="1">  1        1 0.13117894E+00 0.12800774E+03</pdfrwt>
<pdfrwt beam="2">  1       -1 0.24594278E-02 0.12800774E+03</pdfrwt>
<totfact> 0.10099280E+04</totfact>
</mgrwt>
</event>
<event>
 8    1  0.3520338E-004  0.1715320E+03  0.7546771E-02  0.1182738E+00
          1   -1    0    0  501    0  0.00000000000E+00  0.00000000000E+00  0.51712926294E+03  0.51712926294E+03  0.00000000000E+00 0. -1.
         -1   -1    0    0    0  501 -0.00000000000E+00 -0.00000000000E+00 -0.50445572897E+02  0.50445572897E+02  0.00000000000E+00 0.  1.
         25    2    1    2    0    0 -0.92137445122E+02 -0.72856823366E+02  0.28991029255E+03  0.33685488015E+03  0.12500322817E+03 0.  0.
         23    2    1    2    0    0  0.92137445122E+02  0.72856823366E+02  0.17677339750E+03  0.23071995569E+03  0.90473412579E+02 0.  0.
          5    1    4    4  502    0  0.69176903118E+02  0.67494684200E+01  0.12653716292E+03  0.14444633207E+03  0.47000000000E+01 0. -1.
         -5    1    3    3    0  503 -0.10700536830E+03 -0.87759552951E+02  0.19276780251E+03  0.23734658974E+03  0.47000000000E+01 0. -1.
          5    1    3    3  503    0  0.14867923182E+02  0.14902729586E+02  0.97142490042E+02  0.99508290410E+02  0.47000000000E+01 0. -1.
         -5    1    4    4    0  502  0.22960542005E+02  0.66107354946E+02  0.50236234581E+02  0.86273623616E+02  0.47000000000E+01 0.  1.
<mgrwt>
<rscale>  0 0.16539388E+03</rscale>
<asrwt>0</asrwt>
<pdfrwt beam="1">  1        1 0.79558345E-01 0.17153202E+03</pdfrwt>
<pdfrwt beam="2">  1       -1 0.77608577E-02 0.17153202E+03</pdfrwt>
<totfact> 0.38132689E+03</totfact>
</mgrwt>
</event>
<event>
 8    1  0.3520338E-004  0.1393421E+03  0.7546771E-02  0.1224588E+00
         -1   -1    0    0    0  501 -0.00000000000E+00  0.00000000000E+00  0.23582775492E+03  0.23582775492E+03  0.00000000000E+00 0.  1.
          1   -1    0    0  501    0  0.00000000000E+00 -0.00000000000E+00 -0.75373251145E+02  0.75373251145E+02  0.00000000000E+00 0. -1.
         25    2    1    2    0    0 -0.57679645000E+01  0.61291022232E+02  0.13957103623E+03  0.19722141626E+03  0.12500541611E+03 0.  0.
         23    2    1    2    0    0  0.57679645000E+01 -0.61291022232E+02  0.20883467546E+02  0.11397958981E+03  0.93623548611E+02 0.  0.
          5    1    4    4  502    0  0.46014575277E+02 -0.35605005909E+02  0.29234775512E+02  0.65282613941E+02  0.47000000000E+01 0. -1.
         -5    1    3    3    0  503 -0.46878693996E+02  0.16952644133E+02  0.12527688632E+03  0.13491253589E+03  0.47000000000E+01 0.  1.
          5    1    3    3  503    0  0.41110729496E+02  0.44338378099E+02  0.14294149916E+02  0.62308880378E+02  0.47000000000E+01 0.  1.
         -5    1    4    4    0  502 -0.40246610777E+02 -0.25686016324E+02 -0.83513079654E+01  0.48696975865E+02  0.47000000000E+01 0.  1.
<mgrwt>
<rscale>  0 0.13195163E+03</rscale>
<asrwt>0</asrwt>
<pdfrwt beam="1">  1        1 0.11595885E-01 0.13934207E+03</pdfrwt>
<pdfrwt beam="2">  1       -1 0.36281193E-01 0.13934207E+03</pdfrwt>
<totfact> 0.37091890E+03</totfact>
</mgrwt>
</event>
<event>
 8    1  0.3520338E-004  0.1341798E+03  0.7546771E-02  0.1237620E+00
          1   -1    0    0  501    0  0.00000000000E+00  0.00000000000E+00  0.17659338200E+03  0.17659338200E+03  0.00000000000E+00 0. -1.
         -1   -1    0    0    0  501 -0.00000000000E+00 -0.00000000000E+00 -0.82735120157E+02  0.82735120157E+02  0.00000000000E+00 0.  1.
         25    2    1    2    0    0 -0.47975406164E+02  0.91006521363E+01  0.14747248996E+02  0.13498774721E+03  0.12497899455E+03 0.  0.
         23    2    1    2    0    0  0.47975406164E+02 -0.91006521363E+01  0.79111012845E+02  0.12434075494E+03  0.82568816875E+02 0.  0.
          5    1    4    4  502    0  0.33279732547E+02  0.34187371460E+02  0.53077512310E+02  0.71523627416E+02  0.47000000000E+01 0. -1.
         -5    1    3    3    0  503  0.27766737228E+02  0.15042656391E+02 -0.32369067135E+02  0.45465588248E+02  0.47000000000E+01 0. -1.
          5    1    3    3  503    0 -0.75742143392E+02 -0.59420042547E+01  0.47116316131E+02  0.89522158966E+02  0.47000000000E+01 0. -1.
         -5    1    4    4    0  502  0.14695673616E+02 -0.43288023596E+02  0.26033500535E+02  0.52817127525E+02  0.47000000000E+01 0.  1.
<mgrwt>
<rscale>  0 0.12338176E+03</rscale>
<asrwt>0</asrwt>
<pdfrwt beam="1">  1        1 0.27168213E-01 0.13417977E+03</pdfrwt>
<pdfrwt beam="2">  1       -1 0.12728480E-01 0.13417977E+03</pdfrwt>
<totfact> 0.68089840E+03</totfact>
</mgrwt>
</event>
<event>
 8    1  0.3520338E-004  0.1285379E+03  0.7546771E-02  0.1244629E+00
         -2   -1    0    0    0  501 -0.00000000000E+00  0.00000000000E+00  0.99479995068E+02  0.99479995068E+02  0.00000000000E+00 0.  1.
          2   -1    0    0  501    0  0.00000000000E+00 -0.00000000000E+00 -0.12989567634E+03  0.12989567634E+03  0.00000000000E+00 0. -1.
         25    2    1    2    0    0 -0.27408947945E+02  0.12076472415E+02  0.41227624952E+01  0.12860404308E+03  0.12499964445E+03 0.  0.
         23    2    1    2    0    0  0.27408947945E+02 -0.12076472415E+02 -0.34538443771E+02  0.10077162833E+03  0.89804929518E+02 0.  0.
          5    1    4    4  502    0  0.18120955585E+02  0.29629530693E+02 -0.44502338826E+02  0.56646502817E+02  0.47000000000E+01 0. -1.
         -5    1    4    4    0  502  0.92879923595E+01 -0.41706003108E+02  0.99638950552E+01  0.44125125518E+02  0.47000000000E+01 0.  1.
          5    1    3    3  503    0  0.29486008765E+02 -0.37807039964E+02  0.18194653017E+02  0.51496916239E+02  0.47000000000E+01 0.  1.
         -5    1    3    3    0  503 -0.56894956709E+02  0.49883512379E+02 -0.14071890522E+02  0.77107126837E+02  0.47000000000E+01 0.  1.
<mgrwt>
<rscale>  0 0.11907600E+03</rscale>
<asrwt>0</asrwt>
<pdfrwt beam="1">  1        2 0.19983950E-01 0.12853794E+03</pdfrwt>
<pdfrwt beam="2">  1       -2 0.15304615E-01 0.12853794E+03</pdfrwt>
<totfact> 0.86426334E+03</totfact>
</mgrwt>
</event>
<event>
 8    1  0.3520338E-004  0.1545679E+03  0.7546771E-02  0.1203501E+00
         -1   -1    0    0    0  501 -0.00000000000E+00  0.00000000000E+00  0.76115730478E+02  0.76115730478E+02  0.00000000000E+00 0.  1.
          1   -1    0    0  501    0  0.00000000000E+00 -0.00000000000E+00 -0.26320995476E+03  0.26320995476E+03  0.00000000000E+00 0. -1.
         25    2    1    2    0    0  0.79835743874E+02  0.43514195286E+02 -0.97188179398E+02  0.18258365882E+03  0.12499607618E+03 0.  0.
         23    2    1    2    0    0 -0.79835743874E+02 -0.43514195286E+02 -0.89906044888E+02  0.15674202642E+03  0.90651722261E+02 0.  0.
          5    1    3    3  502    0  0.10633457015E+03  0.37227674247E+02 -0.10477453130E+03  0.15392443908E+03  0.47000000000E+01 0.  1.
         -5    1    4    4    0  503 -0.31344059281E+02 -0.48041437218E+02 -0.37683278761E+01  0.57677725659E+02  0.47000000000E+01 0.  1.
          5    1    4    4  503    0 -0.48491684593E+02  0.45272419320E+01 -0.86137717012E+02  0.99064300766E+02  0.47000000000E+01 0. -1.
         -5    1    3    3    0  502 -0.26498826272E+02  0.62865210390E+01  0.75863519018E+01  0.28659219734E+02  0.47000000000E+01 0.  1.
<mgrwt>
<rscale>  0 0.14756236E+03</rscale>
<asrwt>0</asrwt>
<pdfrwt beam="1">  1        1 0.40493840E-01 0.15456795E+03</pdfrwt>
<pdfrwt beam="2">  1       -1 0.11710112E-01 0.15456795E+03</pdfrwt>
<totfact> 0.47580798E+03</totfact>
</mgrwt>
</event>
<event>
 8    1  0.3520338E-004  0.1390124E+03  0.7546771E-02  0.1224682E+00
         -4   -1    0    0    0  501 -0.00000000000E+00  0.00000000000E+00  0.13945553351E+03  0.13945553351E+03  0.00000000000E+00 0.  1.
          4   -1    0    0  501    0  0.00000000000E+00 -0.00000000000E+00 -0.11366444864E+03  0.11366444864E+03  0.00000000000E+00 0. -1.
         25    2    1    2    0    0  0.26989023704E+02  0.54498535115E+02  0.97384740721E+01  0.13935307138E+03  0.12500377152E+03 0.  0.
         23    2    1    2    0    0 -0.26989023704E+02 -0.54498535115E+02  0.16052610801E+02  0.11376691077E+03  0.94798343561E+02 0.  0.
          5    1    4    4  502    0 -0.60124204051E+02 -0.19273594561E+02  0.26680307165E+01  0.63368760031E+02  0.47000000000E+01 0. -1.
         -5    1    3    3    0  503  0.94166668566E+01  0.85108369089E+02 -0.25286756218E+02  0.89407036321E+02  0.47000000000E+01 0.  1.
          5    1    3    3  503    0  0.17572356848E+02 -0.30609833974E+02  0.35025230291E+02  0.49946035058E+02  0.47000000000E+01 0.  1.
         -5    1    4    4    0  502  0.33135180346E+02 -0.35224940554E+02  0.13384580084E+02  0.50398150736E+02  0.47000000000E+01 0.  1.
<mgrwt>
<rscale>  0 0.13188711E+03</rscale>
<asrwt>0</asrwt>
<pdfrwt beam="1">  1        4 0.17486838E-01 0.13901238E+03</pdfrwt>
<pdfrwt beam="2">  1       -4 0.21454698E-01 0.13901238E+03</pdfrwt>
<totfact> 0.94656704E+02</totfact>
</mgrwt>
</event>
<event>
 8    1  0.3520338E-004  0.1923778E+03  0.7546771E-02  0.1161596E+00
          2   -1    0    0  501    0  0.00000000000E+00  0.00000000000E+00  0.23286855803E+04  0.23286855803E+04  0.00000000000E+00 0. -1.
         -2   -1    0    0    0  501 -0.00000000000E+00 -0.00000000000E+00 -0.15358161143E+02  0.15358161143E+02  0.00000000000E+00 0.  1.
         25    2    1    2    0    0 -0.93371958625E+02  0.11254996685E+03  0.15552581457E+04  0.15671110765E+04  0.12499363350E+03 0.  0.
         23    2    1    2    0    0  0.93371958625E+02 -0.11254996685E+03  0.75806927344E+03  0.77693266499E+03  0.87003016641E+02 0.  0.
          5    1    3    3  502    0 -0.77144727267E+02  0.87621452386E+00  0.74966823644E+03  0.75364224366E+03  0.47000000000E+01 0.  1.
         -5    1    4    4    0  503  0.31210186955E+02 -0.77082121899E+01  0.59482428986E+02  0.67777147056E+02  0.47000000000E+01 0.  1.
          5    1    4    4  503    0  0.62161771670E+02 -0.10484175466E+03  0.69858684445E+03  0.70915551794E+03  0.47000000000E+01 0. -1.
         -5    1    3    3    0  502 -0.16227231358E+02  0.11167375233E+03  0.80558990929E+03  0.81346883281E+03  0.47000000000E+01 0.  1.
<mgrwt>
<rscale>  0 0.18656593E+03</rscale>
<asrwt>0</asrwt>
<pdfrwt beam="1">  1        2 0.35825904E+00 0.19237782E+03</pdfrwt>
<pdfrwt beam="2">  1       -2 0.23627959E-02 0.19237782E+03</pdfrwt>
<totfact> 0.30131677E+03</totfact>
</mgrwt>
</event>
<event>
 8    1  0.3520338E-004  0.1322953E+03  0.7546771E-02  0.1236561E+00
          2   -1    0    0  501    0  0.00000000000E+00  0.00000000000E+00  0.40535493422E+02  0.40535493422E+02  0.00000000000E+00 0. -1.
         -2   -1    0    0    0  501 -0.00000000000E+00 -0.00000000000E+00 -0.40775562792E+03  0.40775562792E+03  0.00000000000E+00 0.  1.
         25    2    1    2    0    0  0.41467850404E+02  0.12613389833E+02 -0.29435345245E+03  0.32271660148E+03  0.12499347857E+03 0.  0.
         23    2    1    2    0    0 -0.41467850404E+02 -0.12613389833E+02 -0.72866682045E+02  0.12557451985E+03  0.92632210725E+02 0.  0.
          5    1    3    3  502    0 -0.55677324778E+01  0.54646625040E+02 -0.21097462021E+03  0.21805878484E+03  0.47000000000E+01 0. -1.
         -5    1    3    3    0  502  0.47035582882E+02 -0.42033235207E+02 -0.83378832236E+02  0.10465781664E+03  0.47000000000E+01 0. -1.
          5    1    4    4  503    0 -0.62743885411E+02 -0.68008151517E+01 -0.17302936903E+02  0.65608900834E+02  0.47000000000E+01 0. -1.
         -5    1    4    4    0  503  0.21276035007E+02 -0.58125746815E+01 -0.55563745143E+02  0.59965619019E+02  0.47000000000E+01 0.  1.
<mgrwt>
<rscale>  0 0.12404999E+03</rscale>
<asrwt>0</asrwt>
<pdfrwt beam="1">  1        2 0.62362299E-02 0.13229531E+03</pdfrwt>
<pdfrwt beam="2">  1       -2 0.62731634E-01 0.13229531E+03</pdfrwt>
<totfact> 0.27070281E+03</totfact>
</mgrwt>
</event>
<event>
 8    1  0.3520338E-004  0.1378644E+03  0.7546771E-02  0.1230122E+00
         -3   -1    0    0    0  501 -0.00000000000E+00  0.00000000000E+00  0.42486913423E+02  0.42486913423E+02  0.00000000000E+00 0.  1.
          3   -1    0    0  501    0  0.00000000000E+00 -0.00000000000E+00 -0.42174162936E+03  0.42174162936E+03  0.00000000000E+00 0. -1.
         25    2    1    2    0    0  0.18297047292E+02 -0.55210323417E+02 -0.31197265539E+03  0.34107702086E+03  0.12499453868E+03 0.  0.
         23    2    1    2    0    0 -0.18297047292E+02  0.55210323417E+02 -0.67282060547E+02  0.12315152192E+03  0.85184857387E+02 0.  0.
          5    1    4    4  502    0 -0.40292866592E+02  0.64060497559E+02 -0.63048447601E+02  0.98612672566E+02  0.47000000000E+01 0. -1.
         -5    1    3    3    0  503  0.39058765095E+02 -0.13081434558E+02 -0.28229019131E+03  0.28531833655E+03  0.47000000000E+01 0. -1.
          5    1    3    3  503    0 -0.20761717803E+02 -0.42128888859E+02 -0.29682464077E+02  0.55758684313E+02  0.47000000000E+01 0. -1.
         -5    1    4    4    0  502  0.21995819299E+02 -0.88501741415E+01 -0.42336129461E+01  0.24538849353E+02  0.47000000000E+01 0.  1.
<mgrwt>
<rscale>  0 0.12821944E+03</rscale>
<asrwt>0</asrwt>
<pdfrwt beam="1">  1        3 0.64883325E-01 0.13786441E+03</pdfrwt>
<pdfrwt beam="2">  1       -3 0.65364484E-02 0.13786441E+03</pdfrwt>
<totfact> 0.80329004E+02</totfact>
</mgrwt>
</event>
<event>
 8    1  0.3520338E-004  0.1258149E+03  0.7546771E-02  0.1248743E+00
         -1   -1    0    0    0  501 -0.00000000000E+00  0.00000000000E+00  0.16632916143E+02  0.16632916143E+02  0.00000000000E+00 0.  1.
          1   -1    0    0  501    0  0.00000000000E+00 -0.00000000000E+00 -0.81918029489E+03  0.81918029489E+03  0.00000000000E+00 0. -1.
         25    2    1    2    0    0 -0.13455505115E+02 -0.48719907341E+01 -0.59870595590E+03  0.61178282103E+03  0.12499844625E+03 0.  0.
         23    2    1    2    0    0  0.13455505115E+02  0.48719907341E+01 -0.20384142285E+03  0.22403039001E+03  0.91834106217E+02 0.  0.
          5    1    3    3  502    0 -0.46804067442E+02 -0.49436164550E+02 -0.37852433483E+03  0.38462620445E+03  0.47000000000E+01 0.  1.
         -5    1    4    4    0  503  0.34252973562E+02  0.15253258666E+02 -0.29121201426E+02  0.47708096485E+02  0.47000000000E+01 0.  1.
          5    1    4    4  503    0 -0.20797468446E+02 -0.10381267932E+02 -0.17472022142E+03  0.17632229352E+03  0.47000000000E+01 0. -1.
         -5    1    3    3    0  502  0.33348562327E+02  0.44564173816E+02 -0.22018162107E+03  0.22715661657E+03  0.47000000000E+01 0.  1.
<mgrwt>
<rscale>  0 0.11664137E+03</rscale>
<asrwt>0</asrwt>
<pdfrwt beam="1">  1        1 0.12602773E+00 0.12581494E+03</pdfrwt>
<pdfrwt beam="2">  1       -1 0.25589103E-02 0.12581494E+03</pdfrwt>
<totfact> 0.10128651E+04</totfact>
</mgrwt>
</event>
<event>
 8    1  0.3520338E-004  0.1569421E+03  0.7546771E-02  0.1200179E+00
         -1   -1    0    0    0  501 -0.00000000000E+00  0.00000000000E+00  0.30945071667E+03  0.30945071667E+03  0.00000000000E+00 0.  1.
          1   -1    0    0  501    0  0.00000000000E+00 -0.00000000000E+00 -0.71641664441E+02  0.71641664441E+02  0.00000000000E+00 0. -1.
         25    2    1    2    0    0 -0.60225909367E+02 -0.73352486582E+02  0.82195561233E+02  0.17716354840E+03  0.12499226035E+03 0.  0.
         23    2    1    2    0    0  0.60225909367E+02  0.73352486582E+02  0.15561349100E+03  0.20392883272E+03  0.91453063294E+02 0.  0.
          5    1    4    4  502    0  0.72293460699E+02  0.39608668963E+02  0.61027797845E+02  0.10267265082E+03  0.47000000000E+01 0. -1.
         -5    1    4    4    0  502 -0.12067551333E+02  0.33743817619E+02  0.94585693155E+02  0.10125618190E+03  0.47000000000E+01 0.  1.
          5    1    3    3  503    0 -0.73594965204E+02 -0.13872505317E+02  0.39918209586E+00  0.75039420663E+02  0.47000000000E+01 0. -1.
         -5    1    3    3    0  503  0.13369055837E+02 -0.59479981265E+02  0.81796379138E+02  0.10212412773E+03  0.47000000000E+01 0. -1.
<mgrwt>
<rscale>  0 0.15023942E+03</rscale>
<asrwt>0</asrwt>
<pdfrwt beam="1">  1        1 0.11021795E-01 0.15694207E+03</pdfrwt>
<pdfrwt beam="2">  1       -1 0.47607802E-01 0.15694207E+03</pdfrwt>
<totfact> 0.24677313E+03</totfact>
</mgrwt>
</event>
<event>
 8    1  0.3520338E-004  0.1496558E+03  0.7546771E-02  0.1210072E+00
         -1   -1    0    0    0  501 -0.00000000000E+00  0.00000000000E+00  0.39927518657E+02  0.39927518657E+02  0.00000000000E+00 0.  1.
          1   -1    0    0  501    0  0.00000000000E+00 -0.00000000000E+00 -0.49440686947E+03  0.49440686947E+03  0.00000000000E+00 0. -1.
         25    2    1    2    0    0  0.75685709067E+02  0.32323741457E+02 -0.18333608224E+03  0.23666215803E+03  0.12499482860E+03 0.  0.
         23    2    1    2    0    0 -0.75685709067E+02 -0.32323741457E+02 -0.27114326858E+03  0.29767223009E+03  0.91197223939E+02 0.  0.
          5    1    4    4  502    0 -0.51179050315E+02 -0.36970969342E+02 -0.67848412971E+02  0.92798948852E+02  0.47000000000E+01 0.  1.
         -5    1    4    4    0  502 -0.24506658752E+02  0.46472278854E+01 -0.20329485560E+03  0.20487328124E+03  0.47000000000E+01 0. -1.
          5    1    3    3  503    0  0.10416918243E+02 -0.36069418427E+02 -0.11175941244E+03  0.11799055640E+03  0.47000000000E+01 0.  1.
         -5    1    3    3    0  503  0.65268790824E+02  0.68393159884E+02 -0.71576669793E+02  0.11867160163E+03  0.47000000000E+01 0.  1.
<mgrwt>
<rscale>  0 0.14244809E+03</rscale>
<asrwt>0</asrwt>
<pdfrwt beam="1">  1        1 0.76062596E-01 0.14965580E+03</pdfrwt>
<pdfrwt beam="2">  1       -1 0.61426952E-02 0.14965580E+03</pdfrwt>
<totfact> 0.57148750E+03</totfact>
</mgrwt>
</event>
<event>
 8    1  0.3520338E-004  0.1516913E+03  0.7546771E-02  0.1207099E+00
         -3   -1    0    0    0  501 -0.00000000000E+00  0.00000000000E+00  0.57140664720E+03  0.57140664720E+03  0.00000000000E+00 0.  1.
          3   -1    0    0  501    0  0.00000000000E+00 -0.00000000000E+00 -0.36918747555E+02  0.36918747555E+02  0.00000000000E+00 0. -1.
         25    2    1    2    0    0  0.94973378029E+01  0.85405548345E+02  0.20018177271E+03  0.25116324991E+03  0.12500371541E+03 0.  0.
         23    2    1    2    0    0 -0.94973378029E+01 -0.85405548345E+02  0.33430612693E+03  0.35716214484E+03  0.91760035365E+02 0.  0.
          5    1    4    4  502    0  0.79622702626E+01 -0.49135695055E+02  0.52657773468E+02  0.72612983570E+02  0.47000000000E+01 0. -1.
         -5    1    3    3    0  503  0.49943368910E+02  0.82213358457E+02  0.83247429224E+02  0.12730122104E+03  0.47000000000E+01 0.  1.
          5    1    3    3  503    0 -0.40446031107E+02  0.31921898888E+01  0.11693434349E+03  0.12386202887E+03  0.47000000000E+01 0.  1.
         -5    1    4    4    0  502 -0.17459608066E+02 -0.36269853290E+02  0.28164835347E+03  0.28454916127E+03  0.47000000000E+01 0.  1.
<mgrwt>
<rscale>  0 0.14473281E+03</rscale>
<asrwt>0</asrwt>
<pdfrwt beam="1">  1        3 0.56798077E-02 0.15169125E+03</pdfrwt>
<pdfrwt beam="2">  1       -3 0.87908708E-01 0.15169125E+03</pdfrwt>
<totfact> 0.53028226E+02</totfact>
</mgrwt>
</event>
<event>
 8    1  0.3520338E-004  0.1769614E+03  0.7546771E-02  0.1176345E+00
         -2   -1    0    0    0  501 -0.00000000000E+00  0.00000000000E+00  0.32718311946E+03  0.32718311946E+03  0.00000000000E+00 0.  1.
          2   -1    0    0  501    0  0.00000000000E+00 -0.00000000000E+00 -0.11510964148E+03  0.11510964148E+03  0.00000000000E+00 0. -1.
         25    2    1    2    0    0  0.48117584201E+02  0.11562277166E+03 -0.25870778435E+01  0.17698027920E+03  0.12502559346E+03 0.  0.
         23    2    1    2    0    0 -0.48117584201E+02 -0.11562277166E+03  0.21466055582E+03  0.26531248174E+03  0.92885044581E+02 0.  0.
          5    1    4    4  502    0  0.73466880511E+01 -0.91744903636E+02  0.10246813412E+03  0.13781476582E+03  0.47000000000E+01 0. -1.
         -5    1    3    3    0  503 -0.35946281198E+02  0.44506555564E+02 -0.28015613623E+02  0.63874355001E+02  0.47000000000E+01 0.  1.
          5    1    3    3  503    0  0.84063865399E+02  0.71116216098E+02  0.25428535779E+02  0.11310592420E+03  0.47000000000E+01 0.  1.
         -5    1    4    4    0  502 -0.55464272252E+02 -0.23877868027E+02  0.11219242170E+03  0.12749771592E+03  0.47000000000E+01 0.  1.
<mgrwt>
<rscale>  0 0.17144920E+03</rscale>
<asrwt>0</asrwt>
<pdfrwt beam="1">  1        2 0.17709176E-01 0.17696137E+03</pdfrwt>
<pdfrwt beam="2">  1       -2 0.50335864E-01 0.17696137E+03</pdfrwt>
<totfact> 0.11976925E+03</totfact>
</mgrwt>
</event>
<event>
 8    1  0.3520338E-004  0.1352446E+03  0.7546771E-02  0.1231850E+00
         -2   -1    0    0    0  501 -0.00000000000E+00  0.00000000000E+00  0.18890610217E+02  0.18890610217E+02  0.00000000000E+00 0.  1.
          2   -1    0    0  501    0  0.00000000000E+00 -0.00000000000E+00 -0.77139005129E+03  0.77139005129E+03  0.00000000000E+00 0. -1.
         25    2    1    2    0    0  0.35570902768E+02 -0.37412439379E+02 -0.45344270907E+03  0.47318219671E+03  0.12500448441E+03 0.  0.
         23    2    1    2    0    0 -0.35570902768E+02  0.37412439379E+02 -0.29905673200E+03  0.31709846480E+03  0.91932190665E+02 0.  0.
          5    1    3    3  502    0 -0.41248501740E+02 -0.39776586246E+02 -0.21882771547E+03  0.22625488893E+03  0.47000000000E+01 0.  1.
         -5    1    4    4    0  503 -0.37479119419E+02 -0.94204584683E+01 -0.48694991491E+02  0.62343577268E+02  0.47000000000E+01 0.  1.
          5    1    4    4  503    0  0.19082166512E+01  0.46832897847E+02 -0.25036174051E+03  0.25475488753E+03  0.47000000000E+01 0. -1.
         -5    1    3    3    0  502  0.76819404508E+02  0.23641468672E+01 -0.23461499360E+03  0.24692730777E+03  0.47000000000E+01 0.  1.
<mgrwt>
<rscale>  0 0.12708257E+03</rscale>
<asrwt>0</asrwt>
<pdfrwt beam="1">  1        2 0.11867541E+00 0.13524460E+03</pdfrwt>
<pdfrwt beam="2">  1       -2 0.29062474E-02 0.13524460E+03</pdfrwt>
<totfact> 0.15706128E+04</totfact>
</mgrwt>
</event>
<event>
 8    1  0.3520338E-004  0.1262270E+03  0.7546771E-02  0.1248254E+00
         -1   -1    0    0    0  501 -0.00000000000E+00  0.00000000000E+00  0.92584980236E+02  0.92584980236E+02  0.00000000000E+00 0.  1.
          1   -1    0    0  501    0  0.00000000000E+00 -0.00000000000E+00 -0.14298897844E+03  0.14298897844E+03  0.00000000000E+00 0. -1.
         25    2    1    2    0    0 -0.17515670623E+02  0.11944842553E+01  0.68512977926E+01  0.12641275323E+03  0.12500007355E+03 0.  0.
         23    2    1    2    0    0  0.17515670623E+02 -0.11944842553E+01 -0.57255295993E+02  0.10916120544E+03  0.91267597446E+02 0.  0.
          5    1    4    4  502    0  0.47692467601E+02 -0.85654291792E+01 -0.60411070109E+02  0.77585600691E+02  0.47000000000E+01 0. -1.
         -5    1    4    4    0  502 -0.30176796978E+02  0.73709449238E+01  0.31557741166E+01  0.31575604748E+02  0.47000000000E+01 0.  1.
          5    1    3    3  503    0  0.30931962815E+02 -0.42253064304E+00  0.51553168996E+02  0.60305755026E+02  0.47000000000E+01 0. -1.
         -5    1    3    3    0  503 -0.48447633437E+02  0.16170148984E+01 -0.44701871203E+02  0.66106998207E+02  0.47000000000E+01 0. -1.
<mgrwt>
<rscale>  0 0.11692725E+03</rscale>
<asrwt>0</asrwt>
<pdfrwt beam="1">  1        1 0.21998304E-01 0.12622695E+03</pdfrwt>
<pdfrwt beam="2">  1       -1 0.14243843E-01 0.12622695E+03</pdfrwt>
<totfact> 0.74189968E+03</totfact>
</mgrwt>
</event>
<event>
 8    1  0.3520338E-004  0.1522854E+03  0.7546771E-02  0.1206504E+00
         -1   -1    0    0    0  501 -0.00000000000E+00  0.00000000000E+00  0.51591666315E+02  0.51591666315E+02  0.00000000000E+00 0.  1.
          1   -1    0    0  501    0  0.00000000000E+00 -0.00000000000E+00 -0.37961511604E+03  0.37961511604E+03  0.00000000000E+00 0. -1.
         25    2    1    2    0    0  0.65175662006E+02  0.57600864100E+02 -0.15537164465E+03  0.21755734696E+03  0.12500049917E+03 0.  0.
         23    2    1    2    0    0 -0.65175662006E+02 -0.57600864100E+02 -0.17265180508E+03  0.21364943540E+03  0.90948936139E+02 0.  0.
          5    1    4    4  502    0 -0.45195196635E+02 -0.67288553877E+02 -0.66073739818E+02  0.10468134684E+03  0.47000000000E+01 0. -1.
         -5    1    3    3    0  503  0.66606586934E+02  0.77644227365E+02 -0.16545966839E+03  0.19458688376E+03  0.47000000000E+01 0.  1.
          5    1    3    3  503    0 -0.14309249276E+01 -0.20043363264E+02  0.10088023738E+02  0.22970463209E+02  0.47000000000E+01 0.  1.
         -5    1    4    4    0  502 -0.19980465371E+02  0.96876897771E+01 -0.10657806526E+03  0.10896808856E+03  0.47000000000E+01 0.  1.
<mgrwt>
<rscale>  0 0.14519590E+03</rscale>
<asrwt>0</asrwt>
<pdfrwt beam="1">  1        1 0.58402326E-01 0.15228543E+03</pdfrwt>
<pdfrwt beam="2">  1       -1 0.79371793E-02 0.15228543E+03</pdfrwt>
<totfact> 0.54561843E+03</totfact>
</mgrwt>
</event>
<event>
 8    1  0.3520338E-004  0.2239630E+03  0.7546771E-02  0.1134153E+00
         -2   -1    0    0    0  501 -0.00000000000E+00  0.00000000000E+00  0.24730025826E+03  0.24730025826E+03  0.00000000000E+00 0.  1.
          2   -1    0    0  501    0  0.00000000000E+00 -0.00000000000E+00 -0.19225362223E+03  0.19225362223E+03  0.00000000000E+00 0. -1.
         25    2    1    2    0    0 -0.16853229020E+03  0.78308069756E+02  0.61645952073E+02  0.23229218305E+03  0.12499659304E+03 0.  0.
         23    2    1    2    0    0  0.16853229020E+03 -0.78308069756E+02 -0.65993160442E+01  0.20726169743E+03  0.91534548769E+02 0.  0.
          5    1    4    4  502    0  0.56304059491E+02 -0.33284793537E+02 -0.45880505805E+02  0.80032089870E+02  0.47000000000E+01 0. -1.
         -5    1    3    3    0  503 -0.77882268934E+02 -0.27821465850E+02  0.35923557303E+02  0.90289942661E+02  0.47000000000E+01 0.  1.
          5    1    3    3  503    0 -0.90650021268E+02  0.10612953561E+03  0.25722394771E+02  0.14200224039E+03  0.47000000000E+01 0.  1.
         -5    1    4    4    0  502  0.11222823071E+03 -0.45023276219E+02  0.39281189761E+02  0.12722960756E+03  0.47000000000E+01 0.  1.
<mgrwt>
<rscale>  0 0.21963772E+03</rscale>
<asrwt>0</asrwt>
<pdfrwt beam="1">  1        2 0.29577480E-01 0.22396302E+03</pdfrwt>
<pdfrwt beam="2">  1       -2 0.38046193E-01 0.22396302E+03</pdfrwt>
<totfact> 0.11639345E+03</totfact>
</mgrwt>
</event>
<event>
 8    1  0.3520338E-004  0.1591570E+03  0.7546771E-02  0.1197458E+00
         -1   -1    0    0    0  501 -0.00000000000E+00  0.00000000000E+00  0.18014724718E+02  0.18014724718E+02  0.00000000000E+00 0.  1.
          1   -1    0    0  501    0  0.00000000000E+00 -0.00000000000E+00 -0.12510927361E+04  0.12510927361E+04  0.00000000000E+00 0. -1.
         25    2    1    2    0    0  0.85592534131E+02 -0.48783952120E+02 -0.53094360226E+03  0.55428516468E+03  0.12499991646E+03 0.  0.
         23    2    1    2    0    0 -0.85592534131E+02  0.48783952120E+02 -0.70213440917E+03  0.71482229619E+03  0.90951804316E+02 0.  0.
          5    1    4    4  502    0 -0.79240564474E+02  0.10368596791E+02 -0.60169582159E+03  0.60699796258E+03  0.47000000000E+01 0. -1.
         -5    1    4    4    0  502 -0.63519696570E+01  0.38415355329E+02 -0.10043858758E+03  0.10782433361E+03  0.47000000000E+01 0.  1.
          5    1    3    3  503    0 -0.26221584098E+01 -0.38252330332E+02 -0.41005649718E+02  0.56335333490E+02  0.47000000000E+01 0.  1.
         -5    1    3    3    0  503  0.88214692541E+02 -0.10531621789E+02 -0.48993795255E+03  0.49794983119E+03  0.47000000000E+01 0.  1.
<mgrwt>
<rscale>  0 0.15247985E+03</rscale>
<asrwt>0</asrwt>
<pdfrwt beam="1">  1        1 0.19247577E+00 0.15915695E+03</pdfrwt>
<pdfrwt beam="2">  1       -1 0.27714966E-02 0.15915695E+03</pdfrwt>
<totfact> 0.44156740E+03</totfact>
</mgrwt>
</event>
<event>
 8    1  0.3520338E-004  0.1627758E+03  0.7546771E-02  0.1192823E+00
          4   -1    0    0  501    0  0.00000000000E+00  0.00000000000E+00  0.39047442433E+03  0.39047442433E+03  0.00000000000E+00 0.  1.
         -4   -1    0    0    0  501 -0.00000000000E+00 -0.00000000000E+00 -0.58343077287E+02  0.58343077287E+02  0.00000000000E+00 0. -1.
         25    2    1    2    0    0 -0.98240120354E+02 -0.34932236780E+02  0.16828183184E+03  0.23412546565E+03  0.12499830530E+03 0.  0.
         23    2    1    2    0    0  0.98240120354E+02  0.34932236780E+02  0.16384951520E+03  0.21469203596E+03  0.91512973173E+02 0.  0.
          5    1    4    4  502    0  0.74133170892E+02 -0.21080775924E+02  0.83775484440E+02  0.11393220762E+03  0.47000000000E+01 0. -1.
         -5    1    4    4    0  502  0.24106949462E+02  0.56013012704E+02  0.80074030763E+02  0.10075982834E+03  0.47000000000E+01 0.  1.
          5    1    3    3  503    0 -0.58435048680E+02  0.41318409481E+02  0.48485249100E+02  0.86572370053E+02  0.47000000000E+01 0. -1.
         -5    1    3    3    0  503 -0.39805071674E+02 -0.76250646260E+02  0.11979658274E+03  0.14755309560E+03  0.47000000000E+01 0. -1.
<mgrwt>
<rscale>  0 0.15639935E+03</rscale>
<asrwt>0</asrwt>
<pdfrwt beam="1">  1        4 0.60072987E-01 0.16277579E+03</pdfrwt>
<pdfrwt beam="2">  1       -4 0.89758583E-02 0.16277579E+03</pdfrwt>
<totfact> 0.41422736E+02</totfact>
</mgrwt>
</event>
<event>
 8    1  0.3520338E-004  0.1603391E+03  0.7546771E-02  0.1195907E+00
          1   -1    0    0  501    0  0.00000000000E+00  0.00000000000E+00  0.16770073525E+03  0.16770073525E+03  0.00000000000E+00 0. -1.
         -1   -1    0    0    0  501 -0.00000000000E+00 -0.00000000000E+00 -0.13191784459E+03  0.13191784459E+03  0.00000000000E+00 0.  1.
         25    2    1    2    0    0 -0.89332041191E+02  0.45860234061E+02  0.34224249853E+02  0.16395098166E+03  0.12500100182E+03 0.  0.
         23    2    1    2    0    0  0.89332041191E+02 -0.45860234061E+02  0.15586408092E+01  0.13566759818E+03  0.91213448474E+02 0.  0.
          5    1    3    3  502    0 -0.11353723398E+03  0.55750716098E+02  0.83227008782E+01  0.12684716471E+03  0.47000000000E+01 0.  1.
         -5    1    4    4    0  503  0.16141322109E+02  0.21159771431E+02 -0.20471155313E+02  0.33903339161E+02  0.47000000000E+01 0.  1.
          5    1    4    4  503    0  0.73190719083E+02 -0.67020005492E+02  0.22029796122E+02  0.10176425902E+03  0.47000000000E+01 0. -1.
         -5    1    3    3    0  502  0.24205192788E+02 -0.98904820372E+01  0.25901548975E+02  0.37103816948E+02  0.47000000000E+01 0.  1.
<mgrwt>
<rscale>  0 0.15377702E+03</rscale>
<asrwt>0</asrwt>
<pdfrwt beam="1">  1        1 0.25800113E-01 0.16033909E+03</pdfrwt>
<pdfrwt beam="2">  1       -1 0.20295053E-01 0.16033909E+03</pdfrwt>
<totfact> 0.35136761E+03</totfact>
</mgrwt>
</event>
<event>
 8    1  0.3520338E-004  0.1573457E+03  0.7546771E-02  0.1199342E+00
          1   -1    0    0  501    0  0.00000000000E+00  0.00000000000E+00  0.79318106059E+03  0.79318106059E+03  0.00000000000E+00 0. -1.
         -1   -1    0    0    0  501 -0.00000000000E+00 -0.00000000000E+00 -0.27481857187E+02  0.27481857187E+02  0.00000000000E+00 0.  1.
         25    2    1    2    0    0  0.12230272017E+02  0.94788599634E+02  0.48670184702E+03  0.51150402463E+03  0.12499288439E+03 0.  0.
         23    2    1    2    0    0 -0.12230272017E+02 -0.94788599634E+02  0.27899735639E+03  0.30915889315E+03  0.92764422964E+02 0.  0.
          5    1    4    4  502    0 -0.34291856531E+02 -0.68552040974E+02  0.25683360071E+03  0.26806883855E+03  0.47000000000E+01 0. -1.
         -5    1    3    3    0  503 -0.32509059164E+02  0.19358191912E+02  0.36383959226E+02  0.52701622468E+02  0.47000000000E+01 0.  1.
          5    1    3    3  503    0  0.44739331181E+02  0.75430407722E+02  0.45031788779E+03  0.45880240216E+03  0.47000000000E+01 0.  1.
         -5    1    4    4    0  502  0.22061584514E+02 -0.26236558660E+02  0.22163755679E+02  0.41090054604E+02  0.47000000000E+01 0.  1.
<mgrwt>
<rscale>  0 0.15092441E+03</rscale>
<asrwt>0</asrwt>
<pdfrwt beam="1">  1        1 0.12202784E+00 0.15734573E+03</pdfrwt>
<pdfrwt beam="2">  1       -1 0.42279786E-02 0.15734573E+03</pdfrwt>
<totfact> 0.51668553E+03</totfact>
</mgrwt>
</event>
<event>
 8    1  0.3520338E-004  0.1250477E+03  0.7546771E-02  0.1250975E+00
         -4   -1    0    0    0  501 -0.00000000000E+00  0.00000000000E+00  0.86603930252E+02  0.86603930252E+02  0.00000000000E+00 0.  1.
          4   -1    0    0  501    0  0.00000000000E+00 -0.00000000000E+00 -0.15369055318E+03  0.15369055318E+03  0.00000000000E+00 0. -1.
         25    2    1    2    0    0  0.20905982254E+01 -0.26908123459E+01 -0.80576995381E+02  0.14876011581E+03  0.12500123520E+03 0.  0.
         23    2    1    2    0    0 -0.20905982254E+01  0.26908123459E+01  0.13490372454E+02  0.91534367617E+02  0.90470653994E+02 0.  0.
          5    1    3    3  502    0 -0.53324283807E+02  0.16550421628E+02 -0.68826624426E+02  0.88750154532E+02  0.47000000000E+01 0. -1.
         -5    1    4    4    0  503 -0.31281301920E+02  0.25074868044E+01  0.40525446269E+02  0.51470468573E+02  0.47000000000E+01 0.  1.
          5    1    4    4  503    0  0.29190703694E+02  0.18332554146E+00 -0.27035073815E+02  0.40063899044E+02  0.47000000000E+01 0. -1.
         -5    1    3    3    0  502  0.55414882032E+02 -0.19241233973E+02 -0.11750370955E+02  0.60009961282E+02  0.47000000000E+01 0. -1.
<mgrwt>
<rscale>  0 0.11534814E+03</rscale>
<asrwt>0</asrwt>
<pdfrwt beam="1">  1        4 0.23644700E-01 0.12504767E+03</pdfrwt>
<pdfrwt beam="2">  1       -4 0.13323682E-01 0.12504767E+03</pdfrwt>
<totfact> 0.12469032E+03</totfact>
</mgrwt>
</event>
<event>
 8    1  0.3520338E-004  0.2182829E+03  0.7546771E-02  0.1138695E+00
          2   -1    0    0  501    0  0.00000000000E+00  0.00000000000E+00  0.47585592934E+03  0.47585592934E+03  0.00000000000E+00 0. -1.
         -2   -1    0    0    0  501 -0.00000000000E+00 -0.00000000000E+00 -0.93655346860E+02  0.93655346860E+02  0.00000000000E+00 0.  1.
         25    2    1    2    0    0 -0.17017084316E+03 -0.55377557900E+02  0.16238171366E+03  0.27205743779E+03  0.12499055461E+03 0.  0.
         23    2    1    2    0    0  0.17017084316E+03  0.55377557900E+02  0.21981886881E+03  0.29745383841E+03  0.90186812331E+02 0.  0.
          5    1    4    4  502    0  0.46409523359E+02  0.24819053291E+02  0.13309928708E+03  0.14320383893E+03  0.47000000000E+01 0. -1.
         -5    1    3    3    0  503 -0.44226460130E+02 -0.31699650931E+02 -0.11686663808E+02  0.55852625326E+02  0.47000000000E+01 0.  1.
          5    1    3    3  503    0 -0.12594438303E+03 -0.23677906969E+02  0.17406837747E+03  0.21620481246E+03  0.47000000000E+01 0.  1.
         -5    1    4    4    0  502  0.12376131980E+03  0.30558504609E+02  0.86719581738E+02  0.15424999948E+03  0.47000000000E+01 0.  1.
<mgrwt>
<rscale>  0 0.21366674E+03</rscale>
<asrwt>0</asrwt>
<pdfrwt beam="1">  1        2 0.73208603E-01 0.21828291E+03</pdfrwt>
<pdfrwt beam="2">  1       -2 0.14408515E-01 0.21828291E+03</pdfrwt>
<totfact> 0.23899281E+03</totfact>
</mgrwt>
</event>
<event>
 8    1  0.3520338E-004  0.1304912E+03  0.7546771E-02  0.1239876E+00
         -2   -1    0    0    0  501 -0.00000000000E+00  0.00000000000E+00  0.20354580679E+03  0.20354580679E+03  0.00000000000E+00 0.  1.
          2   -1    0    0  501    0  0.00000000000E+00 -0.00000000000E+00 -0.77036509372E+02  0.77036509372E+02  0.00000000000E+00 0. -1.
         25    2    1    2    0    0 -0.19207274548E+02  0.32169667208E+02  0.12537667058E+03  0.18096204280E+03  0.12499657805E+03 0.  0.
         23    2    1    2    0    0  0.19207274548E+02 -0.32169667208E+02  0.11326268372E+01  0.99620273363E+02  0.92299020241E+02 0.  0.
          5    1    3    3  502    0 -0.50367235156E+02  0.14290904264E+02  0.22485520226E+01  0.52614012470E+02  0.47000000000E+01 0.  1.
         -5    1    4    4    0  503 -0.27591901806E+02 -0.20249932877E+02  0.27719155094E+02  0.44292373903E+02  0.47000000000E+01 0.  1.
          5    1    4    4  503    0  0.46799176354E+02 -0.11919734332E+02 -0.26586528257E+02  0.55327899460E+02  0.47000000000E+01 0. -1.
         -5    1    3    3    0  502  0.31159960609E+02  0.17878762944E+02  0.12312811856E+03  0.12834803033E+03  0.47000000000E+01 0.  1.
<mgrwt>
<rscale>  0 0.12197359E+03</rscale>
<asrwt>0</asrwt>
<pdfrwt beam="1">  1        2 0.11851771E-01 0.13049119E+03</pdfrwt>
<pdfrwt beam="2">  1       -2 0.31314739E-01 0.13049119E+03</pdfrwt>
<totfact> 0.46599964E+03</totfact>
</mgrwt>
</event>
<event>
 8    1  0.3520338E-004  0.1714724E+03  0.7546771E-02  0.1183144E+00
         -1   -1    0    0    0  501 -0.00000000000E+00  0.00000000000E+00  0.37549185921E+02  0.37549185921E+02  0.00000000000E+00 0.  1.
          1   -1    0    0  501    0  0.00000000000E+00 -0.00000000000E+00 -0.76205760118E+03  0.76205760118E+03  0.00000000000E+00 0. -1.
         25    2    1    2    0    0 -0.10516780697E+03 -0.52159937718E+02 -0.52113943096E+03  0.54862471288E+03  0.12498736878E+03 0.  0.
         23    2    1    2    0    0  0.10516780697E+03  0.52159937718E+02 -0.20336898430E+03  0.25098207422E+03  0.88612251301E+02 0.  0.
          5    1    3    3  502    0 -0.12352552830E+03 -0.61102543641E+02 -0.50074636751E+03  0.51938530164E+03  0.47000000000E+01 0. -1.
         -5    1    3    3    0  502  0.18357721326E+02  0.89426059231E+01 -0.20393063447E+02  0.29239411241E+02  0.47000000000E+01 0. -1.
          5    1    4    4  503    0  0.52472291100E+02 -0.11836883124E+02 -0.12768202620E+03  0.13862987755E+03  0.47000000000E+01 0. -1.
         -5    1    4    4    0  503  0.52695515870E+02  0.63996820842E+02 -0.75686958100E+02  0.11235219667E+03  0.47000000000E+01 0.  1.
<mgrwt>
<rscale>  0 0.16501952E+03</rscale>
<asrwt>0</asrwt>
<pdfrwt beam="1">  1        1 0.11723962E+00 0.17147236E+03</pdfrwt>
<pdfrwt beam="2">  1       -1 0.57767983E-02 0.17147236E+03</pdfrwt>
<totfact> 0.34611395E+03</totfact>
</mgrwt>
</event>
<event>
 8    1  0.3520338E-004  0.1455836E+03  0.7546771E-02  0.1215380E+00
         -2   -1    0    0    0  501 -0.00000000000E+00  0.00000000000E+00  0.24722767390E+03  0.24722767390E+03  0.00000000000E+00 0.  1.
          2   -1    0    0  501    0  0.00000000000E+00 -0.00000000000E+00 -0.74078648321E+02  0.74078648321E+02  0.00000000000E+00 0. -1.
         25    2    1    2    0    0 -0.22740459007E+02  0.71073767976E+02  0.61706849365E+02  0.15812125614E+03  0.12500394959E+03 0.  0.
         23    2    1    2    0    0  0.22740459007E+02 -0.71073767976E+02  0.11144217621E+03  0.16318506608E+03  0.92959121032E+02 0.  0.
          5    1    3    3  502    0  0.45931723697E+02 -0.84661480660E-01  0.14166288232E+02  0.48296005338E+02  0.47000000000E+01 0. -1.
         -5    1    3    3    0  502 -0.68672182704E+02  0.71158429457E+02  0.47540561132E+02  0.10982525080E+03  0.47000000000E+01 0. -1.
          5    1    4    4  503    0  0.17267110746E+02  0.20502992447E+02  0.22323556232E+02  0.35198820657E+02  0.47000000000E+01 0. -1.
         -5    1    4    4    0  503  0.54733482608E+01 -0.91576760423E+02  0.89118619979E+02  0.12798624542E+03  0.47000000000E+01 0.  1.
<mgrwt>
<rscale>  0 0.13848691E+03</rscale>
<asrwt>0</asrwt>
<pdfrwt beam="1">  1        2 0.11396715E-01 0.14558364E+03</pdfrwt>
<pdfrwt beam="2">  1       -2 0.38035026E-01 0.14558364E+03</pdfrwt>
<totfact> 0.34381713E+03</totfact>
</mgrwt>
</event>
<event>
 8    1  0.3520338E-004  0.2345522E+03  0.7546771E-02  0.1126851E+00
          1   -1    0    0  501    0  0.00000000000E+00  0.00000000000E+00  0.39610418847E+03  0.39610418847E+03  0.00000000000E+00 0. -1.
         -1   -1    0    0    0  501 -0.00000000000E+00 -0.00000000000E+00 -0.18408204137E+03  0.18408204137E+03  0.00000000000E+00 0.  1.
         25    2    1    2    0    0  0.18771887009E+03 -0.64444917560E+02 -0.50971952395E+02  0.24002682964E+03  0.12499286950E+03 0.  0.
         23    2    1    2    0    0 -0.18771887009E+03  0.64444917560E+02  0.26299409950E+03  0.34015940021E+03  0.84563583130E+02 0.  0.
          5    1    4    4  502    0 -0.47751001025E+02  0.34177468100E+02  0.28704513775E+02  0.65530882305E+02  0.47000000000E+01 0.  1.
         -5    1    4    4    0  502 -0.13996786907E+03  0.30267449460E+02  0.23428958572E+03  0.27462851790E+03  0.47000000000E+01 0. -1.
          5    1    3    3  503    0  0.68096983967E-01 -0.39106206553E+02 -0.29890291498E+02  0.49445116584E+02  0.47000000000E+01 0.  1.
         -5    1    3    3    0  503  0.18765077311E+03 -0.25338711007E+02 -0.21081660897E+02  0.19058171305E+03  0.47000000000E+01 0.  1.
<mgrwt>
<rscale>  0 0.22969994E+03</rscale>
<asrwt>0</asrwt>
<pdfrwt beam="1">  1        1 0.60939106E-01 0.23455221E+03</pdfrwt>
<pdfrwt beam="2">  1       -1 0.28320314E-01 0.23455221E+03</pdfrwt>
<totfact> 0.69466981E+02</totfact>
</mgrwt>
</event>
<event>
 8    1  0.3520338E-004  0.1626007E+03  0.7546771E-02  0.1192995E+00
         -2   -1    0    0    0  501 -0.00000000000E+00  0.00000000000E+00  0.10348882216E+04  0.10348882216E+04  0.00000000000E+00 0.  1.
          2   -1    0    0  501    0  0.00000000000E+00 -0.00000000000E+00 -0.21998284893E+02  0.21998284893E+02  0.00000000000E+00 0. -1.
         25    2    1    2    0    0  0.73548224243E+02 -0.73520005462E+02  0.51587462497E+03  0.54089335247E+03  0.12499783025E+03 0.  0.
         23    2    1    2    0    0 -0.73548224243E+02  0.73520005462E+02  0.49701531172E+03  0.51599315400E+03  0.91707046639E+02 0.  0.
          5    1    4    4  502    0 -0.78161710577E+02  0.21749513456E+02  0.36709738434E+03  0.37598520440E+03  0.47000000000E+01 0. -1.
         -5    1    4    4    0  502  0.46134863335E+01  0.51770492007E+02  0.12991792737E+03  0.14000794960E+03  0.47000000000E+01 0.  1.
          5    1    3    3  503    0  0.47339182496E+02  0.23004419002E+02  0.27508750150E+03  0.28011680595E+03  0.47000000000E+01 0.  1.
         -5    1    3    3    0  503  0.26209041748E+02 -0.96524424465E+02  0.24078712348E+03  0.26077654653E+03  0.47000000000E+01 0.  1.
<mgrwt>
<rscale>  0 0.15625154E+03</rscale>
<asrwt>0</asrwt>
<pdfrwt beam="1">  1        2 0.33843523E-02 0.16260071E+03</pdfrwt>
<pdfrwt beam="2">  1       -2 0.15921353E+00 0.16260071E+03</pdfrwt>
<totfact> 0.70751945E+02</totfact>
</mgrwt>
</event>
<event>
 8    1  0.3520338E-004  0.1671222E+03  0.7546771E-02  0.1187463E+00
          2   -1    0    0  501    0  0.00000000000E+00  0.00000000000E+00  0.24863986565E+03  0.24863986565E+03  0.00000000000E+00 0. -1.
         -2   -1    0    0    0  501 -0.00000000000E+00 -0.00000000000E+00 -0.13072195521E+03  0.13072195521E+03  0.00000000000E+00 0.  1.
         25    2    1    2    0    0  0.93232072282E+02 -0.60101617713E+02  0.15759716976E+03  0.22970999756E+03  0.12500156523E+03 0.  0.
         23    2    1    2    0    0 -0.93232072282E+02  0.60101617713E+02 -0.39679259319E+02  0.14965182330E+03  0.92286514951E+02 0.  0.
          5    1    4    4  502    0 -0.63667426078E+02  0.18277250932E+02  0.21430528743E+02  0.69777909163E+02  0.47000000000E+01 0. -1.
         -5    1    3    3    0  503 -0.84612942707E+01  0.28676423191E+02  0.16879595604E+02  0.34654602805E+02  0.47000000000E+01 0. -1.
          5    1    3    3  503    0  0.10169336655E+03 -0.88778040904E+02  0.14071757415E+03  0.19505539475E+03  0.47000000000E+01 0. -1.
         -5    1    4    4    0  502 -0.29564646205E+02  0.41824366780E+02 -0.61109788062E+02  0.79873914132E+02  0.47000000000E+01 0.  1.
<mgrwt>
<rscale>  0 0.16109750E+03</rscale>
<asrwt>0</asrwt>
<pdfrwt beam="1">  1        2 0.38252287E-01 0.16712216E+03</pdfrwt>
<pdfrwt beam="2">  1       -2 0.20111070E-01 0.16712216E+03</pdfrwt>
<totfact> 0.27322753E+03</totfact>
</mgrwt>
</event>
<event>
 8    1  0.3520338E-004  0.2456865E+03  0.7546771E-02  0.1118446E+00
         -4   -1    0    0    0  501 -0.00000000000E+00  0.00000000000E+00  0.45150430613E+03  0.45150430613E+03  0.00000000000E+00 0.  1.
          4   -1    0    0  501    0  0.00000000000E+00 -0.00000000000E+00 -0.13377673826E+03  0.13377673826E+03  0.00000000000E+00 0. -1.
         25    2    1    2    0    0  0.19238912896E+03  0.87909997380E+02  0.92935636137E+02  0.26267641917E+03  0.12498049506E+03 0.  0.
         23    2    1    2    0    0 -0.19238912896E+03 -0.87909997380E+02  0.22479193173E+03  0.32260462522E+03  0.93811444193E+02 0.  0.
          5    1    4    4  502    0 -0.16311781556E+03 -0.70784704503E+02  0.12581835942E+03  0.21787667546E+03  0.47000000000E+01 0. -1.
         -5    1    4    4    0  502 -0.29271313402E+02 -0.17125292877E+02  0.98973572314E+02  0.10472794976E+03  0.47000000000E+01 0.  1.
          5    1    3    3  503    0  0.11237311725E+03  0.11509997524E+03  0.57013231380E+02  0.17072879175E+03  0.47000000000E+01 0. -1.
         -5    1    3    3    0  503  0.80016011710E+02 -0.27189977856E+02  0.35922404757E+02  0.91947627426E+02  0.47000000000E+01 0. -1.
<mgrwt>
<rscale>  0 0.24203221E+03</rscale>
<asrwt>0</asrwt>
<pdfrwt beam="1">  1        4 0.20581037E-01 0.24568653E+03</pdfrwt>
<pdfrwt beam="2">  1       -4 0.69462200E-01 0.24568653E+03</pdfrwt>
<totfact> 0.75662243E+01</totfact>
</mgrwt>
</event>
<event>
 8    1  0.3520338E-004  0.1692710E+03  0.7546771E-02  0.1185326E+00
          1   -1    0    0  501    0  0.00000000000E+00  0.00000000000E+00  0.36351308435E+03  0.36351308435E+03  0.00000000000E+00 0. -1.
         -1   -1    0    0    0  501 -0.00000000000E+00 -0.00000000000E+00 -0.68920533268E+02  0.68920533268E+02  0.00000000000E+00 0.  1.
         25    2    1    2    0    0 -0.10796070964E+03  0.37059699450E+02  0.13613528578E+03  0.21722222548E+03  0.12499497214E+03 0.  0.
         23    2    1    2    0    0  0.10796070964E+03 -0.37059699450E+02  0.15845726531E+03  0.21521139214E+03  0.90433966110E+02 0.  0.
          5    1    4    4  502    0  0.87796285722E+02 -0.25021653982E+02  0.16650268143E+03  0.18994605518E+03  0.47000000000E+01 0. -1.
         -5    1    3    3    0  503 -0.41076576128E+02  0.77006452794E+02  0.48834614221E+02  0.10012086908E+03  0.47000000000E+01 0.  1.
          5    1    3    3  503    0 -0.66884133515E+02 -0.39946753344E+02  0.87300671556E+02  0.11710135641E+03  0.47000000000E+01 0.  1.
         -5    1    4    4    0  502  0.20164423922E+02 -0.12038045467E+02 -0.80454161263E+01  0.25265336954E+02  0.47000000000E+01 0.  1.
<mgrwt>
<rscale>  0 0.16302247E+03</rscale>
<asrwt>0</asrwt>
<pdfrwt beam="1">  1        1 0.55925089E-01 0.16927102E+03</pdfrwt>
<pdfrwt beam="2">  1       -1 0.10603159E-01 0.16927102E+03</pdfrwt>
<totfact> 0.37236709E+03</totfact>
</mgrwt>
</event>
<event>
 8    1  0.3520338E-004  0.1641808E+03  0.7546771E-02  0.1191499E+00
         -2   -1    0    0    0  501 -0.00000000000E+00  0.00000000000E+00  0.12340991871E+03  0.12340991871E+03  0.00000000000E+00 0.  1.
          2   -1    0    0  501    0  0.00000000000E+00 -0.00000000000E+00 -0.19784640778E+03  0.19784640778E+03  0.00000000000E+00 0. -1.
         25    2    1    2    0    0 -0.97482850234E+02  0.42754254948E+02 -0.78538682927E+02  0.18199903179E+03  0.12499796179E+03 0.  0.
         23    2    1    2    0    0  0.97482850234E+02 -0.42754254948E+02  0.41021938649E+01  0.13925729469E+03  0.89693554535E+02 0.  0.
          5    1    3    3  502    0 -0.66334184317E+02  0.53456357554E+02 -0.10794686715E+03  0.13759513908E+03  0.47000000000E+01 0.  1.
         -5    1    4    4    0  503  0.10986238722E+03 -0.18503131432E+02  0.48813214010E+01  0.11161553340E+03  0.47000000000E+01 0.  1.
          5    1    4    4  503    0 -0.12379536983E+02 -0.24251123515E+02 -0.77912753615E+00  0.27641761293E+02  0.47000000000E+01 0. -1.
         -5    1    3    3    0  502 -0.31148665918E+02 -0.10702102606E+02  0.29408184222E+02  0.44403892711E+02  0.47000000000E+01 0.  1.
<mgrwt>
<rscale>  0 0.15754298E+03</rscale>
<asrwt>0</asrwt>
<pdfrwt beam="1">  1        2 0.30437908E-01 0.16418076E+03</pdfrwt>
<pdfrwt beam="2">  1       -2 0.18986142E-01 0.16418076E+03</pdfrwt>
<totfact> 0.38521204E+03</totfact>
</mgrwt>
</event>
<event>
 8    1  0.3520338E-004  0.1259675E+03  0.7546771E-02  0.1250464E+00
          2   -1    0    0  501    0  0.00000000000E+00  0.00000000000E+00  0.52200628318E+03  0.52200628318E+03  0.00000000000E+00 0. -1.
         -2   -1    0    0    0  501 -0.00000000000E+00 -0.00000000000E+00 -0.22525840748E+02  0.22525840748E+02  0.00000000000E+00 0.  1.
         25    2    1    2    0    0 -0.86986914869E+01  0.12908527294E+02  0.26067059305E+03  0.28951158741E+03  0.12500201539E+03 0.  0.
         23    2    1    2    0    0  0.86986914869E+01 -0.12908527294E+02  0.23880984939E+03  0.25502053652E+03  0.88108073265E+02 0.  0.
          5    1    3    3  502    0  0.86865204847E+01 -0.41189818282E+02  0.30016503954E+02  0.51914711575E+02  0.47000000000E+01 0. -1.
         -5    1    4    4    0  503 -0.87326582340E+01  0.22631917392E+02  0.17821728993E+02  0.30465833798E+02  0.47000000000E+01 0.  1.
          5    1    4    4  503    0  0.17431349721E+02 -0.35540444686E+02  0.22098812039E+03  0.22455470273E+03  0.47000000000E+01 0. -1.
         -5    1    3    3    0  502 -0.17385211972E+02  0.54098345577E+02  0.23065408909E+03  0.23759687583E+03  0.47000000000E+01 0. -1.
<mgrwt>
<rscale>  0 0.11564216E+03</rscale>
<asrwt>0</asrwt>
<pdfrwt beam="1">  1        2 0.80308650E-01 0.12596746E+03</pdfrwt>
<pdfrwt beam="2">  1       -2 0.34655144E-02 0.12596746E+03</pdfrwt>
<totfact> 0.18933618E+04</totfact>
</mgrwt>
</event>
<event>
 8    1  0.3520338E-004  0.1367667E+03  0.7546771E-02  0.1229406E+00
          1   -1    0    0  501    0  0.00000000000E+00  0.00000000000E+00  0.68331551892E+02  0.68331551892E+02  0.00000000000E+00 0. -1.
         -1   -1    0    0    0  501 -0.00000000000E+00 -0.00000000000E+00 -0.23627438738E+03  0.23627438738E+03  0.00000000000E+00 0.  1.
         25    2    1    2    0    0 -0.54461972690E+02  0.10602250371E+02 -0.13563661232E+03  0.19261988644E+03  0.12500646330E+03 0.  0.
         23    2    1    2    0    0  0.54461972690E+02 -0.10602250371E+02 -0.32306223165E+02  0.11198605283E+03  0.91753309432E+02 0.  0.
          5    1    3    3  502    0  0.20893833240E+02 -0.77961863805E+01 -0.10762859941E+03  0.11001517259E+03  0.47000000000E+01 0. -1.
         -5    1    4    4    0  503 -0.17333909456E+02  0.20362716052E+02 -0.17406071602E+02  0.32251603846E+02  0.47000000000E+01 0.  1.
          5    1    4    4  503    0  0.71795882146E+02 -0.30964966423E+02 -0.14900151563E+02  0.79734448987E+02  0.47000000000E+01 0. -1.
         -5    1    3    3    0  502 -0.75355805931E+02  0.18398436752E+02 -0.28008012915E+02  0.82604713847E+02  0.47000000000E+01 0. -1.
<mgrwt>
<rscale>  0 0.12869427E+03</rscale>
<asrwt>0</asrwt>
<pdfrwt beam="1">  1        1 0.10512547E-01 0.13676670E+03</pdfrwt>
<pdfrwt beam="2">  1       -1 0.36349905E-01 0.13676670E+03</pdfrwt>
<totfact> 0.42032080E+03</totfact>
</mgrwt>
</event>
<event>
 8    1  0.3520338E-004  0.1320454E+03  0.7546771E-02  0.1237868E+00
          2   -1    0    0  501    0  0.00000000000E+00  0.00000000000E+00  0.16699839852E+03  0.16699839852E+03  0.00000000000E+00 0. -1.
         -2   -1    0    0    0  501 -0.00000000000E+00 -0.00000000000E+00 -0.94501943053E+02  0.94501943053E+02  0.00000000000E+00 0.  1.
         25    2    1    2    0    0  0.42557101953E+02 -0.37524665924E-01  0.90046068001E+02  0.15982578522E+03  0.12499951570E+03 0.  0.
         23    2    1    2    0    0 -0.42557101953E+02  0.37524665924E-01 -0.17549612534E+02  0.10167455635E+03  0.90656594767E+02 0.  0.
          5    1    3    3  502    0  0.36546597972E+02 -0.41422529658E+02 -0.52140324622E+01  0.55684431587E+02  0.47000000000E+01 0.  1.
         -5    1    3    3    0  502  0.60105039805E+01  0.41385004992E+02  0.95260100463E+02  0.10414135363E+03  0.47000000000E+01 0.  1.
          5    1    4    4  503    0 -0.37962844132E+02  0.42179447959E+02 -0.47285106511E+01  0.57137834906E+02  0.47000000000E+01 0. -1.
         -5    1    4    4    0  503 -0.45942578210E+01 -0.42141923293E+02 -0.12821101883E+02  0.44536721448E+02  0.47000000000E+01 0.  1.
<mgrwt>
<rscale>  0 0.12322635E+03</rscale>
<asrwt>0</asrwt>
<pdfrwt beam="1">  1        2 0.25692061E-01 0.13204540E+03</pdfrwt>
<pdfrwt beam="2">  1       -2 0.14538760E-01 0.13204540E+03</pdfrwt>
<totfact> 0.71187460E+03</totfact>
</mgrwt>
</event>
<event>
 8    1  0.3520338E-004  0.1975162E+03  0.7546771E-02  0.1155559E+00
          1   -1    0    0  501    0  0.00000000000E+00  0.00000000000E+00  0.40333686886E+02  0.40333686886E+02  0.00000000000E+00 0. -1.
         -1   -1    0    0    0  501 -0.00000000000E+00 -0.00000000000E+00 -0.90080346345E+03  0.90080346345E+03  0.00000000000E+00 0.  1.
         25    2    1    2    0    0 -0.14102753917E+03 -0.59165353803E+02 -0.39291776947E+03  0.43976930230E+03  0.12499343896E+03 0.  0.
         23    2    1    2    0    0  0.14102753917E+03  0.59165353803E+02 -0.46755200709E+03  0.50136784804E+03  0.96827340224E+02 0.  0.
          5    1    4    4  502    0  0.13875057675E+03  0.79046595476E+02 -0.39879963115E+03  0.42960833629E+03  0.47000000000E+01 0. -1.
         -5    1    4    4    0  502  0.22769624152E+01 -0.19881241673E+02 -0.68752375944E+02  0.71759511747E+02  0.47000000000E+01 0.  1.
          5    1    3    3  503    0 -0.11245119265E+03 -0.60887459598E+02 -0.39018153600E+03  0.41062912038E+03  0.47000000000E+01 0.  1.
         -5    1    3    3    0  503 -0.28576346520E+02  0.17221057950E+01 -0.27362334672E+01  0.29140181921E+02  0.47000000000E+01 0.  1.
<mgrwt>
<rscale>  0 0.19325383E+03</rscale>
<asrwt>0</asrwt>
<pdfrwt beam="1">  1        1 0.62051828E-02 0.19751624E+03</pdfrwt>
<pdfrwt beam="2">  1       -1 0.13858514E+00 0.19751624E+03</pdfrwt>
<totfact> 0.57089803E+02</totfact>
</mgrwt>
</event>
<event>
 8    1  0.3520338E-004  0.2397239E+03  0.7546771E-02  0.1122743E+00
         -1   -1    0    0    0  501 -0.00000000000E+00  0.00000000000E+00  0.17113211984E+03  0.17113211984E+03  0.00000000000E+00 0.  1.
          1   -1    0    0  501    0  0.00000000000E+00 -0.00000000000E+00 -0.35625288448E+03  0.35625288448E+03  0.00000000000E+00 0. -1.
         25    2    1    2    0    0  0.17054155710E+03 -0.11294286650E+03 -0.43829113449E+01  0.23976399275E+03  0.12500819380E+03 0.  0.
         23    2    1    2    0    0 -0.17054155710E+03  0.11294286650E+03 -0.18073785330E+03  0.28762101157E+03  0.90659587959E+02 0.  0.
          5    1    4    4  502    0 -0.14781110515E+03  0.10451736195E+03 -0.18883441868E+03  0.26163434299E+03  0.47000000000E+01 0. -1.
         -5    1    4    4    0  502 -0.22730451952E+02  0.84255045452E+01  0.80965653789E+01  0.25986668577E+02  0.47000000000E+01 0.  1.
          5    1    3    3  503    0  0.29540528317E+02 -0.91229140889E+02  0.88313864267E+01  0.96413081824E+02  0.47000000000E+01 0. -1.
         -5    1    3    3    0  503  0.14100102879E+03 -0.21713725609E+02 -0.13214297772E+02  0.14335091093E+03  0.47000000000E+01 0. -1.
<mgrwt>
<rscale>  0 0.23562401E+03</rscale>
<asrwt>0</asrwt>
<pdfrwt beam="1">  1        1 0.54808135E-01 0.23972393E+03</pdfrwt>
<pdfrwt beam="2">  1       -1 0.26328019E-01 0.23972393E+03</pdfrwt>
<totfact> 0.89920951E+02</totfact>
</mgrwt>
</event>
<event>
 8    1  0.3520338E-004  0.1267639E+03  0.7546771E-02  0.1247624E+00
          1   -1    0    0  501    0  0.00000000000E+00  0.00000000000E+00  0.48670919156E+03  0.48670919156E+03  0.00000000000E+00 0. -1.
         -1   -1    0    0    0  501 -0.00000000000E+00 -0.00000000000E+00 -0.35542320136E+02  0.35542320136E+02  0.00000000000E+00 0.  1.
         25    2    1    2    0    0 -0.21083308154E+02  0.22627883718E+00  0.39223299898E+03  0.41220845342E+03  0.12499810598E+03 0.  0.
         23    2    1    2    0    0  0.21083308154E+02 -0.22627883718E+00  0.58933872442E+02  0.11004305827E+03  0.90508100565E+02 0.  0.
          5    1    3    3  502    0  0.21128414871E+02 -0.53216073179E+02  0.15314609803E+03  0.16356704345E+03  0.47000000000E+01 0.  1.
         -5    1    3    3    0  502 -0.42211723025E+02  0.53442352016E+02  0.23908690095E+03  0.24864140998E+03  0.47000000000E+01 0.  1.
          5    1    4    4  503    0  0.41886355585E+02  0.29523400102E+02  0.51276260196E+02  0.72646010197E+02  0.47000000000E+01 0. -1.
         -5    1    4    4    0  503 -0.20803047432E+02 -0.29749678939E+02  0.76576122458E+01  0.37397048075E+02  0.47000000000E+01 0.  1.
<mgrwt>
<rscale>  0 0.11729715E+03</rscale>
<asrwt>0</asrwt>
<pdfrwt beam="1">  1        1 0.74878332E-01 0.12676389E+03</pdfrwt>
<pdfrwt beam="2">  1       -1 0.54680496E-02 0.12676389E+03</pdfrwt>
<totfact> 0.68689097E+03</totfact>
</mgrwt>
</event>
<event>
 8    1  0.3520338E-004  0.1621147E+03  0.7546771E-02  0.1193869E+00
         -1   -1    0    0    0  501 -0.00000000000E+00  0.00000000000E+00  0.12401008691E+03  0.12401008691E+03  0.00000000000E+00 0.  1.
          1   -1    0    0  501    0  0.00000000000E+00 -0.00000000000E+00 -0.18568768179E+03  0.18568768179E+03  0.00000000000E+00 0. -1.
         25    2    1    2    0    0 -0.10264504632E+03 -0.11014985391E+02 -0.79384775021E+01  0.16230895090E+03  0.12499536263E+03 0.  0.
         23    2    1    2    0    0  0.10264504632E+03  0.11014985391E+02 -0.53739117374E+02  0.14738881781E+03  0.90433596863E+02 0.  0.
          5    1    3    3  502    0 -0.54580516839E+02 -0.63317064094E+02  0.19581864253E+02  0.85986178142E+02  0.47000000000E+01 0.  1.
         -5    1    3    3    0  502 -0.48064529477E+02  0.52302078703E+02 -0.27520341755E+02  0.76322772754E+02  0.47000000000E+01 0.  1.
          5    1    4    4  503    0  0.95953153589E+02 -0.17743540005E+02 -0.62812726113E+02  0.11614374481E+03  0.47000000000E+01 0. -1.
         -5    1    4    4    0  503  0.66918927266E+01  0.28758525396E+02  0.90736087391E+01  0.31245073000E+02  0.47000000000E+01 0.  1.
<mgrwt>
<rscale>  0 0.15550313E+03</rscale>
<asrwt>0</asrwt>
<pdfrwt beam="1">  1        1 0.28567336E-01 0.16211470E+03</pdfrwt>
<pdfrwt beam="2">  1       -1 0.19078475E-01 0.16211470E+03</pdfrwt>
<totfact> 0.34169346E+03</totfact>
</mgrwt>
</event>
<event>
 8    1  0.3520338E-004  0.2262905E+03  0.7546771E-02  0.1132562E+00
         -4   -1    0    0    0  501 -0.00000000000E+00  0.00000000000E+00  0.85622158534E+02  0.85622158534E+02  0.00000000000E+00 0.  1.
          4   -1    0    0  501    0  0.00000000000E+00 -0.00000000000E+00 -0.75762719676E+03  0.75762719676E+03  0.00000000000E+00 0. -1.
         25    2    1    2    0    0 -0.28361880777E+02  0.18648871039E+03 -0.12671262923E+03  0.25935205391E+03  0.12499984830E+03 0.  0.
         23    2    1    2    0    0  0.28361880777E+02 -0.18648871039E+03 -0.54529240900E+03  0.58389730139E+03  0.89497552333E+02 0.  0.
          5    1    3    3  502    0  0.39829234648E+02  0.13453504925E+03 -0.76012897011E+02  0.15964365919E+03  0.47000000000E+01 0.  1.
         -5    1    4    4    0  503  0.42852897066E+02 -0.16180909949E+03 -0.36877559912E+03  0.40501368862E+03  0.47000000000E+01 0.  1.
          5    1    4    4  503    0 -0.14491016289E+02 -0.24679610905E+02 -0.17651680988E+03  0.17888361277E+03  0.47000000000E+01 0. -1.
         -5    1    3    3    0  502 -0.68191115424E+02  0.51953661147E+02 -0.50699732218E+02  0.99708394714E+02  0.47000000000E+01 0.  1.
<mgrwt>
<rscale>  0 0.22178181E+03</rscale>
<asrwt>0</asrwt>
<pdfrwt beam="1">  1        4 0.11655803E+00 0.22629052E+03</pdfrwt>
<pdfrwt beam="2">  1       -4 0.13172640E-01 0.22629052E+03</pdfrwt>
<totfact> 0.50682323E+01</totfact>
</mgrwt>
</event>
<event>
 8    1  0.3520338E-004  0.1400206E+03  0.7546771E-02  0.1224471E+00
          1   -1    0    0  501    0  0.00000000000E+00  0.00000000000E+00  0.93816946770E+02  0.93816946770E+02  0.00000000000E+00 0. -1.
         -1   -1    0    0    0  501 -0.00000000000E+00 -0.00000000000E+00 -0.36069278802E+03  0.36069278802E+03  0.00000000000E+00 0.  1.
         25    2    1    2    0    0  0.59113838139E+02 -0.22053358722E+02 -0.30647024107E+03  0.33694179916E+03  0.12499988348E+03 0.  0.
         23    2    1    2    0    0 -0.59113838139E+02  0.22053358722E+02  0.39594399814E+02  0.11756793563E+03  0.90959917008E+02 0.  0.
          5    1    4    4  502    0 -0.50635424481E+02 -0.23368206328E+02  0.43609835664E+02  0.70950172981E+02  0.47000000000E+01 0. -1.
         -5    1    3    3    0  503 -0.23921596247E+02 -0.26126211213E+02 -0.19252939065E+03  0.19581746077E+03  0.47000000000E+01 0. -1.
          5    1    3    3  503    0  0.83035434386E+02  0.40728524906E+01 -0.11394085041E+03  0.14112433838E+03  0.47000000000E+01 0. -1.
         -5    1    4    4    0  502 -0.84784136574E+01  0.45421565050E+02 -0.40154358494E+01  0.46617762653E+02  0.47000000000E+01 0.  1.
<mgrwt>
<rscale>  0 0.13203252E+03</rscale>
<asrwt>0</asrwt>
<pdfrwt beam="1">  1        1 0.14433376E-01 0.14002060E+03</pdfrwt>
<pdfrwt beam="2">  1       -1 0.55491198E-01 0.14002060E+03</pdfrwt>
<totfact> 0.13014517E+03</totfact>
</mgrwt>
</event>
<event>
 8    1  0.3520338E-004  0.1379005E+03  0.7546771E-02  0.1227451E+00
         -2   -1    0    0    0  501 -0.00000000000E+00  0.00000000000E+00  0.30815526645E+03  0.30815526645E+03  0.00000000000E+00 0. -1.
          2   -1    0    0  501    0  0.00000000000E+00 -0.00000000000E+00 -0.96358910581E+02  0.96358910581E+02  0.00000000000E+00 0.  1.
         25    2    1    2    0    0  0.33877856920E+02  0.47376857283E+02  0.25293293363E+03  0.28808267558E+03  0.12499713300E+03 0.  0.
         23    2    1    2    0    0 -0.33877856920E+02 -0.47376857283E+02 -0.41136577769E+02  0.11643150145E+03  0.92042385363E+02 0.  0.
          5    1    4    4  502    0 -0.28233746058E+02 -0.74492612650E+02 -0.23220218201E+02  0.83111745795E+02  0.47000000000E+01 0. -1.
         -5    1    3    3    0  503 -0.85499740814E+01 -0.25305340073E+02  0.16135371017E+03  0.16361715093E+03  0.47000000000E+01 0. -1.
          5    1    3    3  503    0  0.42427831001E+02  0.72682197356E+02  0.91579223463E+02  0.12446552465E+03  0.47000000000E+01 0. -1.
         -5    1    4    4    0  502 -0.56441108620E+01  0.27115755367E+02 -0.17916359568E+02  0.33319755652E+02  0.47000000000E+01 0.  1.
<mgrwt>
<rscale>  0 0.13000310E+03</rscale>
<asrwt>0</asrwt>
<pdfrwt beam="1">  1        2 0.14824448E-01 0.13790054E+03</pdfrwt>
<pdfrwt beam="2">  1       -2 0.47408502E-01 0.13790054E+03</pdfrwt>
<totfact> 0.16430241E+03</totfact>
</mgrwt>
</event>
<event>
 8    1  0.3520338E-004  0.1371443E+03  0.7546771E-02  0.1228783E+00
         -2   -1    0    0    0  501 -0.00000000000E+00  0.00000000000E+00  0.33293743435E+02  0.33293743435E+02  0.00000000000E+00 0.  1.
          2   -1    0    0  501    0  0.00000000000E+00 -0.00000000000E+00 -0.51189789241E+03  0.51189789241E+03  0.00000000000E+00 0. -1.
         25    2    1    2    0    0  0.42918819205E+02  0.36598591421E+02 -0.17057894584E+03  0.21887381965E+03  0.12500836064E+03 0.  0.
         23    2    1    2    0    0 -0.42918819205E+02 -0.36598591421E+02 -0.30802520314E+03  0.32631781620E+03  0.91773141293E+02 0.  0.
          5    1    4    4  502    0 -0.18141198130E+01 -0.32889804909E+02 -0.26285191787E+03  0.26494952543E+03  0.47000000000E+01 0. -1.
         -5    1    4    4    0  502 -0.41104699392E+02 -0.37087865120E+01 -0.45173285264E+02  0.61368290762E+02  0.47000000000E+01 0.  1.
          5    1    3    3  503    0  0.22098317928E+01  0.22389972900E+02 -0.17386415469E+03  0.17537681868E+03  0.47000000000E+01 0.  1.
         -5    1    3    3    0  503  0.40708987413E+02  0.14208618521E+02  0.32852088525E+01  0.43497000973E+02  0.47000000000E+01 0.  1.
<mgrwt>
<rscale>  0 0.12910957E+03</rscale>
<asrwt>0</asrwt>
<pdfrwt beam="1">  1        2 0.78753519E-01 0.13714435E+03</pdfrwt>
<pdfrwt beam="2">  1       -2 0.51221146E-02 0.13714435E+03</pdfrwt>
<totfact> 0.10887597E+04</totfact>
</mgrwt>
</event>
<event>
 8    1  0.3520338E-004  0.1447590E+03  0.7546771E-02  0.1216961E+00
         -1   -1    0    0    0  501 -0.00000000000E+00  0.00000000000E+00  0.32710606532E+02  0.32710606532E+02  0.00000000000E+00 0. -1.
          1   -1    0    0  501    0  0.00000000000E+00 -0.00000000000E+00 -0.56398408870E+03  0.56398408870E+03  0.00000000000E+00 0.  1.
         25    2    1    2    0    0  0.38873894742E+02  0.61805412261E+02 -0.36985877102E+03  0.39717841347E+03  0.12499637174E+03 0.  0.
         23    2    1    2    0    0 -0.38873894742E+02 -0.61805412261E+02 -0.16141471115E+03  0.19951628176E+03  0.91765729097E+02 0.  0.
          5    1    4    4  502    0  0.44480100496E+01 -0.54841164102E+02 -0.34414231398E+02  0.65067406558E+02  0.47000000000E+01 0. -1.
         -5    1    4    4    0  502 -0.43321904792E+02 -0.69642481582E+01 -0.12700047975E+03  0.13444887521E+03  0.47000000000E+01 0.  1.
          5    1    3    3  503    0  0.46757883570E+02  0.85215180987E+02 -0.17112156415E+03  0.19685681717E+03  0.47000000000E+01 0. -1.
         -5    1    3    3    0  503 -0.78839888279E+01 -0.23409768726E+02 -0.19873720687E+03  0.20032159630E+03  0.47000000000E+01 0. -1.
<mgrwt>
<rscale>  0 0.13733466E+03</rscale>
<asrwt>0</asrwt>
<pdfrwt beam="1">  1        1 0.86766778E-01 0.14475905E+03</pdfrwt>
<pdfrwt beam="2">  1       -1 0.50324013E-02 0.14475905E+03</pdfrwt>
<totfact> 0.64477868E+03</totfact>
</mgrwt>
</event>
<event>
 8    1  0.3520338E-004  0.1455535E+03  0.7546771E-02  0.1218389E+00
         -3   -1    0    0    0  501 -0.00000000000E+00  0.00000000000E+00  0.68682670307E+03  0.68682670307E+03  0.00000000000E+00 0.  1.
          3   -1    0    0  501    0  0.00000000000E+00 -0.00000000000E+00 -0.36133250586E+02  0.36133250586E+02  0.00000000000E+00 0. -1.
         25    2    1    2    0    0  0.74440359362E+02 -0.42757998547E+01  0.14659113538E+03  0.20657877030E+03  0.12500471111E+03 0.  0.
         23    2    1    2    0    0 -0.74440359362E+02  0.42757998547E+01  0.50410231710E+03  0.51638118336E+03  0.83490902790E+02 0.  0.
          5    1    3    3  502    0  0.78470341223E+02  0.48354528381E+02  0.99082432209E+02  0.13540743421E+03  0.47000000000E+01 0. -1.
         -5    1    4    4    0  503 -0.67345089219E+02  0.32020825692E+02  0.25885931038E+03  0.26942703444E+03  0.47000000000E+01 0.  1.
          5    1    4    4  503    0 -0.70952701434E+01 -0.27745025837E+02  0.24524300673E+03  0.24695414891E+03  0.47000000000E+01 0. -1.
         -5    1    3    3    0  502 -0.40299818614E+01 -0.52630328236E+02  0.47508703174E+02  0.71171336093E+02  0.47000000000E+01 0. -1.
<mgrwt>
<rscale>  0 0.13630525E+03</rscale>
<asrwt>0</asrwt>
<pdfrwt beam="1">  1        3 0.55589621E-02 0.14555352E+03</pdfrwt>
<pdfrwt beam="2">  1       -3 0.10566564E+00 0.14555352E+03</pdfrwt>
<totfact> 0.36020459E+02</totfact>
</mgrwt>
</event>
<event>
 8    1  0.3520338E-004  0.2080535E+03  0.7546771E-02  0.1147124E+00
          2   -1    0    0  501    0  0.00000000000E+00  0.00000000000E+00  0.40043363058E+03  0.40043363058E+03  0.00000000000E+00 0.  1.
         -2   -1    0    0    0  501 -0.00000000000E+00 -0.00000000000E+00 -0.12618123666E+03  0.12618123666E+03  0.00000000000E+00 0. -1.
         25    2    1    2    0    0 -0.15403869294E+03 -0.62712574729E+02  0.26557329192E+03  0.33736539825E+03  0.12500181040E+03 0.  0.
         23    2    1    2    0    0  0.15403869294E+03  0.62712574729E+02  0.86791020010E+01  0.18924946899E+03  0.89884641345E+02 0.  0.
          5    1    4    4  502    0  0.12706221102E+03  0.85669615519E+02  0.69566794224E+01  0.15347499431E+03  0.47000000000E+01 0. -1.
         -5    1    4    4    0  502  0.26976481928E+02 -0.22957040789E+02  0.17224225786E+01  0.35774474679E+02  0.47000000000E+01 0.  1.
          5    1    3    3  503    0 -0.10542851552E+02 -0.20180538110E+02 -0.87452176884E+01  0.24838974811E+02  0.47000000000E+01 0. -1.
         -5    1    3    3    0  503 -0.14349584139E+03 -0.42532036619E+02  0.27431850961E+03  0.31252642344E+03  0.47000000000E+01 0. -1.
<mgrwt>
<rscale>  0 0.20313070E+03</rscale>
<asrwt>0</asrwt>
<pdfrwt beam="1">  1        2 0.61605173E-01 0.20805345E+03</pdfrwt>
<pdfrwt beam="2">  1       -2 0.19412498E-01 0.20805345E+03</pdfrwt>
<totfact> 0.17521508E+03</totfact>
</mgrwt>
</event>
<event>
 8    1  0.3520338E-004  0.1288948E+03  0.7546771E-02  0.1242982E+00
          2   -1    0    0  501    0  0.00000000000E+00  0.00000000000E+00  0.33329709418E+03  0.33329709418E+03  0.00000000000E+00 0.  1.
         -2   -1    0    0    0  501 -0.00000000000E+00 -0.00000000000E+00 -0.46560110766E+02  0.46560110766E+02  0.00000000000E+00 0. -1.
         25    2    1    2    0    0  0.21175589528E+02 -0.23253859114E+02  0.23935111111E+03  0.27185076131E+03  0.12499893792E+03 0.  0.
         23    2    1    2    0    0 -0.21175589528E+02  0.23253859114E+02  0.47385872301E+02  0.10800644363E+03  0.91819515443E+02 0.  0.
          5    1    3    3  502    0  0.32399074708E+02 -0.48059631765E+02  0.39966466740E+02  0.70560872380E+02  0.47000000000E+01 0. -1.
         -5    1    3    3    0  502 -0.11223485180E+02  0.24805772651E+02  0.19938464437E+03  0.20128988893E+03  0.47000000000E+01 0. -1.
          5    1    4    4  503    0 -0.84990371705E-01  0.56878969929E+02  0.26956132244E+02  0.63118519542E+02  0.47000000000E+01 0. -1.
         -5    1    4    4    0  503 -0.21090599157E+02 -0.33625110815E+02  0.20429740057E+02  0.44887924088E+02  0.47000000000E+01 0.  1.
<mgrwt>
<rscale>  0 0.12006955E+03</rscale>
<asrwt>0</asrwt>
<pdfrwt beam="1">  1        2 0.51276475E-01 0.12889485E+03</pdfrwt>
<pdfrwt beam="2">  1       -2 0.71630942E-02 0.12889485E+03</pdfrwt>
<totfact> 0.10334700E+04</totfact>
</mgrwt>
</event>
<event>
 8    1  0.3520338E-004  0.1860039E+03  0.7546771E-02  0.1167160E+00
         -1   -1    0    0    0  501 -0.00000000000E+00  0.00000000000E+00  0.49655514196E+03  0.49655514196E+03  0.00000000000E+00 0.  1.
          1   -1    0    0  501    0  0.00000000000E+00 -0.00000000000E+00 -0.78931089462E+02  0.78931089462E+02  0.00000000000E+00 0. -1.
         25    2    1    2    0    0 -0.70917639921E+02 -0.11808025614E+03  0.86187873968E+02  0.20500197610E+03  0.12500080817E+03 0.  0.
         23    2    1    2    0    0  0.70917639921E+02  0.11808025614E+03  0.33143617853E+03  0.37048425532E+03  0.91849792914E+02 0.  0.
          5    1    3    3  502    0 -0.50197442021E+02 -0.11258470152E+03  0.78047665323E+01  0.12360462201E+03  0.47000000000E+01 0.  1.
         -5    1    3    3    0  502 -0.20720197901E+02 -0.54955546220E+01  0.78383107436E+02  0.81397354091E+02  0.47000000000E+01 0.  1.
          5    1    4    4  503    0  0.72184053050E+01  0.62978486022E+02  0.64589317565E+02  0.90621548322E+02  0.47000000000E+01 0. -1.
         -5    1    4    4    0  503  0.63699234616E+02  0.55101770122E+02  0.26684686097E+03  0.27986270700E+03  0.47000000000E+01 0.  1.
<mgrwt>
<rscale>  0 0.18066646E+03</rscale>
<asrwt>0</asrwt>
<pdfrwt beam="1">  1        1 0.12143245E-01 0.18600393E+03</pdfrwt>
<pdfrwt beam="2">  1       -1 0.76393097E-01 0.18600393E+03</pdfrwt>
<totfact> 0.88160897E+02</totfact>
</mgrwt>
</event>
<event>
 8    1  0.3520338E-004  0.1583365E+03  0.7546771E-02  0.1196845E+00
         -1   -1    0    0    0  501 -0.00000000000E+00  0.00000000000E+00  0.10690224527E+03  0.10690224527E+03  0.00000000000E+00 0.  1.
          1   -1    0    0  501    0  0.00000000000E+00 -0.00000000000E+00 -0.25144334954E+03  0.25144334954E+03  0.00000000000E+00 0. -1.
         25    2    1    2    0    0 -0.78415200649E+02 -0.57420315823E+02 -0.15285754772E+03  0.22008152120E+03  0.12499763885E+03 0.  0.
         23    2    1    2    0    0  0.78415200649E+02  0.57420315823E+02  0.83164434488E+01  0.13826407360E+03  0.97988542473E+02 0.  0.
          5    1    3    3  502    0 -0.22362408967E+02 -0.80802001684E+02 -0.42702636639E+02  0.94205339482E+02  0.47000000000E+01 0. -1.
         -5    1    3    3    0  502 -0.56052791682E+02  0.23381685861E+02 -0.11015491108E+03  0.12587618172E+03  0.47000000000E+01 0. -1.
          5    1    4    4  503    0  0.64860339403E+02  0.41293599258E+01 -0.29330297313E+02  0.71458180647E+02  0.47000000000E+01 0. -1.
         -5    1    4    4    0  503  0.13554861246E+02  0.53290955898E+02  0.37646740762E+02  0.66805892958E+02  0.47000000000E+01 0.  1.
<mgrwt>
<rscale>  0 0.15299116E+03</rscale>
<asrwt>0</asrwt>
<pdfrwt beam="1">  1        1 0.38683592E-01 0.15833650E+03</pdfrwt>
<pdfrwt beam="2">  1       -1 0.16446499E-01 0.15833650E+03</pdfrwt>
<totfact> 0.29639582E+03</totfact>
</mgrwt>
</event>
<event>
 8    1  0.3520338E-004  0.1394696E+03  0.7546771E-02  0.1224515E+00
          2   -1    0    0  501    0  0.00000000000E+00  0.00000000000E+00  0.37091856674E+03  0.37091856674E+03  0.00000000000E+00 0.  1.
         -2   -1    0    0    0  501 -0.00000000000E+00 -0.00000000000E+00 -0.56865940505E+02  0.56865940505E+02  0.00000000000E+00 0. -1.
         25    2    1    2    0    0  0.37275923959E+02 -0.49378261406E+02  0.27659364125E+03  0.30976733000E+03  0.12499619653E+03 0.  0.
         23    2    1    2    0    0 -0.37275923959E+02  0.49378261406E+02  0.37458984980E+02  0.11801717725E+03  0.93258626211E+02 0.  0.
          5    1    4    4  502    0  0.19021046294E+02 -0.10548727776E+02 -0.83618956771E+01  0.23771561983E+02  0.47000000000E+01 0. -1.
         -5    1    4    4    0  502 -0.56296970253E+02  0.59926989182E+02  0.45820880657E+02  0.94245615262E+02  0.47000000000E+01 0.  1.
          5    1    3    3  503    0 -0.26481583955E+02 -0.25197183144E+02  0.15683694489E+02  0.40052972424E+02  0.47000000000E+01 0. -1.
         -5    1    3    3    0  503  0.63757507914E+02 -0.24181078262E+02  0.26090994676E+03  0.26971435757E+03  0.47000000000E+01 0. -1.
<mgrwt>
<rscale>  0 0.13200222E+03</rscale>
<asrwt>0</asrwt>
<pdfrwt beam="1">  1        2 0.57064393E-01 0.13946955E+03</pdfrwt>
<pdfrwt beam="2">  1       -2 0.87486065E-02 0.13946955E+03</pdfrwt>
<totfact> 0.68129535E+03</totfact>
</mgrwt>
</event>
<event>
 8    1  0.3520338E-004  0.1366722E+03  0.7546771E-02  0.1230073E+00
         -1   -1    0    0    0  501 -0.00000000000E+00  0.00000000000E+00  0.49323504093E+02  0.49323504093E+02  0.00000000000E+00 0.  1.
          1   -1    0    0  501    0  0.00000000000E+00 -0.00000000000E+00 -0.30008714426E+03  0.30008714426E+03  0.00000000000E+00 0. -1.
         25    2    1    2    0    0  0.32998376011E+02 -0.44321027896E+02 -0.15402912106E+03  0.20592296034E+03  0.12500419645E+03 0.  0.
         23    2    1    2    0    0 -0.32998376011E+02  0.44321027896E+02 -0.96734519111E+02  0.14348768801E+03  0.90431759301E+02 0.  0.
          5    1    4    4  502    0 -0.18207274121E+02 -0.22529178077E+02 -0.57195666053E+02  0.64284546440E+02  0.47000000000E+01 0. -1.
         -5    1    3    3    0  503 -0.32377260586E+02  0.24724712929E+01 -0.80035756801E+00  0.32819669248E+02  0.47000000000E+01 0.  1.
          5    1    3    3  503    0  0.65375636597E+02 -0.46793499189E+02 -0.15322876349E+03  0.17310329109E+03  0.47000000000E+01 0.  1.
         -5    1    4    4    0  502 -0.14791101890E+02  0.66850205973E+02 -0.39538853058E+02  0.79203141572E+02  0.47000000000E+01 0.  1.
<mgrwt>
<rscale>  0 0.12825172E+03</rscale>
<asrwt>0</asrwt>
<pdfrwt beam="1">  1        1 0.46167254E-01 0.13667222E+03</pdfrwt>
<pdfrwt beam="2">  1       -1 0.75882313E-02 0.13667222E+03</pdfrwt>
<totfact> 0.77773027E+03</totfact>
</mgrwt>
</event>
<event>
 8    1  0.3520338E-004  0.1251177E+03  0.7546771E-02  0.1249945E+00
         -1   -1    0    0    0  501 -0.00000000000E+00  0.00000000000E+00  0.13783007355E+02  0.13783007355E+02  0.00000000000E+00 0.  1.
          1   -1    0    0  501    0  0.00000000000E+00 -0.00000000000E+00 -0.93175881506E+03  0.93175881506E+03  0.00000000000E+00 0. -1.
         25    2    1    2    0    0 -0.56023286133E+01  0.70383534704E+00 -0.65523101119E+03  0.66706979327E+03  0.12499019800E+03 0.  0.
         23    2    1    2    0    0  0.56023286133E+01 -0.70383534704E+00 -0.26274479651E+03  0.27847202914E+03  0.92086706159E+02 0.  0.
          5    1    4    4  502    0  0.40732071520E+02  0.22592975694E+02 -0.17278912083E+03  0.17901875454E+03  0.47000000000E+01 0. -1.
         -5    1    3    3    0  503  0.44971591951E+02 -0.38535496944E+02 -0.36713438264E+03  0.37191016863E+03  0.47000000000E+01 0.  1.
          5    1    3    3  503    0 -0.50573920564E+02  0.39239332291E+02 -0.28809662855E+03  0.29515962464E+03  0.47000000000E+01 0.  1.
         -5    1    4    4    0  502 -0.35129742907E+02 -0.23296811041E+02 -0.89955675684E+02  0.99453274602E+02  0.47000000000E+01 0.  1.
<mgrwt>
<rscale>  0 0.11594231E+03</rscale>
<asrwt>0</asrwt>
<pdfrwt beam="1">  1        1 0.14334749E+00 0.12511767E+03</pdfrwt>
<pdfrwt beam="2">  1       -1 0.21204630E-02 0.12511767E+03</pdfrwt>
<totfact> 0.10858275E+04</totfact>
</mgrwt>
</event>
<event>
 8    1  0.3520338E-004  0.1265368E+03  0.7546771E-02  0.1247518E+00
         -2   -1    0    0    0  501 -0.00000000000E+00  0.00000000000E+00  0.62521957566E+02  0.62521957566E+02  0.00000000000E+00 0.  1.
          2   -1    0    0  501    0  0.00000000000E+00 -0.00000000000E+00 -0.50034047973E+03  0.50034047973E+03  0.00000000000E+00 0. -1.
         25    2    1    2    0    0 -0.16775998859E+02  0.10256064467E+02 -0.45090219243E+03  0.46832077190E+03  0.12499974903E+03 0.  0.
         23    2    1    2    0    0  0.16775998859E+02 -0.10256064467E+02  0.13083670268E+02  0.94541665395E+02  0.91544104517E+02 0.  0.
          5    1    4    4  502    0  0.35122469463E+02 -0.32354382424E+02 -0.18651748297E+02  0.51481760243E+02  0.47000000000E+01 0. -1.
         -5    1    4    4    0  502 -0.18346470604E+02  0.22098317957E+02  0.31735418565E+02  0.43059905151E+02  0.47000000000E+01 0.  1.
          5    1    3    3  503    0 -0.28423571259E+02  0.37068712897E+02 -0.42882529214E+03  0.43138754045E+03  0.47000000000E+01 0.  1.
         -5    1    3    3    0  503  0.11647572401E+02 -0.26812648430E+02 -0.22076900288E+02  0.36933231445E+02  0.47000000000E+01 0.  1.
<mgrwt>
<rscale>  0 0.11735960E+03</rscale>
<asrwt>0</asrwt>
<pdfrwt beam="1">  1        2 0.76975460E-01 0.12653679E+03</pdfrwt>
<pdfrwt beam="2">  1       -2 0.96187625E-02 0.12653679E+03</pdfrwt>
<totfact> 0.42342430E+03</totfact>
</mgrwt>
</event>
<event>
 8    1  0.3520338E-004  0.1404614E+03  0.7546771E-02  0.1223583E+00
          1   -1    0    0  501    0  0.00000000000E+00  0.00000000000E+00  0.24998217214E+02  0.24998217214E+02  0.00000000000E+00 0. -1.
         -1   -1    0    0    0  501 -0.00000000000E+00 -0.00000000000E+00 -0.65762880209E+03  0.65762880209E+03  0.00000000000E+00 0.  1.
         25    2    1    2    0    0 -0.49747013309E+02 -0.40363757036E+02 -0.41277350839E+03  0.43601763303E+03  0.12500163545E+03 0.  0.
         23    2    1    2    0    0  0.49747013309E+02  0.40363757036E+02 -0.21985707648E+03  0.24660938628E+03  0.91515338085E+02 0.  0.
          5    1    4    4  502    0  0.14921531190E+02  0.26266206944E+02 -0.82835175223E+01  0.31674475257E+02  0.47000000000E+01 0. -1.
         -5    1    4    4    0  502  0.34825482119E+02  0.14097550091E+02 -0.21157355896E+03  0.21493491102E+03  0.47000000000E+01 0.  1.
          5    1    3    3  503    0 -0.24711199785E+02  0.35925169010E+02 -0.60769454853E+02  0.74941829483E+02  0.47000000000E+01 0.  1.
         -5    1    3    3    0  503 -0.25035813524E+02 -0.76288926046E+02 -0.35200405354E+03  0.36107580354E+03  0.47000000000E+01 0.  1.
<mgrwt>
<rscale>  0 0.13264488E+03</rscale>
<asrwt>0</asrwt>
<pdfrwt beam="1">  1        1 0.38458798E-02 0.14046141E+03</pdfrwt>
<pdfrwt beam="2">  1       -1 0.10117366E+00 0.14046141E+03</pdfrwt>
<totfact> 0.22885921E+03</totfact>
</mgrwt>
</event>
<event>
 8    1  0.3520338E-004  0.1678092E+03  0.7546771E-02  0.1186863E+00
         -2   -1    0    0    0  501 -0.00000000000E+00  0.00000000000E+00  0.24277697493E+02  0.24277697493E+02  0.00000000000E+00 0.  1.
          2   -1    0    0  501    0  0.00000000000E+00 -0.00000000000E+00 -0.11057713281E+04  0.11057713281E+04  0.00000000000E+00 0. -1.
         25    2    1    2    0    0 -0.34639947637E+02  0.10646175195E+03 -0.40652215672E+03  0.43979563735E+03  0.12500363247E+03 0.  0.
         23    2    1    2    0    0  0.34639947637E+02 -0.10646175195E+03 -0.67497147386E+03  0.69025338821E+03  0.91264553968E+02 0.  0.
          5    1    3    3  502    0 -0.35840949600E+02  0.43582821733E+02 -0.35171158761E+03  0.35624032180E+03  0.47000000000E+01 0. -1.
         -5    1    4    4    0  503  0.58826958272E+02 -0.57109888180E+02 -0.29195557524E+03  0.30328583590E+03  0.47000000000E+01 0.  1.
          5    1    4    4  503    0 -0.24187010634E+02 -0.49351863771E+02 -0.38301589862E+03  0.38696755231E+03  0.47000000000E+01 0. -1.
         -5    1    3    3    0  502  0.12010019624E+01  0.62878930218E+02 -0.54810569110E+02  0.83555315554E+02  0.47000000000E+01 0. -1.
<mgrwt>
<rscale>  0 0.16163471E+03</rscale>
<asrwt>0</asrwt>
<pdfrwt beam="1">  1        2 0.17011866E+00 0.16780923E+03</pdfrwt>
<pdfrwt beam="2">  1       -2 0.37350306E-02 0.16780923E+03</pdfrwt>
<totfact> 0.67832257E+03</totfact>
</mgrwt>
</event>
<event>
 8    1  0.3520338E-004  0.2066539E+03  0.7546771E-02  0.1148225E+00
          1   -1    0    0  501    0  0.00000000000E+00  0.00000000000E+00  0.26702815665E+04  0.26702815665E+04  0.00000000000E+00 0. -1.
         -1   -1    0    0    0  501 -0.00000000000E+00 -0.00000000000E+00 -0.15718335670E+02  0.15718335670E+02  0.00000000000E+00 0.  1.
         25    2    1    2    0    0 -0.55582260415E+01 -0.16446695379E+03  0.10241538361E+04  0.10447951501E+04  0.12500221183E+03 0.  0.
         23    2    1    2    0    0  0.55582260415E+01  0.16446695379E+03  0.16304093947E+04  0.16412047521E+04  0.90763268651E+02 0.  0.
          5    1    4    4  502    0  0.47114829654E+02  0.10493748946E+03  0.97964695537E+03  0.98638832669E+03  0.47000000000E+01 0. -1.
         -5    1    4    4    0  502 -0.41556603613E+02  0.59529464332E+02  0.65076243937E+03  0.65481642536E+03  0.47000000000E+01 0.  1.
          5    1    3    3  503    0 -0.41486691028E+02 -0.10183837450E+03  0.35322144194E+03  0.36997253560E+03  0.47000000000E+01 0. -1.
         -5    1    3    3    0  503  0.35928464986E+02 -0.62628579292E+02  0.67093239412E+03  0.67482261449E+03  0.47000000000E+01 0. -1.
<mgrwt>
<rscale>  0 0.20180530E+03</rscale>
<asrwt>0</asrwt>
<pdfrwt beam="1">  1        1 0.41081219E+00 0.20665388E+03</pdfrwt>
<pdfrwt beam="2">  1       -1 0.24182076E-02 0.20665388E+03</pdfrwt>
<totfact> 0.63893774E+02</totfact>
</mgrwt>
</event>
<event>
 8    1  0.3520338E-004  0.1289481E+03  0.7546771E-02  0.1247068E+00
          1   -1    0    0  501    0  0.00000000000E+00  0.00000000000E+00  0.19378626891E+02  0.19378626891E+02  0.00000000000E+00 0. -1.
         -1   -1    0    0    0  501 -0.00000000000E+00 -0.00000000000E+00 -0.63979936638E+03  0.63979936638E+03  0.00000000000E+00 0.  1.
         25    2    1    2    0    0 -0.97781334522E+01 -0.30133405424E+02 -0.29971059826E+03  0.32627295789E+03  0.12499586524E+03 0.  0.
         23    2    1    2    0    0  0.97781334522E+01  0.30133405424E+02 -0.32071014123E+03  0.33290503538E+03  0.83469358909E+02 0.  0.
          5    1    3    3  502    0  0.13821162996E+02  0.39328341574E+02 -0.46588248982E+02  0.62692088343E+02  0.47000000000E+01 0. -1.
         -5    1    4    4    0  503  0.21012601734E+02 -0.15340302265E+02 -0.22172557086E+03  0.22329615554E+03  0.47000000000E+01 0.  1.
          5    1    4    4  503    0 -0.11234468282E+02  0.45473707689E+02 -0.98984570374E+02  0.10960887984E+03  0.47000000000E+01 0. -1.
         -5    1    3    3    0  502 -0.23599296449E+02 -0.69461746999E+02 -0.25312234928E+03  0.26358086955E+03  0.47000000000E+01 0. -1.
<mgrwt>
<rscale>  0 0.11762472E+03</rscale>
<asrwt>0</asrwt>
<pdfrwt beam="1">  1        1 0.29813276E-02 0.12894805E+03</pdfrwt>
<pdfrwt beam="2">  1       -1 0.98430658E-01 0.12894805E+03</pdfrwt>
<totfact> 0.34390545E+03</totfact>
</mgrwt>
</event>
<event>
 8    1  0.3520338E-004  0.1618307E+03  0.7546771E-02  0.1194206E+00
          2   -1    0    0  501    0  0.00000000000E+00  0.00000000000E+00  0.87680100591E+02  0.87680100591E+02  0.00000000000E+00 0. -1.
         -2   -1    0    0    0  501 -0.00000000000E+00 -0.00000000000E+00 -0.26440316768E+03  0.26440316768E+03  0.00000000000E+00 0.  1.
         25    2    1    2    0    0 -0.46475445219E+02 -0.91672982433E+02 -0.61545760113E+02  0.17313879241E+03  0.12500103253E+03 0.  0.
         23    2    1    2    0    0  0.46475445219E+02  0.91672982433E+02 -0.11517730698E+03  0.17894447586E+03  0.90506412373E+02 0.  0.
          5    1    4    4  502    0  0.64163792292E+02  0.30321173777E+02 -0.46080777025E+02  0.84746054963E+02  0.47000000000E+01 0. -1.
         -5    1    4    4    0  502 -0.17688347073E+02  0.61351808655E+02 -0.69096529951E+02  0.94198420893E+02  0.47000000000E+01 0.  1.
          5    1    3    3  503    0 -0.17806317889E+02 -0.70605659104E+02 -0.97869944441E+02  0.12207718902E+03  0.47000000000E+01 0. -1.
         -5    1    3    3    0  503 -0.28669127330E+02 -0.21067323329E+02  0.36324184328E+02  0.51061603394E+02  0.47000000000E+01 0. -1.
<mgrwt>
<rscale>  0 0.15521587E+03</rscale>
<asrwt>0</asrwt>
<pdfrwt beam="1">  1        2 0.13489246E-01 0.16183065E+03</pdfrwt>
<pdfrwt beam="2">  1       -2 0.40677411E-01 0.16183065E+03</pdfrwt>
<totfact> 0.24872086E+03</totfact>
</mgrwt>
</event>
<event>
 8    1  0.3520338E-004  0.1333581E+03  0.7546771E-02  0.1236009E+00
         -3   -1    0    0    0  501 -0.00000000000E+00  0.00000000000E+00  0.49080372074E+03  0.49080372074E+03  0.00000000000E+00 0.  1.
          3   -1    0    0  501    0  0.00000000000E+00 -0.00000000000E+00 -0.29158902273E+02  0.29158902273E+02  0.00000000000E+00 0. -1.
         25    2    1    2    0    0  0.31684283140E+01 -0.46362207144E+02  0.20943270673E+03  0.24828700837E+03  0.12499954675E+03 0.  0.
         23    2    1    2    0    0 -0.31684283140E+01  0.46362207144E+02  0.25221211174E+03  0.27167561465E+03  0.89650416035E+02 0.  0.
          5    1    3    3  502    0 -0.30546645415E+02 -0.53806499473E+02  0.36736293910E+02  0.72110208860E+02  0.47000000000E+01 0.  1.
         -5    1    4    4    0  503 -0.19588446192E+02 -0.11054392405E+02  0.16048002013E+03  0.16211672855E+03  0.47000000000E+01 0.  1.
          5    1    4    4  503    0  0.16420017878E+02  0.57416599549E+02  0.91732091618E+02  0.10955888610E+03  0.47000000000E+01 0. -1.
         -5    1    3    3    0  502  0.33715073729E+02  0.74442923288E+01  0.17269641282E+03  0.17617679951E+03  0.47000000000E+01 0.  1.
<mgrwt>
<rscale>  0 0.12440044E+03</rscale>
<asrwt>0</asrwt>
<pdfrwt beam="1">  1        3 0.44859853E-02 0.13335809E+03</pdfrwt>
<pdfrwt beam="2">  1       -3 0.75508259E-01 0.13335809E+03</pdfrwt>
<totfact> 0.10533050E+03</totfact>
</mgrwt>
</event>
<event>
 8    1  0.3520338E-004  0.2504393E+03  0.7546771E-02  0.1115075E+00
          1   -1    0    0  501    0  0.00000000000E+00  0.00000000000E+00  0.55329251657E+03  0.55329251657E+03  0.00000000000E+00 0. -1.
         -1   -1    0    0    0  501 -0.00000000000E+00 -0.00000000000E+00 -0.16821060038E+03  0.16821060038E+03  0.00000000000E+00 0.  1.
         25    2    1    2    0    0 -0.79816029205E+01 -0.21685535139E+03 -0.20572011151E+02  0.25128276707E+03  0.12501948636E+03 0.  0.
         23    2    1    2    0    0  0.79816029205E+01  0.21685535139E+03  0.40565392734E+03  0.47022034989E+03  0.97273425289E+02 0.  0.
          5    1    4    4  502    0  0.15492568563E+02  0.11965250033E+03  0.31364792121E+03  0.33608607379E+03  0.47000000000E+01 0. -1.
         -5    1    3    3    0  503  0.27372806398E+02 -0.10939603658E+03 -0.64313164034E+02  0.12990395074E+03  0.47000000000E+01 0.  1.
          5    1    3    3  503    0 -0.35354409319E+02 -0.10745931481E+03  0.43741152884E+02  0.12137881633E+03  0.47000000000E+01 0.  1.
         -5    1    4    4    0  502 -0.75109656426E+01  0.97202851064E+02  0.92006006130E+02  0.13413427610E+03  0.47000000000E+01 0.  1.
<mgrwt>
<rscale>  0 0.24721958E+03</rscale>
<asrwt>0</asrwt>
<pdfrwt beam="1">  1        1 0.85121925E-01 0.25043926E+03</pdfrwt>
<pdfrwt beam="2">  1       -1 0.25878554E-01 0.25043926E+03</pdfrwt>
<totfact> 0.52036696E+02</totfact>
</mgrwt>
</event>
<event>
 8    1  0.3520338E-004  0.1872147E+03  0.7546771E-02  0.1166271E+00
         -2   -1    0    0    0  501 -0.00000000000E+00  0.00000000000E+00  0.98168707932E+02  0.98168707932E+02  0.00000000000E+00 0.  1.
          2   -1    0    0  501    0  0.00000000000E+00 -0.00000000000E+00 -0.31721505549E+03  0.31721505549E+03  0.00000000000E+00 0. -1.
         25    2    1    2    0    0  0.99570173163E+02  0.97523437941E+02 -0.11687544468E+03  0.22070162070E+03  0.12499718188E+03 0.  0.
         23    2    1    2    0    0 -0.99570173163E+02 -0.97523437941E+02 -0.10217090288E+03  0.19468214272E+03  0.89650448796E+02 0.  0.
          5    1    4    4  502    0 -0.18510020429E+01 -0.46275439970E+02 -0.61185125566E+02  0.76880115397E+02  0.47000000000E+01 0. -1.
         -5    1    4    4    0  502 -0.97719171120E+02 -0.51247997971E+02 -0.40985777312E+02  0.11780202733E+03  0.47000000000E+01 0.  1.
          5    1    3    3  503    0  0.12698135301E+03  0.69733346871E+02 -0.10700849431E+03  0.18016634406E+03  0.47000000000E+01 0. -1.
         -5    1    3    3    0  503 -0.27411179850E+02  0.27790091070E+02 -0.98669503756E+01  0.40535276638E+02  0.47000000000E+01 0. -1.
<mgrwt>
<rscale>  0 0.18159209E+03</rscale>
<asrwt>0</asrwt>
<pdfrwt beam="1">  1        2 0.48802316E-01 0.18721468E+03</pdfrwt>
<pdfrwt beam="2">  1       -2 0.15102878E-01 0.18721468E+03</pdfrwt>
<totfact> 0.34156470E+03</totfact>
</mgrwt>
</event>
<event>
 8    1  0.3520338E-004  0.1555898E+03  0.7546771E-02  0.1202145E+00
         -1   -1    0    0    0  501 -0.00000000000E+00  0.00000000000E+00  0.26502093058E+03  0.26502093058E+03  0.00000000000E+00 0.  1.
          1   -1    0    0  501    0  0.00000000000E+00 -0.00000000000E+00 -0.16633829211E+03  0.16633829211E+03  0.00000000000E+00 0. -1.
         25    2    1    2    0    0 -0.84103743162E+02  0.38855124970E+02  0.20940710427E+03  0.26088218154E+03  0.12500006791E+03 0.  0.
         23    2    1    2    0    0  0.84103743162E+02 -0.38855124970E+02 -0.11072446580E+03  0.17047704115E+03  0.90660652336E+02 0.  0.
          5    1    4    4  502    0  0.83029020215E+02 -0.11390012980E+02 -0.11488622002E+03  0.14228311265E+03  0.47000000000E+01 0. -1.
         -5    1    3    3    0  503 -0.61790768232E+02  0.15134039535E+02  0.17462085624E+02  0.66137376919E+02  0.47000000000E+01 0. -1.
          5    1    3    3  503    0 -0.22312974930E+02  0.23721085435E+02  0.19194501864E+03  0.19474480462E+03  0.47000000000E+01 0. -1.
         -5    1    4    4    0  502  0.10747229469E+01 -0.27465111990E+02  0.41617542251E+01  0.28193928500E+02  0.47000000000E+01 0.  1.
<mgrwt>
<rscale>  0 0.14864749E+03</rscale>
<asrwt>0</asrwt>
<pdfrwt beam="1">  1        1 0.25590506E-01 0.15558977E+03</pdfrwt>
<pdfrwt beam="2">  1       -1 0.40772451E-01 0.15558977E+03</pdfrwt>
<totfact> 0.10975943E+03</totfact>
</mgrwt>
</event>
<event>
 8    1  0.3520338E-004  0.2211305E+03  0.7546771E-02  0.1136377E+00
         -1   -1    0    0    0  501 -0.00000000000E+00  0.00000000000E+00  0.12117897514E+03  0.12117897514E+03  0.00000000000E+00 0.  1.
          1   -1    0    0  501    0  0.00000000000E+00 -0.00000000000E+00 -0.38671334585E+03  0.38671334585E+03  0.00000000000E+00 0. -1.
         25    2    1    2    0    0 -0.15101664672E+03 -0.10231142019E+03 -0.89609872166E+02  0.23859717502E+03  0.12500011381E+03 0.  0.
         23    2    1    2    0    0  0.15101664672E+03  0.10231142019E+03 -0.17592449854E+03  0.26929514596E+03  0.91086728803E+02 0.  0.
          5    1    3    3  502    0 -0.12002210368E+03 -0.64460922273E+02 -0.11932468580E+03  0.18116563282E+03  0.47000000000E+01 0. -1.
         -5    1    4    4    0  503  0.68035937781E+01  0.38364906043E+02 -0.66603208646E+02  0.77306094883E+02  0.47000000000E+01 0.  1.
          5    1    4    4  503    0  0.14421305294E+03  0.63946514144E+02 -0.10932128990E+03  0.19198905108E+03  0.47000000000E+01 0. -1.
         -5    1    3    3    0  502 -0.30994543041E+02 -0.37850497914E+02  0.29714813637E+02  0.57431542206E+02  0.47000000000E+01 0. -1.
<mgrwt>
<rscale>  0 0.21668783E+03</rscale>
<asrwt>0</asrwt>
<pdfrwt beam="1">  1        1 0.59494361E-01 0.22113047E+03</pdfrwt>
<pdfrwt beam="2">  1       -1 0.18642919E-01 0.22113047E+03</pdfrwt>
<totfact> 0.14270947E+03</totfact>
</mgrwt>
</event>
<event>
 8    1  0.3520338E-004  0.1617662E+03  0.7546771E-02  0.1194113E+00
         -2   -1    0    0    0  501 -0.00000000000E+00  0.00000000000E+00  0.40191864938E+03  0.40191864938E+03  0.00000000000E+00 0.  1.
          2   -1    0    0  501    0  0.00000000000E+00 -0.00000000000E+00 -0.74869098772E+02  0.74869098772E+02  0.00000000000E+00 0. -1.
         25    2    1    2    0    0 -0.78394020971E+01  0.10238735125E+03  0.29385599714E+03  0.33543950713E+03  0.12499475976E+03 0.  0.
         23    2    1    2    0    0  0.78394020971E+01 -0.10238735125E+03  0.33193553461E+02  0.14134824102E+03  0.91284649998E+02 0.  0.
          5    1    4    4  502    0 -0.27760229863E+02 -0.65226049938E+02 -0.12778112157E+02  0.72183364447E+02  0.47000000000E+01 0. -1.
         -5    1    3    3    0  503  0.15837702387E+02  0.12644547258E+03  0.23790136441E+03  0.26992302521E+03  0.47000000000E+01 0.  1.
          5    1    3    3  503    0 -0.23677104484E+02 -0.24058121330E+02  0.55954632737E+02  0.65516481922E+02  0.47000000000E+01 0.  1.
         -5    1    4    4    0  502  0.35599631960E+02 -0.37161301314E+02  0.45971665619E+02  0.69164876569E+02  0.47000000000E+01 0.  1.
<mgrwt>
<rscale>  0 0.15529555E+03</rscale>
<asrwt>0</asrwt>
<pdfrwt beam="1">  1        2 0.11518323E-01 0.16176624E+03</pdfrwt>
<pdfrwt beam="2">  1       -2 0.61833637E-01 0.16176624E+03</pdfrwt>
<totfact> 0.13088517E+03</totfact>
</mgrwt>
</event>
<event>
 8    1  0.3520338E-004  0.1378359E+03  0.7546771E-02  0.1228150E+00
         -1   -1    0    0    0  501 -0.00000000000E+00  0.00000000000E+00  0.34458474916E+03  0.34458474916E+03  0.00000000000E+00 0.  1.
          1   -1    0    0  501    0  0.00000000000E+00 -0.00000000000E+00 -0.43816113178E+02  0.43816113178E+02  0.00000000000E+00 0. -1.
         25    2    1    2    0    0 -0.56791452305E+02  0.12238722147E+02  0.15782005555E+03  0.20953737108E+03  0.12499473818E+03 0.  0.
         23    2    1    2    0    0  0.56791452305E+02 -0.12238722147E+02  0.14294858043E+03  0.17886349125E+03  0.90458810970E+02 0.  0.
          5    1    4    4  502    0  0.29503399550E+02 -0.98849154552E+01 -0.17535063414E+01  0.31517089381E+02  0.47000000000E+01 0. -1.
         -5    1    3    3    0  503 -0.22598569598E+02 -0.42183145630E+02  0.13133965486E+03  0.13986532116E+03  0.47000000000E+01 0.  1.
          5    1    3    3  503    0 -0.34192882707E+02  0.54421867777E+02  0.26480400687E+02  0.69672049924E+02  0.47000000000E+01 0.  1.
         -5    1    4    4    0  502  0.27288052755E+02 -0.23538066913E+01  0.14470208677E+03  0.14734640187E+03  0.47000000000E+01 0.  1.
<mgrwt>
<rscale>  0 0.12953330E+03</rscale>
<asrwt>0</asrwt>
<pdfrwt beam="1">  1        1 0.67409407E-02 0.13783592E+03</pdfrwt>
<pdfrwt beam="2">  1       -1 0.53013037E-01 0.13783592E+03</pdfrwt>
<totfact> 0.38876928E+03</totfact>
</mgrwt>
</event>
<event>
 8    1  0.3520338E-004  0.3433578E+03  0.7546771E-02  0.1066540E+00
         -2   -1    0    0    0  501 -0.00000000000E+00  0.00000000000E+00  0.11176374788E+03  0.11176374788E+03  0.00000000000E+00 0.  1.
          2   -1    0    0  501    0  0.00000000000E+00 -0.00000000000E+00 -0.15867307292E+04  0.15867307292E+04  0.00000000000E+00 0. -1.
         25    2    1    2    0    0  0.27812577578E+03 -0.15784761545E+03 -0.23837994755E+03  0.41799469265E+03  0.12499898733E+03 0.  0.
         23    2    1    2    0    0 -0.27812577578E+03  0.15784761545E+03 -0.12365870338E+04  0.12804997844E+04  0.90897684184E+02 0.  0.
          5    1    3    3  502    0  0.48872824522E+02 -0.27107982491E+02 -0.11218906273E+03  0.12542675747E+03  0.47000000000E+01 0.  1.
         -5    1    3    3    0  502  0.22925295126E+03 -0.13073963296E+03 -0.12619088481E+03  0.29256793518E+03  0.47000000000E+01 0.  1.
          5    1    4    4  503    0 -0.71692768860E+02  0.56492665363E+02 -0.22029336868E+03  0.23850059252E+03  0.47000000000E+01 0. -1.
         -5    1    4    4    0  503 -0.20643300692E+03  0.10135495009E+03 -0.10162936651E+04  0.10419991919E+04  0.47000000000E+01 0.  1.
<mgrwt>
<rscale>  0 0.34060128E+03</rscale>
<asrwt>0</asrwt>
<pdfrwt beam="1">  1        2 0.24411241E+00 0.34335778E+03</pdfrwt>
<pdfrwt beam="2">  1       -2 0.17194424E-01 0.34335778E+03</pdfrwt>
<totfact> 0.33194955E+02</totfact>
</mgrwt>
</event>
<event>
 8    1  0.3520338E-004  0.1335563E+03  0.7546771E-02  0.1234388E+00
         -1   -1    0    0    0  501 -0.00000000000E+00  0.00000000000E+00  0.15919474527E+02  0.15919474527E+02  0.00000000000E+00 0.  1.
          1   -1    0    0  501    0  0.00000000000E+00 -0.00000000000E+00 -0.12158307828E+04  0.12158307828E+04  0.00000000000E+00 0. -1.
         25    2    1    2    0    0 -0.20564133171E+02 -0.42306739128E+02 -0.33536617639E+03  0.36098164909E+03  0.12499813984E+03 0.  0.
         23    2    1    2    0    0  0.20564133171E+02  0.42306739128E+02 -0.86454513191E+03  0.87076860826E+03  0.92665744936E+02 0.  0.
          5    1    3    3  502    0 -0.72785218792E+02 -0.19393642556E+02 -0.17013244862E+03  0.18612077133E+03  0.47000000000E+01 0. -1.
         -5    1    3    3    0  502  0.52221085621E+02 -0.22913096572E+02 -0.16523372777E+03  0.17486087776E+03  0.47000000000E+01 0. -1.
          5    1    4    4  503    0 -0.33400491461E+02  0.33963592872E+02 -0.33664368094E+03  0.34002966986E+03  0.47000000000E+01 0. -1.
         -5    1    4    4    0  503  0.53964624632E+02  0.83431462561E+01 -0.52790145097E+03  0.53073893840E+03  0.47000000000E+01 0.  1.
<mgrwt>
<rscale>  0 0.12543670E+03</rscale>
<asrwt>0</asrwt>
<pdfrwt beam="1">  1        1 0.18705097E+00 0.13355628E+03</pdfrwt>
<pdfrwt beam="2">  1       -1 0.24491489E-02 0.13355628E+03</pdfrwt>
<totfact> 0.55527583E+03</totfact>
</mgrwt>
</event>
<event>
 8    1  0.3520338E-004  0.1935988E+03  0.7546771E-02  0.1160094E+00
          1   -1    0    0  501    0  0.00000000000E+00  0.00000000000E+00  0.39208229578E+03  0.39208229578E+03  0.00000000000E+00 0. -1.
         -1   -1    0    0    0  501 -0.00000000000E+00 -0.00000000000E+00 -0.11881628443E+03  0.11881628443E+03  0.00000000000E+00 0.  1.
         25    2    1    2    0    0  0.10899516541E+03  0.99884510831E+02  0.73762428231E+01  0.19373929125E+03  0.12499456960E+03 0.  0.
         23    2    1    2    0    0 -0.10899516541E+03 -0.99884510831E+02  0.26588976853E+03  0.31715928896E+03  0.89642534440E+02 0.  0.
          5    1    4    4  502    0 -0.56297795671E+02 -0.23661177076E+02  0.18215606106E+03  0.19217755769E+03  0.47000000000E+01 0. -1.
         -5    1    4    4    0  502 -0.52697369742E+02 -0.76223333755E+02  0.83733707470E+02  0.12498173128E+03  0.47000000000E+01 0.  1.
          5    1    3    3  503    0  0.43270657538E+02 -0.21691965124E+02  0.24402996504E+02  0.54410361082E+02  0.47000000000E+01 0.  1.
         -5    1    3    3    0  503  0.65724507876E+02  0.12157647596E+03 -0.17026753681E+02  0.13932893017E+03  0.47000000000E+01 0.  1.
<mgrwt>
<rscale>  0 0.18820128E+03</rscale>
<asrwt>0</asrwt>
<pdfrwt beam="1">  1        1 0.60320352E-01 0.19359882E+03</pdfrwt>
<pdfrwt beam="2">  1       -1 0.18279429E-01 0.19359882E+03</pdfrwt>
<totfact> 0.14442575E+03</totfact>
</mgrwt>
</event>
<event>
 8    1  0.3520338E-004  0.1476926E+03  0.7546771E-02  0.1212923E+00
          2   -1    0    0  501    0  0.00000000000E+00  0.00000000000E+00  0.64024794536E+03  0.64024794536E+03  0.00000000000E+00 0. -1.
         -2   -1    0    0    0  501 -0.00000000000E+00 -0.00000000000E+00 -0.28365290941E+02  0.28365290941E+02  0.00000000000E+00 0.  1.
         25    2    1    2    0    0  0.53184323275E+02 -0.57960918320E+02  0.37255428057E+03  0.40076152020E+03  0.12500025524E+03 0.  0.
         23    2    1    2    0    0 -0.53184323275E+02  0.57960918320E+02  0.23932837385E+03  0.26785171610E+03  0.90985883479E+02 0.  0.
          5    1    4    4  502    0 -0.21846856542E+02  0.63555762153E+02  0.22051681305E+03  0.23057834868E+03  0.47000000000E+01 0. -1.
         -5    1    4    4    0  502 -0.31337466733E+02 -0.55948438333E+01  0.18811560800E+02  0.37273367416E+02  0.47000000000E+01 0.  1.
          5    1    3    3  503    0 -0.11991502916E+02  0.22080658464E+02  0.17503355553E+02  0.30980785593E+02  0.47000000000E+01 0. -1.
         -5    1    3    3    0  503  0.65175826191E+02 -0.80041576784E+02  0.35505092501E+03  0.36978073461E+03  0.47000000000E+01 0. -1.
<mgrwt>
<rscale>  0 0.14030217E+03</rscale>
<asrwt>0</asrwt>
<pdfrwt beam="1">  1        2 0.98499673E-01 0.14769260E+03</pdfrwt>
<pdfrwt beam="2">  1       -2 0.43638914E-02 0.14769260E+03</pdfrwt>
<totfact> 0.10806688E+04</totfact>
</mgrwt>
</event>
<event>
 8    1  0.3520338E-004  0.1280881E+03  0.7546771E-02  0.1244722E+00
         -2   -1    0    0    0  501 -0.00000000000E+00  0.00000000000E+00  0.35748352591E+02  0.35748352591E+02  0.00000000000E+00 0.  1.
          2   -1    0    0  501    0  0.00000000000E+00 -0.00000000000E+00 -0.41278674645E+03  0.41278674645E+03  0.00000000000E+00 0. -1.
         25    2    1    2    0    0 -0.25775310464E+01 -0.27806112188E+02 -0.12483039918E+03  0.17885523758E+03  0.12500697544E+03 0.  0.
         23    2    1    2    0    0  0.25775310464E+01  0.27806112188E+02 -0.25220799467E+03  0.26967986146E+03  0.91315560316E+02 0.  0.
          5    1    4    4  502    0 -0.24734853564E+02 -0.10271911055E+02 -0.18851623790E+03  0.19046728614E+03  0.47000000000E+01 0. -1.
         -5    1    3    3    0  503 -0.35654069564E+02  0.37700688697E+02 -0.35004273821E+02  0.62768971557E+02  0.47000000000E+01 0. -1.
          5    1    3    3  503    0  0.33076538517E+02 -0.65506800884E+02 -0.89826125363E+02  0.11608626603E+03  0.47000000000E+01 0. -1.
         -5    1    4    4    0  502  0.27312384610E+02  0.38078023243E+02 -0.63691756775E+02  0.79212575317E+02  0.47000000000E+01 0.  1.
<mgrwt>
<rscale>  0 0.11902035E+03</rscale>
<asrwt>0</asrwt>
<pdfrwt beam="1">  1        2 0.63505653E-01 0.12808812E+03</pdfrwt>
<pdfrwt beam="2">  1       -2 0.54997466E-02 0.12808812E+03</pdfrwt>
<totfact> 0.12290944E+04</totfact>
</mgrwt>
</event>
<event>
 8    1  0.3520338E-004  0.2012790E+03  0.7546771E-02  0.1152634E+00
          1   -1    0    0  501    0  0.00000000000E+00  0.00000000000E+00  0.19335668001E+04  0.19335668001E+04  0.00000000000E+00 0. -1.
         -1   -1    0    0    0  501 -0.00000000000E+00 -0.00000000000E+00 -0.19782288989E+02  0.19782288989E+02  0.00000000000E+00 0.  1.
         25    2    1    2    0    0  0.11382884149E+03  0.10920561764E+03  0.82125017914E+03  0.84555609464E+03  0.12502151960E+03 0.  0.
         23    2    1    2    0    0 -0.11382884149E+03 -0.10920561764E+03  0.10925343320E+04  0.11077929944E+04  0.93226498040E+02 0.  0.
          5    1    3    3  502    0  0.13867729444E+03  0.10521047386E+03  0.74657096055E+03  0.76661002142E+03  0.47000000000E+01 0. -1.
         -5    1    3    3    0  502 -0.24848452947E+02  0.39951437868E+01  0.74679218590E+02  0.78946073220E+02  0.47000000000E+01 0. -1.
          5    1    4    4  503    0 -0.62851050728E+02 -0.31335377340E+01  0.30099223940E+03  0.30753616343E+03  0.47000000000E+01 0. -1.
         -5    1    4    4    0  503 -0.50977790765E+02 -0.10607207991E+03  0.79154209256E+03  0.80025683101E+03  0.47000000000E+01 0.  1.
<mgrwt>
<rscale>  0 0.19660719E+03</rscale>
<asrwt>0</asrwt>
<pdfrwt beam="1">  1        1 0.29747167E+00 0.20127904E+03</pdfrwt>
<pdfrwt beam="2">  1       -1 0.30434306E-02 0.20127904E+03</pdfrwt>
<totfact> 0.13816439E+03</totfact>
</mgrwt>
</event>
<event>
 8    1  0.3520338E-004  0.1404724E+03  0.7546771E-02  0.1223551E+00
         -2   -1    0    0    0  501 -0.00000000000E+00  0.00000000000E+00  0.35325480986E+02  0.35325480986E+02  0.00000000000E+00 0.  1.
          2   -1    0    0  501    0  0.00000000000E+00 -0.00000000000E+00 -0.45740018938E+03  0.45740018938E+03  0.00000000000E+00 0. -1.
         25    2    1    2    0    0  0.31768290916E+02 -0.55660440715E+02 -0.26530265890E+03  0.30019659728E+03  0.12500074892E+03 0.  0.
         23    2    1    2    0    0 -0.31768290916E+02  0.55660440715E+02 -0.15677204950E+03  0.19252907309E+03  0.91556864916E+02 0.  0.
          5    1    4    4  502    0  0.25221855466E+02  0.13532096973E+02 -0.12230104280E+02  0.31478962695E+02  0.47000000000E+01 0. -1.
         -5    1    4    4    0  502 -0.56990146382E+02  0.42128343742E+02 -0.14454194522E+03  0.16105011040E+03  0.47000000000E+01 0.  1.
          5    1    3    3  503    0 -0.28940978449E+02 -0.12261379171E+02 -0.87413145958E+01  0.32960919793E+02  0.47000000000E+01 0.  1.
         -5    1    3    3    0  503  0.60709269365E+02 -0.43399061545E+02 -0.25656134430E+03  0.26723567748E+03  0.47000000000E+01 0.  1.
<mgrwt>
<rscale>  0 0.13266716E+03</rscale>
<asrwt>0</asrwt>
<pdfrwt beam="1">  1        2 0.70369266E-01 0.14047240E+03</pdfrwt>
<pdfrwt beam="2">  1       -2 0.54346889E-02 0.14047240E+03</pdfrwt>
<totfact> 0.11281778E+04</totfact>
</mgrwt>
</event>
<event>
 8    1  0.3520338E-004  0.1498014E+03  0.7546771E-02  0.1208170E+00
          1   -1    0    0  501    0  0.00000000000E+00  0.00000000000E+00  0.51477706605E+03  0.51477706605E+03  0.00000000000E+00 0. -1.
         -1   -1    0    0    0  501 -0.00000000000E+00 -0.00000000000E+00 -0.38966751938E+02  0.38966751938E+02  0.00000000000E+00 0.  1.
         25    2    1    2    0    0 -0.80526628818E+02 -0.18178733217E+02  0.31218230369E+03  0.34626325406E+03  0.12500178432E+03 0.  0.
         23    2    1    2    0    0  0.80526628818E+02  0.18178733217E+02  0.16362801042E+03  0.20748056393E+03  0.97257669745E+02 0.  0.
          5    1    3    3  502    0  0.13156730008E+02 -0.17012001228E+02  0.18829200363E+01  0.22093961124E+02  0.47000000000E+01 0.  1.
         -5    1    4    4    0  503  0.57445417819E+02 -0.14112833069E+02  0.27124340825E+02  0.65245443909E+02  0.47000000000E+01 0.  1.
          5    1    4    4  503    0  0.23081210999E+02  0.32291566286E+02  0.13650366960E+03  0.14223512002E+03  0.47000000000E+01 0. -1.
         -5    1    3    3    0  502 -0.93683358827E+02 -0.11667319894E+01  0.31029938366E+03  0.32416929293E+03  0.47000000000E+01 0.  1.
<mgrwt>
<rscale>  0 0.14390432E+03</rscale>
<asrwt>0</asrwt>
<pdfrwt beam="1">  1        1 0.79196467E-01 0.14980137E+03</pdfrwt>
<pdfrwt beam="2">  1       -1 0.59948853E-02 0.14980137E+03</pdfrwt>
<totfact> 0.56214020E+03</totfact>
</mgrwt>
</event>
<event>
 8    1  0.3520338E-004  0.1536148E+03  0.7546771E-02  0.1204634E+00
         -1   -1    0    0    0  501 -0.00000000000E+00  0.00000000000E+00  0.53156256576E+02  0.53156256576E+02  0.00000000000E+00 0.  1.
          1   -1    0    0  501    0  0.00000000000E+00 -0.00000000000E+00 -0.37363331458E+03  0.37363331458E+03  0.00000000000E+00 0. -1.
         25    2    1    2    0    0 -0.72049645983E+02  0.52723048690E+02 -0.18885259506E+03  0.24343956475E+03  0.12500659053E+03 0.  0.
         23    2    1    2    0    0  0.72049645983E+02 -0.52723048690E+02 -0.13162446294E+03  0.18335000640E+03  0.91221457201E+02 0.  0.
          5    1    4    4  502    0  0.33406445043E+02 -0.56467737245E+02 -0.12820336564E+03  0.14409298693E+03  0.47000000000E+01 0. -1.
         -5    1    4    4    0  502  0.38643200941E+02  0.37446885549E+01 -0.34210972997E+01  0.39257019475E+02  0.47000000000E+01 0.  1.
          5    1    3    3  503    0 -0.26344318520E+02  0.65507738492E+02 -0.18198141370E+03  0.19525524796E+03  0.47000000000E+01 0.  1.
         -5    1    3    3    0  503 -0.45705327463E+02 -0.12784689802E+02 -0.68711813563E+01  0.48184316796E+02  0.47000000000E+01 0.  1.
<mgrwt>
<rscale>  0 0.14666363E+03</rscale>
<asrwt>0</asrwt>
<pdfrwt beam="1">  1        1 0.57482046E-01 0.15361484E+03</pdfrwt>
<pdfrwt beam="2">  1       -1 0.81778860E-02 0.15361484E+03</pdfrwt>
<totfact> 0.53227762E+03</totfact>
</mgrwt>
</event>
<event>
 8    1  0.3520338E-004  0.2918893E+03  0.7546771E-02  0.1091010E+00
         -2   -1    0    0    0  501 -0.00000000000E+00  0.00000000000E+00  0.73206160442E+02  0.73206160442E+02  0.00000000000E+00 0.  1.
          2   -1    0    0  501    0  0.00000000000E+00 -0.00000000000E+00 -0.11822832395E+04  0.11822832395E+04  0.00000000000E+00 0. -1.
         25    2    1    2    0    0  0.28812484293E+02  0.26219074122E+03 -0.41604715426E+03  0.50822694329E+03  0.12500098914E+03 0.  0.
         23    2    1    2    0    0 -0.28812484293E+02 -0.26219074122E+03 -0.69302992478E+03  0.74726245663E+03  0.92393497708E+02 0.  0.
          5    1    3    3  502    0  0.18868405179E+02  0.84103110291E+02 -0.46947043866E+02  0.98262224696E+02  0.47000000000E+01 0.  1.
         -5    1    4    4    0  503 -0.15962146438E+02 -0.15668105669E+03 -0.28570290935E+03  0.32626980561E+03  0.47000000000E+01 0.  1.
          5    1    4    4  503    0 -0.12850337856E+02 -0.10550968454E+03 -0.40732701544E+03  0.42099265103E+03  0.47000000000E+01 0. -1.
         -5    1    3    3    0  502  0.99440791139E+01  0.17808763093E+03 -0.36910011040E+03  0.40996471860E+03  0.47000000000E+01 0.  1.
<mgrwt>
<rscale>  0 0.28873704E+03</rscale>
<asrwt>0</asrwt>
<pdfrwt beam="1">  1        2 0.18188972E+00 0.29188935E+03</pdfrwt>
<pdfrwt beam="2">  1       -2 0.11262487E-01 0.29188935E+03</pdfrwt>
<totfact> 0.11214989E+03</totfact>
</mgrwt>
</event>
<event>
 8    1  0.3520338E-004  0.2485218E+03  0.7546771E-02  0.1116823E+00
         -2   -1    0    0    0  501 -0.00000000000E+00  0.00000000000E+00  0.27980904112E+03  0.27980904112E+03  0.00000000000E+00 0.  1.
          2   -1    0    0  501    0  0.00000000000E+00 -0.00000000000E+00 -0.26865768887E+03  0.26865768887E+03  0.00000000000E+00 0. -1.
         25    2    1    2    0    0  0.12732270698E+03 -0.17298765497E+03  0.13698640998E+03  0.28377523922E+03  0.12500923721E+03 0.  0.
         23    2    1    2    0    0 -0.12732270698E+03  0.17298765497E+03 -0.12583505773E+03  0.26469149078E+03  0.89951781813E+02 0.  0.
          5    1    4    4  502    0 -0.85867095883E+02  0.11595405875E+03 -0.12949547595E+03  0.19393212779E+03  0.47000000000E+01 0. -1.
         -5    1    3    3    0  503  0.30114298530E+02 -0.52413456201E+02  0.11125360580E+03  0.12670239212E+03  0.47000000000E+01 0. -1.
          5    1    3    3  503    0  0.97208408452E+02 -0.12057419877E+03  0.25732804185E+02  0.15707284709E+03  0.47000000000E+01 0. -1.
         -5    1    4    4    0  502 -0.41455611100E+02  0.57033596224E+02  0.36604182202E+01  0.70759362995E+02  0.47000000000E+01 0.  1.
<mgrwt>
<rscale>  0 0.24451218E+03</rscale>
<asrwt>0</asrwt>
<pdfrwt beam="1">  1        2 0.41331952E-01 0.24852185E+03</pdfrwt>
<pdfrwt beam="2">  1       -2 0.43047545E-01 0.24852185E+03</pdfrwt>
<totfact> 0.63881479E+02</totfact>
</mgrwt>
</event>
<event>
 8    1  0.3520338E-004  0.1352103E+03  0.7546771E-02  0.1231579E+00
         -2   -1    0    0    0  501 -0.00000000000E+00  0.00000000000E+00  0.21115356686E+02  0.21115356686E+02  0.00000000000E+00 0.  1.
          2   -1    0    0  501    0  0.00000000000E+00 -0.00000000000E+00 -0.68957449421E+03  0.68957449421E+03  0.00000000000E+00 0. -1.
         25    2    1    2    0    0 -0.51413010792E+02  0.38849729967E+01 -0.37882540382E+03  0.40223190918E+03  0.12499372579E+03 0.  0.
         23    2    1    2    0    0  0.51413010792E+02 -0.38849729967E+01 -0.28963373370E+03  0.30845794171E+03  0.92737324831E+02 0.  0.
          5    1    4    4  502    0  0.36530318691E+02  0.43043581311E+02 -0.15480655055E+03  0.16484651094E+03  0.47000000000E+01 0. -1.
         -5    1    3    3    0  503  0.41026949430E+02  0.80276124964E+01 -0.13467147682E+03  0.14108915554E+03  0.47000000000E+01 0.  1.
          5    1    3    3  503    0 -0.92439960222E+02 -0.41426394996E+01 -0.24415392701E+03  0.26114275364E+03  0.47000000000E+01 0.  1.
         -5    1    4    4    0  502  0.14882692101E+02 -0.46928554308E+02 -0.13482718315E+03  0.14361143078E+03  0.47000000000E+01 0.  1.
<mgrwt>
<rscale>  0 0.12726028E+03</rscale>
<asrwt>0</asrwt>
<pdfrwt beam="1">  1        2 0.10608837E+00 0.13521029E+03</pdfrwt>
<pdfrwt beam="2">  1       -2 0.32485167E-02 0.13521029E+03</pdfrwt>
<totfact> 0.15259036E+04</totfact>
</mgrwt>
</event>
<event>
 8    1  0.3520338E-004  0.1767277E+03  0.7546771E-02  0.1176880E+00
         -2   -1    0    0    0  501 -0.00000000000E+00  0.00000000000E+00  0.35331118258E+02  0.35331118258E+02  0.00000000000E+00 0.  1.
          2   -1    0    0  501    0  0.00000000000E+00 -0.00000000000E+00 -0.78249243418E+03  0.78249243418E+03  0.00000000000E+00 0. -1.
         25    2    1    2    0    0 -0.57683093922E+02 -0.11081918124E+03 -0.43230729878E+03  0.46703561540E+03  0.12499774084E+03 0.  0.
         23    2    1    2    0    0  0.57683093922E+02  0.11081918124E+03 -0.31485401714E+03  0.35078793704E+03  0.91164107027E+02 0.  0.
          5    1    4    4  502    0  0.38878819672E+02  0.19223970230E+02 -0.18876569062E+03  0.19374132137E+03  0.47000000000E+01 0. -1.
         -5    1    3    3    0  503  0.11636060990E+02 -0.10505068607E+03 -0.23324609425E+03  0.25611886897E+03  0.47000000000E+01 0.  1.
          5    1    3    3  503    0 -0.69319154912E+02 -0.57684951702E+01 -0.19906120453E+03  0.21091674643E+03  0.47000000000E+01 0.  1.
         -5    1    4    4    0  502  0.18804274250E+02  0.91595211007E+02 -0.12608832652E+03  0.15704661567E+03  0.47000000000E+01 0.  1.
<mgrwt>
<rscale>  0 0.17093128E+03</rscale>
<asrwt>0</asrwt>
<pdfrwt beam="1">  1        2 0.12038345E+00 0.17672766E+03</pdfrwt>
<pdfrwt beam="2">  1       -2 0.54355567E-02 0.17672766E+03</pdfrwt>
<totfact> 0.61601831E+03</totfact>
</mgrwt>
</event>
<event>
 8    1  0.3520338E-004  0.1623049E+03  0.7546771E-02  0.1193466E+00
          1   -1    0    0  501    0  0.00000000000E+00  0.00000000000E+00  0.84701640664E+03  0.84701640664E+03  0.00000000000E+00 0. -1.
         -1   -1    0    0    0  501 -0.00000000000E+00 -0.00000000000E+00 -0.26675802366E+02  0.26675802366E+02  0.00000000000E+00 0.  1.
         25    2    1    2    0    0  0.53702219539E+02 -0.88519539933E+02  0.42234026435E+03  0.45245351559E+03  0.12499298998E+03 0.  0.
         23    2    1    2    0    0 -0.53702219539E+02  0.88519539933E+02  0.39800033992E+03  0.42123869341E+03  0.91203776891E+02 0.  0.
          5    1    4    4  502    0  0.23905417742E+02  0.21072148661E+02  0.13559575053E+03  0.13936930081E+03  0.47000000000E+01 0. -1.
         -5    1    4    4    0  502 -0.77607637281E+02  0.67447391272E+02  0.26240458939E+03  0.28186939261E+03  0.47000000000E+01 0.  1.
          5    1    3    3  503    0  0.71603247929E+02 -0.46093659947E+02  0.12372282913E+03  0.15027002046E+03  0.47000000000E+01 0. -1.
         -5    1    3    3    0  503 -0.17901028390E+02 -0.42425879986E+02  0.29861743522E+03  0.30218349513E+03  0.47000000000E+01 0. -1.
<mgrwt>
<rscale>  0 0.15584783E+03</rscale>
<asrwt>0</asrwt>
<pdfrwt beam="1">  1        1 0.13031020E+00 0.16230491E+03</pdfrwt>
<pdfrwt beam="2">  1       -1 0.41039703E-02 0.16230491E+03</pdfrwt>
<totfact> 0.48881464E+03</totfact>
</mgrwt>
</event>
<event>
 8    1  0.3520338E-004  0.3014156E+03  0.7546771E-02  0.1086068E+00
         -2   -1    0    0    0  501 -0.00000000000E+00  0.00000000000E+00  0.40327405516E+03  0.40327405516E+03  0.00000000000E+00 0.  1.
          2   -1    0    0  501    0  0.00000000000E+00 -0.00000000000E+00 -0.22291808510E+03  0.22291808510E+03  0.00000000000E+00 0. -1.
         25    2    1    2    0    0 -0.20443131150E+03 -0.18285333800E+03  0.38231954842E+02  0.30383066045E+03  0.12499553399E+03 0.  0.
         23    2    1    2    0    0  0.20443131150E+03  0.18285333800E+03  0.14212401521E+03  0.32236147981E+03  0.92142192426E+02 0.  0.
          5    1    3    3  502    0 -0.31726347597E+02 -0.73062768018E+02 -0.34032912215E+02  0.86747093992E+02  0.47000000000E+01 0.  1.
         -5    1    3    3    0  502 -0.17270496390E+03 -0.10979056998E+03  0.72264867057E+02  0.21708356645E+03  0.47000000000E+01 0.  1.
          5    1    4    4  503    0  0.87682973687E+02  0.22502003121E+02  0.51297474600E+02  0.10415452424E+03  0.47000000000E+01 0. -1.
         -5    1    4    4    0  503  0.11674833781E+03  0.16035133488E+03  0.90826540613E+02  0.21820695557E+03  0.47000000000E+01 0.  1.
<mgrwt>
<rscale>  0 0.29835031E+03</rscale>
<asrwt>0</asrwt>
<pdfrwt beam="1">  1        2 0.34295090E-01 0.30141564E+03</pdfrwt>
<pdfrwt beam="2">  1       -2 0.62042163E-01 0.30141564E+03</pdfrwt>
<totfact> 0.37453436E+02</totfact>
</mgrwt>
</event>
<event>
 8    1  0.3520338E-004  0.1334450E+03  0.7546771E-02  0.1234155E+00
         -3   -1    0    0    0  501 -0.00000000000E+00  0.00000000000E+00  0.32529922434E+03  0.32529922434E+03  0.00000000000E+00 0.  1.
          3   -1    0    0  501    0  0.00000000000E+00 -0.00000000000E+00 -0.57440817048E+02  0.57440817048E+02  0.00000000000E+00 0. -1.
         25    2    1    2    0    0  0.41635188643E+02 -0.21182683394E+02  0.52712891018E+02  0.14347893306E+03  0.12500144136E+03 0.  0.
         23    2    1    2    0    0 -0.41635188643E+02  0.21182683394E+02  0.21514551628E+03  0.23926110833E+03  0.93680786600E+02 0.  0.
          5    1    3    3  502    0  0.75079533066E+02 -0.14460085271E+02 -0.44634524753E+01  0.76733582997E+02  0.47000000000E+01 0. -1.
         -5    1    4    4    0  503 -0.31944298587E+02 -0.34574564491E+02  0.85284087144E+02  0.97525915745E+02  0.47000000000E+01 0.  1.
          5    1    4    4  503    0 -0.96908900558E+01  0.55757247884E+02  0.12986142913E+03  0.14173519259E+03  0.47000000000E+01 0. -1.
         -5    1    3    3    0  502 -0.33444344423E+02 -0.67225981225E+01  0.57176343494E+02  0.66745350060E+02  0.47000000000E+01 0. -1.
<mgrwt>
<rscale>  0 0.12558693E+03</rscale>
<asrwt>0</asrwt>
<pdfrwt beam="1">  1        3 0.88370490E-02 0.13344495E+03</pdfrwt>
<pdfrwt beam="2">  1       -3 0.50046033E-01 0.13344495E+03</pdfrwt>
<totfact> 0.83208371E+02</totfact>
</mgrwt>
</event>
<event>
 8    1  0.3520338E-004  0.2471582E+03  0.7546771E-02  0.1117636E+00
         -2   -1    0    0    0  501 -0.00000000000E+00  0.00000000000E+00  0.43295221314E+02  0.43295221314E+02  0.00000000000E+00 0.  1.
          2   -1    0    0  501    0  0.00000000000E+00 -0.00000000000E+00 -0.14462376359E+04  0.14462376359E+04  0.00000000000E+00 0. -1.
         25    2    1    2    0    0  0.19969672972E+03  0.74706344557E+02 -0.50677570899E+03  0.56383402225E+03  0.12500945420E+03 0.  0.
         23    2    1    2    0    0 -0.19969672972E+03 -0.74706344557E+02 -0.89616670560E+03  0.92569883498E+03  0.91344113467E+02 0.  0.
          5    1    3    3  502    0  0.74129578297E+02 -0.32023645561E+02 -0.19602051389E+03  0.21205386136E+03  0.47000000000E+01 0.  1.
         -5    1    3    3    0  502  0.12556715143E+03  0.10672999012E+03 -0.31075519510E+03  0.35178016088E+03  0.47000000000E+01 0.  1.
          5    1    4    4  503    0 -0.19146279232E+03 -0.39715728078E+02 -0.74546118411E+03  0.77069436673E+03  0.47000000000E+01 0. -1.
         -5    1    4    4    0  503 -0.82339374054E+01 -0.34990616480E+02 -0.15070552149E+03  0.15500446824E+03  0.47000000000E+01 0.  1.
<mgrwt>
<rscale>  0 0.24326671E+03</rscale>
<asrwt>0</asrwt>
<pdfrwt beam="1">  1        2 0.22249806E+00 0.24715822E+03</pdfrwt>
<pdfrwt beam="2">  1       -2 0.66608044E-02 0.24715822E+03</pdfrwt>
<totfact> 0.18381248E+03</totfact>
</mgrwt>
</event>
<event>
 8    1  0.3520338E-004  0.1469113E+03  0.7546771E-02  0.1213839E+00
         -1   -1    0    0    0  501 -0.00000000000E+00  0.00000000000E+00  0.58861036215E+03  0.58861036215E+03  0.00000000000E+00 0.  1.
          1   -1    0    0  501    0  0.00000000000E+00 -0.00000000000E+00 -0.81879503591E+02  0.81879503591E+02  0.00000000000E+00 0. -1.
         25    2    1    2    0    0 -0.54699924857E+02 -0.54449681993E+02 -0.29159120011E+01  0.14694024007E+03  0.12500432777E+03 0.  0.
         23    2    1    2    0    0  0.54699924857E+02  0.54449681993E+02  0.50964677056E+03  0.52354962567E+03  0.91692585020E+02 0.  0.
          5    1    4    4  502    0  0.73858538501E+02  0.16605966276E+02  0.28724383721E+03  0.29708913451E+03  0.47000000000E+01 0. -1.
         -5    1    3    3    0  503 -0.62433485805E+02  0.71040641070E+01 -0.39880829678E+02  0.74571968275E+02  0.47000000000E+01 0.  1.
          5    1    3    3  503    0  0.77335609478E+01 -0.61553746100E+02  0.36964917677E+02  0.72368271796E+02  0.47000000000E+01 0.  1.
         -5    1    4    4    0  502 -0.19158613643E+02  0.37843715717E+02  0.22240293335E+03  0.22646049116E+03  0.47000000000E+01 0.  1.
<mgrwt>
<rscale>  0 0.13962149E+03</rscale>
<asrwt>0</asrwt>
<pdfrwt beam="1">  1        1 0.12596847E-01 0.14691131E+03</pdfrwt>
<pdfrwt beam="2">  1       -1 0.90555438E-01 0.14691131E+03</pdfrwt>
<totfact> 0.58780178E+02</totfact>
</mgrwt>
</event>
<event>
 8    1  0.3520338E-004  0.1569266E+03  0.7546771E-02  0.1200751E+00
          1   -1    0    0  501    0  0.00000000000E+00  0.00000000000E+00  0.99108623743E+02  0.99108623743E+02  0.00000000000E+00 0. -1.
         -1   -1    0    0    0  501 -0.00000000000E+00 -0.00000000000E+00 -0.21896458057E+03  0.21896458057E+03  0.00000000000E+00 0.  1.
         25    2    1    2    0    0  0.53105993245E+01  0.94715771757E+02 -0.10070375956E+03  0.18645966505E+03  0.12500671829E+03 0.  0.
         23    2    1    2    0    0 -0.53105993245E+01 -0.94715771757E+02 -0.19152197271E+02  0.13161353926E+03  0.89196620860E+02 0.  0.
          5    1    4    4  502    0 -0.35619884746E+02 -0.62489131023E+01 -0.78235356716E+01  0.37297758843E+02  0.47000000000E+01 0. -1.
         -5    1    4    4    0  502  0.30309285422E+02 -0.88466858654E+02 -0.11328661599E+02  0.94315780422E+02  0.47000000000E+01 0.  1.
          5    1    3    3  503    0  0.16280807731E+02  0.53628195249E+02  0.18979978582E+02  0.59358045900E+02  0.47000000000E+01 0. -1.
         -5    1    3    3    0  503 -0.10970208406E+02  0.41087576507E+02 -0.11968373814E+03  0.12710161915E+03  0.47000000000E+01 0. -1.
<mgrwt>
<rscale>  0 0.14977374E+03</rscale>
<asrwt>0</asrwt>
<pdfrwt beam="1">  1        1 0.15247481E-01 0.15692661E+03</pdfrwt>
<pdfrwt beam="2">  1       -1 0.33686858E-01 0.15692661E+03</pdfrwt>
<totfact> 0.29646008E+03</totfact>
</mgrwt>
</event>
<event>
 8    1  0.3520338E-004  0.2135629E+03  0.7546771E-02  0.1142927E+00
          2   -1    0    0  501    0  0.00000000000E+00  0.00000000000E+00  0.16786196478E+04  0.16786196478E+04  0.00000000000E+00 0. -1.
         -2   -1    0    0    0  501 -0.00000000000E+00 -0.00000000000E+00 -0.25150458770E+02  0.25150458770E+02  0.00000000000E+00 0.  1.
         25    2    1    2    0    0 -0.10847653478E+03  0.13497157931E+03  0.74677613306E+03  0.77671339503E+03  0.12499847714E+03 0.  0.
         23    2    1    2    0    0  0.10847653478E+03 -0.13497157931E+03  0.90669305593E+03  0.92705671151E+03  0.85775071259E+02 0.  0.
          5    1    3    3  502    0 -0.87772673618E+02  0.13598201464E+03  0.73456903036E+03  0.75220269934E+03  0.47000000000E+01 0.  1.
         -5    1    4    4    0  503  0.36837888024E+02 -0.10057839383E+03  0.63323292081E+03  0.64224533108E+03  0.47000000000E+01 0.  1.
          5    1    4    4  503    0  0.71638646758E+02 -0.34393185481E+02  0.27346013513E+03  0.28481138043E+03  0.47000000000E+01 0. -1.
         -5    1    3    3    0  502 -0.20703861164E+02 -0.10104353276E+01  0.12207102708E+02  0.24510695689E+02  0.47000000000E+01 0.  1.
<mgrwt>
<rscale>  0 0.20829019E+03</rscale>
<asrwt>0</asrwt>
<pdfrwt beam="1">  1        2 0.25824909E+00 0.21356288E+03</pdfrwt>
<pdfrwt beam="2">  1       -2 0.38693027E-02 0.21356288E+03</pdfrwt>
<totfact> 0.31664027E+03</totfact>
</mgrwt>
</event>
<event>
 8    1  0.3520338E-004  0.1292003E+03  0.7546771E-02  0.1243340E+00
         -1   -1    0    0    0  501 -0.00000000000E+00  0.00000000000E+00  0.26600916716E+02  0.26600916716E+02  0.00000000000E+00 0.  1.
          1   -1    0    0  501    0  0.00000000000E+00 -0.00000000000E+00 -0.64904485875E+03  0.64904485875E+03  0.00000000000E+00 0. -1.
         25    2    1    2    0    0 -0.24128601717E+02  0.22036214194E+02 -0.17181657621E+03  0.21497362451E+03  0.12499975687E+03 0.  0.
         23    2    1    2    0    0  0.24128601717E+02 -0.22036214194E+02 -0.45062736583E+03  0.46067215096E+03  0.89922320248E+02 0.  0.
          5    1    3    3  502    0 -0.72651280405E+02 -0.29564605442E+01 -0.11424396634E+03  0.13550174556E+03  0.47000000000E+01 0.  1.
         -5    1    3    3    0  502  0.48522678688E+02  0.24992674738E+02 -0.57572609865E+02  0.79471878953E+02  0.47000000000E+01 0.  1.
          5    1    4    4  503    0  0.14885537944E+02 -0.50118936731E+02 -0.38471912754E+03  0.38828389634E+03  0.47000000000E+01 0. -1.
         -5    1    4    4    0  503  0.92430637731E+01  0.28082722537E+02 -0.65908238288E+02  0.72388254623E+02  0.47000000000E+01 0.  1.
<mgrwt>
<rscale>  0 0.11985273E+03</rscale>
<asrwt>0</asrwt>
<pdfrwt beam="1">  1        1 0.99853061E-01 0.12920032E+03</pdfrwt>
<pdfrwt beam="2">  1       -1 0.40924485E-02 0.12920032E+03</pdfrwt>
<totfact> 0.71733927E+03</totfact>
</mgrwt>
</event>
<event>
 8    1  0.3520338E-004  0.1321688E+03  0.7546771E-02  0.1236895E+00
          2   -1    0    0  501    0  0.00000000000E+00  0.00000000000E+00  0.74355405183E+03  0.74355405183E+03  0.00000000000E+00 0. -1.
         -2   -1    0    0    0  501 -0.00000000000E+00 -0.00000000000E+00 -0.19078755806E+02  0.19078755806E+02  0.00000000000E+00 0.  1.
         25    2    1    2    0    0  0.42907271744E+02 -0.19224986980E+01  0.33702649766E+03  0.36201580964E+03  0.12499542524E+03 0.  0.
         23    2    1    2    0    0 -0.42907271744E+02  0.19224986980E+01  0.38744879836E+03  0.40061699800E+03  0.92372494621E+02 0.  0.
          5    1    3    3  502    0 -0.36128062352E+02  0.27789482731E+02  0.14809479460E+03  0.15502145151E+03  0.47000000000E+01 0. -1.
         -5    1    3    3    0  502  0.79035334096E+02 -0.29711981429E+02  0.18893170306E+03  0.20699435813E+03  0.47000000000E+01 0. -1.
          5    1    4    4  503    0 -0.25590270100E+02 -0.42986322217E+02  0.14692461558E+03  0.15527916307E+03  0.47000000000E+01 0.  1.
         -5    1    4    4    0  503 -0.17317001643E+02  0.44908820915E+02  0.24052418279E+03  0.24533783493E+03  0.47000000000E+01 0. -1.
<mgrwt>
<rscale>  0 0.12383910E+03</rscale>
<asrwt>0</asrwt>
<pdfrwt beam="1">  1        2 0.11439291E+00 0.13216878E+03</pdfrwt>
<pdfrwt beam="2">  1       -2 0.29351938E-02 0.13216878E+03</pdfrwt>
<totfact> 0.16160696E+04</totfact>
</mgrwt>
</event>
<event>
 8    1  0.3520338E-004  0.1854786E+03  0.7546771E-02  0.1167576E+00
         -1   -1    0    0    0  501 -0.00000000000E+00  0.00000000000E+00  0.71109224005E+02  0.71109224005E+02  0.00000000000E+00 0.  1.
          1   -1    0    0  501    0  0.00000000000E+00 -0.00000000000E+00 -0.48902104748E+03  0.48902104748E+03  0.00000000000E+00 0. -1.
         25    2    1    2    0    0  0.84251395585E+02 -0.10806465431E+03 -0.12471072345E+03  0.22350635349E+03  0.12500423328E+03 0.  0.
         23    2    1    2    0    0 -0.84251395585E+02  0.10806465431E+03 -0.29320110002E+03  0.33662391799E+03  0.92587849840E+02 0.  0.
          5    1    3    3  502    0  0.35954688843E+02 -0.11584176075E+03 -0.44198837259E+02  0.12918080507E+03  0.47000000000E+01 0.  1.
         -5    1    4    4    0  503  0.10230700680E+02  0.22917740807E+02 -0.12528238436E+02  0.28441814963E+02  0.47000000000E+01 0.  1.
          5    1    4    4  503    0 -0.94482096266E+02  0.85146913506E+02 -0.28067286159E+03  0.30818210303E+03  0.47000000000E+01 0. -1.
         -5    1    3    3    0  502  0.48296706742E+02  0.77771064410E+01 -0.80511886189E+02  0.94325548419E+02  0.47000000000E+01 0.  1.
<mgrwt>
<rscale>  0 0.18023439E+03</rscale>
<asrwt>0</asrwt>
<pdfrwt beam="1">  1        1 0.75234007E-01 0.18547864E+03</pdfrwt>
<pdfrwt beam="2">  1       -1 0.10939881E-01 0.18547864E+03</pdfrwt>
<totfact> 0.24339667E+03</totfact>
</mgrwt>
</event>
<event>
 8    1  0.3520338E-004  0.1278435E+03  0.7546771E-02  0.1244748E+00
          2   -1    0    0  501    0  0.00000000000E+00  0.00000000000E+00  0.23759696303E+02  0.23759696303E+02  0.00000000000E+00 0. -1.
         -2   -1    0    0    0  501 -0.00000000000E+00 -0.00000000000E+00 -0.57450197679E+03  0.57450197679E+03  0.00000000000E+00 0.  1.
         25    2    1    2    0    0 -0.16959714755E+02 -0.20781360092E+02 -0.22626942508E+03  0.25988806073E+03  0.12499781810E+03 0.  0.
         23    2    1    2    0    0  0.16959714755E+02  0.20781360092E+02 -0.32447285541E+03  0.33837361237E+03  0.92165995903E+02 0.  0.
          5    1    3    3  502    0 -0.62187210650E+02 -0.22795039227E+02 -0.19128215363E+03  0.20247917245E+03  0.47000000000E+01 0. -1.
         -5    1    3    3    0  502  0.45227495895E+02  0.20136791348E+01 -0.34987271456E+02  0.57408888271E+02  0.47000000000E+01 0. -1.
          5    1    4    4  503    0  0.35203399660E+02 -0.10979852364E+02 -0.55015190011E+02  0.66397271310E+02  0.47000000000E+01 0. -1.
         -5    1    4    4    0  503 -0.18243684905E+02  0.31761212457E+02 -0.26945766540E+03  0.27197634106E+03  0.47000000000E+01 0.  1.
<mgrwt>
<rscale>  0 0.11900503E+03</rscale>
<asrwt>0</asrwt>
<pdfrwt beam="1">  1        2 0.36553378E-02 0.12784346E+03</pdfrwt>
<pdfrwt beam="2">  1       -2 0.88384923E-01 0.12784346E+03</pdfrwt>
<totfact> 0.25960288E+03</totfact>
</mgrwt>
</event>
<event>
 8    1  0.3520338E-004  0.1395417E+03  0.7546771E-02  0.1225066E+00
         -2   -1    0    0    0  501 -0.00000000000E+00  0.00000000000E+00  0.27242969637E+02  0.27242969637E+02  0.00000000000E+00 0.  1.
          2   -1    0    0  501    0  0.00000000000E+00 -0.00000000000E+00 -0.57614066231E+03  0.57614066231E+03  0.00000000000E+00 0. -1.
         25    2    1    2    0    0  0.49568931767E+01  0.61824668376E+02 -0.28623874674E+03  0.31844076023E+03  0.12500014891E+03 0.  0.
         23    2    1    2    0    0 -0.49568931767E+01 -0.61824668376E+02 -0.26265894593E+03  0.28494287172E+03  0.91410381554E+02 0.  0.
          5    1    3    3  502    0 -0.61295236151E+01  0.82556756589E+02 -0.96658419771E+02  0.12735041904E+03  0.47000000000E+01 0.  1.
         -5    1    4    4    0  503 -0.29849614435E+02 -0.11705087955E+02 -0.25527125055E+02  0.41252062730E+02  0.47000000000E+01 0.  1.
          5    1    4    4  503    0  0.24892721258E+02 -0.50119580421E+02 -0.23713182088E+03  0.24369080899E+03  0.47000000000E+01 0. -1.
         -5    1    3    3    0  502  0.11086416792E+02 -0.20732088213E+02 -0.18958032697E+03  0.19109034118E+03  0.47000000000E+01 0.  1.
<mgrwt>
<rscale>  0 0.13162403E+03</rscale>
<asrwt>0</asrwt>
<pdfrwt beam="1">  1        2 0.88637023E-01 0.13954174E+03</pdfrwt>
<pdfrwt beam="2">  1       -2 0.41912262E-02 0.13954174E+03</pdfrwt>
<totfact> 0.12900237E+04</totfact>
</mgrwt>
</event>
<event>
 8    1  0.3520338E-004  0.1320240E+03  0.7546771E-02  0.1238447E+00
          2   -1    0    0  501    0  0.00000000000E+00  0.00000000000E+00  0.81934540440E+02  0.81934540440E+02  0.00000000000E+00 0.  1.
         -2   -1    0    0    0  501 -0.00000000000E+00 -0.00000000000E+00 -0.21642956223E+03  0.21642956223E+03  0.00000000000E+00 0. -1.
         25    2    1    2    0    0 -0.25560813223E+02 -0.33929704182E+02 -0.14811115326E+03  0.19841182563E+03  0.12500303529E+03 0.  0.
         23    2    1    2    0    0  0.25560813223E+02  0.33929704182E+02  0.13616131475E+02  0.99952277033E+02  0.89445394791E+02 0.  0.
          5    1    3    3  502    0 -0.51781592493E+01  0.40812210866E+02 -0.97033051578E+02  0.10549859235E+03  0.47000000000E+01 0. -1.
         -5    1    4    4    0  503  0.21550000106E+02 -0.27849313249E+02  0.13096592603E+02  0.37862877477E+02  0.47000000000E+01 0.  1.
          5    1    4    4  503    0  0.40108131169E+01  0.61779017431E+02  0.51953887225E+00  0.62089399556E+02  0.47000000000E+01 0. -1.
         -5    1    3    3    0  502 -0.20382653974E+02 -0.74741915048E+02 -0.51078101683E+02  0.92913233285E+02  0.47000000000E+01 0. -1.
<mgrwt>
<rscale>  0 0.12286296E+03</rscale>
<asrwt>0</asrwt>
<pdfrwt beam="1">  1        2 0.12605314E-01 0.13202401E+03</pdfrwt>
<pdfrwt beam="2">  1       -2 0.33296855E-01 0.13202401E+03</pdfrwt>
<totfact> 0.38739327E+03</totfact>
</mgrwt>
</event>
<event>
 8    1  0.3520338E-004  0.1766199E+03  0.7546771E-02  0.1176848E+00
          1   -1    0    0  501    0  0.00000000000E+00  0.00000000000E+00  0.26897536375E+03  0.26897536375E+03  0.00000000000E+00 0. -1.
         -1   -1    0    0    0  501 -0.00000000000E+00 -0.00000000000E+00 -0.11322521232E+03  0.11322521232E+03  0.00000000000E+00 0.  1.
         25    2    1    2    0    0 -0.11108614603E+03  0.56828068438E+02  0.14183901356E+03  0.22652348244E+03  0.12500008451E+03 0.  0.
         23    2    1    2    0    0  0.11108614603E+03 -0.56828068438E+02  0.13911137875E+02  0.15567709363E+03  0.92044970117E+02 0.  0.
          5    1    4    4  502    0  0.70891804647E+02  0.13877635495E+01  0.38268422477E+02  0.80710197699E+02  0.47000000000E+01 0. -1.
         -5    1    4    4    0  502  0.40194341379E+02 -0.58215831987E+02 -0.24357284601E+02  0.74966895935E+02  0.47000000000E+01 0.  1.
          5    1    3    3  503    0 -0.17945633684E+02 -0.35637017101E+02  0.58558356691E+02  0.71015589096E+02  0.47000000000E+01 0. -1.
         -5    1    3    3    0  503 -0.93140512342E+02  0.92465085539E+02  0.83280656870E+02  0.15550789334E+03  0.47000000000E+01 0. -1.
<mgrwt>
<rscale>  0 0.17096242E+03</rscale>
<asrwt>0</asrwt>
<pdfrwt beam="1">  1        1 0.41380825E-01 0.17661988E+03</pdfrwt>
<pdfrwt beam="2">  1       -1 0.17419264E-01 0.17661988E+03</pdfrwt>
<totfact> 0.24980687E+03</totfact>
</mgrwt>
</event>
<event>
 8    1  0.3520338E-004  0.1389453E+03  0.7546771E-02  0.1226163E+00
         -4   -1    0    0    0  501 -0.00000000000E+00  0.00000000000E+00  0.60738300636E+02  0.60738300636E+02  0.00000000000E+00 0.  1.
          4   -1    0    0  501    0  0.00000000000E+00 -0.00000000000E+00 -0.26475199308E+03  0.26475199308E+03  0.00000000000E+00 0. -1.
         25    2    1    2    0    0 -0.51841790473E+02  0.31512564407E+02 -0.80770003103E+02  0.16071584466E+03  0.12500070547E+03 0.  0.
         23    2    1    2    0    0  0.51841790473E+02 -0.31512564407E+02 -0.12324368934E+03  0.16477444906E+03  0.90999995302E+02 0.  0.
          5    1    4    4  502    0 -0.72589808988E+01 -0.45454938575E+02 -0.69814374863E+02  0.83755484489E+02  0.47000000000E+01 0. -1.
         -5    1    4    4    0  502  0.59100771372E+02  0.13942374168E+02 -0.53429314481E+02  0.81018964570E+02  0.47000000000E+01 0.  1.
          5    1    3    3  503    0 -0.83088832034E+02  0.51780822316E+02 -0.41651893529E+02  0.10649872207E+03  0.47000000000E+01 0.  1.
         -5    1    3    3    0  503  0.31247041561E+02 -0.20268257909E+02 -0.39118109574E+02  0.54217122587E+02  0.47000000000E+01 0.  1.
<mgrwt>
<rscale>  0 0.13087496E+03</rscale>
<asrwt>0</asrwt>
<pdfrwt beam="1">  1        4 0.40731076E-01 0.13894527E+03</pdfrwt>
<pdfrwt beam="2">  1       -4 0.93443539E-02 0.13894527E+03</pdfrwt>
<totfact> 0.82965912E+02</totfact>
</mgrwt>
</event>
<event>
 8    1  0.3520338E-004  0.2252656E+03  0.7546771E-02  0.1133243E+00
         -3   -1    0    0    0  501 -0.00000000000E+00  0.00000000000E+00  0.18848926618E+03  0.18848926618E+03  0.00000000000E+00 0.  1.
          3   -1    0    0  501    0  0.00000000000E+00 -0.00000000000E+00 -0.31746458039E+03  0.31746458039E+03  0.00000000000E+00 0. -1.
         25    2    1    2    0    0  0.14197129414E+03 -0.12230071021E+03  0.50788604785E+02  0.23092007951E+03  0.12502515214E+03 0.  0.
         23    2    1    2    0    0 -0.14197129414E+03  0.12230071021E+03 -0.17976391900E+03  0.27503376707E+03  0.90637709455E+02 0.  0.
          5    1    4    4  502    0 -0.98780591762E+01  0.35538848266E+02 -0.79629047562E+02  0.87883223682E+02  0.47000000000E+01 0. -1.
         -5    1    3    3    0  503  0.16509899059E+02 -0.84357353001E+02  0.50414185226E+02  0.99761815562E+02  0.47000000000E+01 0. -1.
          5    1    3    3  503    0  0.12546139508E+03 -0.37943357206E+02  0.37441955847E+00  0.13115826395E+03  0.47000000000E+01 0. -1.
         -5    1    4    4    0  502 -0.13209323496E+03  0.86761861942E+02 -0.10013487144E+03  0.18715054338E+03  0.47000000000E+01 0.  1.
<mgrwt>
<rscale>  0 0.22086043E+03</rscale>
<asrwt>0</asrwt>
<pdfrwt beam="1">  1        3 0.48840704E-01 0.22526562E+03</pdfrwt>
<pdfrwt beam="2">  1       -3 0.28998349E-01 0.22526562E+03</pdfrwt>
<totfact> 0.11828393E+02</totfact>
</mgrwt>
</event>
<event>
 8    1  0.3520338E-004  0.1348301E+03  0.7546771E-02  0.1232343E+00
          1   -1    0    0  501    0  0.00000000000E+00  0.00000000000E+00  0.40085034256E+03  0.40085034256E+03  0.00000000000E+00 0. -1.
         -1   -1    0    0    0  501 -0.00000000000E+00 -0.00000000000E+00 -0.38617461853E+02  0.38617461853E+02  0.00000000000E+00 0.  1.
         25    2    1    2    0    0 -0.10863581047E+02 -0.49350291091E+02  0.14474477284E+03  0.19781358125E+03  0.12500278013E+03 0.  0.
         23    2    1    2    0    0  0.10863581047E+02  0.49350291091E+02  0.21748810787E+03  0.24165422316E+03  0.92424119604E+02 0.  0.
          5    1    3    3  502    0 -0.12826330548E+00 -0.91224285649E+02  0.98539561619E+02  0.13436525573E+03  0.47000000000E+01 0. -1.
         -5    1    4    4    0  503  0.43151656709E+02  0.46324979864E+02  0.90764969515E+02  0.11076298537E+03  0.47000000000E+01 0.  1.
          5    1    4    4  503    0 -0.32288075662E+02  0.30253112273E+01  0.12672313835E+03  0.13089123780E+03  0.47000000000E+01 0. -1.
         -5    1    3    3    0  502 -0.10735317742E+02  0.41873994559E+02  0.46205211224E+02  0.63448325522E+02  0.47000000000E+01 0. -1.
<mgrwt>
<rscale>  0 0.12676066E+03</rscale>
<asrwt>0</asrwt>
<pdfrwt beam="1">  1        1 0.61669281E-01 0.13483013E+03</pdfrwt>
<pdfrwt beam="2">  1       -1 0.59411482E-02 0.13483013E+03</pdfrwt>
<totfact> 0.78099676E+03</totfact>
</mgrwt>
</event>
<event>
 8    1  0.3520338E-004  0.1287557E+03  0.7546771E-02  0.1247693E+00
         -2   -1    0    0    0  501 -0.00000000000E+00  0.00000000000E+00  0.59724207563E+02  0.59724207563E+02  0.00000000000E+00 0.  1.
          2   -1    0    0  501    0  0.00000000000E+00 -0.00000000000E+00 -0.19826444969E+03  0.19826444969E+03  0.00000000000E+00 0. -1.
         25    2    1    2    0    0 -0.87039482861E+01  0.29595995184E+02 -0.88885927561E+02  0.15645681291E+03  0.12500537804E+03 0.  0.
         23    2    1    2    0    0  0.87039482861E+01 -0.29595995184E+02 -0.49654314566E+02  0.10153184435E+03  0.83014955368E+02 0.  0.
          5    1    4    4  502    0 -0.18508765542E+02  0.10286928277E+02 -0.48362735086E+02  0.53004145501E+02  0.47000000000E+01 0. -1.
         -5    1    3    3    0  503  0.45294329085E+02  0.49330498302E+02 -0.28460538364E+02  0.72918903955E+02  0.47000000000E+01 0.  1.
          5    1    3    3  503    0 -0.53998277372E+02 -0.19734503117E+02 -0.60425389197E+02  0.83537908951E+02  0.47000000000E+01 0.  1.
         -5    1    4    4    0  502  0.27212713828E+02 -0.39882923462E+02 -0.12915794802E+01  0.48527698846E+02  0.47000000000E+01 0.  1.
<mgrwt>
<rscale>  0 0.11725631E+03</rscale>
<asrwt>0</asrwt>
<pdfrwt beam="1">  1        2 0.30502224E-01 0.12875568E+03</pdfrwt>
<pdfrwt beam="2">  1       -2 0.91883395E-02 0.12875568E+03</pdfrwt>
<totfact> 0.12229049E+04</totfact>
</mgrwt>
</event>
<event>
 8    1  0.3520338E-004  0.1260595E+03  0.7546771E-02  0.1251099E+00
          1   -1    0    0  501    0  0.00000000000E+00  0.00000000000E+00  0.95951436648E+02  0.95951436648E+02  0.00000000000E+00 0. -1.
         -1   -1    0    0    0  501 -0.00000000000E+00 -0.00000000000E+00 -0.16349147664E+03  0.16349147664E+03  0.00000000000E+00 0.  1.
         25    2    1    2    0    0 -0.15986659939E+02  0.32393411510E+01 -0.10461031521E+03  0.16381184076E+03  0.12499973798E+03 0.  0.
         23    2    1    2    0    0  0.15986659939E+02 -0.32393411510E+01  0.37070275217E+02  0.95631072538E+02  0.86631576823E+02 0.  0.
          5    1    4    4  502    0 -0.17671578718E+02 -0.21184090060E+02  0.48099714418E+02  0.55648206558E+02  0.47000000000E+01 0. -1.
         -5    1    3    3    0  503  0.30513189545E+02 -0.40680163385E+02 -0.14277460970E+02  0.53027033870E+02  0.47000000000E+01 0.  1.
          5    1    3    3  503    0 -0.46499849485E+02  0.43919504536E+02 -0.90332854244E+02  0.11078480689E+03  0.47000000000E+01 0.  1.
         -5    1    4    4    0  502  0.33658238657E+02  0.17944748909E+02 -0.11029439200E+02  0.39982865980E+02  0.47000000000E+01 0.  1.
<mgrwt>
<rscale>  0 0.11527683E+03</rscale>
<asrwt>0</asrwt>
<pdfrwt beam="1">  1        1 0.14761760E-01 0.12605951E+03</pdfrwt>
<pdfrwt beam="2">  1       -1 0.25152535E-01 0.12605951E+03</pdfrwt>
<totfact> 0.49815761E+03</totfact>
</mgrwt>
</event>
<event>
 8    1  0.3520338E-004  0.1275844E+03  0.7546771E-02  0.1245523E+00
         -2   -1    0    0    0  501 -0.00000000000E+00  0.00000000000E+00  0.13472768531E+02  0.13472768531E+02  0.00000000000E+00 0.  1.
          2   -1    0    0  501    0  0.00000000000E+00 -0.00000000000E+00 -0.10460949904E+04  0.10460949904E+04  0.00000000000E+00 0. -1.
         25    2    1    2    0    0  0.14958961433E+01 -0.25505671473E+02 -0.76481249734E+03  0.77538115733E+03  0.12500002432E+03 0.  0.
         23    2    1    2    0    0 -0.14958961433E+01  0.25505671473E+02 -0.26780972452E+03  0.28418660159E+03  0.91581652048E+02 0.  0.
          5    1    3    3  502    0 -0.41703188245E+02  0.28824004509E+02 -0.45577270016E+03  0.45860748289E+03  0.47000000000E+01 0. -1.
         -5    1    4    4    0  503 -0.36478754603E+02  0.22905644550E+02 -0.63756088510E+02  0.77086295226E+02  0.47000000000E+01 0.  1.
          5    1    4    4  503    0  0.34982858459E+02  0.26000269227E+01 -0.20405363601E+03  0.20710030636E+03  0.47000000000E+01 0. -1.
         -5    1    3    3    0  502  0.43199084388E+02 -0.54329675982E+02 -0.30903979718E+03  0.31677367445E+03  0.47000000000E+01 0. -1.
<mgrwt>
<rscale>  0 0.11854115E+03</rscale>
<asrwt>0</asrwt>
<pdfrwt beam="1">  1        2 0.16093771E+00 0.12758442E+03</pdfrwt>
<pdfrwt beam="2">  1       -2 0.20727334E-02 0.12758442E+03</pdfrwt>
<totfact> 0.17196170E+04</totfact>
</mgrwt>
</event>
<event>
 8    1  0.3520338E-004  0.1725636E+03  0.7546771E-02  0.1181923E+00
          2   -1    0    0  501    0  0.00000000000E+00  0.00000000000E+00  0.15993641536E+03  0.15993641536E+03  0.00000000000E+00 0. -1.
         -2   -1    0    0    0  501 -0.00000000000E+00 -0.00000000000E+00 -0.18002929780E+03  0.18002929780E+03  0.00000000000E+00 0.  1.
         25    2    1    2    0    0  0.58431958471E+02  0.10362706138E+03 -0.65942654435E+02  0.18473398821E+03  0.12500140442E+03 0.  0.
         23    2    1    2    0    0 -0.58431958471E+02 -0.10362706138E+03  0.45849771992E+02  0.15523172495E+03  0.88554080751E+02 0.  0.
          5    1    4    4  502    0  0.49264083851E+00 -0.69406460701E+02  0.51706542414E+02  0.86678463360E+02  0.47000000000E+01 0. -1.
         -5    1    4    4    0  502 -0.58924599309E+02 -0.34220600680E+02 -0.58567704220E+01  0.68553261589E+02  0.47000000000E+01 0.  1.
          5    1    3    3  503    0  0.42885295417E+01  0.96214135418E+02 -0.83069402234E+02  0.12727201942E+03  0.47000000000E+01 0. -1.
         -5    1    3    3    0  503  0.54143428929E+02  0.74129259628E+01  0.17126747799E+02  0.57461968794E+02  0.47000000000E+01 0. -1.
<mgrwt>
<rscale>  0 0.16615052E+03</rscale>
<asrwt>0</asrwt>
<pdfrwt beam="1">  1        2 0.24605602E-01 0.17256365E+03</pdfrwt>
<pdfrwt beam="2">  1       -2 0.27696815E-01 0.17256365E+03</pdfrwt>
<totfact> 0.25351439E+03</totfact>
</mgrwt>
</event>
<event>
 8    1  0.3520338E-004  0.1698416E+03  0.7546771E-02  0.1184776E+00
          2   -1    0    0  501    0  0.00000000000E+00  0.00000000000E+00  0.40449431122E+02  0.40449431122E+02  0.00000000000E+00 0. -1.
         -2   -1    0    0    0  501 -0.00000000000E+00 -0.00000000000E+00 -0.75818977487E+03  0.75818977487E+03  0.00000000000E+00 0.  1.
         25    2    1    2    0    0  0.99481676948E+02  0.57661390331E+02 -0.55327719979E+03  0.57875887685E+03  0.12499895094E+03 0.  0.
         23    2    1    2    0    0 -0.99481676948E+02 -0.57661390331E+02 -0.16446314395E+03  0.21988032914E+03  0.89876545562E+02 0.  0.
          5    1    3    3  502    0  0.18837585098E+02 -0.36523661048E+02 -0.20252443157E+03  0.20670526798E+03  0.47000000000E+01 0. -1.
         -5    1    4    4    0  503 -0.90635752087E+02 -0.79611423564E+02 -0.12620895690E+03  0.17465282454E+03  0.47000000000E+01 0.  1.
          5    1    4    4  503    0 -0.88459248615E+01  0.21950033233E+02 -0.38254187052E+02  0.45227504603E+02  0.47000000000E+01 0. -1.
         -5    1    3    3    0  502  0.80644091851E+02  0.94185051379E+02 -0.35075276823E+03  0.37205360887E+03  0.47000000000E+01 0. -1.
<mgrwt>
<rscale>  0 0.16352291E+03</rscale>
<asrwt>0</asrwt>
<pdfrwt beam="1">  1        2 0.62229898E-02 0.16984163E+03</pdfrwt>
<pdfrwt beam="2">  1       -2 0.11664457E+00 0.16984163E+03</pdfrwt>
<totfact> 0.69021790E+02</totfact>
</mgrwt>
</event>
<event>
 8    1  0.3520338E-004  0.1638625E+03  0.7546771E-02  0.1191301E+00
          1   -1    0    0  501    0  0.00000000000E+00  0.00000000000E+00  0.60637203428E+03  0.60637203428E+03  0.00000000000E+00 0. -1.
         -1   -1    0    0    0  501 -0.00000000000E+00 -0.00000000000E+00 -0.61406561660E+02  0.61406561660E+02  0.00000000000E+00 0.  1.
         25    2    1    2    0    0 -0.81660391396E+01  0.10563664949E+03  0.80647494133E+02  0.18263332912E+03  0.12500051474E+03 0.  0.
         23    2    1    2    0    0  0.81660391396E+01 -0.10563664949E+03  0.46431797849E+03  0.48514526682E+03  0.92460580052E+02 0.  0.
          5    1    4    4  502    0 -0.35189517160E+02 -0.61830950824E+02  0.32502849587E+03  0.33275664039E+03  0.47000000000E+01 0. -1.
         -5    1    4    4    0  502  0.43355556299E+02 -0.43805698663E+02  0.13928948262E+03  0.15238862643E+03  0.47000000000E+01 0.  1.
          5    1    3    3  503    0  0.51177705590E+02  0.57870531555E+02  0.72197403868E+02  0.10584286040E+03  0.47000000000E+01 0.  1.
         -5    1    3    3    0  503 -0.59343744730E+02  0.47766117932E+02  0.84500902650E+01  0.76790468721E+02  0.47000000000E+01 0.  1.
<mgrwt>
<rscale>  0 0.15771519E+03</rscale>
<asrwt>0</asrwt>
<pdfrwt beam="1">  1        1 0.93288001E-01 0.16386249E+03</pdfrwt>
<pdfrwt beam="2">  1       -1 0.94471637E-02 0.16386249E+03</pdfrwt>
<totfact> 0.22777834E+03</totfact>
</mgrwt>
</event>
<event>
 8    1  0.3520338E-004  0.1901763E+03  0.7546771E-02  0.1163236E+00
          2   -1    0    0  501    0  0.00000000000E+00  0.00000000000E+00  0.10150046116E+04  0.10150046116E+04  0.00000000000E+00 0. -1.
         -2   -1    0    0    0  501 -0.00000000000E+00 -0.00000000000E+00 -0.32022107183E+02  0.32022107183E+02  0.00000000000E+00 0.  1.
         25    2    1    2    0    0  0.94818338724E+02  0.10747578138E+03  0.55483849648E+03  0.58652602202E+03  0.12500182551E+03 0.  0.
         23    2    1    2    0    0 -0.94818338724E+02 -0.10747578138E+03  0.42814400792E+03  0.46050069675E+03  0.90620302642E+02 0.  0.
          5    1    3    3  502    0  0.29326763671E+02  0.11153334816E+03  0.26048643620E+03  0.28491230276E+03  0.47000000000E+01 0. -1.
         -5    1    3    3    0  502  0.65491575053E+02 -0.40575667823E+01  0.29435206028E+03  0.30161371926E+03  0.47000000000E+01 0. -1.
          5    1    4    4  503    0 -0.21825937761E+02 -0.85478382143E+02  0.28324741019E+03  0.29670542758E+03  0.47000000000E+01 0. -1.
         -5    1    4    4    0  503 -0.72992400963E+02 -0.21997399236E+02  0.14489659773E+03  0.16379526917E+03  0.47000000000E+01 0.  1.
<mgrwt>
<rscale>  0 0.18480078E+03</rscale>
<asrwt>0</asrwt>
<pdfrwt beam="1">  1        2 0.15615453E+00 0.19017628E+03</pdfrwt>
<pdfrwt beam="2">  1       -2 0.49264788E-02 0.19017628E+03</pdfrwt>
<totfact> 0.50849487E+03</totfact>
</mgrwt>
</event>
<event>
 8    1  0.3520338E-004  0.1438542E+03  0.7546771E-02  0.1218392E+00
          2   -1    0    0  501    0  0.00000000000E+00  0.00000000000E+00  0.22789582206E+03  0.22789582206E+03  0.00000000000E+00 0. -1.
         -2   -1    0    0    0  501 -0.00000000000E+00 -0.00000000000E+00 -0.75212374587E+02  0.75212374587E+02  0.00000000000E+00 0.  1.
         25    2    1    2    0    0  0.23210847429E+02 -0.67293405384E+02  0.10321395938E+03  0.17705128589E+03  0.12500756207E+03 0.  0.
         23    2    1    2    0    0 -0.23210847429E+02  0.67293405384E+02  0.49469488089E+02  0.12605691076E+03  0.91520318251E+02 0.  0.
          5    1    4    4  502    0  0.22370655279E+02  0.59057245654E+02  0.82264945398E+01  0.63858982878E+02  0.47000000000E+01 0. -1.
         -5    1    4    4    0  502 -0.45581502707E+02  0.82361597296E+01  0.41242993550E+02  0.62197927884E+02  0.47000000000E+01 0.  1.
          5    1    3    3  503    0  0.52600887165E+02 -0.79280633454E+02  0.10866199283E+03  0.14450533159E+03  0.47000000000E+01 0.  1.
         -5    1    3    3    0  503 -0.29390039736E+02  0.11987228071E+02 -0.54480334501E+01  0.32545954295E+02  0.47000000000E+01 0.  1.
<mgrwt>
<rscale>  0 0.13630269E+03</rscale>
<asrwt>0</asrwt>
<pdfrwt beam="1">  1        2 0.35060895E-01 0.14385422E+03</pdfrwt>
<pdfrwt beam="2">  1       -2 0.11571135E-01 0.14385422E+03</pdfrwt>
<totfact> 0.73817910E+03</totfact>
</mgrwt>
</event>
<event>
 8    1  0.3520338E-004  0.1575897E+03  0.7546771E-02  0.1199378E+00
         -1   -1    0    0    0  501 -0.00000000000E+00  0.00000000000E+00  0.20120562669E+03  0.20120562669E+03  0.00000000000E+00 0.  1.
          1   -1    0    0  501    0  0.00000000000E+00 -0.00000000000E+00 -0.10466462562E+03  0.10466462562E+03  0.00000000000E+00 0. -1.
         25    2    1    2    0    0 -0.90406642220E+02  0.32183285834E+02  0.57748597822E+02  0.16783741760E+03  0.12500149340E+03 0.  0.
         23    2    1    2    0    0  0.90406642220E+02 -0.32183285834E+02  0.38792403255E+02  0.13803283470E+03  0.91318607419E+02 0.  0.
          5    1    4    4  502    0  0.68056613446E+02  0.13516193333E+02 -0.63808871732E+01  0.69836923164E+02  0.47000000000E+01 0. -1.
         -5    1    3    3    0  503 -0.19986239957E+02  0.37884354199E+02  0.82297289891E+02  0.92895683453E+02  0.47000000000E+01 0. -1.
          5    1    3    3  503    0 -0.70420402263E+02 -0.57010683648E+01 -0.24548692070E+02  0.74941734152E+02  0.47000000000E+01 0. -1.
         -5    1    4    4    0  502  0.22350028775E+02 -0.45699479167E+02  0.45173290428E+02  0.68195911538E+02  0.47000000000E+01 0.  1.
<mgrwt>
<rscale>  0 0.15089501E+03</rscale>
<asrwt>0</asrwt>
<pdfrwt beam="1">  1        1 0.16102250E-01 0.15758965E+03</pdfrwt>
<pdfrwt beam="2">  1       -1 0.30954712E-01 0.15758965E+03</pdfrwt>
<totfact> 0.31907874E+03</totfact>
</mgrwt>
</event>
<event>
 8    1  0.3520338E-004  0.1252499E+03  0.7546771E-02  0.1249679E+00
         -1   -1    0    0    0  501 -0.00000000000E+00  0.00000000000E+00  0.14514929670E+03  0.14514929670E+03  0.00000000000E+00 0.  1.
          1   -1    0    0  501    0  0.00000000000E+00 -0.00000000000E+00 -0.24039557152E+03  0.24039557152E+03  0.00000000000E+00 0. -1.
         25    2    1    2    0    0 -0.37003979564E+00 -0.79082177558E+01  0.10599460123E+03  0.16408045610E+03  0.12499945499E+03 0.  0.
         23    2    1    2    0    0  0.37003979564E+00  0.79082177558E+01 -0.20124087605E+03  0.22146441211E+03  0.92119046889E+02 0.  0.
          5    1    4    4  502    0 -0.14399484704E+02 -0.31873697284E+02 -0.15311829201E+03  0.15713236167E+03  0.47000000000E+01 0. -1.
         -5    1    4    4    0  502  0.14769524500E+02  0.39781915039E+02 -0.48122584046E+02  0.64332050437E+02  0.47000000000E+01 0.  1.
          5    1    3    3  503    0  0.19154857972E+02 -0.63188909188E+02  0.51057707047E+02  0.83598602124E+02  0.47000000000E+01 0.  1.
         -5    1    3    3    0  503 -0.19524897767E+02  0.55280691432E+02  0.54936894181E+02  0.80481853981E+02  0.47000000000E+01 0.  1.
<mgrwt>
<rscale>  0 0.11609671E+03</rscale>
<asrwt>0</asrwt>
<pdfrwt beam="1">  1        1 0.36983934E-01 0.12524991E+03</pdfrwt>
<pdfrwt beam="2">  1       -1 0.22330661E-01 0.12524991E+03</pdfrwt>
<totfact> 0.19026706E+03</totfact>
</mgrwt>
</event>
<event>
 8    1  0.3520338E-004  0.3055863E+03  0.7546771E-02  0.1084065E+00
          2   -1    0    0  501    0  0.00000000000E+00  0.00000000000E+00  0.20790856668E+04  0.20790856668E+04  0.00000000000E+00 0. -1.
         -2   -1    0    0    0  501 -0.00000000000E+00 -0.00000000000E+00 -0.49578073530E+02  0.49578073530E+02  0.00000000000E+00 0.  1.
         25    2    1    2    0    0  0.16427154369E+02 -0.27836738606E+03  0.64789788540E+03  0.71634815434E+03  0.12499902122E+03 0.  0.
         23    2    1    2    0    0 -0.16427154369E+02  0.27836738606E+03  0.13816097079E+04  0.14123155860E+04  0.89619621308E+02 0.  0.
          5    1    4    4  502    0  0.36747819963E+02  0.12542132906E+03  0.59658830918E+03  0.61075413441E+03  0.47000000000E+01 0. -1.
         -5    1    4    4    0  502 -0.53174974332E+02  0.15294605700E+03  0.78502139872E+03  0.80156145160E+03  0.47000000000E+01 0.  1.
          5    1    3    3  503    0 -0.39438138185E+02 -0.95274830135E+02  0.32440582951E+03  0.34043192010E+03  0.47000000000E+01 0. -1.
         -5    1    3    3    0  503  0.55865292554E+02 -0.18309255592E+03  0.32349205588E+03  0.37591623424E+03  0.47000000000E+01 0. -1.
<mgrwt>
<rscale>  0 0.30236393E+03</rscale>
<asrwt>0</asrwt>
<pdfrwt beam="1">  1        2 0.31985927E+00 0.30558634E+03</pdfrwt>
<pdfrwt beam="2">  1       -2 0.76273975E-02 0.30558634E+03</pdfrwt>
<totfact> 0.68480310E+02</totfact>
</mgrwt>
</event>
<event>
 8    1  0.3520338E-004  0.2104747E+03  0.7546771E-02  0.1144900E+00
          2   -1    0    0  501    0  0.00000000000E+00  0.00000000000E+00  0.44012704141E+03  0.44012704141E+03  0.00000000000E+00 0. -1.
         -2   -1    0    0    0  501 -0.00000000000E+00 -0.00000000000E+00 -0.10688594817E+03  0.10688594817E+03  0.00000000000E+00 0.  1.
         25    2    1    2    0    0 -0.11486643367E+03 -0.12440748928E+03  0.27408409622E+03  0.34557441305E+03  0.12501224813E+03 0.  0.
         23    2    1    2    0    0  0.11486643367E+03  0.12440748928E+03  0.59156997019E+02  0.20143857653E+03  0.91686579419E+02 0.  0.
          5    1    3    3  502    0 -0.21092177335E+02 -0.11392977211E+03  0.15433145469E+03  0.19304186288E+03  0.47000000000E+01 0.  1.
         -5    1    4    4    0  503  0.22750113671E+02  0.13356261212E+02 -0.23020662710E+02  0.35327019365E+02  0.47000000000E+01 0.  1.
          5    1    4    4  503    0  0.92116320004E+02  0.11105122807E+03  0.82177659729E+02  0.16611155717E+03  0.47000000000E+01 0. -1.
         -5    1    3    3    0  502 -0.93774256340E+02 -0.10477717172E+02  0.11975264153E+03  0.15253255017E+03  0.47000000000E+01 0.  1.
<mgrwt>
<rscale>  0 0.20584453E+03</rscale>
<asrwt>0</asrwt>
<pdfrwt beam="1">  1        2 0.67711852E-01 0.21047466E+03</pdfrwt>
<pdfrwt beam="2">  1       -2 0.16443992E-01 0.21047466E+03</pdfrwt>
<totfact> 0.20907997E+03</totfact>
</mgrwt>
</event>
<event>
 8    1  0.3520338E-004  0.1850911E+03  0.7546771E-02  0.1167713E+00
          1   -1    0    0  501    0  0.00000000000E+00  0.00000000000E+00  0.36082067957E+02  0.36082067957E+02  0.00000000000E+00 0.  1.
         -1   -1    0    0    0  501 -0.00000000000E+00 -0.00000000000E+00 -0.94039314558E+03  0.94039314558E+03  0.00000000000E+00 0. -1.
         25    2    1    2    0    0 -0.63377840097E+02  0.12090746154E+03 -0.32642572410E+03  0.37524985341E+03  0.12499333684E+03 0.  0.
         23    2    1    2    0    0  0.63377840097E+02 -0.12090746154E+03 -0.57788535352E+03  0.60122536013E+03  0.94260739310E+02 0.  0.
          5    1    4    4  502    0  0.47734628169E+02 -0.37580900184E+02 -0.39397002699E+03  0.39865447564E+03  0.47000000000E+01 0. -1.
         -5    1    4    4    0  502  0.15643211928E+02 -0.83326561360E+02 -0.18391532653E+03  0.20257088448E+03  0.47000000000E+01 0.  1.
          5    1    3    3  503    0 -0.17374776856E+01  0.11730091942E+03 -0.25491825654E+03  0.28065625245E+03  0.47000000000E+01 0. -1.
         -5    1    3    3    0  503 -0.61640362412E+02  0.36065421284E+01 -0.71507467562E+02  0.94593600955E+02  0.47000000000E+01 0. -1.
<mgrwt>
<rscale>  0 0.18009266E+03</rscale>
<asrwt>0</asrwt>
<pdfrwt beam="1">  1        1 0.55510880E-02 0.18509106E+03</pdfrwt>
<pdfrwt beam="2">  1       -1 0.14467585E+00 0.18509106E+03</pdfrwt>
<totfact> 0.59582373E+02</totfact>
</mgrwt>
</event>
<event>
 8    1  0.3520338E-004  0.1304604E+03  0.7546771E-02  0.1240983E+00
          1   -1    0    0  501    0  0.00000000000E+00  0.00000000000E+00  0.80433876153E+03  0.80433876153E+03  0.00000000000E+00 0. -1.
         -1   -1    0    0    0  501 -0.00000000000E+00 -0.00000000000E+00 -0.16772980083E+02  0.16772980083E+02  0.00000000000E+00 0.  1.
         25    2    1    2    0    0 -0.35993757664E+02  0.98746708910E+01  0.52712262081E+03  0.54302687021E+03  0.12500745851E+03 0.  0.
         23    2    1    2    0    0  0.35993757664E+02 -0.98746708910E+01  0.26044316063E+03  0.27808487140E+03  0.90041635180E+02 0.  0.
          5    1    3    3  502    0 -0.52871087030E+02 -0.47030878514E+02  0.28539603932E+03  0.29407523635E+03  0.47000000000E+01 0.  1.
         -5    1    3    3    0  502  0.16877329366E+02  0.56905549405E+02  0.24172658149E+03  0.24895163386E+03  0.47000000000E+01 0.  1.
          5    1    4    4  503    0 -0.18382211671E+02  0.92534162376E+01  0.16602898297E+03  0.16736560161E+03  0.47000000000E+01 0. -1.
         -5    1    4    4    0  503  0.54375969335E+02 -0.19128087129E+02  0.94414177668E+02  0.11071926979E+03  0.47000000000E+01 0.  1.
<mgrwt>
<rscale>  0 0.12129077E+03</rscale>
<asrwt>0</asrwt>
<pdfrwt beam="1">  1        1 0.12374439E+00 0.13046043E+03</pdfrwt>
<pdfrwt beam="2">  1       -1 0.25804591E-02 0.13046043E+03</pdfrwt>
<totfact> 0.10311209E+04</totfact>
</mgrwt>
</event>
<event>
 8    1  0.3520338E-004  0.2059205E+03  0.7546771E-02  0.1148591E+00
         -2   -1    0    0    0  501 -0.00000000000E+00  0.00000000000E+00  0.23378183333E+02  0.23378183333E+02  0.00000000000E+00 0. -1.
          2   -1    0    0  501    0  0.00000000000E+00 -0.00000000000E+00 -0.16619704936E+04  0.16619704936E+04  0.00000000000E+00 0.  1.
         25    2    1    2    0    0 -0.98999637488E+02  0.13029415606E+03 -0.86031345966E+03  0.88461433463E+03  0.12500310730E+03 0.  0.
         23    2    1    2    0    0  0.98999637488E+02 -0.13029415606E+03 -0.77827885064E+03  0.80073434234E+03  0.93166637362E+02 0.  0.
          5    1    3    3  502    0  0.26033028298E+02  0.26743966259E+02 -0.26047341931E+03  0.26317570264E+03  0.47000000000E+01 0. -1.
         -5    1    4    4    0  503  0.72732742507E+02 -0.33736464242E+02 -0.46327295814E+03  0.47018307562E+03  0.47000000000E+01 0.  1.
          5    1    4    4  503    0  0.26266894981E+02 -0.96557691813E+02 -0.31500589250E+03  0.33055126672E+03  0.47000000000E+01 0. -1.
         -5    1    3    3    0  502 -0.12503266579E+03  0.10355018980E+03 -0.59984004035E+03  0.62143863199E+03  0.47000000000E+01 0. -1.
<mgrwt>
<rscale>  0 0.20136700E+03</rscale>
<asrwt>0</asrwt>
<pdfrwt beam="1">  1        2 0.25568769E+00 0.20592055E+03</pdfrwt>
<pdfrwt beam="2">  1       -2 0.35966447E-02 0.20592055E+03</pdfrwt>
<totfact> 0.36034817E+03</totfact>
</mgrwt>
</event>
<event>
 8    1  0.3520338E-004  0.1795309E+03  0.7546771E-02  0.1173952E+00
         -1   -1    0    0    0  501 -0.00000000000E+00  0.00000000000E+00  0.69127082164E+03  0.69127082164E+03  0.00000000000E+00 0.  1.
          1   -1    0    0  501    0  0.00000000000E+00 -0.00000000000E+00 -0.41617393722E+02  0.41617393722E+02  0.00000000000E+00 0. -1.
         25    2    1    2    0    0 -0.96443492099E+02 -0.85466155499E+02  0.30549211149E+03  0.35433990368E+03  0.12500210498E+03 0.  0.
         23    2    1    2    0    0  0.96443492099E+02  0.85466155499E+02  0.34416131643E+03  0.37854831169E+03  0.90807497775E+02 0.  0.
          5    1    3    3  502    0 -0.23479421739E+02  0.13269337245E+02  0.16690317644E+03  0.16913343508E+03  0.47000000000E+01 0. -1.
         -5    1    3    3    0  502 -0.72964070360E+02 -0.98735492744E+02  0.13858893505E+03  0.18520646859E+03  0.47000000000E+01 0. -1.
          5    1    4    4  503    0  0.10934052265E+03  0.64787966511E+02  0.24164131804E+03  0.27306674473E+03  0.47000000000E+01 0. -1.
         -5    1    4    4    0  503 -0.12897030548E+02  0.20678188989E+02  0.10251999839E+03  0.10548156695E+03  0.47000000000E+01 0.  1.
<mgrwt>
<rscale>  0 0.17378974E+03</rscale>
<asrwt>0</asrwt>
<pdfrwt beam="1">  1        1 0.64026765E-02 0.17953088E+03</pdfrwt>
<pdfrwt beam="2">  1       -1 0.10634935E+00 0.17953088E+03</pdfrwt>
<totfact> 0.10260019E+03</totfact>
</mgrwt>
</event>
<event>
 8    1  0.3520338E-004  0.1395024E+03  0.7546771E-02  0.1225998E+00
          2   -1    0    0  501    0  0.00000000000E+00  0.00000000000E+00  0.12229508690E+03  0.12229508690E+03  0.00000000000E+00 0. -1.
         -2   -1    0    0    0  501 -0.00000000000E+00 -0.00000000000E+00 -0.13371918824E+03  0.13371918824E+03  0.00000000000E+00 0.  1.
         25    2    1    2    0    0  0.24936513262E+02  0.56693168019E+02 -0.37564496741E+02  0.14447145648E+03  0.12499986132E+03 0.  0.
         23    2    1    2    0    0 -0.24936513262E+02 -0.56693168019E+02  0.26140395400E+02  0.11154281866E+03  0.89008623900E+02 0.  0.
          5    1    4    4  502    0  0.16841453202E+02 -0.20214787971E+02  0.45366835106E+02  0.52654647717E+02  0.47000000000E+01 0. -1.
         -5    1    4    4    0  502 -0.41777966465E+02 -0.36478380048E+02 -0.19226439706E+02  0.58888170940E+02  0.47000000000E+01 0.  1.
          5    1    3    3  503    0  0.21176612101E+02  0.16101730879E+02 -0.80600468701E+02  0.85007294936E+02  0.47000000000E+01 0.  1.
         -5    1    3    3    0  503  0.37599011617E+01  0.40591437139E+02  0.43035971961E+02  0.59464161546E+02  0.47000000000E+01 0.  1.
<mgrwt>
<rscale>  0 0.13098757E+03</rscale>
<asrwt>0</asrwt>
<pdfrwt beam="1">  1        2 0.18814629E-01 0.13950237E+03</pdfrwt>
<pdfrwt beam="2">  1       -2 0.20572183E-01 0.13950237E+03</pdfrwt>
<totfact> 0.56869943E+03</totfact>
</mgrwt>
</event>
<event>
 8    1  0.3520338E-004  0.1286985E+03  0.7546771E-02  0.1243424E+00
         -2   -1    0    0    0  501 -0.00000000000E+00  0.00000000000E+00  0.92328770419E+02  0.92328770419E+02  0.00000000000E+00 0.  1.
          2   -1    0    0  501    0  0.00000000000E+00 -0.00000000000E+00 -0.14774302785E+03  0.14774302785E+03  0.00000000000E+00 0. -1.
         25    2    1    2    0    0 -0.19895825251E+02  0.23201283378E+02 -0.62706200461E+02  0.14316203893E+03  0.12501663250E+03 0.  0.
         23    2    1    2    0    0  0.19895825251E+02 -0.23201283378E+02  0.72919430333E+01  0.96909759338E+02  0.91674345424E+02 0.  0.
          5    1    4    4  502    0  0.41378518746E+02 -0.27883913171E+02 -0.26213861062E+02  0.56559269259E+02  0.47000000000E+01 0. -1.
         -5    1    3    3    0  503 -0.17908123873E+02  0.72740691271E+02 -0.20312015507E+02  0.77759739205E+02  0.47000000000E+01 0.  1.
          5    1    3    3  503    0 -0.19877013786E+01 -0.49539407893E+02 -0.42394184954E+02  0.65402299723E+02  0.47000000000E+01 0.  1.
         -5    1    4    4    0  502 -0.21482693494E+02  0.46826297924E+01  0.33505804096E+02  0.40350490079E+02  0.47000000000E+01 0.  1.
<mgrwt>
<rscale>  0 0.11980191E+03</rscale>
<asrwt>0</asrwt>
<pdfrwt beam="1">  1        2 0.22729697E-01 0.12869849E+03</pdfrwt>
<pdfrwt beam="2">  1       -2 0.14204426E-01 0.12869849E+03</pdfrwt>
<totfact> 0.84490132E+03</totfact>
</mgrwt>
</event>
<event>
 8    1  0.3520338E-004  0.1360043E+03  0.7546771E-02  0.1230701E+00
          1   -1    0    0  501    0  0.00000000000E+00  0.00000000000E+00  0.42035497830E+03  0.42035497830E+03  0.00000000000E+00 0. -1.
         -1   -1    0    0    0  501 -0.00000000000E+00 -0.00000000000E+00 -0.35487566265E+02  0.35487566265E+02  0.00000000000E+00 0.  1.
         25    2    1    2    0    0 -0.32131535316E+02 -0.42931199762E+02  0.18609166613E+03  0.23049357831E+03  0.12498663113E+03 0.  0.
         23    2    1    2    0    0  0.32131535316E+02  0.42931199762E+02  0.19877574591E+03  0.22534896626E+03  0.91623337419E+02 0.  0.
          5    1    4    4  502    0  0.36285171444E+02  0.67080448607E+02  0.17468816695E+03  0.19066841879E+03  0.47000000000E+01 0. -1.
         -5    1    3    3    0  503  0.55477159625E+01 -0.43906064741E+02  0.18727603067E+03  0.19249135392E+03  0.47000000000E+01 0.  1.
          5    1    3    3  503    0 -0.37679251279E+02  0.97486497810E+00 -0.11843645344E+01  0.38002224383E+02  0.47000000000E+01 0.  1.
         -5    1    4    4    0  502 -0.41536361278E+01 -0.24149248844E+02  0.24087578953E+02  0.34680547468E+02  0.47000000000E+01 0.  1.
<mgrwt>
<rscale>  0 0.12783707E+03</rscale>
<asrwt>0</asrwt>
<pdfrwt beam="1">  1        1 0.64669993E-01 0.13600434E+03</pdfrwt>
<pdfrwt beam="2">  1       -1 0.54596259E-02 0.13600434E+03</pdfrwt>
<totfact> 0.83438652E+03</totfact>
</mgrwt>
</event>
<event>
 8    1  0.3520338E-004  0.2562311E+03  0.7546771E-02  0.1111788E+00
         -2   -1    0    0    0  501 -0.00000000000E+00  0.00000000000E+00  0.32179423736E+02  0.32179423736E+02  0.00000000000E+00 0.  1.
          2   -1    0    0  501    0  0.00000000000E+00 -0.00000000000E+00 -0.19354286420E+04  0.19354286420E+04  0.00000000000E+00 0. -1.
         25    2    1    2    0    0 -0.16277982557E+03  0.15340148656E+03 -0.10583650007E+04  0.10889402484E+04  0.12500040922E+03 0.  0.
         23    2    1    2    0    0  0.16277982557E+03 -0.15340148656E+03 -0.84488421760E+03  0.87866781732E+03  0.90545592672E+02 0.  0.
          5    1    3    3  502    0 -0.14262634705E+03  0.64700545505E+02 -0.79433978217E+03  0.80964573426E+03  0.47000000000E+01 0.  1.
         -5    1    4    4    0  503  0.94547857362E+02 -0.11735972363E+03 -0.68060692483E+03  0.69710865594E+03  0.47000000000E+01 0.  1.
          5    1    4    4  503    0  0.68231968203E+02 -0.36041762933E+02 -0.16427729277E+03  0.18155916137E+03  0.47000000000E+01 0. -1.
         -5    1    3    3    0  502 -0.20153478510E+02  0.88700941053E+02 -0.26402521850E+03  0.27929451417E+03  0.47000000000E+01 0.  1.
<mgrwt>
<rscale>  0 0.25241503E+03</rscale>
<asrwt>0</asrwt>
<pdfrwt beam="1">  1        2 0.29775829E+00 0.25623113E+03</pdfrwt>
<pdfrwt beam="2">  1       -2 0.49506799E-02 0.25623113E+03</pdfrwt>
<totfact> 0.15986215E+03</totfact>
</mgrwt>
</event>
<event>
 8    1  0.3520338E-004  0.1433880E+03  0.7546771E-02  0.1218949E+00
          1   -1    0    0  501    0  0.00000000000E+00  0.00000000000E+00  0.63900430692E+03  0.63900430692E+03  0.00000000000E+00 0. -1.
         -1   -1    0    0    0  501 -0.00000000000E+00 -0.00000000000E+00 -0.27316481990E+02  0.27316481990E+02  0.00000000000E+00 0.  1.
         25    2    1    2    0    0 -0.63040394849E+02 -0.30957957782E+02  0.40225290208E+03  0.42704508183E+03  0.12501047217E+03 0.  0.
         23    2    1    2    0    0  0.63040394849E+02  0.30957957782E+02  0.20943492286E+03  0.23927570708E+03  0.91964072092E+02 0.  0.
          5    1    4    4  502    0 -0.21257492877E+02 -0.57206572260E+01  0.55875836974E+02  0.60239572376E+02  0.47000000000E+01 0. -1.
         -5    1    3    3    0  503  0.18525991826E+02 -0.54154815794E+02  0.18787990472E+03  0.19646095043E+03  0.47000000000E+01 0. -1.
          5    1    3    3  503    0 -0.81566386675E+02  0.23196858011E+02  0.21437299736E+03  0.23058413140E+03  0.47000000000E+01 0. -1.
         -5    1    4    4    0  502  0.84297887726E+02  0.36678615008E+02  0.15355908588E+03  0.17903613471E+03  0.47000000000E+01 0.  1.
<mgrwt>
<rscale>  0 0.13590379E+03</rscale>
<asrwt>0</asrwt>
<pdfrwt beam="1">  1        1 0.98308343E-01 0.14338795E+03</pdfrwt>
<pdfrwt beam="2">  1       -1 0.42025362E-02 0.14338795E+03</pdfrwt>
<totfact> 0.70921131E+03</totfact>
</mgrwt>
</event>
<event>
 8    1  0.3520338E-004  0.1423878E+03  0.7546771E-02  0.1222151E+00
          1   -1    0    0  501    0  0.00000000000E+00  0.00000000000E+00  0.19750830577E+03  0.19750830577E+03  0.00000000000E+00 0. -1.
         -1   -1    0    0    0  501 -0.00000000000E+00 -0.00000000000E+00 -0.11825260863E+03  0.11825260863E+03  0.00000000000E+00 0.  1.
         25    2    1    2    0    0 -0.47971608735E+02  0.48452625000E+02 -0.45146434741E+02  0.14937367967E+03  0.12500145397E+03 0.  0.
         23    2    1    2    0    0  0.47971608735E+02 -0.48452625000E+02  0.12440213188E+03  0.16638723473E+03  0.86947624166E+02 0.  0.
          5    1    3    3  502    0 -0.89411849430E+02  0.20397377253E+02 -0.33740420381E+02  0.97831680885E+02  0.47000000000E+01 0. -1.
         -5    1    3    3    0  502  0.41440240695E+02  0.28055247747E+02 -0.11406014361E+02  0.51541998783E+02  0.47000000000E+01 0. -1.
          5    1    4    4  503    0  0.42852629377E+02 -0.62588246315E+01  0.11448150716E+03  0.12248929019E+03  0.47000000000E+01 0. -1.
         -5    1    4    4    0  503  0.51189793583E+01 -0.42193800369E+02  0.99206247235E+01  0.43897944532E+02  0.47000000000E+01 0.  1.
<mgrwt>
<rscale>  0 0.13364074E+03</rscale>
<asrwt>0</asrwt>
<pdfrwt beam="1">  1        1 0.30385893E-01 0.14238784E+03</pdfrwt>
<pdfrwt beam="2">  1       -1 0.18192709E-01 0.14238784E+03</pdfrwt>
<totfact> 0.33919400E+03</totfact>
</mgrwt>
</event>
<event>
 8    1  0.3520338E-004  0.1772745E+03  0.7546771E-02  0.1176401E+00
         -2   -1    0    0    0  501 -0.00000000000E+00  0.00000000000E+00  0.19417295391E+03  0.19417295391E+03  0.00000000000E+00 0.  1.
          2   -1    0    0  501    0  0.00000000000E+00 -0.00000000000E+00 -0.18412567791E+03  0.18412567791E+03  0.00000000000E+00 0. -1.
         25    2    1    2    0    0 -0.11636859748E+02  0.12516128121E+03  0.95529271740E+02  0.20137548819E+03  0.12500193065E+03 0.  0.
         23    2    1    2    0    0  0.11636859748E+02 -0.12516128121E+03 -0.85481995740E+02  0.17692314363E+03  0.90519966511E+02 0.  0.
          5    1    3    3  502    0  0.36205334009E+02  0.46525032717E+02 -0.11377616325E+02  0.60224123350E+02  0.47000000000E+01 0. -1.
         -5    1    3    3    0  502 -0.47842193757E+02  0.78636248495E+02  0.10690688807E+03  0.14115136484E+03  0.47000000000E+01 0. -1.
          5    1    4    4  503    0 -0.30112041275E+02 -0.87498334920E+02 -0.75725948441E+02  0.11966287190E+03  0.47000000000E+01 0. -1.
         -5    1    4    4    0  503  0.41748901023E+02 -0.37662946292E+02 -0.97560472987E+01  0.57260271733E+02  0.47000000000E+01 0.  1.
<mgrwt>
<rscale>  0 0.17139531E+03</rscale>
<asrwt>0</asrwt>
<pdfrwt beam="1">  1        2 0.28327027E-01 0.17727449E+03</pdfrwt>
<pdfrwt beam="2">  1       -2 0.29872762E-01 0.17727449E+03</pdfrwt>
<totfact> 0.18962489E+03</totfact>
</mgrwt>
</event>
<event>
 8    1  0.3520338E-004  0.1268215E+03  0.7546771E-02  0.1247494E+00
          1   -1    0    0  501    0  0.00000000000E+00  0.00000000000E+00  0.36222210303E+03  0.36222210303E+03  0.00000000000E+00 0. -1.
         -1   -1    0    0    0  501 -0.00000000000E+00 -0.00000000000E+00 -0.44656152855E+02  0.44656152855E+02  0.00000000000E+00 0.  1.
         25    2    1    2    0    0  0.18349377511E+02 -0.11224577135E+02  0.27839936817E+03  0.30592466519E+03  0.12498400613E+03 0.  0.
         23    2    1    2    0    0 -0.18349377511E+02  0.11224577135E+02  0.39166582003E+02  0.10095359069E+03  0.90525772800E+02 0.  0.
          5    1    4    4  502    0  0.29413506304E+02  0.23319924800E+02  0.34570686685E+02  0.51246420594E+02  0.47000000000E+01 0. -1.
         -5    1    3    3    0  503  0.44356126147E+02 -0.26853651862E+02  0.40260840140E+02  0.65814966336E+02  0.47000000000E+01 0.  1.
          5    1    3    3  503    0 -0.26006748636E+02  0.15629074727E+02  0.23813852803E+03  0.24010969885E+03  0.47000000000E+01 0.  1.
         -5    1    4    4    0  502 -0.47762883815E+02 -0.12095347665E+02  0.45958953177E+01  0.49707170099E+02  0.47000000000E+01 0.  1.
<mgrwt>
<rscale>  0 0.11737332E+03</rscale>
<asrwt>0</asrwt>
<pdfrwt beam="1">  1        1 0.55726475E-01 0.12682150E+03</pdfrwt>
<pdfrwt beam="2">  1       -1 0.68701776E-02 0.12682150E+03</pdfrwt>
<totfact> 0.71102834E+03</totfact>
</mgrwt>
</event>
<event>
 8    1  0.3520338E-004  0.3582901E+03  0.7546771E-02  0.1060262E+00
          1   -1    0    0  501    0  0.00000000000E+00  0.00000000000E+00  0.83210628862E+03  0.83210628862E+03  0.00000000000E+00 0. -1.
         -1   -1    0    0    0  501 -0.00000000000E+00 -0.00000000000E+00 -0.15063684985E+03  0.15063684985E+03  0.00000000000E+00 0.  1.
         25    2    1    2    0    0  0.47999109899E+02 -0.33233093912E+03  0.37624333143E+03  0.51954872091E+03  0.12499624515E+03 0.  0.
         23    2    1    2    0    0 -0.47999109899E+02  0.33233093912E+03  0.30522610735E+03  0.46319441756E+03  0.92942585544E+02 0.  0.
          5    1    4    4  502    0  0.23661285005E+02  0.12577430668E+03  0.91345893870E+02  0.15730605505E+03  0.47000000000E+01 0. -1.
         -5    1    4    4    0  502 -0.71660394904E+02  0.20655663244E+03  0.21388021347E+03  0.30588836251E+03  0.47000000000E+01 0.  1.
          5    1    3    3  503    0  0.56228858395E+02 -0.23122394253E+03  0.17937794689E+03  0.29803478647E+03  0.47000000000E+01 0.  1.
         -5    1    3    3    0  503 -0.82297484961E+01 -0.10110699659E+03  0.19686538454E+03  0.22151393444E+03  0.47000000000E+01 0.  1.
<mgrwt>
<rscale>  0 0.35579289E+03</rscale>
<asrwt>0</asrwt>
<pdfrwt beam="1">  1        1 0.12801635E+00 0.35829015E+03</pdfrwt>
<pdfrwt beam="2">  1       -1 0.23174900E-01 0.35829015E+03</pdfrwt>
<totfact> 0.34199291E+02</totfact>
</mgrwt>
</event>
<event>
 8    1  0.3520338E-004  0.1251963E+03  0.7546771E-02  0.1250032E+00
          2   -1    0    0  501    0  0.00000000000E+00  0.00000000000E+00  0.18491927781E+03  0.18491927781E+03  0.00000000000E+00 0. -1.
         -2   -1    0    0    0  501 -0.00000000000E+00 -0.00000000000E+00 -0.77234596030E+02  0.77234596030E+02  0.00000000000E+00 0.  1.
         25    2    1    2    0    0  0.69395854531E+01  0.97952545495E+00  0.11491939026E+03  0.16994287071E+03  0.12499998292E+03 0.  0.
         23    2    1    2    0    0 -0.69395854531E+01 -0.97952545495E+00 -0.72347084815E+01  0.92211003134E+02  0.91659209989E+02 0.  0.
          5    1    3    3  502    0  0.26222224626E+02 -0.22413606497E+02 -0.13925212601E+02  0.37496351376E+02  0.47000000000E+01 0. -1.
         -5    1    3    3    0  502 -0.19282639173E+02  0.23393131952E+02  0.12884460287E+03  0.13244651933E+03  0.47000000000E+01 0. -1.
          5    1    4    4  503    0 -0.48266166639E+02 -0.47294213021E+01 -0.11993892936E+02  0.50179016885E+02  0.47000000000E+01 0. -1.
         -5    1    4    4    0  503  0.41326581185E+02  0.37498958471E+01  0.47591844542E+01  0.42031986249E+02  0.47000000000E+01 0.  1.
<mgrwt>
<rscale>  0 0.11589217E+03</rscale>
<asrwt>0</asrwt>
<pdfrwt beam="1">  1        2 0.28449120E-01 0.12519630E+03</pdfrwt>
<pdfrwt beam="2">  1       -2 0.11882246E-01 0.12519630E+03</pdfrwt>
<totfact> 0.87764710E+03</totfact>
</mgrwt>
</event>
<event>
 8    1  0.3520338E-004  0.1790972E+03  0.7546771E-02  0.1174468E+00
          2   -1    0    0  501    0  0.00000000000E+00  0.00000000000E+00  0.10021750937E+03  0.10021750937E+03  0.00000000000E+00 0. -1.
         -2   -1    0    0    0  501 -0.00000000000E+00 -0.00000000000E+00 -0.28243687082E+03  0.28243687082E+03  0.00000000000E+00 0.  1.
         25    2    1    2    0    0  0.34504363941E+02 -0.12352533769E+03 -0.87349208949E+02  0.19926283953E+03  0.12500693873E+03 0.  0.
         23    2    1    2    0    0 -0.34504363941E+02  0.12352533769E+03 -0.94870152494E+02  0.18339154066E+03  0.90460218700E+02 0.  0.
          5    1    3    3  502    0  0.25407830449E+02 -0.26116439957E+02 -0.94167421725E+02  0.10108026315E+03  0.47000000000E+01 0.  1.
         -5    1    4    4    0  503 -0.30029693239E+02  0.62526882845E+02 -0.10004636434E+03  0.12183086051E+03  0.47000000000E+01 0.  1.
          5    1    4    4  503    0 -0.44746707019E+01  0.60998454846E+02  0.51762118435E+01  0.61560680150E+02  0.47000000000E+01 0. -1.
         -5    1    3    3    0  502  0.90965334915E+01 -0.97408897735E+02  0.68182127754E+01  0.98182576381E+02  0.47000000000E+01 0.  1.
<mgrwt>
<rscale>  0 0.17328231E+03</rscale>
<asrwt>0</asrwt>
<pdfrwt beam="1">  1        2 0.15418079E-01 0.17909717E+03</pdfrwt>
<pdfrwt beam="2">  1       -2 0.43451826E-01 0.17909717E+03</pdfrwt>
<totfact> 0.18791378E+03</totfact>
</mgrwt>
</event>
<event>
 8    1  0.3520338E-004  0.1309941E+03  0.7546771E-02  0.1239122E+00
         -2   -1    0    0    0  501 -0.00000000000E+00  0.00000000000E+00  0.23743734908E+02  0.23743734908E+02  0.00000000000E+00 0.  1.
          2   -1    0    0  501    0  0.00000000000E+00 -0.00000000000E+00 -0.56216239703E+03  0.56216239703E+03  0.00000000000E+00 0. -1.
         25    2    1    2    0    0  0.24649488123E+02 -0.30424067035E+02 -0.29775651155E+03  0.32529740107E+03  0.12500495132E+03 0.  0.
         23    2    1    2    0    0 -0.24649488123E+02  0.30424067035E+02 -0.24066215058E+03  0.26060873087E+03  0.92007710364E+02 0.  0.
          5    1    4    4  502    0 -0.40217491779E+02  0.89779676564E+01 -0.22636392579E+03  0.23013206523E+03  0.47000000000E+01 0. -1.
         -5    1    3    3    0  503  0.46978645584E+02 -0.46848500773E+02 -0.28793379106E+03  0.29551604559E+03  0.47000000000E+01 0. -1.
          5    1    3    3  503    0 -0.22329157461E+02  0.16424433738E+02 -0.98227204885E+01  0.29781355482E+02  0.47000000000E+01 0. -1.
         -5    1    4    4    0  502  0.15568003656E+02  0.21446099379E+02 -0.14298224783E+02  0.30476665637E+02  0.47000000000E+01 0.  1.
<mgrwt>
<rscale>  0 0.12244230E+03</rscale>
<asrwt>0</asrwt>
<pdfrwt beam="1">  1        2 0.86486522E-01 0.13099412E+03</pdfrwt>
<pdfrwt beam="2">  1       -2 0.36528823E-02 0.13099412E+03</pdfrwt>
<totfact> 0.16185963E+04</totfact>
</mgrwt>
</event>
<event>
 8    1  0.3520338E-004  0.1416012E+03  0.7546771E-02  0.1221681E+00
          3   -1    0    0  501    0  0.00000000000E+00  0.00000000000E+00  0.87863974363E+02  0.87863974363E+02  0.00000000000E+00 0. -1.
         -3   -1    0    0    0  501 -0.00000000000E+00 -0.00000000000E+00 -0.18520584983E+03  0.18520584983E+03  0.00000000000E+00 0.  1.
         25    2    1    2    0    0  0.66212530205E+02 -0.63213950072E+01 -0.50811419198E+02  0.15044170027E+03  0.12500738246E+03 0.  0.
         23    2    1    2    0    0 -0.66212530205E+02  0.63213950072E+01 -0.46530456269E+02  0.12262812392E+03  0.91915799643E+02 0.  0.
          5    1    3    3  502    0  0.71363132679E+02 -0.25915272039E+02  0.18325348896E+02  0.78244529795E+02  0.47000000000E+01 0. -1.
         -5    1    3    3    0  502 -0.51506024741E+01  0.19593877032E+02 -0.69136768093E+02  0.72197170480E+02  0.47000000000E+01 0. -1.
          5    1    4    4  503    0 -0.49406240178E+02 -0.14751485354E+02  0.16150579561E+02  0.54235727236E+02  0.47000000000E+01 0. -1.
         -5    1    4    4    0  503 -0.16806290027E+02  0.21072880361E+02 -0.62681035830E+02  0.68392396682E+02  0.47000000000E+01 0.  1.
<mgrwt>
<rscale>  0 0.13397026E+03</rscale>
<asrwt>0</asrwt>
<pdfrwt beam="1">  1        3 0.13517535E-01 0.14160122E+03</pdfrwt>
<pdfrwt beam="2">  1       -3 0.28493207E-01 0.14160122E+03</pdfrwt>
<totfact> 0.12152904E+03</totfact>
</mgrwt>
</event>
<event>
 8    1  0.3520338E-004  0.1505192E+03  0.7546771E-02  0.1208436E+00
         -1   -1    0    0    0  501 -0.00000000000E+00  0.00000000000E+00  0.11126743040E+03  0.11126743040E+03  0.00000000000E+00 0.  1.
          1   -1    0    0  501    0  0.00000000000E+00 -0.00000000000E+00 -0.17763585066E+03  0.17763585066E+03  0.00000000000E+00 0. -1.
         25    2    1    2    0    0 -0.80040596359E+02 -0.25106371710E+02 -0.75138561695E+01  0.15070667622E+03  0.12497686689E+03 0.  0.
         23    2    1    2    0    0  0.80040596359E+02  0.25106371710E+02 -0.58854564090E+02  0.13819660485E+03  0.92723324526E+02 0.  0.
          5    1    3    3  502    0 -0.52632297332E+02  0.21997833493E+02  0.46565363297E+02  0.73786763445E+02  0.47000000000E+01 0. -1.
         -5    1    3    3    0  502 -0.27408299027E+02 -0.47104205202E+02 -0.54079219466E+02  0.76919912775E+02  0.47000000000E+01 0. -1.
          5    1    4    4  503    0 -0.30718969306E+01 -0.25920769093E+02 -0.60916990706E+01  0.27212526871E+02  0.47000000000E+01 0. -1.
         -5    1    4    4    0  503  0.83112493289E+02  0.51027140803E+02 -0.52762865019E+02  0.11098407798E+03  0.47000000000E+01 0.  1.
<mgrwt>
<rscale>  0 0.14369919E+03</rscale>
<asrwt>0</asrwt>
<pdfrwt beam="1">  1        1 0.27328592E-01 0.15051925E+03</pdfrwt>
<pdfrwt beam="2">  1       -1 0.17118066E-01 0.15051925E+03</pdfrwt>
<totfact> 0.42782405E+03</totfact>
</mgrwt>
</event>
<event>
 8    1  0.3520338E-004  0.1478277E+03  0.7546771E-02  0.1212844E+00
         -2   -1    0    0    0  501 -0.00000000000E+00  0.00000000000E+00  0.15450097172E+03  0.15450097172E+03  0.00000000000E+00 0.  1.
          2   -1    0    0  501    0  0.00000000000E+00 -0.00000000000E+00 -0.13649047435E+03  0.13649047435E+03  0.00000000000E+00 0. -1.
         25    2    1    2    0    0  0.16152557082E+02  0.77252975448E+02  0.65640758568E+02  0.16174592098E+03  0.12499642576E+03 0.  0.
         23    2    1    2    0    0 -0.16152557082E+02 -0.77252975448E+02 -0.47630261197E+02  0.12924552509E+03  0.90591592640E+02 0.  0.
          5    1    3    3  502    0  0.55434350619E+02  0.60290483116E+02  0.81722043653E+02  0.11579504308E+03  0.47000000000E+01 0. -1.
         -5    1    3    3    0  502 -0.39281793537E+02  0.16962492332E+02 -0.16081285086E+02  0.45950877898E+02  0.47000000000E+01 0. -1.
          5    1    4    4  503    0  0.14921642586E+01 -0.37878555194E+02 -0.70502363341E+02  0.80185314955E+02  0.47000000000E+01 0. -1.
         -5    1    4    4    0  503 -0.17644721341E+02 -0.39374420255E+02  0.22872102144E+02  0.49060210131E+02  0.47000000000E+01 0.  1.
<mgrwt>
<rscale>  0 0.14036114E+03</rscale>
<asrwt>0</asrwt>
<pdfrwt beam="1">  1        2 0.20998535E-01 0.14782772E+03</pdfrwt>
<pdfrwt beam="2">  1       -2 0.23769380E-01 0.14782772E+03</pdfrwt>
<totfact> 0.39319872E+03</totfact>
</mgrwt>
</event>
<event>
 8    1  0.3520338E-004  0.1697312E+03  0.7546771E-02  0.1184479E+00
         -1   -1    0    0    0  501 -0.00000000000E+00  0.00000000000E+00  0.88436663903E+02  0.88436663903E+02  0.00000000000E+00 0.  1.
          1   -1    0    0  501    0  0.00000000000E+00 -0.00000000000E+00 -0.29261712613E+03  0.29261712613E+03  0.00000000000E+00 0. -1.
         25    2    1    2    0    0 -0.11429862653E+03  0.10922995568E+02 -0.14185548279E+03  0.22120498250E+03  0.12500071371E+03 0.  0.
         23    2    1    2    0    0  0.11429862653E+03 -0.10922995568E+02 -0.62324979440E+02  0.15984880753E+03  0.92107276300E+02 0.  0.
          5    1    3    3  502    0  0.16195601593E+02  0.33193095740E+02 -0.33013966556E+02  0.49760336650E+02  0.47000000000E+01 0.  1.
         -5    1    4    4    0  503  0.93228301293E+02 -0.29112482727E+02 -0.73591453038E+01  0.98057635256E+02  0.47000000000E+01 0.  1.
          5    1    4    4  503    0  0.21070325241E+02  0.18189487159E+02 -0.54965834136E+02  0.61791172275E+02  0.47000000000E+01 0. -1.
         -5    1    3    3    0  502 -0.13049422813E+03 -0.22270100172E+02 -0.10884151623E+03  0.17144464585E+03  0.47000000000E+01 0.  1.
<mgrwt>
<rscale>  0 0.16379349E+03</rscale>
<asrwt>0</asrwt>
<pdfrwt beam="1">  1        1 0.45018019E-01 0.16973116E+03</pdfrwt>
<pdfrwt beam="2">  1       -1 0.13605641E-01 0.16973116E+03</pdfrwt>
<totfact> 0.33182786E+03</totfact>
</mgrwt>
</event>
<event>
 8    1  0.3520338E-004  0.1493868E+03  0.7546771E-02  0.1213527E+00
          1   -1    0    0  501    0  0.00000000000E+00  0.00000000000E+00  0.26279753862E+03  0.26279753862E+03  0.00000000000E+00 0. -1.
         -1   -1    0    0    0  501 -0.00000000000E+00 -0.00000000000E+00 -0.87131042271E+02  0.87131042271E+02  0.00000000000E+00 0.  1.
         25    2    1    2    0    0  0.79696376983E+02  0.18428152279E+02  0.18145173966E+03  0.23503437236E+03  0.12500125224E+03 0.  0.
         23    2    1    2    0    0 -0.79696376983E+02 -0.18428152279E+02 -0.57852433110E+01  0.11489420854E+03  0.80474224536E+02 0.  0.
          5    1    3    3  502    0  0.56432202853E+02 -0.34415156302E+02  0.29728128975E+02  0.72628149877E+02  0.47000000000E+01 0. -1.
         -5    1    4    4    0  503 -0.63323003911E+02 -0.44780179023E+02 -0.20320968775E+02  0.80312508550E+02  0.47000000000E+01 0.  1.
          5    1    4    4  503    0 -0.16373373073E+02  0.26352026744E+02  0.14535725464E+02  0.34581699988E+02  0.47000000000E+01 0. -1.
         -5    1    3    3    0  502  0.23264174130E+02  0.52843308581E+02  0.15172361069E+03  0.16240622248E+03  0.47000000000E+01 0. -1.
<mgrwt>
<rscale>  0 0.13985273E+03</rscale>
<asrwt>0</asrwt>
<pdfrwt beam="1">  1        1 0.40430390E-01 0.14938682E+03</pdfrwt>
<pdfrwt beam="2">  1       -1 0.13404776E-01 0.14938682E+03</pdfrwt>
<totfact> 0.38584523E+03</totfact>
</mgrwt>
</event>
<event>
 8    1  0.3520338E-004  0.1574208E+03  0.7546771E-02  0.1199659E+00
          2   -1    0    0  501    0  0.00000000000E+00  0.00000000000E+00  0.42441992361E+03  0.42441992361E+03  0.00000000000E+00 0. -1.
         -2   -1    0    0    0  501 -0.00000000000E+00 -0.00000000000E+00 -0.50134993270E+02  0.50134993270E+02  0.00000000000E+00 0.  1.
         25    2    1    2    0    0  0.95687423228E+02  0.12014560725E+01  0.17407366847E+03  0.23469758060E+03  0.12499514320E+03 0.  0.
         23    2    1    2    0    0 -0.95687423228E+02 -0.12014560725E+01  0.20021126187E+03  0.23985733628E+03  0.91046504197E+02 0.  0.
          5    1    3    3  502    0  0.12337615203E+03 -0.82069313456E+00  0.16290104566E+03  0.20440447428E+03  0.47000000000E+01 0.  1.
         -5    1    3    3    0  502 -0.27688728805E+02  0.20221492071E+01  0.11172622811E+02  0.30293106324E+02  0.47000000000E+01 0.  1.
          5    1    4    4  503    0 -0.17124705079E+02  0.23835254154E+02  0.12388124297E+03  0.12739712408E+03  0.47000000000E+01 0. -1.
         -5    1    4    4    0  503 -0.78562718149E+02 -0.25036710227E+02  0.76330018898E+02  0.11246021219E+03  0.47000000000E+01 0.  1.
<mgrwt>
<rscale>  0 0.15066476E+03</rscale>
<asrwt>0</asrwt>
<pdfrwt beam="1">  1        2 0.65295371E-01 0.15742081E+03</pdfrwt>
<pdfrwt beam="2">  1       -2 0.77130762E-02 0.15742081E+03</pdfrwt>
<totfact> 0.72221239E+03</totfact>
</mgrwt>
</event>
<event>
 8    1  0.3520338E-004  0.1884184E+03  0.7546771E-02  0.1164069E+00
         -2   -1    0    0    0  501 -0.00000000000E+00  0.00000000000E+00  0.66441803344E+02  0.66441803344E+02  0.00000000000E+00 0.  1.
          2   -1    0    0  501    0  0.00000000000E+00 -0.00000000000E+00 -0.60183186435E+03  0.60183186435E+03  0.00000000000E+00 0. -1.
         25    2    1    2    0    0  0.13938319891E+03 -0.21170790962E+02 -0.13180500413E+03  0.22994358481E+03  0.12500245818E+03 0.  0.
         23    2    1    2    0    0 -0.13938319891E+03  0.21170790962E+02 -0.40358505687E+03  0.43833008288E+03  0.96832251328E+02 0.  0.
          5    1    3    3  502    0  0.12446178178E+03 -0.53970779769E+02 -0.57873274301E+02  0.14756349844E+03  0.47000000000E+01 0.  1.
         -5    1    3    3    0  502  0.14921417131E+02  0.32799988806E+02 -0.73931729829E+02  0.82380086371E+02  0.47000000000E+01 0.  1.
          5    1    4    4  503    0 -0.56206772032E+02 -0.38564929450E+02 -0.15127412495E+03  0.16598917400E+03  0.47000000000E+01 0. -1.
         -5    1    4    4    0  503 -0.83176426882E+02  0.59735720412E+02 -0.25231093192E+03  0.27234090888E+03  0.47000000000E+01 0.  1.
<mgrwt>
<rscale>  0 0.18391307E+03</rscale>
<asrwt>0</asrwt>
<pdfrwt beam="1">  1        2 0.92589521E-01 0.18841840E+03</pdfrwt>
<pdfrwt beam="2">  1       -2 0.10221816E-01 0.18841840E+03</pdfrwt>
<totfact> 0.31773905E+03</totfact>
</mgrwt>
</event>
<event>
 8    1  0.3520338E-004  0.1671355E+03  0.7546771E-02  0.1187942E+00
          1   -1    0    0  501    0  0.00000000000E+00  0.00000000000E+00  0.10461358912E+04  0.10461358912E+04  0.00000000000E+00 0. -1.
         -1   -1    0    0    0  501 -0.00000000000E+00 -0.00000000000E+00 -0.24289017688E+02  0.24289017688E+02  0.00000000000E+00 0.  1.
         25    2    1    2    0    0  0.12586545526E+02  0.11024828374E+03  0.42347562159E+03  0.45526461749E+03  0.12498465771E+03 0.  0.
         23    2    1    2    0    0 -0.12586545526E+02 -0.11024828374E+03  0.59837125193E+03  0.61516029140E+03  0.89782647475E+02 0.  0.
          5    1    3    3  502    0 -0.21032647559E+02  0.61906441571E+02  0.66287251502E+02  0.93224832974E+02  0.47000000000E+01 0.  1.
         -5    1    3    3    0  502  0.33619193085E+02  0.48341842170E+02  0.35718837009E+03  0.36203978452E+03  0.47000000000E+01 0.  1.
          5    1    4    4  503    0  0.19996266393E+02 -0.70756104926E+02  0.48641128619E+03  0.49195965931E+03  0.47000000000E+01 0. -1.
         -5    1    4    4    0  503 -0.32582811919E+02 -0.39492178815E+02  0.11195996574E+03  0.12320063209E+03  0.47000000000E+01 0.  1.
<mgrwt>
<rscale>  0 0.16067049E+03</rscale>
<asrwt>0</asrwt>
<pdfrwt beam="1">  1        1 0.16094395E+00 0.16713548E+03</pdfrwt>
<pdfrwt beam="2">  1       -1 0.37367728E-02 0.16713548E+03</pdfrwt>
<totfact> 0.39698178E+03</totfact>
</mgrwt>
</event>
<event>
 8    1  0.3520338E-004  0.1423203E+03  0.7546771E-02  0.1220932E+00
          2   -1    0    0  501    0  0.00000000000E+00  0.00000000000E+00  0.13383601126E+03  0.13383601126E+03  0.00000000000E+00 0. -1.
         -2   -1    0    0    0  501 -0.00000000000E+00 -0.00000000000E+00 -0.19017846665E+03  0.19017846665E+03  0.00000000000E+00 0.  1.
         25    2    1    2    0    0  0.67694834033E+02  0.68480484885E+01 -0.12663179160E+03  0.19050115892E+03  0.12500237831E+03 0.  0.
         23    2    1    2    0    0 -0.67694834033E+02 -0.68480484885E+01  0.70289336213E+02  0.13351331899E+03  0.90861043572E+02 0.  0.
          5    1    3    3  502    0 -0.31046840070E+02 -0.73371397975E+01 -0.66560249137E+02  0.73960101838E+02  0.47000000000E+01 0. -1.
         -5    1    4    4    0  503 -0.15701097373E+02 -0.35888097621E+02  0.61591591741E+02  0.73144338009E+02  0.47000000000E+01 0.  1.
          5    1    4    4  503    0 -0.51993736660E+02  0.29040049133E+02  0.86977444718E+01  0.60368980978E+02  0.47000000000E+01 0. -1.
         -5    1    3    3    0  502  0.98741674102E+02  0.14185188286E+02 -0.60071542462E+02  0.11654105708E+03  0.47000000000E+01 0. -1.
<mgrwt>
<rscale>  0 0.13449672E+03</rscale>
<asrwt>0</asrwt>
<pdfrwt beam="1">  1        2 0.20590156E-01 0.14232035E+03</pdfrwt>
<pdfrwt beam="2">  1       -2 0.29258225E-01 0.14232035E+03</pdfrwt>
<totfact> 0.27810931E+03</totfact>
</mgrwt>
</event>
<event>
 8    1  0.3520338E-004  0.1951003E+03  0.7546771E-02  0.1158491E+00
         -2   -1    0    0    0  501 -0.00000000000E+00  0.00000000000E+00  0.12313197349E+03  0.12313197349E+03  0.00000000000E+00 0.  1.
          2   -1    0    0  501    0  0.00000000000E+00 -0.00000000000E+00 -0.44062227500E+03  0.44062227500E+03  0.00000000000E+00 0. -1.
         25    2    1    2    0    0 -0.13474791299E+03 -0.65443323072E+02  0.66546149664E+01  0.19521377429E+03  0.12499722071E+03 0.  0.
         23    2    1    2    0    0  0.13474791299E+03  0.65443323072E+02 -0.32414491648E+03  0.36854047419E+03  0.91171956483E+02 0.  0.
          5    1    4    4  502    0  0.60563015913E+01  0.39464822296E+02 -0.11217732748E+03  0.11916372681E+03  0.47000000000E+01 0. -1.
         -5    1    3    3    0  503 -0.15666677187E+03 -0.55281719074E+02 -0.83111073358E+01  0.16640826415E+03  0.47000000000E+01 0.  1.
          5    1    3    3  503    0  0.21918858884E+02 -0.10161603998E+02  0.14965722302E+02  0.28805510143E+02  0.47000000000E+01 0.  1.
         -5    1    4    4    0  502  0.12869161139E+03  0.25978500776E+02 -0.21196758900E+03  0.24937674738E+03  0.47000000000E+01 0.  1.
<mgrwt>
<rscale>  0 0.18996690E+03</rscale>
<asrwt>0</asrwt>
<pdfrwt beam="1">  1        2 0.67788043E-01 0.19510032E+03</pdfrwt>
<pdfrwt beam="2">  1       -2 0.18943380E-01 0.19510032E+03</pdfrwt>
<totfact> 0.16436338E+03</totfact>
</mgrwt>
</event>
<event>
 8    1  0.3520338E-004  0.1321560E+03  0.7546771E-02  0.1237934E+00
          2   -1    0    0  501    0  0.00000000000E+00  0.00000000000E+00  0.13013751936E+03  0.13013751936E+03  0.00000000000E+00 0. -1.
         -2   -1    0    0    0  501 -0.00000000000E+00 -0.00000000000E+00 -0.11220667152E+03  0.11220667152E+03  0.00000000000E+00 0.  1.
         25    2    1    2    0    0  0.40345360739E+02  0.14691465008E+02 -0.23664421285E+02  0.13425803383E+03  0.12498650941E+03 0.  0.
         23    2    1    2    0    0 -0.40345360739E+02 -0.14691465008E+02  0.41595269117E+02  0.10808615705E+03  0.90049229071E+02 0.  0.
          5    1    3    3  502    0 -0.13237636851E+02  0.41441471461E+02  0.30527045188E+02  0.53353735335E+02  0.47000000000E+01 0. -1.
         -5    1    4    4    0  503 -0.41468157122E+02  0.13879475826E+02 -0.13354826896E+02  0.45964000106E+02  0.47000000000E+01 0.  1.
          5    1    4    4  503    0  0.11227963835E+01 -0.28570940834E+02  0.54950096013E+02  0.62122156947E+02  0.47000000000E+01 0. -1.
         -5    1    3    3    0  502  0.53582997590E+02 -0.26750006453E+02 -0.54191466473E+02  0.80904298492E+02  0.47000000000E+01 0. -1.
<mgrwt>
<rscale>  0 0.12318462E+03</rscale>
<asrwt>0</asrwt>
<pdfrwt beam="1">  1        2 0.20021157E-01 0.13215602E+03</pdfrwt>
<pdfrwt beam="2">  1       -2 0.17262565E-01 0.13215602E+03</pdfrwt>
<totfact> 0.70884167E+03</totfact>
</mgrwt>
</event>
<event>
 8    1  0.3520338E-004  0.1593811E+03  0.7546771E-02  0.1197026E+00
          2   -1    0    0  501    0  0.00000000000E+00  0.00000000000E+00  0.39066993918E+03  0.39066993918E+03  0.00000000000E+00 0. -1.
         -2   -1    0    0    0  501 -0.00000000000E+00 -0.00000000000E+00 -0.65952636689E+02  0.65952636689E+02  0.00000000000E+00 0.  1.
         25    2    1    2    0    0  0.98098059094E+02  0.12321889303E+02  0.26492539586E+03  0.30917276632E+03  0.12500910330E+03 0.  0.
         23    2    1    2    0    0 -0.98098059094E+02 -0.12321889303E+02  0.59791906634E+02  0.14744980955E+03  0.91604127001E+02 0.  0.
          5    1    3    3  502    0  0.74915791581E+02 -0.33776379032E+02  0.23575865240E+03  0.24971474083E+03  0.47000000000E+01 0.  1.
         -5    1    3    3    0  502  0.23182267513E+02  0.46098268334E+02  0.29166743458E+02  0.59458025483E+02  0.47000000000E+01 0.  1.
          5    1    4    4  503    0 -0.40758545513E+02  0.39469320684E+01  0.75158430617E+02  0.85718825225E+02  0.47000000000E+01 0. -1.
         -5    1    4    4    0  503 -0.57339513582E+02 -0.16268821371E+02 -0.15366523983E+02  0.61730984326E+02  0.47000000000E+01 0.  1.
<mgrwt>
<rscale>  0 0.15283969E+03</rscale>
<asrwt>0</asrwt>
<pdfrwt beam="1">  1        2 0.60103066E-01 0.15938110E+03</pdfrwt>
<pdfrwt beam="2">  1       -2 0.10146560E-01 0.15938110E+03</pdfrwt>
<totfact> 0.51485565E+03</totfact>
</mgrwt>
</event>
<event>
 8    1  0.3520338E-004  0.1266916E+03  0.7546771E-02  0.1247166E+00
         -1   -1    0    0    0  501 -0.00000000000E+00  0.00000000000E+00  0.23371108937E+02  0.23371108937E+02  0.00000000000E+00 0.  1.
          1   -1    0    0  501    0  0.00000000000E+00 -0.00000000000E+00 -0.52979808693E+03  0.52979808693E+03  0.00000000000E+00 0. -1.
         25    2    1    2    0    0  0.20679214793E+02  0.34170131903E+00 -0.32588762010E+03  0.34964768765E+03  0.12499207121E+03 0.  0.
         23    2    1    2    0    0 -0.20679214793E+02 -0.34170131903E+00 -0.18053935789E+03  0.20352150821E+03  0.91644955509E+02 0.  0.
          5    1    4    4  502    0  0.22362000189E+02  0.30031905485E+02 -0.49747275382E+02  0.62440818440E+02  0.47000000000E+01 0. -1.
         -5    1    3    3    0  503  0.68051013695E+02 -0.21911163020E+02 -0.15287754544E+03  0.16883327110E+03  0.47000000000E+01 0.  1.
          5    1    3    3  503    0 -0.47371798902E+02  0.22252864339E+02 -0.17301007466E+03  0.18081441656E+03  0.47000000000E+01 0.  1.
         -5    1    4    4    0  502 -0.43041214983E+02 -0.30373606804E+02 -0.13079208251E+03  0.14108068977E+03  0.47000000000E+01 0.  1.
<mgrwt>
<rscale>  0 0.11756681E+03</rscale>
<asrwt>0</asrwt>
<pdfrwt beam="1">  1        1 0.81507394E-01 0.12669161E+03</pdfrwt>
<pdfrwt beam="2">  1       -1 0.35955554E-02 0.12669161E+03</pdfrwt>
<totfact> 0.11391112E+04</totfact>
</mgrwt>
</event>
<event>
 8    1  0.3520338E-004  0.1348929E+03  0.7546771E-02  0.1233173E+00
          2   -1    0    0  501    0  0.00000000000E+00  0.00000000000E+00  0.20924524922E+03  0.20924524922E+03  0.00000000000E+00 0.  1.
         -2   -1    0    0    0  501 -0.00000000000E+00 -0.00000000000E+00 -0.84702686051E+02  0.84702686051E+02  0.00000000000E+00 0. -1.
         25    2    1    2    0    0  0.30206969872E+02 -0.40735668852E+02  0.13396069154E+03  0.19010934900E+03  0.12499696778E+03 0.  0.
         23    2    1    2    0    0 -0.30206969872E+02  0.40735668852E+02 -0.94181283694E+01  0.10383858627E+03  0.90121557418E+02 0.  0.
          5    1    3    3  502    0  0.77051175072E+02 -0.81747217593E+01  0.75307190682E+02  0.10815254331E+03  0.47000000000E+01 0.  1.
         -5    1    3    3    0  502 -0.46844205200E+02 -0.32560947093E+02  0.58653500860E+02  0.81956805694E+02  0.47000000000E+01 0.  1.
          5    1    4    4  503    0 -0.47282566452E+02 -0.67939609073E+01 -0.20043229800E+02  0.52015575128E+02  0.47000000000E+01 0. -1.
         -5    1    4    4    0  503  0.17075596580E+02  0.47529629759E+02  0.10625101430E+02  0.51823011144E+02  0.47000000000E+01 0.  1.
<mgrwt>
<rscale>  0 0.12622143E+03</rscale>
<asrwt>0</asrwt>
<pdfrwt beam="1">  1        2 0.32191577E-01 0.13489291E+03</pdfrwt>
<pdfrwt beam="2">  1       -2 0.13031183E-01 0.13489291E+03</pdfrwt>
<totfact> 0.66605891E+03</totfact>
</mgrwt>
</event>
<event>
 8    1  0.3520338E-004  0.1415422E+03  0.7546771E-02  0.1225984E+00
          2   -1    0    0  501    0  0.00000000000E+00  0.00000000000E+00  0.66416210289E+03  0.66416210289E+03  0.00000000000E+00 0. -1.
         -2   -1    0    0    0  501 -0.00000000000E+00 -0.00000000000E+00 -0.25217768321E+02  0.25217768321E+02  0.00000000000E+00 0.  1.
         25    2    1    2    0    0  0.65998753216E+02  0.74525742314E+01  0.25510336130E+03  0.29173945900E+03  0.12499124249E+03 0.  0.
         23    2    1    2    0    0 -0.65998753216E+02 -0.74525742314E+01  0.38384097326E+03  0.39764041221E+03  0.79828744056E+02 0.  0.
          5    1    3    3  502    0  0.61612022386E+02  0.49278106386E+02  0.22843359987E+03  0.24171961571E+03  0.47000000000E+01 0. -1.
         -5    1    4    4    0  503 -0.74841741621E+02 -0.26761236854E+02  0.26050589003E+03  0.27240201693E+03  0.47000000000E+01 0.  1.
          5    1    4    4  503    0  0.88429884049E+01  0.19308662622E+02  0.12333508323E+03  0.12523839527E+03  0.47000000000E+01 0. -1.
         -5    1    3    3    0  502  0.43867308302E+01 -0.41825532154E+02  0.26669761434E+02  0.50019843285E+02  0.47000000000E+01 0. -1.
<mgrwt>
<rscale>  0 0.13099717E+03</rscale>
<asrwt>0</asrwt>
<pdfrwt beam="1">  1        2 0.10217877E+00 0.14154217E+03</pdfrwt>
<pdfrwt beam="2">  1       -2 0.38796572E-02 0.14154217E+03</pdfrwt>
<totfact> 0.12303273E+04</totfact>
</mgrwt>
</event>
<event>
 8    1  0.3520338E-004  0.4268003E+03  0.7546771E-02  0.1035560E+00
         -2   -1    0    0    0  501 -0.00000000000E+00  0.00000000000E+00  0.40987945486E+03  0.40987945486E+03  0.00000000000E+00 0. -1.
          2   -1    0    0  501    0  0.00000000000E+00 -0.00000000000E+00 -0.43595986667E+03  0.43595986667E+03  0.00000000000E+00 0.  1.
         25    2    1    2    0    0 -0.71988331834E+01 -0.40801934240E+03 -0.12414116696E+01  0.42680213292E+03  0.12500765011E+03 0.  0.
         23    2    1    2    0    0  0.71988331834E+01  0.40801934240E+03 -0.24839000135E+02  0.41903718862E+03  0.91888968548E+02 0.  0.
          5    1    4    4  502    0  0.38217195090E+02  0.25091261629E+03  0.13835854855E+02  0.25422670177E+03  0.47000000000E+01 0. -1.
         -5    1    3    3    0  503 -0.50611506910E+02 -0.32774468228E+03 -0.24311028154E+02  0.33255257853E+03  0.47000000000E+01 0. -1.
          5    1    3    3  503    0  0.43412673727E+02 -0.80274660119E+02  0.23069616484E+02  0.94249554386E+02  0.47000000000E+01 0. -1.
         -5    1    4    4    0  502 -0.31018361907E+02  0.15710672612E+03 -0.38674854989E+02  0.16481048685E+03  0.47000000000E+01 0.  1.
<mgrwt>
<rscale>  0 0.42465928E+03</rscale>
<asrwt>0</asrwt>
<pdfrwt beam="1">  1        2 0.67070749E-01 0.42680033E+03</pdfrwt>
<pdfrwt beam="2">  1       -2 0.63058378E-01 0.42680033E+03</pdfrwt>
<totfact> 0.17247408E+02</totfact>
</mgrwt>
</event>
<event>
 8    1  0.3520338E-004  0.1545590E+03  0.7546771E-02  0.1203545E+00
         -2   -1    0    0    0  501 -0.00000000000E+00  0.00000000000E+00  0.54558044264E+02  0.54558044264E+02  0.00000000000E+00 0.  1.
          2   -1    0    0  501    0  0.00000000000E+00 -0.00000000000E+00 -0.38689244603E+03  0.38689244603E+03  0.00000000000E+00 0. -1.
         25    2    1    2    0    0  0.76632744889E+02  0.48907946942E+02 -0.13045686138E+03  0.20225598317E+03  0.12499570065E+03 0.  0.
         23    2    1    2    0    0 -0.76632744889E+02 -0.48907946942E+02 -0.20187754038E+03  0.23919450713E+03  0.90525720461E+02 0.  0.
          5    1    4    4  502    0  0.41769086262E+01 -0.35061119747E+02 -0.11163034553E+03  0.11717573437E+03  0.47000000000E+01 0. -1.
         -5    1    4    4    0  502 -0.80809653515E+02 -0.13846827195E+02 -0.90247194858E+02  0.12201877275E+03  0.47000000000E+01 0.  1.
          5    1    3    3  503    0  0.51161826657E+02 -0.36758332930E+02 -0.69791535858E+02  0.94136369295E+02  0.47000000000E+01 0. -1.
         -5    1    3    3    0  503  0.25470918233E+02  0.85666279872E+02 -0.60665325525E+02  0.10811961387E+03  0.47000000000E+01 0. -1.
<mgrwt>
<rscale>  0 0.14752742E+03</rscale>
<asrwt>0</asrwt>
<pdfrwt beam="1">  1        2 0.59521914E-01 0.15455902E+03</pdfrwt>
<pdfrwt beam="2">  1       -2 0.83935454E-02 0.15455902E+03</pdfrwt>
<totfact> 0.69903146E+03</totfact>
</mgrwt>
</event>
<event>
 8    1  0.3520338E-004  0.1326139E+03  0.7546771E-02  0.1237155E+00
         -1   -1    0    0    0  501 -0.00000000000E+00  0.00000000000E+00  0.27142255226E+03  0.27142255226E+03  0.00000000000E+00 0.  1.
          1   -1    0    0  501    0  0.00000000000E+00 -0.00000000000E+00 -0.54268695631E+02  0.54268695631E+02  0.00000000000E+00 0. -1.
         25    2    1    2    0    0 -0.32941849471E+02 -0.29634650083E+02  0.16785044678E+03  0.21391641154E+03  0.12499232261E+03 0.  0.
         23    2    1    2    0    0  0.32941849471E+02  0.29634650083E+02  0.49303409854E+02  0.11177483635E+03  0.89996721531E+02 0.  0.
          5    1    4    4  502    0  0.52587812818E+02  0.22887238896E+02  0.63872129298E+02  0.85971173438E+02  0.47000000000E+01 0.  1.
         -5    1    4    4    0  502 -0.19645963347E+02  0.67474111869E+01 -0.14568719445E+02  0.25803662914E+02  0.47000000000E+01 0. -1.
          5    1    3    3  503    0 -0.19931414621E+02 -0.63520673585E+02  0.16406517215E+03  0.17712032061E+03  0.47000000000E+01 0.  1.
         -5    1    3    3    0  503 -0.13010434850E+02  0.33886023502E+02  0.37852746306E+01  0.36796090931E+02  0.47000000000E+01 0.  1.
<mgrwt>
<rscale>  0 0.12367493E+03</rscale>
<asrwt>0</asrwt>
<pdfrwt beam="1">  1        1 0.83490302E-02 0.13261395E+03</pdfrwt>
<pdfrwt beam="2">  1       -1 0.41757315E-01 0.13261395E+03</pdfrwt>
<totfact> 0.44747365E+03</totfact>
</mgrwt>
</event>
<event>
 8    1  0.3520338E-004  0.2154280E+03  0.7546771E-02  0.1140922E+00
          2   -1    0    0  501    0  0.00000000000E+00  0.00000000000E+00  0.33185145177E+03  0.33185145177E+03  0.00000000000E+00 0. -1.
         -2   -1    0    0    0  501 -0.00000000000E+00 -0.00000000000E+00 -0.13751422277E+03  0.13751422277E+03  0.00000000000E+00 0.  1.
         25    2    1    2    0    0  0.17164247434E+03 -0.36377879889E+02  0.16115326862E+03  0.26903457997E+03  0.12499896035E+03 0.  0.
         23    2    1    2    0    0 -0.17164247434E+03  0.36377879889E+02  0.33183960383E+02  0.20033109457E+03  0.90812350933E+02 0.  0.
          5    1    3    3  502    0  0.15598688391E+03 -0.67968367773E+02  0.97621057453E+02  0.19622326016E+03  0.47000000000E+01 0. -1.
         -5    1    4    4    0  503 -0.42461285610E+02 -0.14495536983E+02 -0.22812386403E+02  0.50552708548E+02  0.47000000000E+01 0.  1.
          5    1    4    4  503    0 -0.12918118873E+03  0.50873416872E+02  0.55996346786E+02  0.14977838602E+03  0.47000000000E+01 0. -1.
         -5    1    3    3    0  502  0.15655590431E+02  0.31590487885E+02  0.63532211168E+02  0.72811319810E+02  0.47000000000E+01 0. -1.
<mgrwt>
<rscale>  0 0.21081590E+03</rscale>
<asrwt>0</asrwt>
<pdfrwt beam="1">  1        2 0.51054069E-01 0.21542801E+03</pdfrwt>
<pdfrwt beam="2">  1       -2 0.21156034E-01 0.21542801E+03</pdfrwt>
<totfact> 0.18539681E+03</totfact>
</mgrwt>
</event>
<event>
 8    1  0.3520338E-004  0.1975066E+03  0.7546771E-02  0.1156400E+00
          2   -1    0    0  501    0  0.00000000000E+00  0.00000000000E+00  0.72674881350E+03  0.72674881350E+03  0.00000000000E+00 0. -1.
         -2   -1    0    0    0  501 -0.00000000000E+00 -0.00000000000E+00 -0.49898736185E+02  0.49898736185E+02  0.00000000000E+00 0.  1.
         25    2    1    2    0    0 -0.90136364276E+02 -0.12352748214E+03  0.42365846187E+03  0.46743486503E+03  0.12500103090E+03 0.  0.
         23    2    1    2    0    0  0.90136364276E+02  0.12352748214E+03  0.25319161545E+03  0.30921268465E+03  0.90127061468E+02 0.  0.
          5    1    4    4  502    0  0.10795679499E+00  0.74424319873E+02  0.98153784663E+02  0.12326900051E+03  0.47000000000E+01 0. -1.
         -5    1    4    4    0  502  0.90028407481E+02  0.49103162267E+02  0.15503783078E+03  0.18594368414E+03  0.47000000000E+01 0.  1.
          5    1    3    3  503    0 -0.11211645206E+03 -0.86541699735E+02  0.38169269072E+03  0.40714980629E+03  0.47000000000E+01 0. -1.
         -5    1    3    3    0  503  0.21980087784E+02 -0.36985782405E+02  0.41965771150E+02  0.60285058740E+02  0.47000000000E+01 0. -1.
<mgrwt>
<rscale>  0 0.19230307E+03</rscale>
<asrwt>0</asrwt>
<pdfrwt beam="1">  1        2 0.11180750E+00 0.19750661E+03</pdfrwt>
<pdfrwt beam="2">  1       -2 0.76767292E-02 0.19750661E+03</pdfrwt>
<totfact> 0.39888565E+03</totfact>
</mgrwt>
</event>
<event>
 8    1  0.3520338E-004  0.1314972E+03  0.7546771E-02  0.1242122E+00
          1   -1    0    0  501    0  0.00000000000E+00  0.00000000000E+00  0.12612462344E+03  0.12612462344E+03  0.00000000000E+00 0. -1.
         -1   -1    0    0    0  501 -0.00000000000E+00 -0.00000000000E+00 -0.10028394315E+03  0.10028394315E+03  0.00000000000E+00 0.  1.
         25    2    1    2    0    0 -0.39630944580E+02  0.97847810419E+01  0.21943708143E+02  0.13331552213E+03  0.12500059362E+03 0.  0.
         23    2    1    2    0    0  0.39630944580E+02 -0.97847810419E+01  0.38969721492E+01  0.93093044458E+02  0.83574965307E+02 0.  0.
          5    1    3    3  502    0  0.43127773915E+02 -0.33988807620E+01  0.23319126694E+02  0.49370324519E+02  0.47000000000E+01 0.  1.
         -5    1    3    3    0  502 -0.82758718496E+02  0.13183661804E+02 -0.13754185502E+01  0.83945197610E+02  0.47000000000E+01 0.  1.
          5    1    4    4  503    0 -0.17689143993E+02 -0.14349341824E+02  0.22614502358E+02  0.32439407252E+02  0.47000000000E+01 0. -1.
         -5    1    4    4    0  503  0.57320088573E+02  0.45645607819E+01 -0.18717530208E+02  0.60653637206E+02  0.47000000000E+01 0.  1.
<mgrwt>
<rscale>  0 0.12059280E+03</rscale>
<asrwt>0</asrwt>
<pdfrwt beam="1">  1        1 0.19403788E-01 0.13149716E+03</pdfrwt>
<pdfrwt beam="2">  1       -1 0.15428299E-01 0.13149716E+03</pdfrwt>
<totfact> 0.76998587E+03</totfact>
</mgrwt>
</event>
<event>
 8    1  0.3520338E-004  0.1614622E+03  0.7546771E-02  0.1194422E+00
          2   -1    0    0  501    0  0.00000000000E+00  0.00000000000E+00  0.16360328608E+04  0.16360328608E+04  0.00000000000E+00 0. -1.
         -2   -1    0    0    0  501 -0.00000000000E+00 -0.00000000000E+00 -0.14230250435E+02  0.14230250435E+02  0.00000000000E+00 0.  1.
         25    2    1    2    0    0  0.88649922854E+02 -0.50791353620E+02  0.10422545203E+04  0.10546869345E+04  0.12502589470E+03 0.  0.
         23    2    1    2    0    0 -0.88649922854E+02  0.50791353620E+02  0.57954809011E+03  0.59557617675E+03  0.91631998472E+02 0.  0.
          5    1    4    4  502    0 -0.27314450851E+02  0.67851805423E+02  0.32157753706E+03  0.32982442157E+03  0.47000000000E+01 0. -1.
         -5    1    3    3    0  503  0.86226829151E+02 -0.88287151565E+02  0.81285826437E+03  0.82218631414E+03  0.47000000000E+01 0.  1.
          5    1    3    3  503    0  0.24230937034E+01  0.37495797945E+02  0.22939625588E+03  0.23250062034E+03  0.47000000000E+01 0.  1.
         -5    1    4    4    0  502 -0.61335472003E+02 -0.17060451803E+02  0.25797055305E+03  0.26575175518E+03  0.47000000000E+01 0.  1.
<mgrwt>
<rscale>  0 0.15503289E+03</rscale>
<asrwt>0</asrwt>
<pdfrwt beam="1">  1        2 0.25169721E+00 0.16146221E+03</pdfrwt>
<pdfrwt beam="2">  1       -2 0.21892706E-02 0.16146221E+03</pdfrwt>
<totfact> 0.77071302E+03</totfact>
</mgrwt>
</event>
<event>
 8    1  0.3520338E-004  0.1352491E+03  0.7546771E-02  0.1236404E+00
          2   -1    0    0  501    0  0.00000000000E+00  0.00000000000E+00  0.19868202665E+03  0.19868202665E+03  0.00000000000E+00 0. -1.
         -2   -1    0    0    0  501 -0.00000000000E+00 -0.00000000000E+00 -0.14980472476E+03  0.14980472476E+03  0.00000000000E+00 0.  1.
         25    2    1    2    0    0  0.43886416910E+02 -0.27223793089E+02 -0.10216878154E+03  0.16950153574E+03  0.12500063279E+03 0.  0.
         23    2    1    2    0    0 -0.43886416910E+02  0.27223793089E+02  0.15104608342E+03  0.17898521567E+03  0.80954528050E+02 0.  0.
          5    1    3    3  502    0  0.33466288899E+02  0.32599189992E+01 -0.12513539145E+03  0.12965946073E+03  0.47000000000E+01 0. -1.
         -5    1    3    3    0  502  0.10420128011E+02 -0.30483712088E+02  0.22966609908E+02  0.39842075010E+02  0.47000000000E+01 0. -1.
          5    1    4    4  503    0 -0.24969213097E+02  0.48847036232E+01  0.14676728121E+03  0.14903035519E+03  0.47000000000E+01 0. -1.
         -5    1    4    4    0  503 -0.18917203813E+02  0.22339089465E+02  0.42788022088E+01  0.29954860484E+02  0.47000000000E+01 0.  1.
<mgrwt>
<rscale>  0 0.12415000E+03</rscale>
<asrwt>0</asrwt>
<pdfrwt beam="1">  1        2 0.30566466E-01 0.13524907E+03</pdfrwt>
<pdfrwt beam="2">  1       -2 0.23046881E-01 0.13524907E+03</pdfrwt>
<totfact> 0.27287106E+03</totfact>
</mgrwt>
</event>
<event>
 8    1  0.3520338E-004  0.1467270E+03  0.7546771E-02  0.1214188E+00
          2   -1    0    0  501    0  0.00000000000E+00  0.00000000000E+00  0.45313064152E+03  0.45313064152E+03  0.00000000000E+00 0. -1.
         -2   -1    0    0    0  501 -0.00000000000E+00 -0.00000000000E+00 -0.40657797930E+02  0.40657797930E+02  0.00000000000E+00 0.  1.
         25    2    1    2    0    0  0.30695797485E+01 -0.76777167259E+02  0.17818035654E+03  0.23081819443E+03  0.12499857475E+03 0.  0.
         23    2    1    2    0    0 -0.30695797485E+01  0.76777167259E+02  0.23429248705E+03  0.26297024502E+03  0.91412387267E+02 0.  0.
          5    1    4    4  502    0 -0.14005339759E+02  0.37491865598E+02  0.21290245262E+03  0.21668256473E+03  0.47000000000E+01 0. -1.
         -5    1    3    3    0  503  0.48315002627E+02  0.70026400247E+01  0.41918047042E+02  0.64518130118E+02  0.47000000000E+01 0.  1.
          5    1    3    3  503    0 -0.45245422878E+02 -0.83779807284E+02  0.13626230950E+03  0.16630006431E+03  0.47000000000E+01 0.  1.
         -5    1    4    4    0  502  0.10935760010E+02  0.39285301661E+02  0.21390034433E+02  0.46287680290E+02  0.47000000000E+01 0.  1.
<mgrwt>
<rscale>  0 0.13936343E+03</rscale>
<asrwt>0</asrwt>
<pdfrwt beam="1">  1        2 0.69712403E-01 0.14672696E+03</pdfrwt>
<pdfrwt beam="2">  1       -2 0.62550462E-02 0.14672696E+03</pdfrwt>
<totfact> 0.92374322E+03</totfact>
</mgrwt>
</event>
<event>
 8    1  0.3520338E-004  0.1413545E+03  0.7546771E-02  0.1222704E+00
         -2   -1    0    0    0  501 -0.00000000000E+00  0.00000000000E+00  0.54297472232E+02  0.54297472232E+02  0.00000000000E+00 0.  1.
          2   -1    0    0  501    0  0.00000000000E+00 -0.00000000000E+00 -0.34572671728E+03  0.34572671728E+03  0.00000000000E+00 0. -1.
         25    2    1    2    0    0 -0.57543404958E+02  0.32307525561E+02 -0.83912894319E+02  0.16438515401E+03  0.12500434139E+03 0.  0.
         23    2    1    2    0    0  0.57543404958E+02 -0.32307525561E+02 -0.20751635073E+03  0.23563903550E+03  0.90042765220E+02 0.  0.
          5    1    4    4  502    0  0.15060128342E+02 -0.55746539959E+02 -0.14650739383E+03  0.15754678870E+03  0.47000000000E+01 0. -1.
         -5    1    3    3    0  503 -0.28836199864E+02 -0.40846294566E+02 -0.12541987587E+01  0.50235537391E+02  0.47000000000E+01 0. -1.
          5    1    3    3  503    0 -0.28707205093E+02  0.73153820127E+02 -0.82658695560E+02  0.11414961662E+03  0.47000000000E+01 0. -1.
         -5    1    4    4    0  502  0.42483276615E+02  0.23439014398E+02 -0.61008956901E+02  0.78092246798E+02  0.47000000000E+01 0.  1.
<mgrwt>
<rscale>  0 0.13325512E+03</rscale>
<asrwt>0</asrwt>
<pdfrwt beam="1">  1        2 0.53188723E-01 0.14135454E+03</pdfrwt>
<pdfrwt beam="2">  1       -2 0.83534577E-02 0.14135454E+03</pdfrwt>
<totfact> 0.78959199E+03</totfact>
</mgrwt>
</event>
<event>
 8    1  0.3520338E-004  0.1845265E+03  0.7546771E-02  0.1168748E+00
          4   -1    0    0  501    0  0.00000000000E+00  0.00000000000E+00  0.15555449509E+03  0.15555449509E+03  0.00000000000E+00 0. -1.
         -4   -1    0    0    0  501 -0.00000000000E+00 -0.00000000000E+00 -0.19475796765E+03  0.19475796765E+03  0.00000000000E+00 0.  1.
         25    2    1    2    0    0  0.11391560898E+03 -0.73806137814E+02 -0.24853408598E+02  0.18619271661E+03  0.12500369535E+03 0.  0.
         23    2    1    2    0    0 -0.11391560898E+03  0.73806137814E+02 -0.14350063966E+02  0.16411974613E+03  0.91133170616E+02 0.  0.
          5    1    4    4  502    0 -0.38346155111E+02 -0.72479809390E+01 -0.33396965717E+02  0.51579144609E+02  0.47000000000E+01 0. -1.
         -5    1    3    3    0  503  0.10384010992E+03 -0.46811253544E+02  0.35290040953E+02  0.11933791886E+03  0.47000000000E+01 0.  1.
          5    1    3    3  503    0  0.10075499053E+02 -0.26994884270E+02 -0.60143449551E+02  0.66854797747E+02  0.47000000000E+01 0.  1.
         -5    1    4    4    0  502 -0.75569453866E+02  0.81054118753E+02  0.19046901752E+02  0.11254060152E+03  0.47000000000E+01 0.  1.
<mgrwt>
<rscale>  0 0.17902665E+03</rscale>
<asrwt>0</asrwt>
<pdfrwt beam="1">  1        4 0.23931461E-01 0.18452652E+03</pdfrwt>
<pdfrwt beam="2">  1       -4 0.29962765E-01 0.18452652E+03</pdfrwt>
<totfact> 0.30397483E+02</totfact>
</mgrwt>
</event>
<event>
 8    1  0.3520338E-004  0.1269014E+03  0.7546771E-02  0.1247700E+00
          1   -1    0    0  501    0  0.00000000000E+00  0.00000000000E+00  0.18677291310E+03  0.18677291310E+03  0.00000000000E+00 0. -1.
         -1   -1    0    0    0  501 -0.00000000000E+00 -0.00000000000E+00 -0.66316605480E+02  0.66316605480E+02  0.00000000000E+00 0.  1.
         25    2    1    2    0    0 -0.60614757759E+01  0.21056239294E+02  0.48295990532E+02  0.13578091081E+03  0.12499538526E+03 0.  0.
         23    2    1    2    0    0  0.60614757759E+01 -0.21056239294E+02  0.72160317084E+02  0.11730860777E+03  0.89855948008E+02 0.  0.
          5    1    4    4  502    0  0.13904328774E+02  0.16144089889E+02  0.75753440764E+02  0.78832961283E+02  0.47000000000E+01 0. -1.
         -5    1    4    4    0  502 -0.78428529979E+01 -0.37200329183E+02 -0.35931236797E+01  0.38475646483E+02  0.47000000000E+01 0.  1.
          5    1    3    3  503    0 -0.48523991861E+02  0.12614103779E+02 -0.20492552807E+02  0.54366608510E+02  0.47000000000E+01 0.  1.
         -5    1    3    3    0  503  0.42462516085E+02  0.84421355154E+01  0.68788543339E+02  0.81414302300E+02  0.47000000000E+01 0.  1.
<mgrwt>
<rscale>  0 0.11725250E+03</rscale>
<asrwt>0</asrwt>
<pdfrwt beam="1">  1        1 0.28734294E-01 0.12690135E+03</pdfrwt>
<pdfrwt beam="2">  1       -1 0.10202555E-01 0.12690135E+03</pdfrwt>
<totfact> 0.88831729E+03</totfact>
</mgrwt>
</event>
<event>
 8    1  0.3520338E-004  0.1252070E+03  0.7546771E-02  0.1247595E+00
         -2   -1    0    0    0  501 -0.00000000000E+00  0.00000000000E+00  0.38836012777E+03  0.38836012777E+03  0.00000000000E+00 0.  1.
          2   -1    0    0  501    0  0.00000000000E+00 -0.00000000000E+00 -0.42728360811E+02  0.42728360811E+02  0.00000000000E+00 0. -1.
         25    2    1    2    0    0 -0.61986469408E+01 -0.34787040482E+01  0.29850247384E+03  0.32369819870E+03  0.12500508928E+03 0.  0.
         23    2    1    2    0    0  0.61986469408E+01  0.34787040482E+01  0.47129293116E+02  0.10739028988E+03  0.96233983008E+02 0.  0.
          5    1    4    4  502    0 -0.31461893288E+02  0.27343391576E+02 -0.53998605879E+00  0.41951083146E+02  0.47000000000E+01 0. -1.
         -5    1    3    3    0  503 -0.50936322929E+02 -0.34294019831E+02  0.96588335559E+02  0.11455123463E+03  0.47000000000E+01 0.  1.
          5    1    3    3  503    0  0.44737675988E+02  0.30815315783E+02  0.20191413828E+03  0.20914696406E+03  0.47000000000E+01 0.  1.
         -5    1    4    4    0  502  0.37660540229E+02 -0.23864687528E+02  0.47669279175E+02  0.65439206736E+02  0.47000000000E+01 0.  1.
<mgrwt>
<rscale>  0 0.11731377E+03</rscale>
<asrwt>0</asrwt>
<pdfrwt beam="1">  1        2 0.65735942E-02 0.12520702E+03</pdfrwt>
<pdfrwt beam="2">  1       -2 0.59747710E-01 0.12520702E+03</pdfrwt>
<totfact> 0.27877640E+03</totfact>
</mgrwt>
</event>
<event>
 8    1  0.3520338E-004  0.1318425E+03  0.7546771E-02  0.1237815E+00
          1   -1    0    0  501    0  0.00000000000E+00  0.00000000000E+00  0.72005023968E+03  0.72005023968E+03  0.00000000000E+00 0. -1.
         -1   -1    0    0    0  501 -0.00000000000E+00 -0.00000000000E+00 -0.22411072530E+02  0.22411072530E+02  0.00000000000E+00 0.  1.
         25    2    1    2    0    0  0.25068734915E+02  0.33636091444E+02  0.53627388289E+03  0.55224281836E+03  0.12499049902E+03 0.  0.
         23    2    1    2    0    0 -0.25068734915E+02 -0.33636091444E+02  0.16136528426E+03  0.19021849384E+03  0.91566873479E+02 0.  0.
          5    1    3    3  502    0 -0.21651867593E+02 -0.33313510018E+02  0.29000969980E+03  0.29275639924E+03  0.47000000000E+01 0. -1.
         -5    1    4    4    0  503 -0.29562490055E+02  0.61270696457E+01  0.79097088268E+01  0.31561611088E+02  0.47000000000E+01 0.  1.
          5    1    4    4  503    0  0.44937551402E+01 -0.39763161090E+02  0.15345557543E+03  0.15865688276E+03  0.47000000000E+01 0. -1.
         -5    1    3    3    0  502  0.46720602508E+02  0.66949601462E+02  0.24626418309E+03  0.25948641912E+03  0.47000000000E+01 0. -1.
<mgrwt>
<rscale>  0 0.12325925E+03</rscale>
<asrwt>0</asrwt>
<pdfrwt beam="1">  1        1 0.11077694E+00 0.13184253E+03</pdfrwt>
<pdfrwt beam="2">  1       -1 0.34478578E-02 0.13184253E+03</pdfrwt>
<totfact> 0.79684331E+03</totfact>
</mgrwt>
</event>
<event>
 8    1  0.3520338E-004  0.1437583E+03  0.7546771E-02  0.1218583E+00
         -2   -1    0    0    0  501 -0.00000000000E+00  0.00000000000E+00  0.36125073446E+02  0.36125073446E+02  0.00000000000E+00 0.  1.
          2   -1    0    0  501    0  0.00000000000E+00 -0.00000000000E+00 -0.46633379821E+03  0.46633379821E+03  0.00000000000E+00 0. -1.
         25    2    1    2    0    0  0.51403448328E+02 -0.48970097040E+02 -0.24584019443E+03  0.28478737630E+03  0.12500425433E+03 0.  0.
         23    2    1    2    0    0 -0.51403448328E+02  0.48970097040E+02 -0.18436853033E+03  0.21767149535E+03  0.91371439772E+02 0.  0.
          5    1    3    3  502    0  0.17020591871E+01 -0.33528221216E+02 -0.45730888333E+00  0.33901884236E+02  0.47000000000E+01 0. -1.
         -5    1    4    4    0  503  0.21492284151E+02 -0.27047628113E+01 -0.63712313852E+02  0.67458008837E+02  0.47000000000E+01 0. -1.
          5    1    4    4  503    0 -0.72895732480E+02  0.51674859852E+02 -0.12065621648E+03  0.15021348651E+03  0.47000000000E+01 0.  1.
         -5    1    3    3    0  502  0.49701389141E+02 -0.15441875825E+02 -0.24538288554E+03  0.25088549207E+03  0.47000000000E+01 0. -1.
<mgrwt>
<rscale>  0 0.13616601E+03</rscale>
<asrwt>0</asrwt>
<pdfrwt beam="1">  1        2 0.71743660E-01 0.14375830E+03</pdfrwt>
<pdfrwt beam="2">  1       -2 0.55577037E-02 0.14375830E+03</pdfrwt>
<totfact> 0.10697223E+04</totfact>
</mgrwt>
</event>
<event>
 8    1  0.3520338E-004  0.2159770E+03  0.7546771E-02  0.1141106E+00
          2   -1    0    0  501    0  0.00000000000E+00  0.00000000000E+00  0.42714862126E+03  0.42714862126E+03  0.00000000000E+00 0. -1.
         -2   -1    0    0    0  501 -0.00000000000E+00 -0.00000000000E+00 -0.99175495393E+02  0.99175495393E+02  0.00000000000E+00 0.  1.
         25    2    1    2    0    0 -0.16913332255E+03  0.49135486658E+02  0.18487900723E+03  0.28429970558E+03  0.12500279369E+03 0.  0.
         23    2    1    2    0    0  0.16913332255E+03 -0.49135486658E+02  0.14309411864E+03  0.24202441108E+03  0.84139835531E+02 0.  0.
          5    1    4    4  502    0  0.60282708622E+02 -0.45530222604E+02  0.98551196978E+02  0.12426356890E+03  0.47000000000E+01 0. -1.
         -5    1    3    3    0  503 -0.93044038175E+02  0.88767085952E+02  0.12632368541E+03  0.18032346515E+03  0.47000000000E+01 0. -1.
          5    1    3    3  503    0 -0.76089284376E+02 -0.39631599293E+02  0.58555321821E+02  0.10397624043E+03  0.47000000000E+01 0. -1.
         -5    1    4    4    0  502  0.10885061393E+03 -0.36052640543E+01  0.44542921663E+02  0.11776084218E+03  0.47000000000E+01 0.  1.
<mgrwt>
<rscale>  0 0.21058194E+03</rscale>
<asrwt>0</asrwt>
<pdfrwt beam="1">  1        2 0.65715171E-01 0.21597702E+03</pdfrwt>
<pdfrwt beam="2">  1       -2 0.15257769E-01 0.21597702E+03</pdfrwt>
<totfact> 0.24481348E+03</totfact>
</mgrwt>
</event>
<event>
 8    1  0.3520338E-004  0.1788969E+03  0.7546771E-02  0.1174435E+00
         -1   -1    0    0    0  501 -0.00000000000E+00  0.00000000000E+00  0.78420704898E+02  0.78420704898E+02  0.00000000000E+00 0.  1.
          1   -1    0    0  501    0  0.00000000000E+00 -0.00000000000E+00 -0.38249746407E+03  0.38249746407E+03  0.00000000000E+00 0. -1.
         25    2    1    2    0    0  0.32303185659E+02 -0.12384090643E+03 -0.10652368501E+03  0.20821001166E+03  0.12499619025E+03 0.  0.
         23    2    1    2    0    0 -0.32303185659E+02  0.12384090643E+03 -0.19755307417E+03  0.25270815731E+03  0.91946341700E+02 0.  0.
          5    1    3    3  502    0 -0.26581900769E+02 -0.25620366771E+02 -0.83340658283E+02  0.91272974999E+02  0.47000000000E+01 0.  1.
         -5    1    4    4    0  503  0.28429064308E+02  0.69970025284E+02 -0.84242694910E+02  0.11323841125E+03  0.47000000000E+01 0.  1.
          5    1    4    4  503    0 -0.60732249967E+02  0.53870881143E+02 -0.11331037926E+03  0.13946974607E+03  0.47000000000E+01 0. -1.
         -5    1    3    3    0  502  0.58885086428E+02 -0.98220539656E+02 -0.23183026722E+02  0.11693703666E+03  0.47000000000E+01 0.  1.
<mgrwt>
<rscale>  0 0.17331392E+03</rscale>
<asrwt>0</asrwt>
<pdfrwt beam="1">  1        1 0.58845763E-01 0.17889694E+03</pdfrwt>
<pdfrwt beam="2">  1       -1 0.12064724E-01 0.17889694E+03</pdfrwt>
<totfact> 0.28658045E+03</totfact>
</mgrwt>
</event>
<event>
 8    1  0.3520338E-004  0.1352802E+03  0.7546771E-02  0.1231983E+00
         -2   -1    0    0    0  501 -0.00000000000E+00  0.00000000000E+00  0.22188271465E+02  0.22188271465E+02  0.00000000000E+00 0.  1.
          2   -1    0    0  501    0  0.00000000000E+00 -0.00000000000E+00 -0.66101873643E+03  0.66101873643E+03  0.00000000000E+00 0. -1.
         25    2    1    2    0    0 -0.26724501702E+02 -0.44295278038E+02 -0.31692982415E+03  0.34459431782E+03  0.12499783914E+03 0.  0.
         23    2    1    2    0    0  0.26724501702E+02  0.44295278038E+02 -0.32190064082E+03  0.33861269008E+03  0.91445397237E+02 0.  0.
          5    1    4    4  502    0 -0.20979005334E+02  0.23599100059E+02 -0.23555717557E+03  0.23771055750E+03  0.47000000000E+01 0. -1.
         -5    1    4    4    0  502  0.47703507036E+02  0.20696177979E+02 -0.86343465255E+02  0.10090213258E+03  0.47000000000E+01 0.  1.
          5    1    3    3  503    0 -0.67126906472E+02  0.81602118598E+01 -0.13799357380E+03  0.15374305526E+03  0.47000000000E+01 0. -1.
         -5    1    3    3    0  503  0.40402404770E+02 -0.52455489898E+02 -0.17893625034E+03  0.19085126255E+03  0.47000000000E+01 0. -1.
<mgrwt>
<rscale>  0 0.12699586E+03</rscale>
<asrwt>0</asrwt>
<pdfrwt beam="1">  1        2 0.10169518E+00 0.13528019E+03</pdfrwt>
<pdfrwt beam="2">  1       -2 0.34135804E-02 0.13528019E+03</pdfrwt>
<totfact> 0.14905869E+04</totfact>
</mgrwt>
</event>
<event>
 8    1  0.3520338E-004  0.1326644E+03  0.7546771E-02  0.1238645E+00
          2   -1    0    0  501    0  0.00000000000E+00  0.00000000000E+00  0.92643573443E+03  0.92643573443E+03  0.00000000000E+00 0.  1.
         -2   -1    0    0    0  501 -0.00000000000E+00 -0.00000000000E+00 -0.15484063059E+02  0.15484063059E+02  0.00000000000E+00 0. -1.
         25    2    1    2    0    0  0.74122571775E+01  0.43847028667E+02  0.38914683173E+03  0.41113878680E+03  0.12498936710E+03 0.  0.
         23    2    1    2    0    0 -0.74122571775E+01 -0.43847028667E+02  0.52180483963E+03  0.53078101068E+03  0.86433136903E+02 0.  0.
          5    1    4    4  502    0  0.36141511217E+02 -0.38418751811E+02  0.27228273369E+03  0.27738454606E+03  0.47000000000E+01 0. -1.
         -5    1    3    3    0  503  0.33940936867E+02  0.70902834989E+01  0.34795045763E+03  0.34970540500E+03  0.47000000000E+01 0. -1.
          5    1    3    3  503    0 -0.26528679689E+02  0.36756745168E+02  0.41196374099E+02  0.61433381808E+02  0.47000000000E+01 0. -1.
         -5    1    4    4    0  502 -0.43553768394E+02 -0.54282768563E+01  0.24952210594E+03  0.25339646463E+03  0.47000000000E+01 0.  1.
<mgrwt>
<rscale>  0 0.12273951E+03</rscale>
<asrwt>0</asrwt>
<pdfrwt beam="1">  1        2 0.14252853E+00 0.13266441E+03</pdfrwt>
<pdfrwt beam="2">  1       -2 0.23821643E-02 0.13266441E+03</pdfrwt>
<totfact> 0.16619616E+04</totfact>
</mgrwt>
</event>
<event>
 8    1  0.3520338E-004  0.1410843E+03  0.7546771E-02  0.1222284E+00
         -1   -1    0    0    0  501 -0.00000000000E+00  0.00000000000E+00  0.47228729951E+02  0.47228729951E+02  0.00000000000E+00 0.  1.
          1   -1    0    0  501    0  0.00000000000E+00 -0.00000000000E+00 -0.35427870037E+03  0.35427870037E+03  0.00000000000E+00 0. -1.
         25    2    1    2    0    0 -0.15162374981E+02 -0.63637037981E+02 -0.20620400902E+03  0.24984971185E+03  0.12500085984E+03 0.  0.
         23    2    1    2    0    0  0.15162374981E+02  0.63637037981E+02 -0.10084596140E+03  0.15165771847E+03  0.92469375589E+02 0.  0.
          5    1    4    4  502    0  0.20880372769E+02  0.19351290606E+02 -0.10274288716E+03  0.10671763339E+03  0.47000000000E+01 0. -1.
         -5    1    3    3    0  503 -0.58719387564E+02 -0.35254562329E+02 -0.49378091842E+02  0.84564393186E+02  0.47000000000E+01 0. -1.
          5    1    3    3  503    0  0.43557012583E+02 -0.28382475652E+02 -0.15682591718E+03  0.16528531867E+03  0.47000000000E+01 0. -1.
         -5    1    4    4    0  502 -0.57179977878E+01  0.44285747375E+02  0.18969257566E+01  0.44940085076E+02  0.47000000000E+01 0.  1.
<mgrwt>
<rscale>  0 0.13354820E+03</rscale>
<asrwt>0</asrwt>
<pdfrwt beam="1">  1        1 0.54504416E-01 0.14108432E+03</pdfrwt>
<pdfrwt beam="2">  1       -1 0.72659584E-02 0.14108432E+03</pdfrwt>
<totfact> 0.67675235E+03</totfact>
</mgrwt>
</event>
<event>
 8    1  0.3520338E-004  0.1789200E+03  0.7546771E-02  0.1174433E+00
          2   -1    0    0  501    0  0.00000000000E+00  0.00000000000E+00  0.10053751194E+04  0.10053751194E+04  0.00000000000E+00 0. -1.
         -2   -1    0    0    0  501 -0.00000000000E+00 -0.00000000000E+00 -0.32261264483E+02  0.32261264483E+02  0.00000000000E+00 0.  1.
         25    2    1    2    0    0  0.11602089906E+03 -0.54100991411E+02  0.32864694326E+03  0.37419404934E+03  0.12499842780E+03 0.  0.
         23    2    1    2    0    0 -0.11602089906E+03  0.54100991411E+02  0.64446691162E+03  0.66344233451E+03  0.91817017798E+02 0.  0.
          5    1    4    4  502    0 -0.54207787610E+02  0.66256941096E+02  0.47302727434E+03  0.48073418721E+03  0.47000000000E+01 0. -1.
         -5    1    4    4    0  502 -0.61813111454E+02 -0.12155949685E+02  0.17143963728E+03  0.18270814731E+03  0.47000000000E+01 0.  1.
          5    1    3    3  503    0  0.99568039497E+02 -0.88152066213E+02  0.20160910229E+03  0.24156345210E+03  0.47000000000E+01 0. -1.
         -5    1    3    3    0  503  0.16452859566E+02  0.34051074802E+02  0.12703784098E+03  0.13263059724E+03  0.47000000000E+01 0. -1.
<mgrwt>
<rscale>  0 0.17331667E+03</rscale>
<asrwt>0</asrwt>
<pdfrwt beam="1">  1        2 0.15467307E+00 0.17892002E+03</pdfrwt>
<pdfrwt beam="2">  1       -2 0.49632722E-02 0.17892002E+03</pdfrwt>
<totfact> 0.50856553E+03</totfact>
</mgrwt>
</event>
<event>
 8    1  0.3520338E-004  0.1340136E+03  0.7546771E-02  0.1233901E+00
          1   -1    0    0  501    0  0.00000000000E+00  0.00000000000E+00  0.62342453193E+02  0.62342453193E+02  0.00000000000E+00 0. -1.
         -1   -1    0    0    0  501 -0.00000000000E+00 -0.00000000000E+00 -0.22731432141E+03  0.22731432141E+03  0.00000000000E+00 0.  1.
         25    2    1    2    0    0 -0.40064235071E+02 -0.27013130863E+02 -0.87351130296E+02  0.15996832210E+03  0.12499916777E+03 0.  0.
         23    2    1    2    0    0  0.40064235071E+02  0.27013130863E+02 -0.77620737918E+02  0.12968845249E+03  0.91974255011E+02 0.  0.
          5    1    4    4  502    0  0.35516577086E+02 -0.93180077821E+01  0.67196936207E+01  0.37623088647E+02  0.47000000000E+01 0. -1.
         -5    1    3    3    0  503 -0.48332273914E+02  0.40913776958E+02 -0.28538985163E+02  0.69616876695E+02  0.47000000000E+01 0.  1.
          5    1    3    3  503    0  0.82680388433E+01 -0.67926907821E+02 -0.58812145133E+02  0.90351445409E+02  0.47000000000E+01 0.  1.
         -5    1    4    4    0  502  0.45476579841E+01  0.36331138645E+02 -0.84340431538E+02  0.92065363848E+02  0.47000000000E+01 0.  1.
<mgrwt>
<rscale>  0 0.12575059E+03</rscale>
<asrwt>0</asrwt>
<pdfrwt beam="1">  1        1 0.95911468E-02 0.13401360E+03</pdfrwt>
<pdfrwt beam="2">  1       -1 0.34971433E-01 0.13401360E+03</pdfrwt>
<totfact> 0.50666068E+03</totfact>
</mgrwt>
</event>
<event>
 8    1  0.3520338E-004  0.1259990E+03  0.7546771E-02  0.1248815E+00
         -2   -1    0    0    0  501 -0.00000000000E+00  0.00000000000E+00  0.30571154021E+02  0.30571154021E+02  0.00000000000E+00 0. -1.
          2   -1    0    0  501    0  0.00000000000E+00 -0.00000000000E+00 -0.87883793149E+03  0.87883793149E+03  0.00000000000E+00 0.  1.
         25    2    1    2    0    0  0.15082521537E+02 -0.47619516831E+01 -0.11577732788E+03  0.17111438228E+03  0.12500233411E+03 0.  0.
         23    2    1    2    0    0 -0.15082521537E+02  0.47619516831E+01 -0.73248944959E+03  0.73829470323E+03  0.91039092798E+02 0.  0.
          5    1    4    4  502    0 -0.63834721975E+01 -0.42290643792E+02 -0.28499496034E+03  0.28822467744E+03  0.47000000000E+01 0. -1.
         -5    1    3    3    0  503  0.53262293166E+02 -0.43467281166E+02 -0.47427465782E+02  0.83652441182E+02  0.47000000000E+01 0.  1.
          5    1    3    3  503    0 -0.38179771629E+02  0.38705329483E+02 -0.68349862097E+02  0.87461941099E+02  0.47000000000E+01 0.  1.
         -5    1    4    4    0  502 -0.86990493396E+01  0.47052595475E+02 -0.44749448925E+03  0.45007002578E+03  0.47000000000E+01 0.  1.
<mgrwt>
<rscale>  0 0.11659946E+03</rscale>
<asrwt>0</asrwt>
<pdfrwt beam="1">  1        2 0.13520584E+00 0.12599898E+03</pdfrwt>
<pdfrwt beam="2">  1       -2 0.47032543E-02 0.12599898E+03</pdfrwt>
<totfact> 0.65098419E+03</totfact>
</mgrwt>
</event>
<event>
 8    1  0.3520338E-004  0.1366366E+03  0.7546771E-02  0.1229265E+00
          2   -1    0    0  501    0  0.00000000000E+00  0.00000000000E+00  0.40809977597E+03  0.40809977597E+03  0.00000000000E+00 0. -1.
         -2   -1    0    0    0  501 -0.00000000000E+00 -0.00000000000E+00 -0.43638403818E+02  0.43638403818E+02  0.00000000000E+00 0.  1.
         25    2    1    2    0    0 -0.30822306718E+02 -0.45769981819E+02  0.11015764830E+03  0.17551143599E+03  0.12499860342E+03 0.  0.
         23    2    1    2    0    0  0.30822306718E+02  0.45769981819E+02  0.25430372385E+03  0.27622674380E+03  0.92660262237E+02 0.  0.
          5    1    3    3  502    0  0.38378580632E+02  0.10946322181E+02  0.61749015669E+02  0.73673389746E+02  0.47000000000E+01 0. -1.
         -5    1    4    4    0  503  0.28384276790E+02 -0.21497815705E+02  0.53912114333E+02  0.64779852738E+02  0.47000000000E+01 0.  1.
          5    1    4    4  503    0  0.24380299286E+01  0.67267797524E+02  0.20039160952E+03  0.21144689106E+03  0.47000000000E+01 0. -1.
         -5    1    3    3    0  502 -0.69200887351E+02 -0.56716304001E+02  0.48408632634E+02  0.10183804625E+03  0.47000000000E+01 0. -1.
<mgrwt>
<rscale>  0 0.12878835E+03</rscale>
<asrwt>0</asrwt>
<pdfrwt beam="1">  1        2 0.62784578E-01 0.13663659E+03</pdfrwt>
<pdfrwt beam="2">  1       -2 0.67136009E-02 0.13663659E+03</pdfrwt>
<totfact> 0.92388293E+03</totfact>
</mgrwt>
</event>
<event>
 8    1  0.3520338E-004  0.2407911E+03  0.7546771E-02  0.1122193E+00
         -2   -1    0    0    0  501 -0.00000000000E+00  0.00000000000E+00  0.75031964724E+02  0.75031964724E+02  0.00000000000E+00 0.  1.
          2   -1    0    0  501    0  0.00000000000E+00 -0.00000000000E+00 -0.72864958796E+03  0.72864958796E+03  0.00000000000E+00 0. -1.
         25    2    1    2    0    0  0.71301299895E+02 -0.19305694912E+03 -0.38420548443E+03  0.45342497948E+03  0.12500198711E+03 0.  0.
         23    2    1    2    0    0 -0.71301299895E+02  0.19305694912E+03 -0.26941213881E+03  0.35025657321E+03  0.87988099000E+02 0.  0.
          5    1    4    4  502    0 -0.52379302653E+02  0.39874764317E+02 -0.11026739072E+03  0.12850904883E+03  0.47000000000E+01 0. -1.
         -5    1    4    4    0  502 -0.18921997241E+02  0.15318218480E+03 -0.15914474809E+03  0.22174752437E+03  0.47000000000E+01 0.  1.
          5    1    3    3  503    0 -0.25752683501E+02 -0.42861789666E+02 -0.35472164165E+02  0.61487382050E+02  0.47000000000E+01 0. -1.
         -5    1    3    3    0  503  0.97053983396E+02 -0.15019515946E+03 -0.34873332027E+03  0.39193759743E+03  0.47000000000E+01 0. -1.
<mgrwt>
<rscale>  0 0.23643216E+03</rscale>
<asrwt>0</asrwt>
<pdfrwt beam="1">  1        2 0.11209994E+00 0.24079111E+03</pdfrwt>
<pdfrwt beam="2">  1       -2 0.11543379E-01 0.24079111E+03</pdfrwt>
<totfact> 0.20954913E+03</totfact>
</mgrwt>
</event>
<event>
 8    1  0.3520338E-004  0.1265761E+03  0.7546771E-02  0.1246890E+00
         -1   -1    0    0    0  501 -0.00000000000E+00  0.00000000000E+00  0.94639754099E+02  0.94639754099E+02  0.00000000000E+00 0.  1.
          1   -1    0    0  501    0  0.00000000000E+00 -0.00000000000E+00 -0.16095744064E+03  0.16095744064E+03  0.00000000000E+00 0. -1.
         25    2    1    2    0    0  0.18469385661E+02 -0.70618597294E+01  0.19141979971E+02  0.12801537416E+03  0.12502212826E+03 0.  0.
         23    2    1    2    0    0 -0.18469385661E+02  0.70618597294E+01 -0.85459666518E+02  0.12758182058E+03  0.92643285089E+02 0.  0.
          5    1    4    4  502    0 -0.45005044322E+02  0.28892950197E+02 -0.73240678760E+02  0.90810481833E+02  0.47000000000E+01 0. -1.
         -5    1    3    3    0  503  0.26475502292E+02  0.54949005445E+02  0.22604003646E+02  0.65217914730E+02  0.47000000000E+01 0.  1.
          5    1    3    3  503    0 -0.80061166304E+01 -0.62010865174E+02 -0.34620236743E+01  0.62797459432E+02  0.47000000000E+01 0.  1.
         -5    1    4    4    0  502  0.26535658661E+02 -0.21831090468E+02 -0.12218987758E+02  0.36771338749E+02  0.47000000000E+01 0.  1.
<mgrwt>
<rscale>  0 0.11772962E+03</rscale>
<asrwt>0</asrwt>
<pdfrwt beam="1">  1        1 0.24762683E-01 0.12657615E+03</pdfrwt>
<pdfrwt beam="2">  1       -1 0.14559962E-01 0.12657615E+03</pdfrwt>
<totfact> 0.61793192E+03</totfact>
</mgrwt>
</event>
<event>
 8    1  0.3520338E-004  0.1815645E+03  0.7546771E-02  0.1171707E+00
          2   -1    0    0  501    0  0.00000000000E+00  0.00000000000E+00  0.19050691543E+04  0.19050691543E+04  0.00000000000E+00 0. -1.
         -2   -1    0    0    0  501 -0.00000000000E+00 -0.00000000000E+00 -0.15545300665E+02  0.15545300665E+02  0.00000000000E+00 0.  1.
         25    2    1    2    0    0 -0.14574695742E+02 -0.13087391652E+03  0.11111111307E+04  0.11258479583E+04  0.12500110662E+03 0.  0.
         23    2    1    2    0    0  0.14574695742E+02  0.13087391652E+03  0.77841272290E+03  0.79476649663E+03  0.91580637771E+02 0.  0.
          5    1    3    3  502    0  0.13835566724E+02 -0.13385825178E+03  0.10454734532E+04  0.10541092381E+04  0.47000000000E+01 0. -1.
         -5    1    4    4    0  503 -0.12087697170E+02  0.13232090383E+03  0.66466605327E+03  0.67783330280E+03  0.47000000000E+01 0.  1.
          5    1    4    4  503    0  0.26662392912E+02 -0.14469873105E+01  0.11374666963E+03  0.11693319383E+03  0.47000000000E+01 0. -1.
         -5    1    3    3    0  502 -0.28410262466E+02  0.29843352573E+01  0.65637677550E+02  0.71738720259E+02  0.47000000000E+01 0. -1.
<mgrwt>
<rscale>  0 0.17602437E+03</rscale>
<asrwt>0</asrwt>
<pdfrwt beam="1">  1        2 0.29308738E+00 0.18156454E+03</pdfrwt>
<pdfrwt beam="2">  1       -2 0.23915862E-02 0.18156454E+03</pdfrwt>
<totfact> 0.49276476E+03</totfact>
</mgrwt>
</event>
<event>
 8    1  0.3520338E-004  0.1363976E+03  0.7546771E-02  0.1230160E+00
          2   -1    0    0  501    0  0.00000000000E+00  0.00000000000E+00  0.49480785748E+03  0.49480785748E+03  0.00000000000E+00 0. -1.
         -2   -1    0    0    0  501 -0.00000000000E+00 -0.00000000000E+00 -0.29845709617E+02  0.29845709617E+02  0.00000000000E+00 0.  1.
         25    2    1    2    0    0  0.46725865447E+02 -0.28175290794E+02  0.27224007030E+03  0.30449786795E+03  0.12500856848E+03 0.  0.
         23    2    1    2    0    0 -0.46725865447E+02  0.28175290794E+02  0.19272207756E+03  0.22015569915E+03  0.91376031735E+02 0.  0.
          5    1    3    3  502    0  0.21644037273E+02  0.14088893898E+02  0.24820216704E+03  0.24958639187E+03  0.47000000000E+01 0. -1.
         -5    1    4    4    0  503 -0.51240642683E+01  0.24523646769E+02  0.28046876426E+01  0.25644133018E+02  0.47000000000E+01 0.  1.
          5    1    4    4  503    0 -0.41601801178E+02  0.36516440250E+01  0.18991738992E+03  0.19451156613E+03  0.47000000000E+01 0. -1.
         -5    1    3    3    0  502  0.25081828174E+02 -0.42264184692E+02  0.24037903260E+02  0.54911476081E+02  0.47000000000E+01 0. -1.
<mgrwt>
<rscale>  0 0.12819410E+03</rscale>
<asrwt>0</asrwt>
<pdfrwt beam="1">  1        2 0.76124280E-01 0.13639756E+03</pdfrwt>
<pdfrwt beam="2">  1       -2 0.45916480E-02 0.13639756E+03</pdfrwt>
<totfact> 0.13309943E+04</totfact>
</mgrwt>
</event>
<event>
 8    1  0.3520338E-004  0.2448874E+03  0.7546771E-02  0.1119179E+00
          2   -1    0    0  501    0  0.00000000000E+00  0.00000000000E+00  0.97325737633E+02  0.97325737633E+02  0.00000000000E+00 0.  1.
         -2   -1    0    0    0  501 -0.00000000000E+00 -0.00000000000E+00 -0.58251336499E+03  0.58251336499E+03  0.00000000000E+00 0. -1.
         25    2    1    2    0    0  0.19547953728E+03  0.78313141429E+02 -0.28080684447E+03  0.37258867767E+03  0.12499856485E+03 0.  0.
         23    2    1    2    0    0 -0.19547953728E+03 -0.78313141429E+02 -0.20438078289E+03  0.30725042495E+03  0.91028136311E+02 0.  0.
          5    1    4    4  502    0 -0.63939614769E+02 -0.70974017500E+02 -0.66504889138E+02  0.11649281427E+03  0.47000000000E+01 0. -1.
         -5    1    4    4    0  502 -0.13153992251E+03 -0.73391239292E+01 -0.13787589375E+03  0.19075761068E+03  0.47000000000E+01 0.  1.
          5    1    3    3  503    0 -0.12511471662E+02  0.22824710216E+02 -0.52370019778E+02  0.58670378311E+02  0.47000000000E+01 0. -1.
         -5    1    3    3    0  503  0.20799100895E+03  0.55488431213E+02 -0.22843682469E+03  0.31391829936E+03  0.47000000000E+01 0. -1.
<mgrwt>
<rscale>  0 0.24092417E+03</rscale>
<asrwt>0</asrwt>
<pdfrwt beam="1">  1        2 0.14973190E-01 0.24488740E+03</pdfrwt>
<pdfrwt beam="2">  1       -2 0.89617442E-01 0.24488740E+03</pdfrwt>
<totfact> 0.43139443E+02</totfact>
</mgrwt>
</event>
<event>
 8    1  0.3520338E-004  0.1343172E+03  0.7546771E-02  0.1233014E+00
          1   -1    0    0  501    0  0.00000000000E+00  0.00000000000E+00  0.11807728752E+03  0.11807728752E+03  0.00000000000E+00 0. -1.
         -1   -1    0    0    0  501 -0.00000000000E+00 -0.00000000000E+00 -0.12486967297E+03  0.12486967297E+03  0.00000000000E+00 0.  1.
         25    2    1    2    0    0  0.46520006977E+02  0.15862968301E+02  0.16443855300E+02  0.13531999224E+03  0.12500142043E+03 0.  0.
         23    2    1    2    0    0 -0.46520006977E+02 -0.15862968301E+02 -0.23236240750E+02  0.10762696826E+03  0.92886471565E+02 0.  0.
          5    1    4    4  502    0  0.24372443301E+02 -0.10810144043E+02  0.10213937225E+02  0.28935958950E+02  0.47000000000E+01 0. -1.
         -5    1    3    3    0  503  0.54035074368E+02  0.44618205774E+02 -0.32875133532E+02  0.77546360026E+02  0.47000000000E+01 0.  1.
          5    1    3    3  503    0 -0.75150673914E+01 -0.28755237473E+02  0.49318988832E+02  0.57773632216E+02  0.47000000000E+01 0.  1.
         -5    1    4    4    0  502 -0.70892450278E+02 -0.50528242578E+01 -0.33450177975E+02  0.78691009308E+02  0.47000000000E+01 0.  1.
<mgrwt>
<rscale>  0 0.12632452E+03</rscale>
<asrwt>0</asrwt>
<pdfrwt beam="1">  1        1 0.18165737E-01 0.13431716E+03</pdfrwt>
<pdfrwt beam="2">  1       -1 0.19210719E-01 0.13431716E+03</pdfrwt>
<totfact> 0.59273168E+03</totfact>
</mgrwt>
</event>
<event>
 8    1  0.3520338E-004  0.2012997E+03  0.7546771E-02  0.1152962E+00
          1   -1    0    0  501    0  0.00000000000E+00  0.00000000000E+00  0.28782567415E+03  0.28782567415E+03  0.00000000000E+00 0. -1.
         -1   -1    0    0    0  501 -0.00000000000E+00 -0.00000000000E+00 -0.14045398326E+03  0.14045398326E+03  0.00000000000E+00 0.  1.
         25    2    1    2    0    0 -0.12598815610E+03  0.94992878097E+02  0.14217299899E+03  0.24644415712E+03  0.12499959427E+03 0.  0.
         23    2    1    2    0    0  0.12598815610E+03 -0.94992878097E+02  0.51986918948E+01  0.18183550028E+03  0.90224499990E+02 0.  0.
          5    1    3    3  502    0 -0.18251726445E+02 -0.22141692093E+02  0.61342931619E+02  0.67885383600E+02  0.47000000000E+01 0. -1.
         -5    1    4    4    0  503  0.50267200372E+02 -0.35076802114E+02  0.46125640496E+02  0.76855957419E+02  0.47000000000E+01 0. -1.
          5    1    4    4  503    0  0.75720955731E+02 -0.59916075983E+02 -0.40926948601E+02  0.10497954286E+03  0.47000000000E+01 0.  1.
         -5    1    3    3    0  502 -0.10773642966E+03  0.11713457019E+03  0.80830067375E+02  0.17855877352E+03  0.47000000000E+01 0. -1.
<mgrwt>
<rscale>  0 0.19622647E+03</rscale>
<asrwt>0</asrwt>
<pdfrwt beam="1">  1        1 0.44280873E-01 0.20129968E+03</pdfrwt>
<pdfrwt beam="2">  1       -1 0.21608305E-01 0.20129968E+03</pdfrwt>
<totfact> 0.16272550E+03</totfact>
</mgrwt>
</event>
<event>
 8    1  0.3520338E-004  0.1576305E+03  0.7546771E-02  0.1199449E+00
         -1   -1    0    0    0  501 -0.00000000000E+00  0.00000000000E+00  0.53383577454E+02  0.53383577454E+02  0.00000000000E+00 0.  1.
          1   -1    0    0  501    0  0.00000000000E+00 -0.00000000000E+00 -0.39328748927E+03  0.39328748927E+03  0.00000000000E+00 0. -1.
         25    2    1    2    0    0 -0.93567134782E+02 -0.21613972804E+02 -0.18588643360E+03  0.24372350508E+03  0.12500163280E+03 0.  0.
         23    2    1    2    0    0  0.93567134782E+02  0.21613972804E+02 -0.15401747822E+03  0.20294756164E+03  0.90798439667E+02 0.  0.
          5    1    4    4  502    0  0.42007591305E+02  0.39044043699E+02 -0.13209527236E+03  0.14408444072E+03  0.47000000000E+01 0. -1.
         -5    1    4    4    0  502  0.51559543477E+02 -0.17430070895E+02 -0.21922205853E+02  0.58863120920E+02  0.47000000000E+01 0.  1.
          5    1    3    3  503    0  0.27648209518E+01 -0.54716021495E+02 -0.54610970305E+02  0.77497969786E+02  0.47000000000E+01 0.  1.
         -5    1    3    3    0  503 -0.96331955734E+02  0.33102048691E+02 -0.13127546329E+03  0.16622553530E+03  0.47000000000E+01 0.  1.
<mgrwt>
<rscale>  0 0.15083615E+03</rscale>
<asrwt>0</asrwt>
<pdfrwt beam="1">  1        1 0.60505769E-01 0.15763052E+03</pdfrwt>
<pdfrwt beam="2">  1       -1 0.82128578E-02 0.15763052E+03</pdfrwt>
<totfact> 0.49642869E+03</totfact>
</mgrwt>
</event>
<event>
 8    1  0.3520338E-004  0.1519478E+03  0.7546771E-02  0.1206985E+00
         -1   -1    0    0    0  501 -0.00000000000E+00  0.00000000000E+00  0.46361026224E+02  0.46361026224E+02  0.00000000000E+00 0.  1.
          1   -1    0    0  501    0  0.00000000000E+00 -0.00000000000E+00 -0.41480789706E+03  0.41480789706E+03  0.00000000000E+00 0. -1.
         25    2    1    2    0    0  0.47613949273E+02  0.72085595625E+02 -0.20458126838E+03  0.25483648371E+03  0.12499886717E+03 0.  0.
         23    2    1    2    0    0 -0.47613949273E+02 -0.72085595625E+02 -0.16386560245E+03  0.20633243957E+03  0.90871990685E+02 0.  0.
          5    1    3    3  502    0  0.66547102692E+02 -0.87802954470E+01 -0.74084636442E+02  0.10008113619E+03  0.47000000000E+01 0.  1.
         -5    1    4    4    0  503 -0.49555414098E+02 -0.43375434588E+02 -0.36033873326E+02  0.75217666934E+02  0.47000000000E+01 0.  1.
          5    1    4    4  503    0  0.19414648257E+01 -0.28710161036E+02 -0.12783172913E+03  0.13111477264E+03  0.47000000000E+01 0. -1.
         -5    1    3    3    0  502 -0.18933153420E+02  0.80865891072E+02 -0.13049663194E+03  0.15475534751E+03  0.47000000000E+01 0.  1.
<mgrwt>
<rscale>  0 0.14482093E+03</rscale>
<asrwt>0</asrwt>
<pdfrwt beam="1">  1        1 0.63816601E-01 0.15194781E+03</pdfrwt>
<pdfrwt beam="2">  1       -1 0.71324654E-02 0.15194781E+03</pdfrwt>
<totfact> 0.57303326E+03</totfact>
</mgrwt>
</event>
<event>
 8    1  0.3520338E-004  0.1917083E+03  0.7546771E-02  0.1162297E+00
          1   -1    0    0  501    0  0.00000000000E+00  0.00000000000E+00  0.23507466690E+03  0.23507466690E+03  0.00000000000E+00 0. -1.
         -1   -1    0    0    0  501 -0.00000000000E+00 -0.00000000000E+00 -0.13855376858E+03  0.13855376858E+03  0.00000000000E+00 0.  1.
         25    2    1    2    0    0  0.12896835611E+03  0.67039215837E+02  0.54745535727E+02  0.19937189867E+03  0.12499994783E+03 0.  0.
         23    2    1    2    0    0 -0.12896835611E+03 -0.67039215837E+02  0.41775362593E+02  0.17425653682E+03  0.86562499764E+02 0.  0.
          5    1    4    4  502    0 -0.54664300388E+02 -0.55520766873E+02  0.57931495098E+02  0.97205398077E+02  0.47000000000E+01 0. -1.
         -5    1    3    3    0  503  0.97207567676E+02  0.10098306579E+03  0.21166746877E+02  0.14183445267E+03  0.47000000000E+01 0.  1.
          5    1    3    3  503    0  0.31760788438E+02 -0.33943849952E+02  0.33578788850E+02  0.57537446002E+02  0.47000000000E+01 0.  1.
         -5    1    4    4    0  502 -0.74304055726E+02 -0.11518448964E+02 -0.16156132505E+02  0.77051138742E+02  0.47000000000E+01 0.  1.
<mgrwt>
<rscale>  0 0.18580814E+03</rscale>
<asrwt>0</asrwt>
<pdfrwt beam="1">  1        1 0.36165333E-01 0.19170832E+03</pdfrwt>
<pdfrwt beam="2">  1       -1 0.21315964E-01 0.19170832E+03</pdfrwt>
<totfact> 0.21402794E+03</totfact>
</mgrwt>
</event>
<event>
 8    1  0.3520338E-004  0.1265883E+03  0.7546771E-02  0.1252047E+00
         -3   -1    0    0    0  501 -0.00000000000E+00  0.00000000000E+00  0.11171109047E+03  0.11171109047E+03  0.00000000000E+00 0.  1.
          3   -1    0    0  501    0  0.00000000000E+00 -0.00000000000E+00 -0.12432962070E+03  0.12432962070E+03  0.00000000000E+00 0. -1.
         25    2    1    2    0    0  0.17808177401E+02  0.91085993375E+01  0.43474778223E+02  0.13384567328E+03  0.12499804059E+03 0.  0.
         23    2    1    2    0    0 -0.17808177401E+02 -0.91085993375E+01 -0.56093308452E+02  0.10219503789E+03  0.83049796815E+02 0.  0.
          5    1    4    4  502    0 -0.35886647901E+02  0.12028467652E+02 -0.62546970325E+02  0.73258098723E+02  0.47000000000E+01 0. -1.
         -5    1    3    3    0  503 -0.16885622750E+02 -0.51572830841E+02  0.31041042325E+02  0.62693838974E+02  0.47000000000E+01 0.  1.
          5    1    3    3  503    0  0.34693800151E+02  0.60681430178E+02  0.12433735897E+02  0.71151834311E+02  0.47000000000E+01 0.  1.
         -5    1    4    4    0  502  0.18078470500E+02 -0.21137066989E+02  0.64536618736E+01  0.28936939162E+02  0.47000000000E+01 0.  1.
<mgrwt>
<rscale>  0 0.11473371E+03</rscale>
<asrwt>0</asrwt>
<pdfrwt beam="1">  1        3 0.19127634E-01 0.12658834E+03</pdfrwt>
<pdfrwt beam="2">  1       -3 0.17186322E-01 0.12658834E+03</pdfrwt>
<totfact> 0.16152137E+03</totfact>
</mgrwt>
</event>
<event>
 8    1  0.3520338E-004  0.1459328E+03  0.7546771E-02  0.1215600E+00
         -2   -1    0    0    0  501 -0.00000000000E+00  0.00000000000E+00  0.18122979263E+02  0.18122979263E+02  0.00000000000E+00 0.  1.
          2   -1    0    0  501    0  0.00000000000E+00 -0.00000000000E+00 -0.97234857726E+03  0.97234857726E+03  0.00000000000E+00 0. -1.
         25    2    1    2    0    0  0.39794249888E+01  0.75197555465E+02 -0.47070733015E+03  0.49281007768E+03  0.12500349528E+03 0.  0.
         23    2    1    2    0    0 -0.39794249888E+01 -0.75197555465E+02 -0.48351826785E+03  0.49766147884E+03  0.90589867058E+02 0.  0.
          5    1    3    3  502    0  0.30056582496E+02 -0.98175037217E+01 -0.32276312564E+02  0.45427215228E+02  0.47000000000E+01 0.  1.
         -5    1    3    3    0  502 -0.26077157507E+02  0.85015059187E+02 -0.43843101759E+03  0.44738286245E+03  0.47000000000E+01 0.  1.
          5    1    4    4  503    0 -0.46039633265E+02 -0.29733413529E+02 -0.20061964035E+03  0.20802416640E+03  0.47000000000E+01 0. -1.
         -5    1    4    4    0  503  0.42060208276E+02 -0.45464141936E+02 -0.28289862750E+03  0.28963731245E+03  0.47000000000E+01 0.  1.
<mgrwt>
<rscale>  0 0.13832534E+03</rscale>
<asrwt>0</asrwt>
<pdfrwt beam="1">  1        2 0.14959208E+00 0.14593280E+03</pdfrwt>
<pdfrwt beam="2">  1       -2 0.27881508E-02 0.14593280E+03</pdfrwt>
<totfact> 0.12448457E+04</totfact>
</mgrwt>
</event>
<event>
 8    1  0.3520338E-004  0.2078966E+03  0.7546771E-02  0.1147054E+00
         -1   -1    0    0    0  501 -0.00000000000E+00  0.00000000000E+00  0.59737338031E+02  0.59737338031E+02  0.00000000000E+00 0.  1.
          1   -1    0    0  501    0  0.00000000000E+00 -0.00000000000E+00 -0.68074189143E+03  0.68074189143E+03  0.00000000000E+00 0. -1.
         25    2    1    2    0    0 -0.13168962338E+03 -0.10126286615E+03 -0.26269844285E+03  0.33500966124E+03  0.12499870513E+03 0.  0.
         23    2    1    2    0    0  0.13168962338E+03  0.10126286615E+03 -0.35830611055E+03  0.40546956822E+03  0.91793120267E+02 0.  0.
          5    1    4    4  502    0  0.79138698553E+02  0.59305989978E+01 -0.12780842717E+03  0.15051640996E+03  0.47000000000E+01 0. -1.
         -5    1    3    3    0  503 -0.78815014761E+02  0.27420828418E+01 -0.16431214215E+03  0.18231811657E+03  0.47000000000E+01 0.  1.
          5    1    3    3  503    0 -0.52874608615E+02 -0.10400494899E+03 -0.98386300694E+02  0.15269154467E+03  0.47000000000E+01 0.  1.
         -5    1    4    4    0  502  0.52550924823E+02  0.95332267148E+02 -0.23049768339E+03  0.25495315826E+03  0.47000000000E+01 0.  1.
<mgrwt>
<rscale>  0 0.20321558E+03</rscale>
<asrwt>0</asrwt>
<pdfrwt beam="1">  1        1 0.10472951E+00 0.20789661E+03</pdfrwt>
<pdfrwt beam="2">  1       -1 0.91903606E-02 0.20789661E+03</pdfrwt>
<totfact> 0.20298208E+03</totfact>
</mgrwt>
</event>
<event>
 8    1  0.3520338E-004  0.1298172E+03  0.7546771E-02  0.1242094E+00
         -2   -1    0    0    0  501 -0.00000000000E+00  0.00000000000E+00  0.47165992359E+03  0.47165992359E+03  0.00000000000E+00 0.  1.
          2   -1    0    0  501    0  0.00000000000E+00 -0.00000000000E+00 -0.56287123241E+02  0.56287123241E+02  0.00000000000E+00 0. -1.
         25    2    1    2    0    0  0.32732877320E+01 -0.34886260413E+02  0.33576403101E+02  0.13408910779E+03  0.12499899362E+03 0.  0.
         23    2    1    2    0    0 -0.32732877320E+01  0.34886260413E+02  0.38179639725E+03  0.39385793904E+03  0.90154432017E+02 0.  0.
          5    1    4    4  502    0 -0.32831063052E+02  0.34662053215E+02  0.33425288242E+03  0.33767797683E+03  0.47000000000E+01 0. -1.
         -5    1    4    4    0  502  0.29557775320E+02  0.22420719807E+00  0.47543514834E+02  0.56179962206E+02  0.47000000000E+01 0.  1.
          5    1    3    3  503    0 -0.13247826088E+02  0.43424718290E+02 -0.34621768697E+01  0.45774312920E+02  0.47000000000E+01 0. -1.
         -5    1    3    3    0  503  0.16521113820E+02 -0.78310978703E+02  0.37038579971E+02  0.88314794874E+02  0.47000000000E+01 0. -1.
<mgrwt>
<rscale>  0 0.12060995E+03</rscale>
<asrwt>0</asrwt>
<pdfrwt beam="1">  1        2 0.86595577E-02 0.12981723E+03</pdfrwt>
<pdfrwt beam="2">  1       -2 0.72563063E-01 0.12981723E+03</pdfrwt>
<totfact> 0.13143470E+03</totfact>
</mgrwt>
</event>
<event>
 8    1  0.3520338E-004  0.1833736E+03  0.7546771E-02  0.1168962E+00
         -4   -1    0    0    0  501 -0.00000000000E+00  0.00000000000E+00  0.69186042933E+02  0.69186042933E+02  0.00000000000E+00 0. -1.
          4   -1    0    0  501    0  0.00000000000E+00 -0.00000000000E+00 -0.44136143393E+03  0.44136143393E+03  0.00000000000E+00 0.  1.
         25    2    1    2    0    0  0.10375716245E+03  0.85054023957E+02 -0.18426602486E+03  0.25996121750E+03  0.12500452364E+03 0.  0.
         23    2    1    2    0    0 -0.10375716245E+03 -0.85054023957E+02 -0.18790936614E+03  0.25058625937E+03  0.97384843548E+02 0.  0.
          5    1    3    3  502    0  0.44377709236E+02  0.10558872090E+03 -0.86308481452E+02  0.14349077681E+03  0.47000000000E+01 0. -1.
         -5    1    4    4    0  503 -0.91660897364E+02 -0.57474498914E+02 -0.19139525760E+03  0.21990741862E+03  0.47000000000E+01 0.  1.
          5    1    4    4  503    0 -0.12096265086E+02 -0.27579525044E+02  0.34858914647E+01  0.30678840753E+02  0.47000000000E+01 0. -1.
         -5    1    3    3    0  502  0.59379453214E+02 -0.20534696943E+02 -0.97957543412E+02  0.11647044069E+03  0.47000000000E+01 0. -1.
<mgrwt>
<rscale>  0 0.17880788E+03</rscale>
<asrwt>0</asrwt>
<pdfrwt beam="1">  1        4 0.67901759E-01 0.18337357E+03</pdfrwt>
<pdfrwt beam="2">  1       -4 0.10644007E-01 0.18337357E+03</pdfrwt>
<totfact> 0.24389160E+02</totfact>
</mgrwt>
</event>
<event>
 8    1  0.3520338E-004  0.1819539E+03  0.7546771E-02  0.1171051E+00
         -1   -1    0    0    0  501 -0.00000000000E+00  0.00000000000E+00  0.62045470064E+02  0.62045470064E+02  0.00000000000E+00 0.  1.
          1   -1    0    0  501    0  0.00000000000E+00 -0.00000000000E+00 -0.61644944747E+03  0.61644944747E+03  0.00000000000E+00 0. -1.
         25    2    1    2    0    0 -0.11935334283E+03  0.56889496699E+02 -0.45144820076E+03  0.48673679693E+03  0.12500238493E+03 0.  0.
         23    2    1    2    0    0  0.11935334283E+03 -0.56889496699E+02 -0.10295577665E+03  0.19175812060E+03  0.93218290017E+02 0.  0.
          5    1    4    4  502    0  0.45284343412E+02 -0.64991470536E+02 -0.82235204131E+02  0.11427721470E+03  0.47000000000E+01 0. -1.
         -5    1    3    3    0  503 -0.17516230984E+01  0.32268467545E+02 -0.25005498087E+03  0.25217832112E+03  0.47000000000E+01 0. -1.
          5    1    3    3  503    0 -0.11760171973E+03  0.24621029154E+02 -0.20139321989E+03  0.23455847581E+03  0.47000000000E+01 0. -1.
         -5    1    4    4    0  502  0.74068999415E+02  0.81019738369E+01 -0.20720572514E+02  0.77480905904E+02  0.47000000000E+01 0.  1.
<mgrwt>
<rscale>  0 0.17668481E+03</rscale>
<asrwt>0</asrwt>
<pdfrwt beam="1">  1        1 0.94838381E-01 0.18195393E+03</pdfrwt>
<pdfrwt beam="2">  1       -1 0.95454565E-02 0.18195393E+03</pdfrwt>
<totfact> 0.21970697E+03</totfact>
</mgrwt>
</event>
<event>
 8    1  0.3520338E-004  0.1288956E+03  0.7546771E-02  0.1245005E+00
          2   -1    0    0  501    0  0.00000000000E+00  0.00000000000E+00  0.66459208658E+03  0.66459208658E+03  0.00000000000E+00 0. -1.
         -2   -1    0    0    0  501 -0.00000000000E+00 -0.00000000000E+00 -0.24934791076E+02  0.24934791076E+02  0.00000000000E+00 0.  1.
         25    2    1    2    0    0 -0.26181227903E+02 -0.17376979244E+02  0.18534445524E+03  0.22575791397E+03  0.12500660994E+03 0.  0.
         23    2    1    2    0    0  0.26181227903E+02  0.17376979244E+02  0.45431284026E+03  0.46376896369E+03  0.87715897942E+02 0.  0.
          5    1    3    3  502    0 -0.48304383728E+02  0.35809933309E+02  0.13952408510E+03  0.15200238529E+03  0.47000000000E+01 0. -1.
         -5    1    3    3    0  502  0.22123155825E+02 -0.53186912553E+02  0.45820370140E+02  0.73755528676E+02  0.47000000000E+01 0. -1.
          5    1    4    4  503    0  0.26243636059E+02  0.40076036652E+02  0.41750141646E+03  0.42026698644E+03  0.47000000000E+01 0. -1.
         -5    1    4    4    0  503 -0.62408156598E-01 -0.22699057408E+02  0.36811423802E+02  0.43501977247E+02  0.47000000000E+01 0.  1.
<mgrwt>
<rscale>  0 0.11885099E+03</rscale>
<asrwt>0</asrwt>
<pdfrwt beam="1">  1        2 0.10224492E+00 0.12889557E+03</pdfrwt>
<pdfrwt beam="2">  1       -2 0.38361222E-02 0.12889557E+03</pdfrwt>
<totfact> 0.12420486E+04</totfact>
</mgrwt>
</event>
<event>
 8    1  0.3520338E-004  0.1329381E+03  0.7546771E-02  0.1238989E+00
         -1   -1    0    0    0  501 -0.00000000000E+00  0.00000000000E+00  0.86819806510E+02  0.86819806510E+02  0.00000000000E+00 0.  1.
          1   -1    0    0  501    0  0.00000000000E+00 -0.00000000000E+00 -0.21639199971E+03  0.21639199971E+03  0.00000000000E+00 0. -1.
         25    2    1    2    0    0 -0.19463922499E+02 -0.40860560882E+02 -0.15477431462E+03  0.20402852426E+03  0.12499648208E+03 0.  0.
         23    2    1    2    0    0  0.19463922499E+02  0.40860560882E+02  0.25202121422E+02  0.99183281956E+02  0.84579824903E+02 0.  0.
          5    1    3    3  502    0  0.21615107359E+02 -0.32257136036E+01  0.13904095997E+02  0.26325500563E+02  0.47000000000E+01 0. -1.
         -5    1    3    3    0  502 -0.41079029859E+02 -0.37634847278E+02 -0.16867841062E+03  0.17770302370E+03  0.47000000000E+01 0. -1.
          5    1    4    4  503    0  0.51758783333E+02  0.19702513534E+02  0.23228548781E+02  0.60239656126E+02  0.47000000000E+01 0. -1.
         -5    1    4    4    0  503 -0.32294860834E+02  0.21158047348E+02  0.19735726413E+01  0.38943625830E+02  0.47000000000E+01 0.  1.
<mgrwt>
<rscale>  0 0.12252467E+03</rscale>
<asrwt>0</asrwt>
<pdfrwt beam="1">  1        1 0.33291077E-01 0.13293814E+03</pdfrwt>
<pdfrwt beam="2">  1       -1 0.13356893E-01 0.13293814E+03</pdfrwt>
<totfact> 0.49049169E+03</totfact>
</mgrwt>
</event>
<event>
 8    1  0.3520338E-004  0.1289871E+03  0.7546771E-02  0.1243267E+00
          1   -1    0    0  501    0  0.00000000000E+00  0.00000000000E+00  0.46816698320E+03  0.46816698320E+03  0.00000000000E+00 0. -1.
         -1   -1    0    0    0  501 -0.00000000000E+00 -0.00000000000E+00 -0.33273115030E+02  0.33273115030E+02  0.00000000000E+00 0.  1.
         25    2    1    2    0    0  0.29039216185E+02 -0.13035333171E+02  0.35020486519E+03  0.37320384069E+03  0.12499785245E+03 0.  0.
         23    2    1    2    0    0 -0.29039216185E+02  0.13035333171E+02  0.84689002980E+02  0.12823625754E+03  0.90879670629E+02 0.  0.
          5    1    3    3  502    0  0.70131512770E+02 -0.15853819093E+02  0.12556094133E+03  0.14476675258E+03  0.47000000000E+01 0.  1.
         -5    1    3    3    0  502 -0.41092296584E+02  0.28184859214E+01  0.22464392386E+03  0.22843708812E+03  0.47000000000E+01 0.  1.
          5    1    4    4  503    0 -0.51539160292E+02 -0.13923474792E+01  0.86745209176E+02  0.10102002272E+03  0.47000000000E+01 0. -1.
         -5    1    4    4    0  503  0.22499944106E+02  0.14427680651E+02 -0.20562061960E+01  0.27216234818E+02  0.47000000000E+01 0.  1.
<mgrwt>
<rscale>  0 0.11989693E+03</rscale>
<asrwt>0</asrwt>
<pdfrwt beam="1">  1        1 0.72025685E-01 0.12898705E+03</pdfrwt>
<pdfrwt beam="2">  1       -1 0.51189411E-02 0.12898705E+03</pdfrwt>
<totfact> 0.79716652E+03</totfact>
</mgrwt>
</event>
<event>
 8    1  0.3520338E-004  0.1264825E+03  0.7546771E-02  0.1250503E+00
          2   -1    0    0  501    0  0.00000000000E+00  0.00000000000E+00  0.78831031109E+03  0.78831031109E+03  0.00000000000E+00 0. -1.
         -2   -1    0    0    0  501 -0.00000000000E+00 -0.00000000000E+00 -0.14665558897E+02  0.14665558897E+02  0.00000000000E+00 0.  1.
         25    2    1    2    0    0  0.11067473754E+02 -0.15782864629E+02  0.47432021901E+03  0.49089457830E+03  0.12500491611E+03 0.  0.
         23    2    1    2    0    0 -0.11067473754E+02  0.15782864629E+02  0.29932453318E+03  0.31208129168E+03  0.86185663911E+02 0.  0.
          5    1    4    4  502    0 -0.28176329304E+02  0.28582634422E+02  0.27996945258E+03  0.28287074239E+03  0.47000000000E+01 0. -1.
         -5    1    3    3    0  503  0.62414191563E+02  0.17594229324E+02  0.23741464023E+03  0.24615623009E+03  0.47000000000E+01 0. -1.
          5    1    3    3  503    0 -0.51346717808E+02 -0.33377093953E+02  0.23690557878E+03  0.24473834821E+03  0.47000000000E+01 0. -1.
         -5    1    4    4    0  502  0.17108855549E+02 -0.12799769793E+02  0.19355080607E+02  0.29210549297E+02  0.47000000000E+01 0.  1.
<mgrwt>
<rscale>  0 0.11561961E+03</rscale>
<asrwt>0</asrwt>
<pdfrwt beam="1">  1        2 0.12127848E+00 0.12648248E+03</pdfrwt>
<pdfrwt beam="2">  1       -2 0.22562404E-02 0.12648248E+03</pdfrwt>
<totfact> 0.22019590E+04</totfact>
</mgrwt>
</event>
<event>
 8    1  0.3520338E-004  0.1387849E+03  0.7546771E-02  0.1226898E+00
          1   -1    0    0  501    0  0.00000000000E+00  0.00000000000E+00  0.46721087159E+03  0.46721087159E+03  0.00000000000E+00 0. -1.
         -1   -1    0    0    0  501 -0.00000000000E+00 -0.00000000000E+00 -0.40543562813E+02  0.40543562813E+02  0.00000000000E+00 0.  1.
         25    2    1    2    0    0 -0.51587256630E+02  0.31219790941E+02  0.34626417935E+03  0.37304171982E+03  0.12500128973E+03 0.  0.
         23    2    1    2    0    0  0.51587256630E+02 -0.31219790941E+02  0.80403129431E+02  0.13471271458E+03  0.89704692493E+02 0.  0.
          5    1    4    4  502    0 -0.79565625735E+00 -0.22889966576E+02  0.77978813494E+02  0.81408654286E+02  0.47000000000E+01 0. -1.
         -5    1    4    4    0  502  0.52382912887E+02 -0.83298243644E+01  0.24243159375E+01  0.53304060298E+02  0.47000000000E+01 0.  1.
          5    1    3    3  503    0 -0.84954210479E+02  0.40519492322E+02  0.30357722267E+03  0.31786831749E+03  0.47000000000E+01 0. -1.
         -5    1    3    3    0  503  0.33366953849E+02 -0.92997013813E+01  0.42686956676E+02  0.55173402335E+02  0.47000000000E+01 0. -1.
<mgrwt>
<rscale>  0 0.13037677E+03</rscale>
<asrwt>0</asrwt>
<pdfrwt beam="1">  1        1 0.71878592E-01 0.13878488E+03</pdfrwt>
<pdfrwt beam="2">  1       -1 0.62374715E-02 0.13878488E+03</pdfrwt>
<totfact> 0.59861213E+03</totfact>
</mgrwt>
</event>
<event>
 8    1  0.3520338E-004  0.1497828E+03  0.7546771E-02  0.1209684E+00
         -1   -1    0    0    0  501 -0.00000000000E+00  0.00000000000E+00  0.76078340064E+03  0.76078340064E+03  0.00000000000E+00 0.  1.
          1   -1    0    0  501    0  0.00000000000E+00 -0.00000000000E+00 -0.24934684242E+02  0.24934684242E+02  0.00000000000E+00 0. -1.
         25    2    1    2    0    0 -0.69265361306E+02  0.44845616923E+02  0.45121375195E+03  0.47542480172E+03  0.12500428998E+03 0.  0.
         23    2    1    2    0    0  0.69265361306E+02 -0.44845616923E+02  0.28463496445E+03  0.31029328316E+03  0.91956723253E+02 0.  0.
          5    1    4    4  502    0  0.88670012862E+02 -0.24912834286E+02  0.18457984568E+03  0.20633669069E+03  0.47000000000E+01 0. -1.
         -5    1    3    3    0  503  0.70642299001E+01  0.55010273107E+02  0.88128599310E+02  0.10423422426E+03  0.47000000000E+01 0. -1.
          5    1    3    3  503    0 -0.76329591206E+02 -0.10164656185E+02  0.36308515264E+03  0.37119057746E+03  0.47000000000E+01 0. -1.
         -5    1    4    4    0  502 -0.19404651556E+02 -0.19932782637E+02  0.10005511877E+03  0.10395659247E+03  0.47000000000E+01 0.  1.
<mgrwt>
<rscale>  0 0.14274408E+03</rscale>
<asrwt>0</asrwt>
<pdfrwt beam="1">  1        1 0.38361058E-02 0.14978282E+03</pdfrwt>
<pdfrwt beam="2">  1       -1 0.11704358E+00 0.14978282E+03</pdfrwt>
<totfact> 0.16549243E+03</totfact>
</mgrwt>
</event>
<event>
 8    1  0.3520338E-004  0.1273596E+03  0.7546771E-02  0.1244882E+00
          1   -1    0    0  501    0  0.00000000000E+00  0.00000000000E+00  0.51232700986E+02  0.51232700986E+02  0.00000000000E+00 0. -1.
         -1   -1    0    0    0  501 -0.00000000000E+00 -0.00000000000E+00 -0.27510726725E+03  0.27510726725E+03  0.00000000000E+00 0.  1.
         25    2    1    2    0    0 -0.17153442106E+02 -0.17353534764E+02 -0.17883803617E+03  0.21955299432E+03  0.12500035355E+03 0.  0.
         23    2    1    2    0    0  0.17153442106E+02  0.17353534764E+02 -0.45036530096E+02  0.10678697392E+03  0.93700496321E+02 0.  0.
          5    1    3    3  502    0  0.44745220471E+02  0.11535946250E+02 -0.28854824602E+02  0.54680012013E+02  0.47000000000E+01 0.  1.
         -5    1    4    4    0  503 -0.28306065387E+02  0.34875110381E+02 -0.34215709302E+02  0.56659610172E+02  0.47000000000E+01 0.  1.
          5    1    4    4  503    0  0.45459507493E+02 -0.17521575617E+02 -0.10820820793E+02  0.50127363747E+02  0.47000000000E+01 0. -1.
         -5    1    3    3    0  502 -0.61898662576E+02 -0.28889481014E+02 -0.14998321157E+03  0.16487298231E+03  0.47000000000E+01 0.  1.
<mgrwt>
<rscale>  0 0.11892447E+03</rscale>
<asrwt>0</asrwt>
<pdfrwt beam="1">  1        1 0.78819539E-02 0.12735963E+03</pdfrwt>
<pdfrwt beam="2">  1       -1 0.42324196E-01 0.12735963E+03</pdfrwt>
<totfact> 0.47066269E+03</totfact>
</mgrwt>
</event>
<event>
 8    1  0.3520338E-004  0.1256259E+03  0.7546771E-02  0.1249030E+00
          2   -1    0    0  501    0  0.00000000000E+00  0.00000000000E+00  0.57022432789E+03  0.57022432789E+03  0.00000000000E+00 0. -1.
         -2   -1    0    0    0  501 -0.00000000000E+00 -0.00000000000E+00 -0.22158816876E+02  0.22158816876E+02  0.00000000000E+00 0.  1.
         25    2    1    2    0    0 -0.12498061715E+02 -0.80827993289E+00  0.24366367648E+03  0.27414201495E+03  0.12500000906E+03 0.  0.
         23    2    1    2    0    0  0.12498061715E+02  0.80827993289E+00  0.30440183454E+03  0.31824112982E+03  0.91978720209E+02 0.  0.
          5    1    3    3  502    0  0.12879024199E+02  0.56399570393E+02  0.79839458076E+02  0.98707699146E+02  0.47000000000E+01 0. -1.
         -5    1    3    3    0  502 -0.25377085914E+02 -0.57207850326E+02  0.16382421840E+03  0.17543431581E+03  0.47000000000E+01 0. -1.
          5    1    4    4  503    0  0.48420811772E+02  0.16436782980E+02  0.13852537955E+03  0.14773663603E+03  0.47000000000E+01 0. -1.
         -5    1    4    4    0  503 -0.35922750056E+02 -0.15628503047E+02  0.16587645499E+03  0.17050449378E+03  0.47000000000E+01 0.  1.
<mgrwt>
<rscale>  0 0.11647385E+03</rscale>
<asrwt>0</asrwt>
<pdfrwt beam="1">  1        2 0.87726809E-01 0.12562586E+03</pdfrwt>
<pdfrwt beam="2">  1       -2 0.34090492E-02 0.12562586E+03</pdfrwt>
<totfact> 0.17579175E+04</totfact>
</mgrwt>
</event>
<event>
 8    1  0.3520338E-004  0.1350419E+03  0.7546771E-02  0.1232790E+00
          1   -1    0    0  501    0  0.00000000000E+00  0.00000000000E+00  0.82059170805E+02  0.82059170805E+02  0.00000000000E+00 0. -1.
         -1   -1    0    0    0  501 -0.00000000000E+00 -0.00000000000E+00 -0.17452720368E+03  0.17452720368E+03  0.00000000000E+00 0.  1.
         25    2    1    2    0    0 -0.48988537739E+02  0.14551652140E+02 -0.44705327642E+02  0.14224932313E+03  0.12499870479E+03 0.  0.
         23    2    1    2    0    0  0.48988537739E+02 -0.14551652140E+02 -0.47762705235E+02  0.11433705136E+03  0.90443672487E+02 0.  0.
          5    1    4    4  502    0  0.25951064012E+02 -0.13819672688E+02  0.24363221884E+02  0.38472037340E+02  0.47000000000E+01 0. -1.
         -5    1    3    3    0  503  0.41027262567E+02 -0.72827580226E+01 -0.18798321508E+02  0.45953691144E+02  0.47000000000E+01 0.  1.
          5    1    3    3  503    0 -0.90015800307E+02  0.21834410163E+02 -0.25907006133E+02  0.96295631982E+02  0.47000000000E+01 0.  1.
         -5    1    4    4    0  502  0.23037473727E+02 -0.73197945201E+00 -0.72125927119E+02  0.75865014021E+02  0.47000000000E+01 0.  1.
<mgrwt>
<rscale>  0 0.12646998E+03</rscale>
<asrwt>0</asrwt>
<pdfrwt beam="1">  1        1 0.12624488E-01 0.13504186E+03</pdfrwt>
<pdfrwt beam="2">  1       -1 0.26850339E-01 0.13504186E+03</pdfrwt>
<totfact> 0.55073361E+03</totfact>
</mgrwt>
</event>
<event>
 8    1  0.3520338E-004  0.2046019E+03  0.7546771E-02  0.1149914E+00
         -2   -1    0    0    0  501 -0.00000000000E+00  0.00000000000E+00  0.19604272630E+03  0.19604272630E+03  0.00000000000E+00 0.  1.
          2   -1    0    0  501    0  0.00000000000E+00 -0.00000000000E+00 -0.21875387177E+03  0.21875387177E+03  0.00000000000E+00 0. -1.
         25    2    1    2    0    0 -0.37635307368E+02 -0.15754625136E+03 -0.80689328151E+02  0.21993797118E+03  0.12499882323E+03 0.  0.
         23    2    1    2    0    0  0.37635307368E+02  0.15754625136E+03  0.57978182685E+02  0.19485862689E+03  0.91494137113E+02 0.  0.
          5    1    4    4  502    0  0.11951565611E+02  0.10690089695E+03  0.79616413047E+02  0.13390856924E+03  0.47000000000E+01 0. -1.
         -5    1    4    4    0  502  0.25683741757E+02  0.50645354419E+02 -0.21638230361E+02  0.60950057654E+02  0.47000000000E+01 0.  1.
          5    1    3    3  503    0  0.40804670286E+02 -0.81257552893E+02 -0.15139037411E+02  0.92298924549E+02  0.47000000000E+01 0.  1.
         -5    1    3    3    0  503 -0.78439977653E+02 -0.76288698472E+02 -0.65550290740E+02  0.12763904663E+03  0.47000000000E+01 0.  1.
<mgrwt>
<rscale>  0 0.19979287E+03</rscale>
<asrwt>0</asrwt>
<pdfrwt beam="1">  1        2 0.33654442E-01 0.20460191E+03</pdfrwt>
<pdfrwt beam="2">  1       -2 0.30160420E-01 0.20460191E+03</pdfrwt>
<totfact> 0.15509204E+03</totfact>
</mgrwt>
</event>
<event>
 8    1  0.3520338E-004  0.1839235E+03  0.7546771E-02  0.1169817E+00
         -1   -1    0    0    0  501 -0.00000000000E+00  0.00000000000E+00  0.22129927325E+02  0.22129927325E+02  0.00000000000E+00 0.  1.
          1   -1    0    0  501    0  0.00000000000E+00 -0.00000000000E+00 -0.13456846456E+04  0.13456846456E+04  0.00000000000E+00 0. -1.
         25    2    1    2    0    0 -0.18999617356E+02 -0.13357633234E+03 -0.68893426845E+03  0.71306259842E+03  0.12499688400E+03 0.  0.
         23    2    1    2    0    0  0.18999617356E+02  0.13357633234E+03 -0.63462044981E+03  0.65475197448E+03  0.88053453934E+02 0.  0.
          5    1    4    4  502    0  0.19215717427E+02  0.16599962362E+02 -0.33293614566E+02  0.42134989231E+02  0.47000000000E+01 0. -1.
         -5    1    4    4    0  502 -0.21610007169E+00  0.11697636998E+03 -0.60132683525E+03  0.61261698525E+03  0.47000000000E+01 0.  1.
          5    1    3    3  503    0 -0.71054223779E+02 -0.95605949662E+02 -0.43493221102E+03  0.45097374482E+03  0.47000000000E+01 0.  1.
         -5    1    3    3    0  503  0.52054606423E+02 -0.37970382681E+02 -0.25400205742E+03  0.26208885361E+03  0.47000000000E+01 0.  1.
<mgrwt>
<rscale>  0 0.17793433E+03</rscale>
<asrwt>0</asrwt>
<pdfrwt beam="1">  1        1 0.20702843E+00 0.18392347E+03</pdfrwt>
<pdfrwt beam="2">  1       -1 0.34046039E-02 0.18392347E+03</pdfrwt>
<totfact> 0.28282894E+03</totfact>
</mgrwt>
</event>
<event>
 8    1  0.3520338E-004  0.1359266E+03  0.7546771E-02  0.1231935E+00
         -1   -1    0    0    0  501 -0.00000000000E+00  0.00000000000E+00  0.32275666426E+03  0.32275666426E+03  0.00000000000E+00 0.  1.
          1   -1    0    0  501    0  0.00000000000E+00 -0.00000000000E+00 -0.44757215509E+02  0.44757215509E+02  0.00000000000E+00 0. -1.
         25    2    1    2    0    0  0.23445553454E+02  0.47977447059E+02  0.14294430671E+03  0.19725392657E+03  0.12499802928E+03 0.  0.
         23    2    1    2    0    0 -0.23445553454E+02 -0.47977447059E+02  0.13505514204E+03  0.17025995320E+03  0.88865239930E+02 0.  0.
          5    1    4    4  502    0  0.44190583110E+01 -0.58618403716E+02  0.41923129371E+02  0.72355263159E+02  0.47000000000E+01 0. -1.
         -5    1    3    3    0  503  0.71856977399E+02  0.22294017937E+02  0.10930724691E+03  0.13278031730E+03  0.47000000000E+01 0. -1.
          5    1    3    3  503    0 -0.48411423944E+02  0.25683429122E+02  0.33637059800E+02  0.64473609266E+02  0.47000000000E+01 0. -1.
         -5    1    4    4    0  502 -0.27864611765E+02  0.10640956658E+02  0.93132012668E+02  0.97904690036E+02  0.47000000000E+01 0.  1.
<mgrwt>
<rscale>  0 0.12702731E+03</rscale>
<asrwt>0</asrwt>
<pdfrwt beam="1">  1        1 0.68857257E-02 0.13592659E+03</pdfrwt>
<pdfrwt beam="2">  1       -1 0.49654870E-01 0.13592659E+03</pdfrwt>
<totfact> 0.42560852E+03</totfact>
</mgrwt>
</event>
<event>
 8    1  0.3520338E-004  0.1394117E+03  0.7546771E-02  0.1225505E+00
          1   -1    0    0  501    0  0.00000000000E+00  0.00000000000E+00  0.98532202802E+02  0.98532202802E+02  0.00000000000E+00 0. -1.
         -1   -1    0    0    0  501 -0.00000000000E+00 -0.00000000000E+00 -0.16813703795E+03  0.16813703795E+03  0.00000000000E+00 0.  1.
         25    2    1    2    0    0  0.11272758612E+02 -0.60693440347E+02 -0.71938061640E+02  0.15687800725E+03  0.12499942263E+03 0.  0.
         23    2    1    2    0    0 -0.11272758612E+02  0.60693440347E+02  0.23332264901E+01  0.10979123351E+03  0.90762890114E+02 0.  0.
          5    1    3    3  502    0 -0.16223576356E+02  0.34654919001E+02 -0.10077653315E+02  0.39847420708E+02  0.47000000000E+01 0. -1.
         -5    1    3    3    0  502  0.27496334968E+02 -0.95348359348E+02 -0.61860408325E+02  0.11703058654E+03  0.47000000000E+01 0. -1.
          5    1    4    4  503    0 -0.12768461485E+02 -0.20521213933E+02 -0.11641717306E+02  0.27235517469E+02  0.47000000000E+01 0. -1.
         -5    1    4    4    0  503  0.14957028729E+01  0.81214654280E+02  0.13974943796E+02  0.82555716041E+02  0.47000000000E+01 0.  1.
<mgrwt>
<rscale>  0 0.13132331E+03</rscale>
<asrwt>0</asrwt>
<pdfrwt beam="1">  1        1 0.15158800E-01 0.13941171E+03</pdfrwt>
<pdfrwt beam="2">  1       -1 0.25867237E-01 0.13941171E+03</pdfrwt>
<totfact> 0.46260355E+03</totfact>
</mgrwt>
</event>
<event>
 8    1  0.3520338E-004  0.1401678E+03  0.7546771E-02  0.1224276E+00
          1   -1    0    0  501    0  0.00000000000E+00  0.00000000000E+00  0.73052066968E+03  0.73052066968E+03  0.00000000000E+00 0. -1.
         -1   -1    0    0    0  501 -0.00000000000E+00 -0.00000000000E+00 -0.21581298484E+02  0.21581298484E+02  0.00000000000E+00 0.  1.
         25    2    1    2    0    0  0.41126042358E+02 -0.48275958052E+02  0.40897795195E+03  0.43233088129E+03  0.12500042499E+03 0.  0.
         23    2    1    2    0    0 -0.41126042358E+02  0.48275958052E+02  0.29996141925E+03  0.31977108688E+03  0.90855794971E+02 0.  0.
          5    1    4    4  502    0 -0.13467509702E+02  0.52480454979E+02  0.27962985631E+03  0.28486930075E+03  0.47000000000E+01 0. -1.
         -5    1    4    4    0  502 -0.27658532656E+02 -0.42044969269E+01  0.20331562937E+02  0.34901786123E+02  0.47000000000E+01 0.  1.
          5    1    3    3  503    0  0.61007256383E+01 -0.43264441160E+02  0.38890698900E+03  0.39138186828E+03  0.47000000000E+01 0.  1.
         -5    1    3    3    0  503  0.35025316720E+02 -0.50115168921E+01  0.20070962950E+02  0.40949013012E+02  0.47000000000E+01 0.  1.
<mgrwt>
<rscale>  0 0.13216653E+03</rscale>
<asrwt>0</asrwt>
<pdfrwt beam="1">  1        1 0.11238778E+00 0.14016785E+03</pdfrwt>
<pdfrwt beam="2">  1       -1 0.33202003E-02 0.14016785E+03</pdfrwt>
<totfact> 0.82752758E+03</totfact>
</mgrwt>
</event>
<event>
 8    1  0.3520338E-004  0.3491478E+03  0.7546771E-02  0.1064082E+00
         -1   -1    0    0    0  501 -0.00000000000E+00  0.00000000000E+00  0.15910434248E+03  0.15910434248E+03  0.00000000000E+00 0.  1.
          1   -1    0    0  501    0  0.00000000000E+00 -0.00000000000E+00 -0.75257519484E+03  0.75257519484E+03  0.00000000000E+00 0. -1.
         25    2    1    2    0    0 -0.66959363680E+02 -0.31906474185E+03 -0.24972561656E+03  0.42926339808E+03  0.12497325911E+03 0.  0.
         23    2    1    2    0    0  0.66959363680E+02  0.31906474185E+03 -0.34374523580E+03  0.48241613924E+03  0.90987242980E+02 0.  0.
          5    1    3    3  502    0 -0.70406571410E+02 -0.17307014293E+03 -0.20282716243E+03  0.27581027445E+03  0.47000000000E+01 0. -1.
         -5    1    3    3    0  502  0.34472077295E+01 -0.14599459892E+03 -0.46898454130E+02  0.15345312364E+03  0.47000000000E+01 0. -1.
          5    1    4    4  503    0  0.54924664250E+02  0.28578618091E+03 -0.33835238922E+03  0.44631254657E+03  0.47000000000E+01 0. -1.
         -5    1    4    4    0  503  0.12034699431E+02  0.33278560945E+02 -0.53928465814E+01  0.36103592664E+02  0.47000000000E+01 0.  1.
<mgrwt>
<rscale>  0 0.34644816E+03</rscale>
<asrwt>0</asrwt>
<pdfrwt beam="1">  1        1 0.11578080E+00 0.34914779E+03</pdfrwt>
<pdfrwt beam="2">  1       -1 0.24477591E-01 0.34914779E+03</pdfrwt>
<totfact> 0.36507575E+02</totfact>
</mgrwt>
</event>
<event>
 8    1  0.3520338E-004  0.1340547E+03  0.7546771E-02  0.1235909E+00
          1   -1    0    0  501    0  0.00000000000E+00  0.00000000000E+00  0.32979793471E+03  0.32979793471E+03  0.00000000000E+00 0. -1.
         -1   -1    0    0    0  501 -0.00000000000E+00 -0.00000000000E+00 -0.41524038333E+02  0.41524038333E+02  0.00000000000E+00 0.  1.
         25    2    1    2    0    0 -0.35963957324E+02 -0.32449610318E+02  0.17572871034E+03  0.22102314828E+03  0.12499707598E+03 0.  0.
         23    2    1    2    0    0  0.35963957324E+02  0.32449610318E+02  0.11254518604E+03  0.15029882476E+03  0.87045587982E+02 0.  0.
          5    1    3    3  502    0 -0.31102513183E+02  0.42329457151E+02  0.10673859693E+03  0.11905615206E+03  0.47000000000E+01 0.  1.
         -5    1    3    3    0  502 -0.48614441416E+01 -0.74779067469E+02  0.68990113413E+02  0.10196699623E+03  0.47000000000E+01 0.  1.
          5    1    4    4  503    0  0.63711364191E+02  0.13172589433E+02  0.79109098224E+02  0.10253289453E+03  0.47000000000E+01 0. -1.
         -5    1    4    4    0  503 -0.27747406866E+02  0.19277020885E+02  0.33436087811E+02  0.47765930223E+02  0.47000000000E+01 0.  1.
<mgrwt>
<rscale>  0 0.12446394E+03</rscale>
<asrwt>0</asrwt>
<pdfrwt beam="1">  1        1 0.50738142E-01 0.13405466E+03</pdfrwt>
<pdfrwt beam="2">  1       -1 0.63883138E-02 0.13405466E+03</pdfrwt>
<totfact> 0.89425061E+03</totfact>
</mgrwt>
</event>
<event>
 8    1  0.3520338E-004  0.1626843E+03  0.7546771E-02  0.1193488E+00
         -1   -1    0    0    0  501 -0.00000000000E+00  0.00000000000E+00  0.13042486807E+03  0.13042486807E+03  0.00000000000E+00 0.  1.
          1   -1    0    0  501    0  0.00000000000E+00 -0.00000000000E+00 -0.19823861518E+03  0.19823861518E+03  0.00000000000E+00 0. -1.
         25    2    1    2    0    0  0.57166739689E+02  0.87027185923E+02 -0.95928125767E+02  0.18886072252E+03  0.12499759990E+03 0.  0.
         23    2    1    2    0    0 -0.57166739689E+02 -0.87027185923E+02  0.28114378652E+02  0.13980276073E+03  0.88952944893E+02 0.  0.
          5    1    3    3  502    0  0.93606337409E+02  0.63171205050E+02 -0.44924402562E+02  0.12162663975E+03  0.47000000000E+01 0.  1.
         -5    1    3    3    0  502 -0.36439597720E+02  0.23855980873E+02 -0.51003723205E+02  0.67234082772E+02  0.47000000000E+01 0.  1.
          5    1    4    4  503    0  0.49795344463E+00 -0.23002926899E+02 -0.28247778590E+02  0.36734310920E+02  0.47000000000E+01 0. -1.
         -5    1    4    4    0  503 -0.57664693133E+02 -0.64024259024E+02  0.56362157242E+02  0.10306844981E+03  0.47000000000E+01 0.  1.
<mgrwt>
<rscale>  0 0.15582855E+03</rscale>
<asrwt>0</asrwt>
<pdfrwt beam="1">  1        1 0.30498248E-01 0.16268426E+03</pdfrwt>
<pdfrwt beam="2">  1       -1 0.20065364E-01 0.16268426E+03</pdfrwt>
<totfact> 0.29033898E+03</totfact>
</mgrwt>
</event>
<event>
 8    1  0.3520338E-004  0.1599000E+03  0.7546771E-02  0.1196501E+00
          2   -1    0    0  501    0  0.00000000000E+00  0.00000000000E+00  0.93872428446E+02  0.93872428446E+02  0.00000000000E+00 0. -1.
         -2   -1    0    0    0  501 -0.00000000000E+00 -0.00000000000E+00 -0.25057226718E+03  0.25057226718E+03  0.00000000000E+00 0.  1.
         25    2    1    2    0    0 -0.59954954112E+02 -0.79658373975E+02 -0.13165520128E+03  0.20712580439E+03  0.12501181446E+03 0.  0.
         23    2    1    2    0    0  0.59954954112E+02  0.79658373975E+02 -0.25044637460E+02  0.13731889124E+03  0.91044994143E+02 0.  0.
          5    1    3    3  502    0 -0.63115476083E+02 -0.38965252811E+01 -0.10724416422E+02  0.64310569411E+02  0.47000000000E+01 0. -1.
         -5    1    3    3    0  502  0.31605219709E+01 -0.75761848694E+02 -0.12093078485E+03  0.14281523498E+03  0.47000000000E+01 0. -1.
          5    1    4    4  503    0  0.32020024227E+02 -0.10412039566E+02  0.11768668542E+02  0.35976159866E+02  0.47000000000E+01 0. -1.
         -5    1    4    4    0  503  0.27934929885E+02  0.90070413542E+02 -0.36813306002E+02  0.10134273137E+03  0.47000000000E+01 0.  1.
<mgrwt>
<rscale>  0 0.15327891E+03</rscale>
<asrwt>0</asrwt>
<pdfrwt beam="1">  1        2 0.14441912E-01 0.15989999E+03</pdfrwt>
<pdfrwt beam="2">  1       -2 0.38549580E-01 0.15989999E+03</pdfrwt>
<totfact> 0.25381811E+03</totfact>
</mgrwt>
</event>
<event>
 8    1  0.3520338E-004  0.2398159E+03  0.7546771E-02  0.1122302E+00
         -1   -1    0    0    0  501 -0.00000000000E+00  0.00000000000E+00  0.57011720227E+02  0.57011720227E+02  0.00000000000E+00 0.  1.
          1   -1    0    0  501    0  0.00000000000E+00 -0.00000000000E+00 -0.12636401217E+04  0.12636401217E+04  0.00000000000E+00 0. -1.
         25    2    1    2    0    0 -0.17751171652E+02  0.20389144756E+03 -0.28864416983E+03  0.37526940707E+03  0.12499937849E+03 0.  0.
         23    2    1    2    0    0  0.17751171652E+02 -0.20389144756E+03 -0.91798423161E+03  0.94538243483E+03  0.95739605743E+02 0.  0.
          5    1    3    3  502    0 -0.21141588518E+02  0.17324405283E+02  0.41454246328E+01  0.28042402337E+02  0.47000000000E+01 0. -1.
         -5    1    3    3    0  502  0.33904168666E+01  0.18656704227E+03 -0.29278959446E+03  0.34722700473E+03  0.47000000000E+01 0. -1.
          5    1    4    4  503    0 -0.21377321704E+01 -0.10728067390E+03 -0.28169496305E+03  0.30147612691E+03  0.47000000000E+01 0. -1.
         -5    1    4    4    0  503  0.19888903822E+02 -0.96610773656E+02 -0.63628926857E+03  0.64390630792E+03  0.47000000000E+01 0.  1.
<mgrwt>
<rscale>  0 0.23627134E+03</rscale>
<asrwt>0</asrwt>
<pdfrwt beam="1">  1        1 0.19440617E+00 0.23981591E+03</pdfrwt>
<pdfrwt beam="2">  1       -1 0.87710342E-02 0.23981591E+03</pdfrwt>
<totfact> 0.77564547E+02</totfact>
</mgrwt>
</event>
<event>
 8    1  0.3520338E-004  0.3164725E+03  0.7546771E-02  0.1078656E+00
         -1   -1    0    0    0  501 -0.00000000000E+00  0.00000000000E+00  0.12824980107E+03  0.12824980107E+03  0.00000000000E+00 0.  1.
          1   -1    0    0  501    0  0.00000000000E+00 -0.00000000000E+00 -0.10722993949E+04  0.10722993949E+04  0.00000000000E+00 0. -1.
         25    2    1    2    0    0  0.18814747251E+02 -0.29013029010E+03 -0.80580942384E+03  0.86572723170E+03  0.12500092885E+03 0.  0.
         23    2    1    2    0    0 -0.18814747251E+02  0.29013029010E+03 -0.13824016999E+03  0.33482196428E+03  0.92009908229E+02 0.  0.
          5    1    3    3  502    0  0.62388175828E+02 -0.83603482581E+02 -0.29858967543E+03  0.31632216340E+03  0.47000000000E+01 0. -1.
         -5    1    4    4    0  503 -0.79623611822E+01  0.44544672126E+02  0.11523400316E+02  0.46930861544E+02  0.47000000000E+01 0.  1.
          5    1    4    4  503    0 -0.10852386068E+02  0.24558561798E+03 -0.14976357031E+03  0.28789110273E+03  0.47000000000E+01 0. -1.
         -5    1    3    3    0  502 -0.43573428578E+02 -0.20652680752E+03 -0.50721974841E+03  0.54940506831E+03  0.47000000000E+01 0. -1.
<mgrwt>
<rscale>  0 0.31355203E+03</rscale>
<asrwt>0</asrwt>
<pdfrwt beam="1">  1        1 0.16496914E+00 0.31647245E+03</pdfrwt>
<pdfrwt beam="2">  1       -1 0.19730738E-01 0.31647245E+03</pdfrwt>
<totfact> 0.29173877E+02</totfact>
</mgrwt>
</event>
<event>
 8    1  0.3520338E-004  0.1270075E+03  0.7546771E-02  0.1245939E+00
          1   -1    0    0  501    0  0.00000000000E+00  0.00000000000E+00  0.79086207970E+02  0.79086207970E+02  0.00000000000E+00 0. -1.
         -1   -1    0    0    0  501 -0.00000000000E+00 -0.00000000000E+00 -0.16111299708E+03  0.16111299708E+03  0.00000000000E+00 0.  1.
         25    2    1    2    0    0  0.22388971227E+02 -0.14133950166E+01 -0.26770124169E+02  0.12979811412E+03  0.12501058821E+03 0.  0.
         23    2    1    2    0    0 -0.22388971227E+02  0.14133950166E+01 -0.55256664946E+02  0.11040109093E+03  0.92907686115E+02 0.  0.
          5    1    3    3  502    0  0.10526046175E+02  0.34779155975E+02  0.39087396856E+02  0.53575198846E+02  0.47000000000E+01 0.  1.
         -5    1    4    4    0  503 -0.17758501647E+02  0.45827305056E+02 -0.37981746024E+02  0.62291326045E+02  0.47000000000E+01 0.  1.
          5    1    4    4  503    0 -0.46304695806E+01 -0.44413910039E+02 -0.17274918922E+02  0.48109764885E+02  0.47000000000E+01 0. -1.
         -5    1    3    3    0  502  0.11862925053E+02 -0.36192550992E+02 -0.65857521025E+02  0.76222915279E+02  0.47000000000E+01 0.  1.
<mgrwt>
<rscale>  0 0.11829360E+03</rscale>
<asrwt>0</asrwt>
<pdfrwt beam="1">  1        1 0.12167109E-01 0.12700752E+03</pdfrwt>
<pdfrwt beam="2">  1       -1 0.24786615E-01 0.12700752E+03</pdfrwt>
<totfact> 0.65648277E+03</totfact>
</mgrwt>
</event>
<event>
 8    1  0.3520338E-004  0.3245277E+03  0.7546771E-02  0.1074972E+00
          2   -1    0    0  501    0  0.00000000000E+00  0.00000000000E+00  0.35106385412E+03  0.35106385412E+03  0.00000000000E+00 0. -1.
         -2   -1    0    0    0  501 -0.00000000000E+00 -0.00000000000E+00 -0.33687149164E+03  0.33687149164E+03  0.00000000000E+00 0.  1.
         25    2    1    2    0    0  0.27453793057E+03  0.11969107677E+03 -0.12247255572E+03  0.34686852951E+03  0.12498488182E+03 0.  0.
         23    2    1    2    0    0 -0.27453793057E+03 -0.11969107677E+03  0.13666491819E+03  0.34106681624E+03  0.89175355887E+02 0.  0.
          5    1    4    4  502    0 -0.13953487868E+03 -0.13002542622E+02  0.56352802052E+02  0.15111841973E+03  0.47000000000E+01 0. -1.
         -5    1    4    4    0  502 -0.13500305189E+03 -0.10668853415E+03  0.80312116140E+02  0.18994839651E+03  0.47000000000E+01 0.  1.
          5    1    3    3  503    0  0.39388740389E+02  0.41872688106E+02  0.20046328807E+02  0.61063411117E+02  0.47000000000E+01 0. -1.
         -5    1    3    3    0  503  0.23514919018E+03  0.77818388667E+02 -0.14251888452E+03  0.28580511840E+03  0.47000000000E+01 0. -1.
<mgrwt>
<rscale>  0 0.32147521E+03</rscale>
<asrwt>0</asrwt>
<pdfrwt beam="1">  1        2 0.54009824E-01 0.32452773E+03</pdfrwt>
<pdfrwt beam="2">  1       -2 0.51826383E-01 0.32452773E+03</pdfrwt>
<totfact> 0.33051473E+02</totfact>
</mgrwt>
</event>
<event>
 8    1  0.3520338E-004  0.1759534E+03  0.7546771E-02  0.1176448E+00
          2   -1    0    0  501    0  0.00000000000E+00  0.00000000000E+00  0.17450801802E+04  0.17450801802E+04  0.00000000000E+00 0. -1.
         -2   -1    0    0    0  501 -0.00000000000E+00 -0.00000000000E+00 -0.16237059356E+02  0.16237059356E+02  0.00000000000E+00 0.  1.
         25    2    1    2    0    0  0.11203076946E+03  0.52734290897E+02  0.80343110526E+03  0.82247256727E+03  0.12501113662E+03 0.  0.
         23    2    1    2    0    0 -0.11203076946E+03 -0.52734290897E+02  0.92541201560E+03  0.93884467230E+03  0.98539947951E+02 0.  0.
          5    1    3    3  502    0  0.31471137615E+02  0.21968957822E+02  0.45821007453E+02  0.59956003324E+02  0.47000000000E+01 0. -1.
         -5    1    3    3    0  502  0.80559631842E+02  0.30765333075E+02  0.75761009780E+03  0.76251656395E+03  0.47000000000E+01 0. -1.
          5    1    4    4  503    0 -0.10064241393E+03 -0.11612799751E+02  0.79746869070E+03  0.80389188032E+03  0.47000000000E+01 0. -1.
         -5    1    4    4    0  503 -0.11388355529E+02 -0.41121491146E+02  0.12794332491E+03  0.13495279198E+03  0.47000000000E+01 0.  1.
<mgrwt>
<rscale>  0 0.17134902E+03</rscale>
<asrwt>0</asrwt>
<pdfrwt beam="1">  1        2 0.26847373E+00 0.17595335E+03</pdfrwt>
<pdfrwt beam="2">  1       -2 0.24980105E-02 0.17595335E+03</pdfrwt>
<totfact> 0.55890718E+03</totfact>
</mgrwt>
</event>
<event>
 8    1  0.3520338E-004  0.1318004E+03  0.7546771E-02  0.1238162E+00
         -2   -1    0    0    0  501 -0.00000000000E+00  0.00000000000E+00  0.20367233367E+02  0.20367233367E+02  0.00000000000E+00 0. -1.
          2   -1    0    0  501    0  0.00000000000E+00 -0.00000000000E+00 -0.67422926698E+03  0.67422926698E+03  0.00000000000E+00 0.  1.
         25    2    1    2    0    0 -0.39094396428E+02 -0.14779742635E+02 -0.32093041802E+03  0.34694046458E+03  0.12499816050E+03 0.  0.
         23    2    1    2    0    0  0.39094396428E+02  0.14779742635E+02 -0.33293161559E+03  0.34765603576E+03  0.90963981434E+02 0.  0.
          5    1    4    4  502    0  0.11531467346E+02 -0.21440533051E+02 -0.21312185942E+02  0.32695113799E+02  0.47000000000E+01 0. -1.
         -5    1    3    3    0  503  0.39751223040E+02  0.17775291867E+02 -0.78411902840E+02  0.89814460089E+02  0.47000000000E+01 0.  1.
          5    1    3    3  503    0 -0.78845619468E+02 -0.32555034502E+02 -0.24251851518E+03  0.25712600449E+03  0.47000000000E+01 0.  1.
         -5    1    4    4    0  502  0.27562929082E+02  0.36220275686E+02 -0.31161942965E+03  0.31496092196E+03  0.47000000000E+01 0.  1.
<mgrwt>
<rscale>  0 0.12304186E+03</rscale>
<asrwt>0</asrwt>
<pdfrwt beam="1">  1        2 0.10372757E+00 0.13180043E+03</pdfrwt>
<pdfrwt beam="2">  1       -2 0.31334208E-02 0.13180043E+03</pdfrwt>
<totfact> 0.16491512E+04</totfact>
</mgrwt>
</event>
<event>
 8    1  0.3520338E-004  0.1632886E+03  0.7546771E-02  0.1192369E+00
          3   -1    0    0  501    0  0.00000000000E+00  0.00000000000E+00  0.17629101972E+03  0.17629101972E+03  0.00000000000E+00 0. -1.
         -3   -1    0    0    0  501 -0.00000000000E+00 -0.00000000000E+00 -0.13167906398E+03  0.13167906398E+03  0.00000000000E+00 0.  1.
         25    2    1    2    0    0  0.10132784118E+03 -0.27728074373E+02  0.44195445095E+02  0.16916383244E+03  0.12500794907E+03 0.  0.
         23    2    1    2    0    0 -0.10132784118E+03  0.27728074373E+02  0.41651064270E+00  0.13880625126E+03  0.90723891016E+02 0.  0.
          5    1    3    3  502    0  0.53039285021E+02 -0.49233962332E+02  0.77793062548E+02  0.10635318229E+03  0.47000000000E+01 0.  1.
         -5    1    4    4    0  503 -0.82955141595E+02 -0.12977229255E+02 -0.24315005186E+02  0.87540124934E+02  0.47000000000E+01 0.  1.
          5    1    4    4  503    0 -0.18372699588E+02  0.40705303628E+02  0.24731515828E+02  0.51266126329E+02  0.47000000000E+01 0. -1.
         -5    1    3    3    0  502  0.48288556162E+02  0.21505887959E+02 -0.33597617453E+02  0.62810650146E+02  0.47000000000E+01 0.  1.
<mgrwt>
<rscale>  0 0.15679011E+03</rscale>
<asrwt>0</asrwt>
<pdfrwt beam="1">  1        3 0.27121695E-01 0.16328859E+03</pdfrwt>
<pdfrwt beam="2">  1       -3 0.20258317E-01 0.16328859E+03</pdfrwt>
<totfact> 0.67465006E+02</totfact>
</mgrwt>
</event>
<event>
 8    1  0.3520338E-004  0.2179368E+03  0.7546771E-02  0.1138934E+00
         -2   -1    0    0    0  501 -0.00000000000E+00  0.00000000000E+00  0.62854376439E+02  0.62854376439E+02  0.00000000000E+00 0.  1.
          2   -1    0    0  501    0  0.00000000000E+00 -0.00000000000E+00 -0.69863214628E+03  0.69863214628E+03  0.00000000000E+00 0. -1.
         25    2    1    2    0    0 -0.16029436687E+03 -0.78580988515E+02 -0.35725264867E+03  0.41848046541E+03  0.12500875624E+03 0.  0.
         23    2    1    2    0    0  0.16029436687E+03  0.78580988515E+02 -0.27852512116E+03  0.34300605731E+03  0.90596117044E+02 0.  0.
          5    1    4    4  502    0  0.47041573493E+02  0.24705712320E+02 -0.16629956393E+03  0.17464511679E+03  0.47000000000E+01 0. -1.
         -5    1    3    3    0  503 -0.21618392865E+02 -0.10954888171E+02 -0.18719352321E+03  0.18881437874E+03  0.47000000000E+01 0. -1.
          5    1    3    3  503    0 -0.13867597401E+03 -0.67626100344E+02 -0.17005912546E+03  0.22966608667E+03  0.47000000000E+01 0. -1.
         -5    1    4    4    0  502  0.11325279338E+03  0.53875276195E+02 -0.11222555724E+03  0.16836094051E+03  0.47000000000E+01 0.  1.
<mgrwt>
<rscale>  0 0.21335838E+03</rscale>
<asrwt>0</asrwt>
<pdfrwt beam="1">  1        2 0.10748187E+00 0.21793679E+03</pdfrwt>
<pdfrwt beam="2">  1       -2 0.96699039E-02 0.21793679E+03</pdfrwt>
<totfact> 0.29215444E+03</totfact>
</mgrwt>
</event>
<event>
 8    1  0.3520338E-004  0.3075998E+03  0.7546771E-02  0.1083003E+00
         -1   -1    0    0    0  501 -0.00000000000E+00  0.00000000000E+00  0.16973387817E+03  0.16973387817E+03  0.00000000000E+00 0. -1.
          1   -1    0    0  501    0  0.00000000000E+00 -0.00000000000E+00 -0.60010608711E+03  0.60010608711E+03  0.00000000000E+00 0.  1.
         25    2    1    2    0    0  0.27778265069E+03  0.42777703369E+02 -0.92944257625E+02  0.32133514154E+03  0.12499802092E+03 0.  0.
         23    2    1    2    0    0 -0.27778265069E+03 -0.42777703369E+02 -0.33742795132E+03  0.44850482374E+03  0.91136280712E+02 0.  0.
          5    1    4    4  502    0 -0.97851296997E+02 -0.22505360457E+02 -0.59630419161E+02  0.11687277041E+03  0.47000000000E+01 0. -1.
         -5    1    4    4    0  502 -0.17993135369E+03 -0.20272342912E+02 -0.27779753215E+03  0.33163205334E+03  0.47000000000E+01 0.  1.
          5    1    3    3  503    0  0.13817321137E+03  0.72472972750E+02 -0.10531822692E+02  0.15645183734E+03  0.47000000000E+01 0.  1.
         -5    1    3    3    0  503  0.13960943932E+03 -0.29695269381E+02 -0.82412434933E+02  0.16488330420E+03  0.47000000000E+01 0.  1.
<mgrwt>
<rscale>  0 0.30451989E+03</rscale>
<asrwt>0</asrwt>
<pdfrwt beam="1">  1        1 0.92324013E-01 0.30759980E+03</pdfrwt>
<pdfrwt beam="2">  1       -1 0.26112904E-01 0.30759980E+03</pdfrwt>
<totfact> 0.45667808E+02</totfact>
</mgrwt>
</event>
<event>
 8    1  0.3520338E-004  0.3181747E+03  0.7546771E-02  0.1077591E+00
         -1   -1    0    0    0  501 -0.00000000000E+00  0.00000000000E+00  0.10700764576E+03  0.10700764576E+03  0.00000000000E+00 0.  1.
          1   -1    0    0  501    0  0.00000000000E+00 -0.00000000000E+00 -0.94555757648E+03  0.94555757648E+03  0.00000000000E+00 0. -1.
         25    2    1    2    0    0  0.28959725223E+03 -0.41763468984E+02 -0.51433078895E+03  0.60479030783E+03  0.12499760054E+03 0.  0.
         23    2    1    2    0    0 -0.28959725223E+03  0.41763468984E+02 -0.32421914177E+03  0.44777491441E+03  0.98861348548E+02 0.  0.
          5    1    4    4  502    0 -0.88997027581E+02  0.48406846753E+02 -0.15487254542E+03  0.18512506328E+03  0.47000000000E+01 0. -1.
         -5    1    3    3    0  503  0.22152472586E+03 -0.81499850955E+02 -0.41967946242E+03  0.48152712390E+03  0.47000000000E+01 0. -1.
          5    1    3    3  503    0  0.68072526378E+02  0.39736381971E+02 -0.94651326530E+02  0.12326318393E+03  0.47000000000E+01 0. -1.
         -5    1    4    4    0  502 -0.20060022465E+03 -0.66433777691E+01 -0.16934659636E+03  0.26264985112E+03  0.47000000000E+01 0.  1.
<mgrwt>
<rscale>  0 0.31581582E+03</rscale>
<asrwt>0</asrwt>
<pdfrwt beam="1">  1        1 0.14547040E+00 0.31817473E+03</pdfrwt>
<pdfrwt beam="2">  1       -1 0.16462714E-01 0.31817473E+03</pdfrwt>
<totfact> 0.48741883E+02</totfact>
</mgrwt>
</event>
<event>
 8    1  0.3520338E-004  0.1327226E+03  0.7546771E-02  0.1236620E+00
         -1   -1    0    0    0  501 -0.00000000000E+00  0.00000000000E+00  0.35674431307E+02  0.35674431307E+02  0.00000000000E+00 0.  1.
          1   -1    0    0  501    0  0.00000000000E+00 -0.00000000000E+00 -0.38335778741E+03  0.38335778741E+03  0.00000000000E+00 0. -1.
         25    2    1    2    0    0  0.20430847715E+02  0.39660781242E+02 -0.19708221690E+03  0.23760615092E+03  0.12499954252E+03 0.  0.
         23    2    1    2    0    0 -0.20430847715E+02 -0.39660781242E+02 -0.15060113921E+03  0.18142606780E+03  0.90798225977E+02 0.  0.
          5    1    3    3  502    0  0.47170054534E+02 -0.31259990333E+02 -0.84449599294E+02  0.10176456093E+03  0.47000000000E+01 0. -1.
         -5    1    4    4    0  503  0.84344954562E+01 -0.48882424869E+02 -0.32691407521E+02  0.59594045846E+02  0.47000000000E+01 0.  1.
          5    1    4    4  503    0 -0.28865343171E+02  0.92216436267E+01 -0.11790973168E+03  0.12183202195E+03  0.47000000000E+01 0. -1.
         -5    1    3    3    0  502 -0.26739206819E+02  0.70920771575E+02 -0.11263261760E+03  0.13584158999E+03  0.47000000000E+01 0. -1.
<mgrwt>
<rscale>  0 0.12401325E+03</rscale>
<asrwt>0</asrwt>
<pdfrwt beam="1">  1        1 0.58978119E-01 0.13272258E+03</pdfrwt>
<pdfrwt beam="2">  1       -1 0.54883743E-02 0.13272258E+03</pdfrwt>
<totfact> 0.92834999E+03</totfact>
</mgrwt>
</event>
<event>
 8    1  0.3520338E-004  0.1279378E+03  0.7546771E-02  0.1244930E+00
         -2   -1    0    0    0  501 -0.00000000000E+00  0.00000000000E+00  0.37004675272E+02  0.37004675272E+02  0.00000000000E+00 0.  1.
          2   -1    0    0  501    0  0.00000000000E+00 -0.00000000000E+00 -0.34692350879E+03  0.34692350879E+03  0.00000000000E+00 0. -1.
         25    2    1    2    0    0 -0.12237923798E+02 -0.24345961262E+02 -0.14483989673E+03  0.19325288504E+03  0.12500235710E+03 0.  0.
         23    2    1    2    0    0  0.12237923798E+02  0.24345961262E+02 -0.16507893678E+03  0.19067529902E+03  0.91452291822E+02 0.  0.
          5    1    4    4  502    0  0.22619455992E+02  0.64293611987E+01 -0.16758694632E+03  0.16929397820E+03  0.47000000000E+01 0. -1.
         -5    1    4    4    0  502 -0.10381532194E+02  0.17916600063E+02  0.25080095407E+01  0.21381320829E+02  0.47000000000E+01 0.  1.
          5    1    3    3  503    0 -0.22471859501E+02  0.47394364514E+02 -0.80707745363E+02  0.96369291886E+02  0.47000000000E+01 0.  1.
         -5    1    3    3    0  503  0.10233935703E+02 -0.71740325776E+02 -0.64132151371E+02  0.96883593151E+02  0.47000000000E+01 0.  1.
<mgrwt>
<rscale>  0 0.11889544E+03</rscale>
<asrwt>0</asrwt>
<pdfrwt beam="1">  1        2 0.53372848E-01 0.12793780E+03</pdfrwt>
<pdfrwt beam="2">  1       -2 0.56930269E-02 0.12793780E+03</pdfrwt>
<totfact> 0.14035134E+04</totfact>
</mgrwt>
</event>
<event>
 8    1  0.3520338E-004  0.1280325E+03  0.7546771E-02  0.1245841E+00
         -3   -1    0    0    0  501 -0.00000000000E+00  0.00000000000E+00  0.65710572816E+03  0.65710572816E+03  0.00000000000E+00 0.  1.
          3   -1    0    0  501    0  0.00000000000E+00 -0.00000000000E+00 -0.18800770753E+02  0.18800770753E+02  0.00000000000E+00 0. -1.
         25    2    1    2    0    0 -0.16133117670E+02  0.22515189682E+02  0.39655544915E+03  0.41671159979E+03  0.12500048759E+03 0.  0.
         23    2    1    2    0    0  0.16133117670E+02 -0.22515189682E+02  0.24174950826E+03  0.25919489912E+03  0.89285831665E+02 0.  0.
          5    1    3    3  502    0  0.40209672326E+02  0.49240779355E+02  0.23445093574E+03  0.24296255549E+03  0.47000000000E+01 0.  1.
         -5    1    3    3    0  502 -0.56342789996E+02 -0.26725589674E+02  0.16210451341E+03  0.17374904430E+03  0.47000000000E+01 0.  1.
          5    1    4    4  503    0  0.30662084021E+01  0.25646020840E+02  0.23404883182E+02  0.35170990541E+02  0.47000000000E+01 0. -1.
         -5    1    4    4    0  503  0.13066909268E+02 -0.48161210521E+02  0.21834462507E+03  0.22402390858E+03  0.47000000000E+01 0.  1.
<mgrwt>
<rscale>  0 0.11835158E+03</rscale>
<asrwt>0</asrwt>
<pdfrwt beam="1">  1        3 0.28924268E-02 0.12803255E+03</pdfrwt>
<pdfrwt beam="2">  1       -3 0.10109317E+00 0.12803255E+03</pdfrwt>
<totfact> 0.10880268E+03</totfact>
</mgrwt>
</event>
<event>
 8    1  0.3520338E-004  0.1890971E+03  0.7546771E-02  0.1163806E+00
          3   -1    0    0  501    0  0.00000000000E+00  0.00000000000E+00  0.10279037366E+04  0.10279037366E+04  0.00000000000E+00 0. -1.
         -3   -1    0    0    0  501 -0.00000000000E+00 -0.00000000000E+00 -0.31416973176E+02  0.31416973176E+02  0.00000000000E+00 0.  1.
         25    2    1    2    0    0 -0.82619332515E+02 -0.11535539976E+03  0.53571370146E+03  0.56810816637E+03  0.12499958561E+03 0.  0.
         23    2    1    2    0    0  0.82619332515E+02  0.11535539976E+03  0.46077306197E+03  0.49121254341E+03  0.94048529028E+02 0.  0.
          5    1    4    4  502    0 -0.89823870127E+01  0.49438173029E+02  0.21318026205E+03  0.21907243176E+03  0.47000000000E+01 0. -1.
         -5    1    3    3    0  503 -0.34077923119E+02 -0.85046913857E+02  0.13451215809E+03  0.16281858946E+03  0.47000000000E+01 0.  1.
          5    1    3    3  503    0 -0.48541409396E+02 -0.30308485900E+02  0.40120154337E+03  0.40528957691E+03  0.47000000000E+01 0.  1.
         -5    1    4    4    0  502  0.91601719528E+02  0.65917226728E+02  0.24759279992E+03  0.27214011165E+03  0.47000000000E+01 0.  1.
<mgrwt>
<rscale>  0 0.18419258E+03</rscale>
<asrwt>0</asrwt>
<pdfrwt beam="1">  1        3 0.15813901E+00 0.18909711E+03</pdfrwt>
<pdfrwt beam="2">  1       -3 0.48333813E-02 0.18909711E+03</pdfrwt>
<totfact> 0.17592785E+02</totfact>
</mgrwt>
</event>
<event>
 8    1  0.3520338E-004  0.1400521E+03  0.7546771E-02  0.1224844E+00
         -1   -1    0    0    0  501 -0.00000000000E+00  0.00000000000E+00  0.18037895324E+03  0.18037895324E+03  0.00000000000E+00 0.  1.
          1   -1    0    0  501    0  0.00000000000E+00 -0.00000000000E+00 -0.96712269788E+02  0.96712269788E+02  0.00000000000E+00 0. -1.
         25    2    1    2    0    0  0.59749288274E+02 -0.20490531653E+02  0.16435792423E+01  0.14006174739E+03  0.12499900957E+03 0.  0.
         23    2    1    2    0    0 -0.59749288274E+02  0.20490531653E+02  0.82023104212E+02  0.13702947564E+03  0.89774429725E+02 0.  0.
          5    1    4    4  502    0  0.15586513393E+02  0.25572210411E+02  0.83797493676E+01  0.31451352030E+02  0.47000000000E+01 0. -1.
         -5    1    3    3    0  503 -0.35427221668E+02 -0.25382940852E+02  0.74678060911E+01  0.44466165219E+02  0.47000000000E+01 0.  1.
          5    1    3    3  503    0  0.95176509942E+02  0.48924091997E+01 -0.58242268488E+01  0.95595582173E+02  0.47000000000E+01 0.  1.
         -5    1    4    4    0  502 -0.75335801667E+02 -0.50816787582E+01  0.73643354844E+02  0.10557812361E+03  0.47000000000E+01 0.  1.
<mgrwt>
<rscale>  0 0.13177633E+03</rscale>
<asrwt>0</asrwt>
<pdfrwt beam="1">  1        1 0.14878811E-01 0.14005210E+03</pdfrwt>
<pdfrwt beam="2">  1       -1 0.27750608E-01 0.14005210E+03</pdfrwt>
<totfact> 0.42192211E+03</totfact>
</mgrwt>
</event>
<event>
 8    1  0.3520338E-004  0.1288715E+03  0.7546771E-02  0.1241966E+00
          1   -1    0    0  501    0  0.00000000000E+00  0.00000000000E+00  0.79041560742E+02  0.79041560742E+02  0.00000000000E+00 0. -1.
         -1   -1    0    0    0  501 -0.00000000000E+00 -0.00000000000E+00 -0.20347938474E+03  0.20347938474E+03  0.00000000000E+00 0.  1.
         25    2    1    2    0    0 -0.22920535562E+02  0.21406868718E+02 -0.73111842636E+01  0.12907869365E+03  0.12499700300E+03 0.  0.
         23    2    1    2    0    0  0.22920535562E+02 -0.21406868718E+02 -0.11712663974E+03  0.15344225184E+03  0.94033344801E+02 0.  0.
          5    1    3    3  502    0  0.19182111284E+02  0.58999607934E+02 -0.28723571390E+02  0.68527663633E+02  0.47000000000E+01 0. -1.
         -5    1    3    3    0  502 -0.42102646845E+02 -0.37592739216E+02  0.21412387127E+02  0.60551030013E+02  0.47000000000E+01 0. -1.
          5    1    4    4  503    0 -0.21990548062E+02  0.87152319641E+01  0.25410530573E+00  0.24118334141E+02  0.47000000000E+01 0. -1.
         -5    1    4    4    0  503  0.44911083623E+02 -0.30122100682E+02 -0.11738074504E+03  0.12932391770E+03  0.47000000000E+01 0.  1.
<mgrwt>
<rscale>  0 0.12068797E+03</rscale>
<asrwt>0</asrwt>
<pdfrwt beam="1">  1        1 0.12160240E-01 0.12887147E+03</pdfrwt>
<pdfrwt beam="2">  1       -1 0.31304520E-01 0.12887147E+03</pdfrwt>
<totfact> 0.44616013E+03</totfact>
</mgrwt>
</event>
<event>
 8    1  0.3520338E-004  0.1516744E+03  0.7546771E-02  0.1206937E+00
          1   -1    0    0  501    0  0.00000000000E+00  0.00000000000E+00  0.18286996428E+03  0.18286996428E+03  0.00000000000E+00 0. -1.
         -1   -1    0    0    0  501 -0.00000000000E+00 -0.00000000000E+00 -0.10716226620E+03  0.10716226620E+03  0.00000000000E+00 0.  1.
         25    2    1    2    0    0 -0.27563050648E+02  0.81357732662E+02  0.58959333723E+02  0.16273088269E+03  0.12500533878E+03 0.  0.
         23    2    1    2    0    0  0.27563050648E+02 -0.81357732662E+02  0.16748364366E+02  0.12730134779E+03  0.92446325046E+02 0.  0.
          5    1    3    3  502    0 -0.56869679192E+02  0.36860581647E+02  0.80266291523E+02  0.10515526827E+03  0.47000000000E+01 0.  1.
         -5    1    3    3    0  502  0.29306628545E+02  0.44497151015E+02 -0.21306957800E+02  0.57575614420E+02  0.47000000000E+01 0.  1.
          5    1    4    4  503    0  0.43349925905E+02 -0.59629503056E+00  0.27273523038E+01  0.43693249986E+02  0.47000000000E+01 0. -1.
         -5    1    4    4    0  503 -0.15786875257E+02 -0.80761437632E+02  0.14021012062E+02  0.83608097801E+02  0.47000000000E+01 0.  1.
<mgrwt>
<rscale>  0 0.14485873E+03</rscale>
<asrwt>0</asrwt>
<pdfrwt beam="1">  1        1 0.28133841E-01 0.15167444E+03</pdfrwt>
<pdfrwt beam="2">  1       -1 0.16486503E-01 0.15167444E+03</pdfrwt>
<totfact> 0.43806890E+03</totfact>
</mgrwt>
</event>
<event>
 8    1  0.3520338E-004  0.1381822E+03  0.7546771E-02  0.1228188E+00
          2   -1    0    0  501    0  0.00000000000E+00  0.00000000000E+00  0.12794127536E+04  0.12794127536E+04  0.00000000000E+00 0. -1.
         -2   -1    0    0    0  501 -0.00000000000E+00 -0.00000000000E+00 -0.13576729541E+02  0.13576729541E+02  0.00000000000E+00 0.  1.
         25    2    1    2    0    0  0.47854832286E+02  0.34382400063E+02  0.94131580650E+03  0.95140410008E+03  0.12498831820E+03 0.  0.
         23    2    1    2    0    0 -0.47854832286E+02 -0.34382400063E+02  0.32452021751E+03  0.34158538301E+03  0.88853631909E+02 0.  0.
          5    1    3    3  502    0 -0.63705567643E+01  0.71684752207E+02  0.50742400520E+03  0.51252365677E+03  0.47000000000E+01 0. -1.
         -5    1    3    3    0  502  0.54225389050E+02 -0.37302352144E+02  0.43389180129E+03  0.43888044331E+03  0.47000000000E+01 0. -1.
          5    1    4    4  503    0 -0.30165456294E+02 -0.10323453826E+02  0.30243567033E+03  0.30414791326E+03  0.47000000000E+01 0. -1.
         -5    1    4    4    0  503 -0.17689375991E+02 -0.24058946237E+02  0.22084547185E+02  0.37437469751E+02  0.47000000000E+01 0.  1.
<mgrwt>
<rscale>  0 0.12950774E+03</rscale>
<asrwt>0</asrwt>
<pdfrwt beam="1">  1        2 0.19683264E+00 0.13818218E+03</pdfrwt>
<pdfrwt beam="2">  1       -2 0.20887286E-02 0.13818218E+03</pdfrwt>
<totfact> 0.12645865E+04</totfact>
</mgrwt>
</event>
<event>
 8    1  0.3520338E-004  0.1613752E+03  0.7546771E-02  0.1194633E+00
          1   -1    0    0  501    0  0.00000000000E+00  0.00000000000E+00  0.67897802820E+03  0.67897802820E+03  0.00000000000E+00 0. -1.
         -1   -1    0    0    0  501 -0.00000000000E+00 -0.00000000000E+00 -0.36984941947E+02  0.36984941947E+02  0.00000000000E+00 0.  1.
         25    2    1    2    0    0  0.76219745743E+02 -0.67872937762E+02  0.22350404336E+03  0.27567376062E+03  0.12500311826E+03 0.  0.
         23    2    1    2    0    0 -0.76219745743E+02  0.67872937762E+02  0.41848904289E+03  0.44028920953E+03  0.91133548612E+02 0.  0.
          5    1    3    3  502    0 -0.31834530635E+02 -0.36158910091E+02  0.60111812650E+02  0.77177873382E+02  0.47000000000E+01 0. -1.
         -5    1    4    4    0  503 -0.50403009557E+02  0.30783365667E+01  0.80477647751E+02  0.95124556851E+02  0.47000000000E+01 0.  1.
          5    1    4    4  503    0 -0.25816736185E+02  0.64794601195E+02  0.33801139514E+03  0.34516465268E+03  0.47000000000E+01 0. -1.
         -5    1    3    3    0  502  0.10805427638E+03 -0.31714027671E+02  0.16339223071E+03  0.19849588724E+03  0.47000000000E+01 0. -1.
<mgrwt>
<rscale>  0 0.15485323E+03</rscale>
<asrwt>0</asrwt>
<pdfrwt beam="1">  1        1 0.10445815E+00 0.16137523E+03</pdfrwt>
<pdfrwt beam="2">  1       -1 0.56899916E-02 0.16137523E+03</pdfrwt>
<totfact> 0.41789366E+03</totfact>
</mgrwt>
</event>
<event>
 8    1  0.3520338E-004  0.1639621E+03  0.7546771E-02  0.1191554E+00
         -1   -1    0    0    0  501 -0.00000000000E+00  0.00000000000E+00  0.45725201131E+02  0.45725201131E+02  0.00000000000E+00 0.  1.
          1   -1    0    0  501    0  0.00000000000E+00 -0.00000000000E+00 -0.50580416183E+03  0.50580416183E+03  0.00000000000E+00 0. -1.
         25    2    1    2    0    0  0.95898998821E+02 -0.45404444354E+02 -0.26586796165E+03  0.31236093682E+03  0.12500160110E+03 0.  0.
         23    2    1    2    0    0 -0.95898998821E+02  0.45404444354E+02 -0.19421099905E+03  0.23916842614E+03  0.90694224561E+02 0.  0.
          5    1    3    3  502    0  0.60241517919E+02  0.38059031241E+02 -0.95246853930E+02  0.11904446028E+03  0.47000000000E+01 0. -1.
         -5    1    4    4    0  503 -0.85138249536E+02  0.64729207755E+02 -0.11642426865E+03  0.15816160154E+03  0.47000000000E+01 0.  1.
          5    1    4    4  503    0 -0.10760749285E+02 -0.19324763401E+02 -0.77786730402E+02  0.81006824603E+02  0.47000000000E+01 0. -1.
         -5    1    3    3    0  502  0.35657480902E+02 -0.83463475595E+02 -0.17062110772E+03  0.19331647654E+03  0.47000000000E+01 0. -1.
<mgrwt>
<rscale>  0 0.15749486E+03</rscale>
<asrwt>0</asrwt>
<pdfrwt beam="1">  1        1 0.77816028E-01 0.16396214E+03</pdfrwt>
<pdfrwt beam="2">  1       -1 0.70346461E-02 0.16396214E+03</pdfrwt>
<totfact> 0.45460589E+03</totfact>
</mgrwt>
</event>
<event>
 8    1  0.3520338E-004  0.1722681E+03  0.7546771E-02  0.1180646E+00
         -1   -1    0    0    0  501 -0.00000000000E+00  0.00000000000E+00  0.45976020168E+02  0.45976020168E+02  0.00000000000E+00 0.  1.
          1   -1    0    0  501    0  0.00000000000E+00 -0.00000000000E+00 -0.74158855003E+03  0.74158855003E+03  0.00000000000E+00 0. -1.
         25    2    1    2    0    0 -0.44918024124E+02  0.10969887035E+03 -0.17804580161E+03  0.24774301997E+03  0.12499930171E+03 0.  0.
         23    2    1    2    0    0  0.44918024124E+02 -0.10969887035E+03 -0.51756672826E+03  0.53982155023E+03  0.97367945662E+02 0.  0.
          5    1    4    4  502    0  0.21863347631E+02 -0.62161331950E+02 -0.44532619725E+03  0.45019945482E+03  0.47000000000E+01 0. -1.
         -5    1    4    4    0  502  0.23054676494E+02 -0.47537538401E+02 -0.72240531005E+02  0.89622095408E+02  0.47000000000E+01 0.  1.
          5    1    3    3  503    0 -0.33568149818E+02 -0.19989676833E+02 -0.61138608122E+02  0.72707821211E+02  0.47000000000E+01 0. -1.
         -5    1    3    3    0  503 -0.11349874307E+02  0.12968854718E+03 -0.11690719349E+03  0.17503519876E+03  0.47000000000E+01 0. -1.
<mgrwt>
<rscale>  0 0.16734432E+03</rscale>
<asrwt>0</asrwt>
<pdfrwt beam="1">  1        1 0.11409054E+00 0.17226809E+03</pdfrwt>
<pdfrwt beam="2">  1       -1 0.70732340E-02 0.17226809E+03</pdfrwt>
<totfact> 0.26587144E+03</totfact>
</mgrwt>
</event>
<event>
 8    1  0.3520338E-004  0.1366731E+03  0.7546771E-02  0.1229368E+00
          1   -1    0    0  501    0  0.00000000000E+00  0.00000000000E+00  0.40756667965E+03  0.40756667965E+03  0.00000000000E+00 0. -1.
         -1   -1    0    0    0  501 -0.00000000000E+00 -0.00000000000E+00 -0.38507894936E+02  0.38507894936E+02  0.00000000000E+00 0.  1.
         25    2    1    2    0    0  0.30967780508E+02  0.45759228464E+02  0.25501912495E+03  0.28933422200E+03  0.12500650986E+03 0.  0.
         23    2    1    2    0    0 -0.30967780508E+02 -0.45759228464E+02  0.11403965976E+03  0.15674035259E+03  0.92247404909E+02 0.  0.
          5    1    4    4  502    0  0.28460948955E+01  0.20916270415E+02  0.16676299564E+01  0.21690127107E+02  0.47000000000E+01 0. -1.
         -5    1    4    4    0  502 -0.33813875404E+02 -0.66675498879E+02  0.11237202981E+03  0.13505022548E+03  0.47000000000E+01 0.  1.
          5    1    3    3  503    0  0.19235540407E+02 -0.42823655265E+02  0.86148392481E+02  0.98221723626E+02  0.47000000000E+01 0.  1.
         -5    1    3    3    0  503  0.11732240102E+02  0.88582883729E+02  0.16887073247E+03  0.19111249837E+03  0.47000000000E+01 0.  1.
<mgrwt>
<rscale>  0 0.12871932E+03</rscale>
<asrwt>0</asrwt>
<pdfrwt beam="1">  1        1 0.62702563E-01 0.13667311E+03</pdfrwt>
<pdfrwt beam="2">  1       -1 0.59242918E-02 0.13667311E+03</pdfrwt>
<totfact> 0.76870472E+03</totfact>
</mgrwt>
</event>
<event>
 8    1  0.3520338E-004  0.1750767E+03  0.7546771E-02  0.1178567E+00
         -2   -1    0    0    0  501 -0.00000000000E+00  0.00000000000E+00  0.77300057619E+02  0.77300057619E+02  0.00000000000E+00 0.  1.
          2   -1    0    0  501    0  0.00000000000E+00 -0.00000000000E+00 -0.34859227414E+03  0.34859227414E+03  0.00000000000E+00 0. -1.
         25    2    1    2    0    0  0.69491245757E+01 -0.12238847034E+03 -0.13952140656E+03  0.22387069635E+03  0.12499855115E+03 0.  0.
         23    2    1    2    0    0 -0.69491245757E+01  0.12238847034E+03 -0.13177080996E+03  0.20202163541E+03  0.91771274447E+02 0.  0.
          5    1    4    4  502    0  0.31421443440E+02  0.10677264691E+03 -0.93819451405E+02  0.14564300429E+03  0.47000000000E+01 0. -1.
         -5    1    4    4    0  502 -0.38370568016E+02  0.15615823423E+02 -0.37951358555E+02  0.56378631122E+02  0.47000000000E+01 0.  1.
          5    1    3    3  503    0  0.33631769382E+02 -0.10421433887E+03 -0.15330209942E+03  0.18845516184E+03  0.47000000000E+01 0.  1.
         -5    1    3    3    0  503 -0.26682644807E+02 -0.18174131468E+02  0.13780692862E+02  0.35415534505E+02  0.47000000000E+01 0.  1.
<mgrwt>
<rscale>  0 0.16931184E+03</rscale>
<asrwt>0</asrwt>
<pdfrwt beam="1">  1        2 0.53629581E-01 0.17507674E+03</pdfrwt>
<pdfrwt beam="2">  1       -2 0.11892316E-01 0.17507674E+03</pdfrwt>
<totfact> 0.45394376E+03</totfact>
</mgrwt>
</event>
<event>
 8    1  0.3520338E-004  0.3640190E+03  0.7546771E-02  0.1057981E+00
          2   -1    0    0  501    0  0.00000000000E+00  0.00000000000E+00  0.18218994827E+04  0.18218994827E+04  0.00000000000E+00 0. -1.
         -2   -1    0    0    0  501 -0.00000000000E+00 -0.00000000000E+00 -0.83739310776E+02  0.83739310776E+02  0.00000000000E+00 0.  1.
         25    2    1    2    0    0 -0.14547047584E+03  0.30938948560E+03  0.12540542604E+04  0.13058184853E+04  0.12500526107E+03 0.  0.
         23    2    1    2    0    0  0.14547047584E+03 -0.30938948560E+03  0.48410591154E+03  0.59982030822E+03  0.92424863685E+02 0.  0.
          5    1    3    3  502    0 -0.51982614253E+02  0.75961193533E+02  0.17436153086E+03  0.19722152152E+03  0.47000000000E+01 0. -1.
         -5    1    3    3    0  502 -0.93487861589E+02  0.23342829207E+03  0.10796927295E+04  0.11085969637E+04  0.47000000000E+01 0. -1.
          5    1    4    4  503    0  0.46538010405E+02 -0.11041006563E+03  0.10042012220E+03  0.15640479516E+03  0.47000000000E+01 0. -1.
         -5    1    4    4    0  503  0.98932465437E+02 -0.19897941997E+03  0.38368578933E+03  0.44341551307E+03  0.47000000000E+01 0.  1.
<mgrwt>
<rscale>  0 0.36152757E+03</rscale>
<asrwt>0</asrwt>
<pdfrwt beam="1">  1        2 0.28029220E+00 0.36401899E+03</pdfrwt>
<pdfrwt beam="2">  1       -2 0.12882972E-01 0.36401899E+03</pdfrwt>
<totfact> 0.40131125E+02</totfact>
</mgrwt>
</event>
<event>
 8    1  0.3520338E-004  0.1581457E+03  0.7546771E-02  0.1198835E+00
          2   -1    0    0  501    0  0.00000000000E+00  0.00000000000E+00  0.44242262320E+03  0.44242262320E+03  0.00000000000E+00 0. -1.
         -2   -1    0    0    0  501 -0.00000000000E+00 -0.00000000000E+00 -0.61213619288E+02  0.61213619288E+02  0.00000000000E+00 0.  1.
         25    2    1    2    0    0 -0.39288578769E+02  0.88548753036E+02  0.86036792097E+02  0.18003445523E+03  0.12500240554E+03 0.  0.
         23    2    1    2    0    0  0.39288578769E+02 -0.88548753036E+02  0.29517221181E+03  0.32360178725E+03  0.90592538320E+02 0.  0.
          5    1    4    4  502    0 -0.30569770732E+01 -0.85284902831E+02  0.15428202373E+03  0.17637429690E+03  0.47000000000E+01 0. -1.
         -5    1    4    4    0  502  0.42345555843E+02 -0.32638502049E+01  0.14089018808E+03  0.14722749035E+03  0.47000000000E+01 0.  1.
          5    1    3    3  503    0 -0.45226627735E+02  0.27773906368E+02  0.10344755459E+03  0.11636289908E+03  0.47000000000E+01 0.  1.
         -5    1    3    3    0  503  0.59380489656E+01  0.60774846668E+02 -0.17410762491E+02  0.63671556158E+02  0.47000000000E+01 0.  1.
<mgrwt>
<rscale>  0 0.15134077E+03</rscale>
<asrwt>0</asrwt>
<pdfrwt beam="1">  1        2 0.68065017E-01 0.15814574E+03</pdfrwt>
<pdfrwt beam="2">  1       -2 0.94174801E-02 0.15814574E+03</pdfrwt>
<totfact> 0.50607176E+03</totfact>
</mgrwt>
</event>
<event>
 8    1  0.3520338E-004  0.1478971E+03  0.7546771E-02  0.1212807E+00
         -4   -1    0    0    0  501 -0.00000000000E+00  0.00000000000E+00  0.25716681463E+03  0.25716681463E+03  0.00000000000E+00 0.  1.
          4   -1    0    0  501    0  0.00000000000E+00 -0.00000000000E+00 -0.71937088717E+02  0.71937088717E+02  0.00000000000E+00 0. -1.
         25    2    1    2    0    0  0.89430103699E+01  0.78525107905E+02  0.13010804749E+03  0.19698137258E+03  0.12500954811E+03 0.  0.
         23    2    1    2    0    0 -0.89430103699E+01 -0.78525107905E+02  0.55121678427E+02  0.13212253076E+03  0.90397973966E+02 0.  0.
          5    1    3    3  502    0  0.53927881695E+02  0.61601232310E+02  0.32749518224E+02  0.88303732595E+02  0.47000000000E+01 0.  1.
         -5    1    4    4    0  503  0.15753831643E+02 -0.44742199875E+02  0.72335935284E+02  0.86629239836E+02  0.47000000000E+01 0.  1.
          5    1    4    4  503    0 -0.24696842013E+02 -0.33782908031E+02 -0.17214256858E+02  0.45493290929E+02  0.47000000000E+01 0. -1.
         -5    1    3    3    0  502 -0.44984871325E+02  0.16923875595E+02  0.97358529264E+02  0.10867763999E+03  0.47000000000E+01 0.  1.
<mgrwt>
<rscale>  0 0.14038890E+03</rscale>
<asrwt>0</asrwt>
<pdfrwt beam="1">  1        4 0.11067245E-01 0.14789712E+03</pdfrwt>
<pdfrwt beam="2">  1       -4 0.39564125E-01 0.14789712E+03</pdfrwt>
<totfact> 0.66836137E+02</totfact>
</mgrwt>
</event>
<event>
 8    1  0.3520338E-004  0.1375316E+03  0.7546771E-02  0.1229160E+00
         -2   -1    0    0    0  501 -0.00000000000E+00  0.00000000000E+00  0.68591425351E+02  0.68591425351E+02  0.00000000000E+00 0.  1.
          2   -1    0    0  501    0  0.00000000000E+00 -0.00000000000E+00 -0.27125610164E+03  0.27125610164E+03  0.00000000000E+00 0. -1.
         25    2    1    2    0    0  0.50292609538E+02 -0.27578716409E+02 -0.35706656322E+02  0.14209116661E+03  0.12500000860E+03 0.  0.
         23    2    1    2    0    0 -0.50292609538E+02  0.27578716409E+02 -0.16695801997E+03  0.19775636038E+03  0.89121632993E+02 0.  0.
          5    1    3    3  502    0  0.69210928651E+02 -0.40813284178E+02  0.18850345109E+02  0.82663790869E+02  0.47000000000E+01 0.  1.
         -5    1    3    3    0  502 -0.18918319113E+02  0.13234567769E+02 -0.54557001431E+02  0.59427375739E+02  0.47000000000E+01 0.  1.
          5    1    4    4  503    0 -0.17234462222E+02  0.46364219577E+02 -0.14570550019E+03  0.15394430918E+03  0.47000000000E+01 0. -1.
         -5    1    4    4    0  503 -0.33058147316E+02 -0.18785503168E+02 -0.21252519779E+02  0.43812051198E+02  0.47000000000E+01 0.  1.
<mgrwt>
<rscale>  0 0.12885813E+03</rscale>
<asrwt>0</asrwt>
<pdfrwt beam="1">  1        2 0.41731708E-01 0.13753158E+03</pdfrwt>
<pdfrwt beam="2">  1       -2 0.10552527E-01 0.13753158E+03</pdfrwt>
<totfact> 0.70734381E+03</totfact>
</mgrwt>
</event>
<event>
 8    1  0.3520338E-004  0.1350759E+03  0.7546771E-02  0.1232395E+00
          2   -1    0    0  501    0  0.00000000000E+00  0.00000000000E+00  0.26665329963E+03  0.26665329963E+03  0.00000000000E+00 0. -1.
         -2   -1    0    0    0  501 -0.00000000000E+00 -0.00000000000E+00 -0.63968275829E+02  0.63968275829E+02  0.00000000000E+00 0.  1.
         25    2    1    2    0    0 -0.43134579893E+02 -0.27495434444E+02  0.17737863012E+03  0.22295444760E+03  0.12501566455E+03 0.  0.
         23    2    1    2    0    0  0.43134579893E+02  0.27495434444E+02  0.25306393682E+02  0.10766712786E+03  0.91297349159E+02 0.  0.
          5    1    3    3  502    0 -0.68269782018E+02  0.25541757210E+02  0.73955698358E+02  0.10394556180E+03  0.47000000000E+01 0. -1.
         -5    1    3    3    0  502  0.25135202125E+02 -0.53037191654E+02  0.10342293176E+03  0.11900888580E+03  0.47000000000E+01 0. -1.
          5    1    4    4  503    0  0.28928390970E+02  0.40072400677E+00  0.56545654638E+02  0.63690764184E+02  0.47000000000E+01 0. -1.
         -5    1    4    4    0  503  0.14206188923E+02  0.27094710438E+02 -0.31239260957E+02  0.43976363680E+02  0.47000000000E+01 0.  1.
<mgrwt>
<rscale>  0 0.12672700E+03</rscale>
<asrwt>0</asrwt>
<pdfrwt beam="1">  1        2 0.41023584E-01 0.13507593E+03</pdfrwt>
<pdfrwt beam="2">  1       -2 0.98412733E-02 0.13507593E+03</pdfrwt>
<totfact> 0.80295293E+03</totfact>
</mgrwt>
</event>
<event>
 8    1  0.3520338E-004  0.1406621E+03  0.7546771E-02  0.1224535E+00
          1   -1    0    0  501    0  0.00000000000E+00  0.00000000000E+00  0.18450494040E+03  0.18450494040E+03  0.00000000000E+00 0. -1.
         -1   -1    0    0    0  501 -0.00000000000E+00 -0.00000000000E+00 -0.86332640216E+02  0.86332640216E+02  0.00000000000E+00 0.  1.
         25    2    1    2    0    0 -0.51916947381E+01 -0.64290888543E+02  0.35530526738E+02  0.14508011876E+03  0.12500220192E+03 0.  0.
         23    2    1    2    0    0  0.51916947381E+01  0.64290888543E+02  0.62641773446E+02  0.12575746186E+03  0.87924259392E+02 0.  0.
          5    1    4    4  502    0 -0.14039199171E+02  0.19466598013E+02  0.71850043935E+02  0.75898395009E+02  0.47000000000E+01 0. -1.
         -5    1    4    4    0  502  0.19230893909E+02  0.44824290530E+02 -0.92082704888E+01  0.49859066853E+02  0.47000000000E+01 0.  1.
          5    1    3    3  503    0 -0.45768671157E+02 -0.14083018897E+02 -0.26922948205E+02  0.55136537983E+02  0.47000000000E+01 0.  1.
         -5    1    3    3    0  503  0.40576976418E+02 -0.50207869645E+02  0.62453474943E+02  0.89943580772E+02  0.47000000000E+01 0.  1.
<mgrwt>
<rscale>  0 0.13198812E+03</rscale>
<asrwt>0</asrwt>
<pdfrwt beam="1">  1        1 0.28385375E-01 0.14066209E+03</pdfrwt>
<pdfrwt beam="2">  1       -1 0.13281945E-01 0.14066209E+03</pdfrwt>
<totfact> 0.60532659E+03</totfact>
</mgrwt>
</event>
<event>
 8    1  0.3520338E-004  0.1262673E+03  0.7546771E-02  0.1247995E+00
         -1   -1    0    0    0  501 -0.00000000000E+00  0.00000000000E+00  0.36042785182E+02  0.36042785182E+02  0.00000000000E+00 0.  1.
          1   -1    0    0  501    0  0.00000000000E+00 -0.00000000000E+00 -0.39147542466E+03  0.39147542466E+03  0.00000000000E+00 0. -1.
         25    2    1    2    0    0  0.14338024466E+02  0.10660798036E+02 -0.28125003717E+03  0.30829373417E+03  0.12499684620E+03 0.  0.
         23    2    1    2    0    0 -0.14338024466E+02 -0.10660798036E+02 -0.74182602307E+02  0.11922447567E+03  0.91608872679E+02 0.  0.
          5    1    3    3  502    0 -0.74159399191E+01 -0.55340424908E+02 -0.11082728411E+03  0.12418669694E+03  0.47000000000E+01 0.  1.
         -5    1    4    4    0  503 -0.44407611702E+02  0.14220625663E+02 -0.17042503598E+02  0.49867816276E+02  0.47000000000E+01 0.  1.
          5    1    4    4  503    0  0.30069587236E+02 -0.24881423699E+02 -0.57140098710E+02  0.69356659394E+02  0.47000000000E+01 0. -1.
         -5    1    3    3    0  502  0.21753964385E+02  0.66001222944E+02 -0.17042275306E+03  0.18410703723E+03  0.47000000000E+01 0.  1.
<mgrwt>
<rscale>  0 0.11707911E+03</rscale>
<asrwt>0</asrwt>
<pdfrwt beam="1">  1        1 0.60226991E-01 0.12626735E+03</pdfrwt>
<pdfrwt beam="2">  1       -1 0.55450436E-02 0.12626735E+03</pdfrwt>
<totfact> 0.88736623E+03</totfact>
</mgrwt>
</event>
<event>
 8    1  0.3520338E-004  0.2490638E+03  0.7546771E-02  0.1117148E+00
         -2   -1    0    0    0  501 -0.00000000000E+00  0.00000000000E+00  0.79340657309E+02  0.79340657309E+02  0.00000000000E+00 0.  1.
          2   -1    0    0  501    0  0.00000000000E+00 -0.00000000000E+00 -0.81357012077E+03  0.81357012077E+03  0.00000000000E+00 0. -1.
         25    2    1    2    0    0  0.69897328503E+02  0.20376853637E+03 -0.23040909308E+03  0.33929505433E+03  0.12500212308E+03 0.  0.
         23    2    1    2    0    0 -0.69897328503E+02 -0.20376853637E+03 -0.50382037038E+03  0.55361572375E+03  0.79045246669E+02 0.  0.
          5    1    3    3  502    0  0.59055794759E+02  0.15233272721E+03 -0.84215858534E+02  0.18386747266E+03  0.47000000000E+01 0.  1.
         -5    1    3    3    0  502  0.10841533743E+02  0.51435809165E+02 -0.14619323455E+03  0.15542758167E+03  0.47000000000E+01 0.  1.
          5    1    4    4  503    0 -0.41187075674E+02 -0.37705556431E+02 -0.18022639709E+03  0.18873719399E+03  0.47000000000E+01 0. -1.
         -5    1    4    4    0  503 -0.28710252828E+02 -0.16606297994E+03 -0.32359397329E+03  0.36487852975E+03  0.47000000000E+01 0.  1.
<mgrwt>
<rscale>  0 0.24401321E+03</rscale>
<asrwt>0</asrwt>
<pdfrwt beam="1">  1        2 0.12516463E+00 0.24906381E+03</pdfrwt>
<pdfrwt beam="2">  1       -2 0.12206255E-01 0.24906381E+03</pdfrwt>
<totfact> 0.16676603E+03</totfact>
</mgrwt>
</event>
<event>
 8    1  0.3520338E-004  0.1587235E+03  0.7546771E-02  0.1197228E+00
         -2   -1    0    0    0  501 -0.00000000000E+00  0.00000000000E+00  0.54023069361E+02  0.54023069361E+02  0.00000000000E+00 0.  1.
          2   -1    0    0  501    0  0.00000000000E+00 -0.00000000000E+00 -0.55923869329E+03  0.55923869329E+03  0.00000000000E+00 0. -1.
         25    2    1    2    0    0  0.90139918344E+02  0.37977177462E+02 -0.42912910607E+03  0.45754229191E+03  0.12500275326E+03 0.  0.
         23    2    1    2    0    0 -0.90139918344E+02 -0.37977177462E+02 -0.76086517860E+02  0.15571947074E+03  0.94297001445E+02 0.  0.
          5    1    3    3  502    0  0.34107429322E+02 -0.38288576161E+02 -0.24622731847E+03  0.25155379974E+03  0.47000000000E+01 0. -1.
         -5    1    3    3    0  502  0.56032489021E+02  0.76265753623E+02 -0.18290178760E+03  0.20598849217E+03  0.47000000000E+01 0. -1.
          5    1    4    4  503    0 -0.70469890691E+02 -0.68623570557E+02 -0.48357452446E+02  0.10970748897E+03  0.47000000000E+01 0. -1.
         -5    1    4    4    0  503 -0.19670027653E+02  0.30646393095E+02 -0.27729065413E+02  0.46011981769E+02  0.47000000000E+01 0.  1.
<mgrwt>
<rscale>  0 0.15267157E+03</rscale>
<asrwt>0</asrwt>
<pdfrwt beam="1">  1        2 0.86036721E-01 0.15872353E+03</pdfrwt>
<pdfrwt beam="2">  1       -2 0.83112415E-02 0.15872353E+03</pdfrwt>
<totfact> 0.47496149E+03</totfact>
</mgrwt>
</event>
<event>
 8    1  0.3520338E-004  0.1442928E+03  0.7546771E-02  0.1216709E+00
          2   -1    0    0  501    0  0.00000000000E+00  0.00000000000E+00  0.55661301655E+03  0.55661301655E+03  0.00000000000E+00 0. -1.
         -2   -1    0    0    0  501 -0.00000000000E+00 -0.00000000000E+00 -0.31172435240E+02  0.31172435240E+02  0.00000000000E+00 0.  1.
         25    2    1    2    0    0 -0.72037852289E+02 -0.24408636737E+01  0.29646926238E+03  0.32971873392E+03  0.12500003992E+03 0.  0.
         23    2    1    2    0    0  0.72037852289E+02  0.24408636737E+01  0.22897131892E+03  0.25806671787E+03  0.94737299962E+02 0.  0.
          5    1    3    3  502    0 -0.15874442377E+02  0.32542343057E+02  0.23953476657E+03  0.24230145771E+03  0.47000000000E+01 0.  1.
         -5    1    3    3    0  502 -0.56163409913E+02 -0.34983206730E+02  0.56934495813E+02  0.87417276208E+02  0.47000000000E+01 0.  1.
          5    1    4    4  503    0 -0.19685971351E+02 -0.89050351352E+01  0.77223390110E+02  0.80326702278E+02  0.47000000000E+01 0. -1.
         -5    1    4    4    0  503  0.91723823640E+02  0.11345898809E+02  0.15174792881E+03  0.17774001559E+03  0.47000000000E+01 0.  1.
<mgrwt>
<rscale>  0 0.13751718E+03</rscale>
<asrwt>0</asrwt>
<pdfrwt beam="1">  1        2 0.85632764E-01 0.14429283E+03</pdfrwt>
<pdfrwt beam="2">  1       -2 0.47957597E-02 0.14429283E+03</pdfrwt>
<totfact> 0.10988923E+04</totfact>
</mgrwt>
</event>
<event>
 8    1  0.3520338E-004  0.3591368E+03  0.7546771E-02  0.1059993E+00
          2   -1    0    0  501    0  0.00000000000E+00  0.00000000000E+00  0.29168313001E+04  0.29168313001E+04  0.00000000000E+00 0. -1.
         -2   -1    0    0    0  501 -0.00000000000E+00 -0.00000000000E+00 -0.53437846732E+02  0.53437846732E+02  0.00000000000E+00 0.  1.
         25    2    1    2    0    0  0.21312639688E+03  0.26063743701E+03  0.21075154767E+04  0.21378963390E+04  0.12499814790E+03 0.  0.
         23    2    1    2    0    0 -0.21312639688E+03 -0.26063743701E+03  0.75587797660E+03  0.83237280781E+03  0.90212200107E+02 0.  0.
          5    1    4    4  502    0 -0.49940887503E+02 -0.37328656368E+02  0.22787414320E+03  0.23629692332E+03  0.47000000000E+01 0. -1.
         -5    1    3    3    0  503  0.68934395663E+02  0.53926972729E+02  0.28916805211E+03  0.30215943085E+03  0.47000000000E+01 0.  1.
          5    1    3    3  503    0  0.14419200122E+03  0.20671046428E+03  0.18183474246E+04  0.18357369081E+04  0.47000000000E+01 0.  1.
         -5    1    4    4    0  502 -0.16318550938E+03 -0.22330878065E+03  0.52800383340E+03  0.59607588449E+03  0.47000000000E+01 0.  1.
<mgrwt>
<rscale>  0 0.35646251E+03</rscale>
<asrwt>0</asrwt>
<pdfrwt beam="1">  1        2 0.44874315E+00 0.35913684E+03</pdfrwt>
<pdfrwt beam="2">  1       -2 0.82212094E-02 0.35913684E+03</pdfrwt>
<totfact> 0.20666323E+02</totfact>
</mgrwt>
</event>
<event>
 8    1  0.3520338E-004  0.1479633E+03  0.7546771E-02  0.1211529E+00
         -2   -1    0    0    0  501 -0.00000000000E+00  0.00000000000E+00  0.36009190664E+02  0.36009190664E+02  0.00000000000E+00 0.  1.
          2   -1    0    0  501    0  0.00000000000E+00 -0.00000000000E+00 -0.51056956315E+03  0.51056956315E+03  0.00000000000E+00 0. -1.
         25    2    1    2    0    0 -0.76378604740E+02 -0.20882247435E+02 -0.26033942247E+03  0.29944906864E+03  0.12499348104E+03 0.  0.
         23    2    1    2    0    0  0.76378604740E+02  0.20882247435E+02 -0.21422095002E+03  0.24712968517E+03  0.94407130796E+02 0.  0.
          5    1    4    4  502    0 -0.39450883236E+01  0.39521870456E+02 -0.81979866763E+02  0.91215845776E+02  0.47000000000E+01 0. -1.
         -5    1    4    4    0  502  0.80323693064E+02 -0.18639623021E+02 -0.13224108326E+03  0.15591383940E+03  0.47000000000E+01 0.  1.
          5    1    3    3  503    0 -0.70180406508E+02  0.11579024949E+02 -0.51456981430E+02  0.87916290949E+02  0.47000000000E+01 0.  1.
         -5    1    3    3    0  503 -0.61981982324E+01 -0.32461272384E+02 -0.20888244104E+03  0.21153277769E+03  0.47000000000E+01 0.  1.
<mgrwt>
<rscale>  0 0.14134591E+03</rscale>
<asrwt>0</asrwt>
<pdfrwt beam="1">  1        2 0.78549162E-01 0.14796327E+03</pdfrwt>
<pdfrwt beam="2">  1       -2 0.55398756E-02 0.14796327E+03</pdfrwt>
<totfact> 0.97511669E+03</totfact>
</mgrwt>
</event>
<event>
 8    1  0.3520338E-004  0.1441356E+03  0.7546771E-02  0.1217986E+00
          2   -1    0    0  501    0  0.00000000000E+00  0.00000000000E+00  0.66783222014E+03  0.66783222014E+03  0.00000000000E+00 0. -1.
         -2   -1    0    0    0  501 -0.00000000000E+00 -0.00000000000E+00 -0.40400948885E+02  0.40400948885E+02  0.00000000000E+00 0.  1.
         25    2    1    2    0    0  0.68851531103E+02 -0.20244864841E+02  0.11969000503E+03  0.18735199456E+03  0.12499873869E+03 0.  0.
         23    2    1    2    0    0 -0.68851531103E+02  0.20244864841E+02  0.50774126622E+03  0.52088117447E+03  0.91463744727E+02 0.  0.
          5    1    4    4  502    0 -0.45701066074E-01  0.42941333007E+02  0.16761871900E+03  0.17309559534E+03  0.47000000000E+01 0. -1.
         -5    1    4    4    0  502 -0.68805830037E+02 -0.22696468166E+02  0.34012254723E+03  0.34778557912E+03  0.47000000000E+01 0.  1.
          5    1    3    3  503    0  0.45102025742E+02  0.20087688576E+02  0.13004791961E+03  0.13918426403E+03  0.47000000000E+01 0. -1.
         -5    1    3    3    0  503  0.23749505361E+02 -0.40332553417E+02 -0.10357914577E+02  0.48167730530E+02  0.47000000000E+01 0. -1.
<mgrwt>
<rscale>  0 0.13659490E+03</rscale>
<asrwt>0</asrwt>
<pdfrwt beam="1">  1        2 0.10274341E+00 0.14413560E+03</pdfrwt>
<pdfrwt beam="2">  1       -2 0.62155311E-02 0.14413560E+03</pdfrwt>
<totfact> 0.60273849E+03</totfact>
</mgrwt>
</event>
<event>
 8    1  0.3520338E-004  0.1431007E+03  0.7546771E-02  0.1220256E+00
          2   -1    0    0  501    0  0.00000000000E+00  0.00000000000E+00  0.13323498490E+03  0.13323498490E+03  0.00000000000E+00 0. -1.
         -2   -1    0    0    0  501 -0.00000000000E+00 -0.00000000000E+00 -0.14162596116E+03  0.14162596116E+03  0.00000000000E+00 0.  1.
         25    2    1    2    0    0  0.30289426282E+02  0.62745564829E+02  0.44499255414E+02  0.14985990243E+03  0.12499340532E+03 0.  0.
         23    2    1    2    0    0 -0.30289426282E+02 -0.62745564829E+02 -0.52890231673E+02  0.12500104362E+03  0.89294059433E+02 0.  0.
          5    1    4    4  502    0 -0.25669114818E+02  0.75771493900E+01  0.11422684463E+02  0.29476844620E+02  0.47000000000E+01 0. -1.
         -5    1    3    3    0  503  0.78036449290E+02  0.28746835399E+02  0.34752882600E+02  0.90254755068E+02  0.47000000000E+01 0.  1.
          5    1    3    3  503    0 -0.47747023008E+02  0.33998729430E+02  0.97463728139E+01  0.59605147362E+02  0.47000000000E+01 0.  1.
         -5    1    4    4    0  502 -0.46203114644E+01 -0.70322714219E+02 -0.64312916136E+02  0.95524199002E+02  0.47000000000E+01 0.  1.
<mgrwt>
<rscale>  0 0.13497417E+03</rscale>
<asrwt>0</asrwt>
<pdfrwt beam="1">  1        2 0.20497690E-01 0.14310069E+03</pdfrwt>
<pdfrwt beam="2">  1       -2 0.21788609E-01 0.14310069E+03</pdfrwt>
<totfact> 0.46859463E+03</totfact>
</mgrwt>
</event>
<event>
 8    1  0.3520338E-004  0.2253846E+03  0.7546771E-02  0.1133212E+00
         -2   -1    0    0    0  501 -0.00000000000E+00  0.00000000000E+00  0.11861261312E+03  0.11861261312E+03  0.00000000000E+00 0.  1.
          2   -1    0    0  501    0  0.00000000000E+00 -0.00000000000E+00 -0.49814942867E+03  0.49814942867E+03  0.00000000000E+00 0. -1.
         25    2    1    2    0    0  0.18743269576E+03 -0.64900158278E+01 -0.56161162736E+02  0.23227632461E+03  0.12500031611E+03 0.  0.
         23    2    1    2    0    0 -0.18743269576E+03  0.64900158278E+01 -0.32337565281E+03  0.38448571719E+03  0.89912836375E+02 0.  0.
          5    1    3    3  502    0  0.18562952079E+03  0.25406042236E+02 -0.28134483130E+02  0.18951893075E+03  0.47000000000E+01 0.  1.
         -5    1    3    3    0  502  0.18031749727E+01 -0.31896058063E+02 -0.28026679606E+02  0.42757393860E+02  0.47000000000E+01 0.  1.
          5    1    4    4  503    0 -0.47240841922E+02  0.27232076945E+02 -0.15488045636E+03  0.16426603094E+03  0.47000000000E+01 0. -1.
         -5    1    4    4    0  503 -0.14019185384E+03 -0.20742061117E+02 -0.16849519646E+03  0.22021968625E+03  0.47000000000E+01 0.  1.
<mgrwt>
<rscale>  0 0.22090258E+03</rscale>
<asrwt>0</asrwt>
<pdfrwt beam="1">  1        2 0.76638375E-01 0.22538459E+03</pdfrwt>
<pdfrwt beam="2">  1       -2 0.18248094E-01 0.22538459E+03</pdfrwt>
<totfact> 0.15330026E+03</totfact>
</mgrwt>
</event>
<event>
 8    1  0.3520338E-004  0.1291234E+03  0.7546771E-02  0.1242524E+00
         -3   -1    0    0    0  501 -0.00000000000E+00  0.00000000000E+00  0.59055205406E+02  0.59055205406E+02  0.00000000000E+00 0.  1.
          3   -1    0    0  501    0  0.00000000000E+00 -0.00000000000E+00 -0.21746906011E+03  0.21746906011E+03  0.00000000000E+00 0. -1.
         25    2    1    2    0    0  0.29745239750E+02 -0.12691897834E+02 -0.94055972234E+02  0.15974782400E+03  0.12500791096E+03 0.  0.
         23    2    1    2    0    0 -0.29745239750E+02  0.12691897834E+02 -0.64357882471E+02  0.11677644152E+03  0.91918097776E+02 0.  0.
          5    1    3    3  502    0  0.19642040653E+02  0.51462147010E+02 -0.72468915855E+02  0.91148209534E+02  0.47000000000E+01 0. -1.
         -5    1    4    4    0  503 -0.48764342857E+01 -0.19454822030E+02  0.16343763578E+02  0.26295975347E+02  0.47000000000E+01 0.  1.
          5    1    4    4  503    0 -0.24868805464E+02  0.32146719864E+02 -0.80701646050E+02  0.90480466170E+02  0.47000000000E+01 0. -1.
         -5    1    3    3    0  502  0.10103199097E+02 -0.64154044845E+02 -0.21587056379E+02  0.68599614467E+02  0.47000000000E+01 0. -1.
<mgrwt>
<rscale>  0 0.12034813E+03</rscale>
<asrwt>0</asrwt>
<pdfrwt beam="1">  1        3 0.33456779E-01 0.12912336E+03</pdfrwt>
<pdfrwt beam="2">  1       -3 0.90854162E-02 0.12912336E+03</pdfrwt>
<totfact> 0.17225443E+03</totfact>
</mgrwt>
</event>
<event>
 8    1  0.3520338E-004  0.1322749E+03  0.7546771E-02  0.1238824E+00
          1   -1    0    0  501    0  0.00000000000E+00  0.00000000000E+00  0.16175747887E+03  0.16175747887E+03  0.00000000000E+00 0. -1.
         -1   -1    0    0    0  501 -0.00000000000E+00 -0.00000000000E+00 -0.82054870072E+02  0.82054870072E+02  0.00000000000E+00 0.  1.
         25    2    1    2    0    0 -0.41559051015E+02 -0.12038430306E+02  0.38405563853E+02  0.13773751787E+03  0.12499823187E+03 0.  0.
         23    2    1    2    0    0  0.41559051015E+02  0.12038430306E+02  0.41297044948E+02  0.10607483107E+03  0.87603340917E+02 0.  0.
          5    1    3    3  502    0 -0.73003507727E+02 -0.32080190299E+02 -0.53479400358E+01  0.80058361292E+02  0.47000000000E+01 0.  1.
         -5    1    4    4    0  503  0.26287714348E+02 -0.34775430839E+02  0.38134000195E+01  0.44011436416E+02  0.47000000000E+01 0.  1.
          5    1    4    4  503    0  0.15271336667E+02  0.46813861146E+02  0.37483644929E+02  0.62063394655E+02  0.47000000000E+01 0. -1.
         -5    1    3    3    0  502  0.31444456712E+02  0.20041759993E+02  0.43753503889E+02  0.57679156583E+02  0.47000000000E+01 0.  1.
<mgrwt>
<rscale>  0 0.12262755E+03</rscale>
<asrwt>0</asrwt>
<pdfrwt beam="1">  1        1 0.24885766E-01 0.13227485E+03</pdfrwt>
<pdfrwt beam="2">  1       -1 0.12623826E-01 0.13227485E+03</pdfrwt>
<totfact> 0.76897354E+03</totfact>
</mgrwt>
</event>
<event>
 8    1  0.3520338E-004  0.1412153E+03  0.7546771E-02  0.1222788E+00
          2   -1    0    0  501    0  0.00000000000E+00  0.00000000000E+00  0.23737478544E+03  0.23737478544E+03  0.00000000000E+00 0. -1.
         -2   -1    0    0    0  501 -0.00000000000E+00 -0.00000000000E+00 -0.67575225716E+02  0.67575225716E+02  0.00000000000E+00 0.  1.
         25    2    1    2    0    0 -0.62964780454E+02 -0.18733442574E+02  0.87180888088E+02  0.16595864470E+03  0.12500503612E+03 0.  0.
         23    2    1    2    0    0  0.62964780454E+02  0.18733442574E+02  0.82618671630E+02  0.13899136645E+03  0.90428146043E+02 0.  0.
          5    1    3    3  502    0 -0.34741865655E+02  0.29971806017E+02 -0.15589678012E+02  0.48687107592E+02  0.47000000000E+01 0.  1.
         -5    1    3    3    0  502 -0.28222914799E+02 -0.48705248591E+02  0.10277056610E+03  0.11727153711E+03  0.47000000000E+01 0.  1.
          5    1    4    4  503    0  0.63636109390E+02 -0.33817058541E+01  0.94006417954E+02  0.11366744023E+03  0.47000000000E+01 0. -1.
         -5    1    4    4    0  503 -0.67132893670E+00  0.22115148428E+02 -0.11387746324E+02  0.25323926213E+02  0.47000000000E+01 0.  1.
<mgrwt>
<rscale>  0 0.13319675E+03</rscale>
<asrwt>0</asrwt>
<pdfrwt beam="1">  1        2 0.36519197E-01 0.14121531E+03</pdfrwt>
<pdfrwt beam="2">  1       -2 0.10396189E-01 0.14121531E+03</pdfrwt>
<totfact> 0.83632900E+03</totfact>
</mgrwt>
</event>
<event>
 8    1  0.3520338E-004  0.1561366E+03  0.7546771E-02  0.1202031E+00
          1   -1    0    0  501    0  0.00000000000E+00  0.00000000000E+00  0.35238233598E+02  0.35238233598E+02  0.00000000000E+00 0. -1.
         -1   -1    0    0    0  501 -0.00000000000E+00 -0.00000000000E+00 -0.57641813638E+03  0.57641813638E+03  0.00000000000E+00 0.  1.
         25    2    1    2    0    0 -0.23840323749E+02 -0.90475351009E+02 -0.28231507438E+03  0.32261497973E+03  0.12499789498E+03 0.  0.
         23    2    1    2    0    0  0.23840323749E+02  0.90475351009E+02 -0.25886482841E+03  0.28904139025E+03  0.88203036880E+02 0.  0.
          5    1    3    3  502    0  0.21153391952E+01 -0.55239751276E+02 -0.27174213146E+03  0.27734776147E+03  0.47000000000E+01 0.  1.
         -5    1    3    3    0  502 -0.25955662945E+02 -0.35235599734E+02 -0.10572942920E+02  0.45267218265E+02  0.47000000000E+01 0.  1.
          5    1    4    4  503    0 -0.27424115425E+02  0.15516867464E+02 -0.34552164043E+02  0.46997843810E+02  0.47000000000E+01 0. -1.
         -5    1    4    4    0  503  0.51264439174E+02  0.74958483545E+02 -0.22431266436E+03  0.24204354644E+03  0.47000000000E+01 0.  1.
<mgrwt>
<rscale>  0 0.14873920E+03</rscale>
<asrwt>0</asrwt>
<pdfrwt beam="1">  1        1 0.54212666E-02 0.15613656E+03</pdfrwt>
<pdfrwt beam="2">  1       -1 0.88679715E-01 0.15613656E+03</pdfrwt>
<totfact> 0.19082042E+03</totfact>
</mgrwt>
</event>
<event>
 8    1  0.3520338E-004  0.1390609E+03  0.7546771E-02  0.1225539E+00
          2   -1    0    0  501    0  0.00000000000E+00  0.00000000000E+00  0.49229743276E+03  0.49229743276E+03  0.00000000000E+00 0. -1.
         -2   -1    0    0    0  501 -0.00000000000E+00 -0.00000000000E+00 -0.33488404179E+02  0.33488404179E+02  0.00000000000E+00 0.  1.
         25    2    1    2    0    0 -0.22161144974E+02  0.56766218406E+02  0.19268519107E+03  0.23762476862E+03  0.12499771160E+03 0.  0.
         23    2    1    2    0    0  0.22161144974E+02 -0.56766218406E+02  0.26612383752E+03  0.28816106833E+03  0.92202952802E+02 0.  0.
          5    1    3    3  502    0  0.17105810985E+02  0.78033268114E+02  0.67705048655E+02  0.10482300947E+03  0.47000000000E+01 0.  1.
         -5    1    4    4    0  503  0.47600164378E+02 -0.67318065111E+02  0.19819720887E+03  0.21471311358E+03  0.47000000000E+01 0.  1.
          5    1    4    4  503    0 -0.25439019404E+02  0.10551846705E+02  0.67926628650E+02  0.73447954750E+02  0.47000000000E+01 0. -1.
         -5    1    3    3    0  502 -0.39266955959E+02 -0.21267049708E+02  0.12498014241E+03  0.13280175914E+03  0.47000000000E+01 0.  1.
<mgrwt>
<rscale>  0 0.13130013E+03</rscale>
<asrwt>0</asrwt>
<pdfrwt beam="1">  1        2 0.75738061E-01 0.13906095E+03</pdfrwt>
<pdfrwt beam="2">  1       -2 0.51520626E-02 0.13906095E+03</pdfrwt>
<totfact> 0.11276896E+04</totfact>
</mgrwt>
</event>
<event>
 8    1  0.3520338E-004  0.1325925E+03  0.7546771E-02  0.1236689E+00
          1   -1    0    0  501    0  0.00000000000E+00  0.00000000000E+00  0.21286420470E+02  0.21286420470E+02  0.00000000000E+00 0. -1.
         -1   -1    0    0    0  501 -0.00000000000E+00 -0.00000000000E+00 -0.71722111636E+03  0.71722111636E+03  0.00000000000E+00 0.  1.
         25    2    1    2    0    0 -0.14337754673E+02 -0.41826766696E+02 -0.50779212123E+03  0.52481769919E+03  0.12500291747E+03 0.  0.
         23    2    1    2    0    0  0.14337754673E+02  0.41826766696E+02 -0.18814257466E+03  0.21368983764E+03  0.91162869034E+02 0.  0.
          5    1    4    4  502    0 -0.11120186258E+02  0.62462497129E+02 -0.15145061257E+03  0.16426990028E+03  0.47000000000E+01 0. -1.
         -5    1    4    4    0  502  0.25457940931E+02 -0.20635730433E+02 -0.36691962091E+02  0.49419937363E+02  0.47000000000E+01 0.  1.
          5    1    3    3  503    0 -0.71934355113E+00 -0.74299082897E+02 -0.17559384832E+03  0.19072535422E+03  0.47000000000E+01 0.  1.
         -5    1    3    3    0  503 -0.13618411122E+02  0.32472316201E+02 -0.33219827291E+03  0.33409234497E+03  0.47000000000E+01 0.  1.
<mgrwt>
<rscale>  0 0.12396896E+03</rscale>
<asrwt>0</asrwt>
<pdfrwt beam="1">  1        1 0.32748338E-02 0.13259253E+03</pdfrwt>
<pdfrwt beam="2">  1       -1 0.11034171E+00 0.13259253E+03</pdfrwt>
<totfact> 0.23449129E+03</totfact>
</mgrwt>
</event>
<event>
 8    1  0.3520338E-004  0.1499635E+03  0.7546771E-02  0.1210261E+00
         -2   -1    0    0    0  501 -0.00000000000E+00  0.00000000000E+00  0.17501976488E+02  0.17501976488E+02  0.00000000000E+00 0.  1.
          2   -1    0    0  501    0  0.00000000000E+00 -0.00000000000E+00 -0.10537912446E+04  0.10537912446E+04  0.00000000000E+00 0. -1.
         25    2    1    2    0    0  0.82852851489E+02 -0.21757585745E+00 -0.56173071273E+03  0.58140385343E+03  0.12499761923E+03 0.  0.
         23    2    1    2    0    0 -0.82852851489E+02  0.21757585745E+00 -0.47455855535E+03  0.48988936764E+03  0.89000717544E+02 0.  0.
          5    1    3    3  502    0 -0.25931541005E+02  0.13314110275E+02 -0.50216336843E+02  0.58253590767E+02  0.47000000000E+01 0.  1.
         -5    1    3    3    0  502  0.10878439249E+03 -0.13531686132E+02 -0.51151437589E+03  0.52315026266E+03  0.47000000000E+01 0.  1.
          5    1    4    4  503    0 -0.40450277308E+02  0.20886259690E+02 -0.39220634112E+03  0.39486752816E+03  0.47000000000E+01 0. -1.
         -5    1    4    4    0  503 -0.42402574181E+02 -0.20668683832E+02 -0.82352214232E+02  0.95021839476E+02  0.47000000000E+01 0.  1.
<mgrwt>
<rscale>  0 0.14230483E+03</rscale>
<asrwt>0</asrwt>
<pdfrwt beam="1">  1        2 0.16212180E+00 0.14996349E+03</pdfrwt>
<pdfrwt beam="2">  1       -2 0.26926106E-02 0.14996349E+03</pdfrwt>
<totfact> 0.11734963E+04</totfact>
</mgrwt>
</event>
<event>
 8    1  0.3520338E-004  0.1305096E+03  0.7546771E-02  0.1240535E+00
         -2   -1    0    0    0  501 -0.00000000000E+00  0.00000000000E+00  0.34523674331E+02  0.34523674331E+02  0.00000000000E+00 0.  1.
          2   -1    0    0  501    0  0.00000000000E+00 -0.00000000000E+00 -0.45284061593E+03  0.45284061593E+03  0.00000000000E+00 0. -1.
         25    2    1    2    0    0  0.36975022655E+02  0.62056876815E+01 -0.33145792536E+03  0.35622619211E+03  0.12500832294E+03 0.  0.
         23    2    1    2    0    0 -0.36975022655E+02 -0.62056876815E+01 -0.86859016243E+02  0.13113809815E+03  0.90813265682E+02 0.  0.
          5    1    3    3  502    0  0.83183121379E+02 -0.92843179996E-02 -0.19968937072E+03  0.21637321126E+03  0.47000000000E+01 0.  1.
         -5    1    4    4    0  503 -0.77923616150E+01 -0.27797203961E+02  0.72728339007E+01  0.30139501664E+02  0.47000000000E+01 0.  1.
          5    1    4    4  503    0 -0.29182661040E+02  0.21591516280E+02 -0.94131850144E+02  0.10099859649E+03  0.47000000000E+01 0. -1.
         -5    1    3    3    0  502 -0.46208098724E+02  0.62149719995E+01 -0.13176855463E+03  0.13985298086E+03  0.47000000000E+01 0.  1.
<mgrwt>
<rscale>  0 0.12156622E+03</rscale>
<asrwt>0</asrwt>
<pdfrwt beam="1">  1        2 0.69667783E-01 0.13050955E+03</pdfrwt>
<pdfrwt beam="2">  1       -2 0.53113348E-02 0.13050955E+03</pdfrwt>
<totfact> 0.11742986E+04</totfact>
</mgrwt>
</event>
<event>
 8    1  0.3520338E-004  0.1292063E+03  0.7546771E-02  0.1241528E+00
          2   -1    0    0  501    0  0.00000000000E+00  0.00000000000E+00  0.25102848430E+03  0.25102848430E+03  0.00000000000E+00 0. -1.
         -2   -1    0    0    0  501 -0.00000000000E+00 -0.00000000000E+00 -0.55844788538E+02  0.55844788538E+02  0.00000000000E+00 0.  1.
         25    2    1    2    0    0  0.20341050252E+02 -0.25644087953E+02  0.14959483630E+03  0.19766865113E+03  0.12499161180E+03 0.  0.
         23    2    1    2    0    0 -0.20341050252E+02  0.25644087953E+02  0.45588859460E+02  0.10920462171E+03  0.93679921663E+02 0.  0.
          5    1    4    4  502    0  0.65183158356E+00 -0.32788264951E+02  0.30734601867E+02  0.45190717574E+02  0.47000000000E+01 0. -1.
         -5    1    4    4    0  502 -0.20992881835E+02  0.58432352904E+02  0.14854257592E+02  0.64013904132E+02  0.47000000000E+01 0.  1.
          5    1    3    3  503    0 -0.39321220160E+02  0.27714229679E+02  0.46567913691E+02  0.67118532963E+02  0.47000000000E+01 0.  1.
         -5    1    3    3    0  503  0.59662270411E+02 -0.53358317632E+02  0.10302692261E+03  0.13055011817E+03  0.47000000000E+01 0.  1.
<mgrwt>
<rscale>  0 0.12095604E+03</rscale>
<asrwt>0</asrwt>
<pdfrwt beam="1">  1        2 0.38619766E-01 0.12920635E+03</pdfrwt>
<pdfrwt beam="2">  1       -2 0.85915060E-02 0.12920635E+03</pdfrwt>
<totfact> 0.10546129E+04</totfact>
</mgrwt>
</event>
<event>
 8    1  0.3520338E-004  0.1496369E+03  0.7546771E-02  0.1208659E+00
          3   -1    0    0  501    0  0.00000000000E+00  0.00000000000E+00  0.24892442678E+02  0.24892442678E+02  0.00000000000E+00 0. -1.
         -3   -1    0    0    0  501 -0.00000000000E+00 -0.00000000000E+00 -0.82963711583E+03  0.82963711583E+03  0.00000000000E+00 0.  1.
         25    2    1    2    0    0 -0.81850059074E+02  0.82020579524E+01 -0.55061090452E+03  0.57058178290E+03  0.12499798747E+03 0.  0.
         23    2    1    2    0    0  0.81850059074E+02 -0.82020579524E+01 -0.25413376863E+03  0.28394777561E+03  0.96310233053E+02 0.  0.
          5    1    3    3  502    0 -0.10171456165E+03  0.35393583698E+02 -0.32470653261E+03  0.34213298605E+03  0.47000000000E+01 0. -1.
         -5    1    3    3    0  502  0.19864502581E+02 -0.27191525745E+02 -0.22590437191E+03  0.22844879685E+03  0.47000000000E+01 0. -1.
          5    1    4    4  503    0  0.50205933074E+02 -0.46805809739E+02 -0.96370088081E+02  0.11840905125E+03  0.47000000000E+01 0. -1.
         -5    1    4    4    0  503  0.31644125999E+02  0.38603751787E+02 -0.15776368055E+03  0.16553872436E+03  0.47000000000E+01 0.  1.
<mgrwt>
<rscale>  0 0.14352832E+03</rscale>
<asrwt>0</asrwt>
<pdfrwt beam="1">  1        3 0.38296064E-02 0.14963690E+03</pdfrwt>
<pdfrwt beam="2">  1       -3 0.12763649E+00 0.14963690E+03</pdfrwt>
<totfact> 0.41792400E+02</totfact>
</mgrwt>
</event>
<event>
 8    1  0.3520338E-004  0.2022080E+03  0.7546771E-02  0.1152005E+00
          1   -1    0    0  501    0  0.00000000000E+00  0.00000000000E+00  0.48941755401E+03  0.48941755401E+03  0.00000000000E+00 0. -1.
         -1   -1    0    0    0  501 -0.00000000000E+00 -0.00000000000E+00 -0.89813851911E+02  0.89813851911E+02  0.00000000000E+00 0.  1.
         25    2    1    2    0    0  0.12038960006E+03  0.10377459679E+03  0.94412165081E+02  0.22316304580E+03  0.12500106141E+03 0.  0.
         23    2    1    2    0    0 -0.12038960006E+03 -0.10377459679E+03  0.30519153701E+03  0.35606836012E+03  0.91542231083E+02 0.  0.
          5    1    4    4  502    0 -0.77196007769E+02 -0.80542517862E+02  0.27846026953E+03  0.30001422051E+03  0.47000000000E+01 0. -1.
         -5    1    3    3    0  503  0.14498413886E+03  0.99416753101E+02  0.89321484187E+02  0.19724225930E+03  0.47000000000E+01 0. -1.
          5    1    3    3  503    0 -0.24594538801E+02  0.43578436924E+01  0.50906808935E+01  0.25920786494E+02  0.47000000000E+01 0. -1.
         -5    1    4    4    0  502 -0.43193592289E+02 -0.23232078931E+02  0.26731267478E+02  0.56054139609E+02  0.47000000000E+01 0.  1.
<mgrwt>
<rscale>  0 0.19733782E+03</rscale>
<asrwt>0</asrwt>
<pdfrwt beam="1">  1        1 0.75295007E-01 0.20220803E+03</pdfrwt>
<pdfrwt beam="2">  1       -1 0.13817516E-01 0.20220803E+03</pdfrwt>
<totfact> 0.16927730E+03</totfact>
</mgrwt>
</event>
<event>
 8    1  0.3520338E-004  0.1456829E+03  0.7546771E-02  0.1215959E+00
          4   -1    0    0  501    0  0.00000000000E+00  0.00000000000E+00  0.17735773534E+02  0.17735773534E+02  0.00000000000E+00 0. -1.
         -4   -1    0    0    0  501 -0.00000000000E+00 -0.00000000000E+00 -0.10064075240E+04  0.10064075240E+04  0.00000000000E+00 0.  1.
         25    2    1    2    0    0  0.35911343771E+02 -0.65649344773E+02 -0.63351809471E+03  0.65005283499E+03  0.12499620343E+03 0.  0.
         23    2    1    2    0    0 -0.35911343771E+02  0.65649344773E+02 -0.35515365571E+03  0.37409046250E+03  0.90609568405E+02 0.  0.
          5    1    3    3  502    0 -0.11253895916E+02 -0.83153943339E+02 -0.50523584548E+03  0.51217826782E+03  0.47000000000E+01 0. -1.
         -5    1    3    3    0  502  0.47165239686E+02  0.17504598566E+02 -0.12828224923E+03  0.13787456717E+03  0.47000000000E+01 0. -1.
          5    1    4    4  503    0  0.27713009425E+02  0.34126568155E+02 -0.17219286014E+03  0.17777824566E+03  0.47000000000E+01 0. -1.
         -5    1    4    4    0  503 -0.63624353196E+02  0.31522776618E+02 -0.18296079557E+03  0.19631221684E+03  0.47000000000E+01 0.  1.
<mgrwt>
<rscale>  0 0.13806352E+03</rscale>
<asrwt>0</asrwt>
<pdfrwt beam="1">  1        4 0.27285808E-02 0.14568292E+03</pdfrwt>
<pdfrwt beam="2">  1       -4 0.15483191E+00 0.14568292E+03</pdfrwt>
<totfact> 0.31061476E+02</totfact>
</mgrwt>
</event>
<event>
 8    1  0.3520338E-004  0.1482348E+03  0.7546771E-02  0.1213128E+00
         -2   -1    0    0    0  501 -0.00000000000E+00  0.00000000000E+00  0.20572947192E+02  0.20572947192E+02  0.00000000000E+00 0.  1.
          2   -1    0    0  501    0  0.00000000000E+00 -0.00000000000E+00 -0.88423650745E+03  0.88423650745E+03  0.00000000000E+00 0. -1.
         25    2    1    2    0    0 -0.24618805414E+02 -0.75802038602E+02 -0.54662367006E+03  0.56636647537E+03  0.12498605166E+03 0.  0.
         23    2    1    2    0    0  0.24618805414E+02  0.75802038602E+02 -0.31703989019E+03  0.33844297927E+03  0.87620337879E+02 0.  0.
          5    1    4    4  502    0 -0.95208179684E+01  0.55750096644E+02 -0.27382752653E+03  0.27964678353E+03  0.47000000000E+01 0. -1.
         -5    1    4    4    0  502  0.34139623383E+02  0.20051941959E+02 -0.43212363658E+02  0.58796195744E+02  0.47000000000E+01 0.  1.
          5    1    3    3  503    0  0.15716749701E+02 -0.98776041341E+02 -0.33409944207E+03  0.34878109145E+03  0.47000000000E+01 0.  1.
         -5    1    3    3    0  503 -0.40335555115E+02  0.22974002738E+02 -0.21252422799E+03  0.21758538391E+03  0.47000000000E+01 0.  1.
<mgrwt>
<rscale>  0 0.14014974E+03</rscale>
<asrwt>0</asrwt>
<pdfrwt beam="1">  1        2 0.13603641E+00 0.14823477E+03</pdfrwt>
<pdfrwt beam="2">  1       -2 0.31650682E-02 0.14823477E+03</pdfrwt>
<totfact> 0.11730418E+04</totfact>
</mgrwt>
</event>
<event>
 8    1  0.3520338E-004  0.1798650E+03  0.7546771E-02  0.1172828E+00
         -2   -1    0    0    0  501 -0.00000000000E+00  0.00000000000E+00  0.15242427182E+03  0.15242427182E+03  0.00000000000E+00 0.  1.
          2   -1    0    0  501    0  0.00000000000E+00 -0.00000000000E+00 -0.39423449983E+03  0.39423449983E+03  0.00000000000E+00 0. -1.
         25    2    1    2    0    0 -0.42519264785E+02  0.12213664509E+03 -0.32057019241E+03  0.36758220663E+03  0.12500472957E+03 0.  0.
         23    2    1    2    0    0  0.42519264785E+02 -0.12213664509E+03  0.78759964397E+02  0.17907656502E+03  0.95603536527E+02 0.  0.
          5    1    3    3  502    0 -0.43944331062E+02  0.26840528654E+02 -0.23096846261E+03  0.23668552751E+03  0.47000000000E+01 0. -1.
         -5    1    4    4    0  503  0.60747189565E+02 -0.62574205906E+02  0.77238627143E+02  0.11659179992E+03  0.47000000000E+01 0.  1.
          5    1    4    4  503    0 -0.18227924779E+02 -0.59562439181E+02  0.15213372531E+01  0.62484765104E+02  0.47000000000E+01 0. -1.
         -5    1    3    3    0  502  0.14250662763E+01  0.95296116433E+02 -0.89601729801E+02  0.13089667912E+03  0.47000000000E+01 0. -1.
<mgrwt>
<rscale>  0 0.17490399E+03</rscale>
<asrwt>0</asrwt>
<pdfrwt beam="1">  1        2 0.60651462E-01 0.17986503E+03</pdfrwt>
<pdfrwt beam="2">  1       -2 0.23449888E-01 0.17986503E+03</pdfrwt>
<totfact> 0.12835372E+03</totfact>
</mgrwt>
</event>
<event>
 8    1  0.3520338E-004  0.2335208E+03  0.7546771E-02  0.1127847E+00
          2   -1    0    0  501    0  0.00000000000E+00  0.00000000000E+00  0.54352501827E+03  0.54352501827E+03  0.00000000000E+00 0. -1.
         -2   -1    0    0    0  501 -0.00000000000E+00 -0.00000000000E+00 -0.96308506312E+02  0.96308506312E+02  0.00000000000E+00 0.  1.
         25    2    1    2    0    0  0.15548683343E+03  0.12137235382E+03  0.16435085407E+03  0.28555767508E+03  0.12499831568E+03 0.  0.
         23    2    1    2    0    0 -0.15548683343E+03 -0.12137235382E+03  0.28286565788E+03  0.35427584949E+03  0.81184933848E+02 0.  0.
          5    1    3    3  502    0  0.89298985887E+02  0.96175802651E+02  0.31676799056E+02  0.13509109332E+03  0.47000000000E+01 0. -1.
         -5    1    3    3    0  502  0.66187847544E+02  0.25196551169E+02  0.13267405501E+03  0.15046658176E+03  0.47000000000E+01 0. -1.
          5    1    4    4  503    0 -0.78674104675E+02 -0.95386020985E+02  0.12044142590E+03  0.17267407106E+03  0.47000000000E+01 0. -1.
         -5    1    4    4    0  503 -0.76812728756E+02 -0.25986332835E+02  0.16242423198E+03  0.18160177843E+03  0.47000000000E+01 0.  1.
<mgrwt>
<rscale>  0 0.22829360E+03</rscale>
<asrwt>0</asrwt>
<pdfrwt beam="1">  1        2 0.83619232E-01 0.23352084E+03</pdfrwt>
<pdfrwt beam="2">  1       -2 0.14816694E-01 0.23352084E+03</pdfrwt>
<totfact> 0.19691756E+03</totfact>
</mgrwt>
</event>
<event>
 8    1  0.3520338E-004  0.1484518E+03  0.7546771E-02  0.1212180E+00
         -1   -1    0    0    0  501 -0.00000000000E+00  0.00000000000E+00  0.62446915803E+02  0.62446915803E+02  0.00000000000E+00 0.  1.
          1   -1    0    0  501    0  0.00000000000E+00 -0.00000000000E+00 -0.28997294754E+03  0.28997294754E+03  0.00000000000E+00 0. -1.
         25    2    1    2    0    0 -0.79526181203E+01 -0.79682964976E+02 -0.13461203291E+03  0.20039543960E+03  0.12500125505E+03 0.  0.
         23    2    1    2    0    0  0.79526181203E+01  0.79682964976E+02 -0.92913998834E+02  0.15202442375E+03  0.89809772268E+02 0.  0.
          5    1    3    3  502    0  0.36254072678E+02 -0.57265433600E+01 -0.10139031008E+03  0.10793162680E+03  0.47000000000E+01 0.  1.
         -5    1    4    4    0  503  0.37972412190E+02  0.15469890615E+02 -0.92981136759E+01  0.42305632262E+02  0.47000000000E+01 0.  1.
          5    1    4    4  503    0 -0.30019794069E+02  0.64213074361E+02 -0.83615885158E+02  0.10971879149E+03  0.47000000000E+01 0. -1.
         -5    1    3    3    0  502 -0.44206690798E+02 -0.73956421616E+02 -0.33221722824E+02  0.92463812797E+02  0.47000000000E+01 0.  1.
<mgrwt>
<rscale>  0 0.14085725E+03</rscale>
<asrwt>0</asrwt>
<pdfrwt beam="1">  1        1 0.44611223E-01 0.14845179E+03</pdfrwt>
<pdfrwt beam="2">  1       -1 0.96072177E-02 0.14845179E+03</pdfrwt>
<totfact> 0.57055046E+03</totfact>
</mgrwt>
</event>
<event>
 8    1  0.3520338E-004  0.1255550E+03  0.7546771E-02  0.1246738E+00
         -1   -1    0    0    0  501 -0.00000000000E+00  0.00000000000E+00  0.50317366510E+02  0.50317366510E+02  0.00000000000E+00 0.  1.
          1   -1    0    0  501    0  0.00000000000E+00 -0.00000000000E+00 -0.25809273289E+03  0.25809273289E+03  0.00000000000E+00 0. -1.
         25    2    1    2    0    0  0.78710893858E+01 -0.90040105061E+01 -0.84568738489E+02  0.15138009173E+03  0.12498413655E+03 0.  0.
         23    2    1    2    0    0 -0.78710893858E+01  0.90040105061E+01 -0.12320662789E+03  0.15703000767E+03  0.96620514903E+02 0.  0.
          5    1    4    4  502    0 -0.47997549012E+02  0.62954360635E+01 -0.97804704877E+02  0.10923025003E+03  0.47000000000E+01 0. -1.
         -5    1    3    3    0  503  0.41663579148E+02 -0.49530715188E+02 -0.72009136931E+02  0.96935810596E+02  0.47000000000E+01 0. -1.
          5    1    3    3  503    0 -0.33792489762E+02  0.40526704682E+02 -0.12559601558E+02  0.54444281132E+02  0.47000000000E+01 0. -1.
         -5    1    4    4    0  502  0.40126459626E+02  0.27085744427E+01 -0.25401923016E+02  0.47799757641E+02  0.47000000000E+01 0.  1.
<mgrwt>
<rscale>  0 0.11781980E+03</rscale>
<asrwt>0</asrwt>
<pdfrwt beam="1">  1        1 0.39706574E-01 0.12555501E+03</pdfrwt>
<pdfrwt beam="2">  1       -1 0.77411334E-02 0.12555501E+03</pdfrwt>
<totfact> 0.90355092E+03</totfact>
</mgrwt>
</event>
<event>
 8    1  0.3520338E-004  0.1322638E+03  0.7546771E-02  0.1237282E+00
          1   -1    0    0  501    0  0.00000000000E+00  0.00000000000E+00  0.42030271303E+02  0.42030271303E+02  0.00000000000E+00 0. -1.
         -1   -1    0    0    0  501 -0.00000000000E+00 -0.00000000000E+00 -0.50606769531E+03  0.50606769531E+03  0.00000000000E+00 0.  1.
         25    2    1    2    0    0 -0.38535095370E+02  0.19604356962E+02 -0.88223648784E+02  0.15898782220E+03  0.12499772404E+03 0.  0.
         23    2    1    2    0    0  0.38535095370E+02 -0.19604356962E+02 -0.37581377522E+03  0.38911014441E+03  0.91112164124E+02 0.  0.
          5    1    3    3  502    0  0.20468371897E+02  0.21546018889E+02  0.19643583255E+02  0.35932513706E+02  0.47000000000E+01 0.  1.
         -5    1    3    3    0  502 -0.59003467267E+02 -0.19416619272E+01 -0.10786723204E+03  0.12305530849E+03  0.47000000000E+01 0.  1.
          5    1    4    4  503    0 -0.35507043714E+01 -0.41444062661E+02 -0.88846134341E+02  0.98213763896E+02  0.47000000000E+01 0. -1.
         -5    1    4    4    0  503  0.42085799742E+02  0.21839705698E+02 -0.28696764088E+03  0.29089638052E+03  0.47000000000E+01 0.  1.
<mgrwt>
<rscale>  0 0.12359465E+03</rscale>
<asrwt>0</asrwt>
<pdfrwt beam="1">  1        1 0.64661953E-02 0.13226381E+03</pdfrwt>
<pdfrwt beam="2">  1       -1 0.77856572E-01 0.13226381E+03</pdfrwt>
<totfact> 0.19522541E+03</totfact>
</mgrwt>
</event>
<event>
 8    1  0.3520338E-004  0.1951875E+03  0.7546771E-02  0.1157874E+00
          1   -1    0    0  501    0  0.00000000000E+00  0.00000000000E+00  0.58204130483E+03  0.58204130483E+03  0.00000000000E+00 0. -1.
         -1   -1    0    0    0  501 -0.00000000000E+00 -0.00000000000E+00 -0.63873866454E+02  0.63873866454E+02  0.00000000000E+00 0.  1.
         25    2    1    2    0    0 -0.49843187547E+01 -0.14982765540E+03  0.18812747206E+03  0.27109055558E+03  0.12499989531E+03 0.  0.
         23    2    1    2    0    0  0.49843187547E+01  0.14982765540E+03  0.33003996632E+03  0.37482461571E+03  0.95362169714E+02 0.  0.
          5    1    3    3  502    0  0.37455845699E+02 -0.37321162828E+01  0.15591944249E+02  0.41013019816E+02  0.47000000000E+01 0.  1.
         -5    1    3    3    0  502 -0.42440164454E+02 -0.14609553912E+03  0.17253552781E+03  0.23007753577E+03  0.47000000000E+01 0.  1.
          5    1    4    4  503    0 -0.31099105868E+02  0.11100268479E+03  0.27523093933E+03  0.29843409722E+03  0.47000000000E+01 0. -1.
         -5    1    4    4    0  503  0.36083424623E+02  0.38824970607E+02  0.54809026992E+02  0.76390518489E+02  0.47000000000E+01 0.  1.
<mgrwt>
<rscale>  0 0.19065284E+03</rscale>
<asrwt>0</asrwt>
<pdfrwt beam="1">  1        1 0.89544813E-01 0.19518746E+03</pdfrwt>
<pdfrwt beam="2">  1       -1 0.98267490E-02 0.19518746E+03</pdfrwt>
<totfact> 0.22779220E+03</totfact>
</mgrwt>
</event>
<event>
 8    1  0.3520338E-004  0.1271207E+03  0.7546771E-02  0.1245485E+00
         -2   -1    0    0    0  501 -0.00000000000E+00  0.00000000000E+00  0.15975419455E+03  0.15975419455E+03  0.00000000000E+00 0. -1.
          2   -1    0    0  501    0  0.00000000000E+00 -0.00000000000E+00 -0.79329875747E+02  0.79329875747E+02  0.00000000000E+00 0.  1.
         25    2    1    2    0    0  0.19196094662E+02 -0.12895462565E+02  0.30610033322E+02  0.13075413055E+03  0.12499954205E+03 0.  0.
         23    2    1    2    0    0 -0.19196094662E+02  0.12895462565E+02  0.49814285478E+02  0.10832993974E+03  0.93376280720E+02 0.  0.
          5    1    3    3  502    0  0.30893530143E+02  0.28298738739E+02  0.63731438853E+02  0.76413448536E+02  0.47000000000E+01 0.  1.
         -5    1    4    4    0  503 -0.14071345452E+02  0.44146432869E+02 -0.28917997574E+01  0.46662220304E+02  0.47000000000E+01 0.  1.
          5    1    4    4  503    0 -0.51247492099E+01 -0.31250970304E+02  0.52706085236E+02  0.61667719435E+02  0.47000000000E+01 0. -1.
         -5    1    3    3    0  502 -0.11697435482E+02 -0.41194201304E+02 -0.33121405531E+02  0.54340682019E+02  0.47000000000E+01 0.  1.
<mgrwt>
<rscale>  0 0.11856400E+03</rscale>
<asrwt>0</asrwt>
<pdfrwt beam="1">  1        2 0.12204596E-01 0.12712068E+03</pdfrwt>
<pdfrwt beam="2">  1       -2 0.24577568E-01 0.12712068E+03</pdfrwt>
<totfact> 0.68999582E+03</totfact>
</mgrwt>
</event>
<event>
 8    1  0.3520338E-004  0.1266126E+03  0.7546771E-02  0.1247827E+00
         -3   -1    0    0    0  501 -0.00000000000E+00  0.00000000000E+00  0.42241846788E+02  0.42241846788E+02  0.00000000000E+00 0.  1.
          3   -1    0    0  501    0  0.00000000000E+00 -0.00000000000E+00 -0.42691921671E+03  0.42691921671E+03  0.00000000000E+00 0. -1.
         25    2    1    2    0    0  0.19648991413E+02  0.41939522904E+01 -0.77963711456E+02  0.14869122904E+03  0.12500827648E+03 0.  0.
         23    2    1    2    0    0 -0.19648991413E+02 -0.41939522904E+01 -0.30671365846E+03  0.32046983446E+03  0.90686131298E+02 0.  0.
          5    1    4    4  502    0 -0.22884965429E+02  0.23927382588E+02 -0.27754730292E+03  0.27955471135E+03  0.47000000000E+01 0. -1.
         -5    1    4    4    0  502  0.32359740165E+01 -0.28121334878E+02 -0.29166355544E+02  0.40915123107E+02  0.47000000000E+01 0.  1.
          5    1    3    3  503    0  0.32619376404E+01 -0.45605840334E+02  0.91924997811E+01  0.46873499570E+02  0.47000000000E+01 0. -1.
         -5    1    3    3    0  503  0.16387053773E+02  0.49799792624E+02 -0.87156211237E+02  0.10181772947E+03  0.47000000000E+01 0. -1.
<mgrwt>
<rscale>  0 0.11717748E+03</rscale>
<asrwt>0</asrwt>
<pdfrwt beam="1">  1        3 0.65679880E-01 0.12661256E+03</pdfrwt>
<pdfrwt beam="2">  1       -3 0.64987456E-02 0.12661256E+03</pdfrwt>
<totfact> 0.78000930E+02</totfact>
</mgrwt>
</event>
<event>
 8    1  0.3520338E-004  0.1281125E+03  0.7546771E-02  0.1244380E+00
         -1   -1    0    0    0  501 -0.00000000000E+00  0.00000000000E+00  0.13026677935E+03  0.13026677935E+03  0.00000000000E+00 0.  1.
          1   -1    0    0  501    0  0.00000000000E+00 -0.00000000000E+00 -0.10701091635E+03  0.10701091635E+03  0.00000000000E+00 0. -1.
         25    2    1    2    0    0  0.51534178819E+01  0.27509018764E+02  0.50009799047E+02  0.13752745560E+03  0.12501806756E+03 0.  0.
         23    2    1    2    0    0 -0.51534178819E+01 -0.27509018764E+02 -0.26753936053E+02  0.99750240093E+02  0.91929502745E+02 0.  0.
          5    1    3    3  502    0  0.64630668811E+02  0.20198228859E+02  0.29579638042E+02  0.74041453164E+02  0.47000000000E+01 0. -1.
         -5    1    3    3    0  502 -0.59477250929E+02  0.73107899052E+01  0.20430161005E+02  0.63486002440E+02  0.47000000000E+01 0. -1.
          5    1    4    4  503    0 -0.25388390067E+02  0.19951447720E+02 -0.34362578321E+02  0.47386785133E+02  0.47000000000E+01 0. -1.
         -5    1    4    4    0  503  0.20234972185E+02 -0.47460466484E+02  0.76086422683E+01  0.52363454960E+02  0.47000000000E+01 0.  1.
<mgrwt>
<rscale>  0 0.11922558E+03</rscale>
<asrwt>0</asrwt>
<pdfrwt beam="1">  1        1 0.16463218E-01 0.12811253E+03</pdfrwt>
<pdfrwt beam="2">  1       -1 0.20041043E-01 0.12811253E+03</pdfrwt>
<totfact> 0.62628513E+03</totfact>
</mgrwt>
</event>
<event>
 8    1  0.3520338E-004  0.1298945E+03  0.7546771E-02  0.1242019E+00
         -1   -1    0    0    0  501 -0.00000000000E+00  0.00000000000E+00  0.71722558033E+02  0.71722558033E+02  0.00000000000E+00 0.  1.
          1   -1    0    0  501    0  0.00000000000E+00 -0.00000000000E+00 -0.18711288860E+03  0.18711288860E+03  0.00000000000E+00 0. -1.
         25    2    1    2    0    0  0.31003552360E+02 -0.16901533756E+02 -0.39058822840E+02  0.13563986962E+03  0.12500280191E+03 0.  0.
         23    2    1    2    0    0 -0.31003552360E+02  0.16901533756E+02 -0.76331507722E+02  0.12319557701E+03  0.90020936576E+02 0.  0.
          5    1    3    3  502    0  0.57065553384E+02 -0.45027068415E+02  0.96420136770E+01  0.73477702065E+02  0.47000000000E+01 0. -1.
         -5    1    3    3    0  502 -0.26062001024E+02  0.28125534658E+02 -0.48700836517E+02  0.62162167551E+02  0.47000000000E+01 0. -1.
          5    1    4    4  503    0  0.59523132625E+01  0.47228635491E+02 -0.30042585728E+02  0.56485582238E+02  0.47000000000E+01 0. -1.
         -5    1    4    4    0  503 -0.36955865622E+02 -0.30327101734E+02 -0.46288921994E+02  0.66709994775E+02  0.47000000000E+01 0.  1.
<mgrwt>
<rscale>  0 0.12065583E+03</rscale>
<asrwt>0</asrwt>
<pdfrwt beam="1">  1        1 0.28786598E-01 0.12989451E+03</pdfrwt>
<pdfrwt beam="2">  1       -1 0.11034240E-01 0.12989451E+03</pdfrwt>
<totfact> 0.78762470E+03</totfact>
</mgrwt>
</event>
<event>
 8    1  0.3520338E-004  0.1290894E+03  0.7546771E-02  0.1239685E+00
          3   -1    0    0  501    0  0.00000000000E+00  0.00000000000E+00  0.67639938383E+02  0.67639938383E+02  0.00000000000E+00 0. -1.
         -3   -1    0    0    0  501 -0.00000000000E+00 -0.00000000000E+00 -0.19971980374E+03  0.19971980374E+03  0.00000000000E+00 0.  1.
         25    2    1    2    0    0  0.31998066396E+02  0.40451895663E+01 -0.70070838043E+02  0.14688085901E+03  0.12499529826E+03 0.  0.
         23    2    1    2    0    0 -0.31998066396E+02 -0.40451895663E+01 -0.62009027318E+02  0.12047888312E+03  0.98131554541E+02 0.  0.
          5    1    3    3  502    0 -0.41901649455E+01 -0.48060619994E+02 -0.67648237265E+02  0.83221119204E+02  0.47000000000E+01 0.  1.
         -5    1    3    3    0  502  0.36188231342E+02  0.52105809560E+02 -0.24226007779E+01  0.63659739806E+02  0.47000000000E+01 0.  1.
          5    1    4    4  503    0 -0.22869480102E+02 -0.48237972823E+02 -0.16155374112E+02  0.55973219087E+02  0.47000000000E+01 0. -1.
         -5    1    4    4    0  503 -0.91285862943E+01  0.44192783257E+02 -0.45853653206E+02  0.64505664031E+02  0.47000000000E+01 0.  1.
<mgrwt>
<rscale>  0 0.12209240E+03</rscale>
<asrwt>0</asrwt>
<pdfrwt beam="1">  1        3 0.10406145E-01 0.12908937E+03</pdfrwt>
<pdfrwt beam="2">  1       -3 0.30726123E-01 0.12908937E+03</pdfrwt>
<totfact> 0.16139072E+03</totfact>
</mgrwt>
</event>
<event>
 8    1  0.3520338E-004  0.1953792E+03  0.7546771E-02  0.1158181E+00
          2   -1    0    0  501    0  0.00000000000E+00  0.00000000000E+00  0.40584387859E+03  0.40584387859E+03  0.00000000000E+00 0.  1.
         -2   -1    0    0    0  501 -0.00000000000E+00 -0.00000000000E+00 -0.84934362981E+02  0.84934362981E+02  0.00000000000E+00 0. -1.
         25    2    1    2    0    0  0.13712963189E+03  0.61202715997E+02  0.17327458544E+03  0.26114576802E+03  0.12499088691E+03 0.  0.
         23    2    1    2    0    0 -0.13712963189E+03 -0.61202715997E+02  0.14763493017E+03  0.22963247355E+03  0.91567963350E+02 0.  0.
          5    1    3    3  502    0  0.81899393832E+02  0.67586982633E+02  0.34782802232E+02  0.11183668567E+03  0.47000000000E+01 0.  1.
         -5    1    4    4    0  503 -0.30173839856E+02  0.17432556249E+02  0.62932917061E+02  0.72090198216E+02  0.47000000000E+01 0.  1.
          5    1    4    4  503    0 -0.10695579204E+03 -0.78635272246E+02  0.84702013111E+02  0.15754227533E+03  0.47000000000E+01 0. -1.
         -5    1    3    3    0  502  0.55230238061E+02 -0.63842666355E+01  0.13849178321E+03  0.14930908235E+03  0.47000000000E+01 0.  1.
<mgrwt>
<rscale>  0 0.19031149E+03</rscale>
<asrwt>0</asrwt>
<pdfrwt beam="1">  1        2 0.62437519E-01 0.19537920E+03</pdfrwt>
<pdfrwt beam="2">  1       -2 0.13066825E-01 0.19537920E+03</pdfrwt>
<totfact> 0.33261172E+03</totfact>
</mgrwt>
</event>
<event>
 8    1  0.3520338E-004  0.1525498E+03  0.7546771E-02  0.1206879E+00
         -1   -1    0    0    0  501 -0.00000000000E+00  0.00000000000E+00  0.39267703477E+03  0.39267703477E+03  0.00000000000E+00 0.  1.
          1   -1    0    0  501    0  0.00000000000E+00 -0.00000000000E+00 -0.48760423746E+02  0.48760423746E+02  0.00000000000E+00 0. -1.
         25    2    1    2    0    0  0.87386017956E+02 -0.31925930621E+01  0.19130043875E+03  0.24467793894E+03  0.12499970862E+03 0.  0.
         23    2    1    2    0    0 -0.87386017956E+02  0.31925930621E+01  0.15261617228E+03  0.19675951957E+03  0.88182218827E+02 0.  0.
          5    1    4    4  502    0 -0.39158444842E+02  0.28106171057E+02  0.18228319356E+02  0.51746519501E+02  0.47000000000E+01 0. -1.
         -5    1    3    3    0  503  0.57449876004E+02 -0.63068404102E+02  0.10663096267E+03  0.13663954058E+03  0.47000000000E+01 0.  1.
          5    1    3    3  503    0  0.29936141952E+02  0.59875811040E+02  0.84669476075E+02  0.10803839837E+03  0.47000000000E+01 0.  1.
         -5    1    4    4    0  502 -0.48227573114E+02 -0.24913577995E+02  0.13438785292E+03  0.14501300007E+03  0.47000000000E+01 0.  1.
<mgrwt>
<rscale>  0 0.14490335E+03</rscale>
<asrwt>0</asrwt>
<pdfrwt beam="1">  1        1 0.75016039E-02 0.15254978E+03</pdfrwt>
<pdfrwt beam="2">  1       -1 0.60411849E-01 0.15254978E+03</pdfrwt>
<totfact> 0.26476715E+03</totfact>
</mgrwt>
</event>
<event>
 8    1  0.3520338E-004  0.1495553E+03  0.7546771E-02  0.1208860E+00
         -2   -1    0    0    0  501 -0.00000000000E+00  0.00000000000E+00  0.46993060880E+02  0.46993060880E+02  0.00000000000E+00 0.  1.
          2   -1    0    0  501    0  0.00000000000E+00 -0.00000000000E+00 -0.40913978256E+03  0.40913978256E+03  0.00000000000E+00 0. -1.
         25    2    1    2    0    0  0.66904724416E+02 -0.47610220331E+02 -0.21934626697E+03  0.26547989981E+03  0.12499526847E+03 0.  0.
         23    2    1    2    0    0 -0.66904724416E+02  0.47610220331E+02 -0.14280045471E+03  0.19065294363E+03  0.95987498256E+02 0.  0.
          5    1    3    3  502    0  0.41299569550E+02 -0.86872994087E+02 -0.10871640803E+03  0.14523745702E+03  0.47000000000E+01 0.  1.
         -5    1    4    4    0  503 -0.66383390980E+02  0.18900181716E+02 -0.32234570498E+02  0.76322532729E+02  0.47000000000E+01 0.  1.
          5    1    4    4  503    0 -0.52133343563E+00  0.28710038615E+02 -0.11056588421E+03  0.11433041091E+03  0.47000000000E+01 0. -1.
         -5    1    3    3    0  502  0.25605154866E+02  0.39262773756E+02 -0.11062985893E+03  0.12024244278E+03  0.47000000000E+01 0.  1.
<mgrwt>
<rscale>  0 0.14337349E+03</rscale>
<asrwt>0</asrwt>
<pdfrwt beam="1">  1        2 0.62944579E-01 0.14955532E+03</pdfrwt>
<pdfrwt beam="2">  1       -2 0.72297021E-02 0.14955532E+03</pdfrwt>
<totfact> 0.82748114E+03</totfact>
</mgrwt>
</event>
<event>
 8    1  0.3520338E-004  0.2452819E+03  0.7546771E-02  0.1118881E+00
         -1   -1    0    0    0  501 -0.00000000000E+00  0.00000000000E+00  0.11711510182E+03  0.11711510182E+03  0.00000000000E+00 0.  1.
          1   -1    0    0  501    0  0.00000000000E+00 -0.00000000000E+00 -0.49699228898E+03  0.49699228898E+03  0.00000000000E+00 0. -1.
         25    2    1    2    0    0  0.15125980171E+03 -0.14717324050E+03 -0.14297974217E+03  0.28391265826E+03  0.12499480197E+03 0.  0.
         23    2    1    2    0    0 -0.15125980171E+03  0.14717324050E+03 -0.23689744499E+03  0.33019473254E+03  0.91480443917E+02 0.  0.
          5    1    4    4  502    0 -0.75908449923E+02  0.24235126060E+02 -0.12185995145E+03  0.14567557061E+03  0.47000000000E+01 0. -1.
         -5    1    3    3    0  503  0.21003845268E+02 -0.88703064557E+02 -0.98508453436E+02  0.13429594401E+03  0.47000000000E+01 0. -1.
          5    1    3    3  503    0  0.13025595644E+03 -0.58470175943E+02 -0.44471288732E+02  0.14961671426E+03  0.47000000000E+01 0. -1.
         -5    1    4    4    0  502 -0.75351351790E+02  0.12293811444E+03 -0.11503749354E+03  0.18451916193E+03  0.47000000000E+01 0.  1.
<mgrwt>
<rscale>  0 0.24137340E+03</rscale>
<asrwt>0</asrwt>
<pdfrwt beam="1">  1        1 0.76460352E-01 0.24528186E+03</pdfrwt>
<pdfrwt beam="2">  1       -1 0.18017708E-01 0.24528186E+03</pdfrwt>
<totfact> 0.10894143E+03</totfact>
</mgrwt>
</event>
<event>
 8    1  0.3520338E-004  0.2302772E+03  0.7546771E-02  0.1129416E+00
         -2   -1    0    0    0  501 -0.00000000000E+00  0.00000000000E+00  0.27495739591E+03  0.27495739591E+03  0.00000000000E+00 0.  1.
          2   -1    0    0  501    0  0.00000000000E+00 -0.00000000000E+00 -0.19237945900E+03  0.19237945900E+03  0.00000000000E+00 0. -1.
         25    2    1    2    0    0  0.18676000622E+03  0.50242806163E+02  0.10317036230E+03  0.25233251086E+03  0.12499573147E+03 0.  0.
         23    2    1    2    0    0 -0.18676000622E+03 -0.50242806163E+02 -0.20592425392E+02  0.21500434405E+03  0.91647042973E+02 0.  0.
          5    1    4    4  502    0 -0.69000104751E+02 -0.25135469718E+02 -0.52450517520E+02  0.90365663178E+02  0.47000000000E+01 0. -1.
         -5    1    4    4    0  502 -0.11775990147E+03 -0.25107336446E+02  0.31858092128E+02  0.12463868088E+03  0.47000000000E+01 0.  1.
          5    1    3    3  503    0  0.89183610156E+02 -0.31076787747E+02  0.78402036088E+02  0.12283506144E+03  0.47000000000E+01 0.  1.
         -5    1    3    3    0  503  0.97576396060E+02  0.81319593910E+02  0.24768326212E+02  0.12949744942E+03  0.47000000000E+01 0.  1.
<mgrwt>
<rscale>  0 0.22609954E+03</rscale>
<asrwt>0</asrwt>
<pdfrwt beam="1">  1        2 0.29596840E-01 0.23027716E+03</pdfrwt>
<pdfrwt beam="2">  1       -2 0.42301138E-01 0.23027716E+03</pdfrwt>
<totfact> 0.95018804E+02</totfact>
</mgrwt>
</event>
<event>
 8    1  0.3520338E-004  0.1475126E+03  0.7546771E-02  0.1213432E+00
          1   -1    0    0  501    0  0.00000000000E+00  0.00000000000E+00  0.39204465859E+02  0.39204465859E+02  0.00000000000E+00 0. -1.
         -1   -1    0    0    0  501 -0.00000000000E+00 -0.00000000000E+00 -0.56481135616E+03  0.56481135616E+03  0.00000000000E+00 0.  1.
         25    2    1    2    0    0 -0.16713083566E+02  0.76485436856E+02 -0.15210235528E+03  0.21188459425E+03  0.12502242033E+03 0.  0.
         23    2    1    2    0    0  0.16713083566E+02 -0.76485436856E+02 -0.37350453502E+03  0.39213122777E+03  0.90177119578E+02 0.  0.
          5    1    4    4  502    0  0.43347858459E+02 -0.61970809934E+02 -0.33183809629E+03  0.34037924476E+03  0.47000000000E+01 0.  1.
         -5    1    4    4    0  502 -0.26634774893E+02 -0.14514626922E+02 -0.41666438736E+02  0.51751983007E+02  0.47000000000E+01 0. -1.
          5    1    3    3  503    0 -0.61058985064E+02  0.78823065225E+02 -0.84057559976E+02  0.13049535876E+03  0.47000000000E+01 0. -1.
         -5    1    3    3    0  503  0.44345901498E+02 -0.23376283689E+01 -0.68044795299E+02  0.81389235488E+02  0.47000000000E+01 0. -1.
<mgrwt>
<rscale>  0 0.13992377E+03</rscale>
<asrwt>0</asrwt>
<pdfrwt beam="1">  1        1 0.60314564E-02 0.14751256E+03</pdfrwt>
<pdfrwt beam="2">  1       -1 0.86894052E-01 0.14751256E+03</pdfrwt>
<totfact> 0.17180572E+03</totfact>
</mgrwt>
</event>
<event>
 8    1  0.3520338E-004  0.1376798E+03  0.7546771E-02  0.1229361E+00
         -2   -1    0    0    0  501 -0.00000000000E+00  0.00000000000E+00  0.20770253571E+03  0.20770253571E+03  0.00000000000E+00 0.  1.
          2   -1    0    0  501    0  0.00000000000E+00 -0.00000000000E+00 -0.71052407611E+02  0.71052407611E+02  0.00000000000E+00 0. -1.
         25    2    1    2    0    0  0.44210281003E+02  0.37091655383E+02  0.73897898381E+02  0.15625823584E+03  0.12500158814E+03 0.  0.
         23    2    1    2    0    0 -0.44210281003E+02 -0.37091655383E+02  0.62752229714E+02  0.12249670748E+03  0.87961702819E+02 0.  0.
          5    1    4    4  502    0 -0.38122451774E+02  0.92642888397E+01  0.64313044338E+02  0.75481163537E+02  0.47000000000E+01 0. -1.
         -5    1    3    3    0  503  0.83061813783E+02  0.48187751168E+02  0.59719885767E+02  0.11318073612E+03  0.47000000000E+01 0. -1.
          5    1    3    3  503    0 -0.38851532780E+02 -0.11096095784E+02  0.14178012614E+02  0.43077499727E+02  0.47000000000E+01 0. -1.
         -5    1    4    4    0  502 -0.60878292292E+01 -0.46355944223E+02 -0.15608146239E+01  0.47015543938E+02  0.47000000000E+01 0.  1.
<mgrwt>
<rscale>  0 0.12872397E+03</rscale>
<asrwt>0</asrwt>
<pdfrwt beam="1">  1        2 0.10931140E-01 0.13767983E+03</pdfrwt>
<pdfrwt beam="2">  1       -2 0.31954236E-01 0.13767983E+03</pdfrwt>
<totfact> 0.49716402E+03</totfact>
</mgrwt>
</event>
<event>
 8    1  0.3520338E-004  0.2066949E+03  0.7546771E-02  0.1147785E+00
          1   -1    0    0  501    0  0.00000000000E+00  0.00000000000E+00  0.58156194007E+03  0.58156194007E+03  0.00000000000E+00 0. -1.
         -1   -1    0    0    0  501 -0.00000000000E+00 -0.00000000000E+00 -0.68058452671E+02  0.68058452671E+02  0.00000000000E+00 0.  1.
         25    2    1    2    0    0  0.16365845264E+03 -0.17746867913E+02  0.29488940135E+03  0.36011461807E+03  0.12499495462E+03 0.  0.
         23    2    1    2    0    0 -0.16365845264E+03  0.17746867913E+02  0.21861408604E+03  0.28950577466E+03  0.94458639142E+02 0.  0.
          5    1    3    3  502    0  0.13762907415E+02  0.31006253818E+02  0.12088499099E+02  0.36318414156E+02  0.47000000000E+01 0. -1.
         -5    1    3    3    0  502  0.14989554522E+03 -0.48753121731E+02  0.28280090226E+03  0.32379620392E+03  0.47000000000E+01 0. -1.
          5    1    4    4  503    0 -0.30642484844E+02  0.40953285994E+02  0.86121678932E+02  0.10027545609E+03  0.47000000000E+01 0. -1.
         -5    1    4    4    0  503 -0.13301596779E+03 -0.23206418081E+02  0.13249240711E+03  0.18923031858E+03  0.47000000000E+01 0.  1.
<mgrwt>
<rscale>  0 0.20233336E+03</rscale>
<asrwt>0</asrwt>
<pdfrwt beam="1">  1        1 0.89471065E-01 0.20669489E+03</pdfrwt>
<pdfrwt beam="2">  1       -1 0.10470532E-01 0.20669489E+03</pdfrwt>
<totfact> 0.20704038E+03</totfact>
</mgrwt>
</event>
<event>
 8    1  0.3520338E-004  0.2957537E+03  0.7546771E-02  0.1089017E+00
          1   -1    0    0  501    0  0.00000000000E+00  0.00000000000E+00  0.51643769825E+03  0.51643769825E+03  0.00000000000E+00 0. -1.
         -1   -1    0    0    0  501 -0.00000000000E+00 -0.00000000000E+00 -0.27863051672E+03  0.27863051672E+03  0.00000000000E+00 0.  1.
         25    2    1    2    0    0 -0.48237033783E+02 -0.26366604545E+03  0.37727288618E+03  0.47937987963E+03  0.12499457345E+03 0.  0.
         23    2    1    2    0    0  0.48237033783E+02  0.26366604545E+03 -0.13946570466E+03  0.31568833533E+03  0.91443137173E+02 0.  0.
          5    1    4    4  502    0  0.43914109746E+02  0.79242220730E+02 -0.12225141098E+02  0.91538640234E+02  0.47000000000E+01 0. -1.
         -5    1    3    3    0  503 -0.65660265048E+02 -0.16237481584E+03  0.31111299494E+03  0.35705775001E+03  0.47000000000E+01 0. -1.
          5    1    3    3  503    0  0.17423231264E+02 -0.10129122961E+03  0.66159891246E+02  0.12232212962E+03  0.47000000000E+01 0. -1.
         -5    1    4    4    0  502  0.43229240374E+01  0.18442382472E+03 -0.12724056356E+03  0.22414969510E+03  0.47000000000E+01 0.  1.
<mgrwt>
<rscale>  0 0.29256686E+03</rscale>
<asrwt>0</asrwt>
<pdfrwt beam="1">  1        1 0.79451953E-01 0.29575368E+03</pdfrwt>
<pdfrwt beam="2">  1       -1 0.42866233E-01 0.29575368E+03</pdfrwt>
<totfact> 0.23716206E+02</totfact>
</mgrwt>
</event>
<event>
 8    1  0.3520338E-004  0.1448065E+03  0.7546771E-02  0.1216323E+00
         -1   -1    0    0    0  501 -0.00000000000E+00  0.00000000000E+00  0.91677005303E+02  0.91677005303E+02  0.00000000000E+00 0.  1.
          1   -1    0    0  501    0  0.00000000000E+00 -0.00000000000E+00 -0.24736815882E+03  0.24736815882E+03  0.00000000000E+00 0. -1.
         25    2    1    2    0    0  0.72992546859E+02 -0.38646997324E+01 -0.19909750194E+01  0.14482016426E+03  0.12500427271E+03 0.  0.
         23    2    1    2    0    0 -0.72992546859E+02  0.38646997324E+01 -0.15370017850E+03  0.19422499986E+03  0.93577550184E+02 0.  0.
          5    1    4    4  502    0 -0.17681098951E+02 -0.10191651263E+02 -0.13094097502E+03  0.13260512793E+03  0.47000000000E+01 0. -1.
         -5    1    3    3    0  503 -0.13888696930E+02 -0.39756051706E+02  0.21923531101E+02  0.47709231451E+02  0.47000000000E+01 0. -1.
          5    1    3    3  503    0  0.86881243790E+02  0.35891351974E+02 -0.23914506120E+02  0.97110932814E+02  0.47000000000E+01 0. -1.
         -5    1    4    4    0  502 -0.55311447908E+02  0.14056350995E+02 -0.22759203481E+02  0.61619871925E+02  0.47000000000E+01 0.  1.
<mgrwt>
<rscale>  0 0.13779767E+03</rscale>
<asrwt>0</asrwt>
<pdfrwt beam="1">  1        1 0.38056640E-01 0.14480648E+03</pdfrwt>
<pdfrwt beam="2">  1       -1 0.14104155E-01 0.14480648E+03</pdfrwt>
<totfact> 0.38355788E+03</totfact>
</mgrwt>
</event>
<event>
 8    1  0.3520338E-004  0.1470621E+03  0.7546771E-02  0.1214479E+00
         -4   -1    0    0    0  501 -0.00000000000E+00  0.00000000000E+00  0.73814956805E+03  0.73814956805E+03  0.00000000000E+00 0.  1.
          4   -1    0    0  501    0  0.00000000000E+00 -0.00000000000E+00 -0.28120088260E+02  0.28120088260E+02  0.00000000000E+00 0. -1.
         25    2    1    2    0    0 -0.67658891582E+02 -0.37727650023E+02  0.23820700012E+03  0.27994614329E+03  0.12500466812E+03 0.  0.
         23    2    1    2    0    0  0.67658891582E+02  0.37727650023E+02  0.47182247967E+03  0.48632351302E+03  0.88842590032E+02 0.  0.
          5    1    3    3  502    0 -0.69102220085E+02 -0.29663773513E+01  0.42936400434E+02  0.81544715939E+02  0.47000000000E+01 0.  1.
         -5    1    4    4    0  503  0.29571704140E+02  0.38582770763E+02  0.41430457659E+03  0.41717321111E+03  0.47000000000E+01 0.  1.
          5    1    4    4  503    0  0.38087187442E+02 -0.85512074073E+00  0.57517903081E+02  0.69150301905E+02  0.47000000000E+01 0. -1.
         -5    1    3    3    0  502  0.14433285031E+01 -0.34761272671E+02  0.19527059969E+03  0.19840142736E+03  0.47000000000E+01 0.  1.
<mgrwt>
<rscale>  0 0.13914880E+03</rscale>
<asrwt>0</asrwt>
<pdfrwt beam="1">  1        4 0.43261680E-02 0.14706212E+03</pdfrwt>
<pdfrwt beam="2">  1       -4 0.11356146E+00 0.14706212E+03</pdfrwt>
<totfact> 0.32313535E+02</totfact>
</mgrwt>
</event>
<event>
 8    1  0.3520338E-004  0.1339109E+03  0.7546771E-02  0.1234561E+00
         -2   -1    0    0    0  501 -0.00000000000E+00  0.00000000000E+00  0.21773445130E+02  0.21773445130E+02  0.00000000000E+00 0.  1.
          2   -1    0    0  501    0  0.00000000000E+00 -0.00000000000E+00 -0.68326457911E+03  0.68326457911E+03  0.00000000000E+00 0. -1.
         25    2    1    2    0    0  0.26950189559E+02 -0.39777985147E+02 -0.28687296790E+03  0.31658840628E+03  0.12499407369E+03 0.  0.
         23    2    1    2    0    0 -0.26950189559E+02  0.39777985147E+02 -0.37461816608E+03  0.38844961796E+03  0.90806026887E+02 0.  0.
          5    1    4    4  502    0 -0.52105015011E+02  0.51633329731E+02 -0.29365753585E+03  0.30271731317E+03  0.47000000000E+01 0. -1.
         -5    1    3    3    0  503 -0.18619354643E+02  0.19836102436E+02 -0.19915415113E+03  0.20105874077E+03  0.47000000000E+01 0.  1.
          5    1    3    3  503    0  0.45569544202E+02 -0.59614087583E+02 -0.87718816774E+02  0.11552966551E+03  0.47000000000E+01 0.  1.
         -5    1    4    4    0  502  0.25154825452E+02 -0.11855344584E+02 -0.80960630229E+02  0.85732304797E+02  0.47000000000E+01 0.  1.
<mgrwt>
<rscale>  0 0.12532587E+03</rscale>
<asrwt>0</asrwt>
<pdfrwt beam="1">  1        2 0.10511761E+00 0.13391086E+03</pdfrwt>
<pdfrwt beam="2">  1       -2 0.33497613E-02 0.13391086E+03</pdfrwt>
<totfact> 0.14732547E+04</totfact>
</mgrwt>
</event>
<event>
 8    1  0.3520338E-004  0.1287575E+03  0.7546771E-02  0.1243111E+00
          2   -1    0    0  501    0  0.00000000000E+00  0.00000000000E+00  0.56170715781E+03  0.56170715781E+03  0.00000000000E+00 0. -1.
         -2   -1    0    0    0  501 -0.00000000000E+00 -0.00000000000E+00 -0.22749717802E+02  0.22749717802E+02  0.00000000000E+00 0.  1.
         25    2    1    2    0    0 -0.58351001131E+01 -0.30358140369E+02  0.29460879215E+03  0.32151646394E+03  0.12499132406E+03 0.  0.
         23    2    1    2    0    0  0.58351001131E+01  0.30358140369E+02  0.24434864785E+03  0.26294041167E+03  0.92063745865E+02 0.  0.
          5    1    3    3  502    0 -0.26487361853E+02 -0.74576633829E+02  0.16876925407E+03  0.18646288041E+03  0.47000000000E+01 0. -1.
         -5    1    3    3    0  502  0.20652261740E+02  0.44218493460E+02  0.12583953808E+03  0.13505358353E+03  0.47000000000E+01 0. -1.
          5    1    4    4  503    0 -0.25474295413E+02  0.48368035467E+01  0.20385750037E+03  0.20555365444E+03  0.47000000000E+01 0. -1.
         -5    1    4    4    0  503  0.31309395526E+02  0.25521336822E+02  0.40491147481E+02  0.57386757234E+02  0.47000000000E+01 0.  1.
<mgrwt>
<rscale>  0 0.11999176E+03</rscale>
<asrwt>0</asrwt>
<pdfrwt beam="1">  1        2 0.86416475E-01 0.12875751E+03</pdfrwt>
<pdfrwt beam="2">  1       -2 0.34999570E-02 0.12875751E+03</pdfrwt>
<totfact> 0.17232874E+04</totfact>
</mgrwt>
</event>
<event>
 8    1  0.3520338E-004  0.1716429E+03  0.7546771E-02  0.1182428E+00
          2   -1    0    0  501    0  0.00000000000E+00  0.00000000000E+00  0.59018277220E+03  0.59018277220E+03  0.00000000000E+00 0. -1.
         -2   -1    0    0    0  501 -0.00000000000E+00 -0.00000000000E+00 -0.43799423632E+02  0.43799423632E+02  0.00000000000E+00 0.  1.
         25    2    1    2    0    0  0.10423595628E+03  0.54504441247E+02  0.31604320589E+03  0.35964510070E+03  0.12500168709E+03 0.  0.
         23    2    1    2    0    0 -0.10423595628E+03 -0.54504441247E+02  0.23034014268E+03  0.27433709513E+03  0.91478914163E+02 0.  0.
          5    1    3    3  502    0  0.32920896795E+02 -0.14176719559E+02  0.93614834270E+01  0.37342900198E+02  0.47000000000E+01 0.  1.
         -5    1    3    3    0  502  0.71315059483E+02  0.68681160807E+02  0.30668172246E+03  0.32230220050E+03  0.47000000000E+01 0.  1.
          5    1    4    4  503    0 -0.76889255636E+02  0.83584030382E+01  0.14829535999E+03  0.16731833231E+03  0.47000000000E+01 0. -1.
         -5    1    4    4    0  503 -0.27346700642E+02 -0.62862844285E+02  0.82044782689E+02  0.10701876281E+03  0.47000000000E+01 0.  1.
<mgrwt>
<rscale>  0 0.16568147E+03</rscale>
<asrwt>0</asrwt>
<pdfrwt beam="1">  1        2 0.90797344E-01 0.17164292E+03</pdfrwt>
<pdfrwt beam="2">  1       -2 0.67383733E-02 0.17164292E+03</pdfrwt>
<totfact> 0.62005971E+03</totfact>
</mgrwt>
</event>
<event>
 8    1  0.3520338E-004  0.1273793E+03  0.7546771E-02  0.1246007E+00
          2   -1    0    0  501    0  0.00000000000E+00  0.00000000000E+00  0.12063780061E+03  0.12063780061E+03  0.00000000000E+00 0. -1.
         -2   -1    0    0    0  501 -0.00000000000E+00 -0.00000000000E+00 -0.11178377654E+03  0.11178377654E+03  0.00000000000E+00 0.  1.
         25    2    1    2    0    0 -0.43760239237E+01  0.24105461451E+02 -0.28793153333E+02  0.13059302504E+03  0.12500107861E+03 0.  0.
         23    2    1    2    0    0  0.43760239237E+01 -0.24105461451E+02  0.37647177406E+02  0.10182855211E+03  0.91386657674E+02 0.  0.
          5    1    3    3  502    0  0.32609828033E+02 -0.18479144082E+02 -0.56193320759E+02  0.67710109645E+02  0.47000000000E+01 0.  1.
         -5    1    4    4    0  503  0.37878306084E+02  0.18448514336E+01 -0.83444383905E+01  0.39113798085E+02  0.47000000000E+01 0.  1.
          5    1    4    4  503    0 -0.33502282160E+02 -0.25950312885E+02  0.45991615796E+02  0.62714754024E+02  0.47000000000E+01 0. -1.
         -5    1    3    3    0  502 -0.36985851956E+02  0.42584605533E+02  0.27400167426E+02  0.62882915393E+02  0.47000000000E+01 0.  1.
<mgrwt>
<rscale>  0 0.11825314E+03</rscale>
<asrwt>0</asrwt>
<pdfrwt beam="1">  1        2 0.18559662E-01 0.12737933E+03</pdfrwt>
<pdfrwt beam="2">  1       -2 0.17197504E-01 0.12737933E+03</pdfrwt>
<totfact> 0.77513299E+03</totfact>
</mgrwt>
</event>
<event>
 8    1  0.3520338E-004  0.1550360E+03  0.7546771E-02  0.1202642E+00
          2   -1    0    0  501    0  0.00000000000E+00  0.00000000000E+00  0.26322181317E+03  0.26322181317E+03  0.00000000000E+00 0.  1.
         -2   -1    0    0    0  501 -0.00000000000E+00 -0.00000000000E+00 -0.77047773202E+02  0.77047773202E+02  0.00000000000E+00 0. -1.
         25    2    1    2    0    0 -0.82049560613E+02  0.41038816418E+02  0.10720033401E+03  0.18848894811E+03  0.12497942669E+03 0.  0.
         23    2    1    2    0    0  0.82049560613E+02 -0.41038816418E+02  0.78973705953E+02  0.15178063826E+03  0.91565283103E+02 0.  0.
          5    1    4    4  502    0  0.62261504436E+02 -0.56999324731E+02  0.19257870411E+02  0.86708555099E+02  0.47000000000E+01 0. -1.
         -5    1    3    3    0  503 -0.11368281753E+03  0.45275639628E+02  0.89633883781E+02  0.15175634967E+03  0.47000000000E+01 0.  1.
          5    1    3    3  503    0  0.31633256915E+02 -0.42368232102E+01  0.17566450233E+02  0.36732598434E+02  0.47000000000E+01 0.  1.
         -5    1    4    4    0  502  0.19788056177E+02  0.15960508314E+02  0.59715835541E+02  0.65072083164E+02  0.47000000000E+01 0.  1.
<mgrwt>
<rscale>  0 0.14824833E+03</rscale>
<asrwt>0</asrwt>
<pdfrwt beam="1">  1        2 0.40495663E-01 0.15503603E+03</pdfrwt>
<pdfrwt beam="2">  1       -2 0.11853504E-01 0.15503603E+03</pdfrwt>
<totfact> 0.61176672E+03</totfact>
</mgrwt>
</event>
<event>
 8    1  0.3520338E-004  0.1432444E+03  0.7546771E-02  0.1219203E+00
          2   -1    0    0  501    0  0.00000000000E+00  0.00000000000E+00  0.25190659683E+03  0.25190659683E+03  0.00000000000E+00 0. -1.
         -2   -1    0    0    0  501 -0.00000000000E+00 -0.00000000000E+00 -0.68541074298E+02  0.68541074298E+02  0.00000000000E+00 0.  1.
         25    2    1    2    0    0 -0.44215938548E+02 -0.54206094958E+02  0.73159181572E+02  0.16084533708E+03  0.12500242661E+03 0.  0.
         23    2    1    2    0    0  0.44215938548E+02  0.54206094958E+02  0.11020634096E+03  0.15960233405E+03  0.91837451479E+02 0.  0.
          5    1    4    4  502    0 -0.24430067305E+02  0.34525522931E+01  0.46950169368E+02  0.53246189625E+02  0.47000000000E+01 0. -1.
         -5    1    4    4    0  502  0.68646005853E+02  0.50753542665E+02  0.63256171594E+02  0.10635614443E+03  0.47000000000E+01 0.  1.
          5    1    3    3  503    0 -0.59534972742E+02 -0.23826722390E+02  0.98872272829E+02  0.11794041722E+03  0.47000000000E+01 0.  1.
         -5    1    3    3    0  503  0.15319034194E+02 -0.30379372568E+02 -0.25713091257E+02  0.42904919861E+02  0.47000000000E+01 0.  1.
<mgrwt>
<rscale>  0 0.13572245E+03</rscale>
<asrwt>0</asrwt>
<pdfrwt beam="1">  1        2 0.38754861E-01 0.14324439E+03</pdfrwt>
<pdfrwt beam="2">  1       -2 0.10544781E-01 0.14324439E+03</pdfrwt>
<totfact> 0.76824407E+03</totfact>
</mgrwt>
</event>
<event>
 8    1  0.3520338E-004  0.1282286E+03  0.7546771E-02  0.1242757E+00
         -4   -1    0    0    0  501 -0.00000000000E+00  0.00000000000E+00  0.25778719140E+02  0.25778719140E+02  0.00000000000E+00 0.  1.
          4   -1    0    0  501    0  0.00000000000E+00 -0.00000000000E+00 -0.53049016835E+03  0.53049016835E+03  0.00000000000E+00 0. -1.
         25    2    1    2    0    0 -0.28499859643E+02 -0.25497941837E+01 -0.34819316099E+03  0.37105398324E+03  0.12499535059E+03 0.  0.
         23    2    1    2    0    0  0.28499859643E+02  0.25497941837E+01 -0.15651828822E+03  0.18521490425E+03  0.94804233861E+02 0.  0.
          5    1    4    4  502    0 -0.25054143660E+02  0.16681175319E+02 -0.10534041702E+03  0.10965703435E+03  0.47000000000E+01 0. -1.
         -5    1    4    4    0  502  0.53554003304E+02 -0.14131381135E+02 -0.51177871196E+02  0.75557869893E+02  0.47000000000E+01 0.  1.
          5    1    3    3  503    0 -0.19669949644E+02  0.29269167106E+02 -0.33213600301E+03  0.33403593453E+03  0.47000000000E+01 0. -1.
         -5    1    3    3    0  503 -0.88299099996E+01 -0.31818961290E+02 -0.16057157982E+02  0.37018048715E+02  0.47000000000E+01 0. -1.
<mgrwt>
<rscale>  0 0.12020665E+03</rscale>
<asrwt>0</asrwt>
<pdfrwt beam="1">  1        4 0.81613867E-01 0.12822863E+03</pdfrwt>
<pdfrwt beam="2">  1       -4 0.39659570E-02 0.12822863E+03</pdfrwt>
<totfact> 0.77135878E+02</totfact>
</mgrwt>
</event>
<event>
 8    1  0.3520338E-004  0.1284915E+03  0.7546771E-02  0.1243886E+00
          1   -1    0    0  501    0  0.00000000000E+00  0.00000000000E+00  0.57065452007E+03  0.57065452007E+03  0.00000000000E+00 0. -1.
         -1   -1    0    0    0  501 -0.00000000000E+00 -0.00000000000E+00 -0.23774382357E+02  0.23774382357E+02  0.00000000000E+00 0.  1.
         25    2    1    2    0    0 -0.13525660778E+02 -0.26504907722E+02  0.23230408717E+03  0.26547176108E+03  0.12499845352E+03 0.  0.
         23    2    1    2    0    0  0.13525660778E+02  0.26504907722E+02  0.31457605054E+03  0.32895714135E+03  0.91483635891E+02 0.  0.
          5    1    3    3  502    0 -0.35270505817E+02 -0.43713703179E+02  0.23049616299E+03  0.23728773162E+03  0.47000000000E+01 0. -1.
         -5    1    4    4    0  503  0.40246990213E+02 -0.16994513096E+02  0.12191430335E+03  0.12959097599E+03  0.47000000000E+01 0.  1.
          5    1    4    4  503    0 -0.26721329436E+02  0.43499420818E+02  0.19266174719E+03  0.19936616536E+03  0.47000000000E+01 0. -1.
         -5    1    3    3    0  502  0.21744845039E+02  0.17208795457E+02  0.18079241871E+01  0.28184029463E+02  0.47000000000E+01 0. -1.
<mgrwt>
<rscale>  0 0.11952291E+03</rscale>
<asrwt>0</asrwt>
<pdfrwt beam="1">  1        1 0.87792993E-01 0.12849151E+03</pdfrwt>
<pdfrwt beam="2">  1       -1 0.36575977E-02 0.12849151E+03</pdfrwt>
<totfact> 0.10076333E+04</totfact>
</mgrwt>
</event>
<event>
 8    1  0.3520338E-004  0.1536210E+03  0.7546771E-02  0.1204598E+00
         -2   -1    0    0    0  501 -0.00000000000E+00  0.00000000000E+00  0.47015259052E+02  0.47015259052E+02  0.00000000000E+00 0.  1.
          2   -1    0    0  501    0  0.00000000000E+00 -0.00000000000E+00 -0.59090101292E+03  0.59090101292E+03  0.00000000000E+00 0. -1.
         25    2    1    2    0    0  0.35222439208E+02  0.82059770352E+02 -0.46033973348E+03  0.48529588430E+03  0.12499999584E+03 0.  0.
         23    2    1    2    0    0 -0.35222439208E+02 -0.82059770352E+02 -0.83546020382E+02  0.15262038767E+03  0.91316039536E+02 0.  0.
          5    1    3    3  502    0 -0.25280931089E+02  0.41660057828E+01 -0.17029948980E+02  0.31122182494E+02  0.47000000000E+01 0. -1.
         -5    1    4    4    0  503  0.24079841164E+02  0.86654262555E+00 -0.24645471257E+02  0.34786188352E+02  0.47000000000E+01 0.  1.
          5    1    4    4  503    0 -0.59302280372E+02 -0.82926312978E+02 -0.58900549125E+02  0.11783419932E+03  0.47000000000E+01 0. -1.
         -5    1    3    3    0  502  0.60503370297E+02  0.77893764570E+02 -0.44330978450E+03  0.45417370181E+03  0.47000000000E+01 0. -1.
<mgrwt>
<rscale>  0 0.14669149E+03</rscale>
<asrwt>0</asrwt>
<pdfrwt beam="1">  1        2 0.90907847E-01 0.15362104E+03</pdfrwt>
<pdfrwt beam="2">  1       -2 0.72331169E-02 0.15362104E+03</pdfrwt>
<totfact> 0.55231115E+03</totfact>
</mgrwt>
</event>
<event>
 8    1  0.3520338E-004  0.1353745E+03  0.7546771E-02  0.1232162E+00
         -1   -1    0    0    0  501 -0.00000000000E+00  0.00000000000E+00  0.12149665260E+03  0.12149665260E+03  0.00000000000E+00 0.  1.
          1   -1    0    0  501    0  0.00000000000E+00 -0.00000000000E+00 -0.13052286520E+03  0.13052286520E+03  0.00000000000E+00 0. -1.
         25    2    1    2    0    0  0.16289771155E+02 -0.49371635336E+02  0.33138095987E+02  0.13937143490E+03  0.12499339358E+03 0.  0.
         23    2    1    2    0    0 -0.16289771155E+02  0.49371635336E+02 -0.42164308583E+02  0.11264808291E+03  0.90602685636E+02 0.  0.
          5    1    3    3  502    0 -0.25745918652E+02 -0.17609596736E+02 -0.38847376214E+02  0.50041571349E+02  0.47000000000E+01 0. -1.
         -5    1    4    4    0  503  0.27256592303E+02  0.36902846019E+02  0.58326862617E+01  0.46484966358E+02  0.47000000000E+01 0.  1.
          5    1    4    4  503    0 -0.43546363458E+02  0.12468789317E+02 -0.47996994845E+02  0.66163116550E+02  0.47000000000E+01 0. -1.
         -5    1    3    3    0  502  0.42035689807E+02 -0.31762038600E+02  0.71985472200E+02  0.89329863548E+02  0.47000000000E+01 0. -1.
<mgrwt>
<rscale>  0 0.12687895E+03</rscale>
<asrwt>0</asrwt>
<pdfrwt beam="1">  1        1 0.20080441E-01 0.13537453E+03</pdfrwt>
<pdfrwt beam="2">  1       -1 0.18691793E-01 0.13537453E+03</pdfrwt>
<totfact> 0.54526643E+03</totfact>
</mgrwt>
</event>
<event>
 8    1  0.3520338E-004  0.1254411E+03  0.7546771E-02  0.1251576E+00
         -2   -1    0    0    0  501 -0.00000000000E+00  0.00000000000E+00  0.24166829227E+02  0.24166829227E+02  0.00000000000E+00 0.  1.
          2   -1    0    0  501    0  0.00000000000E+00 -0.00000000000E+00 -0.47606311778E+03  0.47606311778E+03  0.00000000000E+00 0. -1.
         25    2    1    2    0    0  0.33264578873E+01 -0.95660368390E+01 -0.28084476324E+03  0.30758617435E+03  0.12503159293E+03 0.  0.
         23    2    1    2    0    0 -0.33264578873E+01  0.95660368390E+01 -0.17105152530E+03  0.19264377265E+03  0.88036494979E+02 0.  0.
          5    1    3    3  502    0  0.46647933939E+02  0.33853257820E+02 -0.89151120751E+02  0.10626422322E+03  0.47000000000E+01 0. -1.
         -5    1    3    3    0  502 -0.43321476052E+02 -0.43419294658E+02 -0.19169364249E+03  0.20132195113E+03  0.47000000000E+01 0. -1.
          5    1    4    4  503    0  0.47866551027E+01 -0.38134448749E+02 -0.92350609580E+02  0.10013926971E+03  0.47000000000E+01 0. -1.
         -5    1    4    4    0  503 -0.81131129900E+01  0.47700485588E+02 -0.78700915724E+02  0.92504502937E+02  0.47000000000E+01 0.  1.
<mgrwt>
<rscale>  0 0.11500305E+03</rscale>
<asrwt>0</asrwt>
<pdfrwt beam="1">  1        2 0.73240486E-01 0.12544112E+03</pdfrwt>
<pdfrwt beam="2">  1       -2 0.37179734E-02 0.12544112E+03</pdfrwt>
<totfact> 0.18870069E+04</totfact>
</mgrwt>
</event>
<event>
 8    1  0.3520338E-004  0.1300754E+03  0.7546771E-02  0.1240400E+00
          2   -1    0    0  501    0  0.00000000000E+00  0.00000000000E+00  0.91161817559E+03  0.91161817559E+03  0.00000000000E+00 0. -1.
         -2   -1    0    0    0  501 -0.00000000000E+00 -0.00000000000E+00 -0.14894708197E+02  0.14894708197E+02  0.00000000000E+00 0.  1.
         25    2    1    2    0    0  0.26545319596E+02  0.24285133642E+02  0.58523269287E+03  0.59951389751E+03  0.12500074718E+03 0.  0.
         23    2    1    2    0    0 -0.26545319596E+02 -0.24285133642E+02  0.31149077452E+03  0.32699898627E+03  0.92776142972E+02 0.  0.
          5    1    4    4  502    0  0.21792332943E+02 -0.63345541200E+01  0.22503132404E+03  0.22622161513E+03  0.47000000000E+01 0. -1.
         -5    1    3    3    0  503  0.61039357143E+02 -0.25935203856E+02  0.24626346099E+03  0.25508081100E+03  0.47000000000E+01 0. -1.
          5    1    3    3  503    0 -0.34494037547E+02  0.50220337498E+02  0.33896923188E+03  0.34443308651E+03  0.47000000000E+01 0. -1.
         -5    1    4    4    0  502 -0.48337652540E+02 -0.17950579522E+02  0.86459450480E+02  0.10077737115E+03  0.47000000000E+01 0.  1.
<mgrwt>
<rscale>  0 0.12164964E+03</rscale>
<asrwt>0</asrwt>
<pdfrwt beam="1">  1        2 0.14024891E+00 0.13007540E+03</pdfrwt>
<pdfrwt beam="2">  1       -2 0.22914943E-02 0.13007540E+03</pdfrwt>
<totfact> 0.17938007E+04</totfact>
</mgrwt>
</event>
<event>
 8    1  0.3520338E-004  0.1810860E+03  0.7546771E-02  0.1172609E+00
         -1   -1    0    0    0  501 -0.00000000000E+00  0.00000000000E+00  0.35465852372E+03  0.35465852372E+03  0.00000000000E+00 0.  1.
          1   -1    0    0  501    0  0.00000000000E+00 -0.00000000000E+00 -0.87382655721E+02  0.87382655721E+02  0.00000000000E+00 0. -1.
         25    2    1    2    0    0 -0.52291738704E+02 -0.12015432322E+03  0.83434270087E+02  0.19938256517E+03  0.12498256896E+03 0.  0.
         23    2    1    2    0    0  0.52291738704E+02  0.12015432322E+03  0.18384159791E+03  0.24265861427E+03  0.88960567860E+02 0.  0.
          5    1    3    3  502    0  0.32571126679E+02 -0.45759799206E+02 -0.40543888885E+01  0.56509871578E+02  0.47000000000E+01 0. -1.
         -5    1    4    4    0  503 -0.84435578334E+00  0.34878778264E+02  0.11627237204E+03  0.12148496454E+03  0.47000000000E+01 0.  1.
          5    1    4    4  503    0  0.53136094488E+02  0.85275544953E+02  0.67569225872E+02  0.12117364973E+03  0.47000000000E+01 0. -1.
         -5    1    3    3    0  502 -0.84862865383E+02 -0.74394524011E+02  0.87488658975E+02  0.14287269359E+03  0.47000000000E+01 0. -1.
<mgrwt>
<rscale>  0 0.17512227E+03</rscale>
<asrwt>0</asrwt>
<pdfrwt beam="1">  1        1 0.13443486E-01 0.18108597E+03</pdfrwt>
<pdfrwt beam="2">  1       -1 0.54562849E-01 0.18108597E+03</pdfrwt>
<totfact> 0.14847788E+03</totfact>
</mgrwt>
</event>
<event>
 8    1  0.3520338E-004  0.1559961E+03  0.7546771E-02  0.1200738E+00
          2   -1    0    0  501    0  0.00000000000E+00  0.00000000000E+00  0.79079076962E+02  0.79079076962E+02  0.00000000000E+00 0. -1.
         -2   -1    0    0    0  501 -0.00000000000E+00 -0.00000000000E+00 -0.29895934512E+03  0.29895934512E+03  0.00000000000E+00 0.  1.
         25    2    1    2    0    0 -0.36979074993E+02 -0.85685279148E+02 -0.18288898218E+03  0.24038126841E+03  0.12500142138E+03 0.  0.
         23    2    1    2    0    0  0.36979074993E+02  0.85685279148E+02 -0.36991285977E+02  0.13765715368E+03  0.94189795999E+02 0.  0.
          5    1    3    3  502    0 -0.81871459920E+02 -0.66588816307E+02 -0.13904404799E+03  0.17462057063E+03  0.47000000000E+01 0. -1.
         -5    1    4    4    0  503  0.41027686216E+02  0.17687552073E+02 -0.50989529076E+02  0.67956917308E+02  0.47000000000E+01 0.  1.
          5    1    4    4  503    0 -0.40486112222E+01  0.67997727075E+02  0.13998243099E+02  0.69700236370E+02  0.47000000000E+01 0. -1.
         -5    1    3    3    0  502  0.44892384926E+02 -0.19096462841E+02 -0.43844934196E+02  0.65760697776E+02  0.47000000000E+01 0. -1.
<mgrwt>
<rscale>  0 0.14978424E+03</rscale>
<asrwt>0</asrwt>
<pdfrwt beam="1">  1        2 0.12166012E-01 0.15599607E+03</pdfrwt>
<pdfrwt beam="2">  1       -2 0.45993746E-01 0.15599607E+03</pdfrwt>
<totfact> 0.22174374E+03</totfact>
</mgrwt>
</event>
<event>
 8    1  0.3520338E-004  0.1654403E+03  0.7546771E-02  0.1189567E+00
         -2   -1    0    0    0  501 -0.00000000000E+00  0.00000000000E+00  0.22747598982E+03  0.22747598982E+03  0.00000000000E+00 0.  1.
          2   -1    0    0  501    0  0.00000000000E+00 -0.00000000000E+00 -0.10903774471E+03  0.10903774471E+03  0.00000000000E+00 0. -1.
         25    2    1    2    0    0  0.21143189267E+02  0.10629439305E+03  0.26956262165E+02  0.16762198004E+03  0.12499982271E+03 0.  0.
         23    2    1    2    0    0 -0.21143189267E+02 -0.10629439305E+03  0.91481982951E+02  0.16889175449E+03  0.91705720021E+02 0.  0.
          5    1    4    4  502    0 -0.44372171208E+02 -0.53208901370E+02  0.12083773028E+02  0.70485348360E+02  0.47000000000E+01 0. -1.
         -5    1    4    4    0  502  0.23228981941E+02 -0.53085491675E+02  0.79398209923E+02  0.98406406130E+02  0.47000000000E+01 0.  1.
          5    1    3    3  503    0  0.30749171826E+02  0.70910431971E+02 -0.42947956463E+02  0.88546134272E+02  0.47000000000E+01 0.  1.
         -5    1    3    3    0  503 -0.96059825583E+01  0.35383961075E+02  0.69904218627E+02  0.79075845769E+02  0.47000000000E+01 0.  1.
<mgrwt>
<rscale>  0 0.15923190E+03</rscale>
<asrwt>0</asrwt>
<pdfrwt beam="1">  1        2 0.16775038E-01 0.16544029E+03</pdfrwt>
<pdfrwt beam="2">  1       -2 0.34996306E-01 0.16544029E+03</pdfrwt>
<totfact> 0.25558067E+03</totfact>
</mgrwt>
</event>
<event>
 8    1  0.3520338E-004  0.1489754E+03  0.7546771E-02  0.1211179E+00
         -1   -1    0    0    0  501 -0.00000000000E+00  0.00000000000E+00  0.70748242511E+02  0.70748242511E+02  0.00000000000E+00 0.  1.
          1   -1    0    0  501    0  0.00000000000E+00 -0.00000000000E+00 -0.27059943624E+03  0.27059943624E+03  0.00000000000E+00 0. -1.
         25    2    1    2    0    0 -0.66851586125E+02 -0.45808538686E+02 -0.74050839275E+02  0.16636465926E+03  0.12500446500E+03 0.  0.
         23    2    1    2    0    0  0.66851586125E+02  0.45808538686E+02 -0.12580035445E+03  0.17498301949E+03  0.90696037100E+02 0.  0.
          5    1    4    4  502    0  0.37049023229E+02 -0.10770120773E+02 -0.63116533447E+01  0.39377056665E+02  0.47000000000E+01 0. -1.
         -5    1    4    4    0  502  0.29802562896E+02  0.56578659459E+02 -0.11948870111E+03  0.13560596283E+03  0.47000000000E+01 0.  1.
          5    1    3    3  503    0 -0.88290606052E+01  0.36007761643E+02  0.61258412714E+01  0.37869871151E+02  0.47000000000E+01 0.  1.
         -5    1    3    3    0  503 -0.58022525520E+02 -0.81816300330E+02 -0.80176680547E+02  0.12849478811E+03  0.47000000000E+01 0.  1.
<mgrwt>
<rscale>  0 0.14161008E+03</rscale>
<asrwt>0</asrwt>
<pdfrwt beam="1">  1        1 0.41630682E-01 0.14897541E+03</pdfrwt>
<pdfrwt beam="2">  1       -1 0.10884345E-01 0.14897541E+03</pdfrwt>
<totfact> 0.51354507E+03</totfact>
</mgrwt>
</event>
<event>
 8    1  0.3520338E-004  0.2266480E+03  0.7546771E-02  0.1132153E+00
         -1   -1    0    0    0  501 -0.00000000000E+00  0.00000000000E+00  0.35273493025E+03  0.35273493025E+03  0.00000000000E+00 0.  1.
          1   -1    0    0  501    0  0.00000000000E+00 -0.00000000000E+00 -0.13634436517E+03  0.13634436517E+03  0.00000000000E+00 0. -1.
         25    2    1    2    0    0 -0.17683275031E+03  0.66906092347E+02  0.13602604964E+03  0.26433387223E+03  0.12499225197E+03 0.  0.
         23    2    1    2    0    0  0.17683275031E+03 -0.66906092347E+02  0.80364515440E+02  0.22474542319E+03  0.91136179021E+02 0.  0.
          5    1    4    4  502    0  0.26517988254E+02 -0.18320138223E+02 -0.19340450269E+02  0.37881053077E+02  0.47000000000E+01 0. -1.
         -5    1    3    3    0  503 -0.12570353712E+03 -0.16251951170E+02  0.94379649741E+02  0.15809842961E+03  0.47000000000E+01 0. -1.
          5    1    3    3  503    0 -0.51129213189E+02  0.83158043517E+02  0.41646399902E+02  0.10623544262E+03  0.47000000000E+01 0. -1.
         -5    1    4    4    0  502  0.15031476205E+03 -0.48585954124E+02  0.99704965709E+02  0.18686437011E+03  0.47000000000E+01 0.  1.
<mgrwt>
<rscale>  0 0.22233594E+03</rscale>
<asrwt>0</asrwt>
<pdfrwt beam="1">  1        1 0.20976056E-01 0.22664799E+03</pdfrwt>
<pdfrwt beam="2">  1       -1 0.54266912E-01 0.22664799E+03</pdfrwt>
<totfact> 0.84498954E+02</totfact>
</mgrwt>
</event>
<event>
 8    1  0.3520338E-004  0.1815510E+03  0.7546771E-02  0.1171885E+00
         -3   -1    0    0    0  501 -0.00000000000E+00  0.00000000000E+00  0.77726818385E+03  0.77726818385E+03  0.00000000000E+00 0.  1.
          3   -1    0    0  501    0  0.00000000000E+00 -0.00000000000E+00 -0.37577752201E+02  0.37577752201E+02  0.00000000000E+00 0. -1.
         25    2    1    2    0    0  0.10792771670E+03  0.75443207350E+02  0.37202135213E+03  0.41395729726E+03  0.12498275060E+03 0.  0.
         23    2    1    2    0    0 -0.10792771670E+03 -0.75443207350E+02  0.36766907952E+03  0.40088863879E+03  0.90504580595E+02 0.  0.
          5    1    3    3  502    0  0.20944442483E+02 -0.33217162308E+02  0.55473777947E+02  0.68128405107E+02  0.47000000000E+01 0.  1.
         -5    1    4    4    0  503  0.14954905651E+01 -0.33438595139E+02  0.37419283516E+02  0.50424883894E+02  0.47000000000E+01 0.  1.
          5    1    4    4  503    0 -0.10942320727E+03 -0.42004612211E+02  0.33024979600E+03  0.35046375490E+03  0.47000000000E+01 0. -1.
         -5    1    3    3    0  502  0.86983274217E+02  0.10866036966E+03  0.31654757418E+03  0.34582889215E+03  0.47000000000E+01 0.  1.
<mgrwt>
<rscale>  0 0.17584610E+03</rscale>
<asrwt>0</asrwt>
<pdfrwt beam="1">  1        3 0.57811932E-02 0.18155098E+03</pdfrwt>
<pdfrwt beam="2">  1       -3 0.11957971E+00 0.18155098E+03</pdfrwt>
<totfact> 0.26044759E+02</totfact>
</mgrwt>
</event>
<event>
 8    1  0.3520338E-004  0.2274165E+03  0.7546771E-02  0.1131530E+00
          2   -1    0    0  501    0  0.00000000000E+00  0.00000000000E+00  0.20948914888E+04  0.20948914888E+04  0.00000000000E+00 0.  1.
         -2   -1    0    0    0  501 -0.00000000000E+00 -0.00000000000E+00 -0.22996087143E+02  0.22996087143E+02  0.00000000000E+00 0. -1.
         25    2    1    2    0    0  0.25148901030E+02 -0.18831440650E+03  0.11297599174E+04  0.11524216814E+04  0.12499391066E+03 0.  0.
         23    2    1    2    0    0 -0.25148901030E+02  0.18831440650E+03  0.94213548419E+03  0.96546589456E+03  0.91707906200E+02 0.  0.
          5    1    4    4  502    0 -0.50805766421E+02  0.16232514482E+03  0.69079344170E+03  0.71144103595E+03  0.47000000000E+01 0. -1.
         -5    1    4    4    0  502  0.25656865391E+02  0.25989261679E+02  0.25134204250E+03  0.25402485861E+03  0.47000000000E+01 0.  1.
          5    1    3    3  503    0 -0.25860989477E+02 -0.12037898359E+03  0.87960298924E+03  0.88819108256E+03  0.47000000000E+01 0. -1.
         -5    1    3    3    0  503  0.51009890507E+02 -0.67935422902E+02  0.25015692821E+03  0.26423059881E+03  0.47000000000E+01 0. -1.
<mgrwt>
<rscale>  0 0.22318639E+03</rscale>
<asrwt>0</asrwt>
<pdfrwt beam="1">  1        2 0.32229085E+00 0.22741649E+03</pdfrwt>
<pdfrwt beam="2">  1       -2 0.35378612E-02 0.22741649E+03</pdfrwt>
<totfact> 0.21945682E+03</totfact>
</mgrwt>
</event>
<event>
 8    1  0.3520338E-004  0.1951399E+03  0.7546771E-02  0.1158436E+00
          3   -1    0    0  501    0  0.00000000000E+00  0.00000000000E+00  0.72837395643E+03  0.72837395643E+03  0.00000000000E+00 0. -1.
         -3   -1    0    0    0  501 -0.00000000000E+00 -0.00000000000E+00 -0.48324164706E+02  0.48324164706E+02  0.00000000000E+00 0.  1.
         25    2    1    2    0    0  0.14142103242E+03 -0.49569989418E+02  0.29707853814E+03  0.35543666012E+03  0.12498987667E+03 0.  0.
         23    2    1    2    0    0 -0.14142103242E+03  0.49569989418E+02  0.38297125358E+03  0.42126146101E+03  0.91307969006E+02 0.  0.
          5    1    4    4  502    0 -0.27788867374E+01  0.26486206274E+02  0.12042418549E+03  0.12342331945E+03  0.47000000000E+01 0. -1.
         -5    1    4    4    0  502 -0.13864214569E+03  0.23083783145E+02  0.26254706809E+03  0.29783814156E+03  0.47000000000E+01 0.  1.
          5    1    3    3  503    0  0.92765300281E+02  0.22060405946E+00  0.65714769333E+02  0.11378036083E+03  0.47000000000E+01 0.  1.
         -5    1    3    3    0  503  0.48655732142E+02 -0.49790593478E+02  0.23136376880E+03  0.24165629929E+03  0.47000000000E+01 0.  1.
<mgrwt>
<rscale>  0 0.19002825E+03</rscale>
<asrwt>0</asrwt>
<pdfrwt beam="1">  1        3 0.11205752E+00 0.19513985E+03</pdfrwt>
<pdfrwt beam="2">  1       -3 0.74344874E-02 0.19513985E+03</pdfrwt>
<totfact> 0.20415382E+02</totfact>
</mgrwt>
</event>
<event>
 8    1  0.3520338E-004  0.1278443E+03  0.7546771E-02  0.1244898E+00
          1   -1    0    0  501    0  0.00000000000E+00  0.00000000000E+00  0.24112523432E+02  0.24112523432E+02  0.00000000000E+00 0. -1.
         -1   -1    0    0    0  501 -0.00000000000E+00 -0.00000000000E+00 -0.61067383829E+03  0.61067383829E+03  0.00000000000E+00 0.  1.
         25    2    1    2    0    0  0.24130771478E+02  0.11691757329E+02 -0.45154806920E+03  0.46929716191E+03  0.12500070424E+03 0.  0.
         23    2    1    2    0    0 -0.24130771478E+02 -0.11691757329E+02 -0.13501324566E+03  0.16548919981E+03  0.91864614672E+02 0.  0.
          5    1    4    4  502    0 -0.19746273420E+02 -0.51476908206E+02 -0.81062013533E+02  0.98147477963E+02  0.47000000000E+01 0. -1.
         -5    1    4    4    0  502 -0.43844980585E+01  0.39785150876E+02 -0.53951232131E+02  0.67341721851E+02  0.47000000000E+01 0.  1.
          5    1    3    3  503    0  0.64567565761E+02  0.35120126860E+02 -0.19418422257E+03  0.20768244065E+03  0.47000000000E+01 0.  1.
         -5    1    3    3    0  503 -0.40436794283E+02 -0.23428369531E+02 -0.25736384662E+03  0.26161472126E+03  0.47000000000E+01 0.  1.
<mgrwt>
<rscale>  0 0.11891502E+03</rscale>
<asrwt>0</asrwt>
<pdfrwt beam="1">  1        1 0.37096188E-02 0.12784431E+03</pdfrwt>
<pdfrwt beam="2">  1       -1 0.93949825E-01 0.12784431E+03</pdfrwt>
<totfact> 0.28120005E+03</totfact>
</mgrwt>
</event>
<event>
 8    1  0.3520338E-004  0.2686905E+03  0.7546771E-02  0.1103865E+00
         -1   -1    0    0    0  501 -0.00000000000E+00  0.00000000000E+00  0.20385930374E+03  0.20385930374E+03  0.00000000000E+00 0.  1.
          1   -1    0    0  501    0  0.00000000000E+00 -0.00000000000E+00 -0.49457432168E+03  0.49457432168E+03  0.00000000000E+00 0. -1.
         25    2    1    2    0    0 -0.11865297218E+03  0.20613740823E+03  0.48769174245E+02  0.27308056028E+03  0.12499360450E+03 0.  0.
         23    2    1    2    0    0  0.11865297218E+03 -0.20613740823E+03 -0.33948419219E+03  0.42535306514E+03  0.95417788681E+02 0.  0.
          5    1    4    4  502    0  0.92517727189E+01 -0.61810203117E+02 -0.15308855264E+03  0.16542155681E+03  0.47000000000E+01 0. -1.
         -5    1    4    4    0  502  0.10940119946E+03 -0.14432720512E+03 -0.18639563955E+03  0.25993150833E+03  0.47000000000E+01 0.  1.
          5    1    3    3  503    0 -0.11182126927E+03  0.84274074134E+02 -0.36839660996E+01  0.14014912572E+03  0.47000000000E+01 0.  1.
         -5    1    3    3    0  503 -0.68317029019E+01  0.12186333410E+03  0.52453140345E+02  0.13293143456E+03  0.47000000000E+01 0.  1.
<mgrwt>
<rscale>  0 0.26553072E+03</rscale>
<asrwt>0</asrwt>
<pdfrwt beam="1">  1        1 0.76088357E-01 0.26869045E+03</pdfrwt>
<pdfrwt beam="2">  1       -1 0.31362970E-01 0.26869045E+03</pdfrwt>
<totfact> 0.43646637E+02</totfact>
</mgrwt>
</event>
<event>
 8    1  0.3520338E-004  0.1795208E+03  0.7546771E-02  0.1174081E+00
         -1   -1    0    0    0  501 -0.00000000000E+00  0.00000000000E+00  0.30825375257E+02  0.30825375257E+02  0.00000000000E+00 0.  1.
          1   -1    0    0  501    0  0.00000000000E+00 -0.00000000000E+00 -0.92732442763E+03  0.92732442763E+03  0.00000000000E+00 0. -1.
         25    2    1    2    0    0  0.12118570819E+03 -0.43763678056E+02 -0.43408744570E+03  0.46974422469E+03  0.12500596276E+03 0.  0.
         23    2    1    2    0    0 -0.12118570819E+03  0.43763678056E+02 -0.46241160667E+03  0.48840557820E+03  0.90079295323E+02 0.  0.
          5    1    4    4  502    0 -0.21114697087E+02  0.51434664515E+02 -0.19144406320E+03  0.19940981541E+03  0.47000000000E+01 0. -1.
         -5    1    4    4    0  502 -0.10007101110E+03 -0.76709864594E+01 -0.27096754347E+03  0.28899576278E+03  0.47000000000E+01 0.  1.
          5    1    3    3  503    0  0.35245706277E+02  0.63138911917E+01 -0.15197388394E+02  0.39181317575E+02  0.47000000000E+01 0. -1.
         -5    1    3    3    0  503  0.85940001909E+02 -0.50077569248E+02 -0.41889005731E+03  0.43056290712E+03  0.47000000000E+01 0. -1.
<mgrwt>
<rscale>  0 0.17366301E+03</rscale>
<asrwt>0</asrwt>
<pdfrwt beam="1">  1        1 0.14266529E+00 0.17952082E+03</pdfrwt>
<pdfrwt beam="2">  1       -1 0.47423657E-02 0.17952082E+03</pdfrwt>
<totfact> 0.34262133E+03</totfact>
</mgrwt>
</event>
<event>
 8    1  0.3520338E-004  0.1805836E+03  0.7546771E-02  0.1172967E+00
          2   -1    0    0  501    0  0.00000000000E+00  0.00000000000E+00  0.11978765965E+04  0.11978765965E+04  0.00000000000E+00 0.  1.
         -2   -1    0    0    0  501 -0.00000000000E+00 -0.00000000000E+00 -0.23992788960E+02  0.23992788960E+02  0.00000000000E+00 0. -1.
         25    2    1    2    0    0  0.11410420262E+03 -0.62943392633E+02  0.61369655891E+03  0.63971393205E+03  0.12501523392E+03 0.  0.
         23    2    1    2    0    0 -0.11410420262E+03  0.62943392633E+02  0.56018724863E+03  0.58215545341E+03  0.90075405493E+02 0.  0.
          5    1    3    3  502    0  0.11325393182E+03 -0.87700512933E+02  0.40722120493E+03  0.43170479820E+03  0.47000000000E+01 0. -1.
         -5    1    4    4    0  503 -0.11953533190E+03  0.35697331364E+02  0.50486541415E+03  0.52007131381E+03  0.47000000000E+01 0.  1.
          5    1    4    4  503    0  0.54311292825E+01  0.27246061269E+02  0.55321834476E+02  0.62084139599E+02  0.47000000000E+01 0. -1.
         -5    1    3    3    0  502  0.85027079770E+00  0.24757120299E+02  0.20647535398E+03  0.20800913386E+03  0.47000000000E+01 0. -1.
<mgrwt>
<rscale>  0 0.17476629E+03</rscale>
<asrwt>0</asrwt>
<pdfrwt beam="1">  1        2 0.18428866E+00 0.18058363E+03</pdfrwt>
<pdfrwt beam="2">  1       -2 0.36911992E-02 0.18058363E+03</pdfrwt>
<totfact> 0.61355327E+03</totfact>
</mgrwt>
</event>
<event>
 8    1  0.3520338E-004  0.1282705E+03  0.7546771E-02  0.1243399E+00
          3   -1    0    0  501    0  0.00000000000E+00  0.00000000000E+00  0.12545835733E+03  0.12545835733E+03  0.00000000000E+00 0. -1.
         -3   -1    0    0    0  501 -0.00000000000E+00 -0.00000000000E+00 -0.10239569641E+03  0.10239569641E+03  0.00000000000E+00 0.  1.
         25    2    1    2    0    0  0.28734717438E+02 -0.16621672117E+01  0.22312094222E+02  0.13019655742E+03  0.12499946892E+03 0.  0.
         23    2    1    2    0    0 -0.28734717438E+02  0.16621672117E+01  0.75056669549E+00  0.97657496322E+02  0.93316539003E+02 0.  0.
          5    1    3    3  502    0 -0.29355918372E+02  0.95403632343E+01  0.54404801013E+02  0.62727672102E+02  0.47000000000E+01 0.  1.
         -5    1    3    3    0  502  0.58090635810E+02 -0.11202530446E+02 -0.32092706791E+02  0.67468885321E+02  0.47000000000E+01 0.  1.
          5    1    4    4  503    0 -0.17765028299E+02  0.18665676766E+02  0.43129818456E+02  0.50460627817E+02  0.47000000000E+01 0. -1.
         -5    1    4    4    0  503 -0.10969689139E+02 -0.17003509554E+02 -0.42379251761E+02  0.47196868506E+02  0.47000000000E+01 0.  1.
<mgrwt>
<rscale>  0 0.11981694E+03</rscale>
<asrwt>0</asrwt>
<pdfrwt beam="1">  1        3 0.19301286E-01 0.12827047E+03</pdfrwt>
<pdfrwt beam="2">  1       -3 0.15753184E-01 0.12827047E+03</pdfrwt>
<totfact> 0.18514940E+03</totfact>
</mgrwt>
</event>
<event>
 8    1  0.3520338E-004  0.1525675E+03  0.7546771E-02  0.1205676E+00
         -1   -1    0    0    0  501 -0.00000000000E+00  0.00000000000E+00  0.10433743847E+03  0.10433743847E+03  0.00000000000E+00 0.  1.
          1   -1    0    0  501    0  0.00000000000E+00 -0.00000000000E+00 -0.20742881074E+03  0.20742881074E+03  0.00000000000E+00 0. -1.
         25    2    1    2    0    0  0.78138986359E+02 -0.39331342208E+02 -0.79681522055E+01  0.15277546571E+03  0.12499678317E+03 0.  0.
         23    2    1    2    0    0 -0.78138986359E+02  0.39331342208E+02 -0.95123220067E+02  0.15899078350E+03  0.92612021755E+02 0.  0.
          5    1    3    3  502    0  0.10909260871E+03 -0.43185211540E+02  0.74597540055E+01  0.11766009392E+03  0.47000000000E+01 0. -1.
         -5    1    4    4    0  503 -0.11053790062E+02  0.55121542509E+02 -0.29286802328E+02  0.63563963957E+02  0.47000000000E+01 0.  1.
          5    1    4    4  503    0 -0.67085196296E+02 -0.15790200301E+02 -0.65836417739E+02  0.95426819544E+02  0.47000000000E+01 0. -1.
         -5    1    3    3    0  502 -0.30953622354E+02  0.38538693323E+01 -0.15427906211E+02  0.35115371787E+02  0.47000000000E+01 0. -1.
<mgrwt>
<rscale>  0 0.14584287E+03</rscale>
<asrwt>0</asrwt>
<pdfrwt beam="1">  1        1 0.31912124E-01 0.15256753E+03</pdfrwt>
<pdfrwt beam="2">  1       -1 0.16051914E-01 0.15256753E+03</pdfrwt>
<totfact> 0.39058755E+03</totfact>
</mgrwt>
</event>
<event>
 8    1  0.3520338E-004  0.2021202E+03  0.7546771E-02  0.1152261E+00
         -1   -1    0    0    0  501 -0.00000000000E+00  0.00000000000E+00  0.37020684472E+02  0.37020684472E+02  0.00000000000E+00 0.  1.
          1   -1    0    0  501    0  0.00000000000E+00 -0.00000000000E+00 -0.10586324916E+04  0.10586324916E+04  0.00000000000E+00 0. -1.
         25    2    1    2    0    0  0.14463301620E+03  0.65641705344E+02 -0.40574665225E+03  0.45330224148E+03  0.12500013383E+03 0.  0.
         23    2    1    2    0    0 -0.14463301620E+03 -0.65641705344E+02 -0.61586515492E+03  0.64235093464E+03  0.89984950577E+02 0.  0.
          5    1    4    4  502    0 -0.11028130128E+03 -0.77120402024E+02 -0.36904491989E+03  0.39284318082E+03  0.47000000000E+01 0. -1.
         -5    1    4    4    0  502 -0.34351714926E+02  0.11478696680E+02 -0.24682023503E+03  0.24950775382E+03  0.47000000000E+01 0.  1.
          5    1    3    3  503    0  0.13928373892E+03  0.20493258492E+02 -0.21411543854E+03  0.25629561953E+03  0.47000000000E+01 0. -1.
         -5    1    3    3    0  503  0.53492772815E+01  0.45148446852E+02 -0.19163121371E+03  0.19700662194E+03  0.47000000000E+01 0. -1.
<mgrwt>
<rscale>  0 0.19703950E+03</rscale>
<asrwt>0</asrwt>
<pdfrwt beam="1">  1        1 0.16286653E+00 0.20212020E+03</pdfrwt>
<pdfrwt beam="2">  1       -1 0.56954902E-02 0.20212020E+03</pdfrwt>
<totfact> 0.20854238E+03</totfact>
</mgrwt>
</event>
<event>
 8    1  0.3520338E-004  0.1913842E+03  0.7546771E-02  0.1162350E+00
         -1   -1    0    0    0  501 -0.00000000000E+00  0.00000000000E+00  0.20329790161E+03  0.20329790161E+03  0.00000000000E+00 0.  1.
          1   -1    0    0  501    0  0.00000000000E+00 -0.00000000000E+00 -0.26254448439E+03  0.26254448439E+03  0.00000000000E+00 0. -1.
         25    2    1    2    0    0 -0.41708330570E+02  0.13879212572E+03  0.11438644022E+03  0.22296228723E+03  0.12500033928E+03 0.  0.
         23    2    1    2    0    0  0.41708330570E+02 -0.13879212572E+03 -0.17363302300E+03  0.24288009877E+03  0.88540819406E+02 0.  0.
          5    1    4    4  502    0  0.34855963648E+02 -0.93077857201E+02 -0.16909206241E+03  0.19619541604E+03  0.47000000000E+01 0. -1.
         -5    1    3    3    0  503  0.33986396717E+02  0.13639202092E+01  0.18066483863E+02  0.38799784527E+02  0.47000000000E+01 0.  1.
          5    1    3    3  503    0 -0.75694727287E+02  0.13742820551E+03  0.96319956360E+02  0.18416250271E+03  0.47000000000E+01 0.  1.
         -5    1    4    4    0  502  0.68523669215E+01 -0.45714268522E+02 -0.45409605885E+01  0.46684682734E+02  0.47000000000E+01 0.  1.
<mgrwt>
<rscale>  0 0.18575195E+03</rscale>
<asrwt>0</asrwt>
<pdfrwt beam="1">  1        1 0.40391459E-01 0.19138423E+03</pdfrwt>
<pdfrwt beam="2">  1       -1 0.31276600E-01 0.19138423E+03</pdfrwt>
<totfact> 0.98487710E+02</totfact>
</mgrwt>
</event>
<event>
 8    1  0.3520338E-004  0.1343561E+03  0.7546771E-02  0.1233330E+00
          1   -1    0    0  501    0  0.00000000000E+00  0.00000000000E+00  0.49926670551E+03  0.49926670551E+03  0.00000000000E+00 0. -1.
         -1   -1    0    0    0  501 -0.00000000000E+00 -0.00000000000E+00 -0.39274385139E+02  0.39274385139E+02  0.00000000000E+00 0.  1.
         25    2    1    2    0    0 -0.22577708553E+02 -0.43770946689E+02  0.39108153776E+03  0.41351703060E+03  0.12500366684E+03 0.  0.
         23    2    1    2    0    0  0.22577708553E+02  0.43770946689E+02  0.68910782614E+02  0.12502406005E+03  0.91960159489E+02 0.  0.
          5    1    3    3  502    0 -0.44173282783E+02 -0.89610070108E+01  0.41300285129E+02  0.61313800325E+02  0.47000000000E+01 0.  1.
         -5    1    3    3    0  502  0.21595574230E+02 -0.34809939678E+02  0.34978125263E+03  0.35220323028E+03  0.47000000000E+01 0.  1.
          5    1    4    4  503    0  0.39672887165E+02 -0.95066302911E+01  0.52245609706E+02  0.66453049057E+02  0.47000000000E+01 0. -1.
         -5    1    4    4    0  503 -0.17095178611E+02  0.53277576980E+02  0.16665172909E+02  0.58571010993E+02  0.47000000000E+01 0.  1.
<mgrwt>
<rscale>  0 0.12611980E+03</rscale>
<asrwt>0</asrwt>
<pdfrwt beam="1">  1        1 0.76810258E-01 0.13435611E+03</pdfrwt>
<pdfrwt beam="2">  1       -1 0.60422135E-02 0.13435611E+03</pdfrwt>
<totfact> 0.57492563E+03</totfact>
</mgrwt>
</event>
<event>
 8    1  0.3520338E-004  0.2023345E+03  0.7546771E-02  0.1152136E+00
         -3   -1    0    0    0  501 -0.00000000000E+00  0.00000000000E+00  0.74461392110E+02  0.74461392110E+02  0.00000000000E+00 0.  1.
          3   -1    0    0  501    0  0.00000000000E+00 -0.00000000000E+00 -0.73215679238E+03  0.73215679238E+03  0.00000000000E+00 0. -1.
         25    2    1    2    0    0  0.14863523710E+03 -0.56749157497E+02 -0.11211490159E+03  0.23132011506E+03  0.12500537545E+03 0.  0.
         23    2    1    2    0    0 -0.14863523710E+03  0.56749157497E+02 -0.54558049868E+03  0.57529806943E+03  0.89425318357E+02 0.  0.
          5    1    3    3  502    0 -0.11602652607E+02 -0.32802290181E+02 -0.16054056962E+01  0.35146537754E+02  0.47000000000E+01 0.  1.
         -5    1    4    4    0  503 -0.72382897427E+02 -0.12724754989E+01 -0.13083258548E+03  0.14959999485E+03  0.47000000000E+01 0.  1.
          5    1    4    4  503    0 -0.76252339670E+02  0.58021632996E+02 -0.41474791320E+03  0.42569807458E+03  0.47000000000E+01 0. -1.
         -5    1    3    3    0  502  0.16023788970E+03 -0.23946867315E+02 -0.11050949589E+03  0.19617357731E+03  0.47000000000E+01 0.  1.
<mgrwt>
<rscale>  0 0.19718502E+03</rscale>
<asrwt>0</asrwt>
<pdfrwt beam="1">  1        3 0.11263951E+00 0.20233449E+03</pdfrwt>
<pdfrwt beam="2">  1       -3 0.11455598E-01 0.20233449E+03</pdfrwt>
<totfact> 0.98871802E+01</totfact>
</mgrwt>
</event>
<event>
 8    1  0.3520338E-004  0.1317478E+03  0.7546771E-02  0.1238073E+00
          1   -1    0    0  501    0  0.00000000000E+00  0.00000000000E+00  0.23446473685E+02  0.23446473685E+02  0.00000000000E+00 0. -1.
         -1   -1    0    0    0  501 -0.00000000000E+00 -0.00000000000E+00 -0.57588429171E+03  0.57588429171E+03  0.00000000000E+00 0.  1.
         25    2    1    2    0    0 -0.20410862356E+02  0.36315745404E+02 -0.32704922870E+03  0.35258853467E+03  0.12498815992E+03 0.  0.
         23    2    1    2    0    0  0.20410862356E+02 -0.36315745404E+02 -0.22538858933E+03  0.24674223073E+03  0.91357952915E+02 0.  0.
          5    1    3    3  502    0 -0.59189455188E+02 -0.17604881352E+02 -0.19668901493E+03  0.20620858868E+03  0.47000000000E+01 0. -1.
         -5    1    3    3    0  502  0.38778592833E+02  0.53920626757E+02 -0.13036021377E+03  0.14637994599E+03  0.47000000000E+01 0. -1.
          5    1    4    4  503    0  0.93694019158E+01 -0.56598382380E+02 -0.75123488377E+02  0.94640324842E+02  0.47000000000E+01 0. -1.
         -5    1    4    4    0  503  0.11041460440E+02  0.20282636976E+02 -0.15026510095E+03  0.15210190589E+03  0.47000000000E+01 0.  1.
<mgrwt>
<rscale>  0 0.12309751E+03</rscale>
<asrwt>0</asrwt>
<pdfrwt beam="1">  1        1 0.36071498E-02 0.13174778E+03</pdfrwt>
<pdfrwt beam="2">  1       -1 0.88597583E-01 0.13174778E+03</pdfrwt>
<totfact> 0.33173289E+03</totfact>
</mgrwt>
</event>
<event>
 8    1  0.3520338E-004  0.1504986E+03  0.7546771E-02  0.1209249E+00
         -1   -1    0    0    0  501 -0.00000000000E+00  0.00000000000E+00  0.19543462285E+02  0.19543462285E+02  0.00000000000E+00 0.  1.
          1   -1    0    0  501    0  0.00000000000E+00 -0.00000000000E+00 -0.98149272674E+03  0.98149272674E+03  0.00000000000E+00 0. -1.
         25    2    1    2    0    0  0.77754536213E+02 -0.31182487389E+02 -0.60787989144E+03  0.62623301369E+03  0.12502683553E+03 0.  0.
         23    2    1    2    0    0 -0.77754536213E+02  0.31182487389E+02 -0.35406937302E+03  0.37480317533E+03  0.89967682583E+02 0.  0.
          5    1    4    4  502    0 -0.36595078500E+02  0.60367500015E+02 -0.23445401285E+03  0.24489632290E+03  0.47000000000E+01 0. -1.
         -5    1    4    4    0  502 -0.41159457713E+02 -0.29185012625E+02 -0.11961536017E+03  0.12990685243E+03  0.47000000000E+01 0.  1.
          5    1    3    3  503    0  0.34782753150E+02 -0.78747217125E+02 -0.34467077238E+03  0.35529001598E+03  0.47000000000E+01 0.  1.
         -5    1    3    3    0  503  0.42971783062E+02  0.47564729735E+02 -0.26320911906E+03  0.27094299771E+03  0.47000000000E+01 0.  1.
<mgrwt>
<rscale>  0 0.14307562E+03</rscale>
<asrwt>0</asrwt>
<pdfrwt beam="1">  1        1 0.15099882E+00 0.15049859E+03</pdfrwt>
<pdfrwt beam="2">  1       -1 0.30066878E-02 0.15049859E+03</pdfrwt>
<totfact> 0.60661449E+03</totfact>
</mgrwt>
</event>
<event>
 8    1  0.3520338E-004  0.1771833E+03  0.7546771E-02  0.1176610E+00
          3   -1    0    0  501    0  0.00000000000E+00  0.00000000000E+00  0.31453174435E+03  0.31453174435E+03  0.00000000000E+00 0. -1.
         -3   -1    0    0    0  501 -0.00000000000E+00 -0.00000000000E+00 -0.10546375201E+03  0.10546375201E+03  0.00000000000E+00 0.  1.
         25    2    1    2    0    0  0.11387315938E+03 -0.52929551431E+02  0.19723675210E+03  0.26513438975E+03  0.12500109761E+03 0.  0.
         23    2    1    2    0    0 -0.11387315938E+03  0.52929551431E+02  0.11831240242E+02  0.15486110661E+03  0.89851823873E+02 0.  0.
          5    1    4    4  502    0 -0.51058671806E+02  0.50739866844E+02 -0.31148168293E+02  0.78573662521E+02  0.47000000000E+01 0. -1.
         -5    1    4    4    0  502 -0.62814487574E+02  0.21896845866E+01  0.42979408535E+02  0.76287444090E+02  0.47000000000E+01 0.  1.
          5    1    3    3  503    0  0.34987004739E+02 -0.90271047660E+01  0.16528224603E+03  0.16925096743E+03  0.47000000000E+01 0.  1.
         -5    1    3    3    0  503  0.78886154642E+02 -0.43902446665E+02  0.31954506071E+02  0.95883422319E+02  0.47000000000E+01 0.  1.
<mgrwt>
<rscale>  0 0.17119253E+03</rscale>
<asrwt>0</asrwt>
<pdfrwt beam="1">  1        3 0.48389499E-01 0.17718326E+03</pdfrwt>
<pdfrwt beam="2">  1       -3 0.16225193E-01 0.17718326E+03</pdfrwt>
<totfact> 0.33298069E+02</totfact>
</mgrwt>
</event>
<event>
 8    1  0.3520338E-004  0.1376218E+03  0.7546771E-02  0.1226642E+00
          2   -1    0    0  501    0  0.00000000000E+00  0.00000000000E+00  0.17485974892E+03  0.17485974892E+03  0.00000000000E+00 0. -1.
         -2   -1    0    0    0  501 -0.00000000000E+00 -0.00000000000E+00 -0.12820257281E+03  0.12820257281E+03  0.00000000000E+00 0.  1.
         25    2    1    2    0    0 -0.57579789285E+02  0.35055332726E+00  0.10882821967E+03  0.17545181045E+03  0.12499680544E+03 0.  0.
         23    2    1    2    0    0  0.57579789285E+02 -0.35055332726E+00 -0.62171043564E+02  0.12761051129E+03  0.95413043720E+02 0.  0.
          5    1    4    4  502    0  0.25432562971E+02 -0.25288135696E+02  0.15850761674E+02  0.39492299400E+02  0.47000000000E+01 0. -1.
         -5    1    3    3    0  503 -0.54540643433E+02 -0.38901597987E+02  0.86493547480E+01  0.67712018502E+02  0.47000000000E+01 0. -1.
          5    1    3    3  503    0 -0.30391458512E+01  0.39252151315E+02  0.10017886493E+03  0.10773979194E+03  0.47000000000E+01 0. -1.
         -5    1    4    4    0  502  0.32147226314E+02  0.24937582369E+02 -0.78021805238E+02  0.88118211889E+02  0.47000000000E+01 0.  1.
<mgrwt>
<rscale>  0 0.13055007E+03</rscale>
<asrwt>0</asrwt>
<pdfrwt beam="1">  1        2 0.26901500E-01 0.13762179E+03</pdfrwt>
<pdfrwt beam="2">  1       -2 0.19723473E-01 0.13762179E+03</pdfrwt>
<totfact> 0.40938381E+03</totfact>
</mgrwt>
</event>
<event>
 8    1  0.3520338E-004  0.1271427E+03  0.7546771E-02  0.1247069E+00
          1   -1    0    0  501    0  0.00000000000E+00  0.00000000000E+00  0.29503540293E+03  0.29503540293E+03  0.00000000000E+00 0. -1.
         -1   -1    0    0    0  501 -0.00000000000E+00 -0.00000000000E+00 -0.56195964486E+02  0.56195964486E+02  0.00000000000E+00 0.  1.
         25    2    1    2    0    0 -0.75532640014E+01 -0.22009591122E+02  0.22308753289E+03  0.25677483740E+03  0.12499518349E+03 0.  0.
         23    2    1    2    0    0  0.75532640014E+01  0.22009591122E+02  0.15751905562E+02  0.94456530019E+02  0.90180040120E+02 0.  0.
          5    1    3    3  502    0 -0.42329776145E+02 -0.13065079730E+02  0.17243791813E+02  0.47769703923E+02  0.47000000000E+01 0. -1.
         -5    1    4    4    0  503  0.36648995216E+02 -0.17576782479E+02 -0.43897404008E+01  0.41151572916E+02  0.47000000000E+01 0.  1.
          5    1    4    4  503    0 -0.29095731214E+02  0.39586373601E+02  0.20141645962E+02  0.53304957104E+02  0.47000000000E+01 0. -1.
         -5    1    3    3    0  502  0.34776512144E+02 -0.89445113917E+01  0.20584374107E+03  0.20900513348E+03  0.47000000000E+01 0. -1.
<mgrwt>
<rscale>  0 0.11762388E+03</rscale>
<asrwt>0</asrwt>
<pdfrwt beam="1">  1        1 0.45390061E-01 0.12714271E+03</pdfrwt>
<pdfrwt beam="2">  1       -1 0.86455332E-02 0.12714271E+03</pdfrwt>
<totfact> 0.64920461E+03</totfact>
</mgrwt>
</event>
<event>
 8    1  0.3520338E-004  0.1264649E+03  0.7546771E-02  0.1247838E+00
         -1   -1    0    0    0  501 -0.00000000000E+00  0.00000000000E+00  0.62547001034E+03  0.62547001034E+03  0.00000000000E+00 0.  1.
          1   -1    0    0  501    0  0.00000000000E+00 -0.00000000000E+00 -0.19813721324E+02  0.19813721324E+02  0.00000000000E+00 0. -1.
         25    2    1    2    0    0 -0.63854702518E+01  0.18126297934E+02  0.29536056885E+03  0.32129616657E+03  0.12499609639E+03 0.  0.
         23    2    1    2    0    0  0.63854702518E+01 -0.18126297934E+02  0.31029572016E+03  0.32398756509E+03  0.91187562065E+02 0.  0.
          5    1    4    4  502    0 -0.30035425952E+02 -0.29518758664E+02  0.80246248117E+02  0.90747089551E+02  0.47000000000E+01 0. -1.
         -5    1    4    4    0  502  0.36420896203E+02  0.11392460730E+02  0.23004947205E+03  0.23324047554E+03  0.47000000000E+01 0.  1.
          5    1    3    3  503    0 -0.13017732259E+02 -0.52664999138E+02  0.14554974537E+03  0.15540232258E+03  0.47000000000E+01 0.  1.
         -5    1    3    3    0  503  0.66322620072E+01  0.70791297072E+02  0.14981082348E+03  0.16589384398E+03  0.47000000000E+01 0.  1.
<mgrwt>
<rscale>  0 0.11717111E+03</rscale>
<asrwt>0</asrwt>
<pdfrwt beam="1">  1        1 0.30482653E-02 0.12646486E+03</pdfrwt>
<pdfrwt beam="2">  1       -1 0.96226140E-01 0.12646486E+03</pdfrwt>
<totfact> 0.34989233E+03</totfact>
</mgrwt>
</event>
<event>
 8    1  0.3520338E-004  0.1280484E+03  0.7546771E-02  0.1245127E+00
          4   -1    0    0  501    0  0.00000000000E+00  0.00000000000E+00  0.73262713970E+02  0.73262713970E+02  0.00000000000E+00 0. -1.
         -4   -1    0    0    0  501 -0.00000000000E+00 -0.00000000000E+00 -0.54725561138E+03  0.54725561138E+03  0.00000000000E+00 0.  1.
         25    2    1    2    0    0 -0.51240181905E+01 -0.27268293606E+02 -0.50483822977E+03  0.52082437463E+03  0.12500630215E+03 0.  0.
         23    2    1    2    0    0  0.51240181905E+01  0.27268293606E+02  0.30845332354E+02  0.99693950721E+02  0.90651165926E+02 0.  0.
          5    1    3    3  502    0  0.47780131011E+02  0.24453289271E+02 -0.21838311551E+03  0.22493149939E+03  0.47000000000E+01 0. -1.
         -5    1    3    3    0  502 -0.52904149202E+02 -0.51721582877E+02 -0.28645511425E+03  0.29589287524E+03  0.47000000000E+01 0. -1.
          5    1    4    4  503    0  0.39298543657E+02  0.36830250115E+02  0.33824518942E+02  0.63773277622E+02  0.47000000000E+01 0. -1.
         -5    1    4    4    0  503 -0.34174525466E+02 -0.95619565087E+01 -0.29791865882E+01  0.35920673098E+02  0.47000000000E+01 0.  1.
<mgrwt>
<rscale>  0 0.11877777E+03</rscale>
<asrwt>0</asrwt>
<pdfrwt beam="1">  1        4 0.11271187E-01 0.12804839E+03</pdfrwt>
<pdfrwt beam="2">  1       -4 0.84193171E-01 0.12804839E+03</pdfrwt>
<totfact> 0.13015058E+02</totfact>
</mgrwt>
</event>
<event>
 8    1  0.3520338E-004  0.1968249E+03  0.7546771E-02  0.1156369E+00
         -2   -1    0    0    0  501 -0.00000000000E+00  0.00000000000E+00  0.28137576268E+03  0.28137576268E+03  0.00000000000E+00 0. -1.
          2   -1    0    0  501    0  0.00000000000E+00 -0.00000000000E+00 -0.12919257430E+03  0.12919257430E+03  0.00000000000E+00 0.  1.
         25    2    1    2    0    0 -0.15197823217E+03  0.37929589671E+01  0.46363799502E+02  0.20221190658E+03  0.12501313399E+03 0.  0.
         23    2    1    2    0    0  0.15197823217E+03 -0.37929589671E+01  0.10581938888E+03  0.20835643039E+03  0.95409063688E+02 0.  0.
          5    1    3    3  502    0 -0.15303355284E+03  0.41333078839E+02  0.32348927582E+02  0.16185250945E+03  0.47000000000E+01 0. -1.
         -5    1    3    3    0  502  0.10553206714E+01 -0.37540119872E+02  0.14014871920E+02  0.40359397130E+02  0.47000000000E+01 0. -1.
          5    1    4    4  503    0  0.11584021781E+03 -0.64819625889E+01  0.12197129347E+03  0.16840444867E+03  0.47000000000E+01 0. -1.
         -5    1    4    4    0  503  0.36138014354E+02  0.26890036218E+01 -0.16151904587E+02  0.39951981725E+02  0.47000000000E+01 0.  1.
<mgrwt>
<rscale>  0 0.19233874E+03</rscale>
<asrwt>0</asrwt>
<pdfrwt beam="1">  1        2 0.19875781E-01 0.19682493E+03</pdfrwt>
<pdfrwt beam="2">  1       -2 0.43288579E-01 0.19682493E+03</pdfrwt>
<totfact> 0.14147721E+03</totfact>
</mgrwt>
</event>
<event>
 8    1  0.3520338E-004  0.1657569E+03  0.7546771E-02  0.1189568E+00
         -1   -1    0    0    0  501 -0.00000000000E+00  0.00000000000E+00  0.54861804179E+02  0.54861804179E+02  0.00000000000E+00 0.  1.
          1   -1    0    0  501    0  0.00000000000E+00 -0.00000000000E+00 -0.44242686375E+03  0.44242686375E+03  0.00000000000E+00 0. -1.
         25    2    1    2    0    0 -0.24730226717E+02  0.10600852707E+03 -0.25165356079E+03  0.30133845481E+03  0.12500383100E+03 0.  0.
         23    2    1    2    0    0  0.24730226717E+02 -0.10600852707E+03 -0.13591149878E+03  0.19595021312E+03  0.89861886229E+02 0.  0.
          5    1    3    3  502    0 -0.70151364900E+02  0.37309674882E+02 -0.15520875424E+03  0.17442784534E+03  0.47000000000E+01 0. -1.
         -5    1    3    3    0  502  0.45421138183E+02  0.68698852186E+02 -0.96444806548E+02  0.12691060947E+03  0.47000000000E+01 0. -1.
          5    1    4    4  503    0 -0.44408951297E+01 -0.44746926361E+02 -0.11688469544E+03  0.12532410381E+03  0.47000000000E+01 0. -1.
         -5    1    4    4    0  503  0.29171121847E+02 -0.61261600706E+02 -0.19026803344E+02  0.70626109311E+02  0.47000000000E+01 0.  1.
<mgrwt>
<rscale>  0 0.15923087E+03</rscale>
<asrwt>0</asrwt>
<pdfrwt beam="1">  1        1 0.68065670E-01 0.16575690E+03</pdfrwt>
<pdfrwt beam="2">  1       -1 0.84402777E-02 0.16575690E+03</pdfrwt>
<totfact> 0.41086860E+03</totfact>
</mgrwt>
</event>
<event>
 8    1  0.3520338E-004  0.1470098E+03  0.7546771E-02  0.1212755E+00
         -1   -1    0    0    0  501 -0.00000000000E+00  0.00000000000E+00  0.63069237511E+02  0.63069237511E+02  0.00000000000E+00 0.  1.
          1   -1    0    0  501    0  0.00000000000E+00 -0.00000000000E+00 -0.29033860105E+03  0.29033860105E+03  0.00000000000E+00 0. -1.
         25    2    1    2    0    0 -0.72604936124E+02  0.26735652914E+02 -0.14069352836E+03  0.20348601238E+03  0.12500246567E+03 0.  0.
         23    2    1    2    0    0  0.72604936124E+02 -0.26735652914E+02 -0.86575835181E+02  0.14992182619E+03  0.94841482712E+02 0.  0.
          5    1    4    4  502    0  0.76006307269E+02 -0.50697207979E+01 -0.98430499317E+02  0.12455245485E+03  0.47000000000E+01 0. -1.
         -5    1    3    3    0  503 -0.46302147102E+01  0.33720032107E+02  0.11789590648E+02  0.36325802141E+02  0.47000000000E+01 0.  1.
          5    1    3    3  503    0 -0.67974721414E+02 -0.69843791923E+01 -0.15248311901E+03  0.16716021023E+03  0.47000000000E+01 0.  1.
         -5    1    4    4    0  502 -0.34013711450E+01 -0.21665932116E+02  0.11854664135E+02  0.25369371334E+02  0.47000000000E+01 0.  1.
<mgrwt>
<rscale>  0 0.14042778E+03</rscale>
<asrwt>0</asrwt>
<pdfrwt beam="1">  1        1 0.44667476E-01 0.14700982E+03</pdfrwt>
<pdfrwt beam="2">  1       -1 0.97029599E-02 0.14700982E+03</pdfrwt>
<totfact> 0.56077740E+03</totfact>
</mgrwt>
</event>
<event>
 8    1  0.3520338E-004  0.1569650E+03  0.7546771E-02  0.1200817E+00
          2   -1    0    0  501    0  0.00000000000E+00  0.00000000000E+00  0.58503497285E+03  0.58503497285E+03  0.00000000000E+00 0. -1.
         -2   -1    0    0    0  501 -0.00000000000E+00 -0.00000000000E+00 -0.36640556970E+02  0.36640556970E+02  0.00000000000E+00 0.  1.
         25    2    1    2    0    0  0.94354912890E+02 -0.10476730658E+02  0.36094534355E+03  0.39359822158E+03  0.12500163012E+03 0.  0.
         23    2    1    2    0    0 -0.94354912890E+02  0.10476730658E+02  0.18744907234E+03  0.22807730824E+03  0.88710159186E+02 0.  0.
          5    1    3    3  502    0  0.12832499425E+02  0.50374635637E+02  0.88545289367E+02  0.10278441140E+03  0.47000000000E+01 0.  1.
         -5    1    3    3    0  502  0.81522413465E+02 -0.60851366295E+02  0.27240005418E+03  0.29081381019E+03  0.47000000000E+01 0.  1.
          5    1    4    4  503    0 -0.54727057422E+02 -0.29548044768E+02  0.14354191151E+03  0.15650721428E+03  0.47000000000E+01 0. -1.
         -5    1    4    4    0  503 -0.39627855467E+02  0.40024775426E+02  0.43907160827E+02  0.71570093955E+02  0.47000000000E+01 0.  1.
<mgrwt>
<rscale>  0 0.14972023E+03</rscale>
<asrwt>0</asrwt>
<pdfrwt beam="1">  1        2 0.90005374E-01 0.15696502E+03</pdfrwt>
<pdfrwt beam="2">  1       -2 0.56370092E-02 0.15696502E+03</pdfrwt>
<totfact> 0.81840948E+03</totfact>
</mgrwt>
</event>
<event>
 8    1  0.3520338E-004  0.1818645E+03  0.7546771E-02  0.1173052E+00
          2   -1    0    0  501    0  0.00000000000E+00  0.00000000000E+00  0.14056532955E+04  0.14056532955E+04  0.00000000000E+00 0.  1.
         -2   -1    0    0    0  501 -0.00000000000E+00 -0.00000000000E+00 -0.23721884238E+02  0.23721884238E+02  0.00000000000E+00 0. -1.
         25    2    1    2    0    0 -0.60239327229E+02  0.11754836946E+03  0.46189792387E+03  0.49641150535E+03  0.12501317872E+03 0.  0.
         23    2    1    2    0    0  0.60239327229E+02 -0.11754836946E+03  0.92003348734E+03  0.93296367435E+03  0.80704424357E+02 0.  0.
          5    1    3    3  502    0 -0.10782000031E+02 -0.26766370654E+02  0.74952129533E+02  0.80452481902E+02  0.47000000000E+01 0.  1.
         -5    1    3    3    0  502 -0.49457327198E+02  0.14431474011E+03  0.38694579434E+03  0.41595902345E+03  0.47000000000E+01 0.  1.
          5    1    4    4  503    0  0.23500014321E+02 -0.11410832463E+03  0.73975446544E+03  0.74888698717E+03  0.47000000000E+01 0. -1.
         -5    1    4    4    0  503  0.36739312907E+02 -0.34400448242E+01  0.18027902191E+03  0.18407668717E+03  0.47000000000E+01 0.  1.
<mgrwt>
<rscale>  0 0.17468108E+03</rscale>
<asrwt>0</asrwt>
<pdfrwt beam="1">  1        2 0.21625429E+00 0.18186448E+03</pdfrwt>
<pdfrwt beam="2">  1       -2 0.36495218E-02 0.18186448E+03</pdfrwt>
<totfact> 0.48054768E+03</totfact>
</mgrwt>
</event>
<event>
 8    1  0.3520338E-004  0.1813241E+03  0.7546771E-02  0.1172840E+00
          1   -1    0    0  501    0  0.00000000000E+00  0.00000000000E+00  0.76494147684E+02  0.76494147684E+02  0.00000000000E+00 0. -1.
         -1   -1    0    0    0  501 -0.00000000000E+00 -0.00000000000E+00 -0.40822009791E+03  0.40822009791E+03  0.00000000000E+00 0.  1.
         25    2    1    2    0    0  0.17352056404E+02  0.13020070674E+03 -0.24688033906E+03  0.30631412306E+03  0.12500048909E+03 0.  0.
         23    2    1    2    0    0 -0.17352056404E+02 -0.13020070674E+03 -0.84845611168E+02  0.17840012254E+03  0.85874956124E+02 0.  0.
          5    1    4    4  502    0 -0.30796055549E+02 -0.37360120187E+02  0.43905739451E+01  0.48842018358E+02  0.47000000000E+01 0. -1.
         -5    1    3    3    0  503  0.22042453994E+02  0.12725931608E+02  0.67257556701E+01  0.26742193304E+02  0.47000000000E+01 0.  1.
          5    1    3    3  503    0 -0.46903975901E+01  0.11747477514E+03 -0.25360609473E+03  0.27957192975E+03  0.47000000000E+01 0.  1.
         -5    1    4    4    0  502  0.13443999146E+02 -0.92840586556E+02 -0.89236185113E+02  0.12955810418E+03  0.47000000000E+01 0.  1.
<mgrwt>
<rscale>  0 0.17489201E+03</rscale>
<asrwt>0</asrwt>
<pdfrwt beam="1">  1        1 0.11768330E-01 0.18132413E+03</pdfrwt>
<pdfrwt beam="2">  1       -1 0.62803093E-01 0.18132413E+03</pdfrwt>
<totfact> 0.13543501E+03</totfact>
</mgrwt>
</event>
<event>
 8    1  0.3520338E-004  0.3079098E+03  0.7546771E-02  0.1082881E+00
          1   -1    0    0  501    0  0.00000000000E+00  0.00000000000E+00  0.28768041330E+03  0.28768041330E+03  0.00000000000E+00 0. -1.
         -1   -1    0    0    0  501 -0.00000000000E+00 -0.00000000000E+00 -0.32536586298E+03  0.32536586298E+03  0.00000000000E+00 0.  1.
         25    2    1    2    0    0  0.70433170516E+01 -0.28130716840E+03  0.31525042624E+02  0.30951947223E+03  0.12500057626E+03 0.  0.
         23    2    1    2    0    0 -0.70433170516E+01  0.28130716840E+03 -0.69210492303E+02  0.30352680406E+03  0.90305576933E+02 0.  0.
          5    1    3    3  502    0 -0.25765937166E+02 -0.17236762448E+03 -0.34737651236E+02  0.17777310230E+03  0.47000000000E+01 0. -1.
         -5    1    4    4    0  503 -0.93532368650E+01  0.65302886412E+02 -0.56670824013E+02  0.87095478113E+02  0.47000000000E+01 0.  1.
          5    1    4    4  503    0  0.23099198133E+01  0.21600428199E+03 -0.12539668290E+02  0.21643132594E+03  0.47000000000E+01 0. -1.
         -5    1    3    3    0  502  0.32809254218E+02 -0.10893954392E+03  0.66262693860E+02  0.13174636993E+03  0.47000000000E+01 0. -1.
<mgrwt>
<rscale>  0 0.30476729E+03</rscale>
<asrwt>0</asrwt>
<pdfrwt beam="1">  1        1 0.44258525E-01 0.30790985E+03</pdfrwt>
<pdfrwt beam="2">  1       -1 0.50056287E-01 0.30790985E+03</pdfrwt>
<totfact> 0.38036856E+02</totfact>
</mgrwt>
</event>
<event>
 8    1  0.3520338E-004  0.1292114E+03  0.7546771E-02  0.1242700E+00
         -3   -1    0    0    0  501 -0.00000000000E+00  0.00000000000E+00  0.60011740556E+02  0.60011740556E+02  0.00000000000E+00 0.  1.
          3   -1    0    0  501    0  0.00000000000E+00 -0.00000000000E+00 -0.21336258010E+03  0.21336258010E+03  0.00000000000E+00 0. -1.
         25    2    1    2    0    0 -0.24171670144E+02 -0.22037591378E+02 -0.81879038402E+02  0.15296977831E+03  0.12500260427E+03 0.  0.
         23    2    1    2    0    0  0.24171670144E+02  0.22037591378E+02 -0.71471801145E+02  0.12040454235E+03  0.91209157373E+02 0.  0.
          5    1    4    4  502    0  0.22686483777E+02 -0.28863781094E+02 -0.55723069376E+02  0.66895028708E+02  0.47000000000E+01 0. -1.
         -5    1    4    4    0  502  0.14851863676E+01  0.50901372472E+02 -0.15748731769E+02  0.53509513644E+02  0.47000000000E+01 0.  1.
          5    1    3    3  503    0  0.47181188483E+02 -0.21837630189E+02 -0.56916087789E+02  0.77230030999E+02  0.47000000000E+01 0. -1.
         -5    1    3    3    0  503 -0.71352858627E+02 -0.19996118867E+00 -0.24962950613E+02  0.75739747307E+02  0.47000000000E+01 0. -1.
<mgrwt>
<rscale>  0 0.12024116E+03</rscale>
<asrwt>0</asrwt>
<pdfrwt beam="1">  1        3 0.32825013E-01 0.12921136E+03</pdfrwt>
<pdfrwt beam="2">  1       -3 0.92325754E-02 0.12921136E+03</pdfrwt>
<totfact> 0.17389003E+03</totfact>
</mgrwt>
</event>
<event>
 8    1  0.3520338E-004  0.1273821E+03  0.7546771E-02  0.1245095E+00
         -2   -1    0    0    0  501 -0.00000000000E+00  0.00000000000E+00  0.27285209887E+02  0.27285209887E+02  0.00000000000E+00 0.  1.
          2   -1    0    0  501    0  0.00000000000E+00 -0.00000000000E+00 -0.49707992038E+03  0.49707992038E+03  0.00000000000E+00 0. -1.
         25    2    1    2    0    0 -0.23670640772E+02 -0.63701683145E+01 -0.19272388809E+03  0.23101666363E+03  0.12500129421E+03 0.  0.
         23    2    1    2    0    0  0.23670640772E+02  0.63701683145E+01 -0.27707082240E+03  0.29334846664E+03  0.93189076474E+02 0.  0.
          5    1    3    3  502    0  0.45850674147E+02  0.14990703776E+02 -0.11324692511E+03  0.12318263500E+03  0.47000000000E+01 0. -1.
         -5    1    4    4    0  503  0.37729470480E+02 -0.33268489153E+02 -0.18902505147E+03  0.19566007615E+03  0.47000000000E+01 0.  1.
          5    1    4    4  503    0 -0.14058829708E+02  0.39638657467E+02 -0.88045770924E+02  0.97688390488E+02  0.47000000000E+01 0. -1.
         -5    1    3    3    0  502 -0.69521314920E+02 -0.21360872091E+02 -0.79476962982E+02  0.10783402862E+03  0.47000000000E+01 0. -1.
<mgrwt>
<rscale>  0 0.11879675E+03</rscale>
<asrwt>0</asrwt>
<pdfrwt beam="1">  1        2 0.76473831E-01 0.12738211E+03</pdfrwt>
<pdfrwt beam="2">  1       -2 0.41977247E-02 0.12738211E+03</pdfrwt>
<totfact> 0.15057225E+04</totfact>
</mgrwt>
</event>
<event>
 8    1  0.3520338E-004  0.1280359E+03  0.7546771E-02  0.1245263E+00
         -2   -1    0    0    0  501 -0.00000000000E+00  0.00000000000E+00  0.28922227843E+03  0.28922227843E+03  0.00000000000E+00 0.  1.
          2   -1    0    0  501    0  0.00000000000E+00 -0.00000000000E+00 -0.67696635175E+02  0.67696635175E+02  0.00000000000E+00 0. -1.
         25    2    1    2    0    0  0.23556808174E+02 -0.14675636996E+02  0.22867361521E+03  0.26207786265E+03  0.12499154477E+03 0.  0.
         23    2    1    2    0    0 -0.23556808174E+02  0.14675636996E+02 -0.71479719547E+01  0.94841050958E+02  0.90407045694E+02 0.  0.
          5    1    4    4  502    0 -0.47562104359E+02 -0.20236869241E+02 -0.25387315965E+01  0.51963639267E+02  0.47000000000E+01 0. -1.
         -5    1    3    3    0  503 -0.35672862310E+02 -0.35389268666E+01  0.18240226134E+03  0.18595093990E+03  0.47000000000E+01 0.  1.
          5    1    3    3  503    0  0.59229670484E+02 -0.11136710129E+02  0.46271353876E+02  0.76126922752E+02  0.47000000000E+01 0.  1.
         -5    1    4    4    0  502  0.24005296185E+02  0.34912506236E+02 -0.46092403582E+01  0.42877411691E+02  0.47000000000E+01 0.  1.
<mgrwt>
<rscale>  0 0.11869668E+03</rscale>
<asrwt>0</asrwt>
<pdfrwt beam="1">  1        2 0.10414867E-01 0.12803587E+03</pdfrwt>
<pdfrwt beam="2">  1       -2 0.44495734E-01 0.12803587E+03</pdfrwt>
<totfact> 0.28243775E+03</totfact>
</mgrwt>
</event>
<event>
 8    1  0.3520338E-004  0.1625196E+03  0.7546771E-02  0.1193170E+00
         -3   -1    0    0    0  501 -0.00000000000E+00  0.00000000000E+00  0.14569226211E+03  0.14569226211E+03  0.00000000000E+00 0.  1.
          3   -1    0    0  501    0  0.00000000000E+00 -0.00000000000E+00 -0.23757369139E+03  0.23757369139E+03  0.00000000000E+00 0. -1.
         25    2    1    2    0    0  0.84904858815E+02 -0.59823001297E+02  0.64172221433E+02  0.17473031539E+03  0.12499993031E+03 0.  0.
         23    2    1    2    0    0 -0.84904858815E+02  0.59823001297E+02 -0.15605365071E+03  0.20853563811E+03  0.91360516239E+02 0.  0.
          5    1    3    3  502    0  0.40548620279E+00 -0.46526530891E+02 -0.23340369733E+02  0.52266101395E+02  0.47000000000E+01 0.  1.
         -5    1    4    4    0  503 -0.51814870224E+02 -0.16049094114E+02 -0.50004163594E+02  0.73924695298E+02  0.47000000000E+01 0.  1.
          5    1    4    4  503    0 -0.33089988591E+02  0.75872095411E+02 -0.10604948712E+03  0.13461094281E+03  0.47000000000E+01 0. -1.
         -5    1    3    3    0  502  0.84499372612E+02 -0.13296470406E+02  0.87512591166E+02  0.12246421400E+03  0.47000000000E+01 0.  1.
<mgrwt>
<rscale>  0 0.15610112E+03</rscale>
<asrwt>0</asrwt>
<pdfrwt beam="1">  1        3 0.36549798E-01 0.16251957E+03</pdfrwt>
<pdfrwt beam="2">  1       -3 0.22414194E-01 0.16251957E+03</pdfrwt>
<totfact> 0.32246661E+02</totfact>
</mgrwt>
</event>
<event>
 8    1  0.3520338E-004  0.1835210E+03  0.7546771E-02  0.1169267E+00
          3   -1    0    0  501    0  0.00000000000E+00  0.00000000000E+00  0.54070828675E+02  0.54070828675E+02  0.00000000000E+00 0. -1.
         -3   -1    0    0    0  501 -0.00000000000E+00 -0.00000000000E+00 -0.55918737847E+03  0.55918737847E+03  0.00000000000E+00 0.  1.
         25    2    1    2    0    0 -0.11021230319E+02  0.13392346299E+03 -0.26947465194E+03  0.32603152958E+03  0.12499203487E+03 0.  0.
         23    2    1    2    0    0  0.11021230319E+02 -0.13392346299E+03 -0.23564189785E+03  0.28722667756E+03  0.94419801019E+02 0.  0.
          5    1    4    4  502    0  0.45670372145E+02 -0.10376470644E+03 -0.13399951017E+03  0.17558717470E+03  0.47000000000E+01 0. -1.
         -5    1    4    4    0  502 -0.34649141827E+02 -0.30158756557E+02 -0.10164238768E+03  0.11163950286E+03  0.47000000000E+01 0.  1.
          5    1    3    3  503    0  0.46044841116E+02  0.10723642460E+03 -0.20386084937E+03  0.23494917335E+03  0.47000000000E+01 0. -1.
         -5    1    3    3    0  503 -0.57066071435E+02  0.26687038397E+02 -0.65613802577E+02  0.91082356228E+02  0.47000000000E+01 0. -1.
<mgrwt>
<rscale>  0 0.17849607E+03</rscale>
<asrwt>0</asrwt>
<pdfrwt beam="1">  1        3 0.83185893E-02 0.18352103E+03</pdfrwt>
<pdfrwt beam="2">  1       -3 0.86028824E-01 0.18352103E+03</pdfrwt>
<totfact> 0.30736242E+02</totfact>
</mgrwt>
</event>
<event>
 8    1  0.3520338E-004  0.1397641E+03  0.7546771E-02  0.1223342E+00
         -2   -1    0    0    0  501 -0.00000000000E+00  0.00000000000E+00  0.30245825152E+03  0.30245825152E+03  0.00000000000E+00 0.  1.
          2   -1    0    0  501    0  0.00000000000E+00 -0.00000000000E+00 -0.54638894218E+02  0.54638894218E+02  0.00000000000E+00 0. -1.
         25    2    1    2    0    0  0.58699488728E+02 -0.21540317330E+02  0.16489513066E+03  0.21615826449E+03  0.12499750375E+03 0.  0.
         23    2    1    2    0    0 -0.58699488728E+02  0.21540317330E+02  0.82924226643E+02  0.14093888125E+03  0.95277099220E+02 0.  0.
          5    1    4    4  502    0 -0.37221037846E+02 -0.36167234132E+02  0.40849959093E+02  0.66213923317E+02  0.47000000000E+01 0. -1.
         -5    1    3    3    0  503  0.93820809730E+01 -0.62803669062E+02  0.38877665100E+02  0.74604873397E+02  0.47000000000E+01 0. -1.
          5    1    3    3  503    0  0.49317407755E+02  0.41263351732E+02  0.12601746556E+03  0.14155339109E+03  0.47000000000E+01 0. -1.
         -5    1    4    4    0  502 -0.21478450881E+02  0.57707551462E+02  0.42074267550E+02  0.74724957932E+02  0.47000000000E+01 0.  1.
<mgrwt>
<rscale>  0 0.13281180E+03</rscale>
<asrwt>0</asrwt>
<pdfrwt beam="1">  1        2 0.84059839E-02 0.13976406E+03</pdfrwt>
<pdfrwt beam="2">  1       -2 0.46532038E-01 0.13976406E+03</pdfrwt>
<totfact> 0.33922576E+03</totfact>
</mgrwt>
</event>
<event>
 8    1  0.3520338E-004  0.1259116E+03  0.7546771E-02  0.1248285E+00
         -1   -1    0    0    0  501 -0.00000000000E+00  0.00000000000E+00  0.11717283790E+03  0.11717283790E+03  0.00000000000E+00 0.  1.
          1   -1    0    0  501    0  0.00000000000E+00 -0.00000000000E+00 -0.10801111276E+03  0.10801111276E+03  0.00000000000E+00 0. -1.
         25    2    1    2    0    0 -0.46168618416E+01 -0.14391992893E+02 -0.19270875032E+02  0.12737774444E+03  0.12500111312E+03 0.  0.
         23    2    1    2    0    0  0.46168618416E+01  0.14391992893E+02  0.28432600176E+02  0.97806206216E+02  0.92353648270E+02 0.  0.
          5    1    3    3  502    0 -0.53122368757E+02 -0.40349870940E+02  0.50058955797E+01  0.67061517562E+02  0.47000000000E+01 0. -1.
         -5    1    3    3    0  502  0.48505506915E+02  0.25957878047E+02 -0.24276770611E+02  0.60316226881E+02  0.47000000000E+01 0. -1.
          5    1    4    4  503    0  0.19283522499E+02  0.29158352557E+02 -0.23010009297E+02  0.42114300322E+02  0.47000000000E+01 0. -1.
         -5    1    4    4    0  503 -0.14666660657E+02 -0.14766359664E+02  0.51442609474E+02  0.55691905893E+02  0.47000000000E+01 0.  1.
<mgrwt>
<rscale>  0 0.11690891E+03</rscale>
<asrwt>0</asrwt>
<pdfrwt beam="1">  1        1 0.16617094E-01 0.12591157E+03</pdfrwt>
<pdfrwt beam="2">  1       -1 0.18026591E-01 0.12591157E+03</pdfrwt>
<totfact> 0.73184972E+03</totfact>
</mgrwt>
</event>
<event>
 8    1  0.3520338E-004  0.1311816E+03  0.7546771E-02  0.1237954E+00
          2   -1    0    0  501    0  0.00000000000E+00  0.00000000000E+00  0.19381773423E+03  0.19381773423E+03  0.00000000000E+00 0. -1.
         -2   -1    0    0    0  501 -0.00000000000E+00 -0.00000000000E+00 -0.85982574610E+02  0.85982574610E+02  0.00000000000E+00 0.  1.
         25    2    1    2    0    0 -0.16630933225E+01 -0.39846452498E+02  0.11914788304E+03  0.17721410598E+03  0.12497245965E+03 0.  0.
         23    2    1    2    0    0  0.16630933225E+01  0.39846452498E+02 -0.11312723416E+02  0.10258620286E+03  0.93837336119E+02 0.  0.
          5    1    3    3  502    0  0.45956544100E+02  0.35473035636E+01  0.99397346385E+02  0.10966544477E+03  0.47000000000E+01 0.  1.
         -5    1    3    3    0  502 -0.47619637422E+02 -0.43393756062E+02  0.19750536650E+02  0.67548661211E+02  0.47000000000E+01 0.  1.
          5    1    4    4  503    0 -0.18984915689E+02  0.32414772562E+02  0.34723664948E+02  0.51370880968E+02  0.47000000000E+01 0. -1.
         -5    1    4    4    0  503  0.20648009012E+02  0.74316799359E+01 -0.46036388364E+02  0.51215321891E+02  0.47000000000E+01 0.  1.
<mgrwt>
<rscale>  0 0.12317223E+03</rscale>
<asrwt>0</asrwt>
<pdfrwt beam="1">  1        2 0.29818113E-01 0.13118163E+03</pdfrwt>
<pdfrwt beam="2">  1       -2 0.13228088E-01 0.13118163E+03</pdfrwt>
<totfact> 0.70485772E+03</totfact>
</mgrwt>
</event>
<event>
 8    1  0.3520338E-004  0.1578500E+03  0.7546771E-02  0.1200913E+00
         -1   -1    0    0    0  501 -0.00000000000E+00  0.00000000000E+00  0.42674517448E+02  0.42674517448E+02  0.00000000000E+00 0.  1.
          1   -1    0    0  501    0  0.00000000000E+00 -0.00000000000E+00 -0.47882629623E+03  0.47882629623E+03  0.00000000000E+00 0. -1.
         25    2    1    2    0    0  0.31192155696E+02 -0.91199577215E+02 -0.25725703717E+03  0.30182414823E+03  0.12500527917E+03 0.  0.
         23    2    1    2    0    0 -0.31192155696E+02  0.91199577215E+02 -0.17889474162E+03  0.21967666545E+03  0.83451754351E+02 0.  0.
          5    1    3    3  502    0  0.30841236438E+02 -0.13938905362E+02 -0.20639568168E+03  0.20920502471E+03  0.47000000000E+01 0. -1.
         -5    1    4    4    0  503  0.22888812210E+02  0.65508931461E+01 -0.19137956249E+02  0.30905716215E+02  0.47000000000E+01 0.  1.
          5    1    4    4  503    0 -0.54080967906E+02  0.84648684069E+02 -0.15975678537E+03  0.18877094924E+03  0.47000000000E+01 0. -1.
         -5    1    3    3    0  502  0.35091925845E+00 -0.77260671854E+02 -0.50861355488E+02  0.92619123521E+02  0.47000000000E+01 0. -1.
<mgrwt>
<rscale>  0 0.14964260E+03</rscale>
<asrwt>0</asrwt>
<pdfrwt beam="1">  1        1 0.73665582E-01 0.15785003E+03</pdfrwt>
<pdfrwt beam="2">  1       -1 0.65653106E-02 0.15785003E+03</pdfrwt>
<totfact> 0.54084687E+03</totfact>
</mgrwt>
</event>
<event>
 8    1  0.3520338E-004  0.1298229E+03  0.7546771E-02  0.1240382E+00
          3   -1    0    0  501    0  0.00000000000E+00  0.00000000000E+00  0.13621772384E+03  0.13621772384E+03  0.00000000000E+00 0. -1.
         -3   -1    0    0    0  501 -0.00000000000E+00 -0.00000000000E+00 -0.13046833055E+03  0.13046833055E+03  0.00000000000E+00 0.  1.
         25    2    1    2    0    0  0.33589732305E+02  0.10039537636E+02  0.70221615841E+02  0.14759765293E+03  0.12499971755E+03 0.  0.
         23    2    1    2    0    0 -0.33589732305E+02 -0.10039537636E+02 -0.64472222551E+02  0.11908840146E+03  0.93788685085E+02 0.  0.
          5    1    4    4  502    0 -0.12042685530E+02  0.19501952584E+02  0.17493284290E+02  0.29213993644E+02  0.47000000000E+01 0. -1.
         -5    1    3    3    0  503  0.40486815001E+02  0.43965698354E+02  0.89477018224E+02  0.10770511414E+03  0.47000000000E+01 0.  1.
          5    1    3    3  503    0 -0.68970826958E+01 -0.33926160718E+02 -0.19255402383E+02  0.39892538797E+02  0.47000000000E+01 0.  1.
         -5    1    4    4    0  502 -0.21547046776E+02 -0.29541490220E+02 -0.81965506841E+02  0.89874407819E+02  0.47000000000E+01 0.  1.
<mgrwt>
<rscale>  0 0.12166093E+03</rscale>
<asrwt>0</asrwt>
<pdfrwt beam="1">  1        3 0.20956573E-01 0.12982292E+03</pdfrwt>
<pdfrwt beam="2">  1       -3 0.20072051E-01 0.12982292E+03</pdfrwt>
<totfact> 0.10537453E+03</totfact>
</mgrwt>
</event>
<event>
 8    1  0.3520338E-004  0.1638587E+03  0.7546771E-02  0.1191950E+00
          2   -1    0    0  501    0  0.00000000000E+00  0.00000000000E+00  0.30220074330E+03  0.30220074330E+03  0.00000000000E+00 0.  1.
         -2   -1    0    0    0  501 -0.00000000000E+00 -0.00000000000E+00 -0.76194592963E+02  0.76194592963E+02  0.00000000000E+00 0. -1.
         25    2    1    2    0    0  0.92206854152E+02 -0.52104346775E+02  0.10711585306E+03  0.19576383775E+03  0.12503082536E+03 0.  0.
         23    2    1    2    0    0 -0.92206854152E+02  0.52104346775E+02  0.11889029728E+03  0.18263149851E+03  0.89456104072E+02 0.  0.
          5    1    3    3  502    0  0.10895976640E+03 -0.91830580862E+00  0.62754801801E+02  0.12583055721E+03  0.47000000000E+01 0.  1.
         -5    1    4    4    0  503 -0.24901707063E+02 -0.24399585563E+02  0.19545728784E+02  0.40243761057E+02  0.47000000000E+01 0.  1.
          5    1    4    4  503    0 -0.67305147090E+02  0.76503932338E+02  0.99344568493E+02  0.14238773745E+03  0.47000000000E+01 0. -1.
         -5    1    3    3    0  502 -0.16752912245E+02 -0.51186040966E+02  0.44361051255E+02  0.69933280539E+02  0.47000000000E+01 0.  1.
<mgrwt>
<rscale>  0 0.15715185E+03</rscale>
<asrwt>0</asrwt>
<pdfrwt beam="1">  1        2 0.46492422E-01 0.16385870E+03</pdfrwt>
<pdfrwt beam="2">  1       -2 0.11722245E-01 0.16385870E+03</pdfrwt>
<totfact> 0.53927007E+03</totfact>
</mgrwt>
</event>
<event>
 8    1  0.3520338E-004  0.1481053E+03  0.7546771E-02  0.1213376E+00
          1   -1    0    0  501    0  0.00000000000E+00  0.00000000000E+00  0.75639789198E+03  0.75639789198E+03  0.00000000000E+00 0. -1.
         -1   -1    0    0    0  501 -0.00000000000E+00 -0.00000000000E+00 -0.23469855565E+02  0.23469855565E+02  0.00000000000E+00 0.  1.
         25    2    1    2    0    0 -0.60408982001E+02  0.51579001318E+02  0.39118972126E+03  0.41828767165E+03  0.12500215899E+03 0.  0.
         23    2    1    2    0    0  0.60408982001E+02 -0.51579001318E+02  0.34173831516E+03  0.36158007589E+03  0.87438188197E+02 0.  0.
          5    1    3    3  502    0  0.16038597163E+02  0.62493390959E+02  0.23848684344E+03  0.24710468431E+03  0.47000000000E+01 0.  1.
         -5    1    3    3    0  502 -0.76447579164E+02 -0.10914389641E+02  0.15270287782E+03  0.17118298734E+03  0.47000000000E+01 0.  1.
          5    1    4    4  503    0  0.59410390324E+02 -0.27627289470E+02  0.32592735838E+03  0.33248096869E+03  0.47000000000E+01 0. -1.
         -5    1    4    4    0  503  0.99859167734E+00 -0.23951711848E+02  0.15810956774E+02  0.29099107201E+02  0.47000000000E+01 0.  1.
<mgrwt>
<rscale>  0 0.13996500E+03</rscale>
<asrwt>0</asrwt>
<pdfrwt beam="1">  1        1 0.11636889E+00 0.14810529E+03</pdfrwt>
<pdfrwt beam="2">  1       -1 0.36107476E-02 0.14810529E+03</pdfrwt>
<totfact> 0.69761558E+03</totfact>
</mgrwt>
</event>
<event>
 8    1  0.3520338E-004  0.1818289E+03  0.7546771E-02  0.1170943E+00
          1   -1    0    0  501    0  0.00000000000E+00  0.00000000000E+00  0.34127991678E+03  0.34127991678E+03  0.00000000000E+00 0. -1.
         -1   -1    0    0    0  501 -0.00000000000E+00 -0.00000000000E+00 -0.87916420974E+02  0.87916420974E+02  0.00000000000E+00 0.  1.
         25    2    1    2    0    0 -0.90945944276E+02  0.95741551158E+02  0.15724432443E+03  0.24039034734E+03  0.12499652849E+03 0.  0.
         23    2    1    2    0    0  0.90945944276E+02 -0.95741551158E+02  0.96119171379E+02  0.18880599041E+03  0.94716405703E+02 0.  0.
          5    1    3    3  502    0 -0.77815853080E+02  0.88471195829E+01  0.12313207549E+03  0.14600402916E+03  0.47000000000E+01 0.  1.
         -5    1    3    3    0  502 -0.13130091196E+02  0.86894431575E+02  0.34112248937E+02  0.94386318188E+02  0.47000000000E+01 0.  1.
          5    1    4    4  503    0  0.32374059471E+02 -0.57893310108E+01  0.71113403856E+02  0.78490778364E+02  0.47000000000E+01 0. -1.
         -5    1    4    4    0  503  0.58571884805E+02 -0.89952220147E+02  0.25005767523E+02  0.11031521204E+03  0.47000000000E+01 0.  1.
<mgrwt>
<rscale>  0 0.17679328E+03</rscale>
<asrwt>0</asrwt>
<pdfrwt beam="1">  1        1 0.52504602E-01 0.18182888E+03</pdfrwt>
<pdfrwt beam="2">  1       -1 0.13525603E-01 0.18182888E+03</pdfrwt>
<totfact> 0.27703224E+03</totfact>
</mgrwt>
</event>
<event>
 8    1  0.3520338E-004  0.1750065E+03  0.7546771E-02  0.1178867E+00
         -2   -1    0    0    0  501 -0.00000000000E+00  0.00000000000E+00  0.33573405848E+02  0.33573405848E+02  0.00000000000E+00 0.  1.
          2   -1    0    0  501    0  0.00000000000E+00 -0.00000000000E+00 -0.81874068471E+03  0.81874068471E+03  0.00000000000E+00 0. -1.
         25    2    1    2    0    0  0.12127865684E+03 -0.17149582270E+02 -0.48738272917E+03  0.51785056678E+03  0.12499865620E+03 0.  0.
         23    2    1    2    0    0 -0.12127865684E+03  0.17149582270E+02 -0.29778454969E+03  0.33446352377E+03  0.90485302243E+02 0.  0.
          5    1    4    4  502    0 -0.55639383493E+02  0.53170738688E+00 -0.23654523750E+03  0.24304683313E+03  0.47000000000E+01 0. -1.
         -5    1    3    3    0  503  0.13674420835E+03 -0.41680654121E+02 -0.36581641481E+03  0.39278492179E+03  0.47000000000E+01 0.  1.
          5    1    3    3  503    0 -0.15465551515E+02  0.24531071851E+02 -0.12156631436E+03  0.12506564499E+03  0.47000000000E+01 0.  1.
         -5    1    4    4    0  502 -0.65639273345E+02  0.16617874883E+02 -0.61239312191E+02  0.91416690645E+02  0.47000000000E+01 0.  1.
<mgrwt>
<rscale>  0 0.16902610E+03</rscale>
<asrwt>0</asrwt>
<pdfrwt beam="1">  1        2 0.12596009E+00 0.17500653E+03</pdfrwt>
<pdfrwt beam="2">  1       -2 0.51651401E-02 0.17500653E+03</pdfrwt>
<totfact> 0.62844194E+03</totfact>
</mgrwt>
</event>
<event>
 8    1  0.3520338E-004  0.1373798E+03  0.7546771E-02  0.1228915E+00
          2   -1    0    0  501    0  0.00000000000E+00  0.00000000000E+00  0.46951084642E+03  0.46951084642E+03  0.00000000000E+00 0. -1.
         -2   -1    0    0    0  501 -0.00000000000E+00 -0.00000000000E+00 -0.34202988096E+02  0.34202988096E+02  0.00000000000E+00 0.  1.
         25    2    1    2    0    0  0.37213324121E+02 -0.43172579974E+02  0.17618036732E+03  0.22341156089E+03  0.12499800221E+03 0.  0.
         23    2    1    2    0    0 -0.37213324121E+02  0.43172579974E+02  0.25912749100E+03  0.28030227362E+03  0.90407991089E+02 0.  0.
          5    1    3    3  502    0 -0.13161513161E+02 -0.17414129938E+02 -0.13040100306E+02  0.25857524363E+02  0.47000000000E+01 0. -1.
         -5    1    3    3    0  502  0.50374837282E+02 -0.25758450036E+02  0.18922046763E+03  0.19755403653E+03  0.47000000000E+01 0. -1.
          5    1    4    4  503    0 -0.63977760684E+02  0.15528982021E+02  0.13514500256E+03  0.15040134594E+03  0.47000000000E+01 0.  1.
         -5    1    4    4    0  503  0.26764436563E+02  0.27643597953E+02  0.12398248844E+03  0.12990092768E+03  0.47000000000E+01 0. -1.
<mgrwt>
<rscale>  0 0.12902128E+03</rscale>
<asrwt>0</asrwt>
<pdfrwt beam="1">  1        2 0.72232434E-01 0.13737978E+03</pdfrwt>
<pdfrwt beam="2">  1       -2 0.52619985E-02 0.13737978E+03</pdfrwt>
<totfact> 0.11494527E+04</totfact>
</mgrwt>
</event>
<event>
 8    1  0.3520338E-004  0.1449581E+03  0.7546771E-02  0.1216798E+00
          2   -1    0    0  501    0  0.00000000000E+00  0.00000000000E+00  0.20134354505E+03  0.20134354505E+03  0.00000000000E+00 0. -1.
         -2   -1    0    0    0  501 -0.00000000000E+00 -0.00000000000E+00 -0.93347487435E+02  0.93347487435E+02  0.00000000000E+00 0.  1.
         25    2    1    2    0    0  0.33034367913E+02 -0.65510992485E+02  0.10219326133E+03  0.17735927269E+03  0.12501955586E+03 0.  0.
         23    2    1    2    0    0 -0.33034367913E+02  0.65510992485E+02  0.58027962841E+01  0.11733175979E+03  0.91378935275E+02 0.  0.
          5    1    3    3  502    0 -0.47391740114E+02 -0.31858615107E+02  0.46576283255E+02  0.73840290827E+02  0.47000000000E+01 0.  1.
         -5    1    4    4    0  503 -0.93580507206E+01  0.47064501151E+02 -0.39810965151E+02  0.62527140732E+02  0.47000000000E+01 0.  1.
          5    1    4    4  503    0 -0.23676317192E+02  0.18446491334E+02  0.45613761435E+02  0.54804619062E+02  0.47000000000E+01 0. -1.
         -5    1    3    3    0  502  0.80426108027E+02 -0.33652377379E+02  0.55616978075E+02  0.10351898186E+03  0.47000000000E+01 0.  1.
<mgrwt>
<rscale>  0 0.13745255E+03</rscale>
<asrwt>0</asrwt>
<pdfrwt beam="1">  1        2 0.30975930E-01 0.14495809E+03</pdfrwt>
<pdfrwt beam="2">  1       -2 0.14361152E-01 0.14495809E+03</pdfrwt>
<totfact> 0.59600033E+03</totfact>
</mgrwt>
</event>
<event>
 8    1  0.3520338E-004  0.1471635E+03  0.7546771E-02  0.1214028E+00
         -1   -1    0    0    0  501 -0.00000000000E+00  0.00000000000E+00  0.80900251419E+03  0.80900251419E+03  0.00000000000E+00 0.  1.
          1   -1    0    0  501    0  0.00000000000E+00 -0.00000000000E+00 -0.22010605644E+02  0.22010605644E+02  0.00000000000E+00 0. -1.
         25    2    1    2    0    0  0.56389967520E+02  0.53404883137E+02  0.40022345383E+03  0.42642222771E+03  0.12500077326E+03 0.  0.
         23    2    1    2    0    0 -0.56389967520E+02 -0.53404883137E+02  0.38676845472E+03  0.40459089212E+03  0.89844545968E+02 0.  0.
          5    1    4    4  502    0 -0.67437193409E+02 -0.65089255225E+01  0.26472226624E+03  0.27329491289E+03  0.47000000000E+01 0. -1.
         -5    1    3    3    0  503  0.87767901542E+02  0.42933015774E+02  0.19145044065E+03  0.21499258036E+03  0.47000000000E+01 0. -1.
          5    1    3    3  503    0 -0.31377934022E+02  0.10471867363E+02  0.20877301317E+03  0.21142964735E+03  0.47000000000E+01 0. -1.
         -5    1    4    4    0  502  0.11047225889E+02 -0.46895957615E+02  0.12204618848E+03  0.13129597923E+03  0.47000000000E+01 0.  1.
<mgrwt>
<rscale>  0 0.13948186E+03</rscale>
<asrwt>0</asrwt>
<pdfrwt beam="1">  1        1 0.33862476E-02 0.14716353E+03</pdfrwt>
<pdfrwt beam="2">  1       -1 0.12446190E+00 0.14716353E+03</pdfrwt>
<totfact> 0.16995165E+03</totfact>
</mgrwt>
</event>
<event>
 8    1  0.3520338E-004  0.1606700E+03  0.7546771E-02  0.1195553E+00
          1   -1    0    0  501    0  0.00000000000E+00  0.00000000000E+00  0.52772169081E+03  0.52772169081E+03  0.00000000000E+00 0. -1.
         -1   -1    0    0    0  501 -0.00000000000E+00 -0.00000000000E+00 -0.42243499277E+02  0.42243499277E+02  0.00000000000E+00 0.  1.
         25    2    1    2    0    0  0.15625273016E+01 -0.10093285624E+03  0.22934825597E+03  0.28002765113E+03  0.12499991968E+03 0.  0.
         23    2    1    2    0    0 -0.15625273016E+01  0.10093285624E+03  0.25612993556E+03  0.28993753896E+03  0.90946960610E+02 0.  0.
          5    1    3    3  502    0  0.47056123811E+02 -0.10197284332E+03  0.18396812574E+03  0.21559012235E+03  0.47000000000E+01 0. -1.
         -5    1    3    3    0  502 -0.45493596510E+02  0.10399870812E+01  0.45380130226E+02  0.64437528785E+02  0.47000000000E+01 0. -1.
          5    1    4    4  503    0  0.21822124318E+02 -0.25515100944E+01  0.90020976701E+02  0.92782442088E+02  0.47000000000E+01 0. -1.
         -5    1    4    4    0  503 -0.23384651619E+02  0.10348436634E+03  0.16610895886E+03  0.19715509687E+03  0.47000000000E+01 0.  1.
<mgrwt>
<rscale>  0 0.15407557E+03</rscale>
<asrwt>0</asrwt>
<pdfrwt beam="1">  1        1 0.81187947E-01 0.16067004E+03</pdfrwt>
<pdfrwt beam="2">  1       -1 0.64990003E-02 0.16067004E+03</pdfrwt>
<totfact> 0.48375590E+03</totfact>
</mgrwt>
</event>
<event>
 8    1  0.3520338E-004  0.2728831E+03  0.7546771E-02  0.1101516E+00
         -1   -1    0    0    0  501 -0.00000000000E+00  0.00000000000E+00  0.49722859253E+02  0.49722859253E+02  0.00000000000E+00 0.  1.
          1   -1    0    0  501    0  0.00000000000E+00 -0.00000000000E+00 -0.15281687644E+04  0.15281687644E+04  0.00000000000E+00 0. -1.
         25    2    1    2    0    0  0.19847033365E+03  0.13946173994E+03 -0.95853536804E+03  0.99662190009E+03  0.12500043885E+03 0.  0.
         23    2    1    2    0    0 -0.19847033365E+03 -0.13946173994E+03 -0.51991053712E+03  0.58126972358E+03  0.93420954209E+02 0.  0.
          5    1    4    4  502    0 -0.10162441704E+03 -0.40100476486E+02 -0.31766533010E+03  0.33595970339E+03  0.47000000000E+01 0. -1.
         -5    1    3    3    0  503  0.18166834717E+03  0.15310895319E+03 -0.93314960139E+03  0.96293094689E+03  0.47000000000E+01 0. -1.
          5    1    3    3  503    0  0.16801986488E+02 -0.13647213242E+02 -0.25385766649E+02  0.33690953201E+02  0.47000000000E+01 0. -1.
         -5    1    4    4    0  502 -0.96845916614E+02 -0.99361263458E+02 -0.20224520703E+03  0.24531002019E+03  0.47000000000E+01 0.  1.
<mgrwt>
<rscale>  0 0.26958745E+03</rscale>
<asrwt>0</asrwt>
<pdfrwt beam="1">  1        1 0.23510286E+00 0.27288305E+03</pdfrwt>
<pdfrwt beam="2">  1       -1 0.76496715E-02 0.27288305E+03</pdfrwt>
<totfact> 0.63294896E+02</totfact>
</mgrwt>
</event>
<event>
 8    1  0.3520338E-004  0.1367924E+03  0.7546771E-02  0.1229410E+00
          1   -1    0    0  501    0  0.00000000000E+00  0.00000000000E+00  0.34392102087E+03  0.34392102087E+03  0.00000000000E+00 0. -1.
         -1   -1    0    0    0  501 -0.00000000000E+00 -0.00000000000E+00 -0.48590144325E+02  0.48590144325E+02  0.00000000000E+00 0.  1.
         25    2    1    2    0    0 -0.13323164648E+02  0.53939796990E+02  0.22821455520E+03  0.26607149427E+03  0.12500059377E+03 0.  0.
         23    2    1    2    0    0  0.13323164648E+02 -0.53939796990E+02  0.67116321343E+02  0.12643967092E+03  0.91626313777E+02 0.  0.
          5    1    4    4  502    0  0.95245065151E+01 -0.78972746550E+02  0.59925834408E+02  0.99702590496E+02  0.47000000000E+01 0. -1.
         -5    1    3    3    0  503 -0.93759745948E+01  0.27170706029E+02 -0.64293092535E+01  0.29825864333E+02  0.47000000000E+01 0. -1.
          5    1    3    3  503    0 -0.39471900536E+01  0.26769090961E+02  0.23464386445E+03  0.23624562994E+03  0.47000000000E+01 0. -1.
         -5    1    4    4    0  502  0.37986581333E+01  0.25032949560E+02  0.71904869347E+01  0.26737080425E+02  0.47000000000E+01 0.  1.
<mgrwt>
<rscale>  0 0.12869168E+03</rscale>
<asrwt>0</asrwt>
<pdfrwt beam="1">  1        1 0.52910925E-01 0.13679239E+03</pdfrwt>
<pdfrwt beam="2">  1       -1 0.74754070E-02 0.13679239E+03</pdfrwt>
<totfact> 0.67161233E+03</totfact>
</mgrwt>
</event>
<event>
 8    1  0.3520338E-004  0.1326972E+03  0.7546771E-02  0.1237530E+00
         -4   -1    0    0    0  501 -0.00000000000E+00  0.00000000000E+00  0.73784321347E+02  0.73784321347E+02  0.00000000000E+00 0.  1.
          4   -1    0    0  501    0  0.00000000000E+00 -0.00000000000E+00 -0.19981849532E+03  0.19981849532E+03  0.00000000000E+00 0. -1.
         25    2    1    2    0    0 -0.35717661394E+01 -0.44327893908E+02 -0.31346533698E+02  0.13634940500E+03  0.12502333934E+03 0.  0.
         23    2    1    2    0    0  0.35717661394E+01  0.44327893908E+02 -0.94687640278E+02  0.13725341167E+03  0.88853981908E+02 0.  0.
          5    1    3    3  502    0 -0.49848623602E+02 -0.13152033452E+02  0.24492551040E+02  0.57269855207E+02  0.47000000000E+01 0.  1.
         -5    1    4    4    0  503 -0.34328004166E+02  0.38374891118E+02 -0.24693676635E+02  0.57296699766E+02  0.47000000000E+01 0.  1.
          5    1    4    4  503    0  0.37899770305E+02  0.59530027902E+01 -0.69993963644E+02  0.79956711901E+02  0.47000000000E+01 0. -1.
         -5    1    3    3    0  502  0.46276857463E+02 -0.31175860456E+02 -0.55839084738E+02  0.79079549798E+02  0.47000000000E+01 0.  1.
<mgrwt>
<rscale>  0 0.12343865E+03</rscale>
<asrwt>0</asrwt>
<pdfrwt beam="1">  1        4 0.30741307E-01 0.13269723E+03</pdfrwt>
<pdfrwt beam="2">  1       -4 0.11351434E-01 0.13269723E+03</pdfrwt>
<totfact> 0.10194958E+03</totfact>
</mgrwt>
</event>
<event>
 8    1  0.3520338E-004  0.2532674E+03  0.7546771E-02  0.1113642E+00
          1   -1    0    0  501    0  0.00000000000E+00  0.00000000000E+00  0.90384759122E+03  0.90384759122E+03  0.00000000000E+00 0. -1.
         -1   -1    0    0    0  501 -0.00000000000E+00 -0.00000000000E+00 -0.94930290072E+02  0.94930290072E+02  0.00000000000E+00 0.  1.
         25    2    1    2    0    0  0.18745150853E+03  0.11567574541E+03  0.68451737867E+03  0.72986877774E+03  0.12500177954E+03 0.  0.
         23    2    1    2    0    0 -0.18745150853E+03 -0.11567574541E+03  0.12439992247E+03  0.26890910355E+03  0.91202078558E+02 0.  0.
          5    1    3    3  502    0  0.24444343261E+02 -0.23341046628E+02  0.53471852662E+02  0.63432321432E+02  0.47000000000E+01 0. -1.
         -5    1    3    3    0  502  0.16300716527E+03  0.13901679204E+03  0.63104552601E+03  0.66643645631E+03  0.47000000000E+01 0. -1.
          5    1    4    4  503    0 -0.48189934699E+02  0.18699223993E+01  0.56362638058E+02  0.74327675767E+02  0.47000000000E+01 0. -1.
         -5    1    4    4    0  503 -0.13926157383E+03 -0.11754566781E+03  0.68037284416E+02  0.19458142778E+03  0.47000000000E+01 0.  1.
<mgrwt>
<rscale>  0 0.24946704E+03</rscale>
<asrwt>0</asrwt>
<pdfrwt beam="1">  1        1 0.13905347E+00 0.25326743E+03</pdfrwt>
<pdfrwt beam="2">  1       -1 0.14604661E-01 0.25326743E+03</pdfrwt>
<totfact> 0.63923128E+02</totfact>
</mgrwt>
</event>
<event>
 8    1  0.3520338E-004  0.1332298E+03  0.7546771E-02  0.1236449E+00
         -1   -1    0    0    0  501 -0.00000000000E+00  0.00000000000E+00  0.22764622587E+03  0.22764622587E+03  0.00000000000E+00 0.  1.
          1   -1    0    0  501    0  0.00000000000E+00 -0.00000000000E+00 -0.61953176315E+02  0.61953176315E+02  0.00000000000E+00 0. -1.
         25    2    1    2    0    0  0.26736970899E+02 -0.37555271733E+02  0.68169005353E+02  0.14965690205E+03  0.12499964397E+03 0.  0.
         23    2    1    2    0    0 -0.26736970899E+02  0.37555271733E+02  0.97524044199E+02  0.13994250013E+03  0.89149874361E+02 0.  0.
          5    1    4    4  502    0 -0.37724209693E+02  0.61900272705E+02  0.63924419304E+02  0.96763532084E+02  0.47000000000E+01 0. -1.
         -5    1    3    3    0  503  0.34085240273E+02  0.34334882827E+02 -0.22311069801E+01  0.48659589205E+02  0.47000000000E+01 0. -1.
          5    1    3    3  503    0 -0.73482693746E+01 -0.71890154560E+02  0.70400112334E+02  0.10099731285E+03  0.47000000000E+01 0. -1.
         -5    1    4    4    0  502  0.10987238794E+02 -0.24345000972E+02  0.33599624895E+02  0.43178968049E+02  0.47000000000E+01 0.  1.
<mgrwt>
<rscale>  0 0.12412111E+03</rscale>
<asrwt>0</asrwt>
<pdfrwt beam="1">  1        1 0.95312580E-02 0.13322978E+03</pdfrwt>
<pdfrwt beam="2">  1       -1 0.35022496E-01 0.13322978E+03</pdfrwt>
<totfact> 0.50942259E+03</totfact>
</mgrwt>
</event>
<event>
 8    1  0.3520338E-004  0.1317760E+03  0.7546771E-02  0.1238269E+00
         -2   -1    0    0    0  501 -0.00000000000E+00  0.00000000000E+00  0.71436924465E+02  0.71436924465E+02  0.00000000000E+00 0.  1.
          2   -1    0    0  501    0  0.00000000000E+00 -0.00000000000E+00 -0.21787786270E+03  0.21787786270E+03  0.00000000000E+00 0. -1.
         25    2    1    2    0    0 -0.66270103284E+01 -0.41182663276E+02 -0.28681559194E+02  0.13486116909E+03  0.12499989628E+03 0.  0.
         23    2    1    2    0    0  0.66270103284E+01  0.41182663276E+02 -0.11775937904E+03  0.15445361808E+03  0.90822462892E+02 0.  0.
          5    1    4    4  502    0 -0.31885612398E+02  0.12899093020E+02 -0.95340535751E+02  0.10146421357E+03  0.47000000000E+01 0. -1.
         -5    1    3    3    0  503  0.35793810405E+02  0.28814232006E+02  0.45189780175E+01  0.46410860709E+02  0.47000000000E+01 0. -1.
          5    1    3    3  503    0 -0.42420820734E+02 -0.69996895282E+02 -0.33200537212E+02  0.88450308377E+02  0.47000000000E+01 0. -1.
         -5    1    4    4    0  502  0.38512622727E+02  0.28283570256E+02 -0.22418843293E+02  0.52989404510E+02  0.47000000000E+01 0.  1.
<mgrwt>
<rscale>  0 0.12297462E+03</rscale>
<asrwt>0</asrwt>
<pdfrwt beam="1">  1        2 0.33519670E-01 0.13177596E+03</pdfrwt>
<pdfrwt beam="2">  1       -2 0.10990296E-01 0.13177596E+03</pdfrwt>
<totfact> 0.83555110E+03</totfact>
</mgrwt>
</event>
<event>
 8    1  0.3520338E-004  0.1279657E+03  0.7546771E-02  0.1245011E+00
          2   -1    0    0  501    0  0.00000000000E+00  0.00000000000E+00  0.67909056423E+03  0.67909056423E+03  0.00000000000E+00 0. -1.
         -2   -1    0    0    0  501 -0.00000000000E+00 -0.00000000000E+00 -0.20640095592E+02  0.20640095592E+02  0.00000000000E+00 0.  1.
         25    2    1    2    0    0  0.26932283775E+02 -0.47692743925E+01  0.48792862942E+03  0.50442994215E+03  0.12500850070E+03 0.  0.
         23    2    1    2    0    0 -0.26932283775E+02  0.47692743925E+01  0.17052183922E+03  0.19530071767E+03  0.91195278293E+02 0.  0.
          5    1    3    3  502    0  0.38488772321E+02 -0.59920427706E+02  0.27917414672E+03  0.28815297578E+03  0.47000000000E+01 0. -1.
         -5    1    3    3    0  502 -0.11556488546E+02  0.55151153313E+02  0.20875448269E+03  0.21627696637E+03  0.47000000000E+01 0. -1.
          5    1    4    4  503    0  0.29180575631E+02 -0.14962745263E+02  0.83081001414E+02  0.89442341964E+02  0.47000000000E+01 0. -1.
         -5    1    4    4    0  503 -0.56112859407E+02  0.19732019655E+02  0.87440837805E+02  0.10585837570E+03  0.47000000000E+01 0.  1.
<mgrwt>
<rscale>  0 0.11884726E+03</rscale>
<asrwt>0</asrwt>
<pdfrwt beam="1">  1        2 0.10447545E+00 0.12796570E+03</pdfrwt>
<pdfrwt beam="2">  1       -2 0.31753998E-02 0.12796570E+03</pdfrwt>
<totfact> 0.15999050E+04</totfact>
</mgrwt>
</event>
<event>
 8    1  0.3520338E-004  0.1597885E+03  0.7546771E-02  0.1196684E+00
          2   -1    0    0  501    0  0.00000000000E+00  0.00000000000E+00  0.14003373478E+04  0.14003373478E+04  0.00000000000E+00 0. -1.
         -2   -1    0    0    0  501 -0.00000000000E+00 -0.00000000000E+00 -0.19001034710E+02  0.19001034710E+02  0.00000000000E+00 0.  1.
         25    2    1    2    0    0  0.83571687888E+01  0.99181651204E+02  0.10427334060E+04  0.10549053638E+04  0.12500211319E+03 0.  0.
         23    2    1    2    0    0 -0.83571687888E+01 -0.99181651204E+02  0.33860290711E+03  0.36443301877E+03  0.90844120662E+02 0.  0.
          5    1    4    4  502    0 -0.43994869173E+02 -0.85422757423E+02  0.23660389196E+03  0.25541356207E+03  0.47000000000E+01 0. -1.
         -5    1    3    3    0  503  0.60931484394E+02  0.76248226586E+02  0.52813115860E+03  0.53709500885E+03  0.47000000000E+01 0. -1.
          5    1    3    3  503    0 -0.52574315605E+02  0.22933424619E+02  0.51460224739E+03  0.51781035491E+03  0.47000000000E+01 0. -1.
         -5    1    4    4    0  502  0.35637700384E+02 -0.13758893781E+02  0.10199901515E+03  0.10901945669E+03  0.47000000000E+01 0.  1.
<mgrwt>
<rscale>  0 0.15312537E+03</rscale>
<asrwt>0</asrwt>
<pdfrwt beam="1">  1        2 0.21543643E+00 0.15978852E+03</pdfrwt>
<pdfrwt beam="2">  1       -2 0.29232372E-02 0.15978852E+03</pdfrwt>
<totfact> 0.66987248E+03</totfact>
</mgrwt>
</event>
<event>
 8    1  0.3520338E-004  0.1563862E+03  0.7546771E-02  0.1200943E+00
          1   -1    0    0  501    0  0.00000000000E+00  0.00000000000E+00  0.39933004123E+03  0.39933004123E+03  0.00000000000E+00 0.  1.
         -1   -1    0    0    0  501 -0.00000000000E+00 -0.00000000000E+00 -0.54804457490E+02  0.54804457490E+02  0.00000000000E+00 0. -1.
         25    2    1    2    0    0 -0.88780749079E+02 -0.30819975244E+02  0.24033500087E+03  0.28673604159E+03  0.12499901050E+03 0.  0.
         23    2    1    2    0    0  0.88780749079E+02  0.30819975244E+02  0.10419058287E+03  0.16739845712E+03  0.91294433609E+02 0.  0.
          5    1    3    3  502    0 -0.11261520573E+03 -0.24669165708E+02  0.23398104644E+03  0.26088306268E+03  0.47000000000E+01 0.  1.
         -5    1    4    4    0  503  0.23932263779E+02  0.17458444907E+02  0.95929265017E+02  0.10050902663E+03  0.47000000000E+01 0.  1.
          5    1    4    4  503    0  0.64848485300E+02  0.13361530337E+02  0.82613178516E+01  0.66889430490E+02  0.47000000000E+01 0. -1.
         -5    1    3    3    0  502  0.23834456653E+02 -0.61508095360E+01  0.63539544266E+01  0.25852978914E+02  0.47000000000E+01 0.  1.
<mgrwt>
<rscale>  0 0.14961814E+03</rscale>
<asrwt>0</asrwt>
<pdfrwt beam="1">  1        1 0.61435389E-01 0.15638620E+03</pdfrwt>
<pdfrwt beam="2">  1       -1 0.84314552E-02 0.15638620E+03</pdfrwt>
<totfact> 0.46772585E+03</totfact>
</mgrwt>
</event>
<event>
 8    1  0.3520338E-004  0.1401485E+03  0.7546771E-02  0.1223678E+00
          4   -1    0    0  501    0  0.00000000000E+00  0.00000000000E+00  0.35134926166E+03  0.35134926166E+03  0.00000000000E+00 0. -1.
         -4   -1    0    0    0  501 -0.00000000000E+00 -0.00000000000E+00 -0.49672170106E+02  0.49672170106E+02  0.00000000000E+00 0.  1.
         25    2    1    2    0    0  0.66534153440E+01 -0.63032671637E+02  0.10706826152E+03  0.17636673960E+03  0.12499691430E+03 0.  0.
         23    2    1    2    0    0 -0.66534153440E+01  0.63032671637E+02  0.19460883003E+03  0.22465469216E+03  0.92626931042E+02 0.  0.
          5    1    3    3  502    0 -0.41024012579E+02 -0.51387359584E+02  0.89094340203E+01  0.66521412700E+02  0.47000000000E+01 0.  1.
         -5    1    3    3    0  502  0.47677427923E+02 -0.11645312053E+02  0.98158827497E+02  0.10984532690E+03  0.47000000000E+01 0.  1.
          5    1    4    4  503    0 -0.14691765818E+02 -0.21869982156E+02  0.43286764822E+02  0.50891827547E+02  0.47000000000E+01 0. -1.
         -5    1    4    4    0  503  0.80383504735E+01  0.84902653793E+02  0.15132206521E+03  0.17376286462E+03  0.47000000000E+01 0.  1.
<mgrwt>
<rscale>  0 0.13257920E+03</rscale>
<asrwt>0</asrwt>
<pdfrwt beam="1">  1        4 0.54053731E-01 0.14014854E+03</pdfrwt>
<pdfrwt beam="2">  1       -4 0.76418725E-02 0.14014854E+03</pdfrwt>
<totfact> 0.65611876E+02</totfact>
</mgrwt>
</event>
<event>
 8    1  0.3520338E-004  0.1257208E+03  0.7546771E-02  0.1249435E+00
         -3   -1    0    0    0  501 -0.00000000000E+00  0.00000000000E+00  0.49948102345E+02  0.49948102345E+02  0.00000000000E+00 0.  1.
          3   -1    0    0  501    0  0.00000000000E+00 -0.00000000000E+00 -0.25101737603E+03  0.25101737603E+03  0.00000000000E+00 0. -1.
         25    2    1    2    0    0  0.40044228825E+01  0.12823281456E+02 -0.15048280732E+03  0.19608873548E+03  0.12500097972E+03 0.  0.
         23    2    1    2    0    0 -0.40044228825E+01 -0.12823281456E+02 -0.50586466360E+02  0.10487674290E+03  0.90882719323E+02 0.  0.
          5    1    4    4  502    0  0.36976176665E+02 -0.27673220638E+02 -0.35749939005E+02  0.58593454584E+02  0.47000000000E+01 0. -1.
         -5    1    3    3    0  503 -0.54408933038E+02  0.46582526506E+01 -0.11422627041E+03  0.12669554911E+03  0.47000000000E+01 0. -1.
          5    1    3    3  503    0  0.58413355921E+02  0.81650288059E+01 -0.36256536911E+02  0.69393186366E+02  0.47000000000E+01 0. -1.
         -5    1    4    4    0  502 -0.40980599547E+02  0.14849939182E+02 -0.14836527355E+02  0.46283288311E+02  0.47000000000E+01 0.  1.
<mgrwt>
<rscale>  0 0.11623824E+03</rscale>
<asrwt>0</asrwt>
<pdfrwt beam="1">  1        3 0.38618059E-01 0.12572079E+03</pdfrwt>
<pdfrwt beam="2">  1       -3 0.76843232E-02 0.12572079E+03</pdfrwt>
<totfact> 0.17165861E+03</totfact>
</mgrwt>
</event>
<event>
 8    1  0.3520338E-004  0.2296638E+03  0.7546771E-02  0.1130097E+00
         -1   -1    0    0    0  501 -0.00000000000E+00  0.00000000000E+00  0.50413355316E+02  0.50413355316E+02  0.00000000000E+00 0.  1.
          1   -1    0    0  501    0  0.00000000000E+00 -0.00000000000E+00 -0.10631568290E+04  0.10631568290E+04  0.00000000000E+00 0. -1.
         25    2    1    2    0    0  0.26594236637E+02  0.19082859089E+03 -0.69109860356E+03  0.72826006263E+03  0.12499053747E+03 0.  0.
         23    2    1    2    0    0 -0.26594236637E+02 -0.19082859089E+03 -0.32164487016E+03  0.38531012172E+03  0.88801254922E+02 0.  0.
          5    1    4    4  502    0 -0.59053293917E+02 -0.11724156469E+03 -0.19060062781E+03  0.23148124187E+03  0.47000000000E+01 0.  1.
         -5    1    4    4    0  502  0.32459057280E+02 -0.73587026203E+02 -0.13104424234E+03  0.15382887985E+03  0.47000000000E+01 0. -1.
          5    1    3    3  503    0 -0.45839382341E+02  0.63110953058E+02 -0.17485532188E+03  0.19152210045E+03  0.47000000000E+01 0.  1.
         -5    1    3    3    0  503  0.72433618979E+02  0.12771763783E+03 -0.51624328168E+03  0.53673796219E+03  0.47000000000E+01 0.  1.
<mgrwt>
<rscale>  0 0.22515475E+03</rscale>
<asrwt>0</asrwt>
<pdfrwt beam="1">  1        1 0.16356259E+00 0.22966375E+03</pdfrwt>
<pdfrwt beam="2">  1       -1 0.77559007E-02 0.22966375E+03</pdfrwt>
<totfact> 0.12976917E+03</totfact>
</mgrwt>
</event>
<event>
 8    1  0.3520338E-004  0.1423864E+03  0.7546771E-02  0.1220714E+00
          2   -1    0    0  501    0  0.00000000000E+00  0.00000000000E+00  0.16665553192E+04  0.16665553192E+04  0.00000000000E+00 0. -1.
         -2   -1    0    0    0  501 -0.00000000000E+00 -0.00000000000E+00 -0.10023909177E+02  0.10023909177E+02  0.00000000000E+00 0.  1.
         25    2    1    2    0    0  0.61434494087E+02 -0.29537875906E+02  0.80940998459E+03  0.82183843964E+03  0.12500885784E+03 0.  0.
         23    2    1    2    0    0 -0.61434494087E+02  0.29537875906E+02  0.84712142539E+03  0.85474078869E+03  0.91216354480E+02 0.  0.
          5    1    4    4  502    0 -0.83261942196E+02  0.27274775511E+02  0.74698072409E+03  0.75211618555E+03  0.47000000000E+01 0. -1.
         -5    1    3    3    0  503  0.81562066420E+02 -0.49962979902E+02  0.74558424792E+03  0.75170913976E+03  0.47000000000E+01 0.  1.
          5    1    3    3  503    0 -0.20127572334E+02  0.20425103996E+02  0.63825736665E+02  0.70129299884E+02  0.47000000000E+01 0.  1.
         -5    1    4    4    0  502  0.21827448110E+02  0.22631003948E+01  0.10014070130E+03  0.10262460314E+03  0.47000000000E+01 0.  1.
<mgrwt>
<rscale>  0 0.13465015E+03</rscale>
<asrwt>0</asrwt>
<pdfrwt beam="1">  1        2 0.25639291E+00 0.14238644E+03</pdfrwt>
<pdfrwt beam="2">  1       -2 0.15421412E-02 0.14238644E+03</pdfrwt>
<totfact> 0.12310126E+04</totfact>
</mgrwt>
</event>
<event>
 8    1  0.3520338E-004  0.1392824E+03  0.7546771E-02  0.1224612E+00
          2   -1    0    0  501    0  0.00000000000E+00  0.00000000000E+00  0.27474448704E+03  0.27474448704E+03  0.00000000000E+00 0.  1.
         -2   -1    0    0    0  501 -0.00000000000E+00 -0.00000000000E+00 -0.62608884178E+02  0.62608884178E+02  0.00000000000E+00 0. -1.
         25    2    1    2    0    0 -0.53671149606E+02  0.29927189599E+02  0.16442057763E+03  0.21548483309E+03  0.12499343170E+03 0.  0.
         23    2    1    2    0    0  0.53671149606E+02 -0.29927189599E+02  0.47715025235E+02  0.12186853812E+03  0.93802920926E+02 0.  0.
          5    1    4    4  502    0  0.32925081512E+02 -0.57568429021E+02  0.54941856517E+02  0.86248957153E+02  0.47000000000E+01 0.  1.
         -5    1    4    4    0  502  0.20746068094E+02  0.27641239422E+02 -0.72268312824E+01  0.35619580971E+02  0.47000000000E+01 0. -1.
          5    1    3    3  503    0  0.22481964237E+02  0.53692281466E+02  0.82143249823E+02  0.10078642417E+03  0.47000000000E+01 0.  1.
         -5    1    3    3    0  503 -0.76153113842E+02 -0.23765091868E+02  0.82277327802E+02  0.11469840892E+03  0.47000000000E+01 0.  1.
<mgrwt>
<rscale>  0 0.13193548E+03</rscale>
<asrwt>0</asrwt>
<pdfrwt beam="1">  1        2 0.42268382E-01 0.13928240E+03</pdfrwt>
<pdfrwt beam="2">  1       -2 0.96321362E-02 0.13928240E+03</pdfrwt>
<totfact> 0.80622519E+03</totfact>
</mgrwt>
</event>
<event>
 8    1  0.3520338E-004  0.1380958E+03  0.7546771E-02  0.1226165E+00
          2   -1    0    0  501    0  0.00000000000E+00  0.00000000000E+00  0.59758928111E+03  0.59758928111E+03  0.00000000000E+00 0. -1.
         -2   -1    0    0    0  501 -0.00000000000E+00 -0.00000000000E+00 -0.39204622990E+02  0.39204622990E+02  0.00000000000E+00 0.  1.
         25    2    1    2    0    0 -0.31935933306E+02  0.49236439435E+02  0.11524078117E+03  0.17986354584E+03  0.12500530658E+03 0.  0.
         23    2    1    2    0    0  0.31935933306E+02 -0.49236439435E+02  0.44314387695E+03  0.45693035826E+03  0.94682236019E+02 0.  0.
          5    1    4    4  502    0  0.30210483093E+02 -0.76222313937E+02  0.36441657442E+03  0.37355594513E+03  0.47000000000E+01 0. -1.
         -5    1    4    4    0  502  0.17254502134E+01  0.26985874502E+02  0.78727302530E+02  0.83374413130E+02  0.47000000000E+01 0.  1.
          5    1    3    3  503    0  0.19570239242E+02 -0.24366192124E+02 -0.24864531043E+01  0.31701388481E+02  0.47000000000E+01 0.  1.
         -5    1    3    3    0  503 -0.51506172548E+02  0.73602631558E+02  0.11772723427E+03  0.14816215736E+03  0.47000000000E+01 0.  1.
<mgrwt>
<rscale>  0 0.13087355E+03</rscale>
<asrwt>0</asrwt>
<pdfrwt beam="1">  1        2 0.91936806E-01 0.13809583E+03</pdfrwt>
<pdfrwt beam="2">  1       -2 0.60314809E-02 0.13809583E+03</pdfrwt>
<totfact> 0.71567391E+03</totfact>
</mgrwt>
</event>
<event>
 8    1  0.3520338E-004  0.1354447E+03  0.7546771E-02  0.1232580E+00
         -1   -1    0    0    0  501 -0.00000000000E+00  0.00000000000E+00  0.28534106532E+02  0.28534106532E+02  0.00000000000E+00 0.  1.
          1   -1    0    0  501    0  0.00000000000E+00 -0.00000000000E+00 -0.51214183748E+03  0.51214183748E+03  0.00000000000E+00 0. -1.
         25    2    1    2    0    0 -0.14242969895E+02  0.50156830990E+02 -0.31501437092E+03  0.34289839225E+03  0.12500673436E+03 0.  0.
         23    2    1    2    0    0  0.14242969895E+02 -0.50156830990E+02 -0.16859336003E+03  0.19777755177E+03  0.89295403290E+02 0.  0.
          5    1    3    3  502    0 -0.47495381155E+02  0.74045808182E+02 -0.16168540397E+03  0.18412727337E+03  0.47000000000E+01 0.  1.
         -5    1    4    4    0  503  0.32220468452E+02  0.10976896968E+02 -0.31894135559E+02  0.46882584585E+02  0.47000000000E+01 0.  1.
          5    1    4    4  503    0 -0.17977498557E+02 -0.61133727958E+02 -0.13669922448E+03  0.15089496718E+03  0.47000000000E+01 0. -1.
         -5    1    3    3    0  502  0.33252411261E+02 -0.23888977192E+02 -0.15332896694E+03  0.15877111888E+03  0.47000000000E+01 0.  1.
<mgrwt>
<rscale>  0 0.12660620E+03</rscale>
<asrwt>0</asrwt>
<pdfrwt beam="1">  1        1 0.78791056E-01 0.13544465E+03</pdfrwt>
<pdfrwt beam="2">  1       -1 0.43898623E-02 0.13544465E+03</pdfrwt>
<totfact> 0.89294896E+03</totfact>
</mgrwt>
</event>
<event>
 8    1  0.3520338E-004  0.2001784E+03  0.7546771E-02  0.1153830E+00
          1   -1    0    0  501    0  0.00000000000E+00  0.00000000000E+00  0.91242210840E+03  0.91242210840E+03  0.00000000000E+00 0. -1.
         -1   -1    0    0    0  501 -0.00000000000E+00 -0.00000000000E+00 -0.44155311660E+02  0.44155311660E+02  0.00000000000E+00 0.  1.
         25    2    1    2    0    0  0.37152071450E+02 -0.15187394953E+03  0.60324865426E+03  0.63559448174E+03  0.12500173356E+03 0.  0.
         23    2    1    2    0    0 -0.37152071450E+02  0.15187394953E+03  0.26501814248E+03  0.32098293832E+03  0.91375368078E+02 0.  0.
          5    1    3    3  502    0  0.11603048078E+02 -0.88561133216E+02  0.52089217424E+03  0.52851532828E+03  0.47000000000E+01 0. -1.
         -5    1    3    3    0  502  0.25549023372E+02 -0.63312816312E+02  0.82356480021E+02  0.10707915346E+03  0.47000000000E+01 0. -1.
          5    1    4    4  503    0 -0.78070776976E+01  0.24689009669E+02  0.13186273424E+03  0.13446326019E+03  0.47000000000E+01 0. -1.
         -5    1    4    4    0  503 -0.29344993753E+02  0.12718493986E+03  0.13315540824E+03  0.18651967813E+03  0.47000000000E+01 0.  1.
<mgrwt>
<rscale>  0 0.19522689E+03</rscale>
<asrwt>0</asrwt>
<pdfrwt beam="1">  1        1 0.14037262E+00 0.20017844E+03</pdfrwt>
<pdfrwt beam="2">  1       -1 0.67931255E-02 0.20017844E+03</pdfrwt>
<totfact> 0.20571591E+03</totfact>
</mgrwt>
</event>
<event>
 8    1  0.3520338E-004  0.4061960E+03  0.7546771E-02  0.1042492E+00
          1   -1    0    0  501    0  0.00000000000E+00  0.00000000000E+00  0.19091262436E+03  0.19091262436E+03  0.00000000000E+00 0. -1.
         -1   -1    0    0    0  501 -0.00000000000E+00 -0.00000000000E+00 -0.84845719365E+03  0.84845719365E+03  0.00000000000E+00 0.  1.
         25    2    1    2    0    0 -0.38610821782E+03 -0.16972787790E+02 -0.29362872671E+03  0.50121151977E+03  0.12501010763E+03 0.  0.
         23    2    1    2    0    0  0.38610821782E+03  0.16972787790E+02 -0.36391584259E+03  0.53815829824E+03  0.88385417783E+02 0.  0.
          5    1    4    4  502    0  0.33022349076E+03  0.48272391743E+01 -0.26357768331E+03  0.42257087125E+03  0.47000000000E+01 0. -1.
         -5    1    3    3    0  503 -0.48573986946E+02 -0.39743922409E+02 -0.19884744435E+02  0.66003822901E+02  0.47000000000E+01 0. -1.
          5    1    3    3  503    0 -0.33753423088E+03  0.22771134619E+02 -0.27374398227E+03  0.43520769687E+03  0.47000000000E+01 0. -1.
         -5    1    4    4    0  502  0.55884727063E+02  0.12145548616E+02 -0.10033815928E+03  0.11558742699E+03  0.47000000000E+01 0.  1.
<mgrwt>
<rscale>  0 0.40373949E+03</rscale>
<asrwt>0</asrwt>
<pdfrwt beam="1">  1        1 0.29371173E-01 0.40619596E+03</pdfrwt>
<pdfrwt beam="2">  1       -1 0.13053188E+00 0.40619596E+03</pdfrwt>
<totfact> 0.83007846E+01</totfact>
</mgrwt>
</event>
<event>
 8    1  0.3520338E-004  0.2001068E+03  0.7546771E-02  0.1153981E+00
         -1   -1    0    0    0  501 -0.00000000000E+00  0.00000000000E+00  0.25915627289E+03  0.25915627289E+03  0.00000000000E+00 0.  1.
          1   -1    0    0  501    0  0.00000000000E+00 -0.00000000000E+00 -0.14569258628E+03  0.14569258628E+03  0.00000000000E+00 0. -1.
         25    2    1    2    0    0 -0.81846545385E+02 -0.13312156468E+03  0.19034573997E+02  0.20101004731E+03  0.12499006417E+03 0.  0.
         23    2    1    2    0    0  0.81846545385E+02  0.13312156468E+03  0.94429112616E+02  0.20383881185E+03  0.90626684451E+02 0.  0.
          5    1    4    4  502    0  0.80395881744E+02  0.87651436760E+02  0.26495157725E+02  0.12194406730E+03  0.47000000000E+01 0. -1.
         -5    1    3    3    0  503 -0.77210608032E+02 -0.12368165196E+02  0.16472149738E+02  0.80049180008E+02  0.47000000000E+01 0.  1.
          5    1    3    3  503    0 -0.46359373532E+01 -0.12075339948E+03  0.25624242593E+01  0.12096086731E+03  0.47000000000E+01 0.  1.
         -5    1    4    4    0  502  0.14506636416E+01  0.45470127917E+02  0.67933954891E+02  0.81894744550E+02  0.47000000000E+01 0.  1.
<mgrwt>
<rscale>  0 0.19505368E+03</rscale>
<asrwt>0</asrwt>
<pdfrwt beam="1">  1        1 0.22414244E-01 0.20010678E+03</pdfrwt>
<pdfrwt beam="2">  1       -1 0.39870196E-01 0.20010678E+03</pdfrwt>
<totfact> 0.13580493E+03</totfact>
</mgrwt>
</event>
<event>
 8    1  0.3520338E-004  0.1599890E+03  0.7546771E-02  0.1196210E+00
          2   -1    0    0  501    0  0.00000000000E+00  0.00000000000E+00  0.38937068453E+03  0.38937068453E+03  0.00000000000E+00 0. -1.
         -2   -1    0    0    0  501 -0.00000000000E+00 -0.00000000000E+00 -0.75873450112E+02  0.75873450112E+02  0.00000000000E+00 0.  1.
         25    2    1    2    0    0  0.27296994760E+02 -0.96049006689E+02  0.28469494979E+03  0.32656956686E+03  0.12500371977E+03 0.  0.
         23    2    1    2    0    0 -0.27296994760E+02  0.96049006689E+02  0.28802284626E+02  0.13867456778E+03  0.91817898798E+02 0.  0.
          5    1    3    3  502    0 -0.31355128344E+02 -0.26619859297E+02  0.18681029780E+02  0.45418408780E+02  0.47000000000E+01 0.  1.
         -5    1    4    4    0  503 -0.50089618975E+01  0.35357454444E+02 -0.33190034478E+02  0.48978645068E+02  0.47000000000E+01 0.  1.
          5    1    4    4  503    0 -0.22288032863E+02  0.60691552245E+02  0.61992319104E+02  0.89695922710E+02  0.47000000000E+01 0. -1.
         -5    1    3    3    0  502  0.58652123104E+02 -0.69429147392E+02  0.26601392001E+03  0.28115115808E+03  0.47000000000E+01 0.  1.
<mgrwt>
<rscale>  0 0.15352280E+03</rscale>
<asrwt>0</asrwt>
<pdfrwt beam="1">  1        2 0.59903181E-01 0.15998896E+03</pdfrwt>
<pdfrwt beam="2">  1       -2 0.11672839E-01 0.15998896E+03</pdfrwt>
<totfact> 0.41364510E+03</totfact>
</mgrwt>
</event>
<event>
 8    1  0.3520338E-004  0.1633098E+03  0.7546771E-02  0.1192063E+00
         -4   -1    0    0    0  501 -0.00000000000E+00  0.00000000000E+00  0.86872704239E+02  0.86872704239E+02  0.00000000000E+00 0.  1.
          4   -1    0    0  501    0  0.00000000000E+00 -0.00000000000E+00 -0.27624110505E+03  0.27624110505E+03  0.00000000000E+00 0. -1.
         25    2    1    2    0    0  0.10508775520E+03  0.26843917471E+01 -0.13953402197E+03  0.21480187510E+03  0.12497783807E+03 0.  0.
         23    2    1    2    0    0 -0.10508775520E+03 -0.26843917471E+01 -0.49834378838E+02  0.14831193418E+03  0.91990881372E+02 0.  0.
          5    1    3    3  502    0  0.12289968661E+03  0.18205970734E+02 -0.14405913131E+03  0.19029165419E+03  0.47000000000E+01 0.  1.
         -5    1    3    3    0  502 -0.17811931407E+02 -0.15521578987E+02  0.45251093445E+01  0.24510220914E+02  0.47000000000E+01 0.  1.
          5    1    4    4  503    0 -0.26727092205E+02  0.11554718883E+02 -0.60995675718E+02  0.67752575172E+02  0.47000000000E+01 0. -1.
         -5    1    4    4    0  503 -0.78360662994E+02 -0.14239110630E+02  0.11161296880E+02  0.80559359012E+02  0.47000000000E+01 0.  1.
<mgrwt>
<rscale>  0 0.15705424E+03</rscale>
<asrwt>0</asrwt>
<pdfrwt beam="1">  1        4 0.42498632E-01 0.16330984E+03</pdfrwt>
<pdfrwt beam="2">  1       -4 0.13365031E-01 0.16330984E+03</pdfrwt>
<totfact> 0.42737508E+02</totfact>
</mgrwt>
</event>
<event>
 8    1  0.3520338E-004  0.1729038E+03  0.7546771E-02  0.1181130E+00
         -1   -1    0    0    0  501 -0.00000000000E+00  0.00000000000E+00  0.18767480665E+03  0.18767480665E+03  0.00000000000E+00 0.  1.
          1   -1    0    0  501    0  0.00000000000E+00 -0.00000000000E+00 -0.14461309472E+03  0.14461309472E+03  0.00000000000E+00 0. -1.
         25    2    1    2    0    0  0.19169944246E+02  0.11790887750E+03  0.55767979074E+02  0.18167494374E+03  0.12500291011E+03 0.  0.
         23    2    1    2    0    0 -0.19169944246E+02 -0.11790887750E+03 -0.12706267144E+02  0.15061295763E+03  0.90845052840E+02 0.  0.
          5    1    3    3  502    0  0.54038766533E+02  0.12295412977E+02  0.41604012172E+02  0.69457535930E+02  0.47000000000E+01 0. -1.
         -5    1    4    4    0  503 -0.32683447359E+02 -0.86886329991E+01  0.14586270784E+02  0.37128821286E+02  0.47000000000E+01 0.  1.
          5    1    4    4  503    0  0.13513503113E+02 -0.10922024450E+03 -0.27292537927E+02  0.11348413634E+03  0.47000000000E+01 0. -1.
         -5    1    3    3    0  502 -0.34868822286E+02  0.10561346452E+03  0.14163966902E+02  0.11221740781E+03  0.47000000000E+01 0. -1.
<mgrwt>
<rscale>  0 0.16689034E+03</rscale>
<asrwt>0</asrwt>
<pdfrwt beam="1">  1        1 0.22248168E-01 0.17290378E+03</pdfrwt>
<pdfrwt beam="2">  1       -1 0.28873047E-01 0.17290378E+03</pdfrwt>
<totfact> 0.23797282E+03</totfact>
</mgrwt>
</event>
<event>
 8    1  0.3520338E-004  0.1268172E+03  0.7546771E-02  0.1251835E+00
          1   -1    0    0  501    0  0.00000000000E+00  0.00000000000E+00  0.20956121499E+03  0.20956121499E+03  0.00000000000E+00 0. -1.
         -1   -1    0    0    0  501 -0.00000000000E+00 -0.00000000000E+00 -0.54114291447E+02  0.54114291447E+02  0.00000000000E+00 0.  1.
         25    2    1    2    0    0 -0.12962617006E+02 -0.17047874422E+02  0.81316013269E+02  0.15064824146E+03  0.12499575664E+03 0.  0.
         23    2    1    2    0    0  0.12962617006E+02  0.17047874422E+02  0.74130910274E+02  0.11302726498E+03  0.82590019424E+02 0.  0.
          5    1    3    3  502    0 -0.39594114600E+02 -0.61953953205E+02  0.39524046945E+02  0.83607574511E+02  0.47000000000E+01 0. -1.
         -5    1    4    4    0  503  0.44195818493E+02  0.26261978475E+02  0.52637101784E+02  0.73727310882E+02  0.47000000000E+01 0.  1.
          5    1    4    4  503    0 -0.31233201486E+02 -0.92141040530E+01  0.21493808490E+02  0.39299954097E+02  0.47000000000E+01 0. -1.
         -5    1    3    3    0  502  0.26631497593E+02  0.44906078783E+02  0.41791966324E+02  0.67040666949E+02  0.47000000000E+01 0. -1.
<mgrwt>
<rscale>  0 0.11485457E+03</rscale>
<asrwt>0</asrwt>
<pdfrwt beam="1">  1        1 0.32240187E-01 0.12681719E+03</pdfrwt>
<pdfrwt beam="2">  1       -1 0.83252757E-02 0.12681719E+03</pdfrwt>
<totfact> 0.10482631E+04</totfact>
</mgrwt>
</event>
<event>
 8    1  0.3520338E-004  0.1476025E+03  0.7546771E-02  0.1212614E+00
         -2   -1    0    0    0  501 -0.00000000000E+00  0.00000000000E+00  0.30965432245E+03  0.30965432245E+03  0.00000000000E+00 0.  1.
          2   -1    0    0  501    0  0.00000000000E+00 -0.00000000000E+00 -0.11241518868E+03  0.11241518868E+03  0.00000000000E+00 0. -1.
         25    2    1    2    0    0 -0.40187388377E+02 -0.67426242146E+02  0.24958668245E+03  0.28996552135E+03  0.12500066881E+03 0.  0.
         23    2    1    2    0    0  0.40187388377E+02  0.67426242146E+02 -0.52347548672E+02  0.13210398978E+03  0.92465528430E+02 0.  0.
          5    1    3    3  502    0  0.19376937191E+02 -0.61297876571E+02  0.20573900117E+03  0.21560037563E+03  0.47000000000E+01 0. -1.
         -5    1    4    4    0  503  0.28067682846E+02  0.22161809338E+02  0.23338927140E+02  0.42962031301E+02  0.47000000000E+01 0.  1.
          5    1    4    4  503    0  0.12119705531E+02  0.45264432808E+02 -0.75686475812E+02  0.89141958474E+02  0.47000000000E+01 0. -1.
         -5    1    3    3    0  502 -0.59564325569E+02 -0.61283655749E+01  0.43847681271E+02  0.74365145720E+02  0.47000000000E+01 0. -1.
<mgrwt>
<rscale>  0 0.14053233E+03</rscale>
<asrwt>0</asrwt>
<pdfrwt beam="1">  1        2 0.17294645E-01 0.14760248E+03</pdfrwt>
<pdfrwt beam="2">  1       -2 0.47639126E-01 0.14760248E+03</pdfrwt>
<totfact> 0.13640305E+03</totfact>
</mgrwt>
</event>
<event>
 8    1  0.3520338E-004  0.1254124E+03  0.7546771E-02  0.1250849E+00
          1   -1    0    0  501    0  0.00000000000E+00  0.00000000000E+00  0.23415526940E+03  0.23415526940E+03  0.00000000000E+00 0. -1.
         -1   -1    0    0    0  501 -0.00000000000E+00 -0.00000000000E+00 -0.52510431806E+02  0.52510431806E+02  0.00000000000E+00 0.  1.
         25    2    1    2    0    0  0.51771366270E+01 -0.86940242067E+01  0.71207033837E+02  0.14421759522E+03  0.12500353716E+03 0.  0.
         23    2    1    2    0    0 -0.51771366270E+01  0.86940242067E+01  0.11043780376E+03  0.14244810599E+03  0.89401149879E+02 0.  0.
          5    1    4    4  502    0  0.22688819295E+02 -0.99709992379E+01  0.10519555902E+03  0.10817762701E+03  0.47000000000E+01 0. -1.
         -5    1    4    4    0  502 -0.27865955922E+02  0.18665023445E+02  0.52422447369E+01  0.34270478980E+02  0.47000000000E+01 0.  1.
          5    1    3    3  503    0 -0.51022495622E+02 -0.17205961124E+02  0.13932088375E+01  0.54068208668E+02  0.47000000000E+01 0.  1.
         -5    1    3    3    0  503  0.56199632249E+02  0.85119369173E+01  0.69813825000E+02  0.90149386554E+02  0.47000000000E+01 0.  1.
<mgrwt>
<rscale>  0 0.11542030E+03</rscale>
<asrwt>0</asrwt>
<pdfrwt beam="1">  1        1 0.36023887E-01 0.12541241E+03</pdfrwt>
<pdfrwt beam="2">  1       -1 0.80785281E-02 0.12541241E+03</pdfrwt>
<totfact> 0.95542781E+03</totfact>
</mgrwt>
</event>
<event>
 8    1  0.3520338E-004  0.1266441E+03  0.7546771E-02  0.1243268E+00
         -1   -1    0    0    0  501 -0.00000000000E+00  0.00000000000E+00  0.11204453399E+03  0.11204453399E+03  0.00000000000E+00 0.  1.
          1   -1    0    0  501    0  0.00000000000E+00 -0.00000000000E+00 -0.11655012856E+03  0.11655012856E+03  0.00000000000E+00 0. -1.
         25    2    1    2    0    0 -0.14197896102E+02  0.14542286770E+02  0.19060968247E+01  0.12665848681E+03  0.12500272285E+03 0.  0.
         23    2    1    2    0    0  0.14197896102E+02 -0.14542286770E+02 -0.64116914039E+01  0.10193617574E+03  0.99683578280E+02 0.  0.
          5    1    3    3  502    0 -0.50032480791E+02  0.82646013811E+01 -0.44412871541E+02  0.67573263415E+02  0.47000000000E+01 0.  1.
         -5    1    4    4    0  503 -0.21244209269E+02 -0.15187513562E+02  0.37102623042E+02  0.45614379666E+02  0.47000000000E+01 0.  1.
          5    1    4    4  503    0  0.35442105371E+02  0.64522679267E+00 -0.43514314446E+02  0.56321796069E+02  0.47000000000E+01 0. -1.
         -5    1    3    3    0  502  0.35834584689E+02  0.62776853886E+01  0.46318968365E+02  0.59085223399E+02  0.47000000000E+01 0.  1.
<mgrwt>
<rscale>  0 0.11989628E+03</rscale>
<asrwt>0</asrwt>
<pdfrwt beam="1">  1        1 0.17930789E-01 0.12664414E+03</pdfrwt>
<pdfrwt beam="2">  1       -1 0.17237621E-01 0.12664414E+03</pdfrwt>
<totfact> 0.71301114E+03</totfact>
</mgrwt>
</event>
<event>
 8    1  0.3520338E-004  0.1353030E+03  0.7546771E-02  0.1236845E+00
          1   -1    0    0  501    0  0.00000000000E+00  0.00000000000E+00  0.19593048792E+03  0.19593048792E+03  0.00000000000E+00 0. -1.
         -1   -1    0    0    0  501 -0.00000000000E+00 -0.00000000000E+00 -0.68163604027E+02  0.68163604027E+02  0.00000000000E+00 0.  1.
         25    2    1    2    0    0  0.18897014733E+02 -0.48222121499E+02  0.85625190461E+02  0.16012049418E+03  0.12499771697E+03 0.  0.
         23    2    1    2    0    0 -0.18897014733E+02  0.48222121499E+02  0.42141693434E+02  0.10397359777E+03  0.79700166499E+02 0.  0.
          5    1    3    3  502    0  0.38500871443E+02 -0.82671420323E+02  0.76617400624E+02  0.11920233604E+03  0.47000000000E+01 0. -1.
         -5    1    4    4    0  503  0.97996526149E+01  0.24516094869E+02 -0.18560068105E+02  0.32613466959E+02  0.47000000000E+01 0.  1.
          5    1    4    4  503    0 -0.28696667348E+02  0.23706026630E+02  0.60701761539E+02  0.71360130811E+02  0.47000000000E+01 0. -1.
         -5    1    3    3    0  502 -0.19603856710E+02  0.34449298824E+02  0.90077898374E+01  0.40918158134E+02  0.47000000000E+01 0. -1.
<mgrwt>
<rscale>  0 0.12387084E+03</rscale>
<asrwt>0</asrwt>
<pdfrwt beam="1">  1        1 0.30143152E-01 0.13530299E+03</pdfrwt>
<pdfrwt beam="2">  1       -1 0.10486708E-01 0.13530299E+03</pdfrwt>
<totfact> 0.80648455E+03</totfact>
</mgrwt>
</event>
<event>
 8    1  0.3520338E-004  0.1678265E+03  0.7546771E-02  0.1186649E+00
         -2   -1    0    0    0  501 -0.00000000000E+00  0.00000000000E+00  0.19569787800E+03  0.19569787800E+03  0.00000000000E+00 0.  1.
          2   -1    0    0  501    0  0.00000000000E+00 -0.00000000000E+00 -0.13275948541E+03  0.13275948541E+03  0.00000000000E+00 0. -1.
         25    2    1    2    0    0  0.10930861403E+03  0.24362254232E+02  0.73015312654E+02  0.18302174388E+03  0.12499532119E+03 0.  0.
         23    2    1    2    0    0 -0.10930861403E+03 -0.24362254232E+02 -0.10076920061E+02  0.14543561953E+03  0.92239268097E+02 0.  0.
          5    1    4    4  502    0 -0.38396356899E+02 -0.10276398962E+01 -0.47931005382E+02  0.61602009252E+02  0.47000000000E+01 0. -1.
         -5    1    4    4    0  502 -0.70912257129E+02 -0.23334614336E+02  0.37854085321E+02  0.83833610282E+02  0.47000000000E+01 0.  1.
          5    1    3    3  503    0  0.49554179544E+02  0.67086265210E+02  0.64582642404E+01  0.83785338020E+02  0.47000000000E+01 0. -1.
         -5    1    3    3    0  503  0.59754434485E+02 -0.42724010978E+02  0.66557048414E+02  0.99236405861E+02  0.47000000000E+01 0. -1.
<mgrwt>
<rscale>  0 0.16182730E+03</rscale>
<asrwt>0</asrwt>
<pdfrwt beam="1">  1        2 0.20424536E-01 0.16782647E+03</pdfrwt>
<pdfrwt beam="2">  1       -2 0.30107366E-01 0.16782647E+03</pdfrwt>
<totfact> 0.26869788E+03</totfact>
</mgrwt>
</event>
<event>
 8    1  0.3520338E-004  0.1634795E+03  0.7546771E-02  0.1190874E+00
          2   -1    0    0  501    0  0.00000000000E+00  0.00000000000E+00  0.10648210357E+04  0.10648210357E+04  0.00000000000E+00 0. -1.
         -2   -1    0    0    0  501 -0.00000000000E+00 -0.00000000000E+00 -0.23332016177E+02  0.23332016177E+02  0.00000000000E+00 0.  1.
         25    2    1    2    0    0 -0.10495604779E+03 -0.92083992068E+01  0.68116787802E+03  0.70051069861E+03  0.12499997695E+03 0.  0.
         23    2    1    2    0    0  0.10495604779E+03  0.92083992068E+01  0.36032114151E+03  0.38764235327E+03  0.96616263893E+02 0.  0.
          5    1    4    4  502    0  0.40502211671E+02 -0.41619472364E+02  0.18585692175E+03  0.19477549896E+03  0.47000000000E+01 0. -1.
         -5    1    3    3    0  503 -0.74757205566E+02  0.47069325347E+02  0.51279466032E+03  0.52036969054E+03  0.47000000000E+01 0. -1.
          5    1    3    3  503    0 -0.30198842221E+02 -0.56277724554E+02  0.16837321770E+03  0.18014100808E+03  0.47000000000E+01 0. -1.
         -5    1    4    4    0  502  0.64453836116E+02  0.50827871571E+02  0.17446421975E+03  0.19286685431E+03  0.47000000000E+01 0.  1.
<mgrwt>
<rscale>  0 0.15808662E+03</rscale>
<asrwt>0</asrwt>
<pdfrwt beam="1">  1        2 0.16381858E+00 0.16347954E+03</pdfrwt>
<pdfrwt beam="2">  1       -2 0.35895418E-02 0.16347954E+03</pdfrwt>
<totfact> 0.75934816E+03</totfact>
</mgrwt>
</event>
<event>
 8    1  0.3520338E-004  0.1376679E+03  0.7546771E-02  0.1225739E+00
         -2   -1    0    0    0  501 -0.00000000000E+00  0.00000000000E+00  0.13668162425E+02  0.13668162425E+02  0.00000000000E+00 0.  1.
          2   -1    0    0  501    0  0.00000000000E+00 -0.00000000000E+00 -0.12205893031E+04  0.12205893031E+04  0.00000000000E+00 0. -1.
         25    2    1    2    0    0  0.45653667367E+02 -0.35253654873E+02 -0.80274911157E+03  0.81446828341E+03  0.12500148413E+03 0.  0.
         23    2    1    2    0    0 -0.45653667367E+02  0.35253654873E+02 -0.40417202912E+03  0.41978918213E+03  0.97677278734E+02 0.  0.
          5    1    4    4  502    0 -0.59516610360E+02  0.54609689194E+02 -0.36376554126E+03  0.37265520803E+03  0.47000000000E+01 0. -1.
         -5    1    3    3    0  503 -0.90490513262E+01 -0.70956210593E+02 -0.38503368203E+03  0.39164996547E+03  0.47000000000E+01 0.  1.
          5    1    3    3  503    0  0.54702718693E+02  0.35702555720E+02 -0.41771542954E+03  0.42281831795E+03  0.47000000000E+01 0.  1.
         -5    1    4    4    0  502  0.13862942994E+02 -0.19356034320E+02 -0.40406487865E+02  0.47133974102E+02  0.47000000000E+01 0.  1.
<mgrwt>
<rscale>  0 0.13116352E+03</rscale>
<asrwt>0</asrwt>
<pdfrwt beam="1">  1        2 0.18778305E+00 0.13766789E+03</pdfrwt>
<pdfrwt beam="2">  1       -2 0.21027933E-02 0.13766789E+03</pdfrwt>
<totfact> 0.13481876E+04</totfact>
</mgrwt>
</event>
<event>
 8    1  0.3520338E-004  0.1292882E+03  0.7546771E-02  0.1242870E+00
         -2   -1    0    0    0  501 -0.00000000000E+00  0.00000000000E+00  0.21961044251E+02  0.21961044251E+02  0.00000000000E+00 0.  1.
          2   -1    0    0  501    0  0.00000000000E+00 -0.00000000000E+00 -0.64425823453E+03  0.64425823453E+03  0.00000000000E+00 0. -1.
         25    2    1    2    0    0  0.30700062484E+02  0.12236226859E+02 -0.24760577690E+03  0.27932786413E+03  0.12499286315E+03 0.  0.
         23    2    1    2    0    0 -0.30700062484E+02 -0.12236226859E+02 -0.37469141337E+03  0.38689141465E+03  0.90548839796E+02 0.  0.
          5    1    4    4  502    0 -0.46736046832E+02 -0.40483288933E+02 -0.21010922006E+03  0.21906877713E+03  0.47000000000E+01 0.  1.
         -5    1    4    4    0  502  0.16035984348E+02  0.28247062074E+02 -0.16458219331E+03  0.16782263752E+03  0.47000000000E+01 0. -1.
          5    1    3    3  503    0  0.12649183873E+02  0.67414386545E+02 -0.15977353125E+03  0.17393784135E+03  0.47000000000E+01 0. -1.
         -5    1    3    3    0  503  0.18050878611E+02 -0.55178159686E+02 -0.87832245656E+02  0.10539002278E+03  0.47000000000E+01 0. -1.
<mgrwt>
<rscale>  0 0.12013755E+03</rscale>
<asrwt>0</asrwt>
<pdfrwt beam="1">  1        2 0.99116643E-01 0.12928819E+03</pdfrwt>
<pdfrwt beam="2">  1       -2 0.33786225E-02 0.12928819E+03</pdfrwt>
<totfact> 0.15538668E+04</totfact>
</mgrwt>
</event>
<event>
 8    1  0.3520338E-004  0.1406001E+03  0.7546771E-02  0.1223559E+00
          1   -1    0    0  501    0  0.00000000000E+00  0.00000000000E+00  0.15650171941E+04  0.15650171941E+04  0.00000000000E+00 0. -1.
         -1   -1    0    0    0  501 -0.00000000000E+00 -0.00000000000E+00 -0.11049021024E+02  0.11049021024E+02  0.00000000000E+00 0.  1.
         25    2    1    2    0    0 -0.41177161207E+02 -0.49481355364E+02  0.10833136720E+04  0.10923996068E+04  0.12499770350E+03 0.  0.
         23    2    1    2    0    0  0.41177161207E+02  0.49481355364E+02  0.47065450108E+03  0.48366660832E+03  0.90960241212E+02 0.  0.
          5    1    3    3  502    0  0.12295768192E+02  0.36278356838E+02  0.24881667523E+03  0.25179184451E+03  0.47000000000E+01 0.  1.
         -5    1    3    3    0  502 -0.53472929400E+02 -0.85759712202E+02  0.83449699677E+03  0.84060776230E+03  0.47000000000E+01 0.  1.
          5    1    4    4  503    0 -0.14449678442E+02  0.22333811904E+02  0.38236893704E+02  0.46816048545E+02  0.47000000000E+01 0. -1.
         -5    1    4    4    0  503  0.55626839649E+02  0.27147543460E+02  0.43241760738E+03  0.43685055977E+03  0.47000000000E+01 0.  1.
<mgrwt>
<rscale>  0 0.13266138E+03</rscale>
<asrwt>0</asrwt>
<pdfrwt beam="1">  1        1 0.24077170E+00 0.14060010E+03</pdfrwt>
<pdfrwt beam="2">  1       -1 0.16998506E-02 0.14060010E+03</pdfrwt>
<totfact> 0.55453574E+03</totfact>
</mgrwt>
</event>
<event>
 8    1  0.3520338E-004  0.1288318E+03  0.7546771E-02  0.1244221E+00
          2   -1    0    0  501    0  0.00000000000E+00  0.00000000000E+00  0.31969184975E+02  0.31969184975E+02  0.00000000000E+00 0. -1.
         -2   -1    0    0    0  501 -0.00000000000E+00 -0.00000000000E+00 -0.42342413187E+03  0.42342413187E+03  0.00000000000E+00 0.  1.
         25    2    1    2    0    0 -0.19033067952E+01  0.31122947862E+02 -0.16098948231E+03  0.20619226093E+03  0.12500149836E+03 0.  0.
         23    2    1    2    0    0  0.19033067952E+01 -0.31122947862E+02 -0.23046546459E+03  0.24920105592E+03  0.89524161236E+02 0.  0.
          5    1    3    3  502    0  0.44478312442E+02  0.44269373616E+02 -0.13982353600E+03  0.15333234799E+03  0.47000000000E+01 0. -1.
         -5    1    4    4    0  503  0.13371449943E+02  0.23276666916E+02 -0.14214375288E+03  0.14473263412E+03  0.47000000000E+01 0.  1.
          5    1    4    4  503    0 -0.11468143148E+02 -0.54399614778E+02 -0.88321711710E+02  0.10446842181E+03  0.47000000000E+01 0. -1.
         -5    1    3    3    0  502 -0.46381619237E+02 -0.13146425754E+02 -0.21165946308E+02  0.52859912942E+02  0.47000000000E+01 0. -1.
<mgrwt>
<rscale>  0 0.11932136E+03</rscale>
<asrwt>0</asrwt>
<pdfrwt beam="1">  1        2 0.49183360E-02 0.12883181E+03</pdfrwt>
<pdfrwt beam="2">  1       -2 0.65142176E-01 0.12883181E+03</pdfrwt>
<totfact> 0.33965569E+03</totfact>
</mgrwt>
</event>
<event>
 8    1  0.3520338E-004  0.1593888E+03  0.7546771E-02  0.1197212E+00
          3   -1    0    0  501    0  0.00000000000E+00  0.00000000000E+00  0.43225125755E+03  0.43225125755E+03  0.00000000000E+00 0. -1.
         -3   -1    0    0    0  501 -0.00000000000E+00 -0.00000000000E+00 -0.51425844050E+02  0.51425844050E+02  0.00000000000E+00 0.  1.
         25    2    1    2    0    0 -0.88682675606E+02 -0.43754800357E+02  0.24831260982E+03  0.29506599422E+03  0.12500275693E+03 0.  0.
         23    2    1    2    0    0  0.88682675606E+02  0.43754800357E+02  0.13251280368E+03  0.18861110738E+03  0.90749144249E+02 0.  0.
          5    1    4    4  502    0  0.60399866535E+02 -0.13858226803E+02  0.96744789514E+02  0.11498625407E+03  0.47000000000E+01 0. -1.
         -5    1    4    4    0  502  0.28282809071E+02  0.57613027160E+02  0.35768014165E+02  0.73624853310E+02  0.47000000000E+01 0.  1.
          5    1    3    3  503    0 -0.11262949787E+03 -0.56413854054E+02  0.16701807345E+03  0.20924878394E+03  0.47000000000E+01 0. -1.
         -5    1    3    3    0  503  0.23946822264E+02  0.12659053697E+02  0.81294536369E+02  0.85817210281E+02  0.47000000000E+01 0. -1.
<mgrwt>
<rscale>  0 0.15268492E+03</rscale>
<asrwt>0</asrwt>
<pdfrwt beam="1">  1        3 0.66500191E-01 0.15938880E+03</pdfrwt>
<pdfrwt beam="2">  1       -3 0.79116686E-02 0.15938880E+03</pdfrwt>
<totfact> 0.57204474E+02</totfact>
</mgrwt>
</event>
<event>
 8    1  0.3520338E-004  0.1270185E+03  0.7546771E-02  0.1246592E+00
         -1   -1    0    0    0  501 -0.00000000000E+00  0.00000000000E+00  0.12984309753E+03  0.12984309753E+03  0.00000000000E+00 0.  1.
          1   -1    0    0  501    0  0.00000000000E+00 -0.00000000000E+00 -0.11522785506E+03  0.11522785506E+03  0.00000000000E+00 0. -1.
         25    2    1    2    0    0 -0.21644564619E+02  0.62912785334E+01  0.59925073667E+02  0.14044471943E+03  0.12500254957E+03 0.  0.
         23    2    1    2    0    0  0.21644564619E+02 -0.62912785334E+01 -0.45309831203E+02  0.10462623316E+03  0.91572924481E+02 0.  0.
          5    1    3    3  502    0  0.89930653743E+00 -0.36583859771E+02  0.79767457732E+02  0.87887000524E+02  0.47000000000E+01 0. -1.
         -5    1    4    4    0  503  0.51064273789E+02  0.70343670608E+01 -0.39086072203E+01  0.51907702588E+02  0.47000000000E+01 0.  1.
          5    1    4    4  503    0 -0.29419709170E+02 -0.13325645594E+02 -0.41401223983E+02  0.52718530570E+02  0.47000000000E+01 0. -1.
         -5    1    3    3    0  502 -0.22543871157E+02  0.42875138304E+02 -0.19842384065E+02  0.52557718907E+02  0.47000000000E+01 0. -1.
<mgrwt>
<rscale>  0 0.11790586E+03</rscale>
<asrwt>0</asrwt>
<pdfrwt beam="1">  1        1 0.17727362E-01 0.12701852E+03</pdfrwt>
<pdfrwt beam="2">  1       -1 0.19975861E-01 0.12701852E+03</pdfrwt>
<totfact> 0.57226868E+03</totfact>
</mgrwt>
</event>
<event>
 8    1  0.3520338E-004  0.1494377E+03  0.7546771E-02  0.1210807E+00
         -1   -1    0    0    0  501 -0.00000000000E+00  0.00000000000E+00  0.22608102314E+03  0.22608102314E+03  0.00000000000E+00 0.  1.
          1   -1    0    0  501    0  0.00000000000E+00 -0.00000000000E+00 -0.92546165205E+02  0.92546165205E+02  0.00000000000E+00 0. -1.
         25    2    1    2    0    0 -0.79614635585E+02  0.19173725888E+02  0.12845607245E+03  0.19705986494E+03  0.12500202341E+03 0.  0.
         23    2    1    2    0    0  0.79614635585E+02 -0.19173725888E+02  0.50787854875E+01  0.12156732341E+03  0.89703389542E+02 0.  0.
          5    1    3    3  502    0  0.31814850192E+02  0.13579602462E+02  0.48326609427E+02  0.59616620790E+02  0.47000000000E+01 0. -1.
         -5    1    4    4    0  503  0.83870197223E+02  0.13642612671E+02  0.15614198818E+02  0.86522968439E+02  0.47000000000E+01 0.  1.
          5    1    4    4  503    0 -0.42555616386E+01 -0.32816338559E+02 -0.10535413331E+02  0.35044354971E+02  0.47000000000E+01 0. -1.
         -5    1    3    3    0  502 -0.11142948578E+03  0.55941234259E+01  0.80129463023E+02  0.13744324415E+03  0.47000000000E+01 0. -1.
<mgrwt>
<rscale>  0 0.14189089E+03</rscale>
<asrwt>0</asrwt>
<pdfrwt beam="1">  1        1 0.14237872E-01 0.14943771E+03</pdfrwt>
<pdfrwt beam="2">  1       -1 0.34781696E-01 0.14943771E+03</pdfrwt>
<totfact> 0.30603762E+03</totfact>
</mgrwt>
</event>
<event>
 8    1  0.3520338E-004  0.1265796E+03  0.7546771E-02  0.1248963E+00
         -4   -1    0    0    0  501 -0.00000000000E+00  0.00000000000E+00  0.68668170919E+02  0.68668170919E+02  0.00000000000E+00 0.  1.
          4   -1    0    0  501    0  0.00000000000E+00 -0.00000000000E+00 -0.17959913010E+03  0.17959913010E+03  0.00000000000E+00 0. -1.
         25    2    1    2    0    0 -0.56077770753E+00  0.19968819977E+02 -0.89162141805E+02  0.15482981574E+03  0.12499326409E+03 0.  0.
         23    2    1    2    0    0  0.56077770753E+00 -0.19968819977E+02 -0.21768817379E+02  0.93437485278E+02  0.88643183619E+02 0.  0.
          5    1    3    3  502    0 -0.58443372565E+02 -0.63358309461E+01 -0.61891532013E+02  0.85489310943E+02  0.47000000000E+01 0. -1.
         -5    1    4    4    0  503  0.35179952840E+02 -0.31976571693E+02  0.46823585658E+01  0.48001507277E+02  0.47000000000E+01 0.  1.
          5    1    4    4  503    0 -0.34619175132E+02  0.12007751716E+02 -0.26451175945E+02  0.45435978002E+02  0.47000000000E+01 0. -1.
         -5    1    3    3    0  502  0.57882594857E+02  0.26304650924E+02 -0.27270609792E+02  0.69340504801E+02  0.47000000000E+01 0. -1.
<mgrwt>
<rscale>  0 0.11651273E+03</rscale>
<asrwt>0</asrwt>
<pdfrwt beam="1">  1        4 0.27630635E-01 0.12657956E+03</pdfrwt>
<pdfrwt beam="2">  1       -4 0.10564334E-01 0.12657956E+03</pdfrwt>
<totfact> 0.13929124E+03</totfact>
</mgrwt>
</event>
<event>
 8    1  0.3520338E-004  0.1682107E+03  0.7546771E-02  0.1188407E+00
          2   -1    0    0  501    0  0.00000000000E+00  0.00000000000E+00  0.38056723858E+02  0.38056723858E+02  0.00000000000E+00 0. -1.
         -2   -1    0    0    0  501 -0.00000000000E+00 -0.00000000000E+00 -0.77540304875E+03  0.77540304875E+03  0.00000000000E+00 0.  1.
         25    2    1    2    0    0 -0.11090540313E+03 -0.19221628552E+02 -0.57946458691E+03  0.60338547693E+03  0.12500138738E+03 0.  0.
         23    2    1    2    0    0  0.11090540313E+03  0.19221628552E+02 -0.15788173798E+03  0.21007429567E+03  0.80839885361E+02 0.  0.
          5    1    3    3  502    0 -0.20813094564E+02 -0.47767191684E+02 -0.36820286306E+03  0.37190096514E+03  0.47000000000E+01 0.  1.
         -5    1    4    4    0  503  0.78204075483E+02  0.47025689804E+02 -0.12916048636E+03  0.15821445623E+03  0.47000000000E+01 0.  1.
          5    1    4    4  503    0  0.32701327651E+02 -0.27804061252E+02 -0.28721251629E+02  0.51859839446E+02  0.47000000000E+01 0. -1.
         -5    1    3    3    0  502 -0.90092308570E+02  0.28545563131E+02 -0.21126172385E+03  0.23148451180E+03  0.47000000000E+01 0.  1.
<mgrwt>
<rscale>  0 0.16025652E+03</rscale>
<asrwt>0</asrwt>
<pdfrwt beam="1">  1        2 0.58548809E-02 0.16821066E+03</pdfrwt>
<pdfrwt beam="2">  1       -2 0.11929277E+00 0.16821066E+03</pdfrwt>
<totfact> 0.70753266E+02</totfact>
</mgrwt>
</event>
<event>
 8    1  0.3520338E-004  0.1612949E+03  0.7546771E-02  0.1194658E+00
          2   -1    0    0  501    0  0.00000000000E+00  0.00000000000E+00  0.31414166228E+02  0.31414166228E+02  0.00000000000E+00 0. -1.
         -2   -1    0    0    0  501 -0.00000000000E+00 -0.00000000000E+00 -0.74797428890E+03  0.74797428890E+03  0.00000000000E+00 0.  1.
         25    2    1    2    0    0  0.76079666539E+02 -0.67887039533E+02 -0.29604984057E+03  0.33713731132E+03  0.12497716905E+03 0.  0.
         23    2    1    2    0    0 -0.76079666539E+02  0.67887039533E+02 -0.42051028211E+03  0.44225114381E+03  0.91435283395E+02 0.  0.
          5    1    3    3  502    0 -0.17124912731E+02 -0.61830953525E+02 -0.15589134200E+03  0.16864320312E+03  0.47000000000E+01 0.  1.
         -5    1    3    3    0  502  0.93204579270E+02 -0.60560860083E+01 -0.14015849857E+03  0.16849410819E+03  0.47000000000E+01 0.  1.
          5    1    4    4  503    0 -0.81917483572E+02  0.18572767228E+02 -0.30588531438E+03  0.31724334091E+03  0.47000000000E+01 0. -1.
         -5    1    4    4    0  503  0.58378170339E+01  0.49314272306E+02 -0.11462496772E+03  0.12500780290E+03  0.47000000000E+01 0.  1.
<mgrwt>
<rscale>  0 0.15483228E+03</rscale>
<asrwt>0</asrwt>
<pdfrwt beam="1">  1        2 0.48329482E-02 0.16129494E+03</pdfrwt>
<pdfrwt beam="2">  1       -2 0.11507298E+00 0.16129494E+03</pdfrwt>
<totfact> 0.98922896E+02</totfact>
</mgrwt>
</event>
<event>
 8    1  0.3520338E-004  0.1458389E+03  0.7546771E-02  0.1215313E+00
         -1   -1    0    0    0  501 -0.00000000000E+00  0.00000000000E+00  0.22319960208E+02  0.22319960208E+02  0.00000000000E+00 0.  1.
          1   -1    0    0  501    0  0.00000000000E+00 -0.00000000000E+00 -0.82558897348E+03  0.82558897348E+03  0.00000000000E+00 0. -1.
         25    2    1    2    0    0  0.74813976392E+02  0.69372114204E+01 -0.34614577445E+03  0.37561401856E+03  0.12499495110E+03 0.  0.
         23    2    1    2    0    0 -0.74813976392E+02 -0.69372114204E+01 -0.45712323882E+03  0.47229491513E+03  0.91954202846E+02 0.  0.
          5    1    3    3  502    0  0.10197246293E+02 -0.39267848929E+02 -0.32976276261E+02  0.52492595549E+02  0.47000000000E+01 0. -1.
         -5    1    3    3    0  502  0.64616730099E+02  0.46205060349E+02 -0.31316949819E+03  0.32312142301E+03  0.47000000000E+01 0. -1.
          5    1    4    4  503    0 -0.49934472112E+02 -0.17020866256E+00 -0.43532923769E+03  0.43820898629E+03  0.47000000000E+01 0. -1.
         -5    1    4    4    0  503 -0.24879504280E+02 -0.67670027579E+01 -0.21794001126E+02  0.34085928836E+02  0.47000000000E+01 0.  1.
<mgrwt>
<rscale>  0 0.13853538E+03</rscale>
<asrwt>0</asrwt>
<pdfrwt beam="1">  1        1 0.12701369E+00 0.14583893E+03</pdfrwt>
<pdfrwt beam="2">  1       -1 0.34338399E-02 0.14583893E+03</pdfrwt>
<totfact> 0.65779425E+03</totfact>
</mgrwt>
</event>
<event>
 8    1  0.3520338E-004  0.1364178E+03  0.7546771E-02  0.1230087E+00
          3   -1    0    0  501    0  0.00000000000E+00  0.00000000000E+00  0.65995516141E+02  0.65995516141E+02  0.00000000000E+00 0. -1.
         -3   -1    0    0    0  501 -0.00000000000E+00 -0.00000000000E+00 -0.23441584499E+03  0.23441584499E+03  0.00000000000E+00 0.  1.
         25    2    1    2    0    0  0.21002647927E+02 -0.50425915817E+02 -0.12610556188E+03  0.18577518796E+03  0.12500369401E+03 0.  0.
         23    2    1    2    0    0 -0.21002647927E+02  0.50425915817E+02 -0.42314766961E+02  0.11463617317E+03  0.91471462707E+02 0.  0.
          5    1    4    4  502    0  0.13032332064E+02  0.66955230667E+02 -0.25657455161E+02  0.73029032569E+02  0.47000000000E+01 0. -1.
         -5    1    3    3    0  503  0.38749452808E+01  0.24988239032E+02  0.11251901705E+02  0.28073521027E+02  0.47000000000E+01 0.  1.
          5    1    3    3  503    0  0.17127702647E+02 -0.75414154849E+02 -0.13735746359E+03  0.15770166693E+03  0.47000000000E+01 0.  1.
         -5    1    4    4    0  502 -0.34034979991E+02 -0.16529314850E+02 -0.16657311801E+02  0.41607140599E+02  0.47000000000E+01 0.  1.
<mgrwt>
<rscale>  0 0.12824252E+03</rscale>
<asrwt>0</asrwt>
<pdfrwt beam="1">  1        3 0.10153156E-01 0.13641777E+03</pdfrwt>
<pdfrwt beam="2">  1       -3 0.36063976E-01 0.13641777E+03</pdfrwt>
<totfact> 0.12564789E+03</totfact>
</mgrwt>
</event>
<event>
 8    1  0.3520338E-004  0.1262330E+03  0.7546771E-02  0.1247823E+00
          1   -1    0    0  501    0  0.00000000000E+00  0.00000000000E+00  0.37270583131E+02  0.37270583131E+02  0.00000000000E+00 0. -1.
         -1   -1    0    0    0  501 -0.00000000000E+00 -0.00000000000E+00 -0.32502545983E+03  0.32502545983E+03  0.00000000000E+00 0.  1.
         25    2    1    2    0    0 -0.34237871414E+01 -0.17264698472E+02 -0.15829891514E+03  0.20246807064E+03  0.12499992384E+03 0.  0.
         23    2    1    2    0    0  0.34237871414E+01  0.17264698472E+02 -0.12945596156E+03  0.15982797233E+03  0.92067055033E+02 0.  0.
          5    1    4    4  502    0 -0.27758971130E+02  0.41735454513E+02 -0.50238865961E+02  0.71122726991E+02  0.47000000000E+01 0. -1.
         -5    1    4    4    0  502  0.31182758271E+02 -0.24470756041E+02 -0.79217095601E+02  0.88705245336E+02  0.47000000000E+01 0.  1.
          5    1    3    3  503    0 -0.14449140820E+02 -0.61740744400E+02 -0.13836930961E+03  0.15227886600E+03  0.47000000000E+01 0.  1.
         -5    1    3    3    0  503  0.11025353678E+02  0.44476045927E+02 -0.19929605529E+02  0.50189204632E+02  0.47000000000E+01 0.  1.
<mgrwt>
<rscale>  0 0.11718026E+03</rscale>
<asrwt>0</asrwt>
<pdfrwt beam="1">  1        1 0.57339357E-02 0.12623301E+03</pdfrwt>
<pdfrwt beam="2">  1       -1 0.50003918E-01 0.12623301E+03</pdfrwt>
<totfact> 0.53568400E+03</totfact>
</mgrwt>
</event>
<event>
 8    1  0.3520338E-004  0.1505107E+03  0.7546771E-02  0.1209725E+00
          2   -1    0    0  501    0  0.00000000000E+00  0.00000000000E+00  0.87023573582E+02  0.87023573582E+02  0.00000000000E+00 0. -1.
         -2   -1    0    0    0  501 -0.00000000000E+00 -0.00000000000E+00 -0.31083296660E+03  0.31083296660E+03  0.00000000000E+00 0.  1.
         25    2    1    2    0    0  0.74715096142E+02 -0.38033260288E+02 -0.23130951584E+03  0.27596660724E+03  0.12499840684E+03 0.  0.
         23    2    1    2    0    0 -0.74715096142E+02  0.38033260288E+02  0.75001228169E+01  0.12188993295E+03  0.88159114289E+02 0.  0.
          5    1    3    3  502    0  0.10926632043E+03 -0.23414308434E+02 -0.18500976659E+03  0.21618987570E+03  0.47000000000E+01 0.  1.
         -5    1    3    3    0  502 -0.34551224290E+02 -0.14618951853E+02 -0.46299749248E+02  0.59776731540E+02  0.47000000000E+01 0.  1.
          5    1    4    4  503    0 -0.61197366348E+02  0.65394236526E+02  0.12688168707E+02  0.90579266081E+02  0.47000000000E+01 0. -1.
         -5    1    4    4    0  503 -0.13517729795E+02 -0.27360976238E+02 -0.51880458898E+01  0.31310666867E+02  0.47000000000E+01 0.  1.
<mgrwt>
<rscale>  0 0.14271236E+03</rscale>
<asrwt>0</asrwt>
<pdfrwt beam="1">  1        2 0.13388242E-01 0.15051072E+03</pdfrwt>
<pdfrwt beam="2">  1       -2 0.47820457E-01 0.15051072E+03</pdfrwt>
<totfact> 0.18290479E+03</totfact>
</mgrwt>
</event>
<event>
 8    1  0.3520338E-004  0.1432122E+03  0.7546771E-02  0.1218888E+00
         -2   -1    0    0    0  501 -0.00000000000E+00  0.00000000000E+00  0.19377661339E+02  0.19377661339E+02  0.00000000000E+00 0.  1.
          2   -1    0    0  501    0  0.00000000000E+00 -0.00000000000E+00 -0.11429099865E+04  0.11429099865E+04  0.00000000000E+00 0. -1.
         25    2    1    2    0    0 -0.30259810526E+02 -0.63004004259E+02 -0.32263482018E+03  0.35299142659E+03  0.12499823745E+03 0.  0.
         23    2    1    2    0    0  0.30259810526E+02  0.63004004259E+02 -0.80089750493E+03  0.80929622120E+03  0.92942990928E+02 0.  0.
          5    1    4    4  502    0  0.14221816717E+02  0.83424411645E+02 -0.69550548266E+03  0.70065102507E+03  0.47000000000E+01 0. -1.
         -5    1    3    3    0  503  0.36522803218E+02 -0.61569226714E+02 -0.12261999550E+03  0.14206490816E+03  0.47000000000E+01 0. -1.
          5    1    3    3  503    0 -0.66782613745E+02 -0.14347775445E+01 -0.20001482468E+03  0.21092651843E+03  0.47000000000E+01 0. -1.
         -5    1    4    4    0  502  0.16037993809E+02 -0.20420407386E+02 -0.10539202227E+03  0.10864519613E+03  0.47000000000E+01 0.  1.
<mgrwt>
<rscale>  0 0.13594752E+03</rscale>
<asrwt>0</asrwt>
<pdfrwt beam="1">  1        2 0.17583234E+00 0.14321215E+03</pdfrwt>
<pdfrwt beam="2">  1       -2 0.29811781E-02 0.14321215E+03</pdfrwt>
<totfact> 0.89586036E+03</totfact>
</mgrwt>
</event>
<event>
 8    1  0.3520338E-004  0.1265361E+03  0.7546771E-02  0.1247998E+00
         -1   -1    0    0    0  501 -0.00000000000E+00  0.00000000000E+00  0.91405610671E+02  0.91405610671E+02  0.00000000000E+00 0.  1.
          1   -1    0    0  501    0  0.00000000000E+00 -0.00000000000E+00 -0.15941846029E+03  0.15941846029E+03  0.00000000000E+00 0. -1.
         25    2    1    2    0    0  0.11719435491E+02 -0.15800132675E+02 -0.90294768817E+02  0.15544944062E+03  0.12499757579E+03 0.  0.
         23    2    1    2    0    0 -0.11719435491E+02  0.15800132675E+02  0.22281919198E+02  0.95374630340E+02  0.90624758364E+02 0.  0.
          5    1    3    3  502    0  0.33527086022E+02  0.21824212799E+02 -0.10242270742E+03  0.11005845155E+03  0.47000000000E+01 0. -1.
         -5    1    3    3    0  502 -0.21807650531E+02 -0.37624345474E+02  0.12127938607E+02  0.45390989071E+02  0.47000000000E+01 0. -1.
          5    1    4    4  503    0  0.39126849272E+02  0.88418693698E+01  0.16066521810E+02  0.43466218043E+02  0.47000000000E+01 0. -1.
         -5    1    4    4    0  503 -0.50846284763E+02  0.69582633051E+01  0.62153973873E+01  0.51908412296E+02  0.47000000000E+01 0.  1.
<mgrwt>
<rscale>  0 0.11707714E+03</rscale>
<asrwt>0</asrwt>
<pdfrwt beam="1">  1        1 0.24525917E-01 0.12653609E+03</pdfrwt>
<pdfrwt beam="2">  1       -1 0.14062402E-01 0.12653609E+03</pdfrwt>
<totfact> 0.66023687E+03</totfact>
</mgrwt>
</event>
<event>
 8    1  0.3520338E-004  0.1311357E+03  0.7546771E-02  0.1240913E+00
          2   -1    0    0  501    0  0.00000000000E+00  0.00000000000E+00  0.58062674905E+02  0.58062674905E+02  0.00000000000E+00 0. -1.
         -2   -1    0    0    0  501 -0.00000000000E+00 -0.00000000000E+00 -0.22235964766E+03  0.22235964766E+03  0.00000000000E+00 0.  1.
         25    2    1    2    0    0  0.39301553305E+02 -0.51955203261E+01 -0.95861265145E+02  0.16243750990E+03  0.12499982777E+03 0.  0.
         23    2    1    2    0    0 -0.39301553305E+02  0.51955203261E+01 -0.68435707614E+02  0.11798481267E+03  0.87552066913E+02 0.  0.
          5    1    3    3  502    0  0.25260482530E+02 -0.55357499933E+02 -0.91457866848E+02  0.10995078983E+03  0.47000000000E+01 0. -1.
         -5    1    4    4    0  503 -0.56627830351E+02 -0.23666246938E+02 -0.50096027640E+02  0.79363117377E+02  0.47000000000E+01 0.  1.
          5    1    4    4  503    0  0.17326277046E+02  0.28861767264E+02 -0.18339679974E+02  0.38621695295E+02  0.47000000000E+01 0. -1.
         -5    1    3    3    0  502  0.14041070775E+02  0.50161979607E+02 -0.44033982972E+01  0.52486720065E+02  0.47000000000E+01 0. -1.
<mgrwt>
<rscale>  0 0.12133380E+03</rscale>
<asrwt>0</asrwt>
<pdfrwt beam="1">  1        2 0.89327193E-02 0.13113566E+03</pdfrwt>
<pdfrwt beam="2">  1       -2 0.34209176E-01 0.13113566E+03</pdfrwt>
<totfact> 0.56045205E+03</totfact>
</mgrwt>
</event>
<event>
 8    1  0.3520338E-004  0.1627414E+03  0.7546771E-02  0.1192625E+00
          1   -1    0    0  501    0  0.00000000000E+00  0.00000000000E+00  0.28296050090E+02  0.28296050090E+02  0.00000000000E+00 0. -1.
         -1   -1    0    0    0  501 -0.00000000000E+00 -0.00000000000E+00 -0.85361855764E+03  0.85361855764E+03  0.00000000000E+00 0.  1.
         25    2    1    2    0    0  0.87925566057E+02  0.55946788931E+02 -0.54586847792E+03  0.56961142401E+03  0.12499532316E+03 0.  0.
         23    2    1    2    0    0 -0.87925566057E+02 -0.55946788931E+02 -0.27945402963E+03  0.31230318373E+03  0.92616281129E+02 0.  0.
          5    1    4    4  502    0 -0.33369584562E+02 -0.10440716781E+02 -0.20963857124E+03  0.21258635491E+03  0.47000000000E+01 0.  1.
         -5    1    4    4    0  502 -0.54555981495E+02 -0.45506072150E+02 -0.69815458389E+02  0.99716828817E+02  0.47000000000E+01 0. -1.
          5    1    3    3  503    0  0.19426527658E+02  0.61175044765E+02 -0.43028380436E+03  0.43507013041E+03  0.47000000000E+01 0. -1.
         -5    1    3    3    0  503  0.68499038399E+02 -0.52282558343E+01 -0.11558467356E+03  0.13454129360E+03  0.47000000000E+01 0. -1.
<mgrwt>
<rscale>  0 0.15656948E+03</rscale>
<asrwt>0</asrwt>
<pdfrwt beam="1">  1        1 0.43532385E-02 0.16274145E+03</pdfrwt>
<pdfrwt beam="2">  1       -1 0.13132593E+00 0.16274145E+03</pdfrwt>
<totfact> 0.10584779E+03</totfact>
</mgrwt>
</event>
<event>
 8    1  0.3520338E-004  0.1253767E+03  0.7546771E-02  0.1249816E+00
          2   -1    0    0  501    0  0.00000000000E+00  0.00000000000E+00  0.38318160057E+03  0.38318160057E+03  0.00000000000E+00 0. -1.
         -2   -1    0    0    0  501 -0.00000000000E+00 -0.00000000000E+00 -0.44282664917E+02  0.44282664917E+02  0.00000000000E+00 0.  1.
         25    2    1    2    0    0 -0.67111567804E+01 -0.70819021990E+01  0.70673472675E+02  0.14392379883E+03  0.12499650861E+03 0.  0.
         23    2    1    2    0    0  0.67111567804E+01  0.70819021990E+01  0.26822546298E+03  0.28354046666E+03  0.91406259522E+02 0.  0.
          5    1    3    3  502    0  0.30832401351E+02  0.39211897524E+02 -0.15959540258E+01  0.50128304876E+02  0.47000000000E+01 0.  1.
         -5    1    4    4    0  503  0.31669564054E+02 -0.23488459344E+02  0.62763523254E+02  0.74269905487E+02  0.47000000000E+01 0.  1.
          5    1    4    4  503    0 -0.24958407274E+02  0.30570361543E+02  0.20546193972E+03  0.20927056117E+03  0.47000000000E+01 0. -1.
         -5    1    3    3    0  502 -0.37543558131E+02 -0.46293799723E+02  0.72269426701E+02  0.93795493951E+02  0.47000000000E+01 0.  1.
<mgrwt>
<rscale>  0 0.11601701E+03</rscale>
<asrwt>0</asrwt>
<pdfrwt beam="1">  1        2 0.58951013E-01 0.12537671E+03</pdfrwt>
<pdfrwt beam="2">  1       -2 0.68127179E-02 0.12537671E+03</pdfrwt>
<totfact> 0.96031546E+03</totfact>
</mgrwt>
</event>
<event>
 8    1  0.3520338E-004  0.1260968E+03  0.7546771E-02  0.1248256E+00
         -3   -1    0    0    0  501 -0.00000000000E+00  0.00000000000E+00  0.72465958397E+03  0.72465958397E+03  0.00000000000E+00 0.  1.
          3   -1    0    0  501    0  0.00000000000E+00 -0.00000000000E+00 -0.23056258006E+02  0.23056258006E+02  0.00000000000E+00 0. -1.
         25    2    1    2    0    0 -0.74647238735E+01 -0.14824149190E+02  0.19233435242E+03  0.22998460181E+03  0.12499974579E+03 0.  0.
         23    2    1    2    0    0  0.74647238735E+01  0.14824149190E+02  0.50926897354E+03  0.51773124016E+03  0.91734792357E+02 0.  0.
          5    1    3    3  502    0 -0.37219892810E+02  0.45318417875E+02  0.89607759313E+02  0.10719477575E+03  0.47000000000E+01 0. -1.
         -5    1    3    3    0  502  0.29755168936E+02 -0.60142567065E+02  0.10272659311E+03  0.12278982606E+03  0.47000000000E+01 0. -1.
          5    1    4    4  503    0 -0.39546208404E+02  0.21567995567E+02  0.23063419485E+03  0.23503893904E+03  0.47000000000E+01 0. -1.
         -5    1    4    4    0  503  0.47010932278E+02 -0.67438463768E+01  0.27863477869E+03  0.28269230112E+03  0.47000000000E+01 0.  1.
<mgrwt>
<rscale>  0 0.11692579E+03</rscale>
<asrwt>0</asrwt>
<pdfrwt beam="1">  1        3 0.35471172E-02 0.12609684E+03</pdfrwt>
<pdfrwt beam="2">  1       -3 0.11148607E+00 0.12609684E+03</pdfrwt>
<totfact> 0.63215660E+02</totfact>
</mgrwt>
</event>
<event>
 8    1  0.3520338E-004  0.1376016E+03  0.7546771E-02  0.1228070E+00
          4   -1    0    0  501    0  0.00000000000E+00  0.00000000000E+00  0.25815135949E+03  0.25815135949E+03  0.00000000000E+00 0. -1.
         -4   -1    0    0    0  501 -0.00000000000E+00 -0.00000000000E+00 -0.13289584267E+03  0.13289584267E+03  0.00000000000E+00 0.  1.
         25    2    1    2    0    0  0.37270502220E+02 -0.43869375704E+02 -0.79881052009E+02  0.15910741744E+03  0.12498230016E+03 0.  0.
         23    2    1    2    0    0 -0.37270502220E+02  0.43869375704E+02  0.20513656883E+03  0.23193978472E+03  0.91659366152E+02 0.  0.
          5    1    4    4  502    0  0.26953090966E+02  0.59777502079E+01  0.93524684084E+02  0.97627655627E+02  0.47000000000E+01 0. -1.
         -5    1    3    3    0  503  0.81472748769E+02 -0.16771886770E+02 -0.34979930387E+02  0.90359230340E+02  0.47000000000E+01 0.  1.
          5    1    3    3  503    0 -0.44202246548E+02 -0.27097488934E+02 -0.44901121622E+02  0.68748187099E+02  0.47000000000E+01 0.  1.
         -5    1    4    4    0  502 -0.64223593187E+02  0.37891625496E+02  0.11161188475E+03  0.13431212909E+03  0.47000000000E+01 0.  1.
<mgrwt>
<rscale>  0 0.12958673E+03</rscale>
<asrwt>0</asrwt>
<pdfrwt beam="1">  1        4 0.39715594E-01 0.13760155E+03</pdfrwt>
<pdfrwt beam="2">  1       -4 0.20445514E-01 0.13760155E+03</pdfrwt>
<totfact> 0.22363784E+02</totfact>
</mgrwt>
</event>
<event>
 8    1  0.3520338E-004  0.1919263E+03  0.7546771E-02  0.1161425E+00
          1   -1    0    0  501    0  0.00000000000E+00  0.00000000000E+00  0.33234485975E+03  0.33234485975E+03  0.00000000000E+00 0. -1.
         -1   -1    0    0    0  501 -0.00000000000E+00 -0.00000000000E+00 -0.10234251771E+03  0.10234251771E+03  0.00000000000E+00 0.  1.
         25    2    1    2    0    0  0.11343672980E+03 -0.91335618295E+02  0.15629943219E+03  0.24751811378E+03  0.12500246922E+03 0.  0.
         23    2    1    2    0    0 -0.11343672980E+03  0.91335618295E+02  0.73702909839E+02  0.18716926368E+03  0.91597639224E+02 0.  0.
          5    1    4    4  502    0 -0.79971828124E+02  0.10750202214E+03  0.63485080668E+02  0.14833955482E+03  0.47000000000E+01 0. -1.
         -5    1    3    3    0  503 -0.25427407354E+02 -0.80859641804E+01  0.39184579796E+02  0.47638819835E+02  0.47000000000E+01 0. -1.
          5    1    3    3  503    0  0.13886413715E+03 -0.83249654115E+02  0.11711485240E+03  0.19987929395E+03  0.47000000000E+01 0. -1.
         -5    1    4    4    0  502 -0.33464901672E+02 -0.16166403841E+02  0.10217829171E+02  0.38829708858E+02  0.47000000000E+01 0.  1.
<mgrwt>
<rscale>  0 0.18675091E+03</rscale>
<asrwt>0</asrwt>
<pdfrwt beam="1">  1        1 0.51129978E-01 0.19192630E+03</pdfrwt>
<pdfrwt beam="2">  1       -1 0.15745003E-01 0.19192630E+03</pdfrwt>
<totfact> 0.22583206E+03</totfact>
</mgrwt>
</event>
<event>
 8    1  0.3520338E-004  0.1503240E+03  0.7546771E-02  0.1209364E+00
          1   -1    0    0  501    0  0.00000000000E+00  0.00000000000E+00  0.55794494463E+02  0.55794494463E+02  0.00000000000E+00 0. -1.
         -1   -1    0    0    0  501 -0.00000000000E+00 -0.00000000000E+00 -0.45601028460E+03  0.45601028460E+03  0.00000000000E+00 0.  1.
         25    2    1    2    0    0  0.64730347881E+02 -0.52754010050E+02 -0.34616857984E+03  0.37739899789E+03  0.12499725769E+03 0.  0.
         23    2    1    2    0    0 -0.64730347881E+02  0.52754010050E+02 -0.54047210298E+02  0.13440578117E+03  0.90392530428E+02 0.  0.
          5    1    4    4  502    0  0.14480816823E+02  0.39851324987E+02 -0.19426501226E+02  0.46875378494E+02  0.47000000000E+01 0. -1.
         -5    1    4    4    0  502 -0.79211164704E+02  0.12902685063E+02 -0.34620709073E+02  0.87530402674E+02  0.47000000000E+01 0.  1.
          5    1    3    3  503    0  0.86854774442E+02 -0.12797693317E+02 -0.29865171705E+03  0.31132373969E+03  0.47000000000E+01 0.  1.
         -5    1    3    3    0  503 -0.22124426561E+02 -0.39956316733E+02 -0.47516862790E+02  0.66075258205E+02  0.47000000000E+01 0.  1.
<mgrwt>
<rscale>  0 0.14298838E+03</rscale>
<asrwt>0</asrwt>
<pdfrwt beam="1">  1        1 0.85837687E-02 0.15032404E+03</pdfrwt>
<pdfrwt beam="2">  1       -1 0.70155426E-01 0.15032404E+03</pdfrwt>
<totfact> 0.16508905E+03</totfact>
</mgrwt>
</event>
<event>
 8    1  0.3520338E-004  0.1370550E+03  0.7546771E-02  0.1229309E+00
          2   -1    0    0  501    0  0.00000000000E+00  0.00000000000E+00  0.25759680026E+03  0.25759680026E+03  0.00000000000E+00 0. -1.
         -2   -1    0    0    0  501 -0.00000000000E+00 -0.00000000000E+00 -0.59016413350E+02  0.59016413350E+02  0.00000000000E+00 0.  1.
         25    2    1    2    0    0 -0.41782806250E+02  0.37598749227E+02  0.87834813729E+02  0.16278518210E+03  0.12499836865E+03 0.  0.
         23    2    1    2    0    0  0.41782806250E+02 -0.37598749227E+02  0.11074557318E+03  0.15382803151E+03  0.90769006046E+02 0.  0.
          5    1    3    3  502    0 -0.20021391330E+02 -0.17280427530E+02  0.98947206839E+02  0.10252857664E+03  0.47000000000E+01 0.  1.
         -5    1    3    3    0  502 -0.21761414920E+02  0.54879176756E+02 -0.11112393109E+02  0.60256605459E+02  0.47000000000E+01 0.  1.
          5    1    4    4  503    0 -0.43646382518E+01  0.25901180640E+02  0.39797863118E+02  0.47915353848E+02  0.47000000000E+01 0. -1.
         -5    1    4    4    0  503  0.46147444502E+02 -0.63499929866E+02  0.70947710064E+02  0.10591267767E+03  0.47000000000E+01 0.  1.
<mgrwt>
<rscale>  0 0.12875880E+03</rscale>
<asrwt>0</asrwt>
<pdfrwt beam="1">  1        2 0.39630276E-01 0.13705496E+03</pdfrwt>
<pdfrwt beam="2">  1       -2 0.90794484E-02 0.13705496E+03</pdfrwt>
<totfact> 0.94582429E+03</totfact>
</mgrwt>
</event>
<event>
 8    1  0.3520338E-004  0.1345129E+03  0.7546771E-02  0.1233800E+00
          4   -1    0    0  501    0  0.00000000000E+00  0.00000000000E+00  0.78178368952E+03  0.78178368952E+03  0.00000000000E+00 0. -1.
         -4   -1    0    0    0  501 -0.00000000000E+00 -0.00000000000E+00 -0.18526743402E+02  0.18526743402E+02  0.00000000000E+00 0.  1.
         25    2    1    2    0    0  0.48192187290E+02  0.12070243030E+02  0.49575773167E+03  0.51368224008E+03  0.12500215033E+03 0.  0.
         23    2    1    2    0    0 -0.48192187290E+02 -0.12070243030E+02  0.26749921445E+03  0.28662819284E+03  0.90176014082E+02 0.  0.
          5    1    4    4  502    0 -0.33767193508E+02  0.25816916230E+02  0.52132428253E+02  0.67428603698E+02  0.47000000000E+01 0. -1.
         -5    1    3    3    0  503  0.78067165145E+02 -0.24911963472E+02  0.37370697960E+03  0.38261479951E+03  0.47000000000E+01 0. -1.
          5    1    3    3  503    0 -0.29874977855E+02  0.36982206503E+02  0.12205075206E+03  0.13106744057E+03  0.47000000000E+01 0. -1.
         -5    1    4    4    0  502 -0.14424993782E+02 -0.37887159261E+02  0.21536678620E+03  0.21919958914E+03  0.47000000000E+01 0.  1.
<mgrwt>
<rscale>  0 0.12581592E+03</rscale>
<asrwt>0</asrwt>
<pdfrwt beam="1">  1        4 0.12027439E+00 0.13451288E+03</pdfrwt>
<pdfrwt beam="2">  1       -4 0.28502688E-02 0.13451288E+03</pdfrwt>
<totfact> 0.53579880E+02</totfact>
</mgrwt>
</event>
<event>
 8    1  0.3520338E-004  0.2432655E+03  0.7546771E-02  0.1120358E+00
         -2   -1    0    0    0  501 -0.00000000000E+00  0.00000000000E+00  0.27346690443E+03  0.27346690443E+03  0.00000000000E+00 0.  1.
          2   -1    0    0  501    0  0.00000000000E+00 -0.00000000000E+00 -0.22152746108E+03  0.22152746108E+03  0.00000000000E+00 0. -1.
         25    2    1    2    0    0 -0.19439148750E+03  0.75921909278E+02 -0.45960881945E+02  0.24756918633E+03  0.12500365047E+03 0.  0.
         23    2    1    2    0    0  0.19439148750E+03 -0.75921909278E+02  0.97900325298E+02  0.24742517918E+03  0.89903052676E+02 0.  0.
          5    1    4    4  502    0  0.57725726722E+02 -0.69570604189E+01  0.71063395595E+02  0.91938873219E+02  0.47000000000E+01 0. -1.
         -5    1    4    4    0  502  0.13666576078E+03 -0.68964848859E+02  0.26836929703E+02  0.15548630597E+03  0.47000000000E+01 0.  1.
          5    1    3    3  503    0 -0.13090457632E+03  0.25934128409E+01 -0.68557259336E+02  0.14786791978E+03  0.47000000000E+01 0.  1.
         -5    1    3    3    0  503 -0.63486911178E+02  0.73328496437E+02  0.22596377391E+02  0.99701266551E+02  0.47000000000E+01 0.  1.
<mgrwt>
<rscale>  0 0.23915427E+03</rscale>
<asrwt>0</asrwt>
<pdfrwt beam="1">  1        2 0.34081148E-01 0.24326549E+03</pdfrwt>
<pdfrwt beam="2">  1       -2 0.42071831E-01 0.24326549E+03</pdfrwt>
<totfact> 0.82330652E+02</totfact>
</mgrwt>
</event>
<event>
 8    1  0.3520338E-004  0.2027273E+03  0.7546771E-02  0.1151364E+00
          2   -1    0    0  501    0  0.00000000000E+00  0.00000000000E+00  0.18948388044E+04  0.18948388044E+04  0.00000000000E+00 0. -1.
         -2   -1    0    0    0  501 -0.00000000000E+00 -0.00000000000E+00 -0.23541693912E+02  0.23541693912E+02  0.00000000000E+00 0.  1.
         25    2    1    2    0    0 -0.23021235196E+02 -0.15792840837E+03  0.59070614957E+03  0.62452551966E+03  0.12500804027E+03 0.  0.
         23    2    1    2    0    0  0.23021235196E+02  0.15792840837E+03  0.12805909609E+04  0.12938549786E+04  0.93145784326E+02 0.  0.
          5    1    4    4  502    0 -0.30907379707E+02  0.59897855974E+02  0.63924780127E+03  0.64280857236E+03  0.47000000000E+01 0. -1.
         -5    1    3    3    0  503 -0.50205903080E+02 -0.55624913802E+02  0.39407038937E+03  0.40115872858E+03  0.47000000000E+01 0.  1.
          5    1    3    3  503    0  0.27184667883E+02 -0.10230349457E+03  0.19663576020E+03  0.22336679108E+03  0.47000000000E+01 0.  1.
         -5    1    4    4    0  502  0.53928614904E+02  0.98030552400E+02  0.64134315961E+03  0.65104640625E+03  0.47000000000E+01 0.  1.
<mgrwt>
<rscale>  0 0.19808614E+03</rscale>
<asrwt>0</asrwt>
<pdfrwt beam="1">  1        2 0.29151354E+00 0.20272733E+03</pdfrwt>
<pdfrwt beam="2">  1       -2 0.36218006E-02 0.20272733E+03</pdfrwt>
<totfact> 0.26979289E+03</totfact>
</mgrwt>
</event>
<event>
 8    1  0.3520338E-004  0.1275726E+03  0.7546771E-02  0.1245120E+00
         -2   -1    0    0    0  501 -0.00000000000E+00  0.00000000000E+00  0.25218305269E+02  0.25218305269E+02  0.00000000000E+00 0.  1.
          2   -1    0    0  501    0  0.00000000000E+00 -0.00000000000E+00 -0.50978848964E+03  0.50978848964E+03  0.00000000000E+00 0. -1.
         25    2    1    2    0    0  0.27974875159E+01 -0.25343296087E+02 -0.23052198443E+03  0.26346753412E+03  0.12499859055E+03 0.  0.
         23    2    1    2    0    0 -0.27974875159E+01  0.25343296087E+02 -0.25404819994E+03  0.27153926078E+03  0.92428208140E+02 0.  0.
          5    1    3    3  502    0 -0.10534527285E+02 -0.69155341818E+02 -0.18857603878E+03  0.20118759895E+03  0.47000000000E+01 0.  1.
         -5    1    4    4    0  503  0.29287024441E+02  0.27976540930E+02 -0.48185624143E+02  0.63121795103E+02  0.47000000000E+01 0.  1.
          5    1    4    4  503    0 -0.32084511956E+02 -0.26332448428E+01 -0.20586257580E+03  0.20841746568E+03  0.47000000000E+01 0. -1.
         -5    1    3    3    0  502  0.13332014801E+02  0.43812045730E+02 -0.41945945643E+02  0.62279935177E+02  0.47000000000E+01 0.  1.
<mgrwt>
<rscale>  0 0.11878198E+03</rscale>
<asrwt>0</asrwt>
<pdfrwt beam="1">  1        2 0.78428992E-01 0.12757255E+03</pdfrwt>
<pdfrwt beam="2">  1       -2 0.38797396E-02 0.12757255E+03</pdfrwt>
<totfact> 0.16464522E+04</totfact>
</mgrwt>
</event>
<event>
 8    1  0.3520338E-004  0.1349204E+03  0.7546771E-02  0.1233810E+00
         -1   -1    0    0    0  501 -0.00000000000E+00  0.00000000000E+00  0.42136507852E+02  0.42136507852E+02  0.00000000000E+00 0.  1.
          1   -1    0    0  501    0  0.00000000000E+00 -0.00000000000E+00 -0.33323777070E+03  0.33323777070E+03  0.00000000000E+00 0. -1.
         25    2    1    2    0    0  0.47806846748E+02 -0.17134636120E+02 -0.17021828769E+03  0.21720447110E+03  0.12499770578E+03 0.  0.
         23    2    1    2    0    0 -0.47806846748E+02  0.17134636120E+02 -0.12088297516E+03  0.15816980746E+03  0.88464139379E+02 0.  0.
          5    1    3    3  502    0  0.73939451246E+02  0.21437522511E+02 -0.14445976859E+03  0.16375996020E+03  0.47000000000E+01 0.  1.
         -5    1    3    3    0  502 -0.26132604498E+02 -0.38572158631E+02 -0.25758519097E+02  0.53444510901E+02  0.47000000000E+01 0.  1.
          5    1    4    4  503    0 -0.23367328209E+02  0.13318884220E+02 -0.12888906721E+03  0.13174940740E+03  0.47000000000E+01 0. -1.
         -5    1    4    4    0  503 -0.24439518539E+02  0.38157519002E+01  0.80060920515E+01  0.26420400052E+02  0.47000000000E+01 0.  1.
<mgrwt>
<rscale>  0 0.12580951E+03</rscale>
<asrwt>0</asrwt>
<pdfrwt beam="1">  1        1 0.51267349E-01 0.13492041E+03</pdfrwt>
<pdfrwt beam="2">  1       -1 0.64825397E-02 0.13492041E+03</pdfrwt>
<totfact> 0.86408519E+03</totfact>
</mgrwt>
</event>
<event>
 8    1  0.3520338E-004  0.1389539E+03  0.7546771E-02  0.1228319E+00
          1   -1    0    0  501    0  0.00000000000E+00  0.00000000000E+00  0.36640579737E+03  0.36640579737E+03  0.00000000000E+00 0. -1.
         -1   -1    0    0    0  501 -0.00000000000E+00 -0.00000000000E+00 -0.73378241094E+02  0.73378241094E+02  0.00000000000E+00 0.  1.
         25    2    1    2    0    0 -0.38912319672E+02  0.46574560713E+02  0.11458837302E+02  0.13942552728E+03  0.12499925750E+03 0.  0.
         23    2    1    2    0    0  0.38912319672E+02 -0.46574560713E+02  0.28156871898E+03  0.30035851119E+03  0.85152412830E+02 0.  0.
          5    1    4    4  502    0  0.28946055758E+02  0.19854853519E+02  0.12508583662E+03  0.13000248411E+03  0.47000000000E+01 0. -1.
         -5    1    4    4    0  502  0.99662639138E+01 -0.66429414232E+02  0.15648288235E+03  0.17035602708E+03  0.47000000000E+01 0.  1.
          5    1    3    3  503    0  0.31752858290E+02  0.73876170343E+01  0.41595227537E+02  0.53057269520E+02  0.47000000000E+01 0. -1.
         -5    1    3    3    0  503 -0.70665177962E+02  0.39186943679E+02 -0.30136390235E+02  0.86368257755E+02  0.47000000000E+01 0. -1.
<mgrwt>
<rscale>  0 0.12942011E+03</rscale>
<asrwt>0</asrwt>
<pdfrwt beam="1">  1        1 0.56370122E-01 0.13895385E+03</pdfrwt>
<pdfrwt beam="2">  1       -1 0.11288960E-01 0.13895385E+03</pdfrwt>
<totfact> 0.33188171E+03</totfact>
</mgrwt>
</event>
<event>
 8    1  0.3520338E-004  0.1266849E+03  0.7546771E-02  0.1247715E+00
         -1   -1    0    0    0  501 -0.00000000000E+00  0.00000000000E+00  0.38576324515E+03  0.38576324515E+03  0.00000000000E+00 0.  1.
          1   -1    0    0  501    0  0.00000000000E+00 -0.00000000000E+00 -0.34106558988E+02  0.34106558988E+02  0.00000000000E+00 0. -1.
         25    2    1    2    0    0 -0.20346579684E+02 -0.33777007445E+01  0.26060078516E+03  0.28976166389E+03  0.12499464174E+03 0.  0.
         23    2    1    2    0    0  0.20346579684E+02  0.33777007445E+01  0.91055901002E+02  0.13010814026E+03  0.90617652178E+02 0.  0.
          5    1    4    4  502    0  0.35588702843E+02  0.37232067423E+02  0.70420554289E+02  0.87372347347E+02  0.47000000000E+01 0. -1.
         -5    1    3    3    0  503  0.39207916987E+01  0.58220053761E+02  0.98259051907E+02  0.11437604010E+03  0.47000000000E+01 0. -1.
          5    1    3    3  503    0 -0.24267371383E+02 -0.61597754505E+02  0.16234173326E+03  0.17538562379E+03  0.47000000000E+01 0. -1.
         -5    1    4    4    0  502 -0.15242123158E+02 -0.33854366678E+02  0.20635346713E+02  0.42735792908E+02  0.47000000000E+01 0.  1.
<mgrwt>
<rscale>  0 0.11724345E+03</rscale>
<asrwt>0</asrwt>
<pdfrwt beam="1">  1        1 0.52471632E-02 0.12668486E+03</pdfrwt>
<pdfrwt beam="2">  1       -1 0.59348188E-01 0.12668486E+03</pdfrwt>
<totfact> 0.43990927E+03</totfact>
</mgrwt>
</event>
<event>
 8    1  0.3520338E-004  0.2749399E+03  0.7546771E-02  0.1100354E+00
          2   -1    0    0  501    0  0.00000000000E+00  0.00000000000E+00  0.13270466342E+04  0.13270466342E+04  0.00000000000E+00 0. -1.
         -2   -1    0    0    0  501 -0.00000000000E+00 -0.00000000000E+00 -0.54391675017E+02  0.54391675017E+02  0.00000000000E+00 0.  1.
         25    2    1    2    0    0 -0.12579280470E+02 -0.24455607951E+03  0.68083185512E+03  0.73425061581E+03  0.12500415011E+03 0.  0.
         23    2    1    2    0    0  0.12579280470E+02  0.24455607951E+03  0.59182310407E+03  0.64718769342E+03  0.92905380260E+02 0.  0.
          5    1    4    4  502    0  0.18793647682E+02  0.36136116983E+02  0.19096853729E+03  0.19532048632E+03  0.47000000000E+01 0. -1.
         -5    1    4    4    0  502 -0.62143672118E+01  0.20841996252E+03  0.40085456678E+03  0.45186720710E+03  0.47000000000E+01 0.  1.
          5    1    3    3  503    0 -0.17223352907E+02 -0.17840597820E+02  0.21135059205E+03  0.21285228112E+03  0.47000000000E+01 0. -1.
         -5    1    3    3    0  503  0.46440724376E+01 -0.22671548169E+03  0.46948126307E+03  0.52139833469E+03  0.47000000000E+01 0. -1.
<mgrwt>
<rscale>  0 0.27162312E+03</rscale>
<asrwt>0</asrwt>
<pdfrwt beam="1">  1        2 0.20416100E+00 0.27493991E+03</pdfrwt>
<pdfrwt beam="2">  1       -2 0.83679510E-02 0.27493991E+03</pdfrwt>
<totfact> 0.14938301E+03</totfact>
</mgrwt>
</event>
<event>
 8    1  0.3520338E-004  0.1267686E+03  0.7546771E-02  0.1248257E+00
         -1   -1    0    0    0  501 -0.00000000000E+00  0.00000000000E+00  0.15599516317E+02  0.15599516317E+02  0.00000000000E+00 0.  1.
          1   -1    0    0  501    0  0.00000000000E+00 -0.00000000000E+00 -0.80077917124E+03  0.80077917124E+03  0.00000000000E+00 0. -1.
         25    2    1    2    0    0  0.20792535675E+02  0.40815840336E+01 -0.53764151910E+03  0.55238454186E+03  0.12498515976E+03 0.  0.
         23    2    1    2    0    0 -0.20792535675E+02 -0.40815840336E+01 -0.24753813583E+03  0.26399414570E+03  0.89268087277E+02 0.  0.
          5    1    4    4  502    0 -0.21950994962E+02  0.39085188964E+02 -0.16065007762E+03  0.16685333564E+03  0.47000000000E+01 0. -1.
         -5    1    3    3    0  503 -0.10008275781E+02 -0.55951227548E+02 -0.29658044060E+03  0.30201449170E+03  0.47000000000E+01 0.  1.
          5    1    3    3  503    0  0.30800811455E+02  0.60032811581E+02 -0.24106107850E+03  0.25037005017E+03  0.47000000000E+01 0.  1.
         -5    1    4    4    0  502  0.11584592875E+01 -0.43166772998E+02 -0.86888058209E+02  0.97140810056E+02  0.47000000000E+01 0.  1.
<mgrwt>
<rscale>  0 0.11692530E+03</rscale>
<asrwt>0</asrwt>
<pdfrwt beam="1">  1        1 0.12319680E+00 0.12676860E+03</pdfrwt>
<pdfrwt beam="2">  1       -1 0.23999255E-02 0.12676860E+03</pdfrwt>
<totfact> 0.11507234E+04</totfact>
</mgrwt>
</event>
<event>
 8    1  0.3520338E-004  0.1888287E+03  0.7546771E-02  0.1163473E+00
         -2   -1    0    0    0  501 -0.00000000000E+00  0.00000000000E+00  0.34593201152E+02  0.34593201152E+02  0.00000000000E+00 0.  1.
          2   -1    0    0  501    0  0.00000000000E+00 -0.00000000000E+00 -0.15943390384E+04  0.15943390384E+04  0.00000000000E+00 0. -1.
         25    2    1    2    0    0  0.10853997453E+03 -0.90837611260E+02 -0.28049223129E+03  0.33813041751E+03  0.12499555887E+03 0.  0.
         23    2    1    2    0    0 -0.10853997453E+03  0.90837611260E+02 -0.12792536059E+04  0.12908018220E+04  0.98219945786E+02 0.  0.
          5    1    4    4  502    0 -0.85410599378E+02  0.10262000166E+03 -0.11967449499E+04  0.12041787244E+04  0.47000000000E+01 0. -1.
         -5    1    3    3    0  503  0.83274048166E+02 -0.76625210037E+01 -0.21008932323E+03  0.22617005784E+03  0.47000000000E+01 0. -1.
          5    1    3    3  503    0  0.25265926366E+02 -0.83175090256E+02 -0.70402908061E+02  0.11196035967E+03  0.47000000000E+01 0. -1.
         -5    1    4    4    0  502 -0.23129375154E+02 -0.11782390397E+02 -0.82508656056E+02  0.86623097628E+02  0.47000000000E+01 0.  1.
<mgrwt>
<rscale>  0 0.18454752E+03</rscale>
<asrwt>0</asrwt>
<pdfrwt beam="1">  1        2 0.24528295E+00 0.18882873E+03</pdfrwt>
<pdfrwt beam="2">  1       -2 0.53220305E-02 0.18882873E+03</pdfrwt>
<totfact> 0.21663939E+03</totfact>
</mgrwt>
</event>
<event>
 8    1  0.3520338E-004  0.3661621E+03  0.7546771E-02  0.1057122E+00
         -3   -1    0    0    0  501 -0.00000000000E+00  0.00000000000E+00  0.57925561108E+03  0.57925561108E+03  0.00000000000E+00 0.  1.
          3   -1    0    0  501    0  0.00000000000E+00 -0.00000000000E+00 -0.23926830618E+03  0.23926830618E+03  0.00000000000E+00 0. -1.
         25    2    1    2    0    0  0.29732642628E+03 -0.17333769297E+03  0.73536789236E+02  0.37347330204E+03  0.12500275355E+03 0.  0.
         23    2    1    2    0    0 -0.29732642628E+03  0.17333769297E+03  0.26645051566E+03  0.44505061522E+03  0.92872026186E+02 0.  0.
          5    1    3    3  502    0  0.12715608919E+03 -0.16309510988E+02 -0.64642462520E+01  0.12844667238E+03  0.47000000000E+01 0.  1.
         -5    1    3    3    0  502  0.17017033709E+03 -0.15702818198E+03  0.80001035488E+02  0.24502662966E+03  0.47000000000E+01 0.  1.
          5    1    4    4  503    0 -0.36796264995E+02  0.63793732469E+02  0.56954068500E+02  0.93217280258E+02  0.47000000000E+01 0. -1.
         -5    1    4    4    0  503 -0.26053016128E+03  0.10954396050E+03  0.20949644716E+03  0.35183333496E+03  0.47000000000E+01 0.  1.
<mgrwt>
<rscale>  0 0.36371579E+03</rscale>
<asrwt>0</asrwt>
<pdfrwt beam="1">  1        3 0.36810509E-01 0.36616205E+03</pdfrwt>
<pdfrwt beam="2">  1       -3 0.89116248E-01 0.36616205E+03</pdfrwt>
<totfact> 0.21525306E+01</totfact>
</mgrwt>
</event>
<event>
 8    1  0.3520338E-004  0.1470196E+03  0.7546771E-02  0.1213045E+00
         -2   -1    0    0    0  501 -0.00000000000E+00  0.00000000000E+00  0.12358390832E+03  0.12358390832E+03  0.00000000000E+00 0.  1.
          2   -1    0    0  501    0  0.00000000000E+00 -0.00000000000E+00 -0.19246040851E+03  0.19246040851E+03  0.00000000000E+00 0. -1.
         25    2    1    2    0    0 -0.18175926405E+02 -0.75231595036E+02  0.40477552026E+02  0.15249002480E+03  0.12499847300E+03 0.  0.
         23    2    1    2    0    0  0.18175926405E+02  0.75231595036E+02 -0.10935405222E+03  0.16355429202E+03  0.93816525790E+02 0.  0.
          5    1    3    3  502    0 -0.47814441415E+02 -0.40764060460E+02  0.72975415035E+02  0.96412813633E+02  0.47000000000E+01 0. -1.
         -5    1    4    4    0  503 -0.35008460642E+02  0.34233505332E+02 -0.70075032222E+02  0.85616151190E+02  0.47000000000E+01 0.  1.
          5    1    4    4  503    0  0.53184387047E+02  0.40998089704E+02 -0.39279019994E+02  0.77938140834E+02  0.47000000000E+01 0. -1.
         -5    1    3    3    0  502  0.29638515010E+02 -0.34467534576E+02 -0.32497863009E+02  0.56077211164E+02  0.47000000000E+01 0. -1.
<mgrwt>
<rscale>  0 0.14021155E+03</rscale>
<asrwt>0</asrwt>
<pdfrwt beam="1">  1        2 0.29609294E-01 0.14701964E+03</pdfrwt>
<pdfrwt beam="2">  1       -2 0.19012909E-01 0.14701964E+03</pdfrwt>
<totfact> 0.39370278E+03</totfact>
</mgrwt>
</event>
<event>
 8    1  0.3520338E-004  0.1296341E+03  0.7546771E-02  0.1241532E+00
         -2   -1    0    0    0  501 -0.00000000000E+00  0.00000000000E+00  0.50207456866E+02  0.50207456866E+02  0.00000000000E+00 0.  1.
          2   -1    0    0  501    0  0.00000000000E+00 -0.00000000000E+00 -0.30652173046E+03  0.30652173046E+03  0.00000000000E+00 0. -1.
         25    2    1    2    0    0 -0.29429564043E+02  0.17732030015E+02 -0.21302349348E+03  0.24936719695E+03  0.12499786403E+03 0.  0.
         23    2    1    2    0    0  0.29429564043E+02 -0.17732030015E+02 -0.43290780116E+02  0.10736199038E+03  0.92043365900E+02 0.  0.
          5    1    3    3  502    0  0.32976229393E+01 -0.40956978567E+02 -0.22063822623E+02  0.46874840577E+02  0.47000000000E+01 0. -1.
         -5    1    4    4    0  503  0.30126910133E+02  0.23068686422E+02  0.10529052312E+02  0.39657861138E+02  0.47000000000E+01 0.  1.
          5    1    4    4  503    0 -0.69734609016E+00 -0.40800716437E+02 -0.53819832429E+02  0.67704129239E+02  0.47000000000E+01 0. -1.
         -5    1    3    3    0  502 -0.32727186982E+02  0.58689008582E+02 -0.19095967085E+03  0.20249235637E+03  0.47000000000E+01 0. -1.
<mgrwt>
<rscale>  0 0.12095375E+03</rscale>
<asrwt>0</asrwt>
<pdfrwt beam="1">  1        2 0.47157191E-01 0.12963406E+03</pdfrwt>
<pdfrwt beam="2">  1       -2 0.77242239E-02 0.12963406E+03</pdfrwt>
<totfact> 0.10062484E+04</totfact>
</mgrwt>
</event>
<event>
 8    1  0.3520338E-004  0.1843791E+03  0.7546771E-02  0.1168546E+00
         -2   -1    0    0    0  501 -0.00000000000E+00  0.00000000000E+00  0.48098130773E+02  0.48098130773E+02  0.00000000000E+00 0.  1.
          2   -1    0    0  501    0  0.00000000000E+00 -0.00000000000E+00 -0.63447722483E+03  0.63447722483E+03  0.00000000000E+00 0. -1.
         25    2    1    2    0    0 -0.11424853862E+03  0.72916323602E+02 -0.32516771492E+03  0.37380435453E+03  0.12500453520E+03 0.  0.
         23    2    1    2    0    0  0.11424853862E+03 -0.72916323602E+02 -0.26121137914E+03  0.30877100107E+03  0.93480627316E+02 0.  0.
          5    1    4    4  502    0  0.60493561857E+02 -0.44492379162E+01 -0.17857271438E+03  0.18865198400E+03  0.47000000000E+01 0. -1.
         -5    1    3    3    0  503 -0.96792413304E+02  0.61480447881E+02 -0.11471034911E+03  0.16226266033E+03  0.47000000000E+01 0. -1.
          5    1    3    3  503    0 -0.17456125315E+02  0.11435875721E+02 -0.21045736580E+03  0.21154169420E+03  0.47000000000E+01 0. -1.
         -5    1    4    4    0  502  0.53754976762E+02 -0.68467085686E+02 -0.82638664760E+02  0.12011901707E+03  0.47000000000E+01 0.  1.
<mgrwt>
<rscale>  0 0.17923435E+03</rscale>
<asrwt>0</asrwt>
<pdfrwt beam="1">  1        2 0.97611878E-01 0.18437910E+03</pdfrwt>
<pdfrwt beam="2">  1       -2 0.73997127E-02 0.18437910E+03</pdfrwt>
<totfact> 0.49526724E+03</totfact>
</mgrwt>
</event>
<event>
 8    1  0.3520338E-004  0.1429217E+03  0.7546771E-02  0.1218855E+00
          2   -1    0    0  501    0  0.00000000000E+00  0.00000000000E+00  0.21928687336E+02  0.21928687336E+02  0.00000000000E+00 0. -1.
         -2   -1    0    0    0  501 -0.00000000000E+00 -0.00000000000E+00 -0.77623467320E+03  0.77623467320E+03  0.00000000000E+00 0.  1.
         25    2    1    2    0    0 -0.26032909144E+02 -0.64213066633E+02 -0.38085820513E+03  0.40679182945E+03  0.12500235923E+03 0.  0.
         23    2    1    2    0    0  0.26032909144E+02  0.64213066633E+02 -0.37344778074E+03  0.39137153108E+03  0.94379023727E+02 0.  0.
          5    1    3    3  502    0 -0.65133789017E+02 -0.35342371009E+02 -0.32132987002E+03  0.32979761828E+03  0.47000000000E+01 0.  1.
         -5    1    4    4    0  503  0.44877205601E+02  0.12331933725E+02 -0.27002414226E+03  0.27404592238E+03  0.47000000000E+01 0.  1.
          5    1    4    4  503    0 -0.18844296457E+02  0.51881132909E+02 -0.10342363848E+03  0.11732560870E+03  0.47000000000E+01 0. -1.
         -5    1    3    3    0  502  0.39100879873E+02 -0.28870695624E+02 -0.59528335110E+02  0.76994211169E+02  0.47000000000E+01 0.  1.
<mgrwt>
<rscale>  0 0.13597127E+03</rscale>
<asrwt>0</asrwt>
<pdfrwt beam="1">  1        2 0.33736438E-02 0.14292173E+03</pdfrwt>
<pdfrwt beam="2">  1       -2 0.11942073E+00 0.14292173E+03</pdfrwt>
<totfact> 0.14496607E+03</totfact>
</mgrwt>
</event>
<event>
 8    1  0.3520338E-004  0.1378269E+03  0.7546771E-02  0.1224929E+00
         -2   -1    0    0    0  501 -0.00000000000E+00  0.00000000000E+00  0.28975002547E+02  0.28975002547E+02  0.00000000000E+00 0.  1.
          2   -1    0    0  501    0  0.00000000000E+00 -0.00000000000E+00 -0.84625750880E+03  0.84625750880E+03  0.00000000000E+00 0. -1.
         25    2    1    2    0    0  0.47032999728E+02  0.34055200447E+02 -0.69034938646E+03  0.70397339628E+03  0.12499763014E+03 0.  0.
         23    2    1    2    0    0 -0.47032999728E+02 -0.34055200447E+02 -0.12693311979E+03  0.17125911507E+03  0.99226044228E+02 0.  0.
          5    1    3    3  502    0 -0.32979540014E+02  0.39593738468E+02 -0.17818885952E+03  0.18554965331E+03  0.47000000000E+01 0. -1.
         -5    1    3    3    0  502  0.80012539742E+02 -0.55385380208E+01 -0.51216052695E+03  0.51842374298E+03  0.47000000000E+01 0. -1.
          5    1    4    4  503    0  0.22994977130E+01 -0.57697660591E+02 -0.48717782590E+02  0.75695574956E+02  0.47000000000E+01 0. -1.
         -5    1    4    4    0  503 -0.49332497441E+02  0.23642460143E+02 -0.78215337201E+02  0.95563540112E+02  0.47000000000E+01 0.  1.
<mgrwt>
<rscale>  0 0.13171795E+03</rscale>
<asrwt>0</asrwt>
<pdfrwt beam="1">  1        2 0.13019348E+00 0.13782695E+03</pdfrwt>
<pdfrwt beam="2">  1       -2 0.44576922E-02 0.13782695E+03</pdfrwt>
<totfact> 0.74359082E+03</totfact>
</mgrwt>
</event>
<event>
 8    1  0.3520338E-004  0.1365694E+03  0.7546771E-02  0.1230226E+00
          1   -1    0    0  501    0  0.00000000000E+00  0.00000000000E+00  0.16394828666E+03  0.16394828666E+03  0.00000000000E+00 0. -1.
         -1   -1    0    0    0  501 -0.00000000000E+00 -0.00000000000E+00 -0.90062675760E+02  0.90062675760E+02  0.00000000000E+00 0.  1.
         25    2    1    2    0    0 -0.24687346371E+01 -0.54951961510E+02  0.50276332382E+02  0.14552978075E+03  0.12500157905E+03 0.  0.
         23    2    1    2    0    0  0.24687346371E+01  0.54951961510E+02  0.23609278514E+02  0.10848118166E+03  0.90470746756E+02 0.  0.
          5    1    3    3  502    0 -0.47592334189E+02 -0.56581811812E+02 -0.46981645561E+01  0.74234051834E+02  0.47000000000E+01 0. -1.
         -5    1    4    4    0  503 -0.23314335935E+02 -0.79666247430E+01  0.31052742868E+02  0.39917267060E+02  0.47000000000E+01 0.  1.
          5    1    4    4  503    0  0.25783070572E+02  0.62918586253E+02 -0.74434643540E+01  0.68563914604E+02  0.47000000000E+01 0. -1.
         -5    1    3    3    0  502  0.45123599552E+02  0.16298503020E+01  0.54974496938E+02  0.71295728919E+02  0.47000000000E+01 0. -1.
<mgrwt>
<rscale>  0 0.12815027E+03</rscale>
<asrwt>0</asrwt>
<pdfrwt beam="1">  1        1 0.25222813E-01 0.13656942E+03</pdfrwt>
<pdfrwt beam="2">  1       -1 0.13855796E-01 0.13656942E+03</pdfrwt>
<totfact> 0.65577478E+03</totfact>
</mgrwt>
</event>
<event>
 8    1  0.3520338E-004  0.1316652E+03  0.7546771E-02  0.1239424E+00
          2   -1    0    0  501    0  0.00000000000E+00  0.00000000000E+00  0.80772334667E+03  0.80772334667E+03  0.00000000000E+00 0. -1.
         -2   -1    0    0    0  501 -0.00000000000E+00 -0.00000000000E+00 -0.21103508442E+02  0.21103508442E+02  0.00000000000E+00 0.  1.
         25    2    1    2    0    0  0.41129048028E+02  0.48675566207E+01  0.24214709921E+03  0.27562826981E+03  0.12498173371E+03 0.  0.
         23    2    1    2    0    0 -0.41129048028E+02 -0.48675566207E+01  0.54447273901E+03  0.55319858531E+03  0.88672541151E+02 0.  0.
          5    1    4    4  502    0  0.20923397370E+02  0.51562368835E+01  0.49032191436E+02  0.53764496959E+02  0.47000000000E+01 0.  1.
         -5    1    4    4    0  502 -0.62052445398E+02 -0.10023793504E+02  0.49544054758E+03  0.49943408835E+03  0.47000000000E+01 0. -1.
          5    1    3    3  503    0  0.40589201289E+02 -0.56426876026E+02  0.14079903675E+03  0.15709212058E+03  0.47000000000E+01 0. -1.
         -5    1    3    3    0  503  0.53984673916E+00  0.61294432646E+02  0.10134806246E+03  0.11853614922E+03  0.47000000000E+01 0. -1.
<mgrwt>
<rscale>  0 0.12225405E+03</rscale>
<asrwt>0</asrwt>
<pdfrwt beam="1">  1        2 0.12426511E+00 0.13166520E+03</pdfrwt>
<pdfrwt beam="2">  1       -2 0.32466942E-02 0.13166520E+03</pdfrwt>
<totfact> 0.12583605E+04</totfact>
</mgrwt>
</event>
<event>
 8    1  0.3520338E-004  0.1480886E+03  0.7546771E-02  0.1210482E+00
          1   -1    0    0  501    0  0.00000000000E+00  0.00000000000E+00  0.25861727898E+03  0.25861727898E+03  0.00000000000E+00 0. -1.
         -1   -1    0    0    0  501 -0.00000000000E+00 -0.00000000000E+00 -0.73102149406E+02  0.73102149406E+02  0.00000000000E+00 0.  1.
         25    2    1    2    0    0 -0.55005427749E+02  0.57286008833E+02  0.11587011595E+03  0.18803219522E+03  0.12499175484E+03 0.  0.
         23    2    1    2    0    0  0.55005427749E+02 -0.57286008833E+02  0.69645013620E+02  0.14368723317E+03  0.97407952256E+02 0.  0.
          5    1    4    4  502    0 -0.39158829810E+01 -0.65234567875E+02  0.42961659563E+02  0.78349710770E+02  0.47000000000E+01 0. -1.
         -5    1    4    4    0  502  0.58921310730E+02  0.79485590422E+01  0.26683354057E+02  0.65337522395E+02  0.47000000000E+01 0.  1.
          5    1    3    3  503    0  0.93843803377E+01  0.31150905360E+02  0.11369099064E+03  0.11834769475E+03  0.47000000000E+01 0.  1.
         -5    1    3    3    0  503 -0.64389808087E+02  0.26135103473E+02  0.21791253123E+01  0.69684500473E+02  0.47000000000E+01 0.  1.
<mgrwt>
<rscale>  0 0.14213732E+03</rscale>
<asrwt>0</asrwt>
<pdfrwt beam="1">  1        1 0.39787273E-01 0.14808856E+03</pdfrwt>
<pdfrwt beam="2">  1       -1 0.11246485E-01 0.14808856E+03</pdfrwt>
<totfact> 0.51632435E+03</totfact>
</mgrwt>
</event>
<event>
 8    1  0.3520338E-004  0.2225483E+03  0.7546771E-02  0.1134939E+00
         -3   -1    0    0    0  501 -0.00000000000E+00  0.00000000000E+00  0.76547007816E+02  0.76547007816E+02  0.00000000000E+00 0.  1.
          3   -1    0    0  501    0  0.00000000000E+00 -0.00000000000E+00 -0.63697990094E+03  0.63697990094E+03  0.00000000000E+00 0. -1.
         25    2    1    2    0    0 -0.16977875377E+03 -0.71235995667E+02 -0.37211632716E+03  0.43358772694E+03  0.12501345411E+03 0.  0.
         23    2    1    2    0    0  0.16977875377E+03  0.71235995667E+02 -0.18831656597E+03  0.27993918182E+03  0.94886375149E+02 0.  0.
          5    1    3    3  502    0 -0.60422205541E+02 -0.32549665956E+02 -0.35290471557E+02  0.77316434599E+02  0.47000000000E+01 0. -1.
         -5    1    3    3    0  502 -0.10935654823E+03 -0.38686329712E+02 -0.33682585560E+03  0.35627129234E+03  0.47000000000E+01 0. -1.
          5    1    4    4  503    0  0.65387276533E+02  0.77010920324E+02 -0.10845133341E+03  0.14829011936E+03  0.47000000000E+01 0. -1.
         -5    1    4    4    0  503  0.10439147723E+03 -0.57749246570E+01 -0.79865232552E+02  0.13164906245E+03  0.47000000000E+01 0.  1.
<mgrwt>
<rscale>  0 0.21858934E+03</rscale>
<asrwt>0</asrwt>
<pdfrwt beam="1">  1        3 0.97996911E-01 0.22254832E+03</pdfrwt>
<pdfrwt beam="2">  1       -3 0.11776462E-01 0.22254832E+03</pdfrwt>
<totfact> 0.13136699E+02</totfact>
</mgrwt>
</event>
<event>
 8    1  0.3520338E-004  0.1726839E+03  0.7546771E-02  0.1182672E+00
         -2   -1    0    0    0  501 -0.00000000000E+00  0.00000000000E+00  0.65655108813E+02  0.65655108813E+02  0.00000000000E+00 0.  1.
          2   -1    0    0  501    0  0.00000000000E+00 -0.00000000000E+00 -0.42920796880E+03  0.42920796880E+03  0.00000000000E+00 0. -1.
         25    2    1    2    0    0  0.11533727966E+03 -0.29873249660E+02 -0.11708525954E+03  0.20863526385E+03  0.12499846478E+03 0.  0.
         23    2    1    2    0    0 -0.11533727966E+03  0.29873249660E+02 -0.24646760046E+03  0.28622781377E+03  0.83576217755E+02 0.  0.
          5    1    3    3  502    0  0.11110815133E+02 -0.38766323398E+02 -0.92586027764E+02  0.10109668926E+03  0.47000000000E+01 0. -1.
         -5    1    3    3    0  502  0.10422646452E+03  0.88930737381E+01 -0.24499231771E+02  0.10753857459E+03  0.47000000000E+01 0. -1.
          5    1    4    4  503    0 -0.95697355684E+01  0.30305069277E+02 -0.10320570476E+03  0.10809016864E+03  0.47000000000E+01 0. -1.
         -5    1    4    4    0  503 -0.10576754409E+03 -0.43181961693E+00 -0.14326189570E+03  0.17813764512E+03  0.47000000000E+01 0.  1.
<mgrwt>
<rscale>  0 0.16545495E+03</rscale>
<asrwt>0</asrwt>
<pdfrwt beam="1">  1        2 0.66031995E-01 0.17268386E+03</pdfrwt>
<pdfrwt beam="2">  1       -2 0.10100786E-01 0.17268386E+03</pdfrwt>
<totfact> 0.47034078E+03</totfact>
</mgrwt>
</event>
<event>
 8    1  0.3520338E-004  0.4158838E+03  0.7546771E-02  0.1039192E+00
          2   -1    0    0  501    0  0.00000000000E+00  0.00000000000E+00  0.70155858114E+03  0.70155858114E+03  0.00000000000E+00 0. -1.
         -2   -1    0    0    0  501 -0.00000000000E+00 -0.00000000000E+00 -0.24361366694E+03  0.24361366694E+03  0.00000000000E+00 0.  1.
         25    2    1    2    0    0 -0.39562396889E+03 -0.28602159809E+02  0.18296048155E+03  0.45434999076E+03  0.12499187167E+03 0.  0.
         23    2    1    2    0    0  0.39562396889E+03  0.28602159809E+02  0.27498443265E+03  0.49082225733E+03  0.89183192250E+02 0.  0.
          5    1    4    4  502    0  0.11386941948E+03  0.34577334189E+02  0.45992737790E+02  0.12766855001E+03  0.47000000000E+01 0. -1.
         -5    1    3    3    0  503 -0.18687175977E+03 -0.75229575071E+02  0.78361791894E+02  0.21620176686E+03  0.47000000000E+01 0. -1.
          5    1    3    3  503    0 -0.20875220912E+03  0.46627415261E+02  0.10459868966E+03  0.23814822389E+03  0.47000000000E+01 0. -1.
         -5    1    4    4    0  502  0.28175454941E+03 -0.59751743795E+01  0.22899169486E+03  0.36315370732E+03  0.47000000000E+01 0.  1.
<mgrwt>
<rscale>  0 0.41353272E+03</rscale>
<asrwt>0</asrwt>
<pdfrwt beam="1">  1        2 0.10793209E+00 0.41588385E+03</pdfrwt>
<pdfrwt beam="2">  1       -2 0.37479026E-01 0.41588385E+03</pdfrwt>
<totfact> 0.28137474E+02</totfact>
</mgrwt>
</event>
<event>
 8    1  0.3520338E-004  0.1351626E+03  0.7546771E-02  0.1231916E+00
          1   -1    0    0  501    0  0.00000000000E+00  0.00000000000E+00  0.75646136499E+02  0.75646136499E+02  0.00000000000E+00 0. -1.
         -1   -1    0    0    0  501 -0.00000000000E+00 -0.00000000000E+00 -0.19149993557E+03  0.19149993557E+03  0.00000000000E+00 0.  1.
         25    2    1    2    0    0 -0.50182824426E+02  0.11199625704E+02 -0.61863394289E+02  0.14864721539E+03  0.12500067043E+03 0.  0.
         23    2    1    2    0    0  0.50182824426E+02 -0.11199625704E+02 -0.53990404786E+02  0.11849885668E+03  0.92104656462E+02 0.  0.
          5    1    3    3  502    0  0.23082548483E+02  0.10636607465E+02 -0.70152798976E+02  0.74762602061E+02  0.47000000000E+01 0. -1.
         -5    1    4    4    0  503 -0.24868110435E+02  0.27995491016E+01 -0.27680233495E+02  0.37610446928E+02  0.47000000000E+01 0.  1.
          5    1    4    4  503    0  0.75050934861E+02 -0.13999174806E+02 -0.26310171290E+02  0.80888409751E+02  0.47000000000E+01 0. -1.
         -5    1    3    3    0  502 -0.73265372909E+02  0.56301823926E+00  0.82894046874E+01  0.73884613331E+02  0.47000000000E+01 0. -1.
<mgrwt>
<rscale>  0 0.12703975E+03</rscale>
<asrwt>0</asrwt>
<pdfrwt beam="1">  1        1 0.11637867E-01 0.13516255E+03</pdfrwt>
<pdfrwt beam="2">  1       -1 0.29461529E-01 0.13516255E+03</pdfrwt>
<totfact> 0.52499877E+03</totfact>
</mgrwt>
</event>
<event>
 8    1  0.3520338E-004  0.1328731E+03  0.7546771E-02  0.1236525E+00
          3   -1    0    0  501    0  0.00000000000E+00  0.00000000000E+00  0.10292324694E+02  0.10292324694E+02  0.00000000000E+00 0. -1.
         -3   -1    0    0    0  501 -0.00000000000E+00 -0.00000000000E+00 -0.14950472848E+04  0.14950472848E+04  0.00000000000E+00 0.  1.
         25    2    1    2    0    0  0.44951406444E+02  0.28211354486E+01 -0.10811561675E+04  0.10892905638E+04  0.12500674443E+03 0.  0.
         23    2    1    2    0    0 -0.44951406444E+02 -0.28211354486E+01 -0.40359879258E+03  0.41604904565E+03  0.90422537384E+02 0.  0.
          5    1    3    3  502    0 -0.15053608693E+02 -0.47854901314E+02 -0.30231597306E+03  0.30648611760E+03  0.47000000000E+01 0.  1.
         -5    1    3    3    0  502  0.60005015137E+02  0.50676036762E+02 -0.77884019445E+03  0.78280444623E+03  0.47000000000E+01 0.  1.
          5    1    4    4  503    0  0.36425662927E+01  0.32092606408E+02 -0.71868630339E+02  0.78932842987E+02  0.47000000000E+01 0. -1.
         -5    1    4    4    0  503 -0.48593972737E+02 -0.34913741856E+02 -0.33173016224E+03  0.33711620266E+03  0.47000000000E+01 0.  1.
<mgrwt>
<rscale>  0 0.12407338E+03</rscale>
<asrwt>0</asrwt>
<pdfrwt beam="1">  1        3 0.15834357E-02 0.13287315E+03</pdfrwt>
<pdfrwt beam="2">  1       -3 0.23000711E+00 0.13287315E+03</pdfrwt>
<totfact> 0.34066653E+02</totfact>
</mgrwt>
</event>
<event>
 8    1  0.3520338E-004  0.1980911E+03  0.7546771E-02  0.1155886E+00
          2   -1    0    0  501    0  0.00000000000E+00  0.00000000000E+00  0.14704380739E+03  0.14704380739E+03  0.00000000000E+00 0. -1.
         -2   -1    0    0    0  501 -0.00000000000E+00 -0.00000000000E+00 -0.24101839310E+03  0.24101839310E+03  0.00000000000E+00 0.  1.
         25    2    1    2    0    0  0.21093107030E+02 -0.15221478452E+03 -0.57873110413E+02  0.20637192751E+03  0.12500326302E+03 0.  0.
         23    2    1    2    0    0 -0.21093107030E+02  0.15221478452E+03 -0.36101475304E+02  0.18169027297E+03  0.89965432152E+02 0.  0.
          5    1    4    4  502    0  0.18360768268E+02  0.19700570330E+02  0.18449911011E+02  0.32980592763E+02  0.47000000000E+01 0. -1.
         -5    1    4    4    0  502 -0.39453875297E+02  0.13251421419E+03 -0.54551386315E+02  0.14870968021E+03  0.47000000000E+01 0.  1.
          5    1    3    3  503    0  0.56300642963E+01 -0.12700691575E+03 -0.94926924555E+02  0.15873142498E+03  0.47000000000E+01 0. -1.
         -5    1    3    3    0  503  0.15463042734E+02 -0.25207868777E+02  0.37053814142E+02  0.47640502530E+02  0.47000000000E+01 0. -1.
<mgrwt>
<rscale>  0 0.19288340E+03</rscale>
<asrwt>0</asrwt>
<pdfrwt beam="1">  1        2 0.22622124E-01 0.19809108E+03</pdfrwt>
<pdfrwt beam="2">  1       -2 0.37079753E-01 0.19809108E+03</pdfrwt>
<totfact> 0.16413252E+03</totfact>
</mgrwt>
</event>
<event>
 8    1  0.3520338E-004  0.1301600E+03  0.7546771E-02  0.1241635E+00
         -1   -1    0    0    0  501 -0.00000000000E+00  0.00000000000E+00  0.81354863408E+02  0.81354863408E+02  0.00000000000E+00 0.  1.
          1   -1    0    0  501    0  0.00000000000E+00 -0.00000000000E+00 -0.17877474859E+03  0.17877474859E+03  0.00000000000E+00 0. -1.
         25    2    1    2    0    0  0.35985790973E+02  0.46315474593E+01 -0.11521221557E+02  0.13066893595E+03  0.12500081556E+03 0.  0.
         23    2    1    2    0    0 -0.35985790973E+02 -0.46315474593E+01 -0.85898663629E+02  0.12946067605E+03  0.89805667120E+02 0.  0.
          5    1    3    3  502    0 -0.11782795021E+00  0.33380717471E+02  0.45837332943E+02  0.56898482174E+02  0.47000000000E+01 0.  1.
         -5    1    4    4    0  503  0.18737292764E+02  0.19750501865E+02 -0.40527894691E+01  0.27922814445E+02  0.47000000000E+01 0.  1.
          5    1    4    4  503    0 -0.54723083737E+02 -0.24382049324E+02 -0.81845874160E+02  0.10153786161E+03  0.47000000000E+01 0. -1.
         -5    1    3    3    0  502  0.36103618923E+02 -0.28749170012E+02 -0.57358554500E+02  0.73770453774E+02  0.47000000000E+01 0.  1.
<mgrwt>
<rscale>  0 0.12089050E+03</rscale>
<asrwt>0</asrwt>
<pdfrwt beam="1">  1        1 0.27503807E-01 0.13016003E+03</pdfrwt>
<pdfrwt beam="2">  1       -1 0.12516133E-01 0.13016003E+03</pdfrwt>
<totfact> 0.68676267E+03</totfact>
</mgrwt>
</event>
<event>
 8    1  0.3520338E-004  0.1367519E+03  0.7546771E-02  0.1230367E+00
         -1   -1    0    0    0  501 -0.00000000000E+00  0.00000000000E+00  0.31215743542E+02  0.31215743542E+02  0.00000000000E+00 0.  1.
          1   -1    0    0  501    0  0.00000000000E+00 -0.00000000000E+00 -0.48233730036E+03  0.48233730036E+03  0.00000000000E+00 0. -1.
         25    2    1    2    0    0  0.53066709489E+02 -0.16142234207E+02 -0.21129880872E+03  0.25169079884E+03  0.12499769707E+03 0.  0.
         23    2    1    2    0    0 -0.53066709489E+02  0.16142234207E+02 -0.23982274810E+03  0.26186224506E+03  0.89332175070E+02 0.  0.
          5    1    3    3  502    0  0.36262978881E+02 -0.60830926018E+02 -0.18230940132E+03  0.19563796413E+03  0.47000000000E+01 0.  1.
         -5    1    3    3    0  502  0.16803730608E+02  0.44688691812E+02 -0.28989407402E+02  0.56052834716E+02  0.47000000000E+01 0.  1.
          5    1    4    4  503    0  0.23584333353E+02  0.93132733172E+01 -0.86253964453E+02  0.90026630635E+02  0.47000000000E+01 0. -1.
         -5    1    4    4    0  503 -0.76651042842E+02  0.68289608893E+01 -0.15356878364E+03  0.17183561443E+03  0.47000000000E+01 0.  1.
<mgrwt>
<rscale>  0 0.12805721E+03</rscale>
<asrwt>0</asrwt>
<pdfrwt beam="1">  1        1 0.74205741E-01 0.13675186E+03</pdfrwt>
<pdfrwt beam="2">  1       -1 0.48024219E-02 0.13675186E+03</pdfrwt>
<totfact> 0.84621329E+03</totfact>
</mgrwt>
</event>
<event>
 8    1  0.3520338E-004  0.1545465E+03  0.7546771E-02  0.1201833E+00
          1   -1    0    0  501    0  0.00000000000E+00  0.00000000000E+00  0.30864024313E+03  0.30864024313E+03  0.00000000000E+00 0. -1.
         -1   -1    0    0    0  501 -0.00000000000E+00 -0.00000000000E+00 -0.77392262501E+02  0.77392262501E+02  0.00000000000E+00 0.  1.
         25    2    1    2    0    0  0.57846272222E+02 -0.70080349854E+02  0.52678714012E+02  0.16327785848E+03  0.12500866175E+03 0.  0.
         23    2    1    2    0    0 -0.57846272222E+02  0.70080349854E+02  0.17856926662E+03  0.22275464715E+03  0.97340655447E+02 0.  0.
          5    1    4    4  502    0  0.12579509883E+02  0.43230996668E+02  0.11655751427E+03  0.12503962282E+03  0.47000000000E+01 0. -1.
         -5    1    4    4    0  502 -0.70425782104E+02  0.26849353186E+02  0.62011752344E+02  0.97715024333E+02  0.47000000000E+01 0.  1.
          5    1    3    3  503    0 -0.34852599164E+02  0.16619654073E+01  0.13643628460E+01  0.35233752050E+02  0.47000000000E+01 0. -1.
         -5    1    3    3    0  503  0.92698871386E+02 -0.71742315262E+02  0.51314351166E+02  0.12804410643E+03  0.47000000000E+01 0. -1.
<mgrwt>
<rscale>  0 0.14889874E+03</rscale>
<asrwt>0</asrwt>
<pdfrwt beam="1">  1        1 0.47483114E-01 0.15454647E+03</pdfrwt>
<pdfrwt beam="2">  1       -1 0.11906502E-01 0.15454647E+03</pdfrwt>
<totfact> 0.38054063E+03</totfact>
</mgrwt>
</event>
<event>
 8    1  0.3520338E-004  0.1407719E+03  0.7546771E-02  0.1221469E+00
         -3   -1    0    0    0  501 -0.00000000000E+00  0.00000000000E+00  0.24888889272E+03  0.24888889272E+03  0.00000000000E+00 0.  1.
          3   -1    0    0  501    0  0.00000000000E+00 -0.00000000000E+00 -0.66625039553E+02  0.66625039553E+02  0.00000000000E+00 0. -1.
         25    2    1    2    0    0  0.48390765098E+02  0.43010457167E+02  0.87634117307E+02  0.16582056501E+03  0.12500062277E+03 0.  0.
         23    2    1    2    0    0 -0.48390765098E+02 -0.43010457167E+02  0.94629735864E+02  0.14969336726E+03  0.96237995201E+02 0.  0.
          5    1    3    3  502    0  0.63092544667E+02 -0.45238659834E+00  0.99759721643E+02  0.11813113861E+03  0.47000000000E+01 0.  1.
         -5    1    3    3    0  502 -0.14701779569E+02  0.43462843765E+02 -0.12125604336E+02  0.47689426408E+02  0.47000000000E+01 0.  1.
          5    1    4    4  503    0 -0.99009528116E+01  0.29303871117E+02  0.41374875758E+02  0.51872112672E+02  0.47000000000E+01 0. -1.
         -5    1    4    4    0  503 -0.38489812286E+02 -0.72314328284E+02  0.53254860106E+02  0.97821254591E+02  0.47000000000E+01 0.  1.
<mgrwt>
<rscale>  0 0.13411909E+03</rscale>
<asrwt>0</asrwt>
<pdfrwt beam="1">  1        3 0.10250006E-01 0.14077188E+03</pdfrwt>
<pdfrwt beam="2">  1       -3 0.38290598E-01 0.14077188E+03</pdfrwt>
<totfact> 0.11089009E+03</totfact>
</mgrwt>
</event>
<event>
 8    1  0.3520338E-004  0.2141536E+03  0.7546771E-02  0.1141030E+00
          1   -1    0    0  501    0  0.00000000000E+00  0.00000000000E+00  0.28465497430E+03  0.28465497430E+03  0.00000000000E+00 0. -1.
         -1   -1    0    0    0  501 -0.00000000000E+00 -0.00000000000E+00 -0.21148250099E+03  0.21148250099E+03  0.00000000000E+00 0.  1.
         25    2    1    2    0    0 -0.14055276417E+03 -0.10237595750E+03  0.16997782184E+03  0.27341220050E+03  0.12500342105E+03 0.  0.
         23    2    1    2    0    0  0.14055276417E+03  0.10237595750E+03 -0.96805348529E+02  0.22272527479E+03  0.99996781618E+02 0.  0.
          5    1    3    3  502    0 -0.12990121404E+03 -0.49473859468E+02  0.61319610438E+02  0.15200056843E+03  0.47000000000E+01 0.  1.
         -5    1    3    3    0  502 -0.10651550135E+02 -0.52902098036E+02  0.10865821140E+03  0.12141163207E+03  0.47000000000E+01 0.  1.
          5    1    4    4  503    0  0.15506351907E+03  0.83140020014E+02 -0.86192133883E+02  0.19597992708E+03  0.47000000000E+01 0. -1.
         -5    1    4    4    0  503 -0.14510754900E+02  0.19235937490E+02 -0.10613214646E+02  0.26745347707E+02  0.47000000000E+01 0.  1.
<mgrwt>
<rscale>  0 0.21067836E+03</rscale>
<asrwt>0</asrwt>
<pdfrwt beam="1">  1        1 0.43793073E-01 0.21415362E+03</pdfrwt>
<pdfrwt beam="2">  1       -1 0.32535769E-01 0.21415362E+03</pdfrwt>
<totfact> 0.83285710E+02</totfact>
</mgrwt>
</event>
<event>
 8    1  0.3520338E-004  0.1717046E+03  0.7546771E-02  0.1182572E+00
         -1   -1    0    0    0  501 -0.00000000000E+00  0.00000000000E+00  0.71442453580E+02  0.71442453580E+02  0.00000000000E+00 0.  1.
          1   -1    0    0  501    0  0.00000000000E+00 -0.00000000000E+00 -0.37086223683E+03  0.37086223683E+03  0.00000000000E+00 0. -1.
         25    2    1    2    0    0 -0.10398143396E+03 -0.55183591597E+02 -0.11998601563E+03  0.20947338051E+03  0.12500034323E+03 0.  0.
         23    2    1    2    0    0  0.10398143396E+03  0.55183591597E+02 -0.17943376762E+03  0.23283130990E+03  0.90313755957E+02 0.  0.
          5    1    4    4  502    0  0.96697489729E+02  0.86532587224E+01 -0.14388045555E+03  0.17363455559E+03  0.47000000000E+01 0. -1.
         -5    1    4    4    0  502  0.72839442348E+01  0.46530332875E+02 -0.35553312072E+02  0.59196754306E+02  0.47000000000E+01 0.  1.
          5    1    3    3  503    0 -0.66430394701E+02  0.33151831328E+02 -0.40137554695E+02  0.84529016069E+02  0.47000000000E+01 0. -1.
         -5    1    3    3    0  503 -0.37551039263E+02 -0.88335422925E+02 -0.79848460934E+02  0.12494436445E+03  0.47000000000E+01 0. -1.
<mgrwt>
<rscale>  0 0.16554786E+03</rscale>
<asrwt>0</asrwt>
<pdfrwt beam="1">  1        1 0.57055729E-01 0.17170455E+03</pdfrwt>
<pdfrwt beam="2">  1       -1 0.10991147E-01 0.17170455E+03</pdfrwt>
<totfact> 0.34371977E+03</totfact>
</mgrwt>
</event>
<event>
 8    1  0.3520338E-004  0.2529561E+03  0.7546771E-02  0.1113170E+00
         -2   -1    0    0    0  501 -0.00000000000E+00  0.00000000000E+00  0.62348041758E+02  0.62348041758E+02  0.00000000000E+00 0.  1.
          2   -1    0    0  501    0  0.00000000000E+00 -0.00000000000E+00 -0.12349986725E+04  0.12349986725E+04  0.00000000000E+00 0. -1.
         25    2    1    2    0    0 -0.58582754918E+01  0.21983555547E+03 -0.30351155170E+03  0.39510256853E+03  0.12499914722E+03 0.  0.
         23    2    1    2    0    0  0.58582754918E+01 -0.21983555547E+03 -0.86913907905E+03  0.90224414574E+03  0.10138919541E+03 0.  0.
          5    1    4    4  502    0 -0.31701095748E+02 -0.68133576560E+02 -0.41931597309E+03  0.42602243957E+03  0.47000000000E+01 0. -1.
         -5    1    3    3    0  503 -0.58912093670E+02  0.10426727711E+03 -0.18965386064E+03  0.22435012082E+03  0.47000000000E+01 0. -1.
          5    1    3    3  503    0  0.53053818178E+02  0.11556827836E+03 -0.11385769107E+03  0.17075244772E+03  0.47000000000E+01 0. -1.
         -5    1    4    4    0  502  0.37559371240E+02 -0.15170197891E+03 -0.44982310596E+03  0.47622170617E+03  0.47000000000E+01 0.  1.
<mgrwt>
<rscale>  0 0.25021291E+03</rscale>
<asrwt>0</asrwt>
<pdfrwt beam="1">  1        2 0.18999978E+00 0.25295608E+03</pdfrwt>
<pdfrwt beam="2">  1       -2 0.95920073E-02 0.25295608E+03</pdfrwt>
<totfact> 0.13556465E+03</totfact>
</mgrwt>
</event>
<event>
 8    1  0.3520338E-004  0.1420653E+03  0.7546771E-02  0.1221376E+00
         -1   -1    0    0    0  501 -0.00000000000E+00  0.00000000000E+00  0.55128723448E+02  0.55128723448E+02  0.00000000000E+00 0.  1.
          1   -1    0    0  501    0  0.00000000000E+00 -0.00000000000E+00 -0.33922083126E+03  0.33922083126E+03  0.00000000000E+00 0. -1.
         25    2    1    2    0    0 -0.18892435619E+00 -0.67504489728E+02 -0.85453894930E+02  0.16578574180E+03  0.12500260877E+03 0.  0.
         23    2    1    2    0    0  0.18892435619E+00  0.67504489728E+02 -0.19863821288E+03  0.22856381291E+03  0.90704934419E+02 0.  0.
          5    1    3    3  502    0  0.58798302926E+02 -0.43299542575E+02 -0.67074368550E+02  0.99263043126E+02  0.47000000000E+01 0.  1.
         -5    1    4    4    0  503 -0.47142669905E+01  0.30129866927E+02 -0.50294804349E+01  0.31263698881E+02  0.47000000000E+01 0.  1.
          5    1    4    4  503    0  0.49031913467E+01  0.37374622801E+02 -0.19360873245E+03  0.19730011403E+03  0.47000000000E+01 0. -1.
         -5    1    3    3    0  502 -0.58987227282E+02 -0.24204947153E+02 -0.18379526379E+02  0.66522698675E+02  0.47000000000E+01 0.  1.
<mgrwt>
<rscale>  0 0.13418392E+03</rscale>
<asrwt>0</asrwt>
<pdfrwt beam="1">  1        1 0.52187821E-01 0.14206528E+03</pdfrwt>
<pdfrwt beam="2">  1       -1 0.84813420E-02 0.14206528E+03</pdfrwt>
<totfact> 0.56598884E+03</totfact>
</mgrwt>
</event>
<event>
 8    1  0.3520338E-004  0.1313953E+03  0.7546771E-02  0.1238799E+00
         -1   -1    0    0    0  501 -0.00000000000E+00  0.00000000000E+00  0.60926075178E+02  0.60926075178E+02  0.00000000000E+00 0.  1.
          1   -1    0    0  501    0  0.00000000000E+00 -0.00000000000E+00 -0.22106517736E+03  0.22106517736E+03  0.00000000000E+00 0. -1.
         25    2    1    2    0    0  0.29909723692E+01  0.40387826309E+02 -0.78120352193E+02  0.15286435429E+03  0.12499839581E+03 0.  0.
         23    2    1    2    0    0 -0.29909723692E+01 -0.40387826309E+02 -0.82018749987E+02  0.12912689825E+03  0.91140320778E+02 0.  0.
          5    1    3    3  502    0 -0.39614349304E+02  0.53814921832E+02 -0.51611283352E+01  0.67186827044E+02  0.47000000000E+01 0. -1.
         -5    1    4    4    0  503 -0.33227813377E+02  0.18592132508E+01 -0.66813990023E+02  0.74791333178E+02  0.47000000000E+01 0. -1.
          5    1    4    4  503    0  0.30236841008E+02 -0.42247039560E+02 -0.15204759965E+02  0.54335565068E+02  0.47000000000E+01 0.  1.
         -5    1    3    3    0  502  0.42605321674E+02 -0.13427095522E+02 -0.72959223858E+02  0.85677527247E+02  0.47000000000E+01 0. -1.
<mgrwt>
<rscale>  0 0.12264352E+03</rscale>
<asrwt>0</asrwt>
<pdfrwt beam="1">  1        1 0.34010028E-01 0.13139529E+03</pdfrwt>
<pdfrwt beam="2">  1       -1 0.93732422E-02 0.13139529E+03</pdfrwt>
<totfact> 0.82221556E+03</totfact>
</mgrwt>
</event>
<event>
 8    1  0.3520338E-004  0.1306558E+03  0.7546771E-02  0.1240422E+00
         -1   -1    0    0    0  501 -0.00000000000E+00  0.00000000000E+00  0.67112301008E+02  0.67112301008E+02  0.00000000000E+00 0.  1.
          1   -1    0    0  501    0  0.00000000000E+00 -0.00000000000E+00 -0.20262700774E+03  0.20262700774E+03  0.00000000000E+00 0. -1.
         25    2    1    2    0    0 -0.11366211823E+02  0.36269901193E+02 -0.10292246436E+03  0.16632493211E+03  0.12500501136E+03 0.  0.
         23    2    1    2    0    0  0.11366211823E+02 -0.36269901193E+02 -0.32592242367E+02  0.10341437664E+03  0.90485261394E+02 0.  0.
          5    1    3    3  502    0 -0.29649358322E+01 -0.43849025697E+02 -0.14270639499E+02  0.46446410527E+02  0.47000000000E+01 0.  1.
         -5    1    4    4    0  503 -0.72788111325E+01 -0.47566188589E+02  0.15194373890E+02  0.50680197180E+02  0.47000000000E+01 0.  1.
          5    1    4    4  503    0  0.18645022956E+02  0.11296287396E+02 -0.47786616257E+02  0.52734179459E+02  0.47000000000E+01 0. -1.
         -5    1    3    3    0  502 -0.84012759912E+01  0.80118926890E+02 -0.88651824864E+02  0.11987852158E+03  0.47000000000E+01 0.  1.
<mgrwt>
<rscale>  0 0.12163618E+03</rscale>
<asrwt>0</asrwt>
<pdfrwt beam="1">  1        1 0.31173386E-01 0.13065584E+03</pdfrwt>
<pdfrwt beam="2">  1       -1 0.10324969E-01 0.13065584E+03</pdfrwt>
<totfact> 0.79010889E+03</totfact>
</mgrwt>
</event>
<event>
 8    1  0.3520338E-004  0.1728061E+03  0.7546771E-02  0.1182283E+00
         -1   -1    0    0    0  501 -0.00000000000E+00  0.00000000000E+00  0.76893713089E+02  0.76893713089E+02  0.00000000000E+00 0.  1.
          1   -1    0    0  501    0  0.00000000000E+00 -0.00000000000E+00 -0.33233913007E+03  0.33233913007E+03  0.00000000000E+00 0. -1.
         25    2    1    2    0    0 -0.15190881690E+02 -0.11834438876E+03 -0.14859686482E+03  0.22791003380E+03  0.12500319211E+03 0.  0.
         23    2    1    2    0    0  0.15190881690E+02  0.11834438876E+03 -0.10684855217E+03  0.18132280936E+03  0.85001122685E+02 0.  0.
          5    1    4    4  502    0  0.82222294168E+01  0.47444042677E+02  0.49908785451E+01  0.48636828749E+02  0.47000000000E+01 0. -1.
         -5    1    3    3    0  503 -0.32250428364E+02 -0.37529241774E+02 -0.13527082683E+03  0.14411391573E+03  0.47000000000E+01 0.  1.
          5    1    3    3  503    0  0.17059546674E+02 -0.80815146982E+02 -0.13326037988E+02  0.83796118066E+02  0.47000000000E+01 0.  1.
         -5    1    4    4    0  502  0.69686522735E+01  0.70900346079E+02 -0.11183943072E+03  0.13268598061E+03  0.47000000000E+01 0.  1.
<mgrwt>
<rscale>  0 0.16581601E+03</rscale>
<asrwt>0</asrwt>
<pdfrwt beam="1">  1        1 0.51129096E-01 0.17280612E+03</pdfrwt>
<pdfrwt beam="2">  1       -1 0.11829802E-01 0.17280612E+03</pdfrwt>
<totfact> 0.35221648E+03</totfact>
</mgrwt>
</event>
<event>
 8    1  0.3520338E-004  0.1386330E+03  0.7546771E-02  0.1225022E+00
         -1   -1    0    0    0  501 -0.00000000000E+00  0.00000000000E+00  0.16958502798E+03  0.16958502798E+03  0.00000000000E+00 0.  1.
          1   -1    0    0  501    0  0.00000000000E+00 -0.00000000000E+00 -0.13156289462E+03  0.13156289462E+03  0.00000000000E+00 0. -1.
         25    2    1    2    0    0  0.45585771491E+02  0.38938315606E+02  0.10144008048E+03  0.17178238614E+03  0.12499937311E+03 0.  0.
         23    2    1    2    0    0 -0.45585771491E+02 -0.38938315606E+02 -0.63417947124E+02  0.12936553646E+03  0.95495293193E+02 0.  0.
          5    1    3    3  502    0  0.59165668418E+02 -0.24456005918E+02  0.19296499120E+02  0.67030719995E+02  0.47000000000E+01 0. -1.
         -5    1    4    4    0  503 -0.34558805858E+01 -0.26003818428E+02  0.21060150929E+02  0.33967067001E+02  0.47000000000E+01 0.  1.
          5    1    4    4  503    0 -0.42129890905E+02 -0.12934497178E+02 -0.84478098053E+02  0.95398469461E+02  0.47000000000E+01 0. -1.
         -5    1    3    3    0  502 -0.13579896927E+02  0.63394321524E+02  0.82143581362E+02  0.10475166615E+03  0.47000000000E+01 0. -1.
<mgrwt>
<rscale>  0 0.13165382E+03</rscale>
<asrwt>0</asrwt>
<pdfrwt beam="1">  1        1 0.20240445E-01 0.13863296E+03</pdfrwt>
<pdfrwt beam="2">  1       -1 0.26090004E-01 0.13863296E+03</pdfrwt>
<totfact> 0.31468419E+03</totfact>
</mgrwt>
</event>
<event>
 8    1  0.3520338E-004  0.1833524E+03  0.7546771E-02  0.1169997E+00
          1   -1    0    0  501    0  0.00000000000E+00  0.00000000000E+00  0.17032022958E+03  0.17032022958E+03  0.00000000000E+00 0. -1.
         -1   -1    0    0    0  501 -0.00000000000E+00 -0.00000000000E+00 -0.22866140633E+03  0.22866140633E+03  0.00000000000E+00 0.  1.
         25    2    1    2    0    0  0.96699963410E+02  0.92967519046E+02  0.65926714209E+02  0.19484466986E+03  0.12499708479E+03 0.  0.
         23    2    1    2    0    0 -0.96699963410E+02 -0.92967519046E+02 -0.12426789096E+03  0.20413696605E+03  0.90749929262E+02 0.  0.
          5    1    3    3  502    0  0.10508037109E+03  0.67168132123E+02  0.93453156792E+02  0.15591351730E+03  0.47000000000E+01 0. -1.
         -5    1    3    3    0  502 -0.83804076823E+01  0.25799386923E+02 -0.27526442583E+02  0.38931152562E+02  0.47000000000E+01 0. -1.
          5    1    4    4  503    0 -0.54845199369E+02 -0.29763782760E+02 -0.50502719709E+01  0.62781158838E+02  0.47000000000E+01 0. -1.
         -5    1    4    4    0  503 -0.41854764040E+02 -0.63203736286E+02 -0.11921761899E+03  0.14135580721E+03  0.47000000000E+01 0.  1.
<mgrwt>
<rscale>  0 0.17775161E+03</rscale>
<asrwt>0</asrwt>
<pdfrwt beam="1">  1        1 0.26203112E-01 0.18335243E+03</pdfrwt>
<pdfrwt beam="2">  1       -1 0.35178678E-01 0.18335243E+03</pdfrwt>
<totfact> 0.13835095E+03</totfact>
</mgrwt>
</event>
<event>
 8    1  0.3520338E-004  0.2786780E+03  0.7546771E-02  0.1098182E+00
          1   -1    0    0  501    0  0.00000000000E+00  0.00000000000E+00  0.10289070597E+04  0.10289070597E+04  0.00000000000E+00 0. -1.
         -1   -1    0    0    0  501 -0.00000000000E+00 -0.00000000000E+00 -0.84179886812E+02  0.84179886812E+02  0.00000000000E+00 0.  1.
         25    2    1    2    0    0 -0.10245611107E+02  0.24885979190E+03  0.69234310329E+03  0.74632459247E+03  0.12500102428E+03 0.  0.
         23    2    1    2    0    0  0.10245611107E+02 -0.24885979190E+03  0.25238406958E+03  0.36676235403E+03  0.93705587791E+02 0.  0.
          5    1    3    3  502    0 -0.48856544838E+02  0.32718100153E+02  0.13953467733E+03  0.15149076615E+03  0.47000000000E+01 0.  1.
         -5    1    4    4    0  503 -0.20685170897E+02 -0.71044960757E+02  0.29181769275E+02  0.79680163165E+02  0.47000000000E+01 0.  1.
          5    1    4    4  503    0  0.30930782004E+02 -0.17781483114E+03  0.22320230030E+03  0.28708219086E+03  0.47000000000E+01 0. -1.
         -5    1    3    3    0  502  0.38610933731E+02  0.21614169175E+03  0.55280842597E+03  0.59483382632E+03  0.47000000000E+01 0.  1.
<mgrwt>
<rscale>  0 0.27548257E+03</rscale>
<asrwt>0</asrwt>
<pdfrwt beam="1">  1        1 0.15829338E+00 0.27867799E+03</pdfrwt>
<pdfrwt beam="2">  1       -1 0.12950753E-01 0.27867799E+03</pdfrwt>
<totfact> 0.61967091E+02</totfact>
</mgrwt>
</event>
<event>
 8    1  0.3520338E-004  0.1275036E+03  0.7546771E-02  0.1245978E+00
          2   -1    0    0  501    0  0.00000000000E+00  0.00000000000E+00  0.44266257340E+03  0.44266257340E+03  0.00000000000E+00 0. -1.
         -2   -1    0    0    0  501 -0.00000000000E+00 -0.00000000000E+00 -0.30964488192E+02  0.30964488192E+02  0.00000000000E+00 0.  1.
         25    2    1    2    0    0 -0.10017355613E+01 -0.25115710662E+02  0.30828621167E+03  0.33361286959E+03  0.12500142423E+03 0.  0.
         23    2    1    2    0    0  0.10017355613E+01  0.25115710662E+02  0.10341187355E+03  0.14001419200E+03  0.90984372150E+02 0.  0.
          5    1    4    4  502    0 -0.29848569626E+02  0.20863725374E+02  0.10208892978E+03  0.10849180489E+03  0.47000000000E+01 0. -1.
         -5    1    3    3    0  503  0.16855374301E+02  0.47648714835E+02  0.15157439316E+03  0.15984802261E+03  0.47000000000E+01 0.  1.
          5    1    3    3  503    0 -0.17857109862E+02 -0.72764425497E+02  0.15671181850E+03  0.17376484699E+03  0.47000000000E+01 0.  1.
         -5    1    4    4    0  502  0.30850305187E+02  0.42519852878E+01  0.13229437681E+01  0.31522387112E+02  0.47000000000E+01 0.  1.
<mgrwt>
<rscale>  0 0.11827044E+03</rscale>
<asrwt>0</asrwt>
<pdfrwt beam="1">  1        2 0.68101930E-01 0.12750356E+03</pdfrwt>
<pdfrwt beam="2">  1       -2 0.47637677E-02 0.12750356E+03</pdfrwt>
<totfact> 0.14141941E+04</totfact>
</mgrwt>
</event>
<event>
 8    1  0.3520338E-004  0.1534420E+03  0.7546771E-02  0.1203861E+00
          1   -1    0    0  501    0  0.00000000000E+00  0.00000000000E+00  0.36695288153E+03  0.36695288153E+03  0.00000000000E+00 0. -1.
         -1   -1    0    0    0  501 -0.00000000000E+00 -0.00000000000E+00 -0.68968693761E+02  0.68968693761E+02  0.00000000000E+00 0.  1.
         25    2    1    2    0    0  0.27742095058E+02 -0.84580180064E+02  0.25713809409E+03  0.29944022815E+03  0.12498407941E+03 0.  0.
         23    2    1    2    0    0 -0.27742095058E+02  0.84580180064E+02  0.40846093680E+02  0.13648134714E+03  0.95054321575E+02 0.  0.
          5    1    3    3  502    0 -0.54219421222E+01 -0.11070057994E+03  0.18869661315E+03  0.21888928176E+03  0.47000000000E+01 0. -1.
         -5    1    4    4    0  503 -0.22776915820E+02 -0.10598578210E+02 -0.11066014608E+02  0.27850752838E+02  0.47000000000E+01 0.  1.
          5    1    4    4  503    0 -0.49651792385E+01  0.95178758274E+02  0.51912108288E+02  0.10863059430E+03  0.47000000000E+01 0. -1.
         -5    1    3    3    0  502  0.33164037180E+02  0.26120399872E+02  0.68441480938E+02  0.80550946391E+02  0.47000000000E+01 0. -1.
<mgrwt>
<rscale>  0 0.14727616E+03</rscale>
<asrwt>0</asrwt>
<pdfrwt beam="1">  1        1 0.56454288E-01 0.15344201E+03</pdfrwt>
<pdfrwt beam="2">  1       -1 0.10610569E-01 0.15344201E+03</pdfrwt>
<totfact> 0.36599123E+03</totfact>
</mgrwt>
</event>
<event>
 8    1  0.3520338E-004  0.1892055E+03  0.7546771E-02  0.1164011E+00
          2   -1    0    0  501    0  0.00000000000E+00  0.00000000000E+00  0.40345651089E+03  0.40345651089E+03  0.00000000000E+00 0. -1.
         -2   -1    0    0    0  501 -0.00000000000E+00 -0.00000000000E+00 -0.87533951392E+02  0.87533951392E+02  0.00000000000E+00 0.  1.
         25    2    1    2    0    0 -0.94803798762E+02 -0.10575359490E+03  0.23996280773E+03  0.30558282624E+03  0.12500852574E+03 0.  0.
         23    2    1    2    0    0  0.94803798762E+02  0.10575359490E+03  0.75959751770E+02  0.18540763604E+03  0.91839667461E+02 0.  0.
          5    1    4    4  502    0  0.10073340496E+03  0.81647023302E+02  0.88639349114E+02  0.15713840873E+03  0.47000000000E+01 0. -1.
         -5    1    4    4    0  502 -0.59296061930E+01  0.24106571596E+02 -0.12679597343E+02  0.28269227306E+02  0.47000000000E+01 0.  1.
          5    1    3    3  503    0 -0.31640313177E+02 -0.52036025428E+02  0.11053508239E+02  0.62073564459E+02  0.47000000000E+01 0. -1.
         -5    1    3    3    0  503 -0.63163485586E+02 -0.53717569469E+02  0.22890929949E+03  0.24350926178E+03  0.47000000000E+01 0. -1.
<mgrwt>
<rscale>  0 0.18397450E+03</rscale>
<asrwt>0</asrwt>
<pdfrwt beam="1">  1        2 0.62070231E-01 0.18920548E+03</pdfrwt>
<pdfrwt beam="2">  1       -2 0.13466762E-01 0.18920548E+03</pdfrwt>
<totfact> 0.31834461E+03</totfact>
</mgrwt>
</event>
<event>
 8    1  0.3520338E-004  0.2029793E+03  0.7546771E-02  0.1151169E+00
          1   -1    0    0  501    0  0.00000000000E+00  0.00000000000E+00  0.19751767901E+03  0.19751767901E+03  0.00000000000E+00 0. -1.
         -1   -1    0    0    0  501 -0.00000000000E+00 -0.00000000000E+00 -0.19642276912E+03  0.19642276912E+03  0.00000000000E+00 0.  1.
         25    2    1    2    0    0 -0.14892956883E+03 -0.58245041439E+02  0.34795296377E+02  0.20594004740E+03  0.12501235600E+03 0.  0.
         23    2    1    2    0    0  0.14892956883E+03  0.58245041439E+02 -0.33700386489E+02  0.18800040073E+03  0.92929722380E+02 0.  0.
          5    1    3    3  502    0 -0.13417030617E+03 -0.14505041900E+02  0.65720118941E+02  0.15017753272E+03  0.47000000000E+01 0. -1.
         -5    1    4    4    0  503  0.58367419400E+02  0.33197155689E+01 -0.54380203836E+02  0.79981702458E+02  0.47000000000E+01 0.  1.
          5    1    4    4  503    0  0.90562149427E+02  0.54925325870E+02  0.20679817346E+02  0.10801869827E+03  0.47000000000E+01 0. -1.
         -5    1    3    3    0  502 -0.14759262653E+02 -0.43739999538E+02 -0.30924822564E+02  0.55762514688E+02  0.47000000000E+01 0. -1.
<mgrwt>
<rscale>  0 0.19831494E+03</rscale>
<asrwt>0</asrwt>
<pdfrwt beam="1">  1        1 0.30387335E-01 0.20297929E+03</pdfrwt>
<pdfrwt beam="2">  1       -1 0.30218887E-01 0.20297929E+03</pdfrwt>
<totfact> 0.14929228E+03</totfact>
</mgrwt>
</event>
<event>
 8    1  0.3520338E-004  0.3972125E+03  0.7546771E-02  0.1045584E+00
          2   -1    0    0  501    0  0.00000000000E+00  0.00000000000E+00  0.14388497674E+03  0.14388497674E+03  0.00000000000E+00 0. -1.
         -2   -1    0    0    0  501 -0.00000000000E+00 -0.00000000000E+00 -0.10949824873E+04  0.10949824873E+04  0.00000000000E+00 0.  1.
         25    2    1    2    0    0 -0.50956228770E+02 -0.37357166359E+03 -0.57347261694E+03  0.69760205740E+03  0.12500185207E+03 0.  0.
         23    2    1    2    0    0  0.50956228770E+02  0.37357166359E+03 -0.37762489364E+03  0.54126540664E+03  0.90638595803E+02 0.  0.
          5    1    3    3  502    0  0.41152809595E+02 -0.13185302689E+03 -0.21251500697E+03  0.25350245092E+03  0.47000000000E+01 0.  1.
         -5    1    3    3    0  502 -0.92109038365E+02 -0.24171863670E+03 -0.36095760997E+03  0.44409960647E+03  0.47000000000E+01 0.  1.
          5    1    4    4  503    0 -0.73218029821E+01  0.25813063583E+03 -0.24596363986E+03  0.35665843056E+03  0.47000000000E+01 0. -1.
         -5    1    4    4    0  503  0.58278031753E+02  0.11544102776E+03 -0.13166125377E+03  0.18460697609E+03  0.47000000000E+01 0.  1.
<mgrwt>
<rscale>  0 0.39483124E+03</rscale>
<asrwt>0</asrwt>
<pdfrwt beam="1">  1        2 0.22136151E-01 0.39721252E+03</pdfrwt>
<pdfrwt beam="2">  1       -2 0.16845884E+00 0.39721252E+03</pdfrwt>
<totfact> 0.57168062E+01</totfact>
</mgrwt>
</event>
<event>
 8    1  0.3520338E-004  0.1730407E+03  0.7546771E-02  0.1180816E+00
         -2   -1    0    0    0  501 -0.00000000000E+00  0.00000000000E+00  0.27675389865E+02  0.27675389865E+02  0.00000000000E+00 0.  1.
          2   -1    0    0  501    0  0.00000000000E+00 -0.00000000000E+00 -0.99761110624E+03  0.99761110624E+03  0.00000000000E+00 0. -1.
         25    2    1    2    0    0  0.11080520975E+03  0.45175676666E+02 -0.63157305412E+03  0.65484929675E+03  0.12499776997E+03 0.  0.
         23    2    1    2    0    0 -0.11080520975E+03 -0.45175676666E+02 -0.33836266225E+03  0.37043719935E+03  0.91737621426E+02 0.  0.
          5    1    4    4  502    0  0.49820551638E+01 -0.33571275446E+02 -0.72813415602E+02  0.80471951017E+02  0.47000000000E+01 0. -1.
         -5    1    4    4    0  502 -0.11578726492E+03 -0.11604401220E+02 -0.26554924665E+03  0.28996524833E+03  0.47000000000E+01 0.  1.
          5    1    3    3  503    0  0.21463538683E+02 -0.41730343921E+02 -0.20890899763E+03  0.21416620739E+03  0.47000000000E+01 0.  1.
         -5    1    3    3    0  503  0.89341671069E+02  0.86906020587E+02 -0.42266405648E+03  0.44068308936E+03  0.47000000000E+01 0.  1.
<mgrwt>
<rscale>  0 0.16718475E+03</rscale>
<asrwt>0</asrwt>
<pdfrwt beam="1">  1        2 0.15347861E+00 0.17304069E+03</pdfrwt>
<pdfrwt beam="2">  1       -2 0.42577528E-02 0.17304069E+03</pdfrwt>
<totfact> 0.64674840E+03</totfact>
</mgrwt>
</event>
<event>
 8    1  0.3520338E-004  0.1320757E+03  0.7546771E-02  0.1238219E+00
         -1   -1    0    0    0  501 -0.00000000000E+00  0.00000000000E+00  0.23495148592E+03  0.23495148592E+03  0.00000000000E+00 0.  1.
          1   -1    0    0  501    0  0.00000000000E+00 -0.00000000000E+00 -0.66096816876E+02  0.66096816876E+02  0.00000000000E+00 0. -1.
         25    2    1    2    0    0 -0.35629926996E+02 -0.23420953801E+02  0.39344767990E+02  0.13781148620E+03  0.12500384868E+03 0.  0.
         23    2    1    2    0    0  0.35629926996E+02  0.23420953801E+02  0.12950990105E+03  0.16323681660E+03  0.89751941752E+02 0.  0.
          5    1    3    3  502    0 -0.11632919374E+02  0.50764850766E+02  0.51584743922E+01  0.52546120166E+02  0.47000000000E+01 0. -1.
         -5    1    3    3    0  502 -0.23997007622E+02 -0.74185804567E+02  0.34186293598E+02  0.85265366029E+02  0.47000000000E+01 0. -1.
          5    1    4    4  503    0  0.57468040545E+02  0.27000470892E+02  0.51130930904E+02  0.81658209677E+02  0.47000000000E+01 0. -1.
         -5    1    4    4    0  503 -0.21838113549E+02 -0.35795170905E+01  0.78378970148E+02  0.81578606923E+02  0.47000000000E+01 0.  1.
<mgrwt>
<rscale>  0 0.12300586E+03</rscale>
<asrwt>0</asrwt>
<pdfrwt beam="1">  1        1 0.10168741E-01 0.13207572E+03</pdfrwt>
<pdfrwt beam="2">  1       -1 0.36146382E-01 0.13207572E+03</pdfrwt>
<totfact> 0.44255510E+03</totfact>
</mgrwt>
</event>
<event>
 8    1  0.3520338E-004  0.1323791E+03  0.7546771E-02  0.1236944E+00
          2   -1    0    0  501    0  0.00000000000E+00  0.00000000000E+00  0.78280176506E+03  0.78280176506E+03  0.00000000000E+00 0. -1.
         -2   -1    0    0    0  501 -0.00000000000E+00 -0.00000000000E+00 -0.19691083023E+02  0.19691083023E+02  0.00000000000E+00 0.  1.
         25    2    1    2    0    0 -0.28472915962E+02  0.32995212095E+02  0.29182068129E+03  0.32044269986E+03  0.12499929160E+03 0.  0.
         23    2    1    2    0    0  0.28472915962E+02 -0.32995212095E+02  0.47129000074E+03  0.48205014821E+03  0.91425869598E+02 0.  0.
          5    1    3    3  502    0  0.16446350898E+02 -0.29105832316E+02  0.22950002909E+02  0.40821863825E+02  0.47000000000E+01 0.  1.
         -5    1    4    4    0  503  0.57458213396E+02 -0.61514816163E+01  0.33846810090E+03  0.34339777568E+03  0.47000000000E+01 0.  1.
          5    1    4    4  503    0 -0.28985297434E+02 -0.26843730478E+02  0.13282189983E+03  0.13865237253E+03  0.47000000000E+01 0. -1.
         -5    1    3    3    0  502 -0.44919266860E+02  0.62101044410E+02  0.26887067839E+03  0.27962083604E+03  0.47000000000E+01 0.  1.
<mgrwt>
<rscale>  0 0.12380772E+03</rscale>
<asrwt>0</asrwt>
<pdfrwt beam="1">  1        2 0.12043102E+00 0.13237905E+03</pdfrwt>
<pdfrwt beam="2">  1       -2 0.30293980E-02 0.13237905E+03</pdfrwt>
<totfact> 0.14490903E+04</totfact>
</mgrwt>
</event>
<event>
 8    1  0.3520338E-004  0.1398307E+03  0.7546771E-02  0.1224613E+00
          2   -1    0    0  501    0  0.00000000000E+00  0.00000000000E+00  0.51811093226E+03  0.51811093226E+03  0.00000000000E+00 0. -1.
         -2   -1    0    0    0  501 -0.00000000000E+00 -0.00000000000E+00 -0.37326007709E+02  0.37326007709E+02  0.00000000000E+00 0.  1.
         25    2    1    2    0    0 -0.43207185255E+02  0.45398585261E+02  0.38268897354E+03  0.40743524945E+03  0.12499895850E+03 0.  0.
         23    2    1    2    0    0  0.43207185255E+02 -0.45398585261E+02  0.98095951008E+02  0.14800169052E+03  0.91399083091E+02 0.  0.
          5    1    4    4  502    0  0.48570434081E+02 -0.68148432368E+02  0.89597200290E+02  0.12269084807E+03  0.47000000000E+01 0. -1.
         -5    1    3    3    0  503  0.25588603392E+02 -0.71719770504E+01  0.17666754515E+02  0.32255512606E+02  0.47000000000E+01 0. -1.
          5    1    3    3  503    0 -0.68795788647E+02  0.52570562311E+02  0.36502221902E+03  0.37517973684E+03  0.47000000000E+01 0. -1.
         -5    1    4    4    0  502 -0.53632488256E+01  0.22749847108E+02  0.84987507182E+01  0.25310842443E+02  0.47000000000E+01 0.  1.
<mgrwt>
<rscale>  0 0.13193475E+03</rscale>
<asrwt>0</asrwt>
<pdfrwt beam="1">  1        2 0.79709369E-01 0.13983073E+03</pdfrwt>
<pdfrwt beam="2">  1       -2 0.57424631E-02 0.13983073E+03</pdfrwt>
<totfact> 0.90534365E+03</totfact>
</mgrwt>
</event>
<event>
 8    1  0.3520338E-004  0.1302826E+03  0.7546771E-02  0.1237404E+00
          1   -1    0    0  501    0  0.00000000000E+00  0.00000000000E+00  0.35110164906E+03  0.35110164906E+03  0.00000000000E+00 0. -1.
         -1   -1    0    0    0  501 -0.00000000000E+00 -0.00000000000E+00 -0.48492129638E+02  0.48492129638E+02  0.00000000000E+00 0.  1.
         25    2    1    2    0    0  0.19643476682E+01  0.36690164006E+02  0.25002228129E+03  0.28193031697E+03  0.12499414261E+03 0.  0.
         23    2    1    2    0    0 -0.19643476682E+01 -0.36690164006E+02  0.52587238125E+02  0.11766346173E+03  0.98636939406E+02 0.  0.
          5    1    4    4  502    0 -0.28666537776E+02 -0.21790846636E+02  0.72350752733E+02  0.80952657809E+02  0.47000000000E+01 0. -1.
         -5    1    4    4    0  502  0.26702190108E+02 -0.14899317369E+02 -0.19763514608E+02  0.36710803918E+02  0.47000000000E+01 0.  1.
          5    1    3    3  503    0  0.10259699161E+02 -0.21217585652E+02 -0.10846857275E+01  0.24056473368E+02  0.47000000000E+01 0.  1.
         -5    1    3    3    0  503 -0.82953514930E+01  0.57907749657E+02  0.25110696702E+03  0.25787384360E+03  0.47000000000E+01 0.  1.
<mgrwt>
<rscale>  0 0.12351758E+03</rscale>
<asrwt>0</asrwt>
<pdfrwt beam="1">  1        1 0.54015637E-01 0.13028263E+03</pdfrwt>
<pdfrwt beam="2">  1       -1 0.74603279E-02 0.13028263E+03</pdfrwt>
<totfact> 0.65450036E+03</totfact>
</mgrwt>
</event>
<event>
 8    1  0.3520338E-004  0.1691148E+03  0.7546771E-02  0.1185038E+00
         -2   -1    0    0    0  501 -0.00000000000E+00  0.00000000000E+00  0.17740570971E+03  0.17740570971E+03  0.00000000000E+00 0.  1.
          2   -1    0    0  501    0  0.00000000000E+00 -0.00000000000E+00 -0.14101336975E+03  0.14101336975E+03  0.00000000000E+00 0. -1.
         25    2    1    2    0    0 -0.66163115753E+02  0.92717501598E+02  0.25747310684E+02  0.17106353602E+03  0.12500286541E+03 0.  0.
         23    2    1    2    0    0  0.66163115753E+02 -0.92717501598E+02  0.10645029279E+02  0.14735554343E+03  0.92877589025E+02 0.  0.
          5    1    3    3  502    0 -0.34446601311E+02  0.11369326885E+03  0.46296749663E+02  0.12758607586E+03  0.47000000000E+01 0. -1.
         -5    1    4    4    0  503  0.10869151440E+02 -0.26673278159E+02 -0.38317374002E+02  0.48165479040E+02  0.47000000000E+01 0. -1.
          5    1    4    4  503    0  0.55293964313E+02 -0.66044223440E+02  0.48962403280E+02  0.99190064392E+02  0.47000000000E+01 0.  1.
         -5    1    3    3    0  502 -0.31716514442E+02 -0.20975767250E+02 -0.20549438978E+02  0.43477460165E+02  0.47000000000E+01 0. -1.
<mgrwt>
<rscale>  0 0.16328404E+03</rscale>
<asrwt>0</asrwt>
<pdfrwt beam="1">  1        2 0.21694364E-01 0.16911478E+03</pdfrwt>
<pdfrwt beam="2">  1       -2 0.27293186E-01 0.16911478E+03</pdfrwt>
<totfact> 0.29937199E+03</totfact>
</mgrwt>
</event>
<event>
 8    1  0.3520338E-004  0.1581150E+03  0.7546771E-02  0.1195905E+00
          1   -1    0    0  501    0  0.00000000000E+00  0.00000000000E+00  0.21516876217E+03  0.21516876217E+03  0.00000000000E+00 0. -1.
         -1   -1    0    0    0  501 -0.00000000000E+00 -0.00000000000E+00 -0.13138547121E+03  0.13138547121E+03  0.00000000000E+00 0.  1.
         25    2    1    2    0    0  0.96481199786E+02  0.81875105516E+01  0.12234572149E+03  0.19992207444E+03  0.12499881215E+03 0.  0.
         23    2    1    2    0    0 -0.96481199786E+02 -0.81875105516E+01 -0.38562430528E+02  0.14663215894E+03  0.10314199797E+03 0.  0.
          5    1    3    3  502    0  0.50387745184E+02 -0.26844071199E+02 -0.74060742198E+01  0.57762175847E+02  0.47000000000E+01 0.  1.
         -5    1    4    4    0  503  0.16025556628E+02 -0.13217859898E+02 -0.25401849836E+02  0.33149272399E+02  0.47000000000E+01 0.  1.
          5    1    4    4  503    0 -0.11250675641E+03  0.50303493460E+01 -0.13160580692E+02  0.11348288654E+03  0.47000000000E+01 0. -1.
         -5    1    3    3    0  502  0.46093454602E+02  0.35031581751E+02  0.12975179571E+03  0.14215989859E+03  0.47000000000E+01 0.  1.
<mgrwt>
<rscale>  0 0.15377877E+03</rscale>
<asrwt>0</asrwt>
<pdfrwt beam="1">  1        1 0.33102886E-01 0.15811502E+03</pdfrwt>
<pdfrwt beam="2">  1       -1 0.20213149E-01 0.15811502E+03</pdfrwt>
<totfact> 0.25873241E+03</totfact>
</mgrwt>
</event>
<event>
 8    1  0.3520338E-004  0.1781703E+03  0.7546771E-02  0.1175500E+00
         -1   -1    0    0    0  501 -0.00000000000E+00  0.00000000000E+00  0.16296332134E+03  0.16296332134E+03  0.00000000000E+00 0.  1.
          1   -1    0    0  501    0  0.00000000000E+00 -0.00000000000E+00 -0.20036166715E+03  0.20036166715E+03  0.00000000000E+00 0. -1.
         25    2    1    2    0    0  0.56262202139E+02 -0.11381861928E+03  0.49608854943E+02  0.18494783981E+03  0.12499820590E+03 0.  0.
         23    2    1    2    0    0 -0.56262202139E+02  0.11381861928E+03 -0.87007200747E+02  0.17837714868E+03  0.90155647095E+02 0.  0.
          5    1    3    3  502    0  0.34653695411E+02 -0.71174167719E+02  0.91590605280E+02  0.12115102035E+03  0.47000000000E+01 0. -1.
         -5    1    3    3    0  502  0.21608506728E+02 -0.42644451565E+02 -0.41981750337E+02  0.63796819464E+02  0.47000000000E+01 0. -1.
          5    1    4    4  503    0 -0.16981491751E+02  0.87494095021E+02 -0.94823490764E+02  0.13021970713E+03  0.47000000000E+01 0. -1.
         -5    1    4    4    0  503 -0.39280710389E+02  0.26324524263E+02  0.78162900168E+01  0.48157441543E+02  0.47000000000E+01 0.  1.
<mgrwt>
<rscale>  0 0.17227068E+03</rscale>
<asrwt>0</asrwt>
<pdfrwt beam="1">  1        1 0.30824872E-01 0.17817033E+03</pdfrwt>
<pdfrwt beam="2">  1       -1 0.25071280E-01 0.17817033E+03</pdfrwt>
<totfact> 0.19979545E+03</totfact>
</mgrwt>
</event>
<event>
 8    1  0.3520338E-004  0.3619102E+03  0.7546771E-02  0.1058870E+00
          2   -1    0    0  501    0  0.00000000000E+00  0.00000000000E+00  0.90700502001E+02  0.90700502001E+02  0.00000000000E+00 0. -1.
         -2   -1    0    0    0  501 -0.00000000000E+00 -0.00000000000E+00 -0.14835531997E+04  0.14835531997E+04  0.00000000000E+00 0.  1.
         25    2    1    2    0    0  0.28321433875E+03  0.18747924898E+03 -0.52246576212E+03  0.63557020169E+03  0.12498071140E+03 0.  0.
         23    2    1    2    0    0 -0.28321433875E+03 -0.18747924898E+03 -0.87038693563E+03  0.93868350006E+03  0.90523284848E+02 0.  0.
          5    1    4    4  502    0 -0.17259075468E+03 -0.12213431156E+03 -0.64996303819E+03  0.68350449865E+03  0.47000000000E+01 0. -1.
         -5    1    4    4    0  502 -0.11062358407E+03 -0.65344937414E+02 -0.22042389743E+03  0.25517900140E+03  0.47000000000E+01 0.  1.
          5    1    3    3  503    0  0.10444090990E+02  0.53797166028E+02 -0.53024222543E+02  0.76399425951E+02  0.47000000000E+01 0.  1.
         -5    1    3    3    0  503  0.27277024776E+03  0.13368208295E+03 -0.46944153957E+03  0.55917077574E+03  0.47000000000E+01 0.  1.
<mgrwt>
<rscale>  0 0.35927949E+03</rscale>
<asrwt>0</asrwt>
<pdfrwt beam="1">  1        2 0.13953925E-01 0.36191022E+03</pdfrwt>
<pdfrwt beam="2">  1       -2 0.22823893E+00 0.36191022E+03</pdfrwt>
<totfact> 0.40621821E+01</totfact>
</mgrwt>
</event>
<event>
 8    1  0.3520338E-004  0.1367709E+03  0.7546771E-02  0.1230496E+00
          2   -1    0    0  501    0  0.00000000000E+00  0.00000000000E+00  0.35704237677E+02  0.35704237677E+02  0.00000000000E+00 0. -1.
         -2   -1    0    0    0  501 -0.00000000000E+00 -0.00000000000E+00 -0.44566727654E+03  0.44566727654E+03  0.00000000000E+00 0.  1.
         25    2    1    2    0    0 -0.16564140454E+02  0.52977638313E+02 -0.29858417409E+03  0.32841859645E+03  0.12500105825E+03 0.  0.
         23    2    1    2    0    0  0.16564140454E+02 -0.52977638313E+02 -0.11137886477E+03  0.15295291777E+03  0.88928862729E+02 0.  0.
          5    1    4    4  502    0 -0.29294188252E+02 -0.35092919950E+02 -0.22318451223E+02  0.51086845283E+02  0.47000000000E+01 0. -1.
         -5    1    3    3    0  503  0.13402860475E+02 -0.35479988809E+02 -0.50762610715E+02  0.63540529753E+02  0.47000000000E+01 0.  1.
          5    1    3    3  503    0 -0.29967000928E+02  0.88457627122E+02 -0.24782156338E+03  0.26487806669E+03  0.47000000000E+01 0.  1.
         -5    1    4    4    0  502  0.45858328706E+02 -0.17884718363E+02 -0.89060413545E+02  0.10186607248E+03  0.47000000000E+01 0.  1.
<mgrwt>
<rscale>  0 0.12797249E+03</rscale>
<asrwt>0</asrwt>
<pdfrwt beam="1">  1        2 0.54929597E-02 0.13677085E+03</pdfrwt>
<pdfrwt beam="2">  1       -2 0.68564195E-01 0.13677085E+03</pdfrwt>
<totfact> 0.26526036E+03</totfact>
</mgrwt>
</event>
<event>
 8    1  0.3520338E-004  0.1311205E+03  0.7546771E-02  0.1238795E+00
          2   -1    0    0  501    0  0.00000000000E+00  0.00000000000E+00  0.30487217618E+03  0.30487217618E+03  0.00000000000E+00 0. -1.
         -2   -1    0    0    0  501 -0.00000000000E+00 -0.00000000000E+00 -0.43942859721E+02  0.43942859721E+02  0.00000000000E+00 0.  1.
         25    2    1    2    0    0  0.48661200841E+01 -0.39311503860E+02  0.14812539934E+03  0.19782247158E+03  0.12499409135E+03 0.  0.
         23    2    1    2    0    0 -0.48661200841E+01  0.39311503860E+02  0.11280391711E+03  0.15099256431E+03  0.92222325402E+02 0.  0.
          5    1    4    4  502    0  0.22397354172E+02  0.52868468623E+02  0.10410092363E+03  0.11897818602E+03  0.47000000000E+01 0. -1.
         -5    1    4    4    0  502 -0.27263474256E+02 -0.13556964763E+02  0.87029934835E+01  0.32014378296E+02  0.47000000000E+01 0.  1.
          5    1    3    3  503    0  0.22049588853E+02 -0.59788156562E+02  0.15680724569E+03  0.16932634271E+03  0.47000000000E+01 0.  1.
         -5    1    3    3    0  503 -0.17183468769E+02  0.20476652702E+02 -0.86818463470E+01  0.28496128874E+02  0.47000000000E+01 0.  1.
<mgrwt>
<rscale>  0 0.12264602E+03</rscale>
<asrwt>0</asrwt>
<pdfrwt beam="1">  1        2 0.46903410E-01 0.13112054E+03</pdfrwt>
<pdfrwt beam="2">  1       -2 0.67604402E-02 0.13112054E+03</pdfrwt>
<totfact> 0.12424050E+04</totfact>
</mgrwt>
</event>
<event>
 8    1  0.3520338E-004  0.2997208E+03  0.7546771E-02  0.1086842E+00
         -2   -1    0    0    0  501 -0.00000000000E+00  0.00000000000E+00  0.84948094560E+02  0.84948094560E+02  0.00000000000E+00 0. -1.
          2   -1    0    0  501    0  0.00000000000E+00 -0.00000000000E+00 -0.10177189468E+04  0.10177189468E+04  0.00000000000E+00 0.  1.
         25    2    1    2    0    0 -0.26412707759E+03  0.66658743440E+02 -0.46741167192E+03  0.55525328977E+03  0.12500417421E+03 0.  0.
         23    2    1    2    0    0  0.26412707759E+03 -0.66658743440E+02 -0.46535918032E+03  0.54741375159E+03  0.94319391031E+02 0.  0.
          5    1    3    3  502    0 -0.24970001466E+03  0.21403338220E+02 -0.41046058713E+03  0.48094509437E+03  0.47000000000E+01 0.  1.
         -5    1    4    4    0  503  0.24636432957E+03 -0.31463976285E+02 -0.40739142618E+03  0.47715325506E+03  0.47000000000E+01 0.  1.
          5    1    4    4  503    0  0.17762748021E+02 -0.35194767155E+02 -0.57967754144E+02  0.70260496532E+02  0.47000000000E+01 0. -1.
         -5    1    3    3    0  502 -0.14427062929E+02  0.45255405220E+02 -0.56951084783E+02  0.74308195405E+02  0.47000000000E+01 0.  1.
<mgrwt>
<rscale>  0 0.29681750E+03</rscale>
<asrwt>0</asrwt>
<pdfrwt beam="1">  1        2 0.15657215E+00 0.29972078E+03</pdfrwt>
<pdfrwt beam="2">  1       -2 0.13068937E-01 0.29972078E+03</pdfrwt>
<totfact> 0.11016021E+03</totfact>
</mgrwt>
</event>
<event>
 8    1  0.3520338E-004  0.1258654E+03  0.7546771E-02  0.1249020E+00
          1   -1    0    0  501    0  0.00000000000E+00  0.00000000000E+00  0.11132642260E+03  0.11132642260E+03  0.00000000000E+00 0. -1.
         -1   -1    0    0    0  501 -0.00000000000E+00 -0.00000000000E+00 -0.10764037618E+03  0.10764037618E+03  0.00000000000E+00 0.  1.
         25    2    1    2    0    0  0.14494062244E+02 -0.26381230261E+01 -0.68469895404E+01  0.12605154172E+03  0.12500028948E+03 0.  0.
         23    2    1    2    0    0 -0.14494062244E+02  0.26381230261E+01  0.10533035959E+02  0.92915257058E+02  0.91133213562E+02 0.  0.
          5    1    4    4  502    0  0.13360117504E+02 -0.21567147568E+02  0.38520111410E+02  0.46362954791E+02  0.47000000000E+01 0. -1.
         -5    1    4    4    0  502 -0.27854179748E+02  0.24205270594E+02 -0.27987075451E+02  0.46552302266E+02  0.47000000000E+01 0.  1.
          5    1    3    3  503    0 -0.48826303567E+02  0.19323354633E+02 -0.22085198113E+02  0.57159827938E+02  0.47000000000E+01 0. -1.
         -5    1    3    3    0  503  0.63320365811E+02 -0.21961477659E+02  0.15238208572E+02  0.68891713782E+02  0.47000000000E+01 0. -1.
<mgrwt>
<rscale>  0 0.11647950E+03</rscale>
<asrwt>0</asrwt>
<pdfrwt beam="1">  1        1 0.17127142E-01 0.12586544E+03</pdfrwt>
<pdfrwt beam="2">  1       -1 0.16560058E-01 0.12586544E+03</pdfrwt>
<totfact> 0.80511705E+03</totfact>
</mgrwt>
</event>
<event>
 8    1  0.3520338E-004  0.1482274E+03  0.7546771E-02  0.1211948E+00
          2   -1    0    0  501    0  0.00000000000E+00  0.00000000000E+00  0.40326890663E+03  0.40326890663E+03  0.00000000000E+00 0. -1.
         -2   -1    0    0    0  501 -0.00000000000E+00 -0.00000000000E+00 -0.45805367630E+02  0.45805367630E+02  0.00000000000E+00 0.  1.
         25    2    1    2    0    0 -0.79494684442E+02 -0.51967360155E+01  0.16831421110E+03  0.22427893957E+03  0.12499983264E+03 0.  0.
         23    2    1    2    0    0  0.79494684442E+02  0.51967360155E+01  0.18914932791E+03  0.22479533469E+03  0.91700945094E+02 0.  0.
          5    1    4    4  502    0  0.40641353554E+02  0.14225696686E+02  0.17788278420E+03  0.18308048770E+03  0.47000000000E+01 0. -1.
         -5    1    3    3    0  503 -0.31298442126E+02  0.49764545105E+02  0.26484339805E+02  0.64649924083E+02  0.47000000000E+01 0. -1.
          5    1    3    3  503    0 -0.48196242316E+02 -0.54961281120E+02  0.14182987129E+03  0.15962901549E+03  0.47000000000E+01 0. -1.
         -5    1    4    4    0  502  0.38853330888E+02 -0.90289606707E+01  0.11266543712E+02  0.41714846987E+02  0.47000000000E+01 0.  1.
<mgrwt>
<rscale>  0 0.14103132E+03</rscale>
<asrwt>0</asrwt>
<pdfrwt beam="1">  1        2 0.62041368E-01 0.14822742E+03</pdfrwt>
<pdfrwt beam="2">  1       -2 0.70469799E-02 0.14822742E+03</pdfrwt>
<totfact> 0.87361466E+03</totfact>
</mgrwt>
</event>
<event>
 8    1  0.3520338E-004  0.1974006E+03  0.7546771E-02  0.1155963E+00
         -3   -1    0    0    0  501 -0.00000000000E+00  0.00000000000E+00  0.78191068911E+03  0.78191068911E+03  0.00000000000E+00 0.  1.
          3   -1    0    0  501    0  0.00000000000E+00 -0.00000000000E+00 -0.46796821920E+02  0.46796821920E+02  0.00000000000E+00 0. -1.
         25    2    1    2    0    0  0.10799991705E+03 -0.10806912029E+03  0.45468530792E+03  0.49568710943E+03  0.12499625743E+03 0.  0.
         23    2    1    2    0    0 -0.10799991705E+03  0.10806912029E+03  0.28042855927E+03  0.33302040160E+03  0.94443073782E+02 0.  0.
          5    1    3    3  502    0  0.10412487984E+03 -0.13454114999E+03  0.38840316732E+03  0.42405473943E+03  0.47000000000E+01 0.  1.
         -5    1    3    3    0  502  0.38750372112E+01  0.26472029704E+02  0.66282140601E+02  0.71632370006E+02  0.47000000000E+01 0.  1.
          5    1    4    4  503    0 -0.77376720727E+02  0.12280223984E+03  0.22265212205E+03  0.26582626747E+03  0.47000000000E+01 0. -1.
         -5    1    4    4    0  503 -0.30623196327E+02 -0.14733119550E+02  0.57776437213E+02  0.67194134133E+02  0.47000000000E+01 0.  1.
<mgrwt>
<rscale>  0 0.19279616E+03</rscale>
<asrwt>0</asrwt>
<pdfrwt beam="1">  1        3 0.71995116E-02 0.19740056E+03</pdfrwt>
<pdfrwt beam="2">  1       -3 0.12029394E+00 0.19740056E+03</pdfrwt>
<totfact> 0.18174853E+02</totfact>
</mgrwt>
</event>
<event>
 8    1  0.3520338E-004  0.1632822E+03  0.7546771E-02  0.1192172E+00
         -4   -1    0    0    0  501 -0.00000000000E+00  0.00000000000E+00  0.60528301701E+03  0.60528301701E+03  0.00000000000E+00 0. -1.
          4   -1    0    0  501    0  0.00000000000E+00 -0.00000000000E+00 -0.39849790322E+02  0.39849790322E+02  0.00000000000E+00 0.  1.
         25    2    1    2    0    0 -0.10504288705E+03  0.71383106488E+00  0.23177622952E+03  0.28351594043E+03  0.12500620076E+03 0.  0.
         23    2    1    2    0    0  0.10504288705E+03 -0.71383106488E+00  0.33365699716E+03  0.36161686690E+03  0.91680145057E+02 0.  0.
          5    1    4    4  502    0  0.53970151359E+02 -0.39400333585E+02  0.23098704766E+03  0.24050419895E+03  0.47000000000E+01 0. -1.
         -5    1    4    4    0  502  0.51072735693E+02  0.38686502520E+02  0.10266994950E+03  0.12111266795E+03  0.47000000000E+01 0.  1.
          5    1    3    3  503    0 -0.59466163957E+02  0.59597811657E+02  0.15504353033E+03  0.17648997169E+03  0.47000000000E+01 0. -1.
         -5    1    3    3    0  503 -0.45576723096E+02 -0.58883980592E+02  0.76732699193E+02  0.10702596874E+03  0.47000000000E+01 0. -1.
<mgrwt>
<rscale>  0 0.15696053E+03</rscale>
<asrwt>0</asrwt>
<pdfrwt beam="1">  1        4 0.61307374E-02 0.16328217E+03</pdfrwt>
<pdfrwt beam="2">  1       -4 0.93120457E-01 0.16328217E+03</pdfrwt>
<totfact> 0.29772332E+02</totfact>
</mgrwt>
</event>
<event>
 8    1  0.3520338E-004  0.1482063E+03  0.7546771E-02  0.1212251E+00
         -1   -1    0    0    0  501 -0.00000000000E+00  0.00000000000E+00  0.21891821209E+03  0.21891821209E+03  0.00000000000E+00 0.  1.
          1   -1    0    0  501    0  0.00000000000E+00 -0.00000000000E+00 -0.98340610339E+02  0.98340610339E+02  0.00000000000E+00 0. -1.
         25    2    1    2    0    0 -0.23440212173E+02 -0.76093722542E+02  0.12863731128E+03  0.19624647268E+03  0.12500168810E+03 0.  0.
         23    2    1    2    0    0  0.23440212173E+02  0.76093722542E+02 -0.80597095315E+01  0.12101234975E+03  0.90770764662E+02 0.  0.
          5    1    4    4  502    0  0.95147820517E+01  0.53448946766E+02 -0.48124801377E+02  0.72700808080E+02  0.47000000000E+01 0. -1.
         -5    1    3    3    0  503  0.40116164772E+02 -0.73225433239E+02  0.82878575282E+02  0.11773792503E+03  0.47000000000E+01 0.  1.
          5    1    3    3  503    0 -0.63556376945E+02 -0.28682893028E+01  0.45758736002E+02  0.78508547652E+02  0.47000000000E+01 0.  1.
         -5    1    4    4    0  502  0.13925430121E+02  0.22644775776E+02  0.40065091845E+02  0.48311541670E+02  0.47000000000E+01 0.  1.
<mgrwt>
<rscale>  0 0.14080438E+03</rscale>
<asrwt>0</asrwt>
<pdfrwt beam="1">  1        1 0.15129325E-01 0.14820634E+03</pdfrwt>
<pdfrwt beam="2">  1       -1 0.33679725E-01 0.14820634E+03</pdfrwt>
<totfact> 0.29873977E+03</totfact>
</mgrwt>
</event>
<event>
 8    1  0.3520338E-004  0.1257525E+03  0.7546771E-02  0.1247717E+00
          2   -1    0    0  501    0  0.00000000000E+00  0.00000000000E+00  0.25798200958E+03  0.25798200958E+03  0.00000000000E+00 0. -1.
         -2   -1    0    0    0  501 -0.00000000000E+00 -0.00000000000E+00 -0.49788584452E+02  0.49788584452E+02  0.00000000000E+00 0.  1.
         25    2    1    2    0    0  0.12017504901E+02  0.66782953907E+01  0.83280682670E+02  0.15082894275E+03  0.12499871124E+03 0.  0.
         23    2    1    2    0    0 -0.12017504901E+02 -0.66782953907E+01  0.12491274246E+03  0.15694165128E+03  0.94013130070E+02 0.  0.
          5    1    3    3  502    0 -0.35686589985E+02  0.93721406829E+00  0.94618245389E+02  0.10123790513E+03  0.47000000000E+01 0.  1.
         -5    1    3    3    0  502  0.47704094886E+02  0.57410813224E+01 -0.11337562719E+02  0.49591037618E+02  0.47000000000E+01 0.  1.
          5    1    4    4  503    0  0.16825461662E+02 -0.43765459593E+02  0.53074318805E+02  0.70975241670E+02  0.47000000000E+01 0. -1.
         -5    1    4    4    0  503 -0.28842966563E+02  0.37087164202E+02  0.71838423652E+02  0.85966409612E+02  0.47000000000E+01 0.  1.
<mgrwt>
<rscale>  0 0.11724205E+03</rscale>
<asrwt>0</asrwt>
<pdfrwt beam="1">  1        2 0.39689539E-01 0.12575253E+03</pdfrwt>
<pdfrwt beam="2">  1       -2 0.76597824E-02 0.12575253E+03</pdfrwt>
<totfact> 0.12202915E+04</totfact>
</mgrwt>
</event>
<event>
 8    1  0.3520338E-004  0.3549953E+03  0.7546771E-02  0.1061690E+00
          2   -1    0    0  501    0  0.00000000000E+00  0.00000000000E+00  0.74210795214E+03  0.74210795214E+03  0.00000000000E+00 0. -1.
         -2   -1    0    0    0  501 -0.00000000000E+00 -0.00000000000E+00 -0.26670899465E+03  0.26670899465E+03  0.00000000000E+00 0.  1.
         25    2    1    2    0    0 -0.26792824195E+03 -0.19649163702E+03  0.55191040717E+03  0.65622155780E+03  0.12500851620E+03 0.  0.
         23    2    1    2    0    0  0.26792824195E+03  0.19649163702E+03 -0.76511449675E+02  0.35259538899E+03  0.89861004632E+02 0.  0.
          5    1    3    3  502    0 -0.18689730078E+03 -0.19924599506E+03  0.40952889131E+03  0.49230637859E+03  0.47000000000E+01 0.  1.
         -5    1    3    3    0  502 -0.81030941175E+02  0.27543580383E+01  0.14238151586E+03  0.16391517921E+03  0.47000000000E+01 0.  1.
          5    1    4    4  503    0  0.19793825546E+03  0.98725919997E+02 -0.28617502768E+02  0.22308610830E+03  0.47000000000E+01 0. -1.
         -5    1    4    4    0  503  0.69989986493E+02  0.97765717024E+02 -0.47893946906E+02  0.12950928069E+03  0.47000000000E+01 0.  1.
<mgrwt>
<rscale>  0 0.35226358E+03</rscale>
<asrwt>0</asrwt>
<pdfrwt beam="1">  1        2 0.11417045E+00 0.35499526E+03</pdfrwt>
<pdfrwt beam="2">  1       -2 0.41032153E-01 0.35499526E+03</pdfrwt>
<totfact> 0.22147981E+02</totfact>
</mgrwt>
</event>
<event>
 8    1  0.3520338E-004  0.1648421E+03  0.7546771E-02  0.1190903E+00
         -2   -1    0    0    0  501 -0.00000000000E+00  0.00000000000E+00  0.27294819028E+02  0.27294819028E+02  0.00000000000E+00 0.  1.
          2   -1    0    0  501    0  0.00000000000E+00 -0.00000000000E+00 -0.94626715588E+03  0.94626715588E+03  0.00000000000E+00 0. -1.
         25    2    1    2    0    0 -0.53184280247E+02 -0.93378257172E+02 -0.33721726299E+03  0.37535102109E+03  0.12499935998E+03 0.  0.
         23    2    1    2    0    0  0.53184280247E+02  0.93378257172E+02 -0.58175507386E+03  0.59821095381E+03  0.88709146810E+02 0.  0.
          5    1    3    3  502    0 -0.54643094001E+02 -0.46828538216E+02 -0.58867147929E+02  0.93092485297E+02  0.47000000000E+01 0. -1.
         -5    1    3    3    0  502  0.14588137542E+01 -0.46549718957E+02 -0.27835011506E+03  0.28225853579E+03  0.47000000000E+01 0. -1.
          5    1    4    4  503    0  0.65944262576E+02  0.67884531749E+02 -0.53440868443E+03  0.54274458764E+03  0.47000000000E+01 0. -1.
         -5    1    4    4    0  503 -0.12759982329E+02  0.25493725423E+02 -0.47346389428E+02  0.55466366177E+02  0.47000000000E+01 0.  1.
<mgrwt>
<rscale>  0 0.15806105E+03</rscale>
<asrwt>0</asrwt>
<pdfrwt beam="1">  1        2 0.14557955E+00 0.16484207E+03</pdfrwt>
<pdfrwt beam="2">  1       -2 0.41992034E-02 0.16484207E+03</pdfrwt>
<totfact> 0.70840014E+03</totfact>
</mgrwt>
</event>
<event>
 8    1  0.3520338E-004  0.1385121E+03  0.7546771E-02  0.1226871E+00
          1   -1    0    0  501    0  0.00000000000E+00  0.00000000000E+00  0.83902449655E+03  0.83902449655E+03  0.00000000000E+00 0. -1.
         -1   -1    0    0    0  501 -0.00000000000E+00 -0.00000000000E+00 -0.18318302480E+02  0.18318302480E+02  0.00000000000E+00 0.  1.
         25    2    1    2    0    0 -0.59043133319E+02 -0.84842679402E+01  0.49019723083E+03  0.50939074655E+03  0.12501013221E+03 0.  0.
         23    2    1    2    0    0  0.59043133319E+02  0.84842679402E+01  0.33050896324E+03  0.34795205249E+03  0.90974620935E+02 0.  0.
          5    1    4    4  502    0  0.24950862263E+02  0.48009201236E+02  0.13432502686E+03  0.14488868752E+03  0.47000000000E+01 0. -1.
         -5    1    4    4    0  502  0.34092271056E+02 -0.39524933296E+02  0.19618393638E+03  0.20306336496E+03  0.47000000000E+01 0.  1.
          5    1    3    3  503    0 -0.97044086160E+01  0.56066741333E+02  0.20774191886E+03  0.21544477223E+03  0.47000000000E+01 0.  1.
         -5    1    3    3    0  503 -0.49338724703E+02 -0.64551009273E+02  0.28245531197E+03  0.29394597432E+03  0.47000000000E+01 0.  1.
<mgrwt>
<rscale>  0 0.13039453E+03</rscale>
<asrwt>0</asrwt>
<pdfrwt beam="1">  1        1 0.12908066E+00 0.13851212E+03</pdfrwt>
<pdfrwt beam="2">  1       -1 0.28182010E-02 0.13851212E+03</pdfrwt>
<totfact> 0.85381587E+03</totfact>
</mgrwt>
</event>
<event>
 8    1  0.3520338E-004  0.1264843E+03  0.7546771E-02  0.1249867E+00
         -3   -1    0    0    0  501 -0.00000000000E+00  0.00000000000E+00  0.14762484553E+03  0.14762484553E+03  0.00000000000E+00 0.  1.
          3   -1    0    0  501    0  0.00000000000E+00 -0.00000000000E+00 -0.83041590897E+02  0.83041590897E+02  0.00000000000E+00 0. -1.
         25    2    1    2    0    0 -0.15060009119E+02 -0.12110932714E+02  0.62780655993E+02  0.14120793657E+03  0.12499916807E+03 0.  0.
         23    2    1    2    0    0  0.15060009119E+02  0.12110932714E+02  0.18025986436E+01  0.89458499858E+02  0.87327517250E+02 0.  0.
          5    1    4    4  502    0  0.42328635699E+02  0.80918300554E+01 -0.25569591618E+02  0.50329763851E+02  0.47000000000E+01 0. -1.
         -5    1    3    3    0  503 -0.56800569061E+02 -0.37191440706E+02  0.92369333718E+01  0.68679828520E+02  0.47000000000E+01 0. -1.
          5    1    3    3  503    0  0.41740559943E+02  0.25080507992E+02  0.53543722621E+02  0.72528108052E+02  0.47000000000E+01 0. -1.
         -5    1    4    4    0  502 -0.27268626580E+02  0.40191026582E+01  0.27372190262E+02  0.39128736007E+02  0.47000000000E+01 0.  1.
<mgrwt>
<rscale>  0 0.11598738E+03</rscale>
<asrwt>0</asrwt>
<pdfrwt beam="1">  1        3 0.12775629E-01 0.12648427E+03</pdfrwt>
<pdfrwt beam="2">  1       -3 0.22711515E-01 0.12648427E+03</pdfrwt>
<totfact> 0.19775973E+03</totfact>
</mgrwt>
</event>
<event>
 8    1  0.3520338E-004  0.1346825E+03  0.7546771E-02  0.1234132E+00
          1   -1    0    0  501    0  0.00000000000E+00  0.00000000000E+00  0.14999885548E+02  0.14999885548E+02  0.00000000000E+00 0. -1.
         -1   -1    0    0    0  501 -0.00000000000E+00 -0.00000000000E+00 -0.10245037578E+04  0.10245037578E+04  0.00000000000E+00 0.  1.
         25    2    1    2    0    0 -0.48707344777E+02 -0.11864335355E+02 -0.72276854579E+03  0.73521000267E+03  0.12500483734E+03 0.  0.
         23    2    1    2    0    0  0.48707344777E+02  0.11864335355E+02 -0.28673532650E+03  0.30429364071E+03  0.88680913540E+02 0.  0.
          5    1    3    3  502    0  0.36411277837E+02 -0.20815044836E+02 -0.35933835281E+03  0.36180822136E+03  0.47000000000E+01 0. -1.
         -5    1    3    3    0  502 -0.85118622615E+02  0.89507094810E+01 -0.36343019298E+03  0.37340178131E+03  0.47000000000E+01 0. -1.
          5    1    4    4  503    0 -0.93491844186E+01  0.29308699514E+02 -0.16840080656E+03  0.17125223726E+03  0.47000000000E+01 0.  1.
         -5    1    4    4    0  503  0.58056529196E+02 -0.17444364159E+02 -0.11833451994E+03  0.13304140345E+03  0.47000000000E+01 0. -1.
<mgrwt>
<rscale>  0 0.12560150E+03</rscale>
<asrwt>0</asrwt>
<pdfrwt beam="1">  1        1 0.23076744E-02 0.13468251E+03</pdfrwt>
<pdfrwt beam="2">  1       -1 0.15761598E+00 0.13468251E+03</pdfrwt>
<totfact> 0.15924719E+03</totfact>
</mgrwt>
</event>
<event>
 8    1  0.3520338E-004  0.1570006E+03  0.7546771E-02  0.1200140E+00
         -2   -1    0    0    0  501 -0.00000000000E+00  0.00000000000E+00  0.17858357753E+02  0.17858357753E+02  0.00000000000E+00 0.  1.
          2   -1    0    0  501    0  0.00000000000E+00 -0.00000000000E+00 -0.11739867534E+04  0.11739867534E+04  0.00000000000E+00 0. -1.
         25    2    1    2    0    0  0.33816273157E+02 -0.88793213814E+02 -0.58352919435E+03  0.60428098977E+03  0.12498567430E+03 0.  0.
         23    2    1    2    0    0 -0.33816273157E+02  0.88793213814E+02 -0.57259920134E+03  0.58756412143E+03  0.91290614369E+02 0.  0.
          5    1    4    4  502    0  0.19569673982E+02  0.72469092020E+02 -0.35383499264E+03  0.36174028454E+03  0.47000000000E+01 0. -1.
         -5    1    4    4    0  502 -0.53385947140E+02  0.16324121794E+02 -0.21876420870E+03  0.22582383690E+03  0.47000000000E+01 0.  1.
          5    1    3    3  503    0  0.72405571590E+02 -0.89818060025E+02 -0.47991512490E+03  0.49360963099E+03  0.47000000000E+01 0.  1.
         -5    1    3    3    0  503 -0.38589298433E+02  0.10248462107E+01 -0.10361406946E+03  0.11067135877E+03  0.47000000000E+01 0.  1.
<mgrwt>
<rscale>  0 0.15027101E+03</rscale>
<asrwt>0</asrwt>
<pdfrwt beam="1">  1        2 0.18061336E+00 0.15700062E+03</pdfrwt>
<pdfrwt beam="2">  1       -2 0.27474394E-02 0.15700062E+03</pdfrwt>
<totfact> 0.97450828E+03</totfact>
</mgrwt>
</event>
<event>
 8    1  0.3520338E-004  0.1349054E+03  0.7546771E-02  0.1232048E+00
          1   -1    0    0  501    0  0.00000000000E+00  0.00000000000E+00  0.35364683416E+03  0.35364683416E+03  0.00000000000E+00 0. -1.
         -1   -1    0    0    0  501 -0.00000000000E+00 -0.00000000000E+00 -0.41611505096E+02  0.41611505096E+02  0.00000000000E+00 0.  1.
         25    2    1    2    0    0 -0.14327330130E+02  0.48679562211E+02  0.19916474974E+03  0.24055368885E+03  0.12499803005E+03 0.  0.
         23    2    1    2    0    0  0.14327330130E+02 -0.48679562211E+02  0.11287057932E+03  0.15470465040E+03  0.92837433251E+02 0.  0.
          5    1    3    3  502    0  0.43709285503E+02 -0.15174987408E+02  0.90180982936E+02  0.10146665248E+03  0.47000000000E+01 0.  1.
         -5    1    3    3    0  502 -0.58036615634E+02  0.63854549619E+02  0.10898376680E+03  0.13908703637E+03  0.47000000000E+01 0.  1.
          5    1    4    4  503    0  0.25473894619E+02 -0.71335867471E+02  0.10119438379E+03  0.12649157524E+03  0.47000000000E+01 0. -1.
         -5    1    4    4    0  503 -0.11146564488E+02  0.22656305260E+02  0.11676195527E+02  0.28213075159E+02  0.47000000000E+01 0.  1.
<mgrwt>
<rscale>  0 0.12695334E+03</rscale>
<asrwt>0</asrwt>
<pdfrwt beam="1">  1        1 0.54407203E-01 0.13490545E+03</pdfrwt>
<pdfrwt beam="2">  1       -1 0.64017703E-02 0.13490545E+03</pdfrwt>
<totfact> 0.81758187E+03</totfact>
</mgrwt>
</event>
<event>
 8    1  0.3520338E-004  0.1302908E+03  0.7546771E-02  0.1240383E+00
         -1   -1    0    0    0  501 -0.00000000000E+00  0.00000000000E+00  0.30665198263E+02  0.30665198263E+02  0.00000000000E+00 0.  1.
          1   -1    0    0  501    0  0.00000000000E+00 -0.00000000000E+00 -0.45048304592E+03  0.45048304592E+03  0.00000000000E+00 0. -1.
         25    2    1    2    0    0  0.30587338266E+02  0.20359780254E+02 -0.28944032952E+03  0.31741360366E+03  0.12500234208E+03 0.  0.
         23    2    1    2    0    0 -0.30587338266E+02 -0.20359780254E+02 -0.13037751814E+03  0.16373464052E+03  0.91981679453E+02 0.  0.
          5    1    4    4  502    0  0.21194655060E+02  0.18899573291E+02 -0.18337511788E+02  0.34128604019E+02  0.47000000000E+01 0. -1.
         -5    1    4    4    0  502 -0.51781993326E+02 -0.39259353545E+02 -0.11204000635E+03  0.12960603650E+03  0.47000000000E+01 0.  1.
          5    1    3    3  503    0  0.64841488255E+02  0.49083182657E+02 -0.14715576692E+03  0.16819776205E+03  0.47000000000E+01 0. -1.
         -5    1    3    3    0  503 -0.34254149990E+02 -0.28723402403E+02 -0.14228456259E+03  0.14921584162E+03  0.47000000000E+01 0. -1.
<mgrwt>
<rscale>  0 0.12166005E+03</rscale>
<asrwt>0</asrwt>
<pdfrwt beam="1">  1        1 0.69305079E-01 0.13029080E+03</pdfrwt>
<pdfrwt beam="2">  1       -1 0.47177231E-02 0.13029080E+03</pdfrwt>
<totfact> 0.94545842E+03</totfact>
</mgrwt>
</event>
<event>
 8    1  0.3520338E-004  0.1662655E+03  0.7546771E-02  0.1188515E+00
          2   -1    0    0  501    0  0.00000000000E+00  0.00000000000E+00  0.22900718078E+03  0.22900718078E+03  0.00000000000E+00 0.  1.
         -2   -1    0    0    0  501 -0.00000000000E+00 -0.00000000000E+00 -0.17431213270E+03  0.17431213270E+03  0.00000000000E+00 0. -1.
         25    2    1    2    0    0  0.10691775165E+03 -0.24262740548E+02 -0.98816127253E+02  0.19341365394E+03  0.12499651326E+03 0.  0.
         23    2    1    2    0    0 -0.10691775165E+03  0.24262740548E+02  0.15351117534E+03  0.20990565954E+03  0.92057692544E+02 0.  0.
          5    1    4    4  502    0 -0.56916756398E+02 -0.21747526841E+02  0.28251421810E+02  0.67325366073E+02  0.47000000000E+01 0. -1.
         -5    1    3    3    0  503  0.19439916803E+02 -0.54943129906E+02 -0.87607136714E+00  0.58476622595E+02  0.47000000000E+01 0.  1.
          5    1    3    3  503    0  0.87477834850E+02  0.30680389357E+02 -0.97940055885E+02  0.13493703134E+03  0.47000000000E+01 0.  1.
         -5    1    4    4    0  502 -0.50000995255E+02  0.46010267389E+02  0.12525975353E+03  0.14258029347E+03  0.47000000000E+01 0.  1.
<mgrwt>
<rscale>  0 0.16016101E+03</rscale>
<asrwt>0</asrwt>
<pdfrwt beam="1">  1        2 0.35231874E-01 0.16626549E+03</pdfrwt>
<pdfrwt beam="2">  1       -2 0.26817251E-01 0.16626549E+03</pdfrwt>
<totfact> 0.18109340E+03</totfact>
</mgrwt>
</event>
<event>
 8    1  0.3520338E-004  0.1568053E+03  0.7546771E-02  0.1200401E+00
         -1   -1    0    0    0  501 -0.00000000000E+00  0.00000000000E+00  0.13780407523E+03  0.13780407523E+03  0.00000000000E+00 0.  1.
          1   -1    0    0  501    0  0.00000000000E+00 -0.00000000000E+00 -0.26558837113E+03  0.26558837113E+03  0.00000000000E+00 0. -1.
         25    2    1    2    0    0  0.87206897724E+02 -0.36845601163E+02  0.65231663726E+02  0.16983252203E+03  0.12500109699E+03 0.  0.
         23    2    1    2    0    0 -0.87206897724E+02  0.36845601163E+02 -0.19301595963E+03  0.23355992433E+03  0.91282179235E+02 0.  0.
          5    1    4    4  502    0 -0.93516466001E+02  0.86504635925E+01 -0.17640644316E+03  0.19990368462E+03  0.47000000000E+01 0. -1.
         -5    1    3    3    0  503  0.44510422465E+02 -0.36581779610E+02  0.99372306609E+02  0.11496238354E+03  0.47000000000E+01 0.  1.
          5    1    3    3  503    0  0.42696475259E+02 -0.26382155341E+00 -0.34140642883E+02  0.54870138489E+02  0.47000000000E+01 0.  1.
         -5    1    4    4    0  502  0.63095682772E+01  0.28195137571E+02 -0.16609516467E+02  0.33656239715E+02  0.47000000000E+01 0.  1.
<mgrwt>
<rscale>  0 0.15005862E+03</rscale>
<asrwt>0</asrwt>
<pdfrwt beam="1">  1        1 0.40859749E-01 0.15680534E+03</pdfrwt>
<pdfrwt beam="2">  1       -1 0.21200627E-01 0.15680534E+03</pdfrwt>
<totfact> 0.18431906E+03</totfact>
</mgrwt>
</event>
<event>
 8    1  0.3520338E-004  0.2073178E+03  0.7546771E-02  0.1148648E+00
          2   -1    0    0  501    0  0.00000000000E+00  0.00000000000E+00  0.39750258876E+03  0.39750258876E+03  0.00000000000E+00 0. -1.
         -2   -1    0    0    0  501 -0.00000000000E+00 -0.00000000000E+00 -0.98010530742E+02  0.98010530742E+02  0.00000000000E+00 0.  1.
         25    2    1    2    0    0  0.16998514364E+02  0.16451527223E+03  0.12711216828E+03  0.24318341552E+03  0.12500578376E+03 0.  0.
         23    2    1    2    0    0 -0.16998514364E+02 -0.16451527223E+03  0.17237988973E+03  0.25232970398E+03  0.81247946665E+02 0.  0.
          5    1    3    3  502    0  0.62469388785E+01  0.62611177450E+02 -0.17873499858E+02  0.65579995305E+02  0.47000000000E+01 0. -1.
         -5    1    4    4    0  503 -0.38893207450E+02 -0.70852432471E+02  0.44949962298E+02  0.92603120268E+02  0.47000000000E+01 0.  1.
          5    1    4    4  503    0  0.21894693086E+02 -0.93662839755E+02  0.12742992744E+03  0.15972658371E+03  0.47000000000E+01 0. -1.
         -5    1    3    3    0  502  0.10751575485E+02  0.10190409478E+03  0.14498566814E+03  0.17760342022E+03  0.47000000000E+01 0. -1.
<mgrwt>
<rscale>  0 0.20129878E+03</rscale>
<asrwt>0</asrwt>
<pdfrwt beam="1">  1        2 0.61154243E-01 0.20731780E+03</pdfrwt>
<pdfrwt beam="2">  1       -2 0.15078543E-01 0.20731780E+03</pdfrwt>
<totfact> 0.26963273E+03</totfact>
</mgrwt>
</event>
<event>
 8    1  0.3520338E-004  0.1325184E+03  0.7546771E-02  0.1237404E+00
         -1   -1    0    0    0  501 -0.00000000000E+00  0.00000000000E+00  0.90303010858E+02  0.90303010858E+02  0.00000000000E+00 0.  1.
          1   -1    0    0  501    0  0.00000000000E+00 -0.00000000000E+00 -0.17018683406E+03  0.17018683406E+03  0.00000000000E+00 0. -1.
         25    2    1    2    0    0  0.30662301470E+02  0.31541199301E+02 -0.89648883790E+02  0.15999393724E+03  0.12500445434E+03 0.  0.
         23    2    1    2    0    0 -0.30662301470E+02 -0.31541199301E+02  0.97650605902E+01  0.10049590768E+03  0.89827874663E+02 0.  0.
          5    1    4    4  502    0 -0.40456289459E+02  0.12903252684E+02 -0.18672310165E+02  0.46625641588E+02  0.47000000000E+01 0. -1.
         -5    1    3    3    0  503 -0.27006032999E+01  0.26745017982E+02  0.27056211621E+02  0.38428086504E+02  0.47000000000E+01 0.  1.
          5    1    3    3  503    0  0.33362904770E+02  0.47961813183E+01 -0.11670509541E+03  0.12156585074E+03  0.47000000000E+01 0.  1.
         -5    1    4    4    0  502  0.97939879892E+01 -0.44444451985E+02  0.28437370755E+02  0.53870266088E+02  0.47000000000E+01 0.  1.
<mgrwt>
<rscale>  0 0.12351774E+03</rscale>
<asrwt>0</asrwt>
<pdfrwt beam="1">  1        1 0.26182590E-01 0.13251844E+03</pdfrwt>
<pdfrwt beam="2">  1       -1 0.13892771E-01 0.13251844E+03</pdfrwt>
<totfact> 0.62196054E+03</totfact>
</mgrwt>
</event>
<event>
 8    1  0.3520338E-004  0.1652888E+03  0.7546771E-02  0.1189897E+00
         -1   -1    0    0    0  501 -0.00000000000E+00  0.00000000000E+00  0.77023552985E+02  0.77023552985E+02  0.00000000000E+00 0.  1.
          1   -1    0    0  501    0  0.00000000000E+00 -0.00000000000E+00 -0.30528027149E+03  0.30528027149E+03  0.00000000000E+00 0. -1.
         25    2    1    2    0    0 -0.70408243194E+02  0.82083296419E+02 -0.12713572186E+03  0.20852785009E+03  0.12500153691E+03 0.  0.
         23    2    1    2    0    0  0.70408243194E+02 -0.82083296419E+02 -0.10112099664E+03  0.17377597438E+03  0.90981564340E+02 0.  0.
          5    1    3    3  502    0  0.33778849889E+02  0.39674773144E+02 -0.33821330898E+02  0.62298240325E+02  0.47000000000E+01 0. -1.
         -5    1    3    3    0  502 -0.10418709308E+03  0.42408523276E+02 -0.93314390966E+02  0.14622960977E+03  0.47000000000E+01 0. -1.
          5    1    4    4  503    0  0.17032657417E+02 -0.85609024740E+02 -0.57971773306E+02  0.10488962311E+03  0.47000000000E+01 0. -1.
         -5    1    4    4    0  503  0.53375585777E+02  0.35257283210E+01 -0.43149223330E+02  0.68886351269E+02  0.47000000000E+01 0.  1.
<mgrwt>
<rscale>  0 0.15894135E+03</rscale>
<asrwt>0</asrwt>
<pdfrwt beam="1">  1        1 0.46966196E-01 0.16528875E+03</pdfrwt>
<pdfrwt beam="2">  1       -1 0.11849777E-01 0.16528875E+03</pdfrwt>
<totfact> 0.38985867E+03</totfact>
</mgrwt>
</event>
<event>
 8    1  0.3520338E-004  0.2513522E+03  0.7546771E-02  0.1114699E+00
         -1   -1    0    0    0  501 -0.00000000000E+00  0.00000000000E+00  0.12157602783E+03  0.12157602783E+03  0.00000000000E+00 0.  1.
          1   -1    0    0  501    0  0.00000000000E+00 -0.00000000000E+00 -0.59181987905E+03  0.59181987905E+03  0.00000000000E+00 0. -1.
         25    2    1    2    0    0  0.17456112870E+03 -0.13068761480E+03 -0.38758504269E+03  0.46195245826E+03  0.12500827198E+03 0.  0.
         23    2    1    2    0    0 -0.17456112870E+03  0.13068761480E+03 -0.82658808530E+02  0.25144344862E+03  0.94023874151E+02 0.  0.
          5    1    4    4  502    0 -0.14914168355E+03  0.10006449023E+03 -0.10237363433E+03  0.20678151509E+03  0.47000000000E+01 0. -1.
         -5    1    3    3    0  503  0.10706156093E+03 -0.11758104868E+03 -0.16612330837E+03  0.23001418309E+03  0.47000000000E+01 0.  1.
          5    1    3    3  503    0  0.67499567774E+02 -0.13106566120E+02 -0.22146173431E+03  0.23193827517E+03  0.47000000000E+01 0.  1.
         -5    1    4    4    0  502 -0.25419445154E+02  0.30623124566E+02  0.19714825801E+02  0.44661933528E+02  0.47000000000E+01 0.  1.
<mgrwt>
<rscale>  0 0.24780696E+03</rscale>
<asrwt>0</asrwt>
<pdfrwt beam="1">  1        1 0.91049212E-01 0.25135216E+03</pdfrwt>
<pdfrwt beam="2">  1       -1 0.18704004E-01 0.25135216E+03</pdfrwt>
<totfact> 0.80935347E+02</totfact>
</mgrwt>
</event>
<event>
 8    1  0.3520338E-004  0.1649574E+03  0.7546771E-02  0.1190407E+00
         -2   -1    0    0    0  501 -0.00000000000E+00  0.00000000000E+00  0.64265231970E+02  0.64265231970E+02  0.00000000000E+00 0.  1.
          2   -1    0    0  501    0  0.00000000000E+00 -0.00000000000E+00 -0.36343500512E+03  0.36343500512E+03  0.00000000000E+00 0. -1.
         25    2    1    2    0    0 -0.35447154316E+02 -0.10164054210E+03 -0.16729143153E+03  0.23494120038E+03  0.12499457599E+03 0.  0.
         23    2    1    2    0    0  0.35447154316E+02  0.10164054210E+03 -0.13187834162E+03  0.19275903670E+03  0.90425929336E+02 0.  0.
          5    1    4    4  502    0  0.37844566439E+02 -0.24210100063E+00 -0.29359285710E+02  0.48128239935E+02  0.47000000000E+01 0. -1.
         -5    1    4    4    0  502 -0.23974121233E+01  0.10188264310E+03 -0.10251905591E+03  0.14463079677E+03  0.47000000000E+01 0.  1.
          5    1    3    3  503    0  0.27656301056E+02  0.11078591646E+02 -0.59188095967E+02  0.66429864407E+02  0.47000000000E+01 0.  1.
         -5    1    3    3    0  503 -0.63103455372E+02 -0.11271913375E+03 -0.10810333557E+03  0.16851133598E+03  0.47000000000E+01 0.  1.
<mgrwt>
<rscale>  0 0.15849429E+03</rscale>
<asrwt>0</asrwt>
<pdfrwt beam="1">  1        2 0.55913079E-01 0.16495740E+03</pdfrwt>
<pdfrwt beam="2">  1       -2 0.98869585E-02 0.16495740E+03</pdfrwt>
<totfact> 0.58058169E+03</totfact>
</mgrwt>
</event>
<event>
 8    1  0.3520338E-004  0.1909478E+03  0.7546771E-02  0.1162316E+00
          1   -1    0    0  501    0  0.00000000000E+00  0.00000000000E+00  0.27828846720E+03  0.27828846720E+03  0.00000000000E+00 0. -1.
         -1   -1    0    0    0  501 -0.00000000000E+00 -0.00000000000E+00 -0.12128407102E+03  0.12128407102E+03  0.00000000000E+00 0.  1.
         25    2    1    2    0    0  0.12366245155E+03  0.74402715638E+02  0.11661027566E+03  0.22373872844E+03  0.12503158080E+03 0.  0.
         23    2    1    2    0    0 -0.12366245155E+03 -0.74402715638E+02  0.40394120527E+02  0.17583380979E+03  0.91965633119E+02 0.  0.
          5    1    4    4  502    0 -0.10761955645E+03 -0.34675098232E+02  0.60444997693E+02  0.12829660601E+03  0.47000000000E+01 0. -1.
         -5    1    4    4    0  502 -0.16042895095E+02 -0.39727617406E+02 -0.20050877166E+02  0.47537203777E+02  0.47000000000E+01 0.  1.
          5    1    3    3  503    0  0.25078238091E+02  0.51220377328E+02 -0.13498748604E+02  0.58794143358E+02  0.47000000000E+01 0.  1.
         -5    1    3    3    0  503  0.98584213458E+02  0.23182338310E+02  0.13010902426E+03  0.16494458508E+03  0.47000000000E+01 0.  1.
<mgrwt>
<rscale>  0 0.18578824E+03</rscale>
<asrwt>0</asrwt>
<pdfrwt beam="1">  1        1 0.42813610E-01 0.19094780E+03</pdfrwt>
<pdfrwt beam="2">  1       -1 0.18659088E-01 0.19094780E+03</pdfrwt>
<totfact> 0.21501195E+03</totfact>
</mgrwt>
</event>
<event>
 8    1  0.3520338E-004  0.2812688E+03  0.7546771E-02  0.1096983E+00
          4   -1    0    0  501    0  0.00000000000E+00  0.00000000000E+00  0.39034981911E+03  0.39034981911E+03  0.00000000000E+00 0. -1.
         -4   -1    0    0    0  501 -0.00000000000E+00 -0.00000000000E+00 -0.21014316923E+03  0.21014316923E+03  0.00000000000E+00 0.  1.
         25    2    1    2    0    0 -0.23249064869E+03  0.97136892241E+02  0.54047239230E+01  0.28132072913E+03  0.12499865613E+03 0.  0.
         23    2    1    2    0    0  0.23249064869E+03 -0.97136892241E+02  0.17480192596E+03  0.31917225921E+03  0.88474517066E+02 0.  0.
          5    1    3    3  502    0 -0.14169577015E+03  0.65690150061E+02  0.63807715141E+02  0.16877915038E+03  0.47000000000E+01 0.  1.
         -5    1    4    4    0  503  0.22472727525E+02 -0.24804895071E+02 -0.39327045544E+01  0.34027378198E+02  0.47000000000E+01 0.  1.
          5    1    4    4  503    0  0.21001792116E+03 -0.72331997171E+02  0.17873463051E+03  0.28514488101E+03  0.47000000000E+01 0. -1.
         -5    1    3    3    0  502 -0.90794878540E+02  0.31446742181E+02 -0.58402991218E+02  0.11254157874E+03  0.47000000000E+01 0.  1.
<mgrwt>
<rscale>  0 0.27764442E+03</rscale>
<asrwt>0</asrwt>
<pdfrwt beam="1">  1        4 0.60053818E-01 0.28126881E+03</pdfrwt>
<pdfrwt beam="2">  1       -4 0.32329718E-01 0.28126881E+03</pdfrwt>
<totfact> 0.44991957E+01</totfact>
</mgrwt>
</event>
<event>
 8    1  0.3520338E-004  0.1463955E+03  0.7546771E-02  0.1214913E+00
          2   -1    0    0  501    0  0.00000000000E+00  0.00000000000E+00  0.42863529494E+03  0.42863529494E+03  0.00000000000E+00 0. -1.
         -2   -1    0    0    0  501 -0.00000000000E+00 -0.00000000000E+00 -0.40899278295E+02  0.40899278295E+02  0.00000000000E+00 0.  1.
         25    2    1    2    0    0 -0.43763775759E+02 -0.62373042617E+02  0.21697293716E+03  0.26174206271E+03  0.12500394961E+03 0.  0.
         23    2    1    2    0    0  0.43763775759E+02  0.62373042617E+02  0.17076307948E+03  0.20779251052E+03  0.90620271469E+02 0.  0.
          5    1    4    4  502    0  0.42209744077E+02 -0.10543980909E+02  0.48268167195E+02  0.65151699846E+02  0.47000000000E+01 0. -1.
         -5    1    3    3    0  503 -0.74531249340E+02 -0.70792779738E+02  0.20088890439E+03  0.22570991714E+03  0.47000000000E+01 0.  1.
          5    1    3    3  503    0  0.30767473581E+02  0.84197371202E+01  0.16084032770E+02  0.36032145563E+02  0.47000000000E+01 0.  1.
         -5    1    4    4    0  502  0.15540316824E+01  0.72917023526E+02  0.12249491229E+03  0.14264081068E+03  0.47000000000E+01 0.  1.
<mgrwt>
<rscale>  0 0.13882908E+03</rscale>
<asrwt>0</asrwt>
<pdfrwt beam="1">  1        2 0.65943888E-01 0.14639553E+03</pdfrwt>
<pdfrwt beam="2">  1       -2 0.62921970E-02 0.14639553E+03</pdfrwt>
<totfact> 0.97204119E+03</totfact>
</mgrwt>
</event>
<event>
 8    1  0.3520338E-004  0.1251571E+03  0.7546771E-02  0.1250557E+00
         -1   -1    0    0    0  501 -0.00000000000E+00  0.00000000000E+00  0.42918943002E+03  0.42918943002E+03  0.00000000000E+00 0.  1.
          1   -1    0    0  501    0  0.00000000000E+00 -0.00000000000E+00 -0.29641419971E+02  0.29641419971E+02  0.00000000000E+00 0. -1.
         25    2    1    2    0    0 -0.60579782633E+01 -0.23923273437E+01  0.29340647824E+03  0.31898534311E+03  0.12498746065E+03 0.  0.
         23    2    1    2    0    0  0.60579782633E+01  0.23923273437E+01  0.10614153182E+03  0.13984550688E+03  0.90820254832E+02 0.  0.
          5    1    3    3  502    0 -0.45979611036E+02 -0.41679856941E+02  0.20486105587E+03  0.21410622905E+03  0.47000000000E+01 0.  1.
         -5    1    4    4    0  503  0.18681810462E+02 -0.40134747372E+02  0.67322738100E+02  0.80710897988E+02  0.47000000000E+01 0.  1.
          5    1    4    4  503    0 -0.12623832198E+02  0.42527074716E+02  0.38818793716E+02  0.59134608892E+02  0.47000000000E+01 0. -1.
         -5    1    3    3    0  502  0.39921632773E+02  0.39287529597E+02  0.88545422368E+02  0.10487911407E+03  0.47000000000E+01 0.  1.
<mgrwt>
<rscale>  0 0.11558878E+03</rscale>
<asrwt>0</asrwt>
<pdfrwt beam="1">  1        1 0.45602188E-02 0.12515705E+03</pdfrwt>
<pdfrwt beam="2">  1       -1 0.66029139E-01 0.12515705E+03</pdfrwt>
<totfact> 0.43394709E+03</totfact>
</mgrwt>
</event>
<event>
 8    1  0.3520338E-004  0.3851282E+03  0.7546771E-02  0.1049921E+00
         -2   -1    0    0    0  501 -0.00000000000E+00  0.00000000000E+00  0.32744099700E+03  0.32744099700E+03  0.00000000000E+00 0.  1.
          2   -1    0    0  501    0  0.00000000000E+00 -0.00000000000E+00 -0.45448362285E+03  0.45448362285E+03  0.00000000000E+00 0. -1.
         25    2    1    2    0    0 -0.32821844289E+03  0.15802311342E+03  0.56637500302E+00  0.38512865123E+03  0.12500042636E+03 0.  0.
         23    2    1    2    0    0  0.32821844289E+03 -0.15802311342E+03 -0.12760900086E+03  0.39679596861E+03  0.92001809645E+02 0.  0.
          5    1    4    4  502    0  0.77489092523E+02 -0.80002243459E+02 -0.55042740442E+02  0.12432502441E+03  0.47000000000E+01 0. -1.
         -5    1    3    3    0  503 -0.84740095617E+02 -0.14428738641E+02 -0.91212485493E+01  0.86569968691E+02  0.47000000000E+01 0. -1.
          5    1    3    3  503    0 -0.24347834727E+03  0.17245185206E+03  0.96876235523E+01  0.29855868254E+03  0.47000000000E+01 0. -1.
         -5    1    4    4    0  502  0.25072935037E+03 -0.78020869965E+02 -0.72566260415E+02  0.27247094420E+03  0.47000000000E+01 0.  1.
<mgrwt>
<rscale>  0 0.38275346E+03</rscale>
<asrwt>0</asrwt>
<pdfrwt beam="1">  1        2 0.69920557E-01 0.38512823E+03</pdfrwt>
<pdfrwt beam="2">  1       -2 0.50375539E-01 0.38512823E+03</pdfrwt>
<totfact> 0.26245010E+02</totfact>
</mgrwt>
</event>
<event>
 8    1  0.3520338E-004  0.1879382E+03  0.7546771E-02  0.1165211E+00
         -2   -1    0    0    0  501 -0.00000000000E+00  0.00000000000E+00  0.19864009606E+02  0.19864009606E+02  0.00000000000E+00 0.  1.
          2   -1    0    0  501    0  0.00000000000E+00 -0.00000000000E+00 -0.16337205886E+04  0.16337205886E+04  0.00000000000E+00 0. -1.
         25    2    1    2    0    0  0.13993349891E+03 -0.10979541526E+02 -0.98125735092E+03  0.99909295970E+03  0.12497527328E+03 0.  0.
         23    2    1    2    0    0 -0.13993349891E+03  0.10979541526E+02 -0.63259922806E+03  0.65449163850E+03  0.92062951660E+02 0.  0.
          5    1    4    4  502    0 -0.80853606084E+02  0.69883126861E+01 -0.52784368916E+03  0.53406665531E+03  0.47000000000E+01 0. -1.
         -5    1    4    4    0  502 -0.59079892830E+02  0.39912288395E+01 -0.10475553890E+03  0.12042498319E+03  0.47000000000E+01 0.  1.
          5    1    3    3  503    0 -0.10528184731E+02 -0.33420298429E+02 -0.16114366713E+03  0.16497615124E+03  0.47000000000E+01 0. -1.
         -5    1    3    3    0  503  0.15046168364E+03  0.22440756904E+02 -0.82011368379E+03  0.83411680846E+03  0.47000000000E+01 0. -1.
<mgrwt>
<rscale>  0 0.18270443E+03</rscale>
<asrwt>0</asrwt>
<pdfrwt beam="1">  1        2 0.25134160E+00 0.18793816E+03</pdfrwt>
<pdfrwt beam="2">  1       -2 0.30560018E-02 0.18793816E+03</pdfrwt>
<totfact> 0.47463118E+03</totfact>
</mgrwt>
</event>
<event>
 8    1  0.3520338E-004  0.1729568E+03  0.7546771E-02  0.1180645E+00
          1   -1    0    0  501    0  0.00000000000E+00  0.00000000000E+00  0.58068526125E+02  0.58068526125E+02  0.00000000000E+00 0. -1.
         -1   -1    0    0    0  501 -0.00000000000E+00 -0.00000000000E+00 -0.46381440963E+03  0.46381440963E+03  0.00000000000E+00 0.  1.
         25    2    1    2    0    0  0.95759943032E+02 -0.71548788415E+02 -0.17699812109E+03  0.24747197390E+03  0.12499938873E+03 0.  0.
         23    2    1    2    0    0 -0.95759943032E+02  0.71548788415E+02 -0.22874776241E+03  0.27441096185E+03  0.93202153216E+02 0.  0.
          5    1    4    4  502    0 -0.44349132084E+02  0.58269166147E+02 -0.52356780342E+02  0.90141353927E+02  0.47000000000E+01 0. -1.
         -5    1    3    3    0  503 -0.19598141421E+01 -0.52966090653E+02 -0.11678536698E+02  0.54476837738E+02  0.47000000000E+01 0.  1.
          5    1    3    3  503    0  0.97719757174E+02 -0.18582697761E+02 -0.16531958439E+03  0.19299513616E+03  0.47000000000E+01 0.  1.
         -5    1    4    4    0  502 -0.51410810947E+02  0.13279622268E+02 -0.17639098207E+03  0.18426960793E+03  0.47000000000E+01 0.  1.
<mgrwt>
<rscale>  0 0.16734475E+03</rscale>
<asrwt>0</asrwt>
<pdfrwt beam="1">  1        1 0.89336196E-02 0.17295677E+03</pdfrwt>
<pdfrwt beam="2">  1       -1 0.71356061E-01 0.17295677E+03</pdfrwt>
<totfact> 0.15201629E+03</totfact>
</mgrwt>
</event>
<event>
 8    1  0.3520338E-004  0.1278062E+03  0.7546771E-02  0.1244623E+00
         -2   -1    0    0    0  501 -0.00000000000E+00  0.00000000000E+00  0.27576103468E+03  0.27576103468E+03  0.00000000000E+00 0.  1.
          2   -1    0    0  501    0  0.00000000000E+00 -0.00000000000E+00 -0.55211830789E+02  0.55211830789E+02  0.00000000000E+00 0. -1.
         25    2    1    2    0    0 -0.12265096043E+02  0.23517846133E+02  0.19175831460E+03  0.23044669439E+03  0.12502362205E+03 0.  0.
         23    2    1    2    0    0  0.12265096043E+02 -0.23517846133E+02  0.28790889285E+02  0.10052617107E+03  0.92590896405E+02 0.  0.
          5    1    4    4  502    0  0.45871932052E+02 -0.16244657932E+02 -0.84574950155E+01  0.49615947874E+02  0.47000000000E+01 0. -1.
         -5    1    3    3    0  503 -0.50270221602E+02 -0.32340420480E+02  0.85024159343E+02  0.10403939470E+03  0.47000000000E+01 0. -1.
          5    1    3    3  503    0  0.38005125559E+02  0.55858266613E+02  0.10673415526E+03  0.12640729970E+03  0.47000000000E+01 0. -1.
         -5    1    4    4    0  502 -0.33606836009E+02 -0.72731882011E+01  0.37248384300E+02  0.50910223198E+02  0.47000000000E+01 0.  1.
<mgrwt>
<rscale>  0 0.11907965E+03</rscale>
<asrwt>0</asrwt>
<pdfrwt beam="1">  1        2 0.84941280E-02 0.12780621E+03</pdfrwt>
<pdfrwt beam="2">  1       -2 0.42424774E-01 0.12780621E+03</pdfrwt>
<totfact> 0.39787923E+03</totfact>
</mgrwt>
</event>
<event>
 8    1  0.3520338E-004  0.1550386E+03  0.7546771E-02  0.1203192E+00
          3   -1    0    0  501    0  0.00000000000E+00  0.00000000000E+00  0.29513847396E+02  0.29513847396E+02  0.00000000000E+00 0. -1.
         -3   -1    0    0    0  501 -0.00000000000E+00 -0.00000000000E+00 -0.78906741176E+03  0.78906741176E+03  0.00000000000E+00 0.  1.
         25    2    1    2    0    0 -0.72141287079E+02 -0.56626700764E+02 -0.25860503068E+03  0.30151869108E+03  0.12500404247E+03 0.  0.
         23    2    1    2    0    0  0.72141287079E+02  0.56626700764E+02 -0.50094853368E+03  0.51706256808E+03  0.89405354246E+02 0.  0.
          5    1    3    3  502    0 -0.69733108027E+02 -0.85573160760E+02 -0.24567926138E+03  0.26938051464E+03  0.47000000000E+01 0.  1.
         -5    1    3    3    0  502 -0.24081790521E+01  0.28946459996E+02 -0.12925769306E+02  0.32138176438E+02  0.47000000000E+01 0.  1.
          5    1    4    4  503    0  0.31648174584E+01  0.36553604543E+02 -0.61584515549E+02  0.71839575653E+02  0.47000000000E+01 0. -1.
         -5    1    4    4    0  503  0.68976469621E+02  0.20073096221E+02 -0.43936401813E+03  0.44522299242E+03  0.47000000000E+01 0.  1.
<mgrwt>
<rscale>  0 0.14780850E+03</rscale>
<asrwt>0</asrwt>
<pdfrwt beam="1">  1        3 0.45405915E-02 0.15503857E+03</pdfrwt>
<pdfrwt beam="2">  1       -3 0.12139500E+00 0.15503857E+03</pdfrwt>
<totfact> 0.36213951E+02</totfact>
</mgrwt>
</event>
<event>
 8    1  0.3520338E-004  0.2019865E+03  0.7546771E-02  0.1152258E+00
         -1   -1    0    0    0  501 -0.00000000000E+00  0.00000000000E+00  0.42297644300E+02  0.42297644300E+02  0.00000000000E+00 0.  1.
          1   -1    0    0  501    0  0.00000000000E+00 -0.00000000000E+00 -0.95878395493E+03  0.95878395493E+03  0.00000000000E+00 0. -1.
         25    2    1    2    0    0 -0.12005134558E+03 -0.10373665245E+03 -0.62615581044E+03  0.65792831239E+03  0.12499978664E+03 0.  0.
         23    2    1    2    0    0  0.12005134558E+03  0.10373665245E+03 -0.29033050019E+03  0.34315328683E+03  0.91042628961E+02 0.  0.
          5    1    3    3  502    0 -0.36507701999E+02  0.21783561463E+02 -0.23161347974E+03  0.23552967934E+03  0.47000000000E+01 0.  1.
         -5    1    3    3    0  502 -0.83543643585E+02 -0.12552021392E+03 -0.39454233070E+03  0.42239863305E+03  0.47000000000E+01 0.  1.
          5    1    4    4  503    0  0.11831657773E+03  0.50284201696E+02 -0.21707975256E+03  0.25233513920E+03  0.47000000000E+01 0. -1.
         -5    1    4    4    0  503  0.17347678580E+01  0.53452450756E+02 -0.73250747624E+02  0.90818147630E+02  0.47000000000E+01 0.  1.
<mgrwt>
<rscale>  0 0.19704319E+03</rscale>
<asrwt>0</asrwt>
<pdfrwt beam="1">  1        1 0.14750521E+00 0.20198655E+03</pdfrwt>
<pdfrwt beam="2">  1       -1 0.65073303E-02 0.20198655E+03</pdfrwt>
<totfact> 0.20231213E+03</totfact>
</mgrwt>
</event>
<event>
 8    1  0.3520338E-004  0.1590695E+03  0.7546771E-02  0.1197532E+00
         -1   -1    0    0    0  501 -0.00000000000E+00  0.00000000000E+00  0.31779355326E+02  0.31779355326E+02  0.00000000000E+00 0.  1.
          1   -1    0    0  501    0  0.00000000000E+00 -0.00000000000E+00 -0.11834666623E+04  0.11834666623E+04  0.00000000000E+00 0. -1.
         25    2    1    2    0    0 -0.89530526547E+02  0.40799703726E+02 -0.20684541591E+03  0.26093703538E+03  0.12499111704E+03 0.  0.
         23    2    1    2    0    0  0.89530526547E+02 -0.40799703726E+02 -0.94484189106E+03  0.95430898225E+03  0.91099415398E+02 0.  0.
          5    1    3    3  502    0 -0.73769306958E+02  0.64361148497E+02 -0.68346745336E+02  0.11948906093E+03  0.47000000000E+01 0. -1.
         -5    1    4    4    0  503  0.65375591964E+02  0.19860395213E+02 -0.46136994466E+03  0.46642547010E+03  0.47000000000E+01 0.  1.
          5    1    4    4  503    0  0.24154934584E+02 -0.60660098939E+02 -0.48347194640E+03  0.48788351215E+03  0.47000000000E+01 0. -1.
         -5    1    3    3    0  502 -0.15761219590E+02 -0.23561444771E+02 -0.13849867058E+03  0.14144797444E+03  0.47000000000E+01 0. -1.
<mgrwt>
<rscale>  0 0.15241834E+03</rscale>
<asrwt>0</asrwt>
<pdfrwt beam="1">  1        1 0.18207178E+00 0.15906951E+03</pdfrwt>
<pdfrwt beam="2">  1       -1 0.48891320E-02 0.15906951E+03</pdfrwt>
<totfact> 0.21317237E+03</totfact>
</mgrwt>
</event>
<event>
 8    1  0.3520338E-004  0.1464659E+03  0.7546771E-02  0.1214758E+00
          2   -1    0    0  501    0  0.00000000000E+00  0.00000000000E+00  0.73180773825E+03  0.73180773825E+03  0.00000000000E+00 0. -1.
         -2   -1    0    0    0  501 -0.00000000000E+00 -0.00000000000E+00 -0.24150402158E+02  0.24150402158E+02  0.00000000000E+00 0.  1.
         25    2    1    2    0    0  0.21460727342E+02  0.73261672425E+02  0.36161514025E+03  0.39015097373E+03  0.12499774870E+03 0.  0.
         23    2    1    2    0    0 -0.21460727342E+02 -0.73261672425E+02  0.34604219584E+03  0.36580716668E+03  0.90784615569E+02 0.  0.
          5    1    4    4  502    0 -0.10959453148E+02 -0.52991800798E+02  0.33611186244E+03  0.34047248734E+03  0.47000000000E+01 0. -1.
         -5    1    4    4    0  502 -0.10501274194E+02 -0.20269871627E+02  0.99303334044E+01  0.25334679335E+02  0.47000000000E+01 0.  1.
          5    1    3    3  503    0 -0.44405017520E+02  0.64446257484E+02  0.16798834726E+03  0.18538419701E+03  0.47000000000E+01 0.  1.
         -5    1    3    3    0  503  0.65865744862E+02  0.88154149404E+01  0.19362679298E+03  0.20476677672E+03  0.47000000000E+01 0.  1.
<mgrwt>
<rscale>  0 0.13894343E+03</rscale>
<asrwt>0</asrwt>
<pdfrwt beam="1">  1        2 0.11258579E+00 0.14646594E+03</pdfrwt>
<pdfrwt beam="2">  1       -2 0.37154471E-02 0.14646594E+03</pdfrwt>
<totfact> 0.11717067E+04</totfact>
</mgrwt>
</event>
<event>
 8    1  0.3520338E-004  0.1331317E+03  0.7546771E-02  0.1235243E+00
          1   -1    0    0  501    0  0.00000000000E+00  0.00000000000E+00  0.82817040121E+03  0.82817040121E+03  0.00000000000E+00 0. -1.
         -1   -1    0    0    0  501 -0.00000000000E+00 -0.00000000000E+00 -0.20319548483E+02  0.20319548483E+02  0.00000000000E+00 0.  1.
         25    2    1    2    0    0  0.43973604683E+02  0.12947497482E+02  0.27226751426E+03  0.30307366884E+03  0.12499093496E+03 0.  0.
         23    2    1    2    0    0 -0.43973604683E+02 -0.12947497482E+02  0.53558333847E+03  0.54541628086E+03  0.92347665802E+02 0.  0.
          5    1    4    4  502    0  0.43001501466E+01 -0.42060078980E+02  0.30720518203E+03  0.31013651091E+03  0.47000000000E+01 0. -1.
         -5    1    4    4    0  502 -0.48273754830E+02  0.29112581498E+02  0.22837815644E+03  0.23527976995E+03  0.47000000000E+01 0.  1.
          5    1    3    3  503    0  0.10492331343E+02  0.66840809109E+02  0.11632766724E+03  0.13465511110E+03  0.47000000000E+01 0.  1.
         -5    1    3    3    0  503  0.33481273340E+02 -0.53893311626E+02  0.15593984702E+03  0.16841855774E+03  0.47000000000E+01 0.  1.
<mgrwt>
<rscale>  0 0.12488916E+03</rscale>
<asrwt>0</asrwt>
<pdfrwt beam="1">  1        1 0.12741080E+00 0.13313170E+03</pdfrwt>
<pdfrwt beam="2">  1       -1 0.31260850E-02 0.13313170E+03</pdfrwt>
<totfact> 0.74738073E+03</totfact>
</mgrwt>
</event>
<event>
 8    1  0.3520338E-004  0.1489021E+03  0.7546771E-02  0.1209860E+00
         -1   -1    0    0    0  501 -0.00000000000E+00  0.00000000000E+00  0.72783328830E+03  0.72783328830E+03  0.00000000000E+00 0.  1.
          1   -1    0    0  501    0  0.00000000000E+00 -0.00000000000E+00 -0.31260191838E+02  0.31260191838E+02  0.00000000000E+00 0. -1.
         25    2    1    2    0    0  0.80903732067E+02  0.77280613165E+00  0.53088512510E+03  0.55137177963E+03  0.12500324890E+03 0.  0.
         23    2    1    2    0    0 -0.80903732067E+02 -0.77280613165E+00  0.16568797136E+03  0.20772170050E+03  0.95654534202E+02 0.  0.
          5    1    3    3  502    0  0.10925896722E+03  0.21053011727E+02  0.44109651013E+03  0.45493842712E+03  0.47000000000E+01 0.  1.
         -5    1    4    4    0  503 -0.13122676646E+02 -0.41420185736E+02  0.79266151832E+02  0.90515464176E+02  0.47000000000E+01 0.  1.
          5    1    4    4  503    0 -0.67781055421E+02  0.40647379604E+02  0.86421819531E+02  0.11720623633E+03  0.47000000000E+01 0. -1.
         -5    1    3    3    0  502 -0.28355235153E+02 -0.20280205595E+02  0.89788614965E+02  0.96433352512E+02  0.47000000000E+01 0.  1.
<mgrwt>
<rscale>  0 0.14260950E+03</rscale>
<asrwt>0</asrwt>
<pdfrwt beam="1">  1        1 0.48092608E-02 0.14890206E+03</pdfrwt>
<pdfrwt beam="2">  1       -1 0.11197434E+00 0.14890206E+03</pdfrwt>
<totfact> 0.13424313E+03</totfact>
</mgrwt>
</event>
<event>
 8    1  0.3520338E-004  0.1530709E+03  0.7546771E-02  0.1205612E+00
         -1   -1    0    0    0  501 -0.00000000000E+00  0.00000000000E+00  0.18220720224E+03  0.18220720224E+03  0.00000000000E+00 0.  1.
          1   -1    0    0  501    0  0.00000000000E+00 -0.00000000000E+00 -0.11030654874E+03  0.11030654874E+03  0.00000000000E+00 0. -1.
         25    2    1    2    0    0  0.87031048434E+02  0.15210626389E+02  0.14470817619E+02  0.15375340460E+03  0.12499975326E+03 0.  0.
         23    2    1    2    0    0 -0.87031048434E+02 -0.15210626389E+02  0.57429835873E+02  0.13876034638E+03  0.90280015137E+02 0.  0.
          5    1    4    4  502    0 -0.31205605922E+02  0.37170769600E+02  0.14519771739E+02  0.50876023085E+02  0.47000000000E+01 0. -1.
         -5    1    3    3    0  503 -0.16673565811E+02 -0.15788200521E+02  0.36325247363E+02  0.43230645017E+02  0.47000000000E+01 0. -1.
          5    1    3    3  503    0  0.10370461425E+03  0.30998826910E+02 -0.21854429744E+02  0.11052275958E+03  0.47000000000E+01 0. -1.
         -5    1    4    4    0  502 -0.55825442513E+02 -0.52381395990E+02  0.42910064134E+02  0.87884323298E+02  0.47000000000E+01 0.  1.
<mgrwt>
<rscale>  0 0.14589347E+03</rscale>
<asrwt>0</asrwt>
<pdfrwt beam="1">  1        1 0.16970238E-01 0.15307091E+03</pdfrwt>
<pdfrwt beam="2">  1       -1 0.28031877E-01 0.15307091E+03</pdfrwt>
<totfact> 0.35175018E+03</totfact>
</mgrwt>
</event>
<event>
 8    1  0.3520338E-004  0.1287654E+03  0.7546771E-02  0.1243579E+00
          2   -1    0    0  501    0  0.00000000000E+00  0.00000000000E+00  0.62315644991E+02  0.62315644991E+02  0.00000000000E+00 0. -1.
         -2   -1    0    0    0  501 -0.00000000000E+00 -0.00000000000E+00 -0.20458009032E+03  0.20458009032E+03  0.00000000000E+00 0.  1.
         25    2    1    2    0    0  0.23747227987E+02  0.19774592456E+02 -0.69770348171E+02  0.14645278955E+03  0.12500221094E+03 0.  0.
         23    2    1    2    0    0 -0.23747227987E+02 -0.19774592456E+02 -0.72494097158E+02  0.12044294576E+03  0.91083169231E+02 0.  0.
          5    1    3    3  502    0  0.40154823467E+02 -0.16525820230E+02 -0.91094928932E+02  0.10102419838E+03  0.47000000000E+01 0.  1.
         -5    1    4    4    0  503 -0.35196362704E+02 -0.36357936159E+02 -0.82933407729E+02  0.97266251017E+02  0.47000000000E+01 0.  1.
          5    1    4    4  503    0  0.11449134717E+02  0.16583343703E+02  0.10439310571E+02  0.23176694745E+02  0.47000000000E+01 0. -1.
         -5    1    3    3    0  502 -0.16407595480E+02  0.36300412687E+02  0.21324580761E+02  0.45428591166E+02  0.47000000000E+01 0.  1.
<mgrwt>
<rscale>  0 0.11970809E+03</rscale>
<asrwt>0</asrwt>
<pdfrwt beam="1">  1        2 0.95870223E-02 0.12876536E+03</pdfrwt>
<pdfrwt beam="2">  1       -2 0.31473860E-01 0.12876536E+03</pdfrwt>
<totfact> 0.59706437E+03</totfact>
</mgrwt>
</event>
<event>
 8    1  0.3520338E-004  0.1291110E+03  0.7546771E-02  0.1243930E+00
         -3   -1    0    0    0  501 -0.00000000000E+00  0.00000000000E+00  0.44663830247E+03  0.44663830247E+03  0.00000000000E+00 0.  1.
          3   -1    0    0  501    0  0.00000000000E+00 -0.00000000000E+00 -0.31213460258E+02  0.31213460258E+02  0.00000000000E+00 0. -1.
         25    2    1    2    0    0  0.32159549071E+02 -0.25965156930E+01  0.16109163436E+03  0.20644653451E+03  0.12501471298E+03 0.  0.
         23    2    1    2    0    0 -0.32159549071E+02  0.25965156930E+01  0.25433320785E+03  0.27140522821E+03  0.89075466854E+02 0.  0.
          5    1    4    4  502    0 -0.15234382988E+02  0.27587272814E+02  0.26243012775E+02  0.41278684158E+02  0.47000000000E+01 0. -1.
         -5    1    3    3    0  503  0.79827874502E+02 -0.33136266773E+01  0.11384518591E+03  0.13916280402E+03  0.47000000000E+01 0.  1.
          5    1    3    3  503    0 -0.47668325430E+02  0.71711098427E+00  0.47246448452E+02  0.67283730491E+02  0.47000000000E+01 0.  1.
         -5    1    4    4    0  502 -0.16925166083E+02 -0.24990757121E+02  0.22809019508E+03  0.23012654406E+03  0.47000000000E+01 0.  1.
<mgrwt>
<rscale>  0 0.11949626E+03</rscale>
<asrwt>0</asrwt>
<pdfrwt beam="1">  1        3 0.48020711E-02 0.12911103E+03</pdfrwt>
<pdfrwt beam="2">  1       -3 0.68713580E-01 0.12911103E+03</pdfrwt>
<totfact> 0.11501930E+03</totfact>
</mgrwt>
</event>
<event>
 8    1  0.3520338E-004  0.2812464E+03  0.7546771E-02  0.1096671E+00
          2   -1    0    0  501    0  0.00000000000E+00  0.00000000000E+00  0.95361411948E+03  0.95361411948E+03  0.00000000000E+00 0. -1.
         -2   -1    0    0    0  501 -0.00000000000E+00 -0.00000000000E+00 -0.84257143780E+02  0.84257143780E+02  0.00000000000E+00 0.  1.
         25    2    1    2    0    0 -0.23632282656E+03  0.87335859375E+02  0.31977106758E+03  0.42585567234E+03  0.12499394912E+03 0.  0.
         23    2    1    2    0    0  0.23632282656E+03 -0.87335859375E+02  0.54958590812E+03  0.61201559093E+03  0.95091442532E+02 0.  0.
          5    1    4    4  502    0  0.20251093112E+03 -0.51114756554E+02  0.49938409959E+03  0.54132242193E+03  0.47000000000E+01 0. -1.
         -5    1    3    3    0  503 -0.21978741683E+03  0.31795977931E+02  0.26722614621E+03  0.34749013803E+03  0.47000000000E+01 0.  1.
          5    1    3    3  503    0 -0.16535409729E+02  0.55539881444E+02  0.52544921370E+02  0.78365534309E+02  0.47000000000E+01 0.  1.
         -5    1    4    4    0  502  0.33811895437E+02 -0.36221102822E+02  0.50201808536E+02  0.70693168998E+02  0.47000000000E+01 0.  1.
<mgrwt>
<rscale>  0 0.27820903E+03</rscale>
<asrwt>0</asrwt>
<pdfrwt beam="1">  1        2 0.14670986E+00 0.28124637E+03</pdfrwt>
<pdfrwt beam="2">  1       -2 0.12962638E-01 0.28124637E+03</pdfrwt>
<totfact> 0.12241694E+03</totfact>
</mgrwt>
</event>
<event>
 8    1  0.3520338E-004  0.1299475E+03  0.7546771E-02  0.1241510E+00
          1   -1    0    0  501    0  0.00000000000E+00  0.00000000000E+00  0.34354203223E+02  0.34354203223E+02  0.00000000000E+00 0. -1.
         -1   -1    0    0    0  501 -0.00000000000E+00 -0.00000000000E+00 -0.38068848670E+03  0.38068848670E+03  0.00000000000E+00 0.  1.
         25    2    1    2    0    0 -0.45118232506E+01  0.35248727057E+02 -0.17659563712E+03  0.21925415217E+03  0.12499413941E+03 0.  0.
         23    2    1    2    0    0  0.45118232506E+01 -0.35248727057E+02 -0.16973864635E+03  0.19578853775E+03  0.90879668465E+02 0.  0.
          5    1    3    3  502    0  0.20862633825E+02  0.18593898234E+02  0.10073064604E+02  0.30075557719E+02  0.47000000000E+01 0. -1.
         -5    1    4    4    0  503  0.39516882128E+02 -0.24965495060E+02 -0.14242069823E+03  0.14996868074E+03  0.47000000000E+01 0.  1.
          5    1    4    4  503    0 -0.35005058877E+02 -0.10283231997E+02 -0.27317948122E+02  0.45819857016E+02  0.47000000000E+01 0. -1.
         -5    1    3    3    0  502 -0.25374457075E+02  0.16654828824E+02 -0.18666870173E+03  0.18917859446E+03  0.47000000000E+01 0. -1.
<mgrwt>
<rscale>  0 0.12096696E+03</rscale>
<asrwt>0</asrwt>
<pdfrwt beam="1">  1        1 0.52852620E-02 0.12994754E+03</pdfrwt>
<pdfrwt beam="2">  1       -1 0.58567460E-01 0.12994754E+03</pdfrwt>
<totfact> 0.44740957E+03</totfact>
</mgrwt>
</event>
<event>
 8    1  0.3520338E-004  0.1312655E+03  0.7546771E-02  0.1238547E+00
         -1   -1    0    0    0  501 -0.00000000000E+00  0.00000000000E+00  0.16034398998E+02  0.16034398998E+02  0.00000000000E+00 0.  1.
          1   -1    0    0  501    0  0.00000000000E+00 -0.00000000000E+00 -0.84649139588E+03  0.84649139588E+03  0.00000000000E+00 0. -1.
         25    2    1    2    0    0  0.29732296403E+02  0.26906635460E+02 -0.42640394256E+03  0.44615126477E+03  0.12499060901E+03 0.  0.
         23    2    1    2    0    0 -0.29732296403E+02 -0.26906635460E+02 -0.40405305432E+03  0.41637453011E+03  0.92200336969E+02 0.  0.
          5    1    3    3  502    0 -0.12569483100E+02  0.69606941218E+02 -0.22230704894E+03  0.23333587846E+03  0.47000000000E+01 0.  1.
         -5    1    3    3    0  502  0.42301779503E+02 -0.42700305758E+02 -0.20409689362E+03  0.21281538630E+03  0.47000000000E+01 0.  1.
          5    1    4    4  503    0 -0.66347635517E+01 -0.56505990833E+02 -0.30588765867E+03  0.31116924144E+03  0.47000000000E+01 0. -1.
         -5    1    4    4    0  503 -0.23097532852E+02  0.29599355373E+02 -0.98165395652E+02  0.10520528868E+03  0.47000000000E+01 0.  1.
<mgrwt>
<rscale>  0 0.12280069E+03</rscale>
<asrwt>0</asrwt>
<pdfrwt beam="1">  1        1 0.13022948E+00 0.13126549E+03</pdfrwt>
<pdfrwt beam="2">  1       -1 0.24668299E-02 0.13126549E+03</pdfrwt>
<totfact> 0.10185141E+04</totfact>
</mgrwt>
</event>
<event>
 8    1  0.3520338E-004  0.1413180E+03  0.7546771E-02  0.1222842E+00
         -2   -1    0    0    0  501 -0.00000000000E+00  0.00000000000E+00  0.23567578111E+03  0.23567578111E+03  0.00000000000E+00 0.  1.
          2   -1    0    0  501    0  0.00000000000E+00 -0.00000000000E+00 -0.67754018816E+02  0.67754018816E+02  0.00000000000E+00 0. -1.
         25    2    1    2    0    0 -0.60867866352E+02  0.25332961985E+02  0.92582467765E+02  0.16894460781E+03  0.12499644417E+03 0.  0.
         23    2    1    2    0    0  0.60867866352E+02 -0.25332961985E+02  0.75339294531E+02  0.13448519211E+03  0.89797558321E+02 0.  0.
          5    1    3    3  502    0  0.36686333138E+02  0.16136653590E+02  0.43206209160E+02  0.59119752521E+02  0.47000000000E+01 0.  1.
         -5    1    4    4    0  503  0.73019566539E+02 -0.46012291955E+02  0.53119271101E+02  0.10145311760E+03  0.47000000000E+01 0.  1.
          5    1    4    4  503    0 -0.12151700187E+02  0.20679329970E+02  0.22220023430E+02  0.33032074514E+02  0.47000000000E+01 0. -1.
         -5    1    3    3    0  502 -0.97554199490E+02  0.91963083943E+01  0.49376258605E+02  0.10982485529E+03  0.47000000000E+01 0.  1.
<mgrwt>
<rscale>  0 0.13315903E+03</rscale>
<asrwt>0</asrwt>
<pdfrwt beam="1">  1        2 0.10423695E-01 0.14131796E+03</pdfrwt>
<pdfrwt beam="2">  1       -2 0.36257812E-01 0.14131796E+03</pdfrwt>
<totfact> 0.41834098E+03</totfact>
</mgrwt>
</event>
<event>
 8    1  0.3520338E-004  0.1828633E+03  0.7546771E-02  0.1170254E+00
         -2   -1    0    0    0  501 -0.00000000000E+00  0.00000000000E+00  0.28464150095E+02  0.28464150095E+02  0.00000000000E+00 0.  1.
          2   -1    0    0  501    0  0.00000000000E+00 -0.00000000000E+00 -0.11926124198E+04  0.11926124198E+04  0.00000000000E+00 0. -1.
         25    2    1    2    0    0  0.23788632963E+02 -0.13133344683E+03 -0.39905454280E+03  0.43895729570E+03  0.12499842402E+03 0.  0.
         23    2    1    2    0    0 -0.23788632963E+02  0.13133344683E+03 -0.76509372686E+03  0.78211927415E+03  0.92345951714E+02 0.  0.
          5    1    3    3  502    0 -0.91315514822E+01 -0.83617221143E+02 -0.85415940867E+02  0.11997165440E+03  0.47000000000E+01 0.  1.
         -5    1    3    3    0  502  0.32920184446E+02 -0.47716225685E+02 -0.31363860193E+03  0.31898564131E+03  0.47000000000E+01 0.  1.
          5    1    4    4  503    0 -0.54785858041E+02  0.61712662407E+02 -0.31879171710E+03  0.32933294982E+03  0.47000000000E+01 0. -1.
         -5    1    4    4    0  503  0.30997225078E+02  0.69620784421E+02 -0.44630200976E+03  0.45278632433E+03  0.47000000000E+01 0.  1.
<mgrwt>
<rscale>  0 0.17749098E+03</rscale>
<asrwt>0</asrwt>
<pdfrwt beam="1">  1        2 0.18347880E+00 0.18286328E+03</pdfrwt>
<pdfrwt beam="2">  1       -2 0.43791009E-02 0.18286328E+03</pdfrwt>
<totfact> 0.47846871E+03</totfact>
</mgrwt>
</event>
<event>
 8    1  0.3520338E-004  0.1269578E+03  0.7546771E-02  0.1247238E+00
         -4   -1    0    0    0  501 -0.00000000000E+00  0.00000000000E+00  0.27016560078E+02  0.27016560078E+02  0.00000000000E+00 0.  1.
          4   -1    0    0  501    0  0.00000000000E+00 -0.00000000000E+00 -0.44949561847E+03  0.44949561847E+03  0.00000000000E+00 0. -1.
         25    2    1    2    0    0 -0.17105882482E+02 -0.14186810719E+02 -0.23312876296E+03  0.26545679796E+03  0.12499765858E+03 0.  0.
         23    2    1    2    0    0  0.17105882482E+02  0.14186810719E+02 -0.18935029544E+03  0.21105538059E+03  0.90537077929E+02 0.  0.
          5    1    3    3  502    0 -0.42945857232E+02 -0.29332815070E+02 -0.22897659158E+03  0.23485555174E+03  0.47000000000E+01 0. -1.
         -5    1    3    3    0  502  0.25839974750E+02  0.15146004351E+02 -0.41521713782E+01  0.30601246217E+02  0.47000000000E+01 0. -1.
          5    1    4    4  503    0  0.48700787436E+02  0.29838638148E+02 -0.12549575350E+03  0.13796153511E+03  0.47000000000E+01 0. -1.
         -5    1    4    4    0  503 -0.31594904955E+02 -0.15651827429E+02 -0.63854541936E+02  0.73093845479E+02  0.47000000000E+01 0.  1.
<mgrwt>
<rscale>  0 0.11752421E+03</rscale>
<asrwt>0</asrwt>
<pdfrwt beam="1">  1        4 0.69153167E-01 0.12695783E+03</pdfrwt>
<pdfrwt beam="2">  1       -4 0.41563941E-02 0.12695783E+03</pdfrwt>
<totfact> 0.10257477E+03</totfact>
</mgrwt>
</event>
<event>
 8    1  0.3520338E-004  0.1734050E+03  0.7546771E-02  0.1179498E+00
         -2   -1    0    0    0  501 -0.00000000000E+00  0.00000000000E+00  0.15559479691E+03  0.15559479691E+03  0.00000000000E+00 0.  1.
          2   -1    0    0  501    0  0.00000000000E+00 -0.00000000000E+00 -0.18018216921E+03  0.18018216921E+03  0.00000000000E+00 0. -1.
         25    2    1    2    0    0 -0.96367832658E+02  0.71831063333E+02 -0.47393273850E+02  0.17976493380E+03  0.12499139246E+03 0.  0.
         23    2    1    2    0    0  0.96367832658E+02 -0.71831063333E+02  0.22805901552E+02  0.15601203232E+03  0.96815206718E+02 0.  0.
          5    1    3    3  502    0 -0.11181218990E+03  0.56778080651E+02 -0.73615778633E+02  0.14548913745E+03  0.47000000000E+01 0. -1.
         -5    1    4    4    0  503  0.13973600717E+02  0.23255336519E+02 -0.22881575806E+01  0.27629655422E+02  0.47000000000E+01 0.  1.
          5    1    4    4  503    0  0.82394231941E+02 -0.95086399852E+02  0.25094059132E+02  0.12838237690E+03  0.47000000000E+01 0. -1.
         -5    1    3    3    0  502  0.15444357245E+02  0.15052982682E+02  0.26222504783E+02  0.34275796350E+02  0.47000000000E+01 0. -1.
<mgrwt>
<rscale>  0 0.16842758E+03</rscale>
<asrwt>0</asrwt>
<pdfrwt beam="1">  1        2 0.27720334E-01 0.17340504E+03</pdfrwt>
<pdfrwt beam="2">  1       -2 0.23937661E-01 0.17340504E+03</pdfrwt>
<totfact> 0.28744672E+03</totfact>
</mgrwt>
</event>
<event>
 8    1  0.3520338E-004  0.1395350E+03  0.7546771E-02  0.1224594E+00
          3   -1    0    0  501    0  0.00000000000E+00  0.00000000000E+00  0.36834134482E+03  0.36834134482E+03  0.00000000000E+00 0. -1.
         -3   -1    0    0    0  501 -0.00000000000E+00 -0.00000000000E+00 -0.42812384626E+02  0.42812384626E+02  0.00000000000E+00 0.  1.
         25    2    1    2    0    0  0.49353949876E+02 -0.37537411573E+02  0.17696376446E+03  0.22535791241E+03  0.12500058046E+03 0.  0.
         23    2    1    2    0    0 -0.49353949876E+02  0.37537411573E+02  0.14856519573E+03  0.18579581704E+03  0.92755585331E+02 0.  0.
          5    1    4    4  502    0  0.11691273957E+02  0.46833627694E+02  0.78617901640E+02  0.92373908805E+02  0.47000000000E+01 0. -1.
         -5    1    4    4    0  502 -0.61045223833E+02 -0.92962161205E+01  0.69947294090E+02  0.93421908231E+02  0.47000000000E+01 0.  1.
          5    1    3    3  503    0 -0.33408317716E+02  0.18841284076E+02  0.39905850761E+02  0.55548866804E+02  0.47000000000E+01 0.  1.
         -5    1    3    3    0  503  0.82762267592E+02 -0.56378695649E+02  0.13705791370E+03  0.16980904560E+03  0.47000000000E+01 0.  1.
<mgrwt>
<rscale>  0 0.13194771E+03</rscale>
<asrwt>0</asrwt>
<pdfrwt beam="1">  1        3 0.56667897E-01 0.13953499E+03</pdfrwt>
<pdfrwt beam="2">  1       -3 0.65865209E-02 0.13953499E+03</pdfrwt>
<totfact> 0.10510074E+03</totfact>
</mgrwt>
</event>
<event>
 8    1  0.3520338E-004  0.1314795E+03  0.7546771E-02  0.1238033E+00
          2   -1    0    0  501    0  0.00000000000E+00  0.00000000000E+00  0.23379124347E+03  0.23379124347E+03  0.00000000000E+00 0. -1.
         -2   -1    0    0    0  501 -0.00000000000E+00 -0.00000000000E+00 -0.60173609523E+02  0.60173609523E+02  0.00000000000E+00 0.  1.
         25    2    1    2    0    0  0.36801735618E+02 -0.17519923930E+02  0.69038284684E+02  0.14850298345E+03  0.12500214343E+03 0.  0.
         23    2    1    2    0    0 -0.36801735618E+02  0.17519923930E+02  0.10457934927E+03  0.14546186954E+03  0.92525670597E+02 0.  0.
          5    1    3    3  502    0 -0.39667457960E+02 -0.27798812275E+02  0.48082852765E+02  0.68412951369E+02  0.47000000000E+01 0. -1.
         -5    1    3    3    0  502  0.76469193578E+02  0.10278888344E+02  0.20955431919E+02  0.80090032082E+02  0.47000000000E+01 0. -1.
          5    1    4    4  503    0 -0.16083250174E+02  0.21940340963E+02  0.11716692588E+03  0.12037536300E+03  0.47000000000E+01 0. -1.
         -5    1    4    4    0  503 -0.20718485444E+02 -0.44204170326E+01 -0.12587576609E+02  0.25086506547E+02  0.47000000000E+01 0.  1.
<mgrwt>
<rscale>  0 0.12312241E+03</rscale>
<asrwt>0</asrwt>
<pdfrwt beam="1">  1        2 0.35967883E-01 0.13147947E+03</pdfrwt>
<pdfrwt beam="2">  1       -2 0.92574786E-02 0.13147947E+03</pdfrwt>
<totfact> 0.10143968E+04</totfact>
</mgrwt>
</event>
<event>
 8    1  0.3520338E-004  0.2043069E+03  0.7546771E-02  0.1150195E+00
          2   -1    0    0  501    0  0.00000000000E+00  0.00000000000E+00  0.59602535725E+03  0.59602535725E+03  0.00000000000E+00 0. -1.
         -2   -1    0    0    0  501 -0.00000000000E+00 -0.00000000000E+00 -0.70660239731E+02  0.70660239731E+02  0.00000000000E+00 0.  1.
         25    2    1    2    0    0 -0.14168532875E+03 -0.77735555460E+02  0.17005318126E+03  0.26581832594E+03  0.12499499583E+03 0.  0.
         23    2    1    2    0    0  0.14168532875E+03  0.77735555460E+02  0.35531193626E+03  0.40086727104E+03  0.91271287805E+02 0.  0.
          5    1    4    4  502    0  0.21387298433E+02  0.35438615974E+02  0.17551651587E+03  0.18039248704E+03  0.47000000000E+01 0. -1.
         -5    1    4    4    0  502  0.12029803032E+03  0.42296939486E+02  0.17979542038E+03  0.22047478400E+03  0.47000000000E+01 0.  1.
          5    1    3    3  503    0 -0.40778017509E+02 -0.89193580589E+02  0.56005173966E+02  0.11303544153E+03  0.47000000000E+01 0.  1.
         -5    1    3    3    0  503 -0.10090731124E+03  0.11458025129E+02  0.11404800730E+03  0.15278288441E+03  0.47000000000E+01 0.  1.
<mgrwt>
<rscale>  0 0.19946088E+03</rscale>
<asrwt>0</asrwt>
<pdfrwt beam="1">  1        2 0.91696206E-01 0.20430687E+03</pdfrwt>
<pdfrwt beam="2">  1       -2 0.10870806E-01 0.20430687E+03</pdfrwt>
<totfact> 0.29201751E+03</totfact>
</mgrwt>
</event>
<event>
 8    1  0.3520338E-004  0.3593430E+03  0.7546771E-02  0.1059856E+00
         -1   -1    0    0    0  501 -0.00000000000E+00  0.00000000000E+00  0.25347423502E+03  0.25347423502E+03  0.00000000000E+00 0.  1.
          1   -1    0    0  501    0  0.00000000000E+00 -0.00000000000E+00 -0.50693133481E+03  0.50693133481E+03  0.00000000000E+00 0. -1.
         25    2    1    2    0    0  0.32940720557E+03  0.70685402671E+02 -0.18607797326E+03  0.40466336292E+03  0.12498756708E+03 0.  0.
         23    2    1    2    0    0 -0.32940720557E+03 -0.70685402671E+02 -0.67379126537E+02  0.35574220692E+03  0.92233604811E+02 0.  0.
          5    1    4    4  502    0 -0.23592830217E+02  0.18827072636E+02 -0.38215548736E+01  0.30785947823E+02  0.47000000000E+01 0. -1.
         -5    1    3    3    0  503  0.54269393255E+02 -0.34440472910E+02 -0.26939230008E+02  0.69850736088E+02  0.47000000000E+01 0.  1.
          5    1    3    3  503    0  0.27513781232E+03  0.10512587558E+03 -0.15913874325E+03  0.33481262683E+03  0.47000000000E+01 0.  1.
         -5    1    4    4    0  502 -0.30581437535E+03 -0.89512475307E+02 -0.63557571664E+02  0.32495625909E+03  0.47000000000E+01 0.  1.
<mgrwt>
<rscale>  0 0.35680629E+03</rscale>
<asrwt>0</asrwt>
<pdfrwt beam="1">  1        1 0.77989435E-01 0.35934305E+03</pdfrwt>
<pdfrwt beam="2">  1       -1 0.38996037E-01 0.35934305E+03</pdfrwt>
<totfact> 0.28659578E+02</totfact>
</mgrwt>
</event>
<event>
 8    1  0.3520338E-004  0.1560923E+03  0.7546771E-02  0.1201346E+00
         -1   -1    0    0    0  501 -0.00000000000E+00  0.00000000000E+00  0.52334177755E+02  0.52334177755E+02  0.00000000000E+00 0.  1.
          1   -1    0    0  501    0  0.00000000000E+00 -0.00000000000E+00 -0.40733099425E+03  0.40733099425E+03  0.00000000000E+00 0. -1.
         25    2    1    2    0    0  0.78751836577E+02  0.50400636595E+02 -0.23612148582E+03  0.28305149535E+03  0.12499086775E+03 0.  0.
         23    2    1    2    0    0 -0.78751836577E+02 -0.50400636595E+02 -0.11887533068E+03  0.17661367666E+03  0.91208391089E+02 0.  0.
          5    1    4    4  502    0 -0.23867530084E+02 -0.10306545795E+02 -0.10343331609E+03  0.10675403859E+03  0.47000000000E+01 0. -1.
         -5    1    4    4    0  502 -0.54884306493E+02 -0.40094090800E+02 -0.15442014594E+02  0.69859638068E+02  0.47000000000E+01 0.  1.
          5    1    3    3  503    0 -0.30054939381E+02  0.14308130388E+02 -0.22143515170E+02  0.40254779101E+02  0.47000000000E+01 0.  1.
         -5    1    3    3    0  503  0.10880677596E+03  0.36092506206E+02 -0.21397797065E+03  0.24279671625E+03  0.47000000000E+01 0.  1.
<mgrwt>
<rscale>  0 0.14929207E+03</rscale>
<asrwt>0</asrwt>
<pdfrwt beam="1">  1        1 0.62666304E-01 0.15609226E+03</pdfrwt>
<pdfrwt beam="2">  1       -1 0.80514123E-02 0.15609226E+03</pdfrwt>
<totfact> 0.48909442E+03</totfact>
</mgrwt>
</event>
<event>
 8    1  0.3520338E-004  0.1385635E+03  0.7546771E-02  0.1226288E+00
         -1   -1    0    0    0  501 -0.00000000000E+00  0.00000000000E+00  0.28808029171E+02  0.28808029171E+02  0.00000000000E+00 0.  1.
          1   -1    0    0  501    0  0.00000000000E+00 -0.00000000000E+00 -0.55883974703E+03  0.55883974703E+03  0.00000000000E+00 0. -1.
         25    2    1    2    0    0 -0.56924827093E+02 -0.18299438952E+02 -0.35309752214E+03  0.37931213136E+03  0.12499810978E+03 0.  0.
         23    2    1    2    0    0  0.56924827093E+02  0.18299438952E+02 -0.17693419572E+03  0.20833564485E+03  0.92318610757E+02 0.  0.
          5    1    3    3  502    0 -0.50023043662E+02 -0.64764845509E+02 -0.28425386703E+03  0.29583634163E+03  0.47000000000E+01 0. -1.
         -5    1    4    4    0  503  0.42028023546E+02  0.50776511421E+02 -0.14812811854E+03  0.16219937848E+03  0.47000000000E+01 0.  1.
          5    1    4    4  503    0  0.14896803547E+02 -0.32477072469E+02 -0.28806077180E+02  0.46136266370E+02  0.47000000000E+01 0. -1.
         -5    1    3    3    0  502 -0.69017834314E+01  0.46465406556E+02 -0.68843655112E+02  0.83475789725E+02  0.47000000000E+01 0. -1.
<mgrwt>
<rscale>  0 0.13079040E+03</rscale>
<asrwt>0</asrwt>
<pdfrwt beam="1">  1        1 0.85975345E-01 0.13856346E+03</pdfrwt>
<pdfrwt beam="2">  1       -1 0.44320045E-02 0.13856346E+03</pdfrwt>
<totfact> 0.78557621E+03</totfact>
</mgrwt>
</event>
<event>
 8    1  0.3520338E-004  0.1851332E+03  0.7546771E-02  0.1168449E+00
          2   -1    0    0  501    0  0.00000000000E+00  0.00000000000E+00  0.17467280715E+03  0.17467280715E+03  0.00000000000E+00 0. -1.
         -2   -1    0    0    0  501 -0.00000000000E+00 -0.00000000000E+00 -0.19377407400E+03  0.19377407400E+03  0.00000000000E+00 0.  1.
         25    2    1    2    0    0 -0.39779186241E+02  0.13064231263E+03  0.49437161929E+02  0.19162030906E+03  0.12499804942E+03 0.  0.
         23    2    1    2    0    0  0.39779186241E+02 -0.13064231263E+03 -0.68538428779E+02  0.17682657210E+03  0.88996195846E+02 0.  0.
          5    1    4    4  502    0 -0.17117862212E+02 -0.51323021175E+02  0.49775444004E+01  0.54533839563E+02  0.47000000000E+01 0. -1.
         -5    1    3    3    0  503 -0.78695042189E+02  0.11744820892E+03  0.25195096762E+02  0.14367976317E+03  0.47000000000E+01 0. -1.
          5    1    3    3  503    0  0.38915855948E+02  0.13194103707E+02  0.24242065167E+02  0.47940545891E+02  0.47000000000E+01 0. -1.
         -5    1    4    4    0  502  0.56897048453E+02 -0.79319291451E+02 -0.73515973179E+02  0.12229273254E+03  0.47000000000E+01 0.  1.
<mgrwt>
<rscale>  0 0.17933393E+03</rscale>
<asrwt>0</asrwt>
<pdfrwt beam="1">  1        2 0.26872740E-01 0.18513322E+03</pdfrwt>
<pdfrwt beam="2">  1       -2 0.29811396E-01 0.18513322E+03</pdfrwt>
<totfact> 0.20201443E+03</totfact>
</mgrwt>
</event>
<event>
 8    1  0.3520338E-004  0.1317549E+03  0.7546771E-02  0.1238074E+00
          4   -1    0    0  501    0  0.00000000000E+00  0.00000000000E+00  0.87918825386E+02  0.87918825386E+02  0.00000000000E+00 0. -1.
         -4   -1    0    0    0  501 -0.00000000000E+00 -0.00000000000E+00 -0.15324361260E+03  0.15324361260E+03  0.00000000000E+00 0.  1.
         25    2    1    2    0    0  0.36358732978E+02 -0.20302851870E+02 -0.37654812552E+02  0.13703004837E+03  0.12500074396E+03 0.  0.
         23    2    1    2    0    0 -0.36358732978E+02  0.20302851870E+02 -0.27669974663E+02  0.10413238961E+03  0.91344205130E+02 0.  0.
          5    1    3    3  502    0  0.27509038222E+02  0.10227811167E+02 -0.79150597571E+02  0.84547397364E+02  0.47000000000E+01 0. -1.
         -5    1    4    4    0  503  0.17050192573E+02  0.25825442486E+02 -0.38021650264E+02  0.49248334339E+02  0.47000000000E+01 0.  1.
          5    1    4    4  503    0 -0.53408925551E+02 -0.55225906155E+01  0.10351675601E+02  0.54884055274E+02  0.47000000000E+01 0. -1.
         -5    1    3    3    0  502  0.88496947559E+01 -0.30530663037E+02  0.41495785019E+02  0.52482651010E+02  0.47000000000E+01 0. -1.
<mgrwt>
<rscale>  0 0.12309671E+03</rscale>
<asrwt>0</asrwt>
<pdfrwt beam="1">  1        4 0.13525973E-01 0.13175488E+03</pdfrwt>
<pdfrwt beam="2">  1       -4 0.23575940E-01 0.13175488E+03</pdfrwt>
<totfact> 0.12356564E+03</totfact>
</mgrwt>
</event>
<event>
 8    1  0.3520338E-004  0.1278844E+03  0.7546771E-02  0.1245091E+00
         -1   -1    0    0    0  501 -0.00000000000E+00  0.00000000000E+00  0.25548510221E+03  0.25548510221E+03  0.00000000000E+00 0.  1.
          1   -1    0    0  501    0  0.00000000000E+00 -0.00000000000E+00 -0.49377168719E+02  0.49377168719E+02  0.00000000000E+00 0. -1.
         25    2    1    2    0    0 -0.20599993823E+01  0.26922934469E+02  0.13541252768E+03  0.18625510970E+03  0.12500130095E+03 0.  0.
         23    2    1    2    0    0  0.20599993823E+01 -0.26922934469E+02  0.70695405812E+02  0.11860716123E+03  0.91327598751E+02 0.  0.
          5    1    3    3  502    0 -0.81994974998E+01  0.76569433474E+02  0.89849720351E+02  0.11842791963E+03  0.47000000000E+01 0.  1.
         -5    1    3    3    0  502  0.61394981175E+01 -0.49646499005E+02  0.45562807325E+02  0.67827190064E+02  0.47000000000E+01 0.  1.
          5    1    4    4  503    0  0.31628405579E+02 -0.88923288958E+01 -0.65443853203E+01  0.33828220939E+02  0.47000000000E+01 0. -1.
         -5    1    4    4    0  503 -0.29568406197E+02 -0.18030605573E+02  0.77239791132E+02  0.84778940289E+02  0.47000000000E+01 0.  1.
<mgrwt>
<rscale>  0 0.11879904E+03</rscale>
<asrwt>0</asrwt>
<pdfrwt beam="1">  1        1 0.75964876E-02 0.12788437E+03</pdfrwt>
<pdfrwt beam="2">  1       -1 0.39305400E-01 0.12788437E+03</pdfrwt>
<totfact> 0.56331434E+03</totfact>
</mgrwt>
</event>
<event>
 8    1  0.3520338E-004  0.1914643E+03  0.7546771E-02  0.1161858E+00
         -2   -1    0    0    0  501 -0.00000000000E+00  0.00000000000E+00  0.39825651546E+02  0.39825651546E+02  0.00000000000E+00 0.  1.
          2   -1    0    0  501    0  0.00000000000E+00 -0.00000000000E+00 -0.83050685872E+03  0.83050685872E+03  0.00000000000E+00 0. -1.
         25    2    1    2    0    0 -0.14501253279E+03  0.22896180311E+01 -0.44401999226E+03  0.48354144277E+03  0.12499878534E+03 0.  0.
         23    2    1    2    0    0  0.14501253279E+03 -0.22896180311E+01 -0.34666121492E+03  0.38679106750E+03  0.91648540344E+02 0.  0.
          5    1    3    3  502    0 -0.12745365787E+03 -0.45066658316E+02 -0.36872573122E+03  0.39275462246E+03  0.47000000000E+01 0. -1.
         -5    1    3    3    0  502 -0.17558874919E+02  0.47356276347E+02 -0.75294261031E+02  0.90786820310E+02  0.47000000000E+01 0. -1.
          5    1    4    4  503    0  0.12882881675E+03  0.19267094989E+02 -0.32986593469E+03  0.35468536739E+03  0.47000000000E+01 0. -1.
         -5    1    4    4    0  503  0.16183716040E+02 -0.21556713020E+02 -0.16795280234E+02  0.32105700105E+02  0.47000000000E+01 0.  1.
<mgrwt>
<rscale>  0 0.18628194E+03</rscale>
<asrwt>0</asrwt>
<pdfrwt beam="1">  1        2 0.12777028E+00 0.19146429E+03</pdfrwt>
<pdfrwt beam="2">  1       -2 0.61270238E-02 0.19146429E+03</pdfrwt>
<totfact> 0.47755237E+03</totfact>
</mgrwt>
</event>
<event>
 8    1  0.3520338E-004  0.1521721E+03  0.7546771E-02  0.1206564E+00
          1   -1    0    0  501    0  0.00000000000E+00  0.00000000000E+00  0.21989197585E+03  0.21989197585E+03  0.00000000000E+00 0. -1.
         -1   -1    0    0    0  501 -0.00000000000E+00 -0.00000000000E+00 -0.27294606653E+03  0.27294606653E+03  0.00000000000E+00 0.  1.
         25    2    1    2    0    0 -0.33149247414E+02  0.80195189626E+02  0.17524545175E+03  0.23209335140E+03  0.12500485735E+03 0.  0.
         23    2    1    2    0    0  0.33149247414E+02 -0.80195189626E+02 -0.22829954243E+03  0.26074469098E+03  0.91307019215E+02 0.  0.
          5    1    4    4  502    0 -0.17495298717E+02 -0.41599417337E+02 -0.35386718457E+02  0.57540480039E+02  0.47000000000E+01 0. -1.
         -5    1    3    3    0  503 -0.20233692710E+02 -0.32265273990E+02  0.52814172337E+02  0.65283053130E+02  0.47000000000E+01 0.  1.
          5    1    3    3  503    0 -0.12915554704E+02  0.11246046362E+03  0.12243127941E+03  0.16681029827E+03  0.47000000000E+01 0.  1.
         -5    1    4    4    0  502  0.50644546131E+02 -0.38595772289E+02 -0.19291282397E+03  0.20320421094E+03  0.47000000000E+01 0.  1.
<mgrwt>
<rscale>  0 0.14514884E+03</rscale>
<asrwt>0</asrwt>
<pdfrwt beam="1">  1        1 0.33829535E-01 0.15217212E+03</pdfrwt>
<pdfrwt beam="2">  1       -1 0.41991702E-01 0.15217212E+03</pdfrwt>
<totfact> 0.73474166E+02</totfact>
</mgrwt>
</event>
<event>
 8    1  0.3520338E-004  0.2541246E+03  0.7546771E-02  0.1113116E+00
         -1   -1    0    0    0  501 -0.00000000000E+00  0.00000000000E+00  0.91060209250E+02  0.91060209250E+02  0.00000000000E+00 0.  1.
          1   -1    0    0  501    0  0.00000000000E+00 -0.00000000000E+00 -0.80484452769E+03  0.80484452769E+03  0.00000000000E+00 0. -1.
         25    2    1    2    0    0 -0.22089101574E+03  0.12605530729E+02 -0.55048258335E+03  0.60630883587E+03  0.12501035813E+03 0.  0.
         23    2    1    2    0    0  0.22089101574E+03 -0.12605530729E+02 -0.16330173509E+03  0.28959590107E+03  0.90810731707E+02 0.  0.
          5    1    4    4  502    0  0.13510310697E+03  0.22681837632E+02 -0.13526116323E+03  0.19257462852E+03  0.47000000000E+01 0. -1.
         -5    1    4    4    0  502  0.85787908767E+02 -0.35287368362E+02 -0.28040571860E+02  0.97021272548E+02  0.47000000000E+01 0.  1.
          5    1    3    3  503    0 -0.14263161806E+02 -0.35332048494E+02 -0.12658963788E+03  0.13228309739E+03  0.47000000000E+01 0. -1.
         -5    1    3    3    0  503 -0.20662785394E+03  0.47937579223E+02 -0.42389294547E+03  0.47402573848E+03  0.47000000000E+01 0. -1.
<mgrwt>
<rscale>  0 0.25029835E+03</rscale>
<asrwt>0</asrwt>
<pdfrwt beam="1">  1        1 0.12382224E+00 0.25412463E+03</pdfrwt>
<pdfrwt beam="2">  1       -1 0.14009263E-01 0.25412463E+03</pdfrwt>
<totfact> 0.82091135E+02</totfact>
</mgrwt>
</event>
<event>
 8    1  0.3520338E-004  0.1910117E+03  0.7546771E-02  0.1162267E+00
         -3   -1    0    0    0  501 -0.00000000000E+00  0.00000000000E+00  0.28675674640E+03  0.28675674640E+03  0.00000000000E+00 0.  1.
          3   -1    0    0  501    0  0.00000000000E+00 -0.00000000000E+00 -0.25663113444E+03  0.25663113444E+03  0.00000000000E+00 0. -1.
         25    2    1    2    0    0 -0.14252897667E+03  0.23344619489E+02 -0.18673514907E+03  0.26712445260E+03  0.12500390726E+03 0.  0.
         23    2    1    2    0    0  0.14252897667E+03 -0.23344619489E+02  0.21686076102E+03  0.27626342823E+03  0.91833608536E+02 0.  0.
          5    1    3    3  502    0 -0.29313351661E+02 -0.25878418789E+02  0.43051373737E+01  0.39618043268E+02  0.47000000000E+01 0. -1.
         -5    1    4    4    0  503  0.49057393988E+02 -0.53532755162E+02  0.88912079959E+02  0.11489052068E+03  0.47000000000E+01 0.  1.
          5    1    4    4  503    0  0.93471582686E+02  0.30188135673E+02  0.12794868106E+03  0.16137290755E+03  0.47000000000E+01 0. -1.
         -5    1    3    3    0  502 -0.11321562501E+03  0.49223038278E+02 -0.19104028644E+03  0.22750640933E+03  0.47000000000E+01 0. -1.
<mgrwt>
<rscale>  0 0.18584043E+03</rscale>
<asrwt>0</asrwt>
<pdfrwt beam="1">  1        3 0.39481713E-01 0.19101167E+03</pdfrwt>
<pdfrwt beam="2">  1       -3 0.44116423E-01 0.19101167E+03</pdfrwt>
<totfact> 0.79477578E+01</totfact>
</mgrwt>
</event>
<event>
 8    1  0.3520338E-004  0.1734277E+03  0.7546771E-02  0.1180482E+00
          1   -1    0    0  501    0  0.00000000000E+00  0.00000000000E+00  0.43188920018E+03  0.43188920018E+03  0.00000000000E+00 0. -1.
         -1   -1    0    0    0  501 -0.00000000000E+00 -0.00000000000E+00 -0.65802462124E+02  0.65802462124E+02  0.00000000000E+00 0.  1.
         25    2    1    2    0    0  0.11633307430E+03 -0.30304298974E+02  0.26265663780E+03  0.31474702150E+03  0.12500177380E+03 0.  0.
         23    2    1    2    0    0 -0.11633307430E+03  0.30304298974E+02  0.10343010026E+03  0.18294464080E+03  0.91209765090E+02 0.  0.
          5    1    3    3  502    0  0.62973463099E+02  0.44894400243E+02  0.88449694660E+02  0.11758657540E+03  0.47000000000E+01 0.  1.
         -5    1    3    3    0  502  0.53359611198E+02 -0.75198699216E+02  0.17420694314E+03  0.19716044610E+03  0.47000000000E+01 0.  1.
          5    1    4    4  503    0 -0.31034920546E+02  0.52065445096E+02  0.56872870468E+02  0.83250166736E+02  0.47000000000E+01 0. -1.
         -5    1    4    4    0  503 -0.85298153751E+02 -0.21761146122E+02  0.46557229792E+02  0.99694474069E+02  0.47000000000E+01 0.  1.
<mgrwt>
<rscale>  0 0.16749875E+03</rscale>
<asrwt>0</asrwt>
<pdfrwt beam="1">  1        1 0.66444491E-01 0.17342773E+03</pdfrwt>
<pdfrwt beam="2">  1       -1 0.10123456E-01 0.17342773E+03</pdfrwt>
<totfact> 0.32155750E+03</totfact>
</mgrwt>
</event>
<event>
 8    1  0.3520338E-004  0.1272316E+03  0.7546771E-02  0.1246537E+00
         -1   -1    0    0    0  501 -0.00000000000E+00  0.00000000000E+00  0.57863597002E+02  0.57863597002E+02  0.00000000000E+00 0.  1.
          1   -1    0    0  501    0  0.00000000000E+00 -0.00000000000E+00 -0.21356928312E+03  0.21356928312E+03  0.00000000000E+00 0. -1.
         25    2    1    2    0    0 -0.16711733717E+02  0.16763907783E+02 -0.75743550027E+02  0.14807078605E+03  0.12501024624E+03 0.  0.
         23    2    1    2    0    0  0.16711733717E+02 -0.16763907783E+02 -0.79962136092E+02  0.12336209407E+03  0.90906283594E+02 0.  0.
          5    1    3    3  502    0  0.47303516195E+02  0.13444184524E+02 -0.88980722286E+00  0.49409012324E+02  0.47000000000E+01 0. -1.
         -5    1    4    4    0  503  0.10456658882E+02  0.30555413644E+02 -0.31249924978E+01  0.32784609134E+02  0.47000000000E+01 0.  1.
          5    1    4    4  503    0  0.62550748347E+01 -0.47319321427E+02 -0.76837143595E+02  0.90577484936E+02  0.47000000000E+01 0. -1.
         -5    1    3    3    0  502 -0.64015249911E+02  0.33197232586E+01 -0.74853742804E+02  0.98661773730E+02  0.47000000000E+01 0. -1.
<mgrwt>
<rscale>  0 0.11793860E+03</rscale>
<asrwt>0</asrwt>
<pdfrwt beam="1">  1        1 0.32856813E-01 0.12723157E+03</pdfrwt>
<pdfrwt beam="2">  1       -1 0.89020917E-02 0.12723157E+03</pdfrwt>
<totfact> 0.92561186E+03</totfact>
</mgrwt>
</event>
<event>
 8    1  0.3520338E-004  0.1359663E+03  0.7546771E-02  0.1231423E+00
          1   -1    0    0  501    0  0.00000000000E+00  0.00000000000E+00  0.17276897149E+03  0.17276897149E+03  0.00000000000E+00 0. -1.
         -1   -1    0    0    0  501 -0.00000000000E+00 -0.00000000000E+00 -0.92317302493E+02  0.92317302493E+02  0.00000000000E+00 0.  1.
         25    2    1    2    0    0 -0.88771208132E+00  0.53490404596E+02  0.50209029801E+01  0.13605898568E+03  0.12499930680E+03 0.  0.
         23    2    1    2    0    0  0.88771208132E+00 -0.53490404596E+02  0.75430766013E+02  0.12902728830E+03  0.89979048936E+02 0.  0.
          5    1    4    4  502    0  0.38168166370E+02  0.90625413950E+00  0.30504871898E+02  0.49094474537E+02  0.47000000000E+01 0. -1.
         -5    1    3    3    0  503  0.37073453651E+02  0.39841393753E+02  0.50985708122E+02  0.74722219282E+02  0.47000000000E+01 0. -1.
          5    1    3    3  503    0 -0.37961165732E+02  0.13649010843E+02 -0.45964805142E+02  0.61336766401E+02  0.47000000000E+01 0. -1.
         -5    1    4    4    0  502 -0.37280454288E+02 -0.54396658735E+02  0.44925894115E+02  0.79932813760E+02  0.47000000000E+01 0.  1.
<mgrwt>
<rscale>  0 0.12736236E+03</rscale>
<asrwt>0</asrwt>
<pdfrwt beam="1">  1        1 0.26579842E-01 0.13596631E+03</pdfrwt>
<pdfrwt beam="2">  1       -1 0.14202662E-01 0.13596631E+03</pdfrwt>
<totfact> 0.59069474E+03</totfact>
</mgrwt>
</event>
<event>
 8    1  0.3520338E-004  0.1366801E+03  0.7546771E-02  0.1229464E+00
          1   -1    0    0  501    0  0.00000000000E+00  0.00000000000E+00  0.10862976525E+04  0.10862976525E+04  0.00000000000E+00 0. -1.
         -1   -1    0    0    0  501 -0.00000000000E+00 -0.00000000000E+00 -0.13699354771E+02  0.13699354771E+02  0.00000000000E+00 0.  1.
         25    2    1    2    0    0  0.23486959406E+01  0.55229261120E+02  0.60109387643E+03  0.61643757723E+03  0.12500260271E+03 0.  0.
         23    2    1    2    0    0 -0.23486959406E+01 -0.55229261120E+02  0.47150442127E+03  0.48355943001E+03  0.91964750955E+02 0.  0.
          5    1    3    3  502    0  0.13951777129E+02  0.88630328596E+02  0.52195893076E+03  0.52963497112E+03  0.47000000000E+01 0.  1.
         -5    1    4    4    0  503  0.32020966397E+02 -0.78641439851E+00  0.72950072948E+02  0.79810800520E+02  0.47000000000E+01 0.  1.
          5    1    4    4  503    0 -0.34369662338E+02 -0.54442846721E+02  0.39855434832E+03  0.40374862949E+03  0.47000000000E+01 0. -1.
         -5    1    3    3    0  502 -0.11603081188E+02 -0.33401067477E+02  0.79134945668E+02  0.86802606110E+02  0.47000000000E+01 0.  1.
<mgrwt>
<rscale>  0 0.12865565E+03</rscale>
<asrwt>0</asrwt>
<pdfrwt beam="1">  1        1 0.16712265E+00 0.13668006E+03</pdfrwt>
<pdfrwt beam="2">  1       -1 0.21075939E-02 0.13668006E+03</pdfrwt>
<totfact> 0.84945557E+03</totfact>
</mgrwt>
</event>
<event>
 8    1  0.3520338E-004  0.1315501E+03  0.7546771E-02  0.1238889E+00
         -2   -1    0    0    0  501 -0.00000000000E+00  0.00000000000E+00  0.55055216249E+02  0.55055216249E+02  0.00000000000E+00 0.  1.
          2   -1    0    0  501    0  0.00000000000E+00 -0.00000000000E+00 -0.31197910891E+03  0.31197910891E+03  0.00000000000E+00 0. -1.
         25    2    1    2    0    0  0.35990547733E+02  0.19624739030E+02 -0.56033923733E+02  0.14298684973E+03  0.12499995472E+03 0.  0.
         23    2    1    2    0    0 -0.35990547733E+02 -0.19624739030E+02 -0.20088996892E+03  0.22404747542E+03  0.90332949252E+02 0.  0.
          5    1    4    4  502    0  0.16784356704E+02 -0.38569451850E+02 -0.74177571355E+02  0.85403274750E+02  0.47000000000E+01 0. -1.
         -5    1    4    4    0  502 -0.52774904437E+02  0.18944712820E+02 -0.12671239757E+03  0.13864420067E+03  0.47000000000E+01 0.  1.
          5    1    3    3  503    0  0.55959282395E+02 -0.33730827999E+02 -0.55442175972E+02  0.85820364251E+02  0.47000000000E+01 0. -1.
         -5    1    3    3    0  503 -0.19968734662E+02  0.53355567029E+02 -0.59174776109E+00  0.57166485482E+02  0.47000000000E+01 0. -1.
<mgrwt>
<rscale>  0 0.12258733E+03</rscale>
<asrwt>0</asrwt>
<pdfrwt beam="1">  1        2 0.47996787E-01 0.13155014E+03</pdfrwt>
<pdfrwt beam="2">  1       -2 0.84700331E-02 0.13155014E+03</pdfrwt>
<totfact> 0.85756619E+03</totfact>
</mgrwt>
</event>
<event>
 8    1  0.3520338E-004  0.1252811E+03  0.7546771E-02  0.1250592E+00
         -2   -1    0    0    0  501 -0.00000000000E+00  0.00000000000E+00  0.17143067321E+02  0.17143067321E+02  0.00000000000E+00 0.  1.
          2   -1    0    0  501    0  0.00000000000E+00 -0.00000000000E+00 -0.80785365200E+03  0.80785365200E+03  0.00000000000E+00 0. -1.
         25    2    1    2    0    0 -0.71829251635E+01  0.40759455058E+01 -0.28656177932E+03  0.31275070103E+03  0.12500855922E+03 0.  0.
         23    2    1    2    0    0  0.71829251635E+01 -0.40759455058E+01 -0.50414880536E+03  0.51224601830E+03  0.90342446113E+02 0.  0.
          5    1    3    3  502    0 -0.62332153397E+02 -0.31129933518E+01 -0.99566134269E+02  0.11760311717E+03  0.47000000000E+01 0. -1.
         -5    1    3    3    0  502  0.55149228233E+02  0.71889388576E+01 -0.18699564505E+03  0.19514758386E+03  0.47000000000E+01 0. -1.
          5    1    4    4  503    0  0.47593691635E+02 -0.10741203226E+02 -0.24747414337E+03  0.25228173649E+03  0.47000000000E+01 0. -1.
         -5    1    4    4    0  503 -0.40410766471E+02  0.66652577203E+01 -0.25667466199E+03  0.25996428180E+03  0.47000000000E+01 0.  1.
<mgrwt>
<rscale>  0 0.11556833E+03</rscale>
<asrwt>0</asrwt>
<pdfrwt beam="1">  1        2 0.12428518E+00 0.12528107E+03</pdfrwt>
<pdfrwt beam="2">  1       -2 0.26373950E-02 0.12528107E+03</pdfrwt>
<totfact> 0.17003068E+04</totfact>
</mgrwt>
</event>
<event>
 8    1  0.3520338E-004  0.1693971E+03  0.7546771E-02  0.1184760E+00
          2   -1    0    0  501    0  0.00000000000E+00  0.00000000000E+00  0.12796850616E+03  0.12796850616E+03  0.00000000000E+00 0. -1.
         -2   -1    0    0    0  501 -0.00000000000E+00 -0.00000000000E+00 -0.22901217219E+03  0.22901217219E+03  0.00000000000E+00 0.  1.
         25    2    1    2    0    0 -0.94444608701E+02 -0.64433983369E+02 -0.12143627805E+03  0.20842783253E+03  0.12499547761E+03 0.  0.
         23    2    1    2    0    0  0.94444608701E+02  0.64433983369E+02  0.20392612021E+02  0.14855284582E+03  0.92631350253E+02 0.  0.
          5    1    3    3  502    0 -0.11901753846E+03 -0.61589258995E+02 -0.12460590589E+03  0.18304953719E+03  0.47000000000E+01 0. -1.
         -5    1    3    3    0  502  0.24572929757E+02 -0.28447243744E+01  0.31696278407E+01  0.25378295338E+02  0.47000000000E+01 0. -1.
          5    1    4    4  503    0  0.61806189484E+02  0.72362004869E+02  0.46243264468E+02  0.10590936840E+03  0.47000000000E+01 0. -1.
         -5    1    4    4    0  503  0.32638419217E+02 -0.79280214997E+01 -0.25850652447E+02  0.42643477412E+02  0.47000000000E+01 0.  1.
<mgrwt>
<rscale>  0 0.16353738E+03</rscale>
<asrwt>0</asrwt>
<pdfrwt beam="1">  1        2 0.19687463E-01 0.16939714E+03</pdfrwt>
<pdfrwt beam="2">  1       -2 0.35232641E-01 0.16939714E+03</pdfrwt>
<totfact> 0.21015382E+03</totfact>
</mgrwt>
</event>
<event>
 8    1  0.3520338E-004  0.1562449E+03  0.7546771E-02  0.1201279E+00
          1   -1    0    0  501    0  0.00000000000E+00  0.00000000000E+00  0.20509663711E+03  0.20509663711E+03  0.00000000000E+00 0. -1.
         -1   -1    0    0    0  501 -0.00000000000E+00 -0.00000000000E+00 -0.10400456279E+03  0.10400456279E+03  0.00000000000E+00 0.  1.
         25    2    1    2    0    0  0.93199073232E+02  0.10137937523E+02  0.84485333443E+02  0.17762389799E+03  0.12499453005E+03 0.  0.
         23    2    1    2    0    0 -0.93199073232E+02 -0.10137937523E+02  0.16606740872E+02  0.13147730191E+03  0.90673325995E+02 0.  0.
          5    1    3    3  502    0  0.10483141063E+03 -0.10685794744E+02  0.18222209560E+02  0.10704181326E+03  0.47000000000E+01 0.  1.
         -5    1    4    4    0  503 -0.74098852741E+00  0.20999821905E+02 -0.17783254609E+02  0.27926255183E+02  0.47000000000E+01 0.  1.
          5    1    4    4  503    0 -0.92458084705E+02 -0.31137759428E+02  0.34389995481E+02  0.10355104673E+03  0.47000000000E+01 0. -1.
         -5    1    3    3    0  502 -0.11632337399E+02  0.20823732267E+02  0.66263123883E+02  0.70582084735E+02  0.47000000000E+01 0.  1.
<mgrwt>
<rscale>  0 0.14934616E+03</rscale>
<asrwt>0</asrwt>
<pdfrwt beam="1">  1        1 0.31553329E-01 0.15624493E+03</pdfrwt>
<pdfrwt beam="2">  1       -1 0.16000702E-01 0.15624493E+03</pdfrwt>
<totfact> 0.39863095E+03</totfact>
</mgrwt>
</event>
<event>
 8    1  0.3520338E-004  0.1502160E+03  0.7546771E-02  0.1211334E+00
          1   -1    0    0  501    0  0.00000000000E+00  0.00000000000E+00  0.30454705516E+03  0.30454705516E+03  0.00000000000E+00 0. -1.
         -1   -1    0    0    0  501 -0.00000000000E+00 -0.00000000000E+00 -0.66670763718E+02  0.66670763718E+02  0.00000000000E+00 0.  1.
         25    2    1    2    0    0 -0.48556647903E+02 -0.67699789887E+02  0.19339820698E+03  0.24488306545E+03  0.12499535861E+03 0.  0.
         23    2    1    2    0    0  0.48556647903E+02  0.67699789887E+02  0.44478084460E+02  0.12633475343E+03  0.83911622079E+02 0.  0.
          5    1    3    3  502    0 -0.70566114027E+01  0.25205113234E+02  0.11019842765E+03  0.11336170850E+03  0.47000000000E+01 0. -1.
         -5    1    3    3    0  502 -0.41500036501E+02 -0.92904903122E+02  0.83199779339E+02  0.13152135696E+03  0.47000000000E+01 0. -1.
          5    1    4    4  503    0  0.63098030709E+02  0.21752767477E+02  0.11857977638E+02  0.67950320131E+02  0.47000000000E+01 0. -1.
         -5    1    4    4    0  503 -0.14541382805E+02  0.45947022411E+02  0.32620106823E+02  0.58384433297E+02  0.47000000000E+01 0.  1.
<mgrwt>
<rscale>  0 0.14149268E+03</rscale>
<asrwt>0</asrwt>
<pdfrwt beam="1">  1        1 0.46853392E-01 0.15021601E+03</pdfrwt>
<pdfrwt beam="2">  1       -1 0.10257041E-01 0.15021601E+03</pdfrwt>
<totfact> 0.48605039E+03</totfact>
</mgrwt>
</event>
<event>
 8    1  0.3520338E-004  0.1819459E+03  0.7546771E-02  0.1172887E+00
         -2   -1    0    0    0  501 -0.00000000000E+00  0.00000000000E+00  0.10560782137E+03  0.10560782137E+03  0.00000000000E+00 0.  1.
          2   -1    0    0  501    0  0.00000000000E+00 -0.00000000000E+00 -0.29208409263E+03  0.29208409263E+03  0.00000000000E+00 0. -1.
         25    2    1    2    0    0  0.90963413803E+01  0.13188857709E+03 -0.15577275447E+03  0.23951926570E+03  0.12500794940E+03 0.  0.
         23    2    1    2    0    0 -0.90963413803E+01 -0.13188857709E+03 -0.30703516791E+02  0.15817264831E+03  0.81231401177E+02 0.  0.
          5    1    4    4  502    0  0.20758466805E+02 -0.73400010002E+02 -0.47815975287E+02  0.90149503077E+02  0.47000000000E+01 0. -1.
         -5    1    4    4    0  502 -0.29854808186E+02 -0.58488567088E+02  0.17112458495E+02  0.68023145234E+02  0.47000000000E+01 0.  1.
          5    1    3    3  503    0  0.10737544810E+02  0.29603409019E+02  0.18910316582E+02  0.37031699493E+02  0.47000000000E+01 0. -1.
         -5    1    3    3    0  503 -0.16412034301E+01  0.10228516807E+03 -0.17468307105E+03  0.20248756620E+03  0.47000000000E+01 0. -1.
<mgrwt>
<rscale>  0 0.17484554E+03</rscale>
<asrwt>0</asrwt>
<pdfrwt beam="1">  1        2 0.44936015E-01 0.18194595E+03</pdfrwt>
<pdfrwt beam="2">  1       -2 0.16247357E-01 0.18194595E+03</pdfrwt>
<totfact> 0.33025530E+03</totfact>
</mgrwt>
</event>
<event>
 8    1  0.3520338E-004  0.1578511E+03  0.7546771E-02  0.1198045E+00
          1   -1    0    0  501    0  0.00000000000E+00  0.00000000000E+00  0.52979269657E+03  0.52979269657E+03  0.00000000000E+00 0. -1.
         -1   -1    0    0    0  501 -0.00000000000E+00 -0.00000000000E+00 -0.40935845117E+02  0.40935845117E+02  0.00000000000E+00 0.  1.
         25    2    1    2    0    0 -0.35210872350E+01  0.96325124058E+02  0.28606849671E+03  0.32672949022E+03  0.12500418947E+03 0.  0.
         23    2    1    2    0    0  0.35210872350E+01 -0.96325124058E+02  0.20278835474E+03  0.24399905147E+03  0.95506506168E+02 0.  0.
          5    1    4    4  502    0  0.23557243542E+02 -0.86301025218E+01  0.11649077857E+03  0.11925440824E+03  0.47000000000E+01 0. -1.
         -5    1    3    3    0  503 -0.18825661288E+02 -0.26342680156E+02  0.43429293326E+02  0.54374036447E+02  0.47000000000E+01 0. -1.
          5    1    3    3  503    0  0.15304574053E+02  0.12266780421E+03  0.24263920339E+03  0.27235545377E+03  0.47000000000E+01 0. -1.
         -5    1    4    4    0  502 -0.20036156307E+02 -0.87695021537E+02  0.86297576170E+02  0.12474464323E+03  0.47000000000E+01 0.  1.
<mgrwt>
<rscale>  0 0.15199336E+03</rscale>
<asrwt>0</asrwt>
<pdfrwt beam="1">  1        1 0.81506563E-01 0.15785112E+03</pdfrwt>
<pdfrwt beam="2">  1       -1 0.62978227E-02 0.15785112E+03</pdfrwt>
<totfact> 0.50405631E+03</totfact>
</mgrwt>
</event>
<event>
 8    1  0.3520338E-004  0.1837175E+03  0.7546771E-02  0.1170915E+00
          1   -1    0    0  501    0  0.00000000000E+00  0.00000000000E+00  0.35481608912E+03  0.35481608912E+03  0.00000000000E+00 0. -1.
         -1   -1    0    0    0  501 -0.00000000000E+00 -0.00000000000E+00 -0.82490356805E+02  0.82490356805E+02  0.00000000000E+00 0.  1.
         25    2    1    2    0    0  0.13212242553E+03  0.25916765468E+02  0.13162672691E+03  0.22600377310E+03  0.12499638458E+03 0.  0.
         23    2    1    2    0    0 -0.13212242553E+03 -0.25916765468E+02  0.14069900540E+03  0.21130267282E+03  0.82003630179E+02 0.  0.
          5    1    3    3  502    0 -0.22396829026E+02  0.13046636385E+02  0.32816984638E+02  0.42081791218E+02  0.47000000000E+01 0. -1.
         -5    1    4    4    0  503 -0.83966357353E+02 -0.37701307430E+02  0.43119548349E+02  0.10175029827E+03  0.47000000000E+01 0.  1.
          5    1    4    4  503    0 -0.48156068175E+02  0.11784541962E+02  0.97579457051E+02  0.10955237455E+03  0.47000000000E+01 0. -1.
         -5    1    3    3    0  502  0.15451925455E+03  0.12870129083E+02  0.98809742276E+02  0.18392198188E+03  0.47000000000E+01 0. -1.
<mgrwt>
<rscale>  0 0.17682121E+03</rscale>
<asrwt>0</asrwt>
<pdfrwt beam="1">  1        1 0.54587090E-01 0.18371747E+03</pdfrwt>
<pdfrwt beam="2">  1       -1 0.12690824E-01 0.18371747E+03</pdfrwt>
<totfact> 0.29153105E+03</totfact>
</mgrwt>
</event>
<event>
 8    1  0.3520338E-004  0.1262106E+03  0.7546771E-02  0.1248622E+00
          2   -1    0    0  501    0  0.00000000000E+00  0.00000000000E+00  0.93050268400E+02  0.93050268400E+02  0.00000000000E+00 0.  1.
         -2   -1    0    0    0  501 -0.00000000000E+00 -0.00000000000E+00 -0.18041353449E+03  0.18041353449E+03  0.00000000000E+00 0. -1.
         25    2    1    2    0    0 -0.96398101976E+00 -0.17443043420E+02  0.24369145818E+02  0.12854171094E+03  0.12499570857E+03 0.  0.
         23    2    1    2    0    0  0.96398101976E+00  0.17443043420E+02 -0.11173241191E+03  0.14492209195E+03  0.90626110155E+02 0.  0.
          5    1    3    3  502    0  0.36007172947E+02 -0.31028829155E+02  0.58981629688E+02  0.75896161846E+02  0.47000000000E+01 0.  1.
         -5    1    3    3    0  502 -0.36971153966E+02  0.13585785735E+02 -0.34612483869E+02  0.52645549092E+02  0.47000000000E+01 0.  1.
          5    1    4    4  503    0 -0.40711898446E+02 -0.36211775985E+01 -0.74138939586E+02  0.84789409511E+02  0.47000000000E+01 0. -1.
         -5    1    4    4    0  503  0.41675879466E+02  0.21064221018E+02 -0.37593472323E+02  0.60132682442E+02  0.47000000000E+01 0.  1.
<mgrwt>
<rscale>  0 0.11671210E+03</rscale>
<asrwt>0</asrwt>
<pdfrwt beam="1">  1        2 0.14315426E-01 0.12621060E+03</pdfrwt>
<pdfrwt beam="2">  1       -2 0.27755928E-01 0.12621060E+03</pdfrwt>
<totfact> 0.46103474E+03</totfact>
</mgrwt>
</event>
<event>
 8    1  0.3520338E-004  0.1299119E+03  0.7546771E-02  0.1241441E+00
         -2   -1    0    0    0  501 -0.00000000000E+00  0.00000000000E+00  0.37716569743E+02  0.37716569743E+02  0.00000000000E+00 0.  1.
          2   -1    0    0  501    0  0.00000000000E+00 -0.00000000000E+00 -0.57258356519E+03  0.57258356519E+03  0.00000000000E+00 0. -1.
         25    2    1    2    0    0 -0.44245580412E+00  0.35378544294E+02 -0.48185211730E+03  0.49905766736E+03  0.12500102095E+03 0.  0.
         23    2    1    2    0    0  0.44245580412E+00 -0.35378544294E+02 -0.53014878146E+02  0.11124246757E+03  0.91172759767E+02 0.  0.
          5    1    4    4  502    0 -0.11800857680E+02  0.27952356000E+02 -0.29057784874E+02  0.42273387725E+02  0.47000000000E+01 0. -1.
         -5    1    4    4    0  502  0.12243313484E+02 -0.63330900294E+02 -0.23957093272E+02  0.68969079849E+02  0.47000000000E+01 0.  1.
          5    1    3    3  503    0  0.41587164642E+02 -0.15421311777E+02 -0.78170462077E+02  0.90000112562E+02  0.47000000000E+01 0.  1.
         -5    1    3    3    0  503 -0.42029620446E+02  0.50799856071E+02 -0.40368165522E+03  0.40905755479E+03  0.47000000000E+01 0.  1.
<mgrwt>
<rscale>  0 0.12100918E+03</rscale>
<asrwt>0</asrwt>
<pdfrwt beam="1">  1        2 0.88089777E-01 0.12991186E+03</pdfrwt>
<pdfrwt beam="2">  1       -2 0.58025493E-02 0.12991186E+03</pdfrwt>
<totfact> 0.79355798E+03</totfact>
</mgrwt>
</event>
<event>
 8    1  0.3520338E-004  0.1293436E+03  0.7546771E-02  0.1241626E+00
         -2   -1    0    0    0  501 -0.00000000000E+00  0.00000000000E+00  0.36434470221E+02  0.36434470221E+02  0.00000000000E+00 0.  1.
          2   -1    0    0  501    0  0.00000000000E+00 -0.00000000000E+00 -0.37481601321E+03  0.37481601321E+03  0.00000000000E+00 0. -1.
         25    2    1    2    0    0  0.96693910963E+01  0.31843595781E+02 -0.14625353536E+03  0.19524310117E+03  0.12498904045E+03 0.  0.
         23    2    1    2    0    0 -0.96693910963E+01 -0.31843595781E+02 -0.19212800763E+03  0.21600738227E+03  0.92943564377E+02 0.  0.
          5    1    3    3  502    0  0.58747975434E+02 -0.12876683820E+02 -0.88571523405E+02  0.10716407216E+03  0.47000000000E+01 0.  1.
         -5    1    3    3    0  502 -0.49078584337E+02  0.44720279601E+02 -0.57682011951E+02  0.88079029007E+02  0.47000000000E+01 0.  1.
          5    1    4    4  503    0  0.24246788238E+02  0.15693643274E+02 -0.11772815234E+03  0.12131036655E+03  0.47000000000E+01 0. -1.
         -5    1    4    4    0  503 -0.33916179334E+02 -0.47537239055E+02 -0.74399855295E+02  0.94697015716E+02  0.47000000000E+01 0.  1.
<mgrwt>
<rscale>  0 0.12089606E+03</rscale>
<asrwt>0</asrwt>
<pdfrwt beam="1">  1        2 0.57664004E-01 0.12934362E+03</pdfrwt>
<pdfrwt beam="2">  1       -2 0.56053029E-02 0.12934362E+03</pdfrwt>
<totfact> 0.13247421E+04</totfact>
</mgrwt>
</event>
<event>
 8    1  0.3520338E-004  0.4767086E+03  0.7546771E-02  0.1020582E+00
          1   -1    0    0  501    0  0.00000000000E+00  0.00000000000E+00  0.46959433704E+03  0.46959433704E+03  0.00000000000E+00 0. -1.
         -1   -1    0    0    0  501 -0.00000000000E+00 -0.00000000000E+00 -0.50775364555E+03  0.50775364555E+03  0.00000000000E+00 0.  1.
         25    2    1    2    0    0  0.41372621902E+03  0.20113802230E+03 -0.14114988649E+03  0.49716630734E+03  0.12500063350E+03 0.  0.
         23    2    1    2    0    0 -0.41372621902E+03 -0.20113802230E+03  0.10299057797E+03  0.48018167526E+03  0.91331778609E+02 0.  0.
          5    1    4    4  502    0 -0.75711027684E+02 -0.14232686959E+02  0.45654666284E+02  0.89672557924E+02  0.47000000000E+01 0. -1.
         -5    1    3    3    0  503  0.38765587757E+03  0.18346508406E+03 -0.92092456889E+02  0.43867941266E+03  0.47000000000E+01 0. -1.
          5    1    3    3  503    0  0.26070341453E+02  0.17672938245E+02 -0.49057429598E+02  0.58486894672E+02  0.47000000000E+01 0. -1.
         -5    1    4    4    0  502 -0.33801519134E+03 -0.18690533534E+03  0.57335911690E+02  0.39050911734E+03  0.47000000000E+01 0.  1.
<mgrwt>
<rscale>  0 0.47477134E+03</rscale>
<asrwt>0</asrwt>
<pdfrwt beam="1">  1        1 0.72245283E-01 0.47670856E+03</pdfrwt>
<pdfrwt beam="2">  1       -1 0.78115945E-01 0.47670856E+03</pdfrwt>
<totfact> 0.82743177E+01</totfact>
</mgrwt>
</event>
<event>
 8    1  0.3520338E-004  0.1599807E+03  0.7546771E-02  0.1196090E+00
         -1   -1    0    0    0  501 -0.00000000000E+00  0.00000000000E+00  0.45813570985E+03  0.45813570985E+03  0.00000000000E+00 0.  1.
          1   -1    0    0  501    0  0.00000000000E+00 -0.00000000000E+00 -0.78288914861E+02  0.78288914861E+02  0.00000000000E+00 0. -1.
         25    2    1    2    0    0 -0.72560452985E+00  0.99831209162E+02  0.32304476520E+02  0.16320967336E+03  0.12500808553E+03 0.  0.
         23    2    1    2    0    0  0.72560452985E+00 -0.99831209162E+02  0.34754231847E+03  0.37321495136E+03  0.92395562473E+02 0.  0.
          5    1    3    3  502    0 -0.39909129885E+02  0.10968151403E+03  0.11095095824E+02  0.11733696911E+03  0.47000000000E+01 0. -1.
         -5    1    4    4    0  503 -0.33446411259E+02 -0.19206228071E+02  0.17961039659E+03  0.18376486658E+03  0.47000000000E+01 0.  1.
          5    1    4    4  503    0  0.34172015789E+02 -0.80624981091E+02  0.16793192188E+03  0.18945008478E+03  0.47000000000E+01 0. -1.
         -5    1    3    3    0  502  0.39183525355E+02 -0.98503048702E+01  0.21209380696E+02  0.45872704246E+02  0.47000000000E+01 0. -1.
<mgrwt>
<rscale>  0 0.15362365E+03</rscale>
<asrwt>0</asrwt>
<pdfrwt beam="1">  1        1 0.12044449E-01 0.15998068E+03</pdfrwt>
<pdfrwt beam="2">  1       -1 0.70482416E-01 0.15998068E+03</pdfrwt>
<totfact> 0.10446432E+03</totfact>
</mgrwt>
</event>
<event>
 8    1  0.3520338E-004  0.1342949E+03  0.7546771E-02  0.1233462E+00
          4   -1    0    0  501    0  0.00000000000E+00  0.00000000000E+00  0.47857181059E+03  0.47857181059E+03  0.00000000000E+00 0. -1.
         -4   -1    0    0    0  501 -0.00000000000E+00 -0.00000000000E+00 -0.37725771690E+02  0.37725771690E+02  0.00000000000E+00 0.  1.
         25    2    1    2    0    0 -0.43397920487E+02  0.22960968180E+02  0.12408406020E+03  0.18284411558E+03  0.12499812417E+03 0.  0.
         23    2    1    2    0    0  0.43397920487E+02 -0.22960968180E+02  0.31676197870E+03  0.33345346670E+03  0.91882956734E+02 0.  0.
          5    1    4    4  502    0  0.10260363751E+02 -0.52928274068E+02  0.22316748239E+03  0.22963556445E+03  0.47000000000E+01 0. -1.
         -5    1    4    4    0  502  0.33137556736E+02  0.29967305888E+02  0.93594496308E+02  0.10381790225E+03  0.47000000000E+01 0.  1.
          5    1    3    3  503    0 -0.63415415253E+01 -0.27439197392E+02 -0.13537589717E+02  0.31598750573E+02  0.47000000000E+01 0. -1.
         -5    1    3    3    0  503 -0.37056378962E+02  0.50400165572E+02  0.13762164992E+03  0.15124536501E+03  0.47000000000E+01 0. -1.
<mgrwt>
<rscale>  0 0.12603427E+03</rscale>
<asrwt>0</asrwt>
<pdfrwt beam="1">  1        4 0.73626428E-01 0.13429489E+03</pdfrwt>
<pdfrwt beam="2">  1       -4 0.58039652E-02 0.13429489E+03</pdfrwt>
<totfact> 0.53026244E+02</totfact>
</mgrwt>
</event>
<event>
 8    1  0.3520338E-004  0.1538010E+03  0.7546771E-02  0.1204320E+00
         -1   -1    0    0    0  501 -0.00000000000E+00  0.00000000000E+00  0.23075341621E+03  0.23075341621E+03  0.00000000000E+00 0.  1.
          1   -1    0    0  501    0  0.00000000000E+00 -0.00000000000E+00 -0.94233061800E+02  0.94233061800E+02  0.00000000000E+00 0. -1.
         25    2    1    2    0    0  0.41956665719E+02 -0.79185522353E+02  0.26285001485E+02  0.15603095095E+03  0.12499619035E+03 0.  0.
         23    2    1    2    0    0 -0.41956665719E+02  0.79185522353E+02  0.11023535292E+03  0.16895552706E+03  0.91451781510E+02 0.  0.
          5    1    3    3  502    0 -0.21110766252E+02  0.13869692523E+02  0.34732500996E+02  0.43202655565E+02  0.47000000000E+01 0.  1.
         -5    1    4    4    0  503 -0.76379686382E+01  0.68744455302E+02  0.11310752985E+03  0.13266326548E+03  0.47000000000E+01 0.  1.
          5    1    4    4  503    0 -0.34318697081E+02  0.10441067051E+02 -0.28721769213E+01  0.36292261582E+02  0.47000000000E+01 0. -1.
         -5    1    3    3    0  502  0.63067431971E+02 -0.93055214876E+02 -0.84474995111E+01  0.11282829538E+03  0.47000000000E+01 0.  1.
<mgrwt>
<rscale>  0 0.14691140E+03</rscale>
<asrwt>0</asrwt>
<pdfrwt beam="1">  1        1 0.14497394E-01 0.15380103E+03</pdfrwt>
<pdfrwt beam="2">  1       -1 0.35500526E-01 0.15380103E+03</pdfrwt>
<totfact> 0.28898845E+03</totfact>
</mgrwt>
</event>
<event>
 8    1  0.3520338E-004  0.1372757E+03  0.7546771E-02  0.1227778E+00
         -1   -1    0    0    0  501 -0.00000000000E+00  0.00000000000E+00  0.26571502478E+03  0.26571502478E+03  0.00000000000E+00 0.  1.
          1   -1    0    0  501    0  0.00000000000E+00 -0.00000000000E+00 -0.78701663757E+02  0.78701663757E+02  0.00000000000E+00 0. -1.
         25    2    1    2    0    0 -0.48050166094E+02  0.30184491229E+02  0.11893753759E+02  0.13778999943E+03  0.12499880236E+03 0.  0.
         23    2    1    2    0    0  0.48050166094E+02 -0.30184491229E+02  0.17511960726E+03  0.20662668910E+03  0.93849825950E+02 0.  0.
          5    1    4    4  502    0  0.35947268071E+02  0.24391021101E+02  0.35973814809E+02  0.56597997703E+02  0.47000000000E+01 0. -1.
         -5    1    3    3    0  503 -0.63197588597E+02  0.12586288531E+02 -0.43265715278E+02  0.77758356348E+02  0.47000000000E+01 0.  1.
          5    1    3    3  503    0  0.15147422502E+02  0.17598202698E+02  0.55159469037E+02  0.60031643082E+02  0.47000000000E+01 0.  1.
         -5    1    4    4    0  502  0.12102898024E+02 -0.54575512330E+02  0.13914579245E+03  0.15002869140E+03  0.47000000000E+01 0.  1.
<mgrwt>
<rscale>  0 0.12978311E+03</rscale>
<asrwt>0</asrwt>
<pdfrwt beam="1">  1        1 0.12107948E-01 0.13727572E+03</pdfrwt>
<pdfrwt beam="2">  1       -1 0.40879234E-01 0.13727572E+03</pdfrwt>
<totfact> 0.28443146E+03</totfact>
</mgrwt>
</event>
<event>
 8    1  0.3520338E-004  0.1927167E+03  0.7546771E-02  0.1160756E+00
          2   -1    0    0  501    0  0.00000000000E+00  0.00000000000E+00  0.68546632944E+03  0.68546632944E+03  0.00000000000E+00 0. -1.
         -2   -1    0    0    0  501 -0.00000000000E+00 -0.00000000000E+00 -0.95341988830E+02  0.95341988830E+02  0.00000000000E+00 0.  1.
         25    2    1    2    0    0  0.13050769126E+02  0.14609857127E+03  0.30429288170E+02  0.19510423738E+03  0.12499842704E+03 0.  0.
         23    2    1    2    0    0 -0.13050769126E+02 -0.14609857127E+03  0.55969505244E+03  0.58570408089E+03  0.90970344320E+02 0.  0.
          5    1    3    3  502    0  0.31479186756E+02  0.48641722709E+02  0.67531117244E+02  0.89103861774E+02  0.47000000000E+01 0. -1.
         -5    1    4    4    0  503 -0.31868312891E+02 -0.13334231702E+02  0.73740272569E+02  0.81566591814E+02  0.47000000000E+01 0.  1.
          5    1    4    4  503    0  0.18817543766E+02 -0.13276433957E+03  0.48595477987E+03  0.50413748908E+03  0.47000000000E+01 0. -1.
         -5    1    3    3    0  502 -0.18428417630E+02  0.97456848560E+02 -0.37101829073E+02  0.10600037560E+03  0.47000000000E+01 0. -1.
<mgrwt>
<rscale>  0 0.18747770E+03</rscale>
<asrwt>0</asrwt>
<pdfrwt beam="1">  1        2 0.10545636E+00 0.19271669E+03</pdfrwt>
<pdfrwt beam="2">  1       -2 0.14667999E-01 0.19271669E+03</pdfrwt>
<totfact> 0.15237486E+03</totfact>
</mgrwt>
</event>
<event>
 8    1  0.3520338E-004  0.1981025E+03  0.7546771E-02  0.1155808E+00
          1   -1    0    0  501    0  0.00000000000E+00  0.00000000000E+00  0.14301401009E+04  0.14301401009E+04  0.00000000000E+00 0. -1.
         -1   -1    0    0    0  501 -0.00000000000E+00 -0.00000000000E+00 -0.38109935889E+02  0.38109935889E+02  0.00000000000E+00 0.  1.
         25    2    1    2    0    0  0.93906792363E+02  0.12164875648E+03  0.28587008837E+03  0.34780210743E+03  0.12501077115E+03 0.  0.
         23    2    1    2    0    0 -0.93906792363E+02 -0.12164875648E+03  0.11061600766E+04  0.11204479293E+04  0.90534753793E+02 0.  0.
          5    1    4    4  502    0 -0.60012695419E+02 -0.25428735066E+02  0.63464255241E+03  0.63799796513E+03  0.47000000000E+01 0. -1.
         -5    1    3    3    0  503  0.11610398415E+03  0.10344554575E+03  0.27646260348E+03  0.31722984915E+03  0.47000000000E+01 0. -1.
          5    1    3    3  503    0 -0.22197191787E+02  0.18203210732E+02  0.94074848901E+01  0.30572258277E+02  0.47000000000E+01 0. -1.
         -5    1    4    4    0  502 -0.33894096944E+02 -0.96220021413E+02  0.47151752420E+03  0.48244996420E+03  0.47000000000E+01 0.  1.
<mgrwt>
<rscale>  0 0.19297178E+03</rscale>
<asrwt>0</asrwt>
<pdfrwt beam="1">  1        1 0.22002151E+00 0.19810249E+03</pdfrwt>
<pdfrwt beam="2">  1       -1 0.58630682E-02 0.19810249E+03</pdfrwt>
<totfact> 0.11075297E+03</totfact>
</mgrwt>
</event>
<event>
 8    1  0.3520338E-004  0.2329067E+03  0.7546771E-02  0.1127928E+00
         -3   -1    0    0    0  501 -0.00000000000E+00  0.00000000000E+00  0.13082729939E+03  0.13082729939E+03  0.00000000000E+00 0.  1.
          3   -1    0    0  501    0  0.00000000000E+00 -0.00000000000E+00 -0.40434353752E+03  0.40434353752E+03  0.00000000000E+00 0. -1.
         25    2    1    2    0    0 -0.14099890636E+03 -0.13687931801E+03 -0.20402567448E+03  0.30963203834E+03  0.12501553515E+03 0.  0.
         23    2    1    2    0    0  0.14099890636E+03  0.13687931801E+03 -0.69490563646E+02  0.22553879856E+03  0.86152027993E+02 0.  0.
          5    1    4    4  502    0  0.12019728006E+03  0.74659960090E+02 -0.73741419948E+02  0.15962889084E+03  0.47000000000E+01 0. -1.
         -5    1    4    4    0  502  0.20801626299E+02  0.62219357918E+02  0.42508563025E+01  0.65909907721E+02  0.47000000000E+01 0.  1.
          5    1    3    3  503    0 -0.15532943789E+03 -0.10405170598E+03 -0.13154948794E+03  0.22865115257E+03  0.47000000000E+01 0. -1.
         -5    1    3    3    0  503  0.14330531531E+02 -0.32827612023E+02 -0.72476186541E+02  0.80980885773E+02  0.47000000000E+01 0. -1.
<mgrwt>
<rscale>  0 0.22817969E+03</rscale>
<asrwt>0</asrwt>
<pdfrwt beam="1">  1        3 0.62206697E-01 0.23290668E+03</pdfrwt>
<pdfrwt beam="2">  1       -3 0.20127277E-01 0.23290668E+03</pdfrwt>
<totfact> 0.14044748E+02</totfact>
</mgrwt>
</event>
<event>
 8    1  0.3520338E-004  0.1446857E+03  0.7546771E-02  0.1217388E+00
         -1   -1    0    0    0  501 -0.00000000000E+00  0.00000000000E+00  0.31414834786E+02  0.31414834786E+02  0.00000000000E+00 0.  1.
          1   -1    0    0  501    0  0.00000000000E+00 -0.00000000000E+00 -0.64286575885E+03  0.64286575885E+03  0.00000000000E+00 0. -1.
         25    2    1    2    0    0 -0.29162204616E+02 -0.66773339181E+02 -0.20108981246E+03  0.24773182965E+03  0.12499933498E+03 0.  0.
         23    2    1    2    0    0  0.29162204616E+02  0.66773339181E+02 -0.41036111161E+03  0.42654876398E+03  0.90766145295E+02 0.  0.
          5    1    4    4  502    0 -0.24373336572E+02  0.27115804369E+02 -0.25217671850E+03  0.25484213493E+03  0.47000000000E+01 0. -1.
         -5    1    3    3    0  503  0.22702894753E+02 -0.10536178407E+01  0.62862974219E+01  0.24044522786E+02  0.47000000000E+01 0.  1.
          5    1    3    3  503    0 -0.51865099369E+02 -0.65719721341E+02 -0.20737610988E+03  0.22368730687E+03  0.47000000000E+01 0.  1.
         -5    1    4    4    0  502  0.53535541189E+02  0.39657534812E+02 -0.15818439311E+03  0.17170662905E+03  0.47000000000E+01 0.  1.
<mgrwt>
<rscale>  0 0.13702569E+03</rscale>
<asrwt>0</asrwt>
<pdfrwt beam="1">  1        1 0.98902415E-01 0.14468568E+03</pdfrwt>
<pdfrwt beam="2">  1       -1 0.48330520E-02 0.14468568E+03</pdfrwt>
<totfact> 0.57242236E+03</totfact>
</mgrwt>
</event>
<event>
 8    1  0.3520338E-004  0.1523870E+03  0.7546771E-02  0.1207778E+00
         -2   -1    0    0    0  501 -0.00000000000E+00  0.00000000000E+00  0.30830226855E+02  0.30830226855E+02  0.00000000000E+00 0.  1.
          2   -1    0    0  501    0  0.00000000000E+00 -0.00000000000E+00 -0.61165381126E+03  0.61165381126E+03  0.00000000000E+00 0. -1.
         25    2    1    2    0    0  0.83873227197E+02 -0.23706832401E+02 -0.31619792755E+03  0.35100272993E+03  0.12500021958E+03 0.  0.
         23    2    1    2    0    0 -0.83873227197E+02  0.23706832401E+02 -0.26462565686E+03  0.29148130818E+03  0.85661441780E+02 0.  0.
          5    1    4    4  502    0 -0.10266619669E+02  0.38650334518E+02 -0.14205871480E+03  0.14765507200E+03  0.47000000000E+01 0. -1.
         -5    1    4    4    0  502 -0.73606607528E+02 -0.14943502117E+02 -0.12256694206E+03  0.14382623618E+03  0.47000000000E+01 0.  1.
          5    1    3    3  503    0  0.17285596292E+02  0.48896134597E+02 -0.85544035150E+02  0.10014737025E+03  0.47000000000E+01 0.  1.
         -5    1    3    3    0  503  0.66587630905E+02 -0.72602966998E+02 -0.23065389240E+03  0.25085535969E+03  0.47000000000E+01 0.  1.
<mgrwt>
<rscale>  0 0.14420659E+03</rscale>
<asrwt>0</asrwt>
<pdfrwt beam="1">  1        2 0.94100585E-01 0.15238696E+03</pdfrwt>
<pdfrwt beam="2">  1       -2 0.47431119E-02 0.15238696E+03</pdfrwt>
<totfact> 0.10075042E+04</totfact>
</mgrwt>
</event>
<event>
 8    1  0.3520338E-004  0.1410085E+03  0.7546771E-02  0.1223037E+00
         -4   -1    0    0    0  501 -0.00000000000E+00  0.00000000000E+00  0.42265645647E+02  0.42265645647E+02  0.00000000000E+00 0.  1.
          4   -1    0    0  501    0  0.00000000000E+00 -0.00000000000E+00 -0.49493238801E+03  0.49493238801E+03  0.00000000000E+00 0. -1.
         25    2    1    2    0    0 -0.30413754429E+02  0.57748626829E+02 -0.11631884288E+03  0.18279348701E+03  0.12499394116E+03 0.  0.
         23    2    1    2    0    0  0.30413754429E+02 -0.57748626829E+02 -0.33634789948E+03  0.35440454664E+03  0.90624350129E+02 0.  0.
          5    1    4    4  502    0 -0.32254111119E+02 -0.19916341666E+02 -0.12342477390E+03  0.12920043793E+03  0.47000000000E+01 0. -1.
         -5    1    4    4    0  502  0.62667865548E+02 -0.37832285164E+02 -0.21292312558E+03  0.22520410871E+03  0.47000000000E+01 0.  1.
          5    1    3    3  503    0 -0.46643584263E+02  0.18851070013E+02 -0.12898890224E+03  0.13853235613E+03  0.47000000000E+01 0. -1.
         -5    1    3    3    0  503  0.16229829834E+02  0.38897556816E+02  0.12670059362E+02  0.44261130882E+02  0.47000000000E+01 0. -1.
<mgrwt>
<rscale>  0 0.13302364E+03</rscale>
<asrwt>0</asrwt>
<pdfrwt beam="1">  1        4 0.76143439E-01 0.14100846E+03</pdfrwt>
<pdfrwt beam="2">  1       -4 0.65024075E-02 0.14100846E+03</pdfrwt>
<totfact> 0.41328628E+02</totfact>
</mgrwt>
</event>
<event>
 8    1  0.3520338E-004  0.1720701E+03  0.7546771E-02  0.1181818E+00
          1   -1    0    0  501    0  0.00000000000E+00  0.00000000000E+00  0.47389720411E+03  0.47389720411E+03  0.00000000000E+00 0. -1.
         -1   -1    0    0    0  501 -0.00000000000E+00 -0.00000000000E+00 -0.76864113819E+02  0.76864113819E+02  0.00000000000E+00 0.  1.
         25    2    1    2    0    0 -0.43103406944E+02 -0.11012243147E+03  0.60600305237E+02  0.18242946020E+03  0.12499302921E+03 0.  0.
         23    2    1    2    0    0  0.43103406944E+02  0.11012243147E+03  0.33643278506E+03  0.36833185773E+03  0.92176379606E+02 0.  0.
          5    1    4    4  502    0 -0.20599067730E+02  0.23513056537E+02  0.14795832452E+03  0.15129752548E+03  0.47000000000E+01 0. -1.
         -5    1    3    3    0  503 -0.44197289488E+02 -0.14113864470E+02  0.71836098496E+02  0.85645295349E+02  0.47000000000E+01 0.  1.
          5    1    3    3  503    0  0.10938825438E+01 -0.96008566996E+02 -0.11235793259E+02  0.96784164850E+02  0.47000000000E+01 0.  1.
         -5    1    4    4    0  502  0.63702474674E+02  0.86609374928E+02  0.18847446053E+03  0.21703433226E+03  0.47000000000E+01 0.  1.
<mgrwt>
<rscale>  0 0.16624814E+03</rscale>
<asrwt>0</asrwt>
<pdfrwt beam="1">  1        1 0.72907261E-01 0.17207008E+03</pdfrwt>
<pdfrwt beam="2">  1       -1 0.11825248E-01 0.17207008E+03</pdfrwt>
<totfact> 0.22433434E+03</totfact>
</mgrwt>
</event>
<event>
 8    1  0.3520338E-004  0.1571451E+03  0.7546771E-02  0.1199396E+00
         -1   -1    0    0    0  501 -0.00000000000E+00  0.00000000000E+00  0.42822381749E+02  0.42822381749E+02  0.00000000000E+00 0.  1.
          1   -1    0    0  501    0  0.00000000000E+00 -0.00000000000E+00 -0.50682268703E+03  0.50682268703E+03  0.00000000000E+00 0. -1.
         25    2    1    2    0    0 -0.64778881933E+02 -0.69796490354E+02 -0.29505406765E+03  0.33429251702E+03  0.12500692177E+03 0.  0.
         23    2    1    2    0    0  0.64778881933E+02  0.69796490354E+02 -0.16894623763E+03  0.21535255176E+03  0.93627115345E+02 0.  0.
          5    1    4    4  502    0 -0.15092544380E+02  0.47656477594E+02 -0.56577096496E+02  0.75643787586E+02  0.47000000000E+01 0. -1.
         -5    1    4    4    0  502  0.79871426313E+02  0.22140012760E+02 -0.11236914114E+03  0.13970876417E+03  0.47000000000E+01 0.  1.
          5    1    3    3  503    0  0.31075358588E+02 -0.42960427504E+02 -0.14207983439E+03  0.15172358282E+03  0.47000000000E+01 0. -1.
         -5    1    3    3    0  503 -0.95854240521E+02 -0.26836062850E+02 -0.15297423325E+03  0.18256893420E+03  0.47000000000E+01 0. -1.
<mgrwt>
<rscale>  0 0.15087991E+03</rscale>
<asrwt>0</asrwt>
<pdfrwt beam="1">  1        1 0.77972720E-01 0.15714511E+03</pdfrwt>
<pdfrwt beam="2">  1       -1 0.65880588E-02 0.15714511E+03</pdfrwt>
<totfact> 0.49941254E+03</totfact>
</mgrwt>
</event>
<event>
 8    1  0.3520338E-004  0.1565878E+03  0.7546771E-02  0.1200723E+00
         -1   -1    0    0    0  501 -0.00000000000E+00  0.00000000000E+00  0.79445445974E+02  0.79445445974E+02  0.00000000000E+00 0.  1.
          1   -1    0    0  501    0  0.00000000000E+00 -0.00000000000E+00 -0.26563193380E+03  0.26563193380E+03  0.00000000000E+00 0. -1.
         25    2    1    2    0    0 -0.65656165321E+02  0.67720830835E+02 -0.77311096974E+02  0.17463318098E+03  0.12499159655E+03 0.  0.
         23    2    1    2    0    0  0.65656165321E+02 -0.67720830835E+02 -0.10887539085E+03  0.17044419880E+03  0.91107251068E+02 0.  0.
          5    1    4    4  502    0  0.47370649783E+01  0.21669294947E+02 -0.22415385311E+02  0.31883187212E+02  0.47000000000E+01 0. -1.
         -5    1    3    3    0  503 -0.18210077017E+02 -0.30527940672E+02  0.71677199363E+01  0.36565397245E+02  0.47000000000E+01 0. -1.
          5    1    3    3  503    0 -0.47446088304E+02  0.98248771506E+02 -0.84478816910E+02  0.13806778373E+03  0.47000000000E+01 0. -1.
         -5    1    4    4    0  502  0.60919100343E+02 -0.89390125782E+02 -0.86460005542E+02  0.13856101159E+03  0.47000000000E+01 0.  1.
<mgrwt>
<rscale>  0 0.14979635E+03</rscale>
<asrwt>0</asrwt>
<pdfrwt beam="1">  1        1 0.40866452E-01 0.15658781E+03</pdfrwt>
<pdfrwt beam="2">  1       -1 0.12222376E-01 0.15658781E+03</pdfrwt>
<totfact> 0.44057646E+03</totfact>
</mgrwt>
</event>
<event>
 8    1  0.3520338E-004  0.1346553E+03  0.7546771E-02  0.1232898E+00
         -2   -1    0    0    0  501 -0.00000000000E+00  0.00000000000E+00  0.36772654527E+02  0.36772654527E+02  0.00000000000E+00 0.  1.
          2   -1    0    0  501    0  0.00000000000E+00 -0.00000000000E+00 -0.41950446652E+03  0.41950446652E+03  0.00000000000E+00 0. -1.
         25    2    1    2    0    0  0.12838974605E+02 -0.48420514312E+02 -0.15263368758E+03  0.20354138589E+03  0.12499067049E+03 0.  0.
         23    2    1    2    0    0 -0.12838974605E+02  0.48420514312E+02 -0.23009812442E+03  0.25273573516E+03  0.91765023249E+02 0.  0.
          5    1    4    4  502    0 -0.37941818460E+02  0.16255867623E+02 -0.19290213107E+03  0.19732500346E+03  0.47000000000E+01 0. -1.
         -5    1    4    4    0  502  0.25102843855E+02  0.32164646688E+02 -0.37195993346E+02  0.55410731697E+02  0.47000000000E+01 0.  1.
          5    1    3    3  503    0 -0.70646251986E+01 -0.78865719179E+02 -0.14616218128E+03  0.16629847813E+03  0.47000000000E+01 0.  1.
         -5    1    3    3    0  503  0.19903599804E+02  0.30445204868E+02 -0.64715062956E+01  0.37242907759E+02  0.47000000000E+01 0.  1.
<mgrwt>
<rscale>  0 0.12639973E+03</rscale>
<asrwt>0</asrwt>
<pdfrwt beam="1">  1        2 0.64539151E-01 0.13465531E+03</pdfrwt>
<pdfrwt beam="2">  1       -2 0.56573312E-02 0.13465531E+03</pdfrwt>
<totfact> 0.11620856E+04</totfact>
</mgrwt>
</event>
<event>
 8    1  0.3520338E-004  0.2426983E+03  0.7546771E-02  0.1120613E+00
          1   -1    0    0  501    0  0.00000000000E+00  0.00000000000E+00  0.65673848256E+03  0.65673848256E+03  0.00000000000E+00 0. -1.
         -1   -1    0    0    0  501 -0.00000000000E+00 -0.00000000000E+00 -0.11839898175E+03  0.11839898175E+03  0.00000000000E+00 0.  1.
         25    2    1    2    0    0  0.20780798164E+03 -0.94782396668E+01  0.48387486972E+03  0.54132922613E+03  0.12501378825E+03 0.  0.
         23    2    1    2    0    0 -0.20780798164E+03  0.94782396668E+01  0.54464631091E+02  0.23380823818E+03  0.91792711790E+02 0.  0.
          5    1    4    4  502    0 -0.18768924760E+03 -0.17953416501E+02  0.62218434708E+02  0.19860212095E+03  0.47000000000E+01 0. -1.
         -5    1    4    4    0  502 -0.20118734044E+02  0.27431656168E+02 -0.77538036166E+01  0.35206117226E+02  0.47000000000E+01 0.  1.
          5    1    3    3  503    0  0.48628914500E+02  0.38103863604E+02  0.60923191501E+02  0.86893043506E+02  0.47000000000E+01 0.  1.
         -5    1    3    3    0  503  0.15917906714E+03 -0.47582103271E+02  0.42295167822E+03  0.45443618262E+03  0.47000000000E+01 0.  1.
<mgrwt>
<rscale>  0 0.23877354E+03</rscale>
<asrwt>0</asrwt>
<pdfrwt beam="1">  1        1 0.10103669E+00 0.24269825E+03</pdfrwt>
<pdfrwt beam="2">  1       -1 0.18215228E-01 0.24269825E+03</pdfrwt>
<totfact> 0.72988748E+02</totfact>
</mgrwt>
</event>
<event>
 8    1  0.3520338E-004  0.1438686E+03  0.7546771E-02  0.1220781E+00
          2   -1    0    0  501    0  0.00000000000E+00  0.00000000000E+00  0.77373576470E+03  0.77373576470E+03  0.00000000000E+00 0.  1.
         -2   -1    0    0    0  501 -0.00000000000E+00 -0.00000000000E+00 -0.29344252290E+02  0.29344252290E+02  0.00000000000E+00 0. -1.
         25    2    1    2    0    0 -0.52335016153E+02 -0.48289322109E+02  0.62174461298E+03  0.63817281559E+03  0.12500946459E+03 0.  0.
         23    2    1    2    0    0  0.52335016153E+02  0.48289322109E+02  0.12264689943E+03  0.16490720140E+03  0.84150523408E+02 0.  0.
          5    1    4    4  502    0  0.55394910136E+02  0.23013042926E+02  0.12518300561E+03  0.13889230039E+03  0.47000000000E+01 0.  1.
         -5    1    4    4    0  502 -0.30598939826E+01  0.25276279183E+02 -0.25361061760E+01  0.26014901020E+02  0.47000000000E+01 0. -1.
          5    1    3    3  503    0  0.30351133430E+02 -0.52416722123E+02  0.24665059382E+03  0.25402226180E+03  0.47000000000E+01 0.  1.
         -5    1    3    3    0  503 -0.82686149583E+02  0.41274000145E+01  0.37509401916E+03  0.38415055378E+03  0.47000000000E+01 0.  1.
<mgrwt>
<rscale>  0 0.13460341E+03</rscale>
<asrwt>0</asrwt>
<pdfrwt beam="1">  1        2 0.11903626E+00 0.14386862E+03</pdfrwt>
<pdfrwt beam="2">  1       -2 0.45145009E-02 0.14386862E+03</pdfrwt>
<totfact> 0.81806555E+03</totfact>
</mgrwt>
</event>
<event>
 8    1  0.3520338E-004  0.2181435E+03  0.7546771E-02  0.1138703E+00
          3   -1    0    0  501    0  0.00000000000E+00  0.00000000000E+00  0.74407224597E+03  0.74407224597E+03  0.00000000000E+00 0. -1.
         -3   -1    0    0    0  501 -0.00000000000E+00 -0.00000000000E+00 -0.66603873417E+02  0.66603873417E+02  0.00000000000E+00 0.  1.
         25    2    1    2    0    0  0.94253297043E+02 -0.15191189964E+03  0.21392486029E+03  0.30553303948E+03  0.12500273241E+03 0.  0.
         23    2    1    2    0    0 -0.94253297043E+02  0.15191189964E+03  0.46354351226E+03  0.50514307991E+03  0.91301884747E+02 0.  0.
          5    1    4    4  502    0 -0.46946988449E+02  0.20056056537E+02  0.65730385600E+02  0.83359694814E+02  0.47000000000E+01 0. -1.
         -5    1    3    3    0  503  0.58756228277E+02 -0.91021008444E+02  0.36261962246E+02  0.11434219801E+03  0.47000000000E+01 0.  1.
          5    1    3    3  503    0  0.35497068766E+02 -0.60890891197E+02  0.17766289805E+03  0.19119084147E+03  0.47000000000E+01 0.  1.
         -5    1    4    4    0  502 -0.47306308594E+02  0.13185584310E+03  0.39781312666E+03  0.42178338509E+03  0.47000000000E+01 0.  1.
<mgrwt>
<rscale>  0 0.21365632E+03</rscale>
<asrwt>0</asrwt>
<pdfrwt beam="1">  1        3 0.11447265E+00 0.21814351E+03</pdfrwt>
<pdfrwt beam="2">  1       -3 0.10246750E-01 0.21814351E+03</pdfrwt>
<totfact> 0.11555384E+02</totfact>
</mgrwt>
</event>
<event>
 8    1  0.3520338E-004  0.1433318E+03  0.7546771E-02  0.1218792E+00
          2   -1    0    0  501    0  0.00000000000E+00  0.00000000000E+00  0.58507938921E+03  0.58507938921E+03  0.00000000000E+00 0. -1.
         -2   -1    0    0    0  501 -0.00000000000E+00 -0.00000000000E+00 -0.39655300453E+02  0.39655300453E+02  0.00000000000E+00 0.  1.
         25    2    1    2    0    0  0.51072809603E+02  0.48011434292E+02  0.13051315332E+03  0.19384967599E+03  0.12502193403E+03 0.  0.
         23    2    1    2    0    0 -0.51072809603E+02 -0.48011434292E+02  0.41491093544E+03  0.43088501368E+03  0.92721523715E+02 0.  0.
          5    1    3    3  502    0  0.91428856178E+02  0.46082578545E+02  0.97547708400E+02  0.14149376383E+03  0.47000000000E+01 0.  1.
         -5    1    3    3    0  502 -0.40356046575E+02  0.19288557462E+01  0.32965444921E+02  0.52355912164E+02  0.47000000000E+01 0.  1.
          5    1    4    4  503    0  0.21395461443E+02  0.73710739247E+01  0.11811871261E+03  0.12035870874E+03  0.47000000000E+01 0. -1.
         -5    1    4    4    0  503 -0.72468271046E+02 -0.55382508216E+02  0.29679222283E+03  0.31052630494E+03  0.47000000000E+01 0.  1.
<mgrwt>
<rscale>  0 0.13601668E+03</rscale>
<asrwt>0</asrwt>
<pdfrwt beam="1">  1        2 0.90012207E-01 0.14333183E+03</pdfrwt>
<pdfrwt beam="2">  1       -2 0.61008159E-02 0.14333183E+03</pdfrwt>
<totfact> 0.72198107E+03</totfact>
</mgrwt>
</event>
<event>
 8    1  0.3520338E-004  0.1525223E+03  0.7546771E-02  0.1206713E+00
         -3   -1    0    0    0  501 -0.00000000000E+00  0.00000000000E+00  0.12571447137E+03  0.12571447137E+03  0.00000000000E+00 0.  1.
          3   -1    0    0  501    0  0.00000000000E+00 -0.00000000000E+00 -0.15298092909E+03  0.15298092909E+03  0.00000000000E+00 0. -1.
         25    2    1    2    0    0 -0.55596517354E+02  0.67436066549E+02 -0.10659333230E+02  0.15289431947E+03  0.12499782289E+03 0.  0.
         23    2    1    2    0    0  0.55596517354E+02 -0.67436066549E+02 -0.16607124499E+02  0.12580108099E+03  0.88946723275E+02 0.  0.
          5    1    4    4  502    0  0.14531589040E+02 -0.63593507605E+02 -0.41443632199E+02  0.77427165384E+02  0.47000000000E+01 0. -1.
         -5    1    3    3    0  503 -0.89855771641E+02  0.26979839980E+02  0.12665188933E+02  0.94786436125E+02  0.47000000000E+01 0. -1.
          5    1    3    3  503    0  0.34259254286E+02  0.40456226569E+02 -0.23324522163E+02  0.58107883343E+02  0.47000000000E+01 0. -1.
         -5    1    4    4    0  502  0.41064928314E+02 -0.38425589444E+01  0.24836507699E+02  0.48373915609E+02  0.47000000000E+01 0.  1.
<mgrwt>
<rscale>  0 0.14503296E+03</rscale>
<asrwt>0</asrwt>
<pdfrwt beam="1">  1        3 0.23535528E-01 0.15252230E+03</pdfrwt>
<pdfrwt beam="2">  1       -3 0.19340688E-01 0.15252230E+03</pdfrwt>
<totfact> 0.93773674E+02</totfact>
</mgrwt>
</event>
<event>
 8    1  0.3520338E-004  0.1418476E+03  0.7546771E-02  0.1220213E+00
         -2   -1    0    0    0  501 -0.00000000000E+00  0.00000000000E+00  0.18102930467E+03  0.18102930467E+03  0.00000000000E+00 0.  1.
          2   -1    0    0  501    0  0.00000000000E+00 -0.00000000000E+00 -0.92134766812E+02  0.92134766812E+02  0.00000000000E+00 0. -1.
         25    2    1    2    0    0 -0.14009317464E+02 -0.65564798838E+02  0.46076403007E+02  0.14914347924E+03  0.12500295462E+03 0.  0.
         23    2    1    2    0    0  0.14009317464E+02  0.65564798838E+02  0.42818134852E+02  0.12402059224E+03  0.95145734560E+02 0.  0.
          5    1    3    3  502    0 -0.33420664987E+02  0.26180091131E+02 -0.36970309653E+01  0.42873022494E+02  0.47000000000E+01 0. -1.
         -5    1    3    3    0  502  0.19411347523E+02 -0.91744889970E+02  0.49773433973E+02  0.10627045675E+03  0.47000000000E+01 0. -1.
          5    1    4    4  503    0  0.33040552484E+02  0.31009685695E+02 -0.19952560029E+02  0.49734026251E+02  0.47000000000E+01 0. -1.
         -5    1    4    4    0  503 -0.19031235020E+02  0.34555113143E+02  0.62770694881E+02  0.74286565990E+02  0.47000000000E+01 0.  1.
<mgrwt>
<rscale>  0 0.13500497E+03</rscale>
<asrwt>0</asrwt>
<pdfrwt beam="1">  1        2 0.14174580E-01 0.14184760E+03</pdfrwt>
<pdfrwt beam="2">  1       -2 0.27850662E-01 0.14184760E+03</pdfrwt>
<totfact> 0.46718800E+03</totfact>
</mgrwt>
</event>
<event>
 8    1  0.3520338E-004  0.2282110E+03  0.7546771E-02  0.1131244E+00
         -2   -1    0    0    0  501 -0.00000000000E+00  0.00000000000E+00  0.10535453960E+04  0.10535453960E+04  0.00000000000E+00 0. -1.
          2   -1    0    0  501    0  0.00000000000E+00 -0.00000000000E+00 -0.45809037102E+02  0.45809037102E+02  0.00000000000E+00 0.  1.
         25    2    1    2    0    0 -0.18935517315E+03 -0.24499483394E+02  0.48876638476E+03  0.53941900340E+03  0.12499870429E+03 0.  0.
         23    2    1    2    0    0  0.18935517315E+03  0.24499483394E+02  0.51896997417E+03  0.55993542974E+03  0.87990028393E+02 0.  0.
          5    1    4    4  502    0  0.23191451248E+02  0.95266459028E+01  0.16277425299E+02  0.30259626031E+02  0.47000000000E+01 0.  1.
         -5    1    3    3    0  503 -0.14198371008E+03  0.17293182872E+02  0.42933306535E+03  0.45255651482E+03  0.47000000000E+01 0.  1.
          5    1    3    3  503    0 -0.47371463061E+02 -0.41792666266E+02  0.59433319407E+02  0.86862488578E+02  0.47000000000E+01 0.  1.
         -5    1    4    4    0  502  0.16616372190E+03  0.14972837491E+02  0.50269254887E+03  0.52967580371E+03  0.47000000000E+01 0. -1.
<mgrwt>
<rscale>  0 0.22357727E+03</rscale>
<asrwt>0</asrwt>
<pdfrwt beam="1">  1        2 0.70475450E-02 0.22821105E+03</pdfrwt>
<pdfrwt beam="2">  1       -2 0.16208389E+00 0.22821105E+03</pdfrwt>
<totfact> 0.25863422E+02</totfact>
</mgrwt>
</event>
<event>
 8    1  0.3520338E-004  0.1507551E+03  0.7546771E-02  0.1208127E+00
          1   -1    0    0  501    0  0.00000000000E+00  0.00000000000E+00  0.73134195915E+02  0.73134195915E+02  0.00000000000E+00 0. -1.
         -1   -1    0    0    0  501 -0.00000000000E+00 -0.00000000000E+00 -0.26080328711E+03  0.26080328711E+03  0.00000000000E+00 0.  1.
         25    2    1    2    0    0  0.18750452805E+02  0.82160274632E+02 -0.96470380731E+02  0.17897946631E+03  0.12500089917E+03 0.  0.
         23    2    1    2    0    0 -0.18750452805E+02 -0.82160274632E+02 -0.91198710463E+02  0.15495801672E+03  0.92697852978E+02 0.  0.
          5    1    3    3  502    0  0.18116383464E+02  0.61548846585E+02 -0.12669360615E+03  0.14209089945E+03  0.47000000000E+01 0. -1.
         -5    1    3    3    0  502  0.63406934044E+00  0.20611428047E+02  0.30223225422E+02  0.36888566860E+02  0.47000000000E+01 0. -1.
          5    1    4    4  503    0 -0.16693110536E+02 -0.11031308918E+02  0.16109509670E+02  0.26114287615E+02  0.47000000000E+01 0. -1.
         -5    1    4    4    0  503 -0.20573422683E+01 -0.71128965713E+02 -0.10730822013E+03  0.12884372910E+03  0.47000000000E+01 0.  1.
<mgrwt>
<rscale>  0 0.14393736E+03</rscale>
<asrwt>0</asrwt>
<pdfrwt beam="1">  1        1 0.11251415E-01 0.15075515E+03</pdfrwt>
<pdfrwt beam="2">  1       -1 0.40123582E-01 0.15075515E+03</pdfrwt>
<totfact> 0.32527544E+03</totfact>
</mgrwt>
</event>
<event>
 8    1  0.3520338E-004  0.1509016E+03  0.7546771E-02  0.1208653E+00
         -2   -1    0    0    0  501 -0.00000000000E+00  0.00000000000E+00  0.54944008263E+02  0.54944008263E+02  0.00000000000E+00 0.  1.
          2   -1    0    0  501    0  0.00000000000E+00 -0.00000000000E+00 -0.34475043934E+03  0.34475043934E+03  0.00000000000E+00 0. -1.
         25    2    1    2    0    0  0.15678326716E+02  0.83070514464E+02 -0.17482621016E+03  0.23094480671E+03  0.12499911874E+03 0.  0.
         23    2    1    2    0    0 -0.15678326716E+02 -0.83070514464E+02 -0.11498022092E+03  0.16874964090E+03  0.90052594620E+02 0.  0.
          5    1    3    3  502    0 -0.46730547451E+02  0.73589301770E+02 -0.10850063340E+03  0.13926093080E+03  0.47000000000E+01 0.  1.
         -5    1    4    4    0  503 -0.43471256375E+02 -0.46661889708E+02 -0.26928024812E+02  0.69385089192E+02  0.47000000000E+01 0.  1.
          5    1    4    4  503    0  0.27792929659E+02 -0.36408624756E+02 -0.88052196113E+02  0.99364551707E+02  0.47000000000E+01 0. -1.
         -5    1    3    3    0  502  0.62408874167E+02  0.94812126934E+01 -0.66325576758E+02  0.91683875906E+02  0.47000000000E+01 0.  1.
<mgrwt>
<rscale>  0 0.14353258E+03</rscale>
<asrwt>0</asrwt>
<pdfrwt beam="1">  1        2 0.53038528E-01 0.15090162E+03</pdfrwt>
<pdfrwt beam="2">  1       -2 0.84529245E-02 0.15090162E+03</pdfrwt>
<totfact> 0.78088548E+03</totfact>
</mgrwt>
</event>
<event>
 8    1  0.3520338E-004  0.1455491E+03  0.7546771E-02  0.1217338E+00
         -1   -1    0    0    0  501 -0.00000000000E+00  0.00000000000E+00  0.52229837248E+02  0.52229837248E+02  0.00000000000E+00 0.  1.
          1   -1    0    0  501    0  0.00000000000E+00 -0.00000000000E+00 -0.34516897709E+03  0.34516897709E+03  0.00000000000E+00 0. -1.
         25    2    1    2    0    0 -0.73264735847E+02  0.13836590894E+02 -0.11353453417E+03  0.18459318592E+03  0.12500152429E+03 0.  0.
         23    2    1    2    0    0  0.73264735847E+02 -0.13836590894E+02 -0.17940460567E+03  0.21280562841E+03  0.86839220299E+02 0.  0.
          5    1    4    4  502    0  0.67594196592E+02  0.81030307689E+01 -0.17680514183E+03  0.18951723589E+03  0.47000000000E+01 0. -1.
         -5    1    3    3    0  503 -0.10473651592E+03  0.77390631565E+01 -0.10974490155E+03  0.15197257740E+03  0.47000000000E+01 0.  1.
          5    1    3    3  503    0  0.31471780069E+02  0.60975277376E+01 -0.37896326216E+01  0.32620608526E+02  0.47000000000E+01 0.  1.
         -5    1    4    4    0  502  0.56705392544E+01 -0.21939621663E+02 -0.25994638392E+01  0.23288392525E+02  0.47000000000E+01 0.  1.
<mgrwt>
<rscale>  0 0.13706201E+03</rscale>
<asrwt>0</asrwt>
<pdfrwt beam="1">  1        1 0.53102919E-01 0.14554915E+03</pdfrwt>
<pdfrwt beam="2">  1       -1 0.80353596E-02 0.14554915E+03</pdfrwt>
<totfact> 0.60186466E+03</totfact>
</mgrwt>
</event>
<event>
 8    1  0.3520338E-004  0.1273568E+03  0.7546771E-02  0.1246045E+00
          3   -1    0    0  501    0  0.00000000000E+00  0.00000000000E+00  0.39071710023E+03  0.39071710023E+03  0.00000000000E+00 0. -1.
         -3   -1    0    0    0  501 -0.00000000000E+00 -0.00000000000E+00 -0.31522456264E+02  0.31522456264E+02  0.00000000000E+00 0.  1.
         25    2    1    2    0    0  0.19590851783E+02  0.14538379094E+02  0.20413506236E+03  0.24060524521E+03  0.12499837758E+03 0.  0.
         23    2    1    2    0    0 -0.19590851783E+02 -0.14538379094E+02  0.15505958160E+03  0.18163431128E+03  0.91391374033E+02 0.  0.
          5    1    3    3  502    0 -0.25900528656E+02  0.30728963755E+02  0.18345936175E+03  0.18786839546E+03  0.47000000000E+01 0. -1.
         -5    1    3    3    0  502  0.45491380439E+02 -0.16190584661E+02  0.20675700611E+02  0.52736849751E+02  0.47000000000E+01 0. -1.
          5    1    4    4  503    0  0.33623492690E+02  0.10503746770E+02  0.55347747619E+02  0.65774851755E+02  0.47000000000E+01 0. -1.
         -5    1    4    4    0  503 -0.53214344473E+02 -0.25042125864E+02  0.99711833979E+02  0.11585945952E+03  0.47000000000E+01 0.  1.
<mgrwt>
<rscale>  0 0.11823054E+03</rscale>
<asrwt>0</asrwt>
<pdfrwt beam="1">  1        3 0.60110320E-01 0.12735682E+03</pdfrwt>
<pdfrwt beam="2">  1       -3 0.48496089E-02 0.12735682E+03</pdfrwt>
<totfact> 0.14938155E+03</totfact>
</mgrwt>
</event>
<event>
 8    1  0.3520338E-004  0.1295868E+03  0.7546771E-02  0.1242226E+00
          2   -1    0    0  501    0  0.00000000000E+00  0.00000000000E+00  0.30520704047E+02  0.30520704047E+02  0.00000000000E+00 0. -1.
         -2   -1    0    0    0  501 -0.00000000000E+00 -0.00000000000E+00 -0.42547586041E+03  0.42547586041E+03  0.00000000000E+00 0.  1.
         25    2    1    2    0    0 -0.45843573767E+01  0.33856115554E+02 -0.25001867044E+03  0.28160622893E+03  0.12500191884E+03 0.  0.
         23    2    1    2    0    0  0.45843573767E+01 -0.33856115554E+02 -0.14493648593E+03  0.17439033553E+03  0.90764262121E+02 0.  0.
          5    1    3    3  502    0 -0.17842903752E+02  0.74546323625E+02 -0.20681697665E+03  0.22061476698E+03  0.47000000000E+01 0. -1.
         -5    1    3    3    0  502  0.13258546375E+02 -0.40690208071E+02 -0.43201693789E+02  0.60991461952E+02  0.47000000000E+01 0. -1.
          5    1    4    4  503    0 -0.41937581849E+02 -0.23729929271E+02 -0.83529169476E+02  0.96545753236E+02  0.47000000000E+01 0. -1.
         -5    1    4    4    0  503  0.46521939225E+02 -0.10126186283E+02 -0.61407316454E+02  0.77844582290E+02  0.47000000000E+01 0.  1.
<mgrwt>
<rscale>  0 0.12052932E+03</rscale>
<asrwt>0</asrwt>
<pdfrwt beam="1">  1        2 0.46954931E-02 0.12958678E+03</pdfrwt>
<pdfrwt beam="2">  1       -2 0.65457822E-01 0.12958678E+03</pdfrwt>
<totfact> 0.35740764E+03</totfact>
</mgrwt>
</event>
<event>
 8    1  0.4167379E-004  0.2345750E+03  0.7546771E-02  0.1126396E+00
          2   -1    0    0  501    0  0.00000000000E+00  0.00000000000E+00  0.19030280234E+04  0.19030280234E+04  0.00000000000E+00 0. -1.
         -2   -1    0    0    0  501 -0.00000000000E+00 -0.00000000000E+00 -0.26946744557E+02  0.26946744557E+02  0.00000000000E+00 0.  1.
         25    2    1    2    0    0  0.15381965006E+03 -0.12546203567E+03  0.10017031086E+04  0.10288024849E+04  0.12499691228E+03 0.  0.
         23    2    1    2    0    0 -0.15381965006E+03  0.12546203567E+03  0.87437817026E+03  0.90117228305E+03  0.90405154500E+02 0.  0.
          5    1    3    3  502    0  0.98047148562E+02 -0.14174299576E+03  0.65918630325E+03  0.68136113228E+03  0.47000000000E+01 0. -1.
         -5    1    4    4    0  503 -0.63513053955E+02  0.98667205521E+02  0.58962331219E+03  0.60120451241E+03  0.47000000000E+01 0.  1.
          5    1    4    4  503    0 -0.90306596105E+02  0.26794830152E+02  0.28475485807E+03  0.29996777063E+03  0.47000000000E+01 0. -1.
         -5    1    3    3    0  502  0.55772501498E+02  0.16280960087E+02  0.34251680533E+03  0.34744135263E+03  0.47000000000E+01 0. -1.
<mgrwt>
<rscale>  0 0.23034716E+03</rscale>
<asrwt>0</asrwt>
<pdfrwt beam="1">  1        2 0.29277344E+00 0.23457501E+03</pdfrwt>
<pdfrwt beam="2">  1       -2 0.41456545E-02 0.23457501E+03</pdfrwt>
<totfact> 0.21784335E+03</totfact>
</mgrwt>
</event>
<event>
 8    1  0.3520338E-004  0.1715501E+03  0.7546771E-02  0.1181409E+00
         -1   -1    0    0    0  501 -0.00000000000E+00  0.00000000000E+00  0.30727349485E+02  0.30727349485E+02  0.00000000000E+00 0.  1.
          1   -1    0    0  501    0  0.00000000000E+00 -0.00000000000E+00 -0.85567945663E+03  0.85567945663E+03  0.00000000000E+00 0. -1.
         25    2    1    2    0    0 -0.76881104641E+02  0.88846280922E+02 -0.44429633392E+03  0.47626534178E+03  0.12500031024E+03 0.  0.
         23    2    1    2    0    0  0.76881104641E+02 -0.88846280922E+02 -0.38065577323E+03  0.41014146434E+03  0.97533774632E+02 0.  0.
          5    1    4    4  502    0  0.15597122830E+02 -0.37233744842E+02 -0.30255000569E+02  0.50666330586E+02  0.47000000000E+01 0. -1.
         -5    1    4    4    0  502  0.61283981811E+02 -0.51612536080E+02 -0.35040077266E+03  0.35947513375E+03  0.47000000000E+01 0.  1.
          5    1    3    3  503    0  0.18702585837E+02  0.37239380659E+02 -0.25107912617E+03  0.25455721515E+03  0.47000000000E+01 0.  1.
         -5    1    3    3    0  503 -0.95583690478E+02  0.51606900264E+02 -0.19321720775E+03  0.22170812662E+03  0.47000000000E+01 0.  1.
<mgrwt>
<rscale>  0 0.16662986E+03</rscale>
<asrwt>0</asrwt>
<pdfrwt beam="1">  1        1 0.13164298E+00 0.17155012E+03</pdfrwt>
<pdfrwt beam="2">  1       -1 0.47272851E-02 0.17155012E+03</pdfrwt>
<totfact> 0.39098971E+03</totfact>
</mgrwt>
</event>
<event>
 8    1  0.3520338E-004  0.1745043E+03  0.7546771E-02  0.1179286E+00
         -2   -1    0    0    0  501 -0.00000000000E+00  0.00000000000E+00  0.41575881781E+03  0.41575881781E+03  0.00000000000E+00 0.  1.
          2   -1    0    0  501    0  0.00000000000E+00 -0.00000000000E+00 -0.64873535825E+02  0.64873535825E+02  0.00000000000E+00 0. -1.
         25    2    1    2    0    0  0.65903548642E+02  0.10238622532E+03  0.16227454590E+03  0.23829554087E+03  0.12500207876E+03 0.  0.
         23    2    1    2    0    0 -0.65903548642E+02 -0.10238622532E+03  0.18861073609E+03  0.24233681277E+03  0.91251872271E+02 0.  0.
          5    1    4    4  502    0 -0.77814350301E+02 -0.64562947344E+02  0.17096013577E+03  0.19867789334E+03  0.47000000000E+01 0. -1.
         -5    1    3    3    0  503  0.36374891881E+02  0.84659455024E+02  0.17773262318E+03  0.20025316833E+03  0.47000000000E+01 0. -1.
          5    1    3    3  503    0  0.29528656760E+02  0.17726770297E+02 -0.15458077285E+02  0.38042372542E+02  0.47000000000E+01 0. -1.
         -5    1    4    4    0  502  0.11910801660E+02 -0.37823277977E+02  0.17650600326E+02  0.43658919421E+02  0.47000000000E+01 0.  1.
<mgrwt>
<rscale>  0 0.16862840E+03</rscale>
<asrwt>0</asrwt>
<pdfrwt beam="1">  1        2 0.99805442E-02 0.17450426E+03</pdfrwt>
<pdfrwt beam="2">  1       -2 0.63962893E-01 0.17450426E+03</pdfrwt>
<totfact> 0.14581109E+03</totfact>
</mgrwt>
</event>
<event>
 8    1  0.3520338E-004  0.1840469E+03  0.7546771E-02  0.1168926E+00
          2   -1    0    0  501    0  0.00000000000E+00  0.00000000000E+00  0.64902634608E+03  0.64902634608E+03  0.00000000000E+00 0. -1.
         -2   -1    0    0    0  501 -0.00000000000E+00 -0.00000000000E+00 -0.47318989596E+02  0.47318989596E+02  0.00000000000E+00 0.  1.
         25    2    1    2    0    0  0.11399106533E+03 -0.72457261366E+02  0.35799371664E+03  0.40253293768E+03  0.12501698709E+03 0.  0.
         23    2    1    2    0    0 -0.11399106533E+03  0.72457261366E+02  0.24371363984E+03  0.29381239799E+03  0.93195328585E+02 0.  0.
          5    1    3    3  502    0  0.19602077826E+02 -0.39438186082E+02  0.25531959149E+03  0.25913277634E+03  0.47000000000E+01 0.  1.
         -5    1    3    3    0  502  0.94388987509E+02 -0.33019075284E+02  0.10267412515E+03  0.14340016134E+03  0.47000000000E+01 0.  1.
          5    1    4    4  503    0 -0.86636492332E+02  0.46199595532E+02  0.23484774903E+03  0.25458955134E+03  0.47000000000E+01 0. -1.
         -5    1    4    4    0  503 -0.27354573003E+02  0.26257665835E+02  0.88658908102E+01  0.39222846647E+02  0.47000000000E+01 0.  1.
<mgrwt>
<rscale>  0 0.17884414E+03</rscale>
<asrwt>0</asrwt>
<pdfrwt beam="1">  1        2 0.99850201E-01 0.18404691E+03</pdfrwt>
<pdfrwt beam="2">  1       -2 0.72798450E-02 0.18404691E+03</pdfrwt>
<totfact> 0.49458392E+03</totfact>
</mgrwt>
</event>
<event>
 8    1  0.3520338E-004  0.1334663E+03  0.7546771E-02  0.1234511E+00
         -4   -1    0    0    0  501 -0.00000000000E+00  0.00000000000E+00  0.13686431741E+03  0.13686431741E+03  0.00000000000E+00 0.  1.
          4   -1    0    0  501    0  0.00000000000E+00 -0.00000000000E+00 -0.10879452848E+03  0.10879452848E+03  0.00000000000E+00 0. -1.
         25    2    1    2    0    0  0.46521415223E+02 -0.45463345769E+01 -0.12707832871E+02  0.13406987459E+03  0.12501332338E+03 0.  0.
         23    2    1    2    0    0 -0.46521415223E+02  0.45463345769E+01  0.40777621794E+02  0.11158897130E+03  0.92759758756E+02 0.  0.
          5    1    4    4  502    0 -0.31339827211E+02  0.47053361055E+02  0.32746876787E+02  0.65503064780E+02  0.47000000000E+01 0. -1.
         -5    1    3    3    0  503  0.45318573703E+02 -0.59940412041E+02  0.56736820041E+01  0.75504349448E+02  0.47000000000E+01 0.  1.
          5    1    3    3  503    0  0.12028415200E+01  0.55394077464E+02 -0.18381514875E+02  0.58565525140E+02  0.47000000000E+01 0.  1.
         -5    1    4    4    0  502 -0.15181588012E+02 -0.42507026478E+02  0.80307450066E+01  0.46085906522E+02  0.47000000000E+01 0.  1.
<mgrwt>
<rscale>  0 0.12535818E+03</rscale>
<asrwt>0</asrwt>
<pdfrwt beam="1">  1        4 0.16737620E-01 0.13346626E+03</pdfrwt>
<pdfrwt beam="2">  1       -4 0.21056049E-01 0.13346626E+03</pdfrwt>
<totfact> 0.10493492E+03</totfact>
</mgrwt>
</event>
<event>
 8    1  0.3520338E-004  0.1410150E+03  0.7546771E-02  0.1221987E+00
          2   -1    0    0  501    0  0.00000000000E+00  0.00000000000E+00  0.67092436874E+03  0.67092436874E+03  0.00000000000E+00 0. -1.
         -2   -1    0    0    0  501 -0.00000000000E+00 -0.00000000000E+00 -0.25448746633E+02  0.25448746633E+02  0.00000000000E+00 0.  1.
         25    2    1    2    0    0  0.64124913143E+02  0.12241646757E+02  0.28027547623E+03  0.31375080880E+03  0.12499346000E+03 0.  0.
         23    2    1    2    0    0 -0.64124913143E+02 -0.12241646757E+02  0.36520014588E+03  0.38262230658E+03  0.93631301074E+02 0.  0.
          5    1    3    3  502    0  0.33941598184E+01  0.52073864124E+02  0.50677933136E+02  0.72894105061E+02  0.47000000000E+01 0. -1.
         -5    1    3    3    0  502  0.60730753325E+02 -0.39832217367E+02  0.22959754309E+03  0.24085670374E+03  0.47000000000E+01 0. -1.
          5    1    4    4  503    0 -0.50138333039E+02  0.36149362944E+02  0.23197997711E+03  0.24011961324E+03  0.47000000000E+01 0. -1.
         -5    1    4    4    0  503 -0.13986580104E+02 -0.48391009700E+02  0.13322016877E+03  0.14250269334E+03  0.47000000000E+01 0.  1.
<mgrwt>
<rscale>  0 0.13375546E+03</rscale>
<asrwt>0</asrwt>
<pdfrwt beam="1">  1        2 0.10321912E+00 0.14101499E+03</pdfrwt>
<pdfrwt beam="2">  1       -2 0.39151923E-02 0.14101499E+03</pdfrwt>
<totfact> 0.11991401E+04</totfact>
</mgrwt>
</event>
<event>
 8    1  0.3520338E-004  0.1261351E+03  0.7546771E-02  0.1249119E+00
         -1   -1    0    0    0  501 -0.00000000000E+00  0.00000000000E+00  0.28703458877E+03  0.28703458877E+03  0.00000000000E+00 0.  1.
          1   -1    0    0  501    0  0.00000000000E+00 -0.00000000000E+00 -0.54758448753E+02  0.54758448753E+02  0.00000000000E+00 0. -1.
         25    2    1    2    0    0 -0.13564623467E+02 -0.10008402701E+02  0.46042149188E+02  0.13427563299E+03  0.12500359587E+03 0.  0.
         23    2    1    2    0    0  0.13564623467E+02  0.10008402701E+02  0.18623399083E+03  0.20751740453E+03  0.89978923687E+02 0.  0.
          5    1    3    3  502    0  0.24500530594E+02 -0.15685697808E+02  0.78412465613E+02  0.83767069177E+02  0.47000000000E+01 0.  1.
         -5    1    3    3    0  502 -0.38065154061E+02  0.56772951070E+01 -0.32370316425E+02  0.50508563817E+02  0.47000000000E+01 0.  1.
          5    1    4    4  503    0  0.24686859102E+02  0.45534949826E+02  0.86163411530E+02  0.10064341088E+03  0.47000000000E+01 0. -1.
         -5    1    4    4    0  503 -0.11122235635E+02 -0.35526547126E+02  0.10007057930E+03  0.10687399364E+03  0.47000000000E+01 0.  1.
<mgrwt>
<rscale>  0 0.11642196E+03</rscale>
<asrwt>0</asrwt>
<pdfrwt beam="1">  1        1 0.84243769E-02 0.12613511E+03</pdfrwt>
<pdfrwt beam="2">  1       -1 0.44159167E-01 0.12613511E+03</pdfrwt>
<totfact> 0.39911305E+03</totfact>
</mgrwt>
</event>
<event>
 8    1  0.3520338E-004  0.1353366E+03  0.7546771E-02  0.1231507E+00
         -1   -1    0    0    0  501 -0.00000000000E+00  0.00000000000E+00  0.43106181697E+02  0.43106181697E+02  0.00000000000E+00 0.  1.
          1   -1    0    0  501    0  0.00000000000E+00 -0.00000000000E+00 -0.48785789014E+03  0.48785789014E+03  0.00000000000E+00 0. -1.
         25    2    1    2    0    0 -0.46960725547E+02 -0.22021758162E+02 -0.94579834123E+02  0.16511011070E+03  0.12500294420E+03 0.  0.
         23    2    1    2    0    0  0.46960725547E+02  0.22021758162E+02 -0.35017187432E+03  0.36585396113E+03  0.92404067738E+02 0.  0.
          5    1    4    4  502    0 -0.17287956325E+02  0.19985060298E+02 -0.20837208511E+03  0.21009353137E+03  0.47000000000E+01 0. -1.
         -5    1    4    4    0  502  0.64248681873E+02  0.20366978642E+01 -0.14179978921E+03  0.15576042976E+03  0.47000000000E+01 0.  1.
          5    1    3    3  503    0 -0.72916213107E+02 -0.45689894391E+02 -0.96798972286E+02  0.12960120223E+03  0.47000000000E+01 0. -1.
         -5    1    3    3    0  503  0.25955487560E+02  0.23668136229E+02  0.22191381625E+01  0.35508908477E+02  0.47000000000E+01 0. -1.
<mgrwt>
<rscale>  0 0.12730724E+03</rscale>
<asrwt>0</asrwt>
<pdfrwt beam="1">  1        1 0.75055064E-01 0.13533663E+03</pdfrwt>
<pdfrwt beam="2">  1       -1 0.66317199E-02 0.13533663E+03</pdfrwt>
<totfact> 0.51580857E+03</totfact>
</mgrwt>
</event>
<event>
 8    1  0.3520338E-004  0.1838538E+03  0.7546771E-02  0.1169403E+00
         -1   -1    0    0    0  501 -0.00000000000E+00  0.00000000000E+00  0.90647378433E+02  0.90647378433E+02  0.00000000000E+00 0.  1.
          1   -1    0    0  501    0  0.00000000000E+00 -0.00000000000E+00 -0.36366097356E+03  0.36366097356E+03  0.00000000000E+00 0. -1.
         25    2    1    2    0    0  0.44117683336E+02 -0.12740441512E+03 -0.21151183125E+03  0.28024896656E+03  0.12499589404E+03 0.  0.
         23    2    1    2    0    0 -0.44117683336E+02  0.12740441512E+03 -0.61501763876E+02  0.17405938543E+03  0.91301411391E+02 0.  0.
          5    1    4    4  502    0  0.19883035414E+02  0.18659793662E+02 -0.35725052670E+02  0.45187303361E+02  0.47000000000E+01 0. -1.
         -5    1    4    4    0  502 -0.64000718751E+02  0.10874462145E+03 -0.25776711206E+02  0.12887208207E+03  0.47000000000E+01 0.  1.
          5    1    3    3  503    0  0.68299014883E+02 -0.61235902322E+02 -0.51386959229E+02  0.10524875651E+03  0.47000000000E+01 0.  1.
         -5    1    3    3    0  503 -0.24181331546E+02 -0.66168512794E+02 -0.16012487202E+03  0.17500021006E+03  0.47000000000E+01 0.  1.
<mgrwt>
<rscale>  0 0.17835666E+03</rscale>
<asrwt>0</asrwt>
<pdfrwt beam="1">  1        1 0.55947841E-01 0.18385382E+03</pdfrwt>
<pdfrwt beam="2">  1       -1 0.13945751E-01 0.18385382E+03</pdfrwt>
<totfact> 0.24383392E+03</totfact>
</mgrwt>
</event>
<event>
 8    1  0.3520338E-004  0.1255218E+03  0.7546771E-02  0.1249797E+00
          2   -1    0    0  501    0  0.00000000000E+00  0.00000000000E+00  0.56213697678E+02  0.56213697678E+02  0.00000000000E+00 0.  1.
         -2   -1    0    0    0  501 -0.00000000000E+00 -0.00000000000E+00 -0.33318549185E+03  0.33318549185E+03  0.00000000000E+00 0. -1.
         25    2    1    2    0    0  0.39703810797E+01  0.10709421720E+02 -0.34484603247E+02  0.13017259223E+03  0.12500104106E+03 0.  0.
         23    2    1    2    0    0 -0.39703810797E+01 -0.10709421720E+02 -0.24248719093E+03  0.25922659730E+03  0.90928187853E+02 0.  0.
          5    1    4    4  502    0  0.94323185614E+00 -0.31858712879E+02 -0.23275289909E+03  0.23497206069E+03  0.47000000000E+01 0. -1.
         -5    1    3    3    0  503  0.53006755492E+02 -0.24825743089E+02 -0.36955679161E+02  0.69381884306E+02  0.47000000000E+01 0.  1.
          5    1    3    3  503    0 -0.49036374412E+02  0.35535164809E+02  0.24710759135E+01  0.60790707922E+02  0.47000000000E+01 0.  1.
         -5    1    4    4    0  502 -0.49136129359E+01  0.21149291158E+02 -0.97342918401E+01  0.24254536611E+02  0.47000000000E+01 0.  1.
<mgrwt>
<rscale>  0 0.11602827E+03</rscale>
<asrwt>0</asrwt>
<pdfrwt beam="1">  1        2 0.86482612E-02 0.12552177E+03</pdfrwt>
<pdfrwt beam="2">  1       -2 0.51259307E-01 0.12552177E+03</pdfrwt>
<totfact> 0.26885831E+03</totfact>
</mgrwt>
</event>
<event>
 8    1  0.3520338E-004  0.1511089E+03  0.7546771E-02  0.1208168E+00
         -2   -1    0    0    0  501 -0.00000000000E+00  0.00000000000E+00  0.99489809275E+02  0.99489809275E+02  0.00000000000E+00 0.  1.
          2   -1    0    0  501    0  0.00000000000E+00 -0.00000000000E+00 -0.25689590109E+03  0.25689590109E+03  0.00000000000E+00 0. -1.
         25    2    1    2    0    0 -0.68605666673E+02 -0.50024856198E+02  0.58239846634E+01  0.15122111114E+03  0.12499872768E+03 0.  0.
         23    2    1    2    0    0  0.68605666673E+02  0.50024856198E+02 -0.16323007648E+03  0.20516459923E+03  0.90770210807E+02 0.  0.
          5    1    3    3  502    0  0.19200581290E+02 -0.85920246187E+01 -0.38705707793E+02  0.44302449421E+02  0.47000000000E+01 0.  1.
         -5    1    4    4    0  503  0.89934295494E+02  0.34863042193E+02 -0.11571843071E+03  0.15071978776E+03  0.47000000000E+01 0.  1.
          5    1    4    4  503    0 -0.21328628821E+02  0.15161814005E+02 -0.47511645777E+02  0.54444811468E+02  0.47000000000E+01 0. -1.
         -5    1    3    3    0  502 -0.87806247963E+02 -0.41432831579E+02  0.44529692457E+02  0.10691866172E+03  0.47000000000E+01 0.  1.
<mgrwt>
<rscale>  0 0.14390577E+03</rscale>
<asrwt>0</asrwt>
<pdfrwt beam="1">  1        2 0.39522446E-01 0.15110892E+03</pdfrwt>
<pdfrwt beam="2">  1       -2 0.15306125E-01 0.15110892E+03</pdfrwt>
<totfact> 0.41432869E+03</totfact>
</mgrwt>
</event>
<event>
 8    1  0.3520338E-004  0.1606508E+03  0.7546771E-02  0.1197398E+00
         -1   -1    0    0    0  501 -0.00000000000E+00  0.00000000000E+00  0.13338752381E+03  0.13338752381E+03  0.00000000000E+00 0.  1.
          1   -1    0    0  501    0  0.00000000000E+00 -0.00000000000E+00 -0.15928446037E+03  0.15928446037E+03  0.00000000000E+00 0. -1.
         25    2    1    2    0    0  0.95768884325E+02  0.31813162202E+02 -0.21147916128E+02  0.16203676489E+03  0.12499968930E+03 0.  0.
         23    2    1    2    0    0 -0.95768884325E+02 -0.31813162202E+02 -0.47490204250E+01  0.13063521929E+03  0.82820594232E+02 0.  0.
          5    1    4    4  502    0 -0.82867331775E+02  0.10774296659E+02 -0.14223481286E+02  0.84896864276E+02  0.47000000000E+01 0. -1.
         -5    1    4    4    0  502 -0.12901552550E+02 -0.42587458862E+02  0.94744608608E+01  0.45738355011E+02  0.47000000000E+01 0.  1.
          5    1    3    3  503    0 -0.28236983926E+02  0.86623325020E+01  0.10839596757E+02  0.31811163503E+02  0.47000000000E+01 0. -1.
         -5    1    3    3    0  503  0.12400586825E+03  0.23150829700E+02 -0.31987512885E+02  0.13022560139E+03  0.47000000000E+01 0. -1.
<mgrwt>
<rscale>  0 0.15253006E+03</rscale>
<asrwt>0</asrwt>
<pdfrwt beam="1">  1        1 0.24505301E-01 0.16065080E+03</pdfrwt>
<pdfrwt beam="2">  1       -1 0.20521158E-01 0.16065080E+03</pdfrwt>
<totfact> 0.36832073E+03</totfact>
</mgrwt>
</event>
<event>
 8    1  0.3520338E-004  0.1268043E+03  0.7546771E-02  0.1247434E+00
          1   -1    0    0  501    0  0.00000000000E+00  0.00000000000E+00  0.28414820953E+03  0.28414820953E+03  0.00000000000E+00 0. -1.
         -1   -1    0    0    0  501 -0.00000000000E+00 -0.00000000000E+00 -0.56595688559E+02  0.56595688559E+02  0.00000000000E+00 0.  1.
         25    2    1    2    0    0 -0.10519956401E+02  0.18499075914E+02  0.21087941930E+03  0.24606801586E+03  0.12500581448E+03 0.  0.
         23    2    1    2    0    0  0.10519956401E+02 -0.18499075914E+02  0.16673101675E+02  0.94675882232E+02  0.90733924552E+02 0.  0.
          5    1    4    4  502    0  0.38629348316E+02  0.12733392062E+02  0.29530846747E+02  0.50482935080E+02  0.47000000000E+01 0. -1.
         -5    1    4    4    0  502 -0.28109391914E+02 -0.31232467976E+02 -0.12857745072E+02  0.44192947152E+02  0.47000000000E+01 0.  1.
          5    1    3    3  503    0 -0.11804649840E+02  0.71131023235E+02  0.10156922802E+03  0.12464898838E+03  0.47000000000E+01 0.  1.
         -5    1    3    3    0  503  0.12846934381E+01 -0.52631947321E+02  0.10931019128E+03  0.12141902748E+03  0.47000000000E+01 0.  1.
<mgrwt>
<rscale>  0 0.11740866E+03</rscale>
<asrwt>0</asrwt>
<pdfrwt beam="1">  1        1 0.43715108E-01 0.12680433E+03</pdfrwt>
<pdfrwt beam="2">  1       -1 0.87070292E-02 0.12680433E+03</pdfrwt>
<totfact> 0.67266558E+03</totfact>
</mgrwt>
</event>
<event>
 8    1  0.3520338E-004  0.1361116E+03  0.7546771E-02  0.1230860E+00
         -1   -1    0    0    0  501 -0.00000000000E+00  0.00000000000E+00  0.13458366259E+03  0.13458366259E+03  0.00000000000E+00 0.  1.
          1   -1    0    0  501    0  0.00000000000E+00 -0.00000000000E+00 -0.10870927652E+03  0.10870927652E+03  0.00000000000E+00 0. -1.
         25    2    1    2    0    0  0.19814682393E+02  0.50108317843E+02  0.19907519940E+02  0.13755976145E+03  0.12499165358E+03 0.  0.
         23    2    1    2    0    0 -0.19814682393E+02 -0.50108317843E+02  0.59668661294E+01  0.10573317766E+03  0.90776848436E+02 0.  0.
          5    1    4    4  502    0  0.11900504829E+00 -0.69227250332E+02 -0.14689081819E+02  0.70924505465E+02  0.47000000000E+01 0. -1.
         -5    1    4    4    0  502 -0.19933687442E+02  0.19118932489E+02  0.20655947949E+02  0.34808672198E+02  0.47000000000E+01 0.  1.
          5    1    3    3  503    0  0.52176502623E+02  0.31325370508E+02  0.57825986102E+02  0.84080918953E+02  0.47000000000E+01 0.  1.
         -5    1    3    3    0  503 -0.32361820229E+02  0.18782947335E+02 -0.37918466162E+02  0.53478842501E+02  0.47000000000E+01 0.  1.
<mgrwt>
<rscale>  0 0.12773241E+03</rscale>
<asrwt>0</asrwt>
<pdfrwt beam="1">  1        1 0.16724504E-01 0.13611164E+03</pdfrwt>
<pdfrwt beam="2">  1       -1 0.20705179E-01 0.13611164E+03</pdfrwt>
<totfact> 0.58485268E+03</totfact>
</mgrwt>
</event>
<event>
 8    1  0.3520338E-004  0.1313868E+03  0.7546771E-02  0.1239041E+00
          2   -1    0    0  501    0  0.00000000000E+00  0.00000000000E+00  0.68295123333E+02  0.68295123333E+02  0.00000000000E+00 0. -1.
         -2   -1    0    0    0  501 -0.00000000000E+00 -0.00000000000E+00 -0.20908351965E+03  0.20908351965E+03  0.00000000000E+00 0.  1.
         25    2    1    2    0    0  0.82245987522E+01 -0.39694941014E+02 -0.43528353142E+02  0.13840953982E+03  0.12497660108E+03 0.  0.
         23    2    1    2    0    0 -0.82245987522E+01  0.39694941014E+02 -0.97260043173E+02  0.13896910316E+03  0.90606640316E+02 0.  0.
          5    1    3    3  502    0  0.20541597621E+00  0.37394817138E+02  0.15621180435E+02  0.40798600744E+02  0.47000000000E+01 0.  1.
         -5    1    4    4    0  503  0.14016197059E+02  0.61615322698E+02 -0.82729498212E+02  0.10420730131E+03  0.47000000000E+01 0.  1.
          5    1    4    4  503    0 -0.22240795811E+02 -0.21920381684E+02 -0.14530544961E+02  0.34761801857E+02  0.47000000000E+01 0. -1.
         -5    1    3    3    0  502  0.80191827760E+01 -0.77089758152E+02 -0.59149533577E+02  0.97610939073E+02  0.47000000000E+01 0.  1.
<mgrwt>
<rscale>  0 0.12249242E+03</rscale>
<asrwt>0</asrwt>
<pdfrwt beam="1">  1        2 0.10506942E-01 0.13138677E+03</pdfrwt>
<pdfrwt beam="2">  1       -2 0.32166695E-01 0.13138677E+03</pdfrwt>
<totfact> 0.51378982E+03</totfact>
</mgrwt>
</event>
<event>
 8    1  0.3520338E-004  0.1710604E+03  0.7546771E-02  0.1183368E+00
          2   -1    0    0  501    0  0.00000000000E+00  0.00000000000E+00  0.15779451872E+04  0.15779451872E+04  0.00000000000E+00 0. -1.
         -2   -1    0    0    0  501 -0.00000000000E+00 -0.00000000000E+00 -0.17990816101E+02  0.17990816101E+02  0.00000000000E+00 0.  1.
         25    2    1    2    0    0 -0.78804561800E+02 -0.86166103674E+02  0.10919347028E+04  0.11052524864E+04  0.12500762852E+03 0.  0.
         23    2    1    2    0    0  0.78804561800E+02  0.86166103674E+02  0.46801966830E+03  0.49068351688E+03  0.89961922141E+02 0.  0.
          5    1    3    3  502    0  0.29349557902E+02 -0.41325111586E+02  0.43282663958E+03  0.43580976507E+03  0.47000000000E+01 0. -1.
         -5    1    3    3    0  502 -0.10815411970E+03 -0.44840992088E+02  0.65910806318E+03  0.66944272132E+03  0.47000000000E+01 0. -1.
          5    1    4    4  503    0 -0.52571378201E+01  0.57213646093E+02  0.16067903390E+03  0.17070700259E+03  0.47000000000E+01 0. -1.
         -5    1    4    4    0  503  0.84061699620E+02  0.28952457581E+02  0.30734063440E+03  0.31997651429E+03  0.47000000000E+01 0.  1.
<mgrwt>
<rscale>  0 0.16481220E+03</rscale>
<asrwt>0</asrwt>
<pdfrwt beam="1">  1        2 0.24276069E+00 0.17106041E+03</pdfrwt>
<pdfrwt beam="2">  1       -2 0.27678191E-02 0.17106041E+03</pdfrwt>
<totfact> 0.58650424E+03</totfact>
</mgrwt>
</event>
<event>
 8    1  0.3520338E-004  0.1430340E+03  0.7546771E-02  0.1219559E+00
         -2   -1    0    0    0  501 -0.00000000000E+00  0.00000000000E+00  0.20109299593E+02  0.20109299593E+02  0.00000000000E+00 0.  1.
          2   -1    0    0  501    0  0.00000000000E+00 -0.00000000000E+00 -0.92970848434E+03  0.92970848434E+03  0.00000000000E+00 0. -1.
         25    2    1    2    0    0  0.47352194862E+02  0.50921720437E+02 -0.34266585115E+03  0.37132008622E+03  0.12499387550E+03 0.  0.
         23    2    1    2    0    0 -0.47352194862E+02 -0.50921720437E+02 -0.56693333360E+03  0.57849769771E+03  0.91711120097E+02 0.  0.
          5    1    3    3  502    0  0.22827499077E+02 -0.36073724107E+02 -0.55181215227E+02  0.69924708072E+02  0.47000000000E+01 0. -1.
         -5    1    3    3    0  502  0.24524695785E+02  0.86995444544E+02 -0.28748463593E+03  0.30139537815E+03  0.47000000000E+01 0. -1.
          5    1    4    4  503    0  0.19538529014E+02 -0.39343224299E+02 -0.28889072663E+03  0.29224918366E+03  0.47000000000E+01 0. -1.
         -5    1    4    4    0  503 -0.66890723875E+02 -0.11578496138E+02 -0.27804260696E+03  0.28624851406E+03  0.47000000000E+01 0.  1.
<mgrwt>
<rscale>  0 0.13546926E+03</rscale>
<asrwt>0</asrwt>
<pdfrwt beam="1">  1        2 0.14303207E+00 0.14303399E+03</pdfrwt>
<pdfrwt beam="2">  1       -2 0.30937386E-02 0.14303399E+03</pdfrwt>
<totfact> 0.11333028E+04</totfact>
</mgrwt>
</event>
<event>
 8    1  0.3520338E-004  0.1526833E+03  0.7546771E-02  0.1206434E+00
         -3   -1    0    0    0  501 -0.00000000000E+00  0.00000000000E+00  0.41685867820E+02  0.41685867820E+02  0.00000000000E+00 0.  1.
          3   -1    0    0  501    0  0.00000000000E+00 -0.00000000000E+00 -0.48760803145E+03  0.48760803145E+03  0.00000000000E+00 0. -1.
         25    2    1    2    0    0  0.73534839709E+02  0.47747090308E+02 -0.18436944102E+03  0.23938314859E+03  0.12500017506E+03 0.  0.
         23    2    1    2    0    0 -0.73534839709E+02 -0.47747090308E+02 -0.26155272261E+03  0.28991075068E+03  0.89169834413E+02 0.  0.
          5    1    4    4  502    0 -0.67723515457E+02  0.52899456293E+01 -0.17890499411E+03  0.19142503752E+03  0.47000000000E+01 0. -1.
         -5    1    4    4    0  502 -0.58113242521E+01 -0.53037035937E+02 -0.82647728505E+02  0.98485713165E+02  0.47000000000E+01 0.  1.
          5    1    3    3  503    0  0.10153219649E+03  0.14784085416E+02 -0.94641526223E+02  0.13966554547E+03  0.47000000000E+01 0.  1.
         -5    1    3    3    0  503 -0.27997356784E+02  0.32963004892E+02 -0.89727914794E+02  0.99717603119E+02  0.47000000000E+01 0.  1.
<mgrwt>
<rscale>  0 0.14525056E+03</rscale>
<asrwt>0</asrwt>
<pdfrwt beam="1">  1        3 0.75016617E-01 0.15268334E+03</pdfrwt>
<pdfrwt beam="2">  1       -3 0.64132107E-02 0.15268334E+03</pdfrwt>
<totfact> 0.61835767E+02</totfact>
</mgrwt>
</event>
<event>
 8    1  0.3520338E-004  0.1253946E+03  0.7546771E-02  0.1250354E+00
          1   -1    0    0  501    0  0.00000000000E+00  0.00000000000E+00  0.17106390172E+03  0.17106390172E+03  0.00000000000E+00 0. -1.
         -1   -1    0    0    0  501 -0.00000000000E+00 -0.00000000000E+00 -0.74535990620E+02  0.74535990620E+02  0.00000000000E+00 0.  1.
         25    2    1    2    0    0 -0.64421772616E+01  0.75309408862E+01  0.20430642721E+02  0.12704804491E+03  0.12500231132E+03 0.  0.
         23    2    1    2    0    0  0.64421772616E+01 -0.75309408862E+01  0.76097268382E+02  0.11855184743E+03  0.90363319746E+02 0.  0.
          5    1    3    3  502    0 -0.41588171740E+02  0.14513127772E+02  0.59270428506E+02  0.73995139041E+02  0.47000000000E+01 0. -1.
         -5    1    3    3    0  502  0.35145994478E+02 -0.69821868863E+01 -0.38839785785E+02  0.53052905872E+02  0.47000000000E+01 0. -1.
          5    1    4    4  503    0  0.48552196340E+01 -0.44432660089E+02  0.66218294422E+02  0.80029912885E+02  0.47000000000E+01 0. -1.
         -5    1    4    4    0  503  0.15869576277E+01  0.36901719202E+02  0.98789739601E+01  0.38521934545E+02  0.47000000000E+01 0.  1.
<mgrwt>
<rscale>  0 0.11570607E+03</rscale>
<asrwt>0</asrwt>
<pdfrwt beam="1">  1        1 0.26317523E-01 0.12539456E+03</pdfrwt>
<pdfrwt beam="2">  1       -1 0.11467076E-01 0.12539456E+03</pdfrwt>
<totfact> 0.82804937E+03</totfact>
</mgrwt>
</event>
<event>
 8    1  0.3520338E-004  0.1789823E+03  0.7546771E-02  0.1174613E+00
          1   -1    0    0  501    0  0.00000000000E+00  0.00000000000E+00  0.47586969513E+03  0.47586969513E+03  0.00000000000E+00 0. -1.
         -1   -1    0    0    0  501 -0.00000000000E+00 -0.00000000000E+00 -0.65043874649E+02  0.65043874649E+02  0.00000000000E+00 0.  1.
         25    2    1    2    0    0  0.99158177147E+02 -0.81067700182E+02  0.13696516885E+03  0.22537554582E+03  0.12502145042E+03 0.  0.
         23    2    1    2    0    0 -0.99158177147E+02  0.81067700182E+02  0.27386065163E+03  0.31553802396E+03  0.90334223568E+02 0.  0.
          5    1    4    4  502    0 -0.67136693707E+01  0.53403076384E+02  0.14309914184E+03  0.15295887133E+03  0.47000000000E+01 0. -1.
         -5    1    4    4    0  502 -0.92444507776E+02  0.27664623798E+02  0.13076150979E+03  0.16257915263E+03  0.47000000000E+01 0.  1.
          5    1    3    3  503    0  0.63626320232E+02 -0.93338283334E+02  0.37784736341E+02  0.11920620815E+03  0.47000000000E+01 0.  1.
         -5    1    3    3    0  503  0.35531856915E+02  0.12270583152E+02  0.99180432510E+02  0.10616933766E+03  0.47000000000E+01 0.  1.
<mgrwt>
<rscale>  0 0.17313957E+03</rscale>
<asrwt>0</asrwt>
<pdfrwt beam="1">  1        1 0.73210720E-01 0.17898234E+03</pdfrwt>
<pdfrwt beam="2">  1       -1 0.10006750E-01 0.17898234E+03</pdfrwt>
<totfact> 0.28907187E+03</totfact>
</mgrwt>
</event>
<event>
 8    1  0.3520338E-004  0.1765880E+03  0.7546771E-02  0.1176858E+00
          3   -1    0    0  501    0  0.00000000000E+00  0.00000000000E+00  0.18467280901E+02  0.18467280901E+02  0.00000000000E+00 0.  1.
         -3   -1    0    0    0  501 -0.00000000000E+00 -0.00000000000E+00 -0.14906944140E+04  0.14906944140E+04  0.00000000000E+00 0. -1.
         25    2    1    2    0    0  0.95284539644E+02 -0.80488810411E+02 -0.76134874148E+03  0.78155948545E+03  0.12500292420E+03 0.  0.
         23    2    1    2    0    0 -0.95284539644E+02  0.80488810411E+02 -0.71087839160E+03  0.72760220942E+03  0.92191623365E+02 0.  0.
          5    1    4    4  502    0  0.11936018521E+02  0.31135310080E+02 -0.22864079249E+03  0.23110728691E+03  0.47000000000E+01 0. -1.
         -5    1    3    3    0  503 -0.16016518176E+02  0.20293164991E+02 -0.10479194372E+03  0.10803602579E+03  0.47000000000E+01 0. -1.
          5    1    3    3  503    0  0.11130105782E+03 -0.10078197540E+03 -0.65655679776E+03  0.67352345967E+03  0.47000000000E+01 0. -1.
         -5    1    4    4    0  502 -0.10722055817E+03  0.49353500331E+02 -0.48223759911E+03  0.49649492251E+03  0.47000000000E+01 0.  1.
<mgrwt>
<rscale>  0 0.17095265E+03</rscale>
<asrwt>0</asrwt>
<pdfrwt beam="1">  1        3 0.28411197E-02 0.17658800E+03</pdfrwt>
<pdfrwt beam="2">  1       -3 0.22933763E+00 0.17658800E+03</pdfrwt>
<totfact> 0.14462483E+02</totfact>
</mgrwt>
</event>
<event>
 8    1  0.3520338E-004  0.1706495E+03  0.7546771E-02  0.1183746E+00
          2   -1    0    0  501    0  0.00000000000E+00  0.00000000000E+00  0.88912387245E+03  0.88912387245E+03  0.00000000000E+00 0. -1.
         -2   -1    0    0    0  501 -0.00000000000E+00 -0.00000000000E+00 -0.30579308160E+02  0.30579308160E+02  0.00000000000E+00 0.  1.
         25    2    1    2    0    0  0.78456665952E+02  0.85681503894E+02  0.33652643825E+03  0.37732122039E+03  0.12499796469E+03 0.  0.
         23    2    1    2    0    0 -0.78456665952E+02 -0.85681503894E+02  0.52201812604E+03  0.54238196022E+03  0.90435050236E+02 0.  0.
          5    1    4    4  502    0 -0.41807015245E+02 -0.98463688248E+02  0.35195223333E+03  0.36787958489E+03  0.47000000000E+01 0. -1.
         -5    1    4    4    0  502 -0.36649650707E+02  0.12782184354E+02  0.17006589271E+03  0.17450237533E+03  0.47000000000E+01 0.  1.
          5    1    3    3  503    0  0.85441884364E+02  0.51958771883E+01  0.21346149708E+03  0.23003307041E+03  0.47000000000E+01 0.  1.
         -5    1    3    3    0  503 -0.69852184122E+01  0.80485626706E+02  0.12306494116E+03  0.14728814999E+03  0.47000000000E+01 0.  1.
<mgrwt>
<rscale>  0 0.16446533E+03</rscale>
<asrwt>0</asrwt>
<pdfrwt beam="1">  1        2 0.13678827E+00 0.17064952E+03</pdfrwt>
<pdfrwt beam="2">  1       -2 0.47045096E-02 0.17064952E+03</pdfrwt>
<totfact> 0.64988585E+03</totfact>
</mgrwt>
</event>
<event>
 8    1  0.3520338E-004  0.1296721E+03  0.7546771E-02  0.1242617E+00
          1   -1    0    0  501    0  0.00000000000E+00  0.00000000000E+00  0.46512559823E+02  0.46512559823E+02  0.00000000000E+00 0. -1.
         -1   -1    0    0    0  501 -0.00000000000E+00 -0.00000000000E+00 -0.27441004177E+03  0.27441004177E+03  0.00000000000E+00 0.  1.
         25    2    1    2    0    0 -0.11083653969E+02 -0.32685249629E+02 -0.12343202257E+03  0.17902599672E+03  0.12499468139E+03 0.  0.
         23    2    1    2    0    0  0.11083653969E+02  0.32685249629E+02 -0.10446545938E+03  0.14189660487E+03  0.89612729808E+02 0.  0.
          5    1    3    3  502    0  0.32955736244E+02 -0.56589459371E+02 -0.28490905588E+02  0.71570029793E+02  0.47000000000E+01 0. -1.
         -5    1    4    4    0  503  0.48740263699E+02  0.24599981203E+02 -0.76353165125E+02  0.93982276017E+02  0.47000000000E+01 0.  1.
          5    1    4    4  503    0 -0.37656609729E+02  0.80852684259E+01 -0.28112294251E+02  0.47914328858E+02  0.47000000000E+01 0. -1.
         -5    1    3    3    0  502 -0.44039390214E+02  0.23904209743E+02 -0.94941116983E+02  0.10745596692E+03  0.47000000000E+01 0. -1.
<mgrwt>
<rscale>  0 0.12029170E+03</rscale>
<asrwt>0</asrwt>
<pdfrwt beam="1">  1        1 0.71557785E-02 0.12967206E+03</pdfrwt>
<pdfrwt beam="2">  1       -1 0.42216929E-01 0.12967206E+03</pdfrwt>
<totfact> 0.53898026E+03</totfact>
</mgrwt>
</event>
<event>
 8    1  0.3520338E-004  0.1333403E+03  0.7546771E-02  0.1238846E+00
         -2   -1    0    0    0  501 -0.00000000000E+00  0.00000000000E+00  0.39394839830E+03  0.39394839830E+03  0.00000000000E+00 0.  1.
          2   -1    0    0  501    0  0.00000000000E+00 -0.00000000000E+00 -0.36393181172E+02  0.36393181172E+02  0.00000000000E+00 0. -1.
         25    2    1    2    0    0 -0.41774487846E+02  0.20298926247E+02  0.26892972992E+03  0.30017136029E+03  0.12498996624E+03 0.  0.
         23    2    1    2    0    0  0.41774487846E+02 -0.20298926247E+02  0.88625487212E+02  0.13017021919E+03  0.83262565045E+02 0.  0.
          5    1    3    3  502    0 -0.82734569487E+02  0.13918735143E+01  0.21031817539E+03  0.22605922056E+03  0.47000000000E+01 0. -1.
         -5    1    3    3    0  502  0.40960081641E+02  0.18907052733E+02  0.58611554531E+02  0.74112139731E+02  0.47000000000E+01 0. -1.
          5    1    4    4  503    0  0.28361884236E+02  0.29284050356E+02  0.24201348437E+02  0.47641865505E+02  0.47000000000E+01 0. -1.
         -5    1    4    4    0  503  0.13412603610E+02 -0.49582976603E+02  0.64424138774E+02  0.82528353681E+02  0.47000000000E+01 0.  1.
<mgrwt>
<rscale>  0 0.12261413E+03</rscale>
<asrwt>0</asrwt>
<pdfrwt beam="1">  1        2 0.55989512E-02 0.13334034E+03</pdfrwt>
<pdfrwt beam="2">  1       -2 0.60607443E-01 0.13334034E+03</pdfrwt>
<totfact> 0.33413780E+03</totfact>
</mgrwt>
</event>
<event>
 8    1  0.3520338E-004  0.1535918E+03  0.7546771E-02  0.1204285E+00
          4   -1    0    0  501    0  0.00000000000E+00  0.00000000000E+00  0.16464677423E+03  0.16464677423E+03  0.00000000000E+00 0. -1.
         -4   -1    0    0    0  501 -0.00000000000E+00 -0.00000000000E+00 -0.12111545508E+03  0.12111545508E+03  0.00000000000E+00 0.  1.
         25    2    1    2    0    0 -0.68644340128E+02  0.57037267332E+02  0.18692711367E+02  0.15472505720E+03  0.12500052228E+03 0.  0.
         23    2    1    2    0    0  0.68644340128E+02 -0.57037267332E+02  0.24838607786E+02  0.13103717212E+03  0.92674099637E+02 0.  0.
          5    1    4    4  502    0  0.21200063459E+02 -0.15823318829E+02  0.54968807527E+02  0.61183984100E+02  0.47000000000E+01 0. -1.
         -5    1    4    4    0  502  0.47444276669E+02 -0.41213948502E+02 -0.30130199740E+02  0.69853188018E+02  0.47000000000E+01 0.  1.
          5    1    3    3  503    0 -0.73722510442E+01  0.74522360342E+02 -0.22945496831E+02  0.78463482597E+02  0.47000000000E+01 0.  1.
         -5    1    3    3    0  503 -0.61272089084E+02 -0.17485093010E+02  0.41638208199E+02  0.76261574599E+02  0.47000000000E+01 0.  1.
<mgrwt>
<rscale>  0 0.14693934E+03</rscale>
<asrwt>0</asrwt>
<pdfrwt beam="1">  1        4 0.25330273E-01 0.15359175E+03</pdfrwt>
<pdfrwt beam="2">  1       -4 0.18633147E-01 0.15359175E+03</pdfrwt>
<totfact> 0.63587805E+02</totfact>
</mgrwt>
</event>
<event>
 8    1  0.3520338E-004  0.1408148E+03  0.7546771E-02  0.1223631E+00
         -2   -1    0    0    0  501 -0.00000000000E+00  0.00000000000E+00  0.11592369632E+03  0.11592369632E+03  0.00000000000E+00 0.  1.
          2   -1    0    0  501    0  0.00000000000E+00 -0.00000000000E+00 -0.13734427484E+03  0.13734427484E+03  0.00000000000E+00 0. -1.
         25    2    1    2    0    0 -0.63900855559E+02 -0.10980382408E+02 -0.20641193971E+01  0.14082994555E+03  0.12499969934E+03 0.  0.
         23    2    1    2    0    0  0.63900855559E+02  0.10980382408E+02 -0.19356459115E+02  0.11243802561E+03  0.89798379461E+02 0.  0.
          5    1    3    3  502    0 -0.68994873059E+02  0.40223315543E+02  0.23221844635E+02  0.83303971634E+02  0.47000000000E+01 0. -1.
         -5    1    3    3    0  502  0.50940175004E+01 -0.51203697951E+02 -0.25285964032E+02  0.57525973918E+02  0.47000000000E+01 0. -1.
          5    1    4    4  503    0  0.38923112391E+02  0.20002833882E+02 -0.53274562856E+02  0.69104204569E+02  0.47000000000E+01 0. -1.
         -5    1    4    4    0  503  0.24977743168E+02 -0.90224514736E+01  0.33918103741E+02  0.43333821038E+02  0.47000000000E+01 0.  1.
<mgrwt>
<rscale>  0 0.13261156E+03</rscale>
<asrwt>0</asrwt>
<pdfrwt beam="1">  1        2 0.21129889E-01 0.14081482E+03</pdfrwt>
<pdfrwt beam="2">  1       -2 0.17834415E-01 0.14081482E+03</pdfrwt>
<totfact> 0.63465120E+03</totfact>
</mgrwt>
</event>
<event>
 8    1  0.3520338E-004  0.1401200E+03  0.7546771E-02  0.1222312E+00
         -1   -1    0    0    0  501 -0.00000000000E+00  0.00000000000E+00  0.47229695735E+02  0.47229695735E+02  0.00000000000E+00 0.  1.
          1   -1    0    0  501    0  0.00000000000E+00 -0.00000000000E+00 -0.34793240806E+03  0.34793240806E+03  0.00000000000E+00 0. -1.
         25    2    1    2    0    0  0.54419094561E+02 -0.32357031621E+02 -0.15014807997E+03  0.20537298861E+03  0.12500081272E+03 0.  0.
         23    2    1    2    0    0 -0.54419094561E+02  0.32357031621E+02 -0.15055463236E+03  0.18978911519E+03  0.96668482836E+02 0.  0.
          5    1    3    3  502    0  0.80481254850E+01 -0.50096658276E+02 -0.14679777814E+03  0.15539023509E+03  0.47000000000E+01 0.  1.
         -5    1    3    3    0  502  0.46370969076E+02  0.17739626655E+02 -0.33503018345E+01  0.49982753518E+02  0.47000000000E+01 0.  1.
          5    1    4    4  503    0 -0.17229815275E+02  0.52248457836E+02 -0.13273861803E+03  0.14376508128E+03  0.47000000000E+01 0. -1.
         -5    1    4    4    0  503 -0.37189279286E+02 -0.19891426216E+02 -0.17816014328E+02  0.46024033909E+02  0.47000000000E+01 0.  1.
<mgrwt>
<rscale>  0 0.13352831E+03</rscale>
<asrwt>0</asrwt>
<pdfrwt beam="1">  1        1 0.53528064E-01 0.14012001E+03</pdfrwt>
<pdfrwt beam="2">  1       -1 0.72661068E-02 0.14012001E+03</pdfrwt>
<totfact> 0.69188789E+03</totfact>
</mgrwt>
</event>
<event>
 8    1  0.3520338E-004  0.1657137E+03  0.7546771E-02  0.1189586E+00
         -2   -1    0    0    0  501 -0.00000000000E+00  0.00000000000E+00  0.60307363001E+03  0.60307363001E+03  0.00000000000E+00 0. -1.
          2   -1    0    0  501    0  0.00000000000E+00 -0.00000000000E+00 -0.50287545989E+02  0.50287545989E+02  0.00000000000E+00 0.  1.
         25    2    1    2    0    0  0.10815569046E+03  0.11780384968E+02  0.13948623462E+03  0.21660436953E+03  0.12499844960E+03 0.  0.
         23    2    1    2    0    0 -0.10815569046E+03 -0.11780384968E+02  0.41329984940E+03  0.43675680646E+03  0.90018396056E+02 0.  0.
          5    1    3    3  502    0  0.16907848955E+02  0.44824563180E+02  0.19062914321E+01  0.48175105268E+02  0.47000000000E+01 0.  1.
         -5    1    4    4    0  503 -0.20117760873E+02 -0.11509952750E+02  0.13251904734E+02  0.27109155168E+02  0.47000000000E+01 0.  1.
          5    1    4    4  503    0 -0.88037929591E+02 -0.27043221786E+00  0.40004794467E+03  0.40964765130E+03  0.47000000000E+01 0. -1.
         -5    1    3    3    0  502  0.91247841508E+02 -0.33044178212E+02  0.13757994318E+03  0.16842926426E+03  0.47000000000E+01 0.  1.
<mgrwt>
<rscale>  0 0.15921494E+03</rscale>
<asrwt>0</asrwt>
<pdfrwt beam="1">  1        2 0.77365459E-02 0.16571374E+03</pdfrwt>
<pdfrwt beam="2">  1       -2 0.92780554E-01 0.16571374E+03</pdfrwt>
<totfact> 0.89014529E+02</totfact>
</mgrwt>
</event>
<event>
 8    1  0.3520338E-004  0.1601697E+03  0.7546771E-02  0.1196887E+00
          2   -1    0    0  501    0  0.00000000000E+00  0.00000000000E+00  0.91537548492E+02  0.91537548492E+02  0.00000000000E+00 0. -1.
         -2   -1    0    0    0  501 -0.00000000000E+00 -0.00000000000E+00 -0.25755432327E+03  0.25755432327E+03  0.00000000000E+00 0.  1.
         25    2    1    2    0    0  0.96578348739E+02 -0.26548697723E+02 -0.14134994268E+03  0.21362147711E+03  0.12498847304E+03 0.  0.
         23    2    1    2    0    0 -0.96578348739E+02  0.26548697723E+02 -0.24666832103E+02  0.13547039465E+03  0.87815513580E+02 0.  0.
          5    1    3    3  502    0  0.58013785352E+02  0.19182800353E+02 -0.13439412444E+01  0.61298248738E+02  0.47000000000E+01 0.  1.
         -5    1    3    3    0  502  0.38564563386E+02 -0.45731498076E+02 -0.14000600143E+03  0.15232322837E+03  0.47000000000E+01 0.  1.
          5    1    4    4  503    0 -0.58790478176E+02  0.41414188231E+02 -0.49694804635E+02  0.87539242165E+02  0.47000000000E+01 0.  1.
         -5    1    4    4    0  503 -0.37787870563E+02 -0.14865490509E+02  0.25027972532E+02  0.47931152488E+02  0.47000000000E+01 0. -1.
<mgrwt>
<rscale>  0 0.15295582E+03</rscale>
<asrwt>0</asrwt>
<pdfrwt beam="1">  1        2 0.14082700E-01 0.16016969E+03</pdfrwt>
<pdfrwt beam="2">  1       -2 0.39623742E-01 0.16016969E+03</pdfrwt>
<totfact> 0.24827912E+03</totfact>
</mgrwt>
</event>
<event>
 8    1  0.3520338E-004  0.1588251E+03  0.7546771E-02  0.1198473E+00
          2   -1    0    0  501    0  0.00000000000E+00  0.00000000000E+00  0.12694349043E+04  0.12694349043E+04  0.00000000000E+00 0. -1.
         -2   -1    0    0    0  501 -0.00000000000E+00 -0.00000000000E+00 -0.18211656841E+02  0.18211656841E+02  0.00000000000E+00 0.  1.
         25    2    1    2    0    0  0.81743276138E+02  0.54024059650E+02  0.86600104862E+03  0.88044490615E+03  0.12499941733E+03 0.  0.
         23    2    1    2    0    0 -0.81743276138E+02 -0.54024059650E+02  0.38522219884E+03  0.40720165500E+03  0.88410876809E+02 0.  0.
          5    1    4    4  502    0 -0.65312165938E+02 -0.78245250509E+02  0.28653789573E+03  0.30416123016E+03  0.47000000000E+01 0. -1.
         -5    1    4    4    0  502 -0.16431110199E+02  0.24221190858E+02  0.98684303117E+02  0.10304042484E+03  0.47000000000E+01 0.  1.
          5    1    3    3  503    0 -0.32819540814E+02  0.19247925764E+02  0.24651407355E+03  0.24947722013E+03  0.47000000000E+01 0.  1.
         -5    1    3    3    0  503  0.11456281695E+03  0.34776133886E+02  0.61948697507E+03  0.63096768601E+03  0.47000000000E+01 0.  1.
<mgrwt>
<rscale>  0 0.15163910E+03</rscale>
<asrwt>0</asrwt>
<pdfrwt beam="1">  1        2 0.19529761E+00 0.15882511E+03</pdfrwt>
<pdfrwt beam="2">  1       -2 0.28017944E-02 0.15882511E+03</pdfrwt>
<totfact> 0.83872754E+03</totfact>
</mgrwt>
</event>
<event>
 8    1  0.3520338E-004  0.1415207E+03  0.7546771E-02  0.1223225E+00
         -3   -1    0    0    0  501 -0.00000000000E+00  0.00000000000E+00  0.25506652210E+03  0.25506652210E+03  0.00000000000E+00 0.  1.
          3   -1    0    0  501    0  0.00000000000E+00 -0.00000000000E+00 -0.11581834800E+03  0.11581834800E+03  0.00000000000E+00 0. -1.
         25    2    1    2    0    0  0.61063027858E+02  0.25999097046E+02  0.20014045929E+03  0.24512100297E+03  0.12499382477E+03 0.  0.
         23    2    1    2    0    0 -0.61063027858E+02 -0.25999097046E+02 -0.60892285188E+02  0.12576386713E+03  0.87772623653E+02 0.  0.
          5    1    3    3  502    0 -0.68289457981E+01  0.63043685161E+02  0.10000054381E+03  0.11850459697E+03  0.47000000000E+01 0. -1.
         -5    1    3    3    0  502  0.67891973656E+02 -0.37044588115E+02  0.10013991548E+03  0.12661640600E+03  0.47000000000E+01 0. -1.
          5    1    4    4  503    0 -0.76199284353E+02  0.17846125061E+01 -0.52576868602E+02  0.92714253973E+02  0.47000000000E+01 0. -1.
         -5    1    4    4    0  503  0.15136256495E+02 -0.27783709552E+02 -0.83154165855E+01  0.33049613162E+02  0.47000000000E+01 0.  1.
<mgrwt>
<rscale>  0 0.13289298E+03</rscale>
<asrwt>0</asrwt>
<pdfrwt beam="1">  1        3 0.17818207E-01 0.14152068E+03</pdfrwt>
<pdfrwt beam="2">  1       -3 0.39241003E-01 0.14152068E+03</pdfrwt>
<totfact> 0.41437366E+02</totfact>
</mgrwt>
</event>
<event>
 8    1  0.3520338E-004  0.1335781E+03  0.7546771E-02  0.1235388E+00
         -2   -1    0    0    0  501 -0.00000000000E+00  0.00000000000E+00  0.24299687884E+02  0.24299687884E+02  0.00000000000E+00 0.  1.
          2   -1    0    0  501    0  0.00000000000E+00 -0.00000000000E+00 -0.75264006581E+03  0.75264006581E+03  0.00000000000E+00 0. -1.
         25    2    1    2    0    0  0.25549402667E+02  0.39580778151E+02 -0.59156588422E+03  0.60645964331E+03  0.12499477439E+03 0.  0.
         23    2    1    2    0    0 -0.25549402667E+02 -0.39580778151E+02 -0.13677449371E+03  0.17048011038E+03  0.90204190203E+02 0.  0.
          5    1    4    4  502    0 -0.43771151769E+02  0.91860986641E+01 -0.38634532809E+02  0.59287564137E+02  0.47000000000E+01 0. -1.
         -5    1    3    3    0  503 -0.40961490699E+02 -0.18127447171E+02 -0.22147459367E+03  0.22600781779E+03  0.47000000000E+01 0.  1.
          5    1    3    3  503    0  0.66510893365E+02  0.57708225322E+02 -0.37009129054E+03  0.38045182552E+03  0.47000000000E+01 0.  1.
         -5    1    4    4    0  502  0.18221749103E+02 -0.48766876815E+02 -0.98139960899E+02  0.11119254624E+03  0.47000000000E+01 0.  1.
<mgrwt>
<rscale>  0 0.12479624E+03</rscale>
<asrwt>0</asrwt>
<pdfrwt beam="1">  1        2 0.11579077E+00 0.13357808E+03</pdfrwt>
<pdfrwt beam="2">  1       -2 0.37384138E-02 0.13357808E+03</pdfrwt>
<totfact> 0.11156103E+04</totfact>
</mgrwt>
</event>
<event>
 8    1  0.3520338E-004  0.1809182E+03  0.7546771E-02  0.1172375E+00
          2   -1    0    0  501    0  0.00000000000E+00  0.00000000000E+00  0.32539903698E+03  0.32539903698E+03  0.00000000000E+00 0. -1.
         -2   -1    0    0    0  501 -0.00000000000E+00 -0.00000000000E+00 -0.93377407304E+02  0.93377407304E+02  0.00000000000E+00 0.  1.
         25    2    1    2    0    0 -0.10130599226E+03 -0.82723107716E+02  0.78307426208E+02  0.19713815825E+03  0.12500153527E+03 0.  0.
         23    2    1    2    0    0  0.10130599226E+03  0.82723107716E+02  0.15371420347E+03  0.22163828603E+03  0.91593978357E+02 0.  0.
          5    1    4    4  502    0  0.10718955872E+03  0.41191023168E+02  0.12881743949E+03  0.17263349792E+03  0.47000000000E+01 0. -1.
         -5    1    3    3    0  503 -0.74520811925E+02 -0.67140279626E+02  0.11247149449E+03  0.15077498344E+03  0.47000000000E+01 0. -1.
          5    1    3    3  503    0 -0.26785180332E+02 -0.15582828091E+02 -0.34164068283E+02  0.46363174809E+02  0.47000000000E+01 0. -1.
         -5    1    4    4    0  502 -0.58835664659E+01  0.41532084548E+02  0.24896763983E+02  0.49004788114E+02  0.47000000000E+01 0.  1.
<mgrwt>
<rscale>  0 0.17535559E+03</rscale>
<asrwt>0</asrwt>
<pdfrwt beam="1">  1        2 0.50061390E-01 0.18091821E+03</pdfrwt>
<pdfrwt beam="2">  1       -2 0.14365755E-01 0.18091821E+03</pdfrwt>
<totfact> 0.36030987E+03</totfact>
</mgrwt>
</event>
<event>
 8    1  0.3520338E-004  0.1453250E+03  0.7546771E-02  0.1215907E+00
          2   -1    0    0  501    0  0.00000000000E+00  0.00000000000E+00  0.62865746451E+03  0.62865746451E+03  0.00000000000E+00 0. -1.
         -2   -1    0    0    0  501 -0.00000000000E+00 -0.00000000000E+00 -0.27810033166E+02  0.27810033166E+02  0.00000000000E+00 0.  1.
         25    2    1    2    0    0 -0.45785733868E+02  0.58299283651E+02  0.35294638308E+03  0.38169426844E+03  0.12499690126E+03 0.  0.
         23    2    1    2    0    0  0.45785733868E+02 -0.58299283651E+02  0.24790104826E+03  0.27477322924E+03  0.92467604486E+02 0.  0.
          5    1    4    4  502    0  0.34533900893E+01 -0.45881125700E+02  0.36923619441E+02  0.59181477434E+02  0.47000000000E+01 0. -1.
         -5    1    4    4    0  502  0.42332343778E+02 -0.12418157951E+02  0.21097742882E+03  0.21559175181E+03  0.47000000000E+01 0.  1.
          5    1    3    3  503    0 -0.36263783175E+02 -0.15642047951E+02  0.25719136772E+03  0.26024839147E+03  0.47000000000E+01 0.  1.
         -5    1    3    3    0  503 -0.95219506931E+01  0.73941331602E+02  0.95755015367E+02  0.12144587697E+03  0.47000000000E+01 0.  1.
<mgrwt>
<rscale>  0 0.13810108E+03</rscale>
<asrwt>0</asrwt>
<pdfrwt beam="1">  1        2 0.96716522E-01 0.14532503E+03</pdfrwt>
<pdfrwt beam="2">  1       -2 0.42784671E-02 0.14532503E+03</pdfrwt>
<totfact> 0.11356465E+04</totfact>
</mgrwt>
</event>
<event>
 8    1  0.3520338E-004  0.2334347E+03  0.7546771E-02  0.1127257E+00
          1   -1    0    0  501    0  0.00000000000E+00  0.00000000000E+00  0.52458236005E+03  0.52458236005E+03  0.00000000000E+00 0. -1.
         -1   -1    0    0    0  501 -0.00000000000E+00 -0.00000000000E+00 -0.98316631678E+02  0.98316631678E+02  0.00000000000E+00 0.  1.
         25    2    1    2    0    0 -0.19539157869E+03  0.26254664968E+02  0.17920095650E+03  0.29428686138E+03  0.12499839005E+03 0.  0.
         23    2    1    2    0    0  0.19539157869E+03 -0.26254664968E+02  0.24706477187E+03  0.32861213035E+03  0.89876327553E+02 0.  0.
          5    1    3    3  502    0 -0.24730235570E+02 -0.26340845441E+02  0.84663352863E+02  0.92170483388E+02  0.47000000000E+01 0.  1.
         -5    1    4    4    0  503  0.95188244360E+02  0.31699775885E+02  0.10507493663E+03  0.14535649268E+03  0.47000000000E+01 0.  1.
          5    1    4    4  503    0  0.10020333433E+03 -0.57954440853E+02  0.14198983524E+03  0.18325563767E+03  0.47000000000E+01 0. -1.
         -5    1    3    3    0  502 -0.17066134312E+03  0.52595510408E+02  0.94537603641E+02  0.20211637800E+03  0.47000000000E+01 0.  1.
<mgrwt>
<rscale>  0 0.22912511E+03</rscale>
<asrwt>0</asrwt>
<pdfrwt beam="1">  1        1 0.80704977E-01 0.23343473E+03</pdfrwt>
<pdfrwt beam="2">  1       -1 0.15125636E-01 0.23343473E+03</pdfrwt>
<totfact> 0.13407334E+03</totfact>
</mgrwt>
</event>
<event>
 8    1  0.3520338E-004  0.1367768E+03  0.7546771E-02  0.1227478E+00
         -1   -1    0    0    0  501 -0.00000000000E+00  0.00000000000E+00  0.36382454615E+03  0.36382454615E+03  0.00000000000E+00 0.  1.
          1   -1    0    0  501    0  0.00000000000E+00 -0.00000000000E+00 -0.42552266728E+02  0.42552266728E+02  0.00000000000E+00 0. -1.
         25    2    1    2    0    0  0.41613453970E+01 -0.55373579434E+02  0.18975280291E+03  0.23391026550E+03  0.12499734396E+03 0.  0.
         23    2    1    2    0    0 -0.41613453970E+01  0.55373579434E+02  0.13151947651E+03  0.17246654738E+03  0.96766663516E+02 0.  0.
          5    1    3    3  502    0 -0.35992755497E+02 -0.14588448560E+02  0.38145068983E+01  0.39305746941E+02  0.47000000000E+01 0.  1.
         -5    1    3    3    0  502  0.40154100894E+02 -0.40785130874E+02  0.18593829601E+03  0.19460451856E+03  0.47000000000E+01 0.  1.
          5    1    4    4  503    0  0.25351035084E+02  0.72076713258E+02  0.99960393413E+02  0.12590432012E+03  0.47000000000E+01 0. -1.
         -5    1    4    4    0  503 -0.29512380481E+02 -0.16703133824E+02  0.31559083098E+02  0.46562227257E+02  0.47000000000E+01 0.  1.
<mgrwt>
<rscale>  0 0.12998518E+03</rscale>
<asrwt>0</asrwt>
<pdfrwt beam="1">  1        1 0.65465028E-02 0.13677677E+03</pdfrwt>
<pdfrwt beam="2">  1       -1 0.55973005E-01 0.13677677E+03</pdfrwt>
<totfact> 0.36546129E+03</totfact>
</mgrwt>
</event>
<event>
 8    1  0.3520338E-004  0.1272204E+03  0.7546771E-02  0.1246095E+00
          1   -1    0    0  501    0  0.00000000000E+00  0.00000000000E+00  0.89722509991E+03  0.89722509991E+03  0.00000000000E+00 0. -1.
         -1   -1    0    0    0  501 -0.00000000000E+00 -0.00000000000E+00 -0.13747745199E+02  0.13747745199E+02  0.00000000000E+00 0.  1.
         25    2    1    2    0    0 -0.29092979299E+01  0.23489533955E+02  0.51991284263E+03  0.53525171015E+03  0.12499922827E+03 0.  0.
         23    2    1    2    0    0  0.29092979299E+01 -0.23489533955E+02  0.36356451208E+03  0.37572113496E+03  0.91798663338E+02 0.  0.
          5    1    3    3  502    0  0.57125040797E+02  0.22375540105E+02  0.18493557881E+03  0.19490303587E+03  0.47000000000E+01 0.  1.
         -5    1    3    3    0  502 -0.60034338727E+02  0.11139938499E+01  0.33497726382E+03  0.34034867428E+03  0.47000000000E+01 0.  1.
          5    1    4    4  503    0 -0.26470280630E+02 -0.25588031892E+02  0.32427689021E+03  0.32639395622E+03  0.47000000000E+01 0. -1.
         -5    1    4    4    0  503  0.29379578560E+02  0.20984979371E+01  0.39287621863E+02  0.49327178731E+02  0.47000000000E+01 0.  1.
<mgrwt>
<rscale>  0 0.11820088E+03</rscale>
<asrwt>0</asrwt>
<pdfrwt beam="1">  1        1 0.13803458E+00 0.12722040E+03</pdfrwt>
<pdfrwt beam="2">  1       -1 0.21150384E-02 0.12722040E+03</pdfrwt>
<totfact> 0.11590187E+04</totfact>
</mgrwt>
</event>
<event>
 8    1  0.3520338E-004  0.1450897E+03  0.7546771E-02  0.1217250E+00
         -1   -1    0    0    0  501 -0.00000000000E+00  0.00000000000E+00  0.63772119031E+03  0.63772119031E+03  0.00000000000E+00 0.  1.
          1   -1    0    0  501    0  0.00000000000E+00 -0.00000000000E+00 -0.27023412690E+02  0.27023412690E+02  0.00000000000E+00 0. -1.
         25    2    1    2    0    0 -0.52424474543E+02 -0.51762968878E+02  0.30169467161E+03  0.33476961852E+03  0.12499316833E+03 0.  0.
         23    2    1    2    0    0  0.52424474543E+02  0.51762968878E+02  0.30900310602E+03  0.32997498448E+03  0.89290763121E+02 0.  0.
          5    1    3    3  502    0 -0.82890706476E+01 -0.21222630471E+02 -0.46495559831E+01  0.23723766715E+02  0.47000000000E+01 0.  1.
         -5    1    4    4    0  503  0.29839935101E+02  0.49070320400E+02  0.29931347146E+03  0.30480971486E+03  0.47000000000E+01 0.  1.
          5    1    4    4  503    0  0.22584539442E+02  0.26926484786E+01  0.96896345525E+01  0.25165269627E+02  0.47000000000E+01 0. -1.
         -5    1    3    3    0  502 -0.44135403896E+02 -0.30540338407E+02  0.30634422759E+03  0.31104585180E+03  0.47000000000E+01 0.  1.
<mgrwt>
<rscale>  0 0.13712539E+03</rscale>
<asrwt>0</asrwt>
<pdfrwt beam="1">  1        1 0.41574486E-02 0.14508971E+03</pdfrwt>
<pdfrwt beam="2">  1       -1 0.98110941E-01 0.14508971E+03</pdfrwt>
<totfact> 0.22029199E+03</totfact>
</mgrwt>
</event>
<event>
 8    1  0.3520338E-004  0.2054159E+03  0.7546771E-02  0.1149119E+00
          1   -1    0    0  501    0  0.00000000000E+00  0.00000000000E+00  0.12392449720E+04  0.12392449720E+04  0.00000000000E+00 0. -1.
         -1   -1    0    0    0  501 -0.00000000000E+00 -0.00000000000E+00 -0.48914456557E+02  0.48914456557E+02  0.00000000000E+00 0.  1.
         25    2    1    2    0    0  0.16298934657E+03  0.22383885692E+01  0.22436108315E+03  0.30419336218E+03  0.12500067394E+03 0.  0.
         23    2    1    2    0    0 -0.16298934657E+03 -0.22383885692E+01  0.96596943233E+03  0.98396606641E+03  0.92313261062E+02 0.  0.
          5    1    4    4  502    0 -0.13118065442E+03  0.36728577856E+02  0.73558494750E+03  0.74810738367E+03  0.47000000000E+01 0.  1.
         -5    1    3    3    0  503  0.37417887084E+02  0.16487816155E+02  0.15414084869E+03  0.15954133506E+03  0.47000000000E+01 0. -1.
          5    1    3    3  503    0  0.12557145949E+03 -0.14249427585E+02  0.70220234452E+02  0.14465202713E+03  0.47000000000E+01 0. -1.
         -5    1    4    4    0  502 -0.31808692155E+02 -0.38966966426E+02  0.23038448483E+03  0.23585868273E+03  0.47000000000E+01 0. -1.
<mgrwt>
<rscale>  0 0.20073682E+03</rscale>
<asrwt>0</asrwt>
<pdfrwt beam="1">  1        1 0.19065305E+00 0.20541593E+03</pdfrwt>
<pdfrwt beam="2">  1       -1 0.75253019E-02 0.20541593E+03</pdfrwt>
<totfact> 0.10211847E+03</totfact>
</mgrwt>
</event>
<event>
 8    1  0.3520338E-004  0.1982060E+03  0.7546771E-02  0.1155516E+00
         -2   -1    0    0    0  501 -0.00000000000E+00  0.00000000000E+00  0.19008781802E+04  0.19008781802E+04  0.00000000000E+00 0. -1.
          2   -1    0    0  501    0  0.00000000000E+00 -0.00000000000E+00 -0.28045434741E+02  0.28045434741E+02  0.00000000000E+00 0.  1.
         25    2    1    2    0    0 -0.13420376809E+03  0.75165872714E+02  0.41276958096E+03  0.45789117435E+03  0.12500016319E+03 0.  0.
         23    2    1    2    0    0  0.13420376809E+03 -0.75165872714E+02  0.14600631645E+04  0.14710324406E+04  0.92148994229E+02 0.  0.
          5    1    3    3  502    0 -0.14073301395E+03  0.40165247121E+02  0.38675318741E+03  0.41354461218E+03  0.47000000000E+01 0.  1.
         -5    1    4    4    0  503  0.20493543786E+02 -0.57880830900E+02  0.39579773040E+03  0.40055974500E+03  0.47000000000E+01 0.  1.
          5    1    4    4  503    0  0.11371022430E+03 -0.17285041814E+02  0.10642654341E+04  0.10704726956E+04  0.47000000000E+01 0. -1.
         -5    1    3    3    0  502  0.65292458617E+01  0.35000625593E+02  0.26016393549E+02  0.44346562175E+02  0.47000000000E+01 0.  1.
<mgrwt>
<rscale>  0 0.19330297E+03</rscale>
<asrwt>0</asrwt>
<pdfrwt beam="1">  1        2 0.43146838E-02 0.19820595E+03</pdfrwt>
<pdfrwt beam="2">  1       -2 0.29244269E+00 0.19820595E+03</pdfrwt>
<totfact> 0.78041157E+01</totfact>
</mgrwt>
</event>
<event>
 8    1  0.3520338E-004  0.2158079E+03  0.7546771E-02  0.1140876E+00
          2   -1    0    0  501    0  0.00000000000E+00  0.00000000000E+00  0.54067707735E+03  0.54067707735E+03  0.00000000000E+00 0. -1.
         -2   -1    0    0    0  501 -0.00000000000E+00 -0.00000000000E+00 -0.78970164587E+02  0.78970164587E+02  0.00000000000E+00 0.  1.
         25    2    1    2    0    0 -0.13253307270E+03 -0.11570077587E+03  0.22322885710E+03  0.31049022610E+03  0.12498549102E+03 0.  0.
         23    2    1    2    0    0  0.13253307270E+03  0.11570077587E+03  0.23847805566E+03  0.30915701584E+03  0.88060164161E+02 0.  0.
          5    1    3    3  502    0 -0.36473332001E+02 -0.11380765776E+03  0.12203346244E+03  0.17087054418E+03  0.47000000000E+01 0. -1.
         -5    1    4    4    0  503  0.77155180107E+02  0.14639294221E+02  0.72107229005E+02  0.10671819539E+03  0.47000000000E+01 0.  1.
          5    1    4    4  503    0  0.55377892595E+02  0.10106148165E+03  0.16637082666E+03  0.20243882045E+03  0.47000000000E+01 0. -1.
         -5    1    3    3    0  502 -0.96059740701E+02 -0.18931181019E+01  0.10119539466E+03  0.13961968192E+03  0.47000000000E+01 0. -1.
<mgrwt>
<rscale>  0 0.21087408E+03</rscale>
<asrwt>0</asrwt>
<pdfrwt beam="1">  1        2 0.83181086E-01 0.21580792E+03</pdfrwt>
<pdfrwt beam="2">  1       -2 0.12149256E-01 0.21580792E+03</pdfrwt>
<totfact> 0.27343682E+03</totfact>
</mgrwt>
</event>
<event>
 8    1  0.3520338E-004  0.1253080E+03  0.7546771E-02  0.1250164E+00
         -1   -1    0    0    0  501 -0.00000000000E+00  0.00000000000E+00  0.28435954134E+03  0.28435954134E+03  0.00000000000E+00 0.  1.
          1   -1    0    0  501    0  0.00000000000E+00 -0.00000000000E+00 -0.41491197724E+02  0.41491197724E+02  0.00000000000E+00 0. -1.
         25    2    1    2    0    0  0.83426038895E+01  0.26613964222E+01  0.15116614115E+03  0.19634993175E+03  0.12500164557E+03 0.  0.
         23    2    1    2    0    0 -0.83426038895E+01 -0.26613964222E+01  0.91702202458E+02  0.12950080731E+03  0.91019135835E+02 0.  0.
          5    1    3    3  502    0 -0.24947500627E+01 -0.32139174777E+02 -0.75453178386E+01  0.33439081245E+02  0.47000000000E+01 0.  1.
         -5    1    4    4    0  503  0.37289949677E+02 -0.18782420019E+02  0.34050824687E+02  0.54082051649E+02  0.47000000000E+01 0.  1.
          5    1    4    4  503    0 -0.45632553566E+02  0.16121023597E+02  0.57651377772E+02  0.75418755663E+02  0.47000000000E+01 0. -1.
         -5    1    3    3    0  502  0.10837353952E+02  0.34800571199E+02  0.15871145899E+03  0.16291085051E+03  0.47000000000E+01 0.  1.
<mgrwt>
<rscale>  0 0.11581570E+03</rscale>
<asrwt>0</asrwt>
<pdfrwt beam="1">  1        1 0.63832614E-02 0.12530799E+03</pdfrwt>
<pdfrwt beam="2">  1       -1 0.43747621E-01 0.12530799E+03</pdfrwt>
<totfact> 0.58883563E+03</totfact>
</mgrwt>
</event>
<event>
 8    1  0.3520338E-004  0.1312916E+03  0.7546771E-02  0.1237338E+00
          1   -1    0    0  501    0  0.00000000000E+00  0.00000000000E+00  0.30509728449E+02  0.30509728449E+02  0.00000000000E+00 0. -1.
         -1   -1    0    0    0  501 -0.00000000000E+00 -0.00000000000E+00 -0.51078302530E+03  0.51078302530E+03  0.00000000000E+00 0.  1.
         25    2    1    2    0    0 -0.30236675880E+02  0.26436281531E+02 -0.17273015820E+03  0.21696359590E+03  0.12499744336E+03 0.  0.
         23    2    1    2    0    0  0.30236675880E+02 -0.26436281531E+02 -0.30754313865E+03  0.32432915785E+03  0.94833996794E+02 0.  0.
          5    1    4    4  502    0 -0.24201335584E+02 -0.86367855320E+01 -0.20602402928E+03  0.20767351624E+03  0.47000000000E+01 0. -1.
         -5    1    3    3    0  503  0.74517742198E+01 -0.28640129956E+02 -0.13870755791E+03  0.14190723239E+03  0.47000000000E+01 0. -1.
          5    1    3    3  503    0 -0.37688450099E+02  0.55076411488E+02 -0.34022600285E+02  0.75056363510E+02  0.47000000000E+01 0. -1.
         -5    1    4    4    0  502  0.54438011464E+02 -0.17799495999E+02 -0.10151910937E+03  0.11665564160E+03  0.47000000000E+01 0.  1.
<mgrwt>
<rscale>  0 0.12355916E+03</rscale>
<asrwt>0</asrwt>
<pdfrwt beam="1">  1        1 0.46938045E-02 0.13129164E+03</pdfrwt>
<pdfrwt beam="2">  1       -1 0.78582001E-01 0.13129164E+03</pdfrwt>
<totfact> 0.29615100E+03</totfact>
</mgrwt>
</event>
<event>
 8    1  0.3520338E-004  0.1814029E+03  0.7546771E-02  0.1171233E+00
         -1   -1    0    0    0  501 -0.00000000000E+00  0.00000000000E+00  0.32085011420E+03  0.32085011420E+03  0.00000000000E+00 0.  1.
          1   -1    0    0  501    0  0.00000000000E+00 -0.00000000000E+00 -0.92326798338E+02  0.92326798338E+02  0.00000000000E+00 0. -1.
         25    2    1    2    0    0  0.11802692380E+02 -0.13093012923E+03  0.11265759651E+03  0.21353865659E+03  0.12500008608E+03 0.  0.
         23    2    1    2    0    0 -0.11802692380E+02  0.13093012923E+03  0.11586571935E+03  0.19963825595E+03  0.95648136587E+02 0.  0.
          5    1    4    4  502    0  0.29431622329E+02  0.61744566496E+01  0.29112527811E+02  0.42118565781E+02  0.47000000000E+01 0. -1.
         -5    1    4    4    0  502 -0.41234314709E+02  0.12475567258E+03  0.86753191541E+02  0.15751969017E+03  0.47000000000E+01 0.  1.
          5    1    3    3  503    0  0.42815411060E+02 -0.13888471288E+03  0.74103295808E+02  0.16320389500E+03  0.47000000000E+01 0. -1.
         -5    1    3    3    0  503 -0.31012718680E+02  0.79545836500E+01  0.38554300706E+02  0.50334761586E+02  0.47000000000E+01 0. -1.
<mgrwt>
<rscale>  0 0.17650074E+03</rscale>
<asrwt>0</asrwt>
<pdfrwt beam="1">  1        1 0.14204123E-01 0.18140293E+03</pdfrwt>
<pdfrwt beam="2">  1       -1 0.49361556E-01 0.18140293E+03</pdfrwt>
<totfact> 0.16631134E+03</totfact>
</mgrwt>
</event>
<event>
 8    1  0.3520338E-004  0.1327749E+03  0.7546771E-02  0.1235894E+00
          1   -1    0    0  501    0  0.00000000000E+00  0.00000000000E+00  0.65197054356E+02  0.65197054356E+02  0.00000000000E+00 0. -1.
         -1   -1    0    0    0  501 -0.00000000000E+00 -0.00000000000E+00 -0.21283426187E+03  0.21283426187E+03  0.00000000000E+00 0.  1.
         25    2    1    2    0    0  0.18037517560E+02  0.40964158826E+02 -0.76772854545E+02  0.15337286109E+03  0.12500299587E+03 0.  0.
         23    2    1    2    0    0 -0.18037517560E+02 -0.40964158826E+02 -0.70864352971E+02  0.12465845514E+03  0.92274371132E+02 0.  0.
          5    1    3    3  502    0  0.42133844777E+02  0.53231405844E+01 -0.96706004388E+02  0.10572482200E+03  0.47000000000E+01 0. -1.
         -5    1    3    3    0  502 -0.24096327217E+02  0.35641018242E+02  0.19933149843E+02  0.47648039092E+02  0.47000000000E+01 0. -1.
          5    1    4    4  503    0 -0.21979388496E+02 -0.68353998110E+02 -0.62665759194E+02  0.95417241376E+02  0.47000000000E+01 0. -1.
         -5    1    4    4    0  503  0.39418709362E+01  0.27389839284E+02 -0.81985937766E+01  0.29241213764E+02  0.47000000000E+01 0.  1.
<mgrwt>
<rscale>  0 0.12447393E+03</rscale>
<asrwt>0</asrwt>
<pdfrwt beam="1">  1        1 0.10030316E-01 0.13277486E+03</pdfrwt>
<pdfrwt beam="2">  1       -1 0.32743732E-01 0.13277486E+03</pdfrwt>
<totfact> 0.53389077E+03</totfact>
</mgrwt>
</event>
<event>
 8    1  0.3520338E-004  0.1273045E+03  0.7546771E-02  0.1245911E+00
         -1   -1    0    0    0  501 -0.00000000000E+00  0.00000000000E+00  0.93660369532E+02  0.93660369532E+02  0.00000000000E+00 0.  1.
          1   -1    0    0  501    0  0.00000000000E+00 -0.00000000000E+00 -0.13221163993E+03  0.13221163993E+03  0.00000000000E+00 0. -1.
         25    2    1    2    0    0  0.16684379625E+02 -0.17414327185E+02 -0.27771135659E+02  0.13029841652E+03  0.12499925622E+03 0.  0.
         23    2    1    2    0    0 -0.16684379625E+02  0.17414327185E+02 -0.10780134735E+02  0.95573592939E+02  0.91850275164E+02 0.  0.
          5    1    3    3  502    0  0.49016233388E+01 -0.62338975881E+02  0.17672390415E+02  0.65150419862E+02  0.47000000000E+01 0.  1.
         -5    1    4    4    0  503 -0.99316514195E+00  0.39086944282E+02  0.27931593796E+02  0.48280840116E+02  0.47000000000E+01 0.  1.
          5    1    4    4  503    0 -0.15691214483E+02 -0.21672617097E+02 -0.38711728531E+02  0.47292752824E+02  0.47000000000E+01 0. -1.
         -5    1    3    3    0  502  0.11782756286E+02  0.44924648696E+02 -0.45443526075E+02  0.65147996656E+02  0.47000000000E+01 0.  1.
<mgrwt>
<rscale>  0 0.11831022E+03</rscale>
<asrwt>0</asrwt>
<pdfrwt beam="1">  1        1 0.20340252E-01 0.12730452E+03</pdfrwt>
<pdfrwt beam="2">  1       -1 0.14409288E-01 0.12730452E+03</pdfrwt>
<totfact> 0.80506820E+03</totfact>
</mgrwt>
</event>
<event>
 8    1  0.3520338E-004  0.1478576E+03  0.7546771E-02  0.1213456E+00
         -1   -1    0    0    0  501 -0.00000000000E+00  0.00000000000E+00  0.48831655664E+03  0.48831655664E+03  0.00000000000E+00 0.  1.
          1   -1    0    0  501    0  0.00000000000E+00 -0.00000000000E+00 -0.38475647539E+02  0.38475647539E+02  0.00000000000E+00 0. -1.
         25    2    1    2    0    0 -0.59712508773E+02  0.51677091809E+02  0.18644199035E+03  0.23795477110E+03  0.12500300717E+03 0.  0.
         23    2    1    2    0    0  0.59712508773E+02 -0.51677091809E+02  0.26339891876E+03  0.28883743309E+03  0.88385331521E+02 0.  0.
          5    1    3    3  502    0 -0.45277891289E+02  0.20028801556E+02  0.19548163481E+03  0.20170870055E+03  0.47000000000E+01 0. -1.
         -5    1    3    3    0  502 -0.14434617484E+02  0.31648290254E+02 -0.90396444601E+01  0.36246070544E+02  0.47000000000E+01 0. -1.
          5    1    4    4  503    0  0.26487824096E+02 -0.60840514391E+02  0.89617290596E+02  0.11160878904E+03  0.47000000000E+01 0. -1.
         -5    1    4    4    0  503  0.33224684677E+02  0.91634225815E+01  0.17378162816E+03  0.17722864405E+03  0.47000000000E+01 0.  1.
<mgrwt>
<rscale>  0 0.13990548E+03</rscale>
<asrwt>0</asrwt>
<pdfrwt beam="1">  1        1 0.59193307E-02 0.14785756E+03</pdfrwt>
<pdfrwt beam="2">  1       -1 0.75125620E-01 0.14785756E+03</pdfrwt>
<totfact> 0.23779563E+03</totfact>
</mgrwt>
</event>
<event>
 8    1  0.3520338E-004  0.1328323E+03  0.7546771E-02  0.1237018E+00
          1   -1    0    0  501    0  0.00000000000E+00  0.00000000000E+00  0.85630580476E+03  0.85630580476E+03  0.00000000000E+00 0. -1.
         -1   -1    0    0    0  501 -0.00000000000E+00 -0.00000000000E+00 -0.15840322436E+02  0.15840322436E+02  0.00000000000E+00 0.  1.
         25    2    1    2    0    0 -0.41549392795E+02  0.17159007754E+02  0.48003536152E+03  0.49807465898E+03  0.12499453597E+03 0.  0.
         23    2    1    2    0    0  0.41549392795E+02 -0.17159007754E+02  0.36043012081E+03  0.37407146822E+03  0.89436054026E+02 0.  0.
          5    1    3    3  502    0 -0.66199071094E+02 -0.20172017473E+02  0.15335941472E+03  0.16831645013E+03  0.47000000000E+01 0. -1.
         -5    1    3    3    0  502  0.24649678299E+02  0.37331025227E+02  0.32667594680E+03  0.32975820884E+03  0.47000000000E+01 0. -1.
          5    1    4    4  503    0  0.40267683987E+01 -0.35123113904E+02  0.28964410146E+03  0.29183153274E+03  0.47000000000E+01 0. -1.
         -5    1    4    4    0  503  0.37522624396E+02  0.17964106150E+02  0.70786019353E+02  0.82239935476E+02  0.47000000000E+01 0.  1.
<mgrwt>
<rscale>  0 0.12376105E+03</rscale>
<asrwt>0</asrwt>
<pdfrwt beam="1">  1        1 0.13173932E+00 0.13283229E+03</pdfrwt>
<pdfrwt beam="2">  1       -1 0.24369734E-02 0.13283229E+03</pdfrwt>
<totfact> 0.10190557E+04</totfact>
</mgrwt>
</event>
<event>
 8    1  0.3520338E-004  0.2471447E+03  0.7546771E-02  0.1117658E+00
         -2   -1    0    0    0  501 -0.00000000000E+00  0.00000000000E+00  0.32929537747E+03  0.32929537747E+03  0.00000000000E+00 0. -1.
          2   -1    0    0  501    0  0.00000000000E+00 -0.00000000000E+00 -0.24308936299E+03  0.24308936299E+03  0.00000000000E+00 0.  1.
         25    2    1    2    0    0  0.19691448551E+03  0.81731713617E+02 -0.10821106892E+03  0.26979647302E+03  0.12500045521E+03 0.  0.
         23    2    1    2    0    0 -0.19691448551E+03 -0.81731713617E+02  0.19441708340E+03  0.30258826744E+03  0.91138738514E+02 0.  0.
          5    1    4    4  502    0 -0.32618884784E+02 -0.47705537837E+02  0.22145353954E+02  0.62067033815E+02  0.47000000000E+01 0. -1.
         -5    1    3    3    0  503  0.16231221367E+02  0.48822025488E+02  0.81903548592E+01  0.52308838952E+02  0.47000000000E+01 0.  1.
          5    1    3    3  503    0  0.18068326414E+03  0.32909688129E+02 -0.11640142378E+03  0.21748763407E+03  0.47000000000E+01 0.  1.
         -5    1    4    4    0  502 -0.16429560073E+03 -0.34026175779E+02  0.17227172945E+03  0.24052123362E+03  0.47000000000E+01 0.  1.
<mgrwt>
<rscale>  0 0.24323303E+03</rscale>
<asrwt>0</asrwt>
<pdfrwt beam="1">  1        2 0.37398363E-01 0.24714470E+03</pdfrwt>
<pdfrwt beam="2">  1       -2 0.50660827E-01 0.24714470E+03</pdfrwt>
<totfact> 0.51632718E+02</totfact>
</mgrwt>
</event>
<event>
 8    1  0.3520338E-004  0.1707104E+03  0.7546771E-02  0.1183354E+00
         -2   -1    0    0    0  501 -0.00000000000E+00  0.00000000000E+00  0.30195098043E+02  0.30195098043E+02  0.00000000000E+00 0.  1.
          2   -1    0    0  501    0  0.00000000000E+00 -0.00000000000E+00 -0.89778769620E+03  0.89778769620E+03  0.00000000000E+00 0. -1.
         25    2    1    2    0    0 -0.64014005242E+02  0.97043580733E+02 -0.34787099711E+03  0.38750001663E+03  0.12500713111E+03 0.  0.
         23    2    1    2    0    0  0.64014005242E+02 -0.97043580733E+02 -0.51972160104E+03  0.54048277761E+03  0.92172885793E+02 0.  0.
          5    1    3    3  502    0 -0.79193008369E+02  0.30125844996E+02 -0.27276265521E+03  0.28565828395E+03  0.47000000000E+01 0. -1.
         -5    1    4    4    0  503  0.25267803603E+02 -0.93138714769E+02 -0.25172732224E+03  0.26963311527E+03  0.47000000000E+01 0.  1.
          5    1    4    4  503    0  0.38746201639E+02 -0.39048659637E+01 -0.26799427880E+03  0.27084966234E+03  0.47000000000E+01 0. -1.
         -5    1    3    3    0  502  0.15179003126E+02  0.66917735737E+02 -0.75108341901E+02  0.10184173268E+03  0.47000000000E+01 0. -1.
<mgrwt>
<rscale>  0 0.16482578E+03</rscale>
<asrwt>0</asrwt>
<pdfrwt beam="1">  1        2 0.13812120E+00 0.17071038E+03</pdfrwt>
<pdfrwt beam="2">  1       -2 0.46453991E-02 0.17071038E+03</pdfrwt>
<totfact> 0.65398813E+03</totfact>
</mgrwt>
</event>
<event>
 8    1  0.3520338E-004  0.1314335E+03  0.7546771E-02  0.1237383E+00
         -1   -1    0    0    0  501 -0.00000000000E+00  0.00000000000E+00  0.31520449435E+03  0.31520449435E+03  0.00000000000E+00 0.  1.
          1   -1    0    0  501    0  0.00000000000E+00 -0.00000000000E+00 -0.43493043980E+02  0.43493043980E+02  0.00000000000E+00 0. -1.
         25    2    1    2    0    0 -0.31459905158E+02 -0.25671360358E+02  0.15949526928E+03  0.20667245585E+03  0.12500407477E+03 0.  0.
         23    2    1    2    0    0  0.31459905158E+02  0.25671360358E+02  0.11221618108E+03  0.15202508248E+03  0.94182854223E+02 0.  0.
          5    1    3    3  502    0 -0.18902627521E+02  0.50369361897E+02  0.71508443656E+02  0.89609873671E+02  0.47000000000E+01 0. -1.
         -5    1    3    3    0  502 -0.12557277637E+02 -0.76040722255E+02  0.87986825624E+02  0.11706258218E+03  0.47000000000E+01 0. -1.
          5    1    4    4  503    0  0.94959447939E+01 -0.25597172169E+02  0.12385539683E+01  0.27731069336E+02  0.47000000000E+01 0. -1.
         -5    1    4    4    0  503  0.21963960364E+02  0.51268532527E+02  0.11097762712E+03  0.12429401314E+03  0.47000000000E+01 0.  1.
<mgrwt>
<rscale>  0 0.12353134E+03</rscale>
<asrwt>0</asrwt>
<pdfrwt beam="1">  1        1 0.66912377E-02 0.13143349E+03</pdfrwt>
<pdfrwt beam="2">  1       -1 0.48492998E-01 0.13143349E+03</pdfrwt>
<totfact> 0.46086101E+03</totfact>
</mgrwt>
</event>
<event>
 8    1  0.3520338E-004  0.1288938E+03  0.7546771E-02  0.1242879E+00
         -1   -1    0    0    0  501 -0.00000000000E+00  0.00000000000E+00  0.27603000315E+03  0.27603000315E+03  0.00000000000E+00 0. -1.
          1   -1    0    0  501    0  0.00000000000E+00 -0.00000000000E+00 -0.55478563615E+02  0.55478563615E+02  0.00000000000E+00 0.  1.
         25    2    1    2    0    0 -0.30338453148E+02 -0.81739715227E+01  0.18993800516E+03  0.22954316354E+03  0.12500553017E+03 0.  0.
         23    2    1    2    0    0  0.30338453148E+02  0.81739715227E+01  0.30613434375E+02  0.10196540323E+03  0.92046322801E+02 0.  0.
          5    1    4    4  502    0 -0.53029389542E+01 -0.36984963532E+02  0.24427837957E+01  0.37736797449E+02  0.47000000000E+01 0. -1.
         -5    1    4    4    0  502  0.35641392102E+02  0.45158935054E+02  0.28170650580E+02  0.64228605779E+02  0.47000000000E+01 0.  1.
          5    1    3    3  503    0  0.32608197401E+02  0.26963473375E+02  0.12625279373E+03  0.13323731219E+03  0.47000000000E+01 0. -1.
         -5    1    3    3    0  503 -0.62946650549E+02 -0.35137444897E+02  0.63685211428E+02  0.96305851348E+02  0.47000000000E+01 0. -1.
<mgrwt>
<rscale>  0 0.12013211E+03</rscale>
<asrwt>0</asrwt>
<pdfrwt beam="1">  1        1 0.85351638E-02 0.12889382E+03</pdfrwt>
<pdfrwt beam="2">  1       -1 0.42466154E-01 0.12889382E+03</pdfrwt>
<totfact> 0.42096771E+03</totfact>
</mgrwt>
</event>
<event>
 8    1  0.3520338E-004  0.1306963E+03  0.7546771E-02  0.1238983E+00
          2   -1    0    0  501    0  0.00000000000E+00  0.00000000000E+00  0.65149589939E+03  0.65149589939E+03  0.00000000000E+00 0.  1.
         -2   -1    0    0    0  501 -0.00000000000E+00 -0.00000000000E+00 -0.20600599453E+02  0.20600599453E+02  0.00000000000E+00 0. -1.
         25    2    1    2    0    0  0.26761225081E+02 -0.27181644828E+02  0.34965484841E+03  0.37328278324E+03  0.12500607292E+03 0.  0.
         23    2    1    2    0    0 -0.26761225081E+02  0.27181644828E+02  0.28124045154E+03  0.29881371561E+03  0.93479623827E+02 0.  0.
          5    1    3    3  502    0 -0.13063087783E+02 -0.69078391498E+02  0.15695111174E+03  0.17204130292E+03  0.47000000000E+01 0.  1.
         -5    1    3    3    0  502  0.39824312864E+02  0.41896746670E+02  0.19270373666E+03  0.20124148032E+03  0.47000000000E+01 0.  1.
          5    1    4    4  503    0  0.29348849303E+02  0.21022365480E+02  0.57834074766E+02  0.68338605560E+02  0.47000000000E+01 0. -1.
         -5    1    4    4    0  503 -0.56110074384E+02  0.61592793473E+01  0.22340637677E+03  0.23047511005E+03  0.47000000000E+01 0.  1.
<mgrwt>
<rscale>  0 0.12252864E+03</rscale>
<asrwt>0</asrwt>
<pdfrwt beam="1">  1        2 0.10023012E+00 0.13069630E+03</pdfrwt>
<pdfrwt beam="2">  1       -2 0.31693235E-02 0.13069630E+03</pdfrwt>
<totfact> 0.16868125E+04</totfact>
</mgrwt>
</event>
<event>
 8    1  0.3520338E-004  0.1514204E+03  0.7546771E-02  0.1208111E+00
          2   -1    0    0  501    0  0.00000000000E+00  0.00000000000E+00  0.11851984568E+03  0.11851984568E+03  0.00000000000E+00 0. -1.
         -2   -1    0    0    0  501 -0.00000000000E+00 -0.00000000000E+00 -0.15976985029E+03  0.15976985029E+03  0.00000000000E+00 0.  1.
         25    2    1    2    0    0 -0.48265369750E+02  0.70526744772E+02 -0.26744271240E+02  0.15376408289E+03  0.12499827798E+03 0.  0.
         23    2    1    2    0    0  0.48265369750E+02 -0.70526744772E+02 -0.14505733374E+02  0.12452561307E+03  0.89401590397E+02 0.  0.
          5    1    4    4  502    0  0.62904106894E+02 -0.19591510922E+02  0.84297436654E+01  0.66587570481E+02  0.47000000000E+01 0. -1.
         -5    1    3    3    0  503  0.17792667046E+02  0.21569703811E+02 -0.58887119608E+02  0.65357585473E+02  0.47000000000E+01 0.  1.
          5    1    3    3  503    0 -0.66058036796E+02  0.48957040962E+02  0.32142848369E+02  0.88406497422E+02  0.47000000000E+01 0.  1.
         -5    1    4    4    0  502 -0.14638737143E+02 -0.50935233850E+02 -0.22935477039E+02  0.57938042593E+02  0.47000000000E+01 0.  1.
<mgrwt>
<rscale>  0 0.14394987E+03</rscale>
<asrwt>0</asrwt>
<pdfrwt beam="1">  1        2 0.18233822E-01 0.15142040E+03</pdfrwt>
<pdfrwt beam="2">  1       -2 0.24579977E-01 0.15142040E+03</pdfrwt>
<totfact> 0.43607641E+03</totfact>
</mgrwt>
</event>
<event>
 8    1  0.3520338E-004  0.1326151E+03  0.7546771E-02  0.1235326E+00
         -1   -1    0    0    0  501 -0.00000000000E+00  0.00000000000E+00  0.61254097882E+03  0.61254097882E+03  0.00000000000E+00 0.  1.
          1   -1    0    0  501    0  0.00000000000E+00 -0.00000000000E+00 -0.23057870864E+02  0.23057870864E+02  0.00000000000E+00 0. -1.
         25    2    1    2    0    0  0.12548696647E+02  0.42492470134E+02  0.35798241931E+03  0.38175670205E+03  0.12499474878E+03 0.  0.
         23    2    1    2    0    0 -0.12548696647E+02 -0.42492470134E+02  0.23150068865E+03  0.25384214763E+03  0.94234745528E+02 0.  0.
          5    1    3    3  502    0 -0.44673835365E+02  0.51951182418E+02  0.13712584133E+03  0.15336317446E+03  0.47000000000E+01 0.  1.
         -5    1    4    4    0  503  0.38124096301E+02 -0.34663170236E+02  0.13269259343E+03  0.14242330020E+03  0.47000000000E+01 0.  1.
          5    1    4    4  503    0 -0.50672792948E+02 -0.78292998980E+01  0.98808095222E+02  0.11141884743E+03  0.47000000000E+01 0. -1.
         -5    1    3    3    0  502  0.57222532012E+02 -0.94587122842E+01  0.22085657798E+03  0.22839352759E+03  0.47000000000E+01 0.  1.
<mgrwt>
<rscale>  0 0.12483598E+03</rscale>
<asrwt>0</asrwt>
<pdfrwt beam="1">  1        1 0.35473652E-02 0.13261511E+03</pdfrwt>
<pdfrwt beam="2">  1       -1 0.94237062E-01 0.13261511E+03</pdfrwt>
<totfact> 0.29776419E+03</totfact>
</mgrwt>
</event>
<event>
 8    1  0.3520338E-004  0.1317887E+03  0.7546771E-02  0.1237848E+00
         -1   -1    0    0    0  501 -0.00000000000E+00  0.00000000000E+00  0.55726878439E+02  0.55726878439E+02  0.00000000000E+00 0.  1.
          1   -1    0    0  501    0  0.00000000000E+00 -0.00000000000E+00 -0.24612583355E+03  0.24612583355E+03  0.00000000000E+00 0. -1.
         25    2    1    2    0    0  0.35786460315E+02 -0.21544376318E+02 -0.89905498813E+02  0.15953449219E+03  0.12499369820E+03 0.  0.
         23    2    1    2    0    0 -0.35786460315E+02  0.21544376318E+02 -0.10049345629E+03  0.14231821979E+03  0.91709923313E+02 0.  0.
          5    1    3    3  502    0  0.69051276793E+02  0.38956568847E+01 -0.11147531236E+02  0.70211198693E+02  0.47000000000E+01 0. -1.
         -5    1    3    3    0  502 -0.33264816478E+02 -0.25440033202E+02 -0.78757967577E+02  0.89323293499E+02  0.47000000000E+01 0. -1.
          5    1    4    4  503    0  0.10136656199E+02  0.31936025952E+02 -0.86642669840E+02  0.93014535367E+02  0.47000000000E+01 0. -1.
         -5    1    4    4    0  503 -0.45923116514E+02 -0.10391649634E+02 -0.13850786454E+02  0.49303684425E+02  0.47000000000E+01 0.  1.
<mgrwt>
<rscale>  0 0.12323852E+03</rscale>
<asrwt>0</asrwt>
<pdfrwt beam="1">  1        1 0.37865513E-01 0.13178868E+03</pdfrwt>
<pdfrwt beam="2">  1       -1 0.85733658E-02 0.13178868E+03</pdfrwt>
<totfact> 0.82439178E+03</totfact>
</mgrwt>
</event>
<event>
 8    1  0.3520338E-004  0.1301795E+03  0.7546771E-02  0.1241134E+00
         -2   -1    0    0    0  501 -0.00000000000E+00  0.00000000000E+00  0.15010788928E+02  0.15010788928E+02  0.00000000000E+00 0.  1.
          2   -1    0    0  501    0  0.00000000000E+00 -0.00000000000E+00 -0.90096341100E+03  0.90096341100E+03  0.00000000000E+00 0. -1.
         25    2    1    2    0    0  0.36345466799E+02 -0.83755114028E+00 -0.41362563971E+03  0.43362756780E+03  0.12500001312E+03 0.  0.
         23    2    1    2    0    0 -0.36345466799E+02  0.83755114028E+00 -0.47232698236E+03  0.48234663213E+03  0.90795378808E+02 0.  0.
          5    1    3    3  502    0 -0.13573949202E+02  0.53316700610E+02 -0.20613205779E+03  0.21339971394E+03  0.47000000000E+01 0. -1.
         -5    1    4    4    0  503  0.39544412425E+01  0.27065057735E+02 -0.49342649985E+02  0.56612207723E+02  0.47000000000E+01 0.  1.
          5    1    4    4  503    0 -0.40299908041E+02 -0.26227506594E+02 -0.42298433238E+03  0.42573442441E+03  0.47000000000E+01 0. -1.
         -5    1    3    3    0  502  0.49919416000E+02 -0.54154251750E+02 -0.20749358192E+03  0.22022785386E+03  0.47000000000E+01 0. -1.
<mgrwt>
<rscale>  0 0.12119797E+03</rscale>
<asrwt>0</asrwt>
<pdfrwt beam="1">  1        2 0.13860978E+00 0.13017948E+03</pdfrwt>
<pdfrwt beam="2">  1       -2 0.23093517E-02 0.13017948E+03</pdfrwt>
<totfact> 0.18012409E+04</totfact>
</mgrwt>
</event>
<event>
 8    1  0.3520338E-004  0.1297562E+03  0.7546771E-02  0.1242016E+00
          2   -1    0    0  501    0  0.00000000000E+00  0.00000000000E+00  0.16856103190E+03  0.16856103190E+03  0.00000000000E+00 0. -1.
         -2   -1    0    0    0  501 -0.00000000000E+00 -0.00000000000E+00 -0.76653311390E+02  0.76653311390E+02  0.00000000000E+00 0.  1.
         25    2    1    2    0    0  0.33047034655E+02 -0.10912266873E+02  0.43979448356E+02  0.13700679811E+03  0.12500194712E+03 0.  0.
         23    2    1    2    0    0 -0.33047034655E+02  0.10912266873E+02  0.47928272152E+02  0.10820754517E+03  0.90556995828E+02 0.  0.
          5    1    3    3  502    0  0.40494495902E+02  0.48482191851E+02  0.43712660187E+02  0.76962418008E+02  0.47000000000E+01 0.  1.
         -5    1    3    3    0  502 -0.74474612468E+01 -0.59394458724E+02  0.26678816826E+00  0.60044380104E+02  0.47000000000E+01 0.  1.
          5    1    4    4  503    0 -0.21874365580E+01  0.21170035231E+02  0.66834633938E+02  0.70298745109E+02  0.47000000000E+01 0. -1.
         -5    1    4    4    0  503 -0.30859598097E+02 -0.10257768358E+02 -0.18906361786E+02  0.37908800065E+02  0.47000000000E+01 0.  1.
<mgrwt>
<rscale>  0 0.12065766E+03</rscale>
<asrwt>0</asrwt>
<pdfrwt beam="1">  1        2 0.25932466E-01 0.12975620E+03</pdfrwt>
<pdfrwt beam="2">  1       -2 0.11792817E-01 0.12975620E+03</pdfrwt>
<totfact> 0.98555722E+03</totfact>
</mgrwt>
</event>
<event>
 8    1  0.3520338E-004  0.1365985E+03  0.7546771E-02  0.1230608E+00
         -1   -1    0    0    0  501 -0.00000000000E+00  0.00000000000E+00  0.52335325755E+02  0.52335325755E+02  0.00000000000E+00 0.  1.
          1   -1    0    0  501    0  0.00000000000E+00 -0.00000000000E+00 -0.34466879914E+03  0.34466879914E+03  0.00000000000E+00 0. -1.
         25    2    1    2    0    0 -0.54275667008E+02  0.95046004998E+01 -0.75457597898E+02  0.15605443161E+03  0.12499180408E+03 0.  0.
         23    2    1    2    0    0  0.54275667008E+02 -0.95046004998E+01 -0.21687587549E+03  0.24094969329E+03  0.89361198876E+02 0.  0.
          5    1    3    3  502    0 -0.31975504823E+02  0.30543961624E+02  0.24933038579E+02  0.50981495792E+02  0.47000000000E+01 0.  1.
         -5    1    3    3    0  502 -0.22300162185E+02 -0.21039361125E+02 -0.10039063648E+03  0.10507293582E+03  0.47000000000E+01 0.  1.
          5    1    4    4  503    0  0.62985670089E+02  0.19261826846E+02 -0.18698004667E+03  0.19829735364E+03  0.47000000000E+01 0. -1.
         -5    1    4    4    0  503 -0.87100030809E+01 -0.28766427346E+02 -0.29895828823E+02  0.42652339642E+02  0.47000000000E+01 0.  1.
<mgrwt>
<rscale>  0 0.12789835E+03</rscale>
<asrwt>0</asrwt>
<pdfrwt beam="1">  1        1 0.53025968E-01 0.13659845E+03</pdfrwt>
<pdfrwt beam="2">  1       -1 0.80515887E-02 0.13659845E+03</pdfrwt>
<totfact> 0.59885663E+03</totfact>
</mgrwt>
</event>
<event>
 8    1  0.3520338E-004  0.1818518E+03  0.7546771E-02  0.1171581E+00
          1   -1    0    0  501    0  0.00000000000E+00  0.00000000000E+00  0.45863116610E+03  0.45863116610E+03  0.00000000000E+00 0. -1.
         -1   -1    0    0    0  501 -0.00000000000E+00 -0.00000000000E+00 -0.64523480103E+02  0.64523480103E+02  0.00000000000E+00 0.  1.
         25    2    1    2    0    0  0.11391885662E+03 -0.66825167301E+02  0.18064997423E+03  0.25632887424E+03  0.12500787856E+03 0.  0.
         23    2    1    2    0    0 -0.11391885662E+03  0.66825167301E+02  0.21345771176E+03  0.26682577196E+03  0.90491375243E+02 0.  0.
          5    1    3    3  502    0  0.58231548826E+02  0.31522255450E+02  0.87270946048E+02  0.10964886635E+03  0.47000000000E+01 0.  1.
         -5    1    4    4    0  503 -0.57034092241E+02  0.19222182683E+02  0.27060264170E+02  0.66156843046E+02  0.47000000000E+01 0.  1.
          5    1    4    4  503    0 -0.56884764376E+02  0.47602984618E+02  0.18639744759E+03  0.20066892891E+03  0.47000000000E+01 0. -1.
         -5    1    3    3    0  502  0.55687307791E+02 -0.98347422751E+02  0.93379028185E+02  0.14668000789E+03  0.47000000000E+01 0.  1.
<mgrwt>
<rscale>  0 0.17615120E+03</rscale>
<asrwt>0</asrwt>
<pdfrwt beam="1">  1        1 0.70558639E-01 0.18185180E+03</pdfrwt>
<pdfrwt beam="2">  1       -1 0.99266895E-02 0.18185180E+03</pdfrwt>
<totfact> 0.30722128E+03</totfact>
</mgrwt>
</event>
<event>
 8    1  0.3520338E-004  0.1821998E+03  0.7546771E-02  0.1171211E+00
          2   -1    0    0  501    0  0.00000000000E+00  0.00000000000E+00  0.12127496727E+04  0.12127496727E+04  0.00000000000E+00 0. -1.
         -2   -1    0    0    0  501 -0.00000000000E+00 -0.00000000000E+00 -0.24699808545E+02  0.24699808545E+02  0.00000000000E+00 0.  1.
         25    2    1    2    0    0  0.84487712340E+02  0.10214200789E+03  0.54429720261E+03  0.57398276837E+03  0.12500244120E+03 0.  0.
         23    2    1    2    0    0 -0.84487712340E+02 -0.10214200789E+03  0.64375266158E+03  0.66346671291E+03  0.90550684891E+02 0.  0.
          5    1    3    3  502    0  0.43963996036E+02  0.45152856972E+02  0.69081611329E+02  0.93626772154E+02  0.47000000000E+01 0. -1.
         -5    1    4    4    0  503 -0.10064000705E+03 -0.74235973819E+02  0.45380820673E+03  0.47074767055E+03  0.47000000000E+01 0.  1.
          5    1    4    4  503    0  0.16152294705E+02 -0.27906034068E+02  0.18994445485E+03  0.19271904236E+03  0.47000000000E+01 0.  1.
         -5    1    3    3    0  502  0.40523716304E+02  0.56989150916E+02  0.47521559128E+03  0.48035599621E+03  0.47000000000E+01 0. -1.
<mgrwt>
<rscale>  0 0.17652308E+03</rscale>
<asrwt>0</asrwt>
<pdfrwt beam="1">  1        2 0.18657683E+00 0.18219982E+03</pdfrwt>
<pdfrwt beam="2">  1       -2 0.37999715E-02 0.18219982E+03</pdfrwt>
<totfact> 0.57653110E+03</totfact>
</mgrwt>
</event>
<event>
 8    1  0.3520338E-004  0.3072644E+03  0.7546771E-02  0.1083105E+00
         -2   -1    0    0    0  501 -0.00000000000E+00  0.00000000000E+00  0.11737346257E+03  0.11737346257E+03  0.00000000000E+00 0.  1.
          2   -1    0    0  501    0  0.00000000000E+00 -0.00000000000E+00 -0.78675822013E+03  0.78675822013E+03  0.00000000000E+00 0. -1.
         25    2    1    2    0    0 -0.49437882060E+02  0.27630172527E+03 -0.39820985370E+03  0.50297366592E+03  0.12499869384E+03 0.  0.
         23    2    1    2    0    0  0.49437882060E+02 -0.27630172527E+03 -0.27117490386E+03  0.40115801678E+03  0.92764100689E+02 0.  0.
          5    1    3    3  502    0  0.13945933502E+02  0.22520049265E+03 -0.29560924010E+03  0.37190948332E+03  0.47000000000E+01 0.  1.
         -5    1    3    3    0  502 -0.63383815562E+02  0.51101232613E+02 -0.10260061360E+03  0.13106418260E+03  0.47000000000E+01 0.  1.
          5    1    4    4  503    0 -0.16340437465E+02 -0.38693491341E+02 -0.74855881514E+02  0.85963301275E+02  0.47000000000E+01 0. -1.
         -5    1    4    4    0  503  0.65778319525E+02 -0.23760823393E+03 -0.19631902235E+03  0.31519471551E+03  0.47000000000E+01 0.  1.
<mgrwt>
<rscale>  0 0.30431132E+03</rscale>
<asrwt>0</asrwt>
<pdfrwt beam="1">  1        2 0.12103973E+00 0.30726442E+03</pdfrwt>
<pdfrwt beam="2">  1       -2 0.18057456E-01 0.30726442E+03</pdfrwt>
<totfact> 0.90911402E+02</totfact>
</mgrwt>
</event>
<event>
 8    1  0.3520338E-004  0.1395435E+03  0.7546771E-02  0.1225424E+00
          2   -1    0    0  501    0  0.00000000000E+00  0.00000000000E+00  0.10416849059E+03  0.10416849059E+03  0.00000000000E+00 0. -1.
         -2   -1    0    0    0  501 -0.00000000000E+00 -0.00000000000E+00 -0.18907468097E+03  0.18907468097E+03  0.00000000000E+00 0.  1.
         25    2    1    2    0    0 -0.34016477378E+02  0.51874178241E+02  0.20632636945E+02  0.14106064702E+03  0.12499739729E+03 0.  0.
         23    2    1    2    0    0  0.34016477378E+02 -0.51874178241E+02 -0.10553882733E+03  0.15218252454E+03  0.90404787481E+02 0.  0.
          5    1    3    3  502    0 -0.50116908863E+02  0.71708017016E+02  0.50781964785E+02  0.10126520728E+03  0.47000000000E+01 0. -1.
         -5    1    4    4    0  503 -0.26042960152E+02 -0.19266170283E+02 -0.64493140826E+02  0.72324797299E+02  0.47000000000E+01 0.  1.
          5    1    4    4  503    0  0.60059437529E+02 -0.32608007958E+02 -0.41045686508E+02  0.79857727242E+02  0.47000000000E+01 0. -1.
         -5    1    3    3    0  502  0.16100431485E+02 -0.19833838775E+02 -0.30149327840E+02  0.39795439736E+02  0.47000000000E+01 0. -1.
<mgrwt>
<rscale>  0 0.13137878E+03</rscale>
<asrwt>0</asrwt>
<pdfrwt beam="1">  1        2 0.16025922E-01 0.13954354E+03</pdfrwt>
<pdfrwt beam="2">  1       -2 0.29088412E-01 0.13954354E+03</pdfrwt>
<totfact> 0.37404663E+03</totfact>
</mgrwt>
</event>
<event>
 8    1  0.3520338E-004  0.1785853E+03  0.7546771E-02  0.1175029E+00
         -2   -1    0    0    0  501 -0.00000000000E+00  0.00000000000E+00  0.19032748786E+02  0.19032748786E+02  0.00000000000E+00 0.  1.
          2   -1    0    0  501    0  0.00000000000E+00 -0.00000000000E+00 -0.16954509022E+04  0.16954509022E+04  0.00000000000E+00 0. -1.
         25    2    1    2    0    0 -0.30121695217E+02  0.12393687664E+03 -0.57680348388E+03  0.60381701242E+03  0.12500023821E+03 0.  0.
         23    2    1    2    0    0  0.30121695217E+02 -0.12393687664E+03 -0.10996146696E+04  0.11106666386E+04  0.90334349308E+02 0.  0.
          5    1    4    4  502    0 -0.18050527239E+02 -0.47214457961E+02 -0.19443922538E+03  0.20095703258E+03  0.47000000000E+01 0. -1.
         -5    1    3    3    0  503  0.45699852197E+02  0.32060066468E+02 -0.24268452882E+03  0.24906664747E+03  0.47000000000E+01 0.  1.
          5    1    3    3  503    0 -0.75821547414E+02  0.91876810171E+02 -0.33411895506E+03  0.35475036495E+03  0.47000000000E+01 0.  1.
         -5    1    4    4    0  502  0.48172222456E+02 -0.76722418678E+02 -0.90517544418E+03  0.90970960603E+03  0.47000000000E+01 0.  1.
<mgrwt>
<rscale>  0 0.17273099E+03</rscale>
<asrwt>0</asrwt>
<pdfrwt beam="1">  1        2 0.26083858E+00 0.17858535E+03</pdfrwt>
<pdfrwt beam="2">  1       -2 0.29281154E-02 0.17858535E+03</pdfrwt>
<totfact> 0.46926889E+03</totfact>
</mgrwt>
</event>
<event>
 8    1  0.3520338E-004  0.1424458E+03  0.7546771E-02  0.1221125E+00
         -2   -1    0    0    0  501 -0.00000000000E+00  0.00000000000E+00  0.15090513673E+02  0.15090513673E+02  0.00000000000E+00 0.  1.
          2   -1    0    0  501    0  0.00000000000E+00 -0.00000000000E+00 -0.12228945070E+04  0.12228945070E+04  0.00000000000E+00 0. -1.
         25    2    1    2    0    0  0.60226023952E+02  0.32195359301E+02 -0.45479918655E+03  0.47658485030E+03  0.12500841703E+03 0.  0.
         23    2    1    2    0    0 -0.60226023952E+02 -0.32195359301E+02 -0.75300480682E+03  0.76140017041E+03  0.89723270619E+02 0.  0.
          5    1    4    4  502    0 -0.48195698028E+02  0.24467189371E+02 -0.33220712786E+03  0.33660828044E+03  0.47000000000E+01 0. -1.
         -5    1    3    3    0  503  0.11800689212E+02 -0.36670010057E+02 -0.27814794641E+03  0.28084215495E+03  0.47000000000E+01 0.  1.
          5    1    3    3  503    0  0.48425334740E+02  0.68865369358E+02 -0.17665124014E+03  0.19574269535E+03  0.47000000000E+01 0.  1.
         -5    1    4    4    0  502 -0.12030325924E+02 -0.56662548672E+02 -0.42079767896E+03  0.42479188997E+03  0.47000000000E+01 0.  1.
<mgrwt>
<rscale>  0 0.13436079E+03</rscale>
<asrwt>0</asrwt>
<pdfrwt beam="1">  1        2 0.18813766E+00 0.14244585E+03</pdfrwt>
<pdfrwt beam="2">  1       -2 0.23216169E-02 0.14244585E+03</pdfrwt>
<totfact> 0.11658520E+04</totfact>
</mgrwt>
</event>
<event>
 8    1  0.3520338E-004  0.1260008E+03  0.7546771E-02  0.1248215E+00
         -3   -1    0    0    0  501 -0.00000000000E+00  0.00000000000E+00  0.29156709182E+03  0.29156709182E+03  0.00000000000E+00 0.  1.
          3   -1    0    0  501    0  0.00000000000E+00 -0.00000000000E+00 -0.61611470310E+02  0.61611470310E+02  0.00000000000E+00 0. -1.
         25    2    1    2    0    0  0.14915439404E+02  0.53149165887E+01  0.22698981623E+03  0.25961619920E+03  0.12500190217E+03 0.  0.
         23    2    1    2    0    0 -0.14915439404E+02 -0.53149165887E+01  0.29658052786E+01  0.93562362924E+02  0.92165075186E+02 0.  0.
          5    1    3    3  502    0  0.39753834217E+02 -0.48204952218E+02  0.83481405908E+02  0.10438064900E+03  0.47000000000E+01 0. -1.
         -5    1    3    3    0  502 -0.24838394814E+02  0.53519868807E+02  0.14350841032E+03  0.15523555020E+03  0.47000000000E+01 0. -1.
          5    1    4    4  503    0  0.28187941633E+02 -0.12206721977E+02  0.29013237206E+02  0.42513786565E+02  0.47000000000E+01 0.  1.
         -5    1    4    4    0  503 -0.43103381037E+02  0.68918053882E+01 -0.26047431927E+02  0.51048576359E+02  0.47000000000E+01 0. -1.
<mgrwt>
<rscale>  0 0.11695011E+03</rscale>
<asrwt>0</asrwt>
<pdfrwt beam="1">  1        3 0.94786879E-02 0.12600077E+03</pdfrwt>
<pdfrwt beam="2">  1       -3 0.44856475E-01 0.12600077E+03</pdfrwt>
<totfact> 0.91244322E+02</totfact>
</mgrwt>
</event>
<event>
 8    1  0.3520338E-004  0.1728785E+03  0.7546771E-02  0.1181169E+00
         -3   -1    0    0    0  501 -0.00000000000E+00  0.00000000000E+00  0.22229782467E+03  0.22229782467E+03  0.00000000000E+00 0.  1.
          3   -1    0    0  501    0  0.00000000000E+00 -0.00000000000E+00 -0.12423476440E+03  0.12423476440E+03  0.00000000000E+00 0. -1.
         25    2    1    2    0    0  0.11942159771E+03  0.24951496227E+01  0.93291834947E+02  0.19644421200E+03  0.12497687062E+03 0.  0.
         23    2    1    2    0    0 -0.11942159771E+03 -0.24951496227E+01  0.47712253211E+01  0.15008837707E+03  0.90752479693E+02 0.  0.
          5    1    4    4  502    0 -0.53780573101E+02 -0.27582633528E+02 -0.34190904924E+02  0.69600716196E+02  0.47000000000E+01 0. -1.
         -5    1    4    4    0  502 -0.65641024609E+02  0.25087483906E+02  0.38962130245E+02  0.80487660878E+02  0.47000000000E+01 0.  1.
          5    1    3    3  503    0  0.13361410770E+03 -0.21556793060E+02  0.98749041649E+02  0.16760336611E+03  0.47000000000E+01 0.  1.
         -5    1    3    3    0  503 -0.14192509994E+02  0.24051942683E+02 -0.54572067025E+01  0.28840845892E+02  0.47000000000E+01 0.  1.
<mgrwt>
<rscale>  0 0.16685435E+03</rscale>
<asrwt>0</asrwt>
<pdfrwt beam="1">  1        3 0.19113041E-01 0.17287846E+03</pdfrwt>
<pdfrwt beam="2">  1       -3 0.34199665E-01 0.17287846E+03</pdfrwt>
<totfact> 0.48914254E+02</totfact>
</mgrwt>
</event>
<event>
 8    1  0.3520338E-004  0.1411172E+03  0.7546771E-02  0.1222501E+00
          2   -1    0    0  501    0  0.00000000000E+00  0.00000000000E+00  0.53494259083E+02  0.53494259083E+02  0.00000000000E+00 0.  1.
         -2   -1    0    0    0  501 -0.00000000000E+00 -0.00000000000E+00 -0.30407223859E+03  0.30407223859E+03  0.00000000000E+00 0. -1.
         25    2    1    2    0    0  0.19990829414E+02  0.62362757778E+02 -0.15698195960E+03  0.21108625672E+03  0.12500130126E+03 0.  0.
         23    2    1    2    0    0 -0.19990829414E+02 -0.62362757778E+02 -0.93596019903E+02  0.14648024095E+03  0.91692416421E+02 0.  0.
          5    1    3    3  502    0 -0.99583172360E+01 -0.30560419712E+02 -0.81041650168E+02  0.87309486295E+02  0.47000000000E+01 0.  1.
         -5    1    3    3    0  502  0.29949146650E+02  0.92923177490E+02 -0.75940309436E+02  0.12377677043E+03  0.47000000000E+01 0.  1.
          5    1    4    4  503    0  0.24012966328E+02 -0.93040096032E+01 -0.67888884742E+02  0.72761100995E+02  0.47000000000E+01 0. -1.
         -5    1    4    4    0  503 -0.44003795742E+02 -0.53058748175E+02 -0.25707135161E+02  0.73719139956E+02  0.47000000000E+01 0.  1.
<mgrwt>
<rscale>  0 0.13339650E+03</rscale>
<asrwt>0</asrwt>
<pdfrwt beam="1">  1        2 0.82298858E-02 0.14111723E+03</pdfrwt>
<pdfrwt beam="2">  1       -2 0.46780346E-01 0.14111723E+03</pdfrwt>
<totfact> 0.34494644E+03</totfact>
</mgrwt>
</event>
<event>
 8    1  0.3520338E-004  0.1848834E+03  0.7546771E-02  0.1168441E+00
          1   -1    0    0  501    0  0.00000000000E+00  0.00000000000E+00  0.18198327539E+04  0.18198327539E+04  0.00000000000E+00 0. -1.
         -1   -1    0    0    0  501 -0.00000000000E+00 -0.00000000000E+00 -0.16798722052E+02  0.16798722052E+02  0.00000000000E+00 0.  1.
         25    2    1    2    0    0 -0.82945618862E+02 -0.10805435191E+03  0.10290271106E+04  0.10455040226E+04  0.12500459276E+03 0.  0.
         23    2    1    2    0    0  0.82945618862E+02  0.10805435191E+03  0.77400692130E+03  0.79112745343E+03  0.90775628322E+02 0.  0.
          5    1    3    3  502    0  0.51104796580E+01 -0.94858088265E+02  0.48866948685E+03  0.49783946337E+03  0.47000000000E+01 0. -1.
         -5    1    3    3    0  502 -0.88056098520E+02 -0.13196263647E+02  0.54035762375E+03  0.54766455920E+03  0.47000000000E+01 0. -1.
          5    1    4    4  503    0  0.10083869349E+02  0.77323660712E+02  0.49368102540E+03  0.49982364666E+03  0.47000000000E+01 0. -1.
         -5    1    4    4    0  503  0.72861749513E+02  0.30730691200E+02  0.28032589590E+03  0.29130380676E+03  0.47000000000E+01 0.  1.
<mgrwt>
<rscale>  0 0.17934201E+03</rscale>
<asrwt>0</asrwt>
<pdfrwt beam="1">  1        1 0.27997411E+00 0.18488339E+03</pdfrwt>
<pdfrwt beam="2">  1       -1 0.25844202E-02 0.18488339E+03</pdfrwt>
<totfact> 0.20793599E+03</totfact>
</mgrwt>
</event>
<event>
 8    1  0.3520338E-004  0.1491160E+03  0.7546771E-02  0.1211703E+00
         -3   -1    0    0    0  501 -0.00000000000E+00  0.00000000000E+00  0.12955598313E+03  0.12955598313E+03  0.00000000000E+00 0.  1.
          3   -1    0    0  501    0  0.00000000000E+00 -0.00000000000E+00 -0.13972305450E+03  0.13972305450E+03  0.00000000000E+00 0. -1.
         25    2    1    2    0    0 -0.25900387792E+02  0.77066752247E+02 -0.77619934592E+01  0.14931786066E+03  0.12500184230E+03 0.  0.
         23    2    1    2    0    0  0.25900387792E+02 -0.77066752247E+02 -0.24050779100E+01  0.11996117698E+03  0.88174742375E+02 0.  0.
          5    1    3    3  502    0 -0.35677456874E+01 -0.31893241371E+02 -0.18730626504E+02  0.37454425956E+02  0.47000000000E+01 0.  1.
         -5    1    3    3    0  502 -0.22332642104E+02  0.10895999362E+03  0.10968633045E+02  0.11186343470E+03  0.47000000000E+01 0.  1.
          5    1    4    4  503    0  0.79626590978E+01 -0.24308711039E+02 -0.43418231080E+02  0.50611759132E+02  0.47000000000E+01 0. -1.
         -5    1    4    4    0  503  0.17937728694E+02 -0.52758041208E+02  0.41013153170E+02  0.69349417847E+02  0.47000000000E+01 0.  1.
<mgrwt>
<rscale>  0 0.14121521E+03</rscale>
<asrwt>0</asrwt>
<pdfrwt beam="1">  1        3 0.21495854E-01 0.14911598E+03</pdfrwt>
<pdfrwt beam="2">  1       -3 0.19931690E-01 0.14911598E+03</pdfrwt>
<totfact> 0.10422063E+03</totfact>
</mgrwt>
</event>
<event>
 8    1  0.3520338E-004  0.1488588E+03  0.7546771E-02  0.1211067E+00
          2   -1    0    0  501    0  0.00000000000E+00  0.00000000000E+00  0.32693707396E+03  0.32693707396E+03  0.00000000000E+00 0. -1.
         -2   -1    0    0    0  501 -0.00000000000E+00 -0.00000000000E+00 -0.66542634996E+02  0.66542634996E+02  0.00000000000E+00 0.  1.
         25    2    1    2    0    0 -0.22068789479E+02  0.77760355110E+02  0.21831030921E+03  0.26423158651E+03  0.12500094362E+03 0.  0.
         23    2    1    2    0    0  0.22068789479E+02 -0.77760355110E+02  0.42084129761E+02  0.12924812245E+03  0.91653144432E+02 0.  0.
          5    1    3    3  502    0  0.27099374428E+02  0.43451895237E+02  0.19168357192E+03  0.19846189821E+03  0.47000000000E+01 0. -1.
         -5    1    3    3    0  502 -0.49168163907E+02  0.34308459872E+02  0.26626737283E+02  0.65769688301E+02  0.47000000000E+01 0. -1.
          5    1    4    4  503    0 -0.20591536212E+02 -0.27668693484E+02  0.51967721188E+02  0.62548397327E+02  0.47000000000E+01 0. -1.
         -5    1    4    4    0  503  0.42660325691E+02 -0.50091661626E+02 -0.98835914270E+01  0.66699725127E+02  0.47000000000E+01 0.  1.
<mgrwt>
<rscale>  0 0.14169447E+03</rscale>
<asrwt>0</asrwt>
<pdfrwt beam="1">  1        2 0.50298010E-01 0.14885879E+03</pdfrwt>
<pdfrwt beam="2">  1       -2 0.10237329E-01 0.14885879E+03</pdfrwt>
<totfact> 0.61163471E+03</totfact>
</mgrwt>
</event>
<event>
 8    1  0.3520338E-004  0.1394555E+03  0.7546771E-02  0.1225535E+00
         -2   -1    0    0    0  501 -0.00000000000E+00  0.00000000000E+00  0.33202143528E+02  0.33202143528E+02  0.00000000000E+00 0.  1.
          2   -1    0    0  501    0  0.00000000000E+00 -0.00000000000E+00 -0.48073884445E+03  0.48073884445E+03  0.00000000000E+00 0. -1.
         25    2    1    2    0    0  0.31136112794E+02 -0.53414208357E+02 -0.20675206362E+03  0.24938773661E+03  0.12500116875E+03 0.  0.
         23    2    1    2    0    0 -0.31136112794E+02  0.53414208357E+02 -0.24078463731E+03  0.26455325137E+03  0.90491138086E+02 0.  0.
          5    1    4    4  502    0 -0.53689270016E+01  0.52957669682E+02 -0.23016442615E+03  0.23628604110E+03  0.47000000000E+01 0. -1.
         -5    1    4    4    0  502 -0.25767185793E+02  0.45653867505E+00 -0.10620211160E+02  0.28267210268E+02  0.47000000000E+01 0.  1.
          5    1    3    3  503    0  0.60743195858E+02 -0.41378017161E+02 -0.20409318400E+03  0.21697463885E+03  0.47000000000E+01 0.  1.
         -5    1    3    3    0  503 -0.29607083064E+02 -0.12036191196E+02 -0.26588796175E+01  0.32413097767E+02  0.47000000000E+01 0.  1.
<mgrwt>
<rscale>  0 0.13130307E+03</rscale>
<asrwt>0</asrwt>
<pdfrwt beam="1">  1        2 0.73959814E-01 0.13945547E+03</pdfrwt>
<pdfrwt beam="2">  1       -2 0.51080226E-02 0.13945547E+03</pdfrwt>
<totfact> 0.11726788E+04</totfact>
</mgrwt>
</event>
<event>
 8    1  0.3520338E-004  0.1313657E+03  0.7546771E-02  0.1238545E+00
          2   -1    0    0  501    0  0.00000000000E+00  0.00000000000E+00  0.16986757501E+03  0.16986757501E+03  0.00000000000E+00 0. -1.
         -2   -1    0    0    0  501 -0.00000000000E+00 -0.00000000000E+00 -0.79230257474E+02  0.79230257474E+02  0.00000000000E+00 0.  1.
         25    2    1    2    0    0 -0.18856685526E+02 -0.35741880632E+02  0.58048711526E+02  0.14361967187E+03  0.12499560240E+03 0.  0.
         23    2    1    2    0    0  0.18856685526E+02  0.35741880632E+02  0.32588606008E+02  0.10547816061E+03  0.91818127319E+02 0.  0.
          5    1    4    4  502    0  0.39008863608E+02  0.49025220502E+02  0.45625624471E+02  0.77646321830E+02  0.47000000000E+01 0. -1.
         -5    1    4    4    0  502 -0.20152178082E+02 -0.13283339871E+02 -0.13037018463E+02  0.27831838782E+02  0.47000000000E+01 0.  1.
          5    1    3    3  503    0  0.32707523706E+00 -0.72101428392E+02 -0.95560731131E-01  0.72255256461E+02  0.47000000000E+01 0.  1.
         -5    1    3    3    0  503 -0.19183760763E+02  0.36359547761E+02  0.58144272257E+02  0.71364415409E+02  0.47000000000E+01 0.  1.
<mgrwt>
<rscale>  0 0.12280213E+03</rscale>
<asrwt>0</asrwt>
<pdfrwt beam="1">  1        2 0.26133473E-01 0.13136574E+03</pdfrwt>
<pdfrwt beam="2">  1       -2 0.12189270E-01 0.13136574E+03</pdfrwt>
<totfact> 0.92795882E+03</totfact>
</mgrwt>
</event>
<event>
 8    1  0.3520338E-004  0.1436754E+03  0.7546771E-02  0.1218459E+00
         -3   -1    0    0    0  501 -0.00000000000E+00  0.00000000000E+00  0.59631479901E+02  0.59631479901E+02  0.00000000000E+00 0.  1.
          3   -1    0    0  501    0  0.00000000000E+00 -0.00000000000E+00 -0.29469459038E+03  0.29469459038E+03  0.00000000000E+00 0. -1.
         25    2    1    2    0    0 -0.92603079691E+01 -0.70237184863E+02 -0.94615463250E+02  0.17203113266E+03  0.12499443699E+03 0.  0.
         23    2    1    2    0    0  0.92603079691E+01  0.70237184863E+02 -0.14044764723E+03  0.18229493761E+03  0.92124303130E+02 0.  0.
          5    1    3    3  502    0  0.36818969208E+02  0.16392878108E+01  0.84602285013E+01  0.38104976372E+02  0.47000000000E+01 0.  1.
         -5    1    4    4    0  503 -0.31987988656E+02  0.21082716890E+02 -0.15190874876E+02  0.41479694420E+02  0.47000000000E+01 0.  1.
          5    1    4    4  503    0  0.41248296625E+02  0.49154467973E+02 -0.12525677235E+03  0.14081524319E+03  0.47000000000E+01 0. -1.
         -5    1    3    3    0  502 -0.46079277177E+02 -0.71876472674E+02 -0.10307569175E+03  0.13392615629E+03  0.47000000000E+01 0.  1.
<mgrwt>
<rscale>  0 0.13625495E+03</rscale>
<asrwt>0</asrwt>
<pdfrwt beam="1">  1        3 0.45337631E-01 0.14367541E+03</pdfrwt>
<pdfrwt beam="2">  1       -3 0.91740735E-02 0.14367541E+03</pdfrwt>
<totfact> 0.96288352E+02</totfact>
</mgrwt>
</event>
<event>
 8    1  0.3520338E-004  0.1306360E+03  0.7546771E-02  0.1240862E+00
          3   -1    0    0  501    0  0.00000000000E+00  0.00000000000E+00  0.19155813521E+03  0.19155813521E+03  0.00000000000E+00 0. -1.
         -3   -1    0    0    0  501 -0.00000000000E+00 -0.00000000000E+00 -0.11019839034E+03  0.11019839034E+03  0.00000000000E+00 0.  1.
         25    2    1    2    0    0  0.35105405009E+01  0.37774583667E+02 -0.48613216507E+02  0.13938801569E+03  0.12500612399E+03 0.  0.
         23    2    1    2    0    0 -0.35105405009E+01 -0.37774583667E+02  0.12997296138E+03  0.16236850985E+03  0.89617627936E+02 0.  0.
          5    1    4    4  502    0  0.20737555000E+02 -0.58101262008E+02  0.10464734585E+03  0.12156874528E+03  0.47000000000E+01 0. -1.
         -5    1    3    3    0  503 -0.59932262215E+02  0.14749679759E+02 -0.14303535216E+02  0.63530388216E+02  0.47000000000E+01 0. -1.
          5    1    3    3  503    0  0.63442802716E+02  0.23024903909E+02 -0.34309681291E+02  0.75857627479E+02  0.47000000000E+01 0. -1.
         -5    1    4    4    0  502 -0.24248095501E+02  0.20326678340E+02  0.25325615525E+02  0.40799764576E+02  0.47000000000E+01 0.  1.
<mgrwt>
<rscale>  0 0.12136521E+03</rscale>
<asrwt>0</asrwt>
<pdfrwt beam="1">  1        3 0.29470482E-01 0.13063604E+03</pdfrwt>
<pdfrwt beam="2">  1       -3 0.16953599E-01 0.13063604E+03</pdfrwt>
<totfact> 0.76549581E+02</totfact>
</mgrwt>
</event>
<event>
 8    1  0.3520338E-004  0.1346112E+03  0.7546771E-02  0.1233272E+00
         -1   -1    0    0    0  501 -0.00000000000E+00  0.00000000000E+00  0.71876509648E+02  0.71876509648E+02  0.00000000000E+00 0.  1.
          1   -1    0    0  501    0  0.00000000000E+00 -0.00000000000E+00 -0.20393116792E+03  0.20393116792E+03  0.00000000000E+00 0. -1.
         25    2    1    2    0    0  0.47962637268E+02 -0.13975922907E+02 -0.50536483820E+02  0.14378496169E+03  0.12499775205E+03 0.  0.
         23    2    1    2    0    0 -0.47962637268E+02  0.13975922907E+02 -0.81518174447E+02  0.13202271587E+03  0.91044185675E+02 0.  0.
          5    1    3    3  502    0 -0.13461415162E+02 -0.49703766152E+02  0.70680699687E+01  0.52189287032E+02  0.47000000000E+01 0. -1.
         -5    1    3    3    0  502  0.61424052430E+02  0.35727843245E+02 -0.57604553788E+02  0.91595674663E+02  0.47000000000E+01 0. -1.
          5    1    4    4  503    0 -0.25565549643E+02  0.36022796267E+02 -0.88916681729E+02  0.99395701462E+02  0.47000000000E+01 0. -1.
         -5    1    4    4    0  503 -0.22397087626E+02 -0.22046873360E+02  0.73985072820E+01  0.32627014406E+02  0.47000000000E+01 0.  1.
<mgrwt>
<rscale>  0 0.12615729E+03</rscale>
<asrwt>0</asrwt>
<pdfrwt beam="1">  1        1 0.31374025E-01 0.13461121E+03</pdfrwt>
<pdfrwt beam="2">  1       -1 0.11057925E-01 0.13461121E+03</pdfrwt>
<totfact> 0.70720654E+03</totfact>
</mgrwt>
</event>
<event>
 8    1  0.3520338E-004  0.1726472E+03  0.7546771E-02  0.1181667E+00
         -2   -1    0    0    0  501 -0.00000000000E+00  0.00000000000E+00  0.23512313329E+02  0.23512313329E+02  0.00000000000E+00 0.  1.
          2   -1    0    0  501    0  0.00000000000E+00 -0.00000000000E+00 -0.11004614004E+04  0.11004614004E+04  0.00000000000E+00 0. -1.
         25    2    1    2    0    0 -0.75174079549E+01 -0.11884395761E+03 -0.56273550068E+03  0.58862408281E+03  0.12500667766E+03 0.  0.
         23    2    1    2    0    0  0.75174079549E+01  0.11884395761E+03 -0.51421358637E+03  0.53534963089E+03  0.89460702018E+02 0.  0.
          5    1    3    3  502    0  0.56034769924E+02 -0.48741406690E+02 -0.30741248752E+03  0.31629123865E+03  0.47000000000E+01 0.  1.
         -5    1    4    4    0  503  0.32063806078E+02  0.81792783638E+02 -0.20726445317E+03  0.22516391954E+03  0.47000000000E+01 0.  1.
          5    1    4    4  503    0 -0.24546398123E+02  0.37051173976E+02 -0.30694913321E+03  0.31018571136E+03  0.47000000000E+01 0. -1.
         -5    1    3    3    0  502 -0.63552177879E+02 -0.70102550925E+02 -0.25532301316E+03  0.27233284416E+03  0.47000000000E+01 0.  1.
<mgrwt>
<rscale>  0 0.16638867E+03</rscale>
<asrwt>0</asrwt>
<pdfrwt beam="1">  1        2 0.16930175E+00 0.17264723E+03</pdfrwt>
<pdfrwt beam="2">  1       -2 0.36172791E-02 0.17264723E+03</pdfrwt>
<totfact> 0.71728924E+03</totfact>
</mgrwt>
</event>
<event>
 8    1  0.3520338E-004  0.1269831E+03  0.7546771E-02  0.1247056E+00
         -1   -1    0    0    0  501 -0.00000000000E+00  0.00000000000E+00  0.22740869689E+03  0.22740869689E+03  0.00000000000E+00 0.  1.
          1   -1    0    0  501    0  0.00000000000E+00 -0.00000000000E+00 -0.54387534663E+02  0.54387534663E+02  0.00000000000E+00 0. -1.
         25    2    1    2    0    0  0.18412757555E+02 -0.12663987477E+02  0.11773306400E+03  0.17316401734E+03  0.12500118528E+03 0.  0.
         23    2    1    2    0    0 -0.18412757555E+02  0.12663987477E+02  0.55288098222E+02  0.10863221422E+03  0.90800759583E+02 0.  0.
          5    1    4    4  502    0 -0.84085383235E+01 -0.28902524104E+02 -0.85627214016E+01  0.31646004710E+02  0.47000000000E+01 0. -1.
         -5    1    4    4    0  502 -0.10004219231E+02  0.41566511581E+02  0.63850819623E+02  0.76986209505E+02  0.47000000000E+01 0.  1.
          5    1    3    3  503    0  0.27324722399E+02  0.32891269554E+02 -0.36011630166E+01  0.43168674315E+02  0.47000000000E+01 0.  1.
         -5    1    3    3    0  503 -0.89119648443E+01 -0.45555257031E+02  0.12133422702E+03  0.12999534302E+03  0.47000000000E+01 0.  1.
<mgrwt>
<rscale>  0 0.11763168E+03</rscale>
<asrwt>0</asrwt>
<pdfrwt beam="1">  1        1 0.83673132E-02 0.12698308E+03</pdfrwt>
<pdfrwt beam="2">  1       -1 0.34985953E-01 0.12698308E+03</pdfrwt>
<totfact> 0.60494290E+03</totfact>
</mgrwt>
</event>
<event>
 8    1  0.3520338E-004  0.1275829E+03  0.7546771E-02  0.1246282E+00
          4   -1    0    0  501    0  0.00000000000E+00  0.00000000000E+00  0.98869226752E+02  0.98869226752E+02  0.00000000000E+00 0.  1.
         -4   -1    0    0    0  501 -0.00000000000E+00 -0.00000000000E+00 -0.15992866958E+03  0.15992866958E+03  0.00000000000E+00 0. -1.
         25    2    1    2    0    0  0.24454654890E+02 -0.73508527298E+01  0.26826778502E+02  0.13037284004E+03  0.12500134477E+03 0.  0.
         23    2    1    2    0    0 -0.24454654890E+02  0.73508527298E+01 -0.87886221327E+02  0.12842505629E+03  0.90094073071E+02 0.  0.
          5    1    4    4  502    0  0.14541329958E+02  0.23144775804E+02 -0.80894506444E+02  0.85516911174E+02  0.47000000000E+01 0. -1.
         -5    1    4    4    0  502 -0.38995984848E+02 -0.15793923074E+02 -0.69917148835E+01  0.42908145117E+02  0.47000000000E+01 0.  1.
          5    1    3    3  503    0  0.39390409164E+02 -0.59653675033E+02  0.24548654946E+02  0.75729067991E+02  0.47000000000E+01 0.  1.
         -5    1    3    3    0  503 -0.14935754274E+02  0.52302822303E+02  0.22781235560E+01  0.54643772047E+02  0.47000000000E+01 0.  1.
<mgrwt>
<rscale>  0 0.11809002E+03</rscale>
<asrwt>0</asrwt>
<pdfrwt beam="1">  1        4 0.15210650E-01 0.12758292E+03</pdfrwt>
<pdfrwt beam="2">  1       -4 0.24604411E-01 0.12758292E+03</pdfrwt>
<totfact> 0.92521081E+02</totfact>
</mgrwt>
</event>
<event>
 8    1  0.3520338E-004  0.1615366E+03  0.7546771E-02  0.1194344E+00
         -1   -1    0    0    0  501 -0.00000000000E+00  0.00000000000E+00  0.18278000224E+02  0.18278000224E+02  0.00000000000E+00 0.  1.
          1   -1    0    0  501    0  0.00000000000E+00 -0.00000000000E+00 -0.12247729464E+04  0.12247729464E+04  0.00000000000E+00 0. -1.
         25    2    1    2    0    0  0.19600365981E+02  0.10042853689E+03 -0.68487807466E+03  0.70367041889E+03  0.12499606354E+03 0.  0.
         23    2    1    2    0    0 -0.19600365981E+02 -0.10042853689E+03 -0.52161687156E+03  0.53938052778E+03  0.91526650132E+02 0.  0.
          5    1    3    3  502    0  0.66581090238E+02  0.34805754102E+02 -0.24074022056E+03  0.25223486256E+03  0.47000000000E+01 0. -1.
         -5    1    3    3    0  502 -0.46980724258E+02  0.65622782785E+02 -0.44413785411E+03  0.45143555633E+03  0.47000000000E+01 0. -1.
          5    1    4    4  503    0 -0.54312421443E+01 -0.40340745776E+02 -0.40745474426E+03  0.40950986897E+03  0.47000000000E+01 0. -1.
         -5    1    4    4    0  503 -0.14169123836E+02 -0.60087791111E+02 -0.11416212730E+03  0.12987065881E+03  0.47000000000E+01 0.  1.
<mgrwt>
<rscale>  0 0.15509903E+03</rscale>
<asrwt>0</asrwt>
<pdfrwt beam="1">  1        1 0.18842664E+00 0.16153663E+03</pdfrwt>
<pdfrwt beam="2">  1       -1 0.28119995E-02 0.16153663E+03</pdfrwt>
<totfact> 0.45074442E+03</totfact>
</mgrwt>
</event>
<event>
 8    1  0.3520338E-004  0.1496091E+03  0.7546771E-02  0.1210438E+00
          1   -1    0    0  501    0  0.00000000000E+00  0.00000000000E+00  0.24002538893E+03  0.24002538893E+03  0.00000000000E+00 0. -1.
         -1   -1    0    0    0  501 -0.00000000000E+00 -0.00000000000E+00 -0.79368351430E+02  0.79368351430E+02  0.00000000000E+00 0.  1.
         25    2    1    2    0    0  0.56502652168E+02 -0.59714020077E+02  0.11660972787E+03  0.18968579126E+03  0.12499822749E+03 0.  0.
         23    2    1    2    0    0 -0.56502652168E+02  0.59714020077E+02  0.44047309631E+02  0.12970794910E+03  0.90142513164E+02 0.  0.
          5    1    3    3  502    0  0.45764178444E+02 -0.89564185033E+02  0.43176613524E+02  0.10955552576E+03  0.47000000000E+01 0. -1.
         -5    1    3    3    0  502  0.10738473724E+02  0.29850164956E+02  0.73433114348E+02  0.80130265497E+02  0.47000000000E+01 0. -1.
          5    1    4    4  503    0 -0.29833378225E+02 -0.18164505510E+02  0.29547052370E+02  0.45990194830E+02  0.47000000000E+01 0. -1.
         -5    1    4    4    0  503 -0.26669273943E+02  0.77878525587E+02  0.14500257261E+02  0.83717754275E+02  0.47000000000E+01 0.  1.
<mgrwt>
<rscale>  0 0.14217012E+03</rscale>
<asrwt>0</asrwt>
<pdfrwt beam="1">  1        1 0.36926983E-01 0.14960906E+03</pdfrwt>
<pdfrwt beam="2">  1       -1 0.12210516E-01 0.14960906E+03</pdfrwt>
<totfact> 0.49912608E+03</totfact>
</mgrwt>
</event>
<event>
 8    1  0.3520338E-004  0.2033689E+03  0.7546771E-02  0.1150792E+00
         -3   -1    0    0    0  501 -0.00000000000E+00  0.00000000000E+00  0.17604754319E+03  0.17604754319E+03  0.00000000000E+00 0.  1.
          3   -1    0    0  501    0  0.00000000000E+00 -0.00000000000E+00 -0.24788516082E+03  0.24788516082E+03  0.00000000000E+00 0. -1.
         25    2    1    2    0    0 -0.99438024519E+02  0.12586560202E+03  0.40037749419E+02  0.20727256979E+03  0.12501530432E+03 0.  0.
         23    2    1    2    0    0  0.99438024519E+02 -0.12586560202E+03 -0.11187536705E+03  0.21666013422E+03  0.93249372743E+02 0.  0.
          5    1    4    4  502    0  0.53656087930E+02 -0.13379559976E+02 -0.67241832946E+02  0.87186825238E+02  0.47000000000E+01 0. -1.
         -5    1    4    4    0  502  0.45781936589E+02 -0.11248604205E+03 -0.44633534100E+02  0.12947330899E+03  0.47000000000E+01 0.  1.
          5    1    3    3  503    0 -0.69769881631E+02 -0.39834958138E+01  0.11626941835E+02  0.70999861959E+02  0.47000000000E+01 0.  1.
         -5    1    3    3    0  503 -0.29668142888E+02  0.12984909784E+03  0.28410807584E+02  0.13627270783E+03  0.47000000000E+01 0.  1.
<mgrwt>
<rscale>  0 0.19875745E+03</rscale>
<asrwt>0</asrwt>
<pdfrwt beam="1">  1        3 0.38136179E-01 0.20336887E+03</pdfrwt>
<pdfrwt beam="2">  1       -3 0.27084237E-01 0.20336887E+03</pdfrwt>
<totfact> 0.21623333E+02</totfact>
</mgrwt>
</event>
<event>
 8    1  0.3520338E-004  0.1330478E+03  0.7546771E-02  0.1236058E+00
          1   -1    0    0  501    0  0.00000000000E+00  0.00000000000E+00  0.13782161506E+03  0.13782161506E+03  0.00000000000E+00 0. -1.
         -1   -1    0    0    0  501 -0.00000000000E+00 -0.00000000000E+00 -0.10003097261E+03  0.10003097261E+03  0.00000000000E+00 0.  1.
         25    2    1    2    0    0  0.10074512089E+02 -0.44445392761E+02  0.26273265782E+02  0.13561707570E+03  0.12499927198E+03 0.  0.
         23    2    1    2    0    0 -0.10074512089E+02  0.44445392761E+02  0.11517376668E+02  0.10223551197E+03  0.90788552202E+02 0.  0.
          5    1    4    4  502    0  0.20678908888E+02 -0.17352639265E+02 -0.10926162287E+02  0.29499192948E+02  0.47000000000E+01 0. -1.
         -5    1    3    3    0  503  0.28257123458E+02 -0.59166706455E+02 -0.31659098591E+02  0.72962680203E+02  0.47000000000E+01 0.  1.
          5    1    3    3  503    0 -0.18182611369E+02  0.14721313694E+02  0.57932364374E+02  0.62654395496E+02  0.47000000000E+01 0.  1.
         -5    1    4    4    0  502 -0.30753420977E+02  0.61798032026E+02  0.22443538955E+02  0.72736319022E+02  0.47000000000E+01 0.  1.
<mgrwt>
<rscale>  0 0.12436917E+03</rscale>
<asrwt>0</asrwt>
<pdfrwt beam="1">  1        1 0.21203325E-01 0.13304776E+03</pdfrwt>
<pdfrwt beam="2">  1       -1 0.15389380E-01 0.13304776E+03</pdfrwt>
<totfact> 0.69135499E+03</totfact>
</mgrwt>
</event>
<event>
 8    1  0.3520338E-004  0.1462426E+03  0.7546771E-02  0.1214768E+00
         -2   -1    0    0    0  501 -0.00000000000E+00  0.00000000000E+00  0.27235912795E+02  0.27235912795E+02  0.00000000000E+00 0.  1.
          2   -1    0    0  501    0  0.00000000000E+00 -0.00000000000E+00 -0.70079388900E+03  0.70079388900E+03  0.00000000000E+00 0. -1.
         25    2    1    2    0    0  0.75508880120E+02  0.77535762860E+01 -0.26761520904E+03  0.30496689459E+03  0.12500079106E+03 0.  0.
         23    2    1    2    0    0 -0.75508880120E+02 -0.77535762860E+01 -0.40594276716E+03  0.42306290720E+03  0.91820391602E+02 0.  0.
          5    1    4    4  502    0 -0.30279351179E+02 -0.47459365610E+02 -0.23759324757E+03  0.24421685401E+03  0.47000000000E+01 0. -1.
         -5    1    3    3    0  503  0.74304191719E+02  0.55995751541E+02 -0.13727843690E+03  0.16590387680E+03  0.47000000000E+01 0. -1.
          5    1    3    3  503    0  0.12046884008E+01 -0.48242175255E+02 -0.13033677214E+03  0.13906301780E+03  0.47000000000E+01 0. -1.
         -5    1    4    4    0  502 -0.45229528941E+02  0.39705789324E+02 -0.16834951959E+03  0.17884605319E+03  0.47000000000E+01 0.  1.
<mgrwt>
<rscale>  0 0.13893562E+03</rscale>
<asrwt>0</asrwt>
<pdfrwt beam="1">  1        2 0.10781443E+00 0.14624263E+03</pdfrwt>
<pdfrwt beam="2">  1       -2 0.41901409E-02 0.14624263E+03</pdfrwt>
<totfact> 0.10319046E+04</totfact>
</mgrwt>
</event>
<event>
 8    1  0.3520338E-004  0.1371139E+03  0.7546771E-02  0.1229221E+00
         -3   -1    0    0    0  501 -0.00000000000E+00  0.00000000000E+00  0.17113398884E+03  0.17113398884E+03  0.00000000000E+00 0.  1.
          3   -1    0    0  501    0  0.00000000000E+00 -0.00000000000E+00 -0.92009912549E+02  0.92009912549E+02  0.00000000000E+00 0. -1.
         25    2    1    2    0    0  0.26242990639E+02  0.49830132500E+02  0.13502300432E+02  0.13777711083E+03  0.12501393318E+03 0.  0.
         23    2    1    2    0    0 -0.26242990639E+02 -0.49830132500E+02  0.65621775859E+02  0.12536679056E+03  0.90768265629E+02 0.  0.
          5    1    4    4  502    0  0.44222728180E-01 -0.71700648942E+02  0.49609660343E+02  0.87316627361E+02  0.47000000000E+01 0. -1.
         -5    1    4    4    0  502 -0.26287213367E+02  0.21870516442E+02  0.16012115516E+02  0.38050163197E+02  0.47000000000E+01 0. -1.
          5    1    3    3  503    0  0.60825422091E+02  0.72571819082E+02  0.31785067558E+01  0.94860918205E+02  0.47000000000E+01 0.  1.
         -5    1    3    3    0  503 -0.34582431452E+02 -0.22741686582E+02  0.10323793677E+02  0.42916192627E+02  0.47000000000E+01 0.  1.
<mgrwt>
<rscale>  0 0.12881746E+03</rscale>
<asrwt>0</asrwt>
<pdfrwt beam="1">  1        3 0.14155371E-01 0.13711389E+03</pdfrwt>
<pdfrwt beam="2">  1       -3 0.26328306E-01 0.13711389E+03</pdfrwt>
<totfact> 0.12917902E+03</totfact>
</mgrwt>
</event>
<event>
 8    1  0.3520338E-004  0.1284609E+03  0.7546771E-02  0.1240336E+00
          1   -1    0    0  501    0  0.00000000000E+00  0.00000000000E+00  0.22778424058E+03  0.22778424058E+03  0.00000000000E+00 0. -1.
         -1   -1    0    0    0  501 -0.00000000000E+00 -0.00000000000E+00 -0.64695976457E+02  0.64695976457E+02  0.00000000000E+00 0.  1.
         25    2    1    2    0    0  0.27725082043E+02 -0.10355619717E+02  0.13263994167E+03  0.18464982009E+03  0.12500513149E+03 0.  0.
         23    2    1    2    0    0 -0.27725082043E+02  0.10355619717E+02  0.30448322451E+02  0.10783039694E+03  0.99117985908E+02 0.  0.
          5    1    4    4  502    0  0.25094256403E+02  0.14049555496E+01  0.45318601322E+02  0.52034231332E+02  0.47000000000E+01 0. -1.
         -5    1    4    4    0  502 -0.52819338447E+02  0.89506641675E+01 -0.14870278872E+02  0.55796165610E+02  0.47000000000E+01 0.  1.
          5    1    3    3  503    0 -0.33392388091E+02  0.27895779508E+02  0.91688878134E+02  0.10159806332E+03  0.47000000000E+01 0. -1.
         -5    1    3    3    0  503  0.61117470134E+02 -0.38251399225E+02  0.40951063534E+02  0.83051756772E+02  0.47000000000E+01 0. -1.
<mgrwt>
<rscale>  0 0.12168938E+03</rscale>
<asrwt>0</asrwt>
<pdfrwt beam="1">  1        1 0.35043729E-01 0.12846090E+03</pdfrwt>
<pdfrwt beam="2">  1       -1 0.99532272E-02 0.12846090E+03</pdfrwt>
<totfact> 0.72195043E+03</totfact>
</mgrwt>
</event>
<event>
 8    1  0.3520338E-004  0.2015764E+03  0.7546771E-02  0.1153583E+00
          2   -1    0    0  501    0  0.00000000000E+00  0.00000000000E+00  0.75673068168E+03  0.75673068168E+03  0.00000000000E+00 0. -1.
         -2   -1    0    0    0  501 -0.00000000000E+00 -0.00000000000E+00 -0.47725421540E+02  0.47725421540E+02  0.00000000000E+00 0.  1.
         25    2    1    2    0    0 -0.75682657939E+02 -0.13884975636E+03  0.38609342457E+03  0.43554698640E+03  0.12500370119E+03 0.  0.
         23    2    1    2    0    0  0.75682657939E+02  0.13884975636E+03  0.32291183556E+03  0.36890911682E+03  0.82551580054E+02 0.  0.
          5    1    4    4  502    0  0.51235288973E+02  0.30933947741E+02  0.16858785580E+03  0.17895786958E+03  0.47000000000E+01 0. -1.
         -5    1    3    3    0  503 -0.47259818110E+02 -0.14389041619E+03  0.22146427659E+03  0.26834019097E+03  0.47000000000E+01 0. -1.
          5    1    3    3  503    0 -0.28422839829E+02  0.50406598380E+01  0.16462914798E+03  0.16720679544E+03  0.47000000000E+01 0. -1.
         -5    1    4    4    0  502  0.24447368966E+02  0.10791580862E+03  0.15432397976E+03  0.18995124724E+03  0.47000000000E+01 0.  1.
<mgrwt>
<rscale>  0 0.19551068E+03</rscale>
<asrwt>0</asrwt>
<pdfrwt beam="1">  1        2 0.11642010E+00 0.20157640E+03</pdfrwt>
<pdfrwt beam="2">  1       -2 0.73423731E-02 0.20157640E+03</pdfrwt>
<totfact> 0.40696965E+03</totfact>
</mgrwt>
</event>
<event>
 8    1  0.3520338E-004  0.1355705E+03  0.7546771E-02  0.1233163E+00
          4   -1    0    0  501    0  0.00000000000E+00  0.00000000000E+00  0.12708131856E+03  0.12708131856E+03  0.00000000000E+00 0. -1.
         -4   -1    0    0    0  501 -0.00000000000E+00 -0.00000000000E+00 -0.13533190132E+03  0.13533190132E+03  0.00000000000E+00 0.  1.
         25    2    1    2    0    0 -0.33491669019E+02 -0.40409539038E+02 -0.59861951729E+02  0.14819854175E+03  0.12499892709E+03 0.  0.
         23    2    1    2    0    0  0.33491669019E+02  0.40409539038E+02  0.51611368969E+02  0.11421467813E+03  0.87330616371E+02 0.  0.
          5    1    4    4  502    0  0.36603543463E+02  0.16724671077E+02  0.71895101737E+02  0.82525933321E+02  0.47000000000E+01 0. -1.
         -5    1    4    4    0  502 -0.31118744437E+01  0.23684867961E+02 -0.20283732768E+02  0.31688744814E+02  0.47000000000E+01 0.  1.
          5    1    3    3  503    0  0.22479567617E+02 -0.68849531562E+02 -0.33703861842E+02  0.80022679657E+02  0.47000000000E+01 0.  1.
         -5    1    3    3    0  503 -0.55971236636E+02  0.28439992524E+02 -0.26158089887E+02  0.68175862091E+02  0.47000000000E+01 0.  1.
<mgrwt>
<rscale>  0 0.12622783E+03</rscale>
<asrwt>0</asrwt>
<pdfrwt beam="1">  1        4 0.19550972E-01 0.13557048E+03</pdfrwt>
<pdfrwt beam="2">  1       -4 0.20820292E-01 0.13557048E+03</pdfrwt>
<totfact> 0.81490123E+02</totfact>
</mgrwt>
</event>
<event>
 8    1  0.3520338E-004  0.1401370E+03  0.7546771E-02  0.1224049E+00
          1   -1    0    0  501    0  0.00000000000E+00  0.00000000000E+00  0.32261186702E+02  0.32261186702E+02  0.00000000000E+00 0. -1.
         -1   -1    0    0    0  501 -0.00000000000E+00 -0.00000000000E+00 -0.49062614656E+03  0.49062614656E+03  0.00000000000E+00 0.  1.
         25    2    1    2    0    0  0.60409357053E+02  0.19078393241E+02 -0.26208442100E+03  0.29719796249E+03  0.12500043868E+03 0.  0.
         23    2    1    2    0    0 -0.60409357053E+02 -0.19078393241E+02 -0.19628053886E+03  0.22568937077E+03  0.91631690131E+02 0.  0.
          5    1    3    3  502    0 -0.22806120884E+02  0.26148768747E+02 -0.16667389540E+03  0.17031193342E+03  0.47000000000E+01 0. -1.
         -5    1    3    3    0  502  0.83215477938E+02 -0.70703755057E+01 -0.95410525592E+02  0.12688602907E+03  0.47000000000E+01 0. -1.
          5    1    4    4  503    0 -0.38311428131E+02 -0.55077549765E+02 -0.10081107341E+03  0.12118689919E+03  0.47000000000E+01 0. -1.
         -5    1    4    4    0  503 -0.22097928922E+02  0.35999156524E+02 -0.95469465454E+02  0.10450247158E+03  0.47000000000E+01 0.  1.
<mgrwt>
<rscale>  0 0.13232277E+03</rscale>
<asrwt>0</asrwt>
<pdfrwt beam="1">  1        1 0.49632597E-02 0.14013702E+03</pdfrwt>
<pdfrwt beam="2">  1       -1 0.75480942E-01 0.14013702E+03</pdfrwt>
<totfact> 0.29875825E+03</totfact>
</mgrwt>
</event>
<event>
 8    1  0.3520338E-004  0.1445387E+03  0.7546771E-02  0.1214387E+00
         -2   -1    0    0    0  501 -0.00000000000E+00  0.00000000000E+00  0.28907648887E+02  0.28907648887E+02  0.00000000000E+00 0.  1.
          2   -1    0    0  501    0  0.00000000000E+00 -0.00000000000E+00 -0.62947018658E+03  0.62947018658E+03  0.00000000000E+00 0. -1.
         25    2    1    2    0    0  0.42880850740E+02 -0.58545433947E+02 -0.29653973945E+03  0.32988973939E+03  0.12500035154E+03 0.  0.
         23    2    1    2    0    0 -0.42880850740E+02  0.58545433947E+02 -0.30402279824E+03  0.32848809608E+03  0.10103579671E+03 0.  0.
          5    1    4    4  502    0 -0.31791224489E+02 -0.21848237121E+02 -0.14192366312E+03  0.14714769307E+03  0.47000000000E+01 0. -1.
         -5    1    4    4    0  502 -0.11089626251E+02  0.80393671067E+02 -0.16209913512E+03  0.18134040301E+03  0.47000000000E+01 0.  1.
          5    1    3    3  503    0  0.64098764959E+02 -0.49795342651E+02 -0.29545440382E+03  0.30643697975E+03  0.47000000000E+01 0.  1.
         -5    1    3    3    0  503 -0.21217914219E+02 -0.87500912957E+01 -0.10853356290E+01  0.23452759644E+02  0.47000000000E+01 0.  1.
<mgrwt>
<rscale>  0 0.13921638E+03</rscale>
<asrwt>0</asrwt>
<pdfrwt beam="1">  1        2 0.96841564E-01 0.14453866E+03</pdfrwt>
<pdfrwt beam="2">  1       -2 0.44473308E-02 0.14453866E+03</pdfrwt>
<totfact> 0.10698397E+04</totfact>
</mgrwt>
</event>
<event>
 8    1  0.3520338E-004  0.2151381E+03  0.7546771E-02  0.1141125E+00
          1   -1    0    0  501    0  0.00000000000E+00  0.00000000000E+00  0.22470637260E+03  0.22470637260E+03  0.00000000000E+00 0. -1.
         -1   -1    0    0    0  501 -0.00000000000E+00 -0.00000000000E+00 -0.19341346050E+03  0.19341346050E+03  0.00000000000E+00 0.  1.
         25    2    1    2    0    0  0.16478382748E+03 -0.59191035239E+02 -0.14011910233E+02  0.21559393078E+03  0.12500848336E+03 0.  0.
         23    2    1    2    0    0 -0.16478382748E+03  0.59191035239E+02  0.45304822340E+02  0.20252590232E+03  0.91142337755E+02 0.  0.
          5    1    3    3  502    0  0.14883675362E+03 -0.11425797281E+02  0.25376993929E+02  0.15148930620E+03  0.47000000000E+01 0.  1.
         -5    1    3    3    0  502  0.15947073852E+02 -0.47765237959E+02 -0.39388904162E+02  0.64104624582E+02  0.47000000000E+01 0.  1.
          5    1    4    4  503    0 -0.13606749554E+03  0.48606297464E+02  0.72128093088E+02  0.16155954725E+03  0.47000000000E+01 0. -1.
         -5    1    4    4    0  503 -0.28716331935E+02  0.10584737775E+02 -0.26823270748E+02  0.40966355064E+02  0.47000000000E+01 0.  1.
<mgrwt>
<rscale>  0 0.21055777E+03</rscale>
<asrwt>0</asrwt>
<pdfrwt beam="1">  1        1 0.34570211E-01 0.21513812E+03</pdfrwt>
<pdfrwt beam="2">  1       -1 0.29755917E-01 0.21513812E+03</pdfrwt>
<totfact> 0.13048431E+03</totfact>
</mgrwt>
</event>
<event>
 8    1  0.3520338E-004  0.1496766E+03  0.7546771E-02  0.1209718E+00
          1   -1    0    0  501    0  0.00000000000E+00  0.00000000000E+00  0.81619911924E+03  0.81619911924E+03  0.00000000000E+00 0. -1.
         -1   -1    0    0    0  501 -0.00000000000E+00 -0.00000000000E+00 -0.24890840572E+02  0.24890840572E+02  0.00000000000E+00 0.  1.
         25    2    1    2    0    0  0.23510261420E+02  0.78899569886E+02  0.54878683225E+03  0.56883218902E+03  0.12500079002E+03 0.  0.
         23    2    1    2    0    0 -0.23510261420E+02 -0.78899569886E+02  0.24252144642E+03  0.27225777079E+03  0.92356739108E+02 0.  0.
          5    1    3    3  502    0  0.49234393651E+02  0.10250612784E+03  0.44009548518E+03  0.45457414999E+03  0.47000000000E+01 0. -1.
         -5    1    4    4    0  503 -0.37264768734E+02 -0.48240264572E+02  0.56763613475E+02  0.83426518143E+02  0.47000000000E+01 0.  1.
          5    1    4    4  503    0  0.13754507313E+02 -0.30659305315E+02  0.18575783295E+03  0.18883125264E+03  0.47000000000E+01 0. -1.
         -5    1    3    3    0  502 -0.25724132231E+02 -0.23606557952E+02  0.10869134707E+03  0.11425803904E+03  0.47000000000E+01 0. -1.
<mgrwt>
<rscale>  0 0.14271804E+03</rscale>
<asrwt>0</asrwt>
<pdfrwt beam="1">  1        1 0.12556907E+00 0.14967656E+03</pdfrwt>
<pdfrwt beam="2">  1       -1 0.38293607E-02 0.14967656E+03</pdfrwt>
<totfact> 0.57116343E+03</totfact>
</mgrwt>
</event>
<event>
 8    1  0.3520338E-004  0.1434506E+03  0.7546771E-02  0.1219037E+00
          2   -1    0    0  501    0  0.00000000000E+00  0.00000000000E+00  0.22632413583E+03  0.22632413583E+03  0.00000000000E+00 0. -1.
         -2   -1    0    0    0  501 -0.00000000000E+00 -0.00000000000E+00 -0.92481909367E+02  0.92481909367E+02  0.00000000000E+00 0.  1.
         25    2    1    2    0    0  0.60066708814E+02 -0.36663274411E+02  0.17810410352E+01  0.14346169572E+03  0.12500352328E+03 0.  0.
         23    2    1    2    0    0 -0.60066708814E+02  0.36663274411E+02  0.13206118543E+03  0.17534434948E+03  0.91396274534E+02 0.  0.
          5    1    3    3  502    0  0.84562001499E+02 -0.64693099985E+01 -0.32959750472E+02  0.91109929319E+02  0.47000000000E+01 0. -1.
         -5    1    3    3    0  502 -0.24495292685E+02 -0.30193964412E+02  0.34740791507E+02  0.52351766400E+02  0.47000000000E+01 0. -1.
          5    1    4    4  503    0 -0.29879894508E+01  0.54870543455E+02  0.66859541529E+02  0.86671753838E+02  0.47000000000E+01 0. -1.
         -5    1    4    4    0  503 -0.57078719363E+02 -0.18207269044E+02  0.65201643897E+02  0.88672595637E+02  0.47000000000E+01 0.  1.
<mgrwt>
<rscale>  0 0.13584095E+03</rscale>
<asrwt>0</asrwt>
<pdfrwt beam="1">  1        2 0.34819098E-01 0.14345064E+03</pdfrwt>
<pdfrwt beam="2">  1       -2 0.14227986E-01 0.14345064E+03</pdfrwt>
<totfact> 0.53310752E+03</totfact>
</mgrwt>
</event>
<event>
 8    1  0.3520338E-004  0.1713294E+03  0.7546771E-02  0.1182930E+00
          4   -1    0    0  501    0  0.00000000000E+00  0.00000000000E+00  0.79067010005E+02  0.79067010005E+02  0.00000000000E+00 0. -1.
         -4   -1    0    0    0  501 -0.00000000000E+00 -0.00000000000E+00 -0.33457957329E+03  0.33457957329E+03  0.00000000000E+00 0.  1.
         25    2    1    2    0    0  0.43397652994E+02 -0.10883758869E+03 -0.97880074731E+02  0.19731770376E+03  0.12499916075E+03 0.  0.
         23    2    1    2    0    0 -0.43397652994E+02  0.10883758869E+03 -0.15763248855E+03  0.21632887954E+03  0.90670864545E+02 0.  0.
          5    1    4    4  502    0  0.12617765046E+02  0.34093451163E+02 -0.45477538790E+01  0.36937020349E+02  0.47000000000E+01 0. -1.
         -5    1    4    4    0  502 -0.56015418040E+02  0.74744137529E+02 -0.15308473467E+03  0.17939185919E+03  0.47000000000E+01 0.  1.
          5    1    3    3  503    0 -0.38606316779E+02 -0.44642856574E+02 -0.81404979801E+01  0.59764454701E+02  0.47000000000E+01 0.  1.
         -5    1    3    3    0  503  0.82003969772E+02 -0.64194732118E+02 -0.89739576751E+02  0.13755324905E+03  0.47000000000E+01 0.  1.
<mgrwt>
<rscale>  0 0.16521661E+03</rscale>
<asrwt>0</asrwt>
<pdfrwt beam="1">  1        4 0.12164155E-01 0.17132941E+03</pdfrwt>
<pdfrwt beam="2">  1       -4 0.51473782E-01 0.17132941E+03</pdfrwt>
<totfact> 0.34397979E+02</totfact>
</mgrwt>
</event>
<event>
 8    1  0.3520338E-004  0.1250925E+03  0.7546771E-02  0.1250787E+00
          2   -1    0    0  501    0  0.00000000000E+00  0.00000000000E+00  0.19729013926E+03  0.19729013926E+03  0.00000000000E+00 0. -1.
         -2   -1    0    0    0  501 -0.00000000000E+00 -0.00000000000E+00 -0.66051601811E+02  0.66051601811E+02  0.00000000000E+00 0.  1.
         25    2    1    2    0    0 -0.12448811449E+01 -0.46547996869E+01  0.11733049415E+03  0.17150682222E+03  0.12499971328E+03 0.  0.
         23    2    1    2    0    0  0.12448811449E+01  0.46547996869E+01  0.13908043294E+02  0.91834918850E+02  0.90647679301E+02 0.  0.
          5    1    4    4  502    0 -0.18240817863E+02  0.34502498166E+02  0.32821238960E+02  0.51210092197E+02  0.47000000000E+01 0. -1.
         -5    1    3    3    0  503 -0.52802556103E+02  0.30975525780E+02  0.67953484655E+02  0.91582526746E+02  0.47000000000E+01 0.  1.
          5    1    3    3  503    0  0.51557674958E+02 -0.35630325467E+02  0.49377009497E+02  0.79924295473E+02  0.47000000000E+01 0.  1.
         -5    1    4    4    0  502  0.19485699008E+02 -0.29847698479E+02 -0.18913195666E+02  0.40624826653E+02  0.47000000000E+01 0.  1.
<mgrwt>
<rscale>  0 0.11545584E+03</rscale>
<asrwt>0</asrwt>
<pdfrwt beam="1">  1        2 0.30352329E-01 0.12509255E+03</pdfrwt>
<pdfrwt beam="2">  1       -2 0.10161785E-01 0.12509255E+03</pdfrwt>
<totfact> 0.10477096E+04</totfact>
</mgrwt>
</event>
<event>
 8    1  0.3520338E-004  0.1422324E+03  0.7546771E-02  0.1221824E+00
         -1   -1    0    0    0  501 -0.00000000000E+00  0.00000000000E+00  0.26118373668E+02  0.26118373668E+02  0.00000000000E+00 0.  1.
          1   -1    0    0  501    0  0.00000000000E+00 -0.00000000000E+00 -0.66456148132E+03  0.66456148132E+03  0.00000000000E+00 0. -1.
         25    2    1    2    0    0 -0.63574542975E+02  0.23742571445E+02 -0.26300404121E+03  0.29900029971E+03  0.12499848529E+03 0.  0.
         23    2    1    2    0    0  0.63574542975E+02 -0.23742571445E+02 -0.37543906645E+03  0.39167955528E+03  0.88616867436E+02 0.  0.
          5    1    4    4  502    0  0.85207511288E+02 -0.23972300603E+02 -0.31796127695E+03  0.33008552652E+03  0.47000000000E+01 0. -1.
         -5    1    3    3    0  503 -0.78875384106E+02  0.99616365687E+01 -0.73662016683E+02  0.10848383807E+03  0.47000000000E+01 0. -1.
          5    1    3    3  503    0  0.15300841131E+02  0.13780934876E+02 -0.18934202453E+03  0.19051646164E+03  0.47000000000E+01 0. -1.
         -5    1    4    4    0  502 -0.21632968313E+02  0.22972915804E+00 -0.57477789494E+02  0.61594028758E+02  0.47000000000E+01 0.  1.
<mgrwt>
<rscale>  0 0.13386948E+03</rscale>
<asrwt>0</asrwt>
<pdfrwt beam="1">  1        1 0.10224022E+00 0.14223239E+03</pdfrwt>
<pdfrwt beam="2">  1       -1 0.40182117E-02 0.14223239E+03</pdfrwt>
<totfact> 0.71684923E+03</totfact>
</mgrwt>
</event>
<event>
 8    1  0.3520338E-004  0.1407227E+03  0.7546771E-02  0.1221560E+00
         -1   -1    0    0    0  501 -0.00000000000E+00  0.00000000000E+00  0.18237681986E+03  0.18237681986E+03  0.00000000000E+00 0.  1.
          1   -1    0    0  501    0  0.00000000000E+00 -0.00000000000E+00 -0.91171134379E+02  0.91171134379E+02  0.00000000000E+00 0. -1.
         25    2    1    2    0    0 -0.61022849806E+02 -0.21336931303E+02  0.36398743496E+02  0.14535385294E+03  0.12499528471E+03 0.  0.
         23    2    1    2    0    0  0.61022849806E+02  0.21336931303E+02  0.54806941983E+02  0.12819410130E+03  0.96181463299E+02 0.  0.
          5    1    4    4  502    0  0.75184007539E+02  0.44851701717E+02  0.37143352047E+02  0.95215695858E+02  0.47000000000E+01 0. -1.
         -5    1    4    4    0  502 -0.14161157733E+02 -0.23514770413E+02  0.17663589936E+02  0.32978405440E+02  0.47000000000E+01 0.  1.
          5    1    3    3  503    0 -0.15103468415E+02  0.22783026748E+02 -0.38169353427E+02  0.47182312438E+02  0.47000000000E+01 0. -1.
         -5    1    3    3    0  503 -0.45919381391E+02 -0.44119958051E+02  0.74568096922E+02  0.98171540501E+02  0.47000000000E+01 0. -1.
<mgrwt>
<rscale>  0 0.13405478E+03</rscale>
<asrwt>0</asrwt>
<pdfrwt beam="1">  1        1 0.14026328E-01 0.14072268E+03</pdfrwt>
<pdfrwt beam="2">  1       -1 0.28057972E-01 0.14072268E+03</pdfrwt>
<totfact> 0.44736351E+03</totfact>
</mgrwt>
</event>
<event>
 8    1  0.3520338E-004  0.1932853E+03  0.7546771E-02  0.1160686E+00
         -3   -1    0    0    0  501 -0.00000000000E+00  0.00000000000E+00  0.37416486909E+02  0.37416486909E+02  0.00000000000E+00 0.  1.
          3   -1    0    0  501    0  0.00000000000E+00 -0.00000000000E+00 -0.12335750011E+04  0.12335750011E+04  0.00000000000E+00 0. -1.
         25    2    1    2    0    0 -0.12169377057E+03  0.83212237172E+02 -0.95969775292E+03  0.97896831692E+03  0.12500215344E+03 0.  0.
         23    2    1    2    0    0  0.12169377057E+03 -0.83212237172E+02 -0.23646076126E+03  0.29202317108E+03  0.87350962328E+02 0.  0.
          5    1    4    4  502    0  0.17670151554E+02  0.14725991292E+02 -0.63099586975E+02  0.67325603985E+02  0.47000000000E+01 0. -1.
         -5    1    3    3    0  503 -0.16144180527E+02 -0.16609410889E+02 -0.31089688696E+02  0.39053371662E+02  0.47000000000E+01 0. -1.
          5    1    3    3  503    0 -0.10554959004E+03  0.99821648061E+02 -0.92860806422E+03  0.93991494526E+03  0.47000000000E+01 0. -1.
         -5    1    4    4    0  502  0.10402361902E+03 -0.97938228464E+02 -0.17336117429E+03  0.22469756710E+03  0.47000000000E+01 0.  1.
<mgrwt>
<rscale>  0 0.18755370E+03</rscale>
<asrwt>0</asrwt>
<pdfrwt beam="1">  1        3 0.18978080E+00 0.19328525E+03</pdfrwt>
<pdfrwt beam="2">  1       -3 0.57563816E-02 0.19328525E+03</pdfrwt>
<totfact> 0.82540962E+01</totfact>
</mgrwt>
</event>
<event>
 8    1  0.3520338E-004  0.1540459E+03  0.7546771E-02  0.1203942E+00
          2   -1    0    0  501    0  0.00000000000E+00  0.00000000000E+00  0.31825634852E+03  0.31825634852E+03  0.00000000000E+00 0. -1.
         -2   -1    0    0    0  501 -0.00000000000E+00 -0.00000000000E+00 -0.78176269590E+02  0.78176269590E+02  0.00000000000E+00 0.  1.
         25    2    1    2    0    0  0.76546634139E+02  0.47374780754E+02  0.40849450437E+02  0.15937006847E+03  0.12500553617E+03 0.  0.
         23    2    1    2    0    0 -0.76546634139E+02 -0.47374780754E+02  0.19923062850E+03  0.23706254964E+03  0.91662708138E+02 0.  0.
          5    1    4    4  502    0 -0.25871242074E+02 -0.26336848064E+02  0.17133533094E+03  0.17533064866E+03  0.47000000000E+01 0. -1.
         -5    1    4    4    0  502 -0.50675392065E+02 -0.21037932691E+02  0.27895297555E+02  0.61731900979E+02  0.47000000000E+01 0.  1.
          5    1    3    3  503    0 -0.27252227217E+02  0.41634448880E+02  0.13122868609E+02  0.51676018639E+02  0.47000000000E+01 0. -1.
         -5    1    3    3    0  503  0.10379886136E+03  0.57403318746E+01  0.27726581827E+02  0.10769404983E+03  0.47000000000E+01 0. -1.
<mgrwt>
<rscale>  0 0.14721166E+03</rscale>
<asrwt>0</asrwt>
<pdfrwt beam="1">  1        2 0.48962514E-01 0.15404591E+03</pdfrwt>
<pdfrwt beam="2">  1       -2 0.12027119E-01 0.15404591E+03</pdfrwt>
<totfact> 0.48814169E+03</totfact>
</mgrwt>
</event>
<event>
 8    1  0.3520338E-004  0.1765246E+03  0.7546771E-02  0.1177146E+00
         -1   -1    0    0    0  501 -0.00000000000E+00  0.00000000000E+00  0.18315144478E+02  0.18315144478E+02  0.00000000000E+00 0.  1.
          1   -1    0    0  501    0  0.00000000000E+00 -0.00000000000E+00 -0.15772331433E+04  0.15772331433E+04  0.00000000000E+00 0. -1.
         25    2    1    2    0    0 -0.11241221285E+03  0.53811432079E+02 -0.64580446057E+03  0.66949558202E+03  0.12501502804E+03 0.  0.
         23    2    1    2    0    0  0.11241221285E+03 -0.53811432079E+02 -0.91311353824E+03  0.92605270574E+03  0.90912618901E+02 0.  0.
          5    1    4    4  502    0 -0.14202967259E+02 -0.15521425529E+02 -0.15086923750E+03  0.15240162648E+03  0.47000000000E+01 0. -1.
         -5    1    3    3    0  503 -0.39321112008E+02 -0.40716544680E+02 -0.22077104281E+03  0.22796036981E+03  0.47000000000E+01 0. -1.
          5    1    3    3  503    0 -0.73091100843E+02  0.94527976759E+02 -0.42503341776E+03  0.44153521221E+03  0.47000000000E+01 0. -1.
         -5    1    4    4    0  502  0.12661518011E+03 -0.38290006550E+02 -0.76224430074E+03  0.77365107927E+03  0.47000000000E+01 0.  1.
<mgrwt>
<rscale>  0 0.17067497E+03</rscale>
<asrwt>0</asrwt>
<pdfrwt beam="1">  1        1 0.24265126E+00 0.17652460E+03</pdfrwt>
<pdfrwt beam="2">  1       -1 0.28177144E-02 0.17652460E+03</pdfrwt>
<totfact> 0.26271198E+03</totfact>
</mgrwt>
</event>
<event>
 8    1  0.3520338E-004  0.1377292E+03  0.7546771E-02  0.1227184E+00
         -2   -1    0    0    0  501 -0.00000000000E+00  0.00000000000E+00  0.50099470365E+03  0.50099470365E+03  0.00000000000E+00 0. -1.
          2   -1    0    0  501    0  0.00000000000E+00 -0.00000000000E+00 -0.33663878168E+02  0.33663878168E+02  0.00000000000E+00 0.  1.
         25    2    1    2    0    0  0.29984612270E+02 -0.49450732251E+02  0.33758632005E+03  0.36460096566E+03  0.12499955513E+03 0.  0.
         23    2    1    2    0    0 -0.29984612270E+02  0.49450732251E+02  0.12974450543E+03  0.17005761615E+03  0.93496011840E+02 0.  0.
          5    1    3    3  502    0 -0.40241598374E+02 -0.46019779897E+02  0.21094261213E+03  0.21967267011E+03  0.47000000000E+01 0. -1.
         -5    1    4    4    0  503 -0.17635693732E+02  0.77120589614E+02  0.95081821832E+02  0.12377902035E+03  0.47000000000E+01 0.  1.
          5    1    4    4  503    0 -0.12348918538E+02 -0.27669857363E+02  0.34662683596E+02  0.46278595804E+02  0.47000000000E+01 0. -1.
         -5    1    3    3    0  502  0.70226210644E+02 -0.34309523536E+01  0.12664370792E+03  0.14492829555E+03  0.47000000000E+01 0. -1.
<mgrwt>
<rscale>  0 0.13018313E+03</rscale>
<asrwt>0</asrwt>
<pdfrwt beam="1">  1        2 0.51790585E-02 0.13772923E+03</pdfrwt>
<pdfrwt beam="2">  1       -2 0.77076103E-01 0.13772923E+03</pdfrwt>
<totfact> 0.22294508E+03</totfact>
</mgrwt>
</event>
<event>
 8    1  0.3520338E-004  0.1766430E+03  0.7546771E-02  0.1176412E+00
         -2   -1    0    0    0  501 -0.00000000000E+00  0.00000000000E+00  0.97298511310E+02  0.97298511310E+02  0.00000000000E+00 0.  1.
          2   -1    0    0  501    0  0.00000000000E+00 -0.00000000000E+00 -0.32178804746E+03  0.32178804746E+03  0.00000000000E+00 0. -1.
         25    2    1    2    0    0 -0.59847433375E+02  0.10952661019E+03 -0.18878011241E+03  0.25853564833E+03  0.12499982798E+03 0.  0.
         23    2    1    2    0    0  0.59847433375E+02 -0.10952661019E+03 -0.35709423738E+02  0.16055091044E+03  0.94465010860E+02 0.  0.
          5    1    3    3  502    0 -0.86598352335E+02  0.34376455432E+02 -0.76070079104E+02  0.12037342834E+03  0.47000000000E+01 0.  1.
         -5    1    4    4    0  503  0.54872366997E+02 -0.72859550254E+02  0.20010348760E+02  0.93498635180E+02  0.47000000000E+01 0.  1.
          5    1    4    4  503    0  0.49750663783E+01 -0.36667059938E+02 -0.55719772497E+02  0.67052275257E+02  0.47000000000E+01 0. -1.
         -5    1    3    3    0  502  0.26750918960E+02  0.75150154759E+02 -0.11271003331E+03  0.13816222000E+03  0.47000000000E+01 0.  1.
<mgrwt>
<rscale>  0 0.17138439E+03</rscale>
<asrwt>0</asrwt>
<pdfrwt beam="1">  1        2 0.49505853E-01 0.17664300E+03</pdfrwt>
<pdfrwt beam="2">  1       -2 0.14969002E-01 0.17664300E+03</pdfrwt>
<totfact> 0.34049421E+03</totfact>
</mgrwt>
</event>
<event>
 8    1  0.3520338E-004  0.1296909E+03  0.7546771E-02  0.1240198E+00
         -1   -1    0    0    0  501 -0.00000000000E+00  0.00000000000E+00  0.98576051866E+01  0.98576051866E+01  0.00000000000E+00 0.  1.
          1   -1    0    0  501    0  0.00000000000E+00 -0.00000000000E+00 -0.13483584104E+04  0.13483584104E+04  0.00000000000E+00 0. -1.
         25    2    1    2    0    0  0.15845405398E+02 -0.30723276662E+02 -0.73543813451E+03  0.74678577183E+03  0.12499897086E+03 0.  0.
         23    2    1    2    0    0 -0.15845405398E+02  0.30723276662E+02 -0.60306267071E+03  0.61143024376E+03  0.94696154005E+02 0.  0.
          5    1    4    4  502    0 -0.31269443423E+02  0.50004220849E+02 -0.54445833979E+03  0.54766337650E+03  0.47000000000E+01 0. -1.
         -5    1    4    4    0  502  0.15424038025E+02 -0.19280944187E+02 -0.58604330919E+02  0.63766867260E+02  0.47000000000E+01 0.  1.
          5    1    3    3  503    0 -0.51777053050E+02  0.38595132583E+01 -0.35544857304E+03  0.35925135650E+03  0.47000000000E+01 0.  1.
         -5    1    3    3    0  503  0.67622458448E+02 -0.34582789920E+02 -0.37998956147E+03  0.38753441534E+03  0.47000000000E+01 0.  1.
<mgrwt>
<rscale>  0 0.12177455E+03</rscale>
<asrwt>0</asrwt>
<pdfrwt beam="1">  1        1 0.20743973E+00 0.12969094E+03</pdfrwt>
<pdfrwt beam="2">  1       -1 0.15165548E-02 0.12969094E+03</pdfrwt>
<totfact> 0.90146317E+03</totfact>
</mgrwt>
</event>
<event>
 8    1  0.3520338E-004  0.1485692E+03  0.7546771E-02  0.1211728E+00
          2   -1    0    0  501    0  0.00000000000E+00  0.00000000000E+00  0.78297933217E+03  0.78297933217E+03  0.00000000000E+00 0. -1.
         -2   -1    0    0    0  501 -0.00000000000E+00 -0.00000000000E+00 -0.23255252676E+02  0.23255252676E+02  0.00000000000E+00 0.  1.
         25    2    1    2    0    0  0.27861934611E+02  0.75315381341E+02  0.40719806124E+03  0.43345480085E+03  0.12499643689E+03 0.  0.
         23    2    1    2    0    0 -0.27861934611E+02 -0.75315381341E+02  0.35252601825E+03  0.37277978399E+03  0.90782596034E+02 0.  0.
          5    1    3    3  502    0  0.49631011431E+02  0.10156749325E+03  0.28945209484E+03  0.31077934003E+03  0.47000000000E+01 0. -1.
         -5    1    4    4    0  503  0.26156025927E+02 -0.32227628326E+02  0.21245037028E+03  0.21651791509E+03  0.47000000000E+01 0.  1.
          5    1    4    4  503    0 -0.54017960537E+02 -0.43087753015E+02  0.14007564797E+03  0.15626186891E+03  0.47000000000E+01 0. -1.
         -5    1    3    3    0  502 -0.21769076820E+02 -0.26252111905E+02  0.11774596640E+03  0.12267546083E+03  0.47000000000E+01 0. -1.
<mgrwt>
<rscale>  0 0.14119682E+03</rscale>
<asrwt>0</asrwt>
<pdfrwt beam="1">  1        2 0.12045834E+00 0.14856919E+03</pdfrwt>
<pdfrwt beam="2">  1       -2 0.35777318E-02 0.14856919E+03</pdfrwt>
<totfact> 0.11419588E+04</totfact>
</mgrwt>
</event>
<event>
 8    1  0.3520338E-004  0.1283184E+03  0.7546771E-02  0.1246073E+00
         -2   -1    0    0    0  501 -0.00000000000E+00  0.00000000000E+00  0.70046169950E+02  0.70046169950E+02  0.00000000000E+00 0.  1.
          2   -1    0    0  501    0  0.00000000000E+00 -0.00000000000E+00 -0.23222217510E+03  0.23222217510E+03  0.00000000000E+00 0. -1.
         25    2    1    2    0    0  0.22798012952E+02 -0.18058424420E+02 -0.16593750455E+03  0.20976386058E+03  0.12497906105E+03 0.  0.
         23    2    1    2    0    0 -0.22798012952E+02  0.18058424420E+02  0.37614994040E+01  0.92504484468E+02  0.87732973743E+02 0.  0.
          5    1    3    3  502    0  0.45426699294E+02 -0.27898309698E+02 -0.17504625084E+03  0.18304420402E+03  0.47000000000E+01 0.  1.
         -5    1    4    4    0  503 -0.19670865624E+02 -0.61721499258E+01  0.41920261036E+02  0.46951428886E+02  0.47000000000E+01 0.  1.
          5    1    4    4  503    0 -0.31271473277E+01  0.24230574346E+02 -0.38158761632E+02  0.45553055582E+02  0.47000000000E+01 0. -1.
         -5    1    3    3    0  502 -0.22628686342E+02  0.98398852781E+01  0.91087462858E+01  0.26719656561E+02  0.47000000000E+01 0.  1.
<mgrwt>
<rscale>  0 0.11821366E+03</rscale>
<asrwt>0</asrwt>
<pdfrwt beam="1">  1        2 0.35726489E-01 0.12831844E+03</pdfrwt>
<pdfrwt beam="2">  1       -2 0.10776334E-01 0.12831844E+03</pdfrwt>
<totfact> 0.80346714E+03</totfact>
</mgrwt>
</event>
<event>
 8    1  0.3520338E-004  0.1814720E+03  0.7546771E-02  0.1172034E+00
         -3   -1    0    0    0  501 -0.00000000000E+00  0.00000000000E+00  0.10672353391E+03  0.10672353391E+03  0.00000000000E+00 0.  1.
          3   -1    0    0  501    0  0.00000000000E+00 -0.00000000000E+00 -0.31595794425E+03  0.31595794425E+03  0.00000000000E+00 0. -1.
         25    2    1    2    0    0  0.55817533394E+02  0.11912969729E+03 -0.18888934049E+03  0.26193751388E+03  0.12499838565E+03 0.  0.
         23    2    1    2    0    0 -0.55817533394E+02 -0.11912969729E+03 -0.20345069845E+02  0.16074396427E+03  0.90095606843E+02 0.  0.
          5    1    3    3  502    0  0.63731075033E+02  0.13977794873E+03 -0.13925418579E+03  0.20739658419E+03  0.47000000000E+01 0. -1.
         -5    1    4    4    0  503 -0.55730469280E+02 -0.36826633540E+02  0.18702404122E+02  0.69526657219E+02  0.47000000000E+01 0.  1.
          5    1    4    4  503    0 -0.87064114060E-01 -0.82303063753E+02 -0.39047473967E+02  0.91217307056E+02  0.47000000000E+01 0. -1.
         -5    1    3    3    0  502 -0.79135416393E+01 -0.20648251434E+02 -0.49635154708E+02  0.54540929690E+02  0.47000000000E+01 0. -1.
<mgrwt>
<rscale>  0 0.17569692E+03</rscale>
<asrwt>0</asrwt>
<pdfrwt beam="1">  1        3 0.48608913E-01 0.18147198E+03</pdfrwt>
<pdfrwt beam="2">  1       -3 0.16419006E-01 0.18147198E+03</pdfrwt>
<totfact> 0.32418508E+02</totfact>
</mgrwt>
</event>
<event>
 8    1  0.3520338E-004  0.2402150E+03  0.7546771E-02  0.1122597E+00
         -1   -1    0    0    0  501 -0.00000000000E+00  0.00000000000E+00  0.61610961951E+03  0.61610961951E+03  0.00000000000E+00 0.  1.
          1   -1    0    0  501    0  0.00000000000E+00 -0.00000000000E+00 -0.10432687228E+03  0.10432687228E+03  0.00000000000E+00 0. -1.
         25    2    1    2    0    0  0.48701735406E+02  0.19926402562E+03  0.11759548406E+03  0.26745454130E+03  0.12500089141E+03 0.  0.
         23    2    1    2    0    0 -0.48701735406E+02 -0.19926402562E+03  0.39418726316E+03  0.45298195049E+03  0.87926321958E+02 0.  0.
          5    1    4    4  502    0  0.18899676136E+02 -0.94829902546E+02  0.14376281350E+03  0.17331977591E+03  0.47000000000E+01 0. -1.
         -5    1    4    4    0  502 -0.67601411542E+02 -0.10443412308E+03  0.25042444965E+03  0.27966217458E+03  0.47000000000E+01 0.  1.
          5    1    3    3  503    0 -0.70135598195E+01  0.17565218509E+03  0.10697963337E+03  0.20583880126E+03  0.47000000000E+01 0.  1.
         -5    1    3    3    0  503  0.55715295226E+02  0.23611840533E+02  0.10615850694E+02  0.61615740046E+02  0.47000000000E+01 0.  1.
<mgrwt>
<rscale>  0 0.23583789E+03</rscale>
<asrwt>0</asrwt>
<pdfrwt beam="1">  1        1 0.16050289E-01 0.24021497E+03</pdfrwt>
<pdfrwt beam="2">  1       -1 0.94786092E-01 0.24021497E+03</pdfrwt>
<totfact> 0.38803771E+02</totfact>
</mgrwt>
</event>
<event>
 8    1  0.3520338E-004  0.2542111E+03  0.7546771E-02  0.1112932E+00
         -2   -1    0    0    0  501 -0.00000000000E+00  0.00000000000E+00  0.15076285680E+02  0.15076285680E+02  0.00000000000E+00 0.  1.
          2   -1    0    0  501    0  0.00000000000E+00 -0.00000000000E+00 -0.41030703623E+04  0.41030703623E+04  0.00000000000E+00 0. -1.
         25    2    1    2    0    0  0.19046536279E+03  0.11278800564E+03 -0.18695071114E+04  0.18867114639E+04  0.12500047960E+03 0.  0.
         23    2    1    2    0    0 -0.19046536279E+03 -0.11278800564E+03 -0.22184869652E+04  0.22314351840E+04  0.92845986111E+02 0.  0.
          5    1    4    4  502    0 -0.56978200712E+02  0.10610465731E+02 -0.51934726193E+03  0.52259235147E+03  0.47000000000E+01 0. -1.
         -5    1    3    3    0  503  0.84469462713E+02 -0.81097919673E+01 -0.43583165583E+03  0.44404074260E+03  0.47000000000E+01 0.  1.
          5    1    3    3  503    0  0.10599590008E+03  0.12089779761E+03 -0.14336754556E+04  0.14426707214E+04  0.47000000000E+01 0.  1.
         -5    1    4    4    0  502 -0.13348716208E+03 -0.12339847137E+03 -0.16991397032E+04  0.17088428325E+04  0.47000000000E+01 0.  1.
<mgrwt>
<rscale>  0 0.25059145E+03</rscale>
<asrwt>0</asrwt>
<pdfrwt beam="1">  1        2 0.63124150E+00 0.25421115E+03</pdfrwt>
<pdfrwt beam="2">  1       -2 0.23194289E-02 0.25421115E+03</pdfrwt>
<totfact> 0.23234660E+02</totfact>
</mgrwt>
</event>
<event>
 8    1  0.3520338E-004  0.1564771E+03  0.7546771E-02  0.1201522E+00
          2   -1    0    0  501    0  0.00000000000E+00  0.00000000000E+00  0.28085244437E+03  0.28085244437E+03  0.00000000000E+00 0. -1.
         -2   -1    0    0    0  501 -0.00000000000E+00 -0.00000000000E+00 -0.76297541759E+02  0.76297541759E+02  0.00000000000E+00 0.  1.
         25    2    1    2    0    0  0.34423320190E+02 -0.87608587853E+02  0.15058250089E+03  0.21716393560E+03  0.12499942285E+03 0.  0.
         23    2    1    2    0    0 -0.34423320190E+02  0.87608587853E+02  0.53972401717E+02  0.13998605053E+03  0.88446845936E+02 0.  0.
          5    1    3    3  502    0  0.53803936679E+02  0.51543211435E+01  0.24919844414E+02  0.59703595153E+02  0.47000000000E+01 0. -1.
         -5    1    3    3    0  502 -0.19380616489E+02 -0.92762908996E+02  0.12566265648E+03  0.15746034045E+03  0.47000000000E+01 0. -1.
          5    1    4    4  503    0 -0.54257080113E+02  0.40501178951E+02  0.56912645051E+02  0.88573785092E+02  0.47000000000E+01 0. -1.
         -5    1    4    4    0  503  0.19833759923E+02  0.47107408902E+02 -0.29402433341E+01  0.51412265433E+02  0.47000000000E+01 0.  1.
<mgrwt>
<rscale>  0 0.14914978E+03</rscale>
<asrwt>0</asrwt>
<pdfrwt beam="1">  1        2 0.43208068E-01 0.15647711E+03</pdfrwt>
<pdfrwt beam="2">  1       -2 0.11738083E-01 0.15647711E+03</pdfrwt>
<totfact> 0.58026400E+03</totfact>
</mgrwt>
</event>
<event>
 8    1  0.3520338E-004  0.1291891E+03  0.7546771E-02  0.1242054E+00
         -4   -1    0    0    0  501 -0.00000000000E+00  0.00000000000E+00  0.12323027004E+03  0.12323027004E+03  0.00000000000E+00 0.  1.
          4   -1    0    0  501    0  0.00000000000E+00 -0.00000000000E+00 -0.10788336098E+03  0.10788336098E+03  0.00000000000E+00 0. -1.
         25    2    1    2    0    0  0.45024676217E+01 -0.32326118241E+02 -0.10297817693E+02  0.12959883551E+03  0.12499825192E+03 0.  0.
         23    2    1    2    0    0 -0.45024676217E+01  0.32326118241E+02  0.25644726750E+02  0.10151479551E+03  0.92640982085E+02 0.  0.
          5    1    4    4  502    0 -0.47129841899E+02  0.57384783219E+01  0.10789728054E+02  0.48914827632E+02  0.47000000000E+01 0. -1.
         -5    1    3    3    0  503 -0.41317475057E+02  0.19444979718E+02  0.24524855681E+02  0.52046128843E+02  0.47000000000E+01 0. -1.
          5    1    3    3  503    0  0.45819942679E+02 -0.51771097959E+02 -0.34822673374E+02  0.77552706670E+02  0.47000000000E+01 0. -1.
         -5    1    4    4    0  502  0.42627374277E+02  0.26587639919E+02  0.14854998696E+02  0.52599967875E+02  0.47000000000E+01 0.  1.
<mgrwt>
<rscale>  0 0.12063455E+03</rscale>
<asrwt>0</asrwt>
<pdfrwt beam="1">  1        4 0.16597440E-01 0.12918906E+03</pdfrwt>
<pdfrwt beam="2">  1       -4 0.18958503E-01 0.12918906E+03</pdfrwt>
<totfact> 0.12770280E+03</totfact>
</mgrwt>
</event>
<event>
 8    1  0.3520338E-004  0.1256647E+03  0.7546771E-02  0.1247867E+00
          1   -1    0    0  501    0  0.00000000000E+00  0.00000000000E+00  0.14806931478E+03  0.14806931478E+03  0.00000000000E+00 0. -1.
         -1   -1    0    0    0  501 -0.00000000000E+00 -0.00000000000E+00 -0.10760784326E+03  0.10760784326E+03  0.00000000000E+00 0.  1.
         25    2    1    2    0    0 -0.11825155168E+02  0.50329851264E+01 -0.39322885856E+02  0.13167344268E+03  0.12500576355E+03 0.  0.
         23    2    1    2    0    0  0.11825155168E+02 -0.50329851264E+01  0.79784357370E+02  0.12400371536E+03  0.94054306171E+02 0.  0.
          5    1    3    3  502    0 -0.58827694417E+02 -0.30077166431E+02 -0.27068403570E+02  0.71555028074E+02  0.47000000000E+01 0.  1.
         -5    1    3    3    0  502  0.47002539249E+02  0.35110151557E+02 -0.12254482286E+02  0.60118414602E+02  0.47000000000E+01 0.  1.
          5    1    4    4  503    0  0.51862431938E+02 -0.12101093570E+02  0.51667867431E+02  0.74349222168E+02  0.47000000000E+01 0. -1.
         -5    1    4    4    0  503 -0.40037276770E+02  0.70681084441E+01  0.28116489939E+02  0.49654493197E+02  0.47000000000E+01 0.  1.
<mgrwt>
<rscale>  0 0.11715444E+03</rscale>
<asrwt>0</asrwt>
<pdfrwt beam="1">  1        1 0.22779895E-01 0.12566466E+03</pdfrwt>
<pdfrwt beam="2">  1       -1 0.16555053E-01 0.12566466E+03</pdfrwt>
<totfact> 0.56076819E+03</totfact>
</mgrwt>
</event>
<event>
 8    1  0.3520338E-004  0.2934708E+03  0.7546771E-02  0.1089970E+00
          1   -1    0    0  501    0  0.00000000000E+00  0.00000000000E+00  0.84603797609E+02  0.84603797609E+02  0.00000000000E+00 0. -1.
         -1   -1    0    0    0  501 -0.00000000000E+00 -0.00000000000E+00 -0.10802736666E+04  0.10802736666E+04  0.00000000000E+00 0.  1.
         25    2    1    2    0    0  0.21472208164E+02 -0.26465078682E+03 -0.32961028857E+03  0.44132534388E+03  0.12499608846E+03 0.  0.
         23    2    1    2    0    0 -0.21472208164E+02  0.26465078682E+03 -0.66605958045E+03  0.72355212036E+03  0.96908263227E+02 0.  0.
          5    1    4    4  502    0  0.21956044255E+02  0.15957084103E+03 -0.47003698318E+03  0.49689211781E+03  0.47000000000E+01 0. -1.
         -5    1    4    4    0  502 -0.43428252419E+02  0.10507994579E+03 -0.19602259727E+03  0.22666000255E+03  0.47000000000E+01 0.  1.
          5    1    3    3  503    0  0.64339129526E+02 -0.78050824127E+02 -0.99818746163E+02  0.14218764651E+03  0.47000000000E+01 0. -1.
         -5    1    3    3    0  503 -0.42866921362E+02 -0.18659996269E+03 -0.22979154241E+03  0.29913769737E+03  0.47000000000E+01 0. -1.
<mgrwt>
<rscale>  0 0.29072796E+03</rscale>
<asrwt>0</asrwt>
<pdfrwt beam="1">  1        1 0.13015969E-01 0.29347081E+03</pdfrwt>
<pdfrwt beam="2">  1       -1 0.16619595E+00 0.29347081E+03</pdfrwt>
<totfact> 0.12905313E+02</totfact>
</mgrwt>
</event>
<event>
 8    1  0.3520338E-004  0.1403448E+03  0.7546771E-02  0.1223409E+00
          2   -1    0    0  501    0  0.00000000000E+00  0.00000000000E+00  0.49800907242E+03  0.49800907242E+03  0.00000000000E+00 0. -1.
         -2   -1    0    0    0  501 -0.00000000000E+00 -0.00000000000E+00 -0.45859473951E+02  0.45859473951E+02  0.00000000000E+00 0.  1.
         25    2    1    2    0    0 -0.32885527527E+02 -0.54694272418E+02  0.39204828631E+03  0.41641148220E+03  0.12499496930E+03 0.  0.
         23    2    1    2    0    0  0.32885527527E+02  0.54694272418E+02  0.60101312155E+02  0.12745706417E+03  0.92521425240E+02 0.  0.
          5    1    4    4  502    0  0.57818125416E+02  0.39070395796E+02  0.12127575325E+02  0.70983093322E+02  0.47000000000E+01 0.  1.
         -5    1    3    3    0  503 -0.60577604561E+02  0.14859033475E+01  0.29217238642E+03  0.29842695500E+03  0.47000000000E+01 0. -1.
          5    1    3    3  503    0  0.27692077033E+02 -0.56180175765E+02  0.99875899894E+02  0.11798452720E+03  0.47000000000E+01 0. -1.
         -5    1    4    4    0  502 -0.24932597888E+02  0.15623876622E+02  0.47973736830E+02  0.56473970850E+02  0.47000000000E+01 0. -1.
<mgrwt>
<rscale>  0 0.13276578E+03</rscale>
<asrwt>0</asrwt>
<pdfrwt beam="1">  1        2 0.76616777E-01 0.14034480E+03</pdfrwt>
<pdfrwt beam="2">  1       -2 0.70553040E-02 0.14034480E+03</pdfrwt>
<totfact> 0.69132924E+03</totfact>
</mgrwt>
</event>
<event>
 8    1  0.3520338E-004  0.1645084E+03  0.7546771E-02  0.1190538E+00
          1   -1    0    0  501    0  0.00000000000E+00  0.00000000000E+00  0.17739199602E+03  0.17739199602E+03  0.00000000000E+00 0.  1.
         -1   -1    0    0    0  501 -0.00000000000E+00 -0.00000000000E+00 -0.13269455836E+03  0.13269455836E+03  0.00000000000E+00 0. -1.
         25    2    1    2    0    0 -0.73729553899E+02  0.77473597370E+02  0.36554522967E+02  0.16852073486E+03  0.12499919808E+03 0.  0.
         23    2    1    2    0    0  0.73729553899E+02 -0.77473597370E+02  0.81429146972E+01  0.14156581952E+03  0.92392471499E+02 0.  0.
          5    1    3    3  502    0 -0.39308973646E+02 -0.31097176292E+02  0.14775412765E+02  0.52465537306E+02  0.47000000000E+01 0.  1.
         -5    1    3    3    0  502 -0.34420580253E+02  0.10857077366E+03  0.21779110203E+02  0.11605519756E+03  0.47000000000E+01 0.  1.
          5    1    4    4  503    0  0.20635544801E+02 -0.81861188440E+01 -0.36829095567E+02  0.43258646896E+02  0.47000000000E+01 0. -1.
         -5    1    4    4    0  503  0.53094009097E+02 -0.69287478526E+02  0.44972010264E+02  0.98307172626E+02  0.47000000000E+01 0.  1.
<mgrwt>
<rscale>  0 0.15838013E+03</rscale>
<asrwt>0</asrwt>
<pdfrwt beam="1">  1        1 0.27291076E-01 0.16450837E+03</pdfrwt>
<pdfrwt beam="2">  1       -1 0.20414547E-01 0.16450837E+03</pdfrwt>
<totfact> 0.32468344E+03</totfact>
</mgrwt>
</event>
<event>
 8    1  0.3520338E-004  0.1271515E+03  0.7546771E-02  0.1247005E+00
         -1   -1    0    0    0  501 -0.00000000000E+00  0.00000000000E+00  0.21511695436E+03  0.21511695436E+03  0.00000000000E+00 0.  1.
          1   -1    0    0  501    0  0.00000000000E+00 -0.00000000000E+00 -0.10133795139E+03  0.10133795139E+03  0.00000000000E+00 0. -1.
         25    2    1    2    0    0  0.21320759476E+02  0.93813325801E+01  0.16638212254E+03  0.20940517220E+03  0.12499972502E+03 0.  0.
         23    2    1    2    0    0 -0.21320759476E+02 -0.93813325801E+01 -0.52603119570E+02  0.10704973355E+03  0.90277201330E+02 0.  0.
          5    1    4    4  502    0  0.82503559459E+01 -0.37334256270E+02 -0.53681228202E+02  0.66073287535E+02  0.47000000000E+01 0. -1.
         -5    1    4    4    0  502 -0.29571115422E+02  0.27952923690E+02  0.10781086318E+01  0.40976446019E+02  0.47000000000E+01 0.  1.
          5    1    3    3  503    0 -0.29061028339E+02  0.38812413385E+02  0.13384227827E+03  0.14243171084E+03  0.47000000000E+01 0.  1.
         -5    1    3    3    0  503  0.50381787816E+02 -0.29431080805E+02  0.32539844273E+02  0.66973461357E+02  0.47000000000E+01 0.  1.
<mgrwt>
<rscale>  0 0.11766158E+03</rscale>
<asrwt>0</asrwt>
<pdfrwt beam="1">  1        1 0.15590454E-01 0.12715155E+03</pdfrwt>
<pdfrwt beam="2">  1       -1 0.33094916E-01 0.12715155E+03</pdfrwt>
<totfact> 0.29381447E+03</totfact>
</mgrwt>
</event>
<event>
 8    1  0.3520338E-004  0.1349742E+03  0.7546771E-02  0.1233363E+00
         -2   -1    0    0    0  501 -0.00000000000E+00  0.00000000000E+00  0.12452637763E+03  0.12452637763E+03  0.00000000000E+00 0.  1.
          2   -1    0    0  501    0  0.00000000000E+00 -0.00000000000E+00 -0.15223130886E+03  0.15223130886E+03  0.00000000000E+00 0. -1.
         25    2    1    2    0    0 -0.26886449316E+02 -0.43241395923E+02 -0.84549547195E+02  0.15926918181E+03  0.12500138746E+03 0.  0.
         23    2    1    2    0    0  0.26886449316E+02  0.43241395923E+02  0.56844615967E+02  0.11748850467E+03  0.89328264773E+02 0.  0.
          5    1    3    3  502    0 -0.62257000241E+02  0.84389061250E+01 -0.71186353189E+02  0.95061748858E+02  0.47000000000E+01 0. -1.
         -5    1    4    4    0  503 -0.21531481004E+02  0.33817098029E+02  0.54583366661E+02  0.67886925909E+02  0.47000000000E+01 0.  1.
          5    1    4    4  503    0  0.48417930320E+02  0.94242978938E+01  0.22612493059E+01  0.49601578762E+02  0.47000000000E+01 0. -1.
         -5    1    3    3    0  502  0.35370550925E+02 -0.51680302048E+02 -0.13363194006E+02  0.64207432954E+02  0.47000000000E+01 0. -1.
<mgrwt>
<rscale>  0 0.12609825E+03</rscale>
<asrwt>0</asrwt>
<pdfrwt beam="1">  1        2 0.23420201E-01 0.13497424E+03</pdfrwt>
<pdfrwt beam="2">  1       -2 0.19157904E-01 0.13497424E+03</pdfrwt>
<totfact> 0.50040136E+03</totfact>
</mgrwt>
</event>
<event>
 8    1  0.3520338E-004  0.1320371E+03  0.7546771E-02  0.1237651E+00
          1   -1    0    0  501    0  0.00000000000E+00  0.00000000000E+00  0.46206095111E+03  0.46206095111E+03  0.00000000000E+00 0. -1.
         -1   -1    0    0    0  501 -0.00000000000E+00 -0.00000000000E+00 -0.31014228127E+02  0.31014228127E+02  0.00000000000E+00 0.  1.
         25    2    1    2    0    0 -0.25546465095E+02  0.34016790513E+02  0.30073032838E+03  0.32843954321E+03  0.12499615681E+03 0.  0.
         23    2    1    2    0    0  0.25546465095E+02 -0.34016790513E+02  0.13031639461E+03  0.16463563603E+03  0.91174371583E+02 0.  0.
          5    1    3    3  502    0  0.16146354778E+02 -0.41038132021E+02  0.78626351671E+02  0.90271957049E+02  0.47000000000E+01 0. -1.
         -5    1    3    3    0  502 -0.41692819873E+02  0.75054922534E+02  0.22210397671E+03  0.23816758616E+03  0.47000000000E+01 0. -1.
          5    1    4    4  503    0  0.11842012088E+02  0.28134796499E+02  0.71343918431E+02  0.77742168232E+02  0.47000000000E+01 0. -1.
         -5    1    4    4    0  503  0.13704453007E+02 -0.62151587013E+02  0.58972476174E+02  0.86893467801E+02  0.47000000000E+01 0.  1.
<mgrwt>
<rscale>  0 0.12336251E+03</rscale>
<asrwt>0</asrwt>
<pdfrwt beam="1">  1        1 0.71086295E-01 0.13203713E+03</pdfrwt>
<pdfrwt beam="2">  1       -1 0.47714200E-02 0.13203713E+03</pdfrwt>
<totfact> 0.90090537E+03</totfact>
</mgrwt>
</event>
<event>
 8    1  0.3520338E-004  0.1323176E+03  0.7546771E-02  0.1237436E+00
         -1   -1    0    0    0  501 -0.00000000000E+00  0.00000000000E+00  0.35130671041E+03  0.35130671041E+03  0.00000000000E+00 0.  1.
          1   -1    0    0  501    0  0.00000000000E+00 -0.00000000000E+00 -0.38606100597E+02  0.38606100597E+02  0.00000000000E+00 0. -1.
         25    2    1    2    0    0  0.24701634711E+02 -0.35691806378E+02  0.16997061683E+03  0.21540187695E+03  0.12499552875E+03 0.  0.
         23    2    1    2    0    0 -0.24701634711E+02  0.35691806378E+02  0.14272999298E+03  0.17451093405E+03  0.90543577399E+02 0.  0.
          5    1    3    3  502    0  0.63128899906E+02 -0.25657786043E+01  0.37858930003E+02  0.73805350783E+02  0.47000000000E+01 0. -1.
         -5    1    4    4    0  503 -0.35466769554E+02  0.56904049412E+02  0.13172394740E+03  0.14788255780E+03  0.47000000000E+01 0.  1.
          5    1    4    4  503    0  0.10765134842E+02 -0.21212243034E+02  0.11006045580E+02  0.26628376255E+02  0.47000000000E+01 0. -1.
         -5    1    3    3    0  502 -0.38427265195E+02 -0.33126027774E+02  0.13211168683E+03  0.14159652617E+03  0.47000000000E+01 0. -1.
<mgrwt>
<rscale>  0 0.12349740E+03</rscale>
<asrwt>0</asrwt>
<pdfrwt beam="1">  1        1 0.59394003E-02 0.13231764E+03</pdfrwt>
<pdfrwt beam="2">  1       -1 0.54047184E-01 0.13231764E+03</pdfrwt>
<totfact> 0.44416320E+03</totfact>
</mgrwt>
</event>
<event>
 8    1  0.3520338E-004  0.1358024E+03  0.7546771E-02  0.1231201E+00
         -3   -1    0    0    0  501 -0.00000000000E+00  0.00000000000E+00  0.75275768082E+02  0.75275768082E+02  0.00000000000E+00 0.  1.
          3   -1    0    0  501    0  0.00000000000E+00 -0.00000000000E+00 -0.19526034989E+03  0.19526034989E+03  0.00000000000E+00 0. -1.
         25    2    1    2    0    0  0.43970197885E+02 -0.29733972364E+02 -0.80382813965E+02  0.15780905247E+03  0.12499925138E+03 0.  0.
         23    2    1    2    0    0 -0.43970197885E+02  0.29733972364E+02 -0.39601767846E+02  0.11272706550E+03  0.91222825357E+02 0.  0.
          5    1    4    4  502    0 -0.43927061219E+02 -0.24728602168E+02 -0.15178560011E+02  0.52854225532E+02  0.47000000000E+01 0. -1.
         -5    1    3    3    0  503 -0.38755314475E+02 -0.30951939659E+02 -0.46930511116E+02  0.68443844445E+02  0.47000000000E+01 0. -1.
          5    1    3    3  503    0  0.82725512360E+02  0.12179672956E+01 -0.33452302849E+02  0.89365208026E+02  0.47000000000E+01 0. -1.
         -5    1    4    4    0  502 -0.43136665973E-01  0.54462574532E+02 -0.24423207835E+02  0.59872839973E+02  0.47000000000E+01 0.  1.
<mgrwt>
<rscale>  0 0.12750784E+03</rscale>
<asrwt>0</asrwt>
<pdfrwt beam="1">  1        3 0.30040054E-01 0.13580243E+03</pdfrwt>
<pdfrwt beam="2">  1       -3 0.11580888E-01 0.13580243E+03</pdfrwt>
<totfact> 0.14208239E+03</totfact>
</mgrwt>
</event>
<event>
 8    1  0.3520338E-004  0.4467832E+03  0.7546771E-02  0.1029375E+00
          1   -1    0    0  501    0  0.00000000000E+00  0.00000000000E+00  0.31699326555E+03  0.31699326555E+03  0.00000000000E+00 0. -1.
         -1   -1    0    0    0  501 -0.00000000000E+00 -0.00000000000E+00 -0.61811484719E+03  0.61811484719E+03  0.00000000000E+00 0.  1.
         25    2    1    2    0    0  0.43555714307E+02 -0.42672482889E+03 -0.13225518459E+03  0.46594706367E+03  0.12499620975E+03 0.  0.
         23    2    1    2    0    0 -0.43555714307E+02  0.42672482889E+03 -0.16886639705E+03  0.46916104907E+03  0.87206938199E+02 0.  0.
          5    1    4    4  502    0 -0.60782708495E+02  0.24686113693E+03 -0.72923810404E+02  0.26452775034E+03  0.47000000000E+01 0. -1.
         -5    1    4    4    0  502  0.17226994188E+02  0.17986369196E+03 -0.95942586649E+02  0.20463329873E+03  0.47000000000E+01 0.  1.
          5    1    3    3  503    0  0.53737339610E+02 -0.31080439164E+03 -0.41230750458E+02  0.31813383397E+03  0.47000000000E+01 0. -1.
         -5    1    3    3    0  503 -0.10181625303E+02 -0.11592043725E+03 -0.91024434132E+02  0.14781322970E+03  0.47000000000E+01 0. -1.
<mgrwt>
<rscale>  0 0.44449922E+03</rscale>
<asrwt>0</asrwt>
<pdfrwt beam="1">  1        1 0.48768195E-01 0.44678321E+03</pdfrwt>
<pdfrwt beam="2">  1       -1 0.95094591E-01 0.44678321E+03</pdfrwt>
<totfact> 0.90881975E+01</totfact>
</mgrwt>
</event>
<event>
 8    1  0.3520338E-004  0.1271657E+03  0.7546771E-02  0.1245094E+00
         -2   -1    0    0    0  501 -0.00000000000E+00  0.00000000000E+00  0.10440495048E+03  0.10440495048E+03  0.00000000000E+00 0.  1.
          2   -1    0    0  501    0  0.00000000000E+00 -0.00000000000E+00 -0.22067392151E+03  0.22067392151E+03  0.00000000000E+00 0. -1.
         25    2    1    2    0    0  0.22805307211E+02  0.50576250355E+01 -0.17156220035E+03  0.21355258891E+03  0.12500183213E+03 0.  0.
         23    2    1    2    0    0 -0.22805307211E+02 -0.50576250355E+01  0.55293229316E+02  0.11152628308E+03  0.93995260530E+02 0.  0.
          5    1    4    4  502    0 -0.48967282383E+02  0.78917375849E+01  0.11485748113E+01  0.49834561202E+02  0.47000000000E+01 0. -1.
         -5    1    3    3    0  503 -0.14100251372E+02  0.37454046484E+02 -0.15704033401E+03  0.16212766325E+03  0.47000000000E+01 0. -1.
          5    1    3    3  503    0  0.36905558583E+02 -0.32396421448E+02 -0.14521866339E+02  0.51424925658E+02  0.47000000000E+01 0. -1.
         -5    1    4    4    0  502  0.26161975172E+02 -0.12949362620E+02  0.54144654505E+02  0.61691721881E+02  0.47000000000E+01 0.  1.
<mgrwt>
<rscale>  0 0.11879751E+03</rscale>
<asrwt>0</asrwt>
<pdfrwt beam="1">  1        2 0.33949833E-01 0.12716572E+03</pdfrwt>
<pdfrwt beam="2">  1       -2 0.16062300E-01 0.12716572E+03</pdfrwt>
<totfact> 0.44602535E+03</totfact>
</mgrwt>
</event>
<event>
 8    1  0.3520338E-004  0.2244382E+03  0.7546771E-02  0.1134108E+00
         -1   -1    0    0    0  501 -0.00000000000E+00  0.00000000000E+00  0.66500942571E+02  0.66500942571E+02  0.00000000000E+00 0.  1.
          1   -1    0    0  501    0  0.00000000000E+00 -0.00000000000E+00 -0.78423871254E+03  0.78423871254E+03  0.00000000000E+00 0. -1.
         25    2    1    2    0    0 -0.86456429527E+02 -0.16514575054E+03 -0.23051203724E+03  0.32172706398E+03  0.12499868504E+03 0.  0.
         23    2    1    2    0    0  0.86456429527E+02  0.16514575054E+03 -0.48722573273E+03  0.52901259113E+03  0.87849722871E+02 0.  0.
          5    1    4    4  502    0  0.88083500393E+02  0.13500502256E+03 -0.46218693619E+03  0.48951395603E+03  0.47000000000E+01 0. -1.
         -5    1    4    4    0  502 -0.16270708662E+01  0.30140727982E+02 -0.25038796542E+02  0.39498635105E+02  0.47000000000E+01 0.  1.
          5    1    3    3  503    0 -0.95709371123E+01 -0.11168687565E+03 -0.18765014248E+03  0.21863263023E+03  0.47000000000E+01 0.  1.
         -5    1    3    3    0  503 -0.76885492415E+02 -0.53458874889E+02 -0.42861894758E+02  0.10309443375E+03  0.47000000000E+01 0.  1.
<mgrwt>
<rscale>  0 0.21969845E+03</rscale>
<asrwt>0</asrwt>
<pdfrwt beam="1">  1        1 0.12065212E+00 0.22443820E+03</pdfrwt>
<pdfrwt beam="2">  1       -1 0.10230914E-01 0.22443820E+03</pdfrwt>
<totfact> 0.13970657E+03</totfact>
</mgrwt>
</event>
<event>
 8    1  0.3520338E-004  0.1449385E+03  0.7546771E-02  0.1215839E+00
          2   -1    0    0  501    0  0.00000000000E+00  0.00000000000E+00  0.38537048719E+03  0.38537048719E+03  0.00000000000E+00 0. -1.
         -2   -1    0    0    0  501 -0.00000000000E+00 -0.00000000000E+00 -0.46946934799E+02  0.46946934799E+02  0.00000000000E+00 0.  1.
         25    2    1    2    0    0  0.66615413053E+02 -0.30733716393E+02  0.22379045417E+03  0.26662586263E+03  0.12500003466E+03 0.  0.
         23    2    1    2    0    0 -0.66615413053E+02  0.30733716393E+02  0.11463309823E+03  0.16569155937E+03  0.94502756872E+02 0.  0.
          5    1    4    4  502    0 -0.23616723431E+02  0.46283355522E+02  0.10707508830E+03  0.11910945872E+03  0.47000000000E+01 0. -1.
         -5    1    4    4    0  502 -0.42998689621E+02 -0.15549639129E+02  0.75580099334E+01  0.46582100643E+02  0.47000000000E+01 0.  1.
          5    1    3    3  503    0  0.63868382659E+02 -0.64439038046E+02  0.87537828440E+02  0.12616069648E+03  0.47000000000E+01 0. -1.
         -5    1    3    3    0  503  0.27470303936E+01  0.33705321653E+02  0.13625262573E+03  0.14046516615E+03  0.47000000000E+01 0. -1.
<mgrwt>
<rscale>  0 0.13815101E+03</rscale>
<asrwt>0</asrwt>
<pdfrwt beam="1">  1        2 0.59287765E-01 0.14493855E+03</pdfrwt>
<pdfrwt beam="2">  1       -2 0.72226056E-02 0.14493855E+03</pdfrwt>
<totfact> 0.88178176E+03</totfact>
</mgrwt>
</event>
<event>
 8    1  0.3520338E-004  0.1385950E+03  0.7546771E-02  0.1226826E+00
          4   -1    0    0  501    0  0.00000000000E+00  0.00000000000E+00  0.30810277040E+03  0.30810277040E+03  0.00000000000E+00 0.  1.
         -4   -1    0    0    0  501 -0.00000000000E+00 -0.00000000000E+00 -0.58711946590E+02  0.58711946590E+02  0.00000000000E+00 0. -1.
         25    2    1    2    0    0  0.29315365561E+02 -0.52177737269E+02  0.65710081328E+02  0.15338315629E+03  0.12500668350E+03 0.  0.
         23    2    1    2    0    0 -0.29315365561E+02  0.52177737269E+02  0.18368074248E+03  0.21343156070E+03  0.90733174865E+02 0.  0.
          5    1    3    3  502    0  0.44678486924E+02 -0.20308995090E+02  0.95119640755E+02  0.10713756826E+03  0.47000000000E+01 0.  1.
         -5    1    3    3    0  502 -0.15363121363E+02 -0.31868742179E+02 -0.29409559427E+02  0.46245588025E+02  0.47000000000E+01 0.  1.
          5    1    4    4  503    0 -0.38021878062E+02  0.20777256559E+02  0.22740929419E+02  0.49158900235E+02  0.47000000000E+01 0. -1.
         -5    1    4    4    0  503  0.87065125010E+01  0.31400480710E+02  0.16093981306E+03  0.16427266047E+03  0.47000000000E+01 0.  1.
<mgrwt>
<rscale>  0 0.13042542E+03</rscale>
<asrwt>0</asrwt>
<pdfrwt beam="1">  1        4 0.47400425E-01 0.13859501E+03</pdfrwt>
<pdfrwt beam="2">  1       -4 0.90326073E-02 0.13859501E+03</pdfrwt>
<totfact> 0.64839863E+02</totfact>
</mgrwt>
</event>
<event>
 8    1  0.3520338E-004  0.1313815E+03  0.7546771E-02  0.1243960E+00
          1   -1    0    0  501    0  0.00000000000E+00  0.00000000000E+00  0.12456781884E+03  0.12456781884E+03  0.00000000000E+00 0. -1.
         -1   -1    0    0    0  501 -0.00000000000E+00 -0.00000000000E+00 -0.10028266438E+03  0.10028266438E+03  0.00000000000E+00 0.  1.
         25    2    1    2    0    0  0.10470325047E+02  0.39072477619E+02  0.30164697359E+02  0.13479991258E+03  0.12499928500E+03 0.  0.
         23    2    1    2    0    0 -0.10470325047E+02 -0.39072477619E+02 -0.58795428937E+01  0.90050570640E+02  0.80238706582E+02 0.  0.
          5    1    4    4  502    0 -0.23207347108E+02 -0.30032811804E+01  0.29353648812E+02  0.37832887231E+02  0.47000000000E+01 0. -1.
         -5    1    3    3    0  503 -0.51812187967E+02  0.12285290438E+02 -0.12046758656E+02  0.54796401134E+02  0.47000000000E+01 0.  1.
          5    1    3    3  503    0  0.62282513014E+02  0.26787187181E+02  0.42211456015E+02  0.80003511444E+02  0.47000000000E+01 0.  1.
         -5    1    4    4    0  502  0.12737022061E+02 -0.36069196439E+02 -0.35233191706E+02  0.52217683408E+02  0.47000000000E+01 0.  1.
<mgrwt>
<rscale>  0 0.11947869E+03</rscale>
<asrwt>0</asrwt>
<pdfrwt beam="1">  1        1 0.19164280E-01 0.13138153E+03</pdfrwt>
<pdfrwt beam="2">  1       -1 0.15428102E-01 0.13138153E+03</pdfrwt>
<totfact> 0.78221587E+03</totfact>
</mgrwt>
</event>
<event>
 8    1  0.3520338E-004  0.2467928E+03  0.7546771E-02  0.1117789E+00
         -2   -1    0    0    0  501 -0.00000000000E+00  0.00000000000E+00  0.14741791137E+03  0.14741791137E+03  0.00000000000E+00 0.  1.
          2   -1    0    0  501    0  0.00000000000E+00 -0.00000000000E+00 -0.50236625934E+03  0.50236625934E+03  0.00000000000E+00 0. -1.
         25    2    1    2    0    0 -0.15998350790E+03  0.14030897693E+03 -0.27352429913E+02  0.24830394367E+03  0.12500144483E+03 0.  0.
         23    2    1    2    0    0  0.15998350790E+03 -0.14030897693E+03 -0.32759591806E+03  0.40148022704E+03  0.92660430452E+02 0.  0.
          5    1    3    3  502    0 -0.19453137502E+02  0.21775340693E+02  0.42331420279E+02  0.51639414828E+02  0.47000000000E+01 0. -1.
         -5    1    4    4    0  503  0.41388899494E+02 -0.14129936117E+02 -0.19694592668E+02  0.48194014943E+02  0.47000000000E+01 0.  1.
          5    1    4    4  503    0  0.11859460841E+03 -0.12617904082E+03 -0.30790132539E+03  0.35328621210E+03  0.47000000000E+01 0. -1.
         -5    1    3    3    0  502 -0.14053037040E+03  0.11853363624E+03 -0.69683850192E+02  0.19666452884E+03  0.47000000000E+01 0. -1.
<mgrwt>
<rscale>  0 0.24303287E+03</rscale>
<asrwt>0</asrwt>
<pdfrwt beam="1">  1        2 0.77287116E-01 0.24679281E+03</pdfrwt>
<pdfrwt beam="2">  1       -2 0.22679679E-01 0.24679281E+03</pdfrwt>
<totfact> 0.10465901E+03</totfact>
</mgrwt>
</event>
<event>
 8    1  0.3520338E-004  0.1464451E+03  0.7546771E-02  0.1214729E+00
          2   -1    0    0  501    0  0.00000000000E+00  0.00000000000E+00  0.18733886573E+03  0.18733886573E+03  0.00000000000E+00 0. -1.
         -2   -1    0    0    0  501 -0.00000000000E+00 -0.00000000000E+00 -0.99971801740E+02  0.99971801740E+02  0.00000000000E+00 0.  1.
         25    2    1    2    0    0  0.36478345209E+02 -0.67008864242E+02  0.83350179533E+02  0.16850346191E+03  0.12500122675E+03 0.  0.
         23    2    1    2    0    0 -0.36478345209E+02  0.67008864242E+02  0.40168844603E+01  0.11880720557E+03  0.90984389747E+02 0.  0.
          5    1    3    3  502    0 -0.30613091832E+02  0.60302776179E+01  0.58005005979E+02  0.66031782940E+02  0.47000000000E+01 0. -1.
         -5    1    3    3    0  502  0.67091437040E+02 -0.73039141860E+02  0.25345173555E+02  0.10247167897E+03  0.47000000000E+01 0. -1.
          5    1    4    4  503    0  0.17136528632E+02  0.50743223843E+02  0.24346318454E+02  0.59020069483E+02  0.47000000000E+01 0. -1.
         -5    1    4    4    0  503 -0.53614873841E+02  0.16265640399E+02 -0.20329433994E+02  0.59787136084E+02  0.47000000000E+01 0.  1.
<mgrwt>
<rscale>  0 0.13896477E+03</rscale>
<asrwt>0</asrwt>
<pdfrwt beam="1">  1        2 0.28821364E-01 0.14644509E+03</pdfrwt>
<pdfrwt beam="2">  1       -2 0.15380277E-01 0.14644509E+03</pdfrwt>
<totfact> 0.57655420E+03</totfact>
</mgrwt>
</event>
<event>
 8    1  0.3520338E-004  0.1290316E+03  0.7546771E-02  0.1242584E+00
         -3   -1    0    0    0  501 -0.00000000000E+00  0.00000000000E+00  0.37290352351E+02  0.37290352351E+02  0.00000000000E+00 0.  1.
          3   -1    0    0  501    0  0.00000000000E+00 -0.00000000000E+00 -0.36918348417E+03  0.36918348417E+03  0.00000000000E+00 0. -1.
         25    2    1    2    0    0  0.13827756193E+02 -0.28842682875E+02 -0.23992336944E+03  0.27241948429E+03  0.12500418001E+03 0.  0.
         23    2    1    2    0    0 -0.13827756193E+02  0.28842682875E+02 -0.91969762374E+02  0.13405435223E+03  0.92135904855E+02 0.  0.
          5    1    4    4  502    0  0.12347698921E+02 -0.28253630240E+02 -0.47983528087E+02  0.57229732291E+02  0.47000000000E+01 0. -1.
         -5    1    3    3    0  503  0.54192421657E+02 -0.56104069439E+02 -0.16970118544E+03  0.18682897932E+03  0.47000000000E+01 0. -1.
          5    1    3    3  503    0 -0.40364665464E+02  0.27261386564E+02 -0.70222184002E+02  0.85590504972E+02  0.47000000000E+01 0. -1.
         -5    1    4    4    0  502 -0.26175455115E+02  0.57096313115E+02 -0.43986234287E+02  0.76824619938E+02  0.47000000000E+01 0.  1.
<mgrwt>
<rscale>  0 0.12031140E+03</rscale>
<asrwt>0</asrwt>
<pdfrwt beam="1">  1        3 0.56797460E-01 0.12903159E+03</pdfrwt>
<pdfrwt beam="2">  1       -3 0.57369772E-02 0.12903159E+03</pdfrwt>
<totfact> 0.12882865E+03</totfact>
</mgrwt>
</event>
<event>
 8    1  0.3520338E-004  0.1689905E+03  0.7546771E-02  0.1184298E+00
         -2   -1    0    0    0  501 -0.00000000000E+00  0.00000000000E+00  0.12030982659E+02  0.12030982659E+02  0.00000000000E+00 0.  1.
          2   -1    0    0  501    0  0.00000000000E+00 -0.00000000000E+00 -0.21365409740E+04  0.21365409740E+04  0.00000000000E+00 0. -1.
         25    2    1    2    0    0  0.87671288295E+01  0.11338496413E+03 -0.10085664867E+04  0.10226260950E+04  0.12499903822E+03 0.  0.
         23    2    1    2    0    0 -0.87671288295E+01 -0.11338496413E+03 -0.11159435047E+04  0.11259458617E+04  0.97422610666E+02 0.  0.
          5    1    3    3  502    0  0.45142115242E+02  0.12099270099E+03 -0.70367913092E+03  0.71544633171E+03  0.47000000000E+01 0. -1.
         -5    1    3    3    0  502 -0.36374986413E+02 -0.76077368584E+01 -0.30488735574E+03  0.30717976331E+03  0.47000000000E+01 0. -1.
          5    1    4    4  503    0 -0.47250772956E+02 -0.35726549520E+02 -0.57777027693E+03  0.58081804792E+03  0.47000000000E+01 0. -1.
         -5    1    4    4    0  503  0.38483644127E+02 -0.77658414612E+02 -0.53817322778E+03  0.54512781375E+03  0.47000000000E+01 0.  1.
<mgrwt>
<rscale>  0 0.16395935E+03</rscale>
<asrwt>0</asrwt>
<pdfrwt beam="1">  1        2 0.32869867E+00 0.16899045E+03</pdfrwt>
<pdfrwt beam="2">  1       -2 0.18509201E-02 0.16899045E+03</pdfrwt>
<totfact> 0.54355410E+03</totfact>
</mgrwt>
</event>
<event>
 8    1  0.3520338E-004  0.1330219E+03  0.7546771E-02  0.1236602E+00
         -2   -1    0    0    0  501 -0.00000000000E+00  0.00000000000E+00  0.60003639148E+03  0.60003639148E+03  0.00000000000E+00 0.  1.
          2   -1    0    0  501    0  0.00000000000E+00 -0.00000000000E+00 -0.23383970157E+02  0.23383970157E+02  0.00000000000E+00 0. -1.
         25    2    1    2    0    0 -0.45490740057E+02  0.74054097224E+00  0.27547159892E+03  0.30590752624E+03  0.12499942788E+03 0.  0.
         23    2    1    2    0    0  0.45490740057E+02 -0.74054097224E+00  0.30118082241E+03  0.31751283540E+03  0.89635690574E+02 0.  0.
          5    1    4    4  502    0  0.50538671816E+02  0.23284908296E+02  0.97947577366E+02  0.11274822489E+03  0.47000000000E+01 0. -1.
         -5    1    3    3    0  503  0.23351386155E+02  0.24889847542E+02  0.19258404800E+02  0.39468568526E+02  0.47000000000E+01 0.  1.
          5    1    3    3  503    0 -0.68842126211E+02 -0.24149306569E+02  0.25621319412E+03  0.26643895771E+03  0.47000000000E+01 0.  1.
         -5    1    4    4    0  502 -0.50479317597E+01 -0.24025449268E+02  0.20323324504E+03  0.20476461051E+03  0.47000000000E+01 0.  1.
<mgrwt>
<rscale>  0 0.12402427E+03</rscale>
<asrwt>0</asrwt>
<pdfrwt beam="1">  1        2 0.35975343E-02 0.13302185E+03</pdfrwt>
<pdfrwt beam="2">  1       -2 0.92313279E-01 0.13302185E+03</pdfrwt>
<totfact> 0.24119838E+03</totfact>
</mgrwt>
</event>
<event>
 8    1  0.3520338E-004  0.1303141E+03  0.7546771E-02  0.1240814E+00
         -1   -1    0    0    0  501 -0.00000000000E+00  0.00000000000E+00  0.25627360640E+03  0.25627360640E+03  0.00000000000E+00 0.  1.
          1   -1    0    0  501    0  0.00000000000E+00 -0.00000000000E+00 -0.79187503694E+02  0.79187503694E+02  0.00000000000E+00 0. -1.
         25    2    1    2    0    0  0.14660047510E+02  0.33792997195E+02 -0.30262874475E+01  0.13034924450E+03  0.12499953389E+03 0.  0.
         23    2    1    2    0    0 -0.14660047510E+02 -0.33792997195E+02  0.18011239016E+03  0.20511186560E+03  0.90958895497E+02 0.  0.
          5    1    4    4  502    0  0.23846507129E+02  0.14541640817E+02  0.23919188989E+02  0.37071995115E+02  0.47000000000E+01 0. -1.
         -5    1    3    3    0  503  0.65295774563E+02  0.33072823121E+02  0.17666386676E+02  0.75442302610E+02  0.47000000000E+01 0.  1.
          5    1    3    3  503    0 -0.50635727053E+02  0.72017407480E+00 -0.20692674123E+02  0.54906941885E+02  0.47000000000E+01 0.  1.
         -5    1    4    4    0  502 -0.38506554639E+02 -0.48334638013E+02  0.15619320117E+03  0.16803987049E+03  0.47000000000E+01 0.  1.
<mgrwt>
<rscale>  0 0.12139454E+03</rscale>
<asrwt>0</asrwt>
<pdfrwt beam="1">  1        1 0.12182693E-01 0.13031411E+03</pdfrwt>
<pdfrwt beam="2">  1       -1 0.39426708E-01 0.13031411E+03</pdfrwt>
<totfact> 0.29982756E+03</totfact>
</mgrwt>
</event>
<event>
 8    1  0.3520338E-004  0.1383334E+03  0.7546771E-02  0.1227257E+00
         -4   -1    0    0    0  501 -0.00000000000E+00  0.00000000000E+00  0.36808232405E+03  0.36808232405E+03  0.00000000000E+00 0.  1.
          4   -1    0    0  501    0  0.00000000000E+00 -0.00000000000E+00 -0.41346097240E+02  0.41346097240E+02  0.00000000000E+00 0. -1.
         25    2    1    2    0    0  0.26348605141E+02 -0.53068097170E+02  0.17887329330E+03  0.22612340650E+03  0.12500267189E+03 0.  0.
         23    2    1    2    0    0 -0.26348605141E+02  0.53068097170E+02  0.14786293350E+03  0.18330501479E+03  0.90701760799E+02 0.  0.
          5    1    4    4  502    0 -0.86519119693E+01  0.27155080459E+02 -0.30933740051E+01  0.29050179658E+02  0.47000000000E+01 0. -1.
         -5    1    3    3    0  503  0.65933381331E+02 -0.38946662971E+02  0.16440745544E+03  0.18142754679E+03  0.47000000000E+01 0. -1.
          5    1    3    3  503    0 -0.39584776190E+02 -0.14121434200E+02  0.14465837860E+02  0.44695859706E+02  0.47000000000E+01 0. -1.
         -5    1    4    4    0  502 -0.17696693172E+02  0.25913016712E+02  0.15095630751E+03  0.15425483513E+03  0.47000000000E+01 0.  1.
<mgrwt>
<rscale>  0 0.13013416E+03</rscale>
<asrwt>0</asrwt>
<pdfrwt beam="1">  1        4 0.63609383E-02 0.13833344E+03</pdfrwt>
<pdfrwt beam="2">  1       -4 0.56628048E-01 0.13833344E+03</pdfrwt>
<totfact> 0.80320933E+02</totfact>
</mgrwt>
</event>
<event>
 8    1  0.3520338E-004  0.1278223E+03  0.7546771E-02  0.1245935E+00
         -3   -1    0    0    0  501 -0.00000000000E+00  0.00000000000E+00  0.32172700488E+03  0.32172700488E+03  0.00000000000E+00 0.  1.
          3   -1    0    0  501    0  0.00000000000E+00 -0.00000000000E+00 -0.39151226941E+02  0.39151226941E+02  0.00000000000E+00 0. -1.
         25    2    1    2    0    0 -0.22663691949E+02  0.14168144716E+02  0.19088838022E+03  0.22973226436E+03  0.12499664126E+03 0.  0.
         23    2    1    2    0    0  0.22663691949E+02 -0.14168144716E+02  0.91687397719E+02  0.13114596746E+03  0.89879400438E+02 0.  0.
          5    1    4    4  502    0 -0.14827137884E+02  0.30567551148E+02  0.42925163675E+02  0.54944325253E+02  0.47000000000E+01 0. -1.
         -5    1    4    4    0  502  0.37490829834E+02 -0.44735695864E+02  0.48762234045E+02  0.76201642207E+02  0.47000000000E+01 0.  1.
          5    1    3    3  503    0 -0.31875695182E+02 -0.27347803803E+02  0.94337453580E+01  0.43301822914E+02  0.47000000000E+01 0.  1.
         -5    1    3    3    0  503  0.92120032325E+01  0.41515948519E+02  0.18145463486E+03  0.18643044144E+03  0.47000000000E+01 0.  1.
<mgrwt>
<rscale>  0 0.11829603E+03</rscale>
<asrwt>0</asrwt>
<pdfrwt beam="1">  1        3 0.60232659E-02 0.12782230E+03</pdfrwt>
<pdfrwt beam="2">  1       -3 0.49496461E-01 0.12782230E+03</pdfrwt>
<totfact> 0.15688986E+03</totfact>
</mgrwt>
</event>
<event>
 8    1  0.3520338E-004  0.1307070E+03  0.7546771E-02  0.1241454E+00
         -2   -1    0    0    0  501 -0.00000000000E+00  0.00000000000E+00  0.70585558605E+02  0.70585558605E+02  0.00000000000E+00 0.  1.
          2   -1    0    0  501    0  0.00000000000E+00 -0.00000000000E+00 -0.19304887554E+03  0.19304887554E+03  0.00000000000E+00 0. -1.
         25    2    1    2    0    0  0.30279152480E+02 -0.23286772223E+02 -0.38931474501E+02  0.13638170056E+03  0.12500083082E+03 0.  0.
         23    2    1    2    0    0 -0.30279152480E+02  0.23286772223E+02 -0.83531842437E+02  0.12725273358E+03  0.88071497480E+02 0.  0.
          5    1    4    4  502    0  0.24891310538E+02 -0.83001335259E+01 -0.46312996281E+02  0.53436440575E+02  0.47000000000E+01 0. -1.
         -5    1    4    4    0  502 -0.55170463018E+02  0.31586905749E+02 -0.37218846156E+02  0.73816293009E+02  0.47000000000E+01 0.  1.
          5    1    3    3  503    0 -0.15888742591E+02 -0.64665370591E+02 -0.31338775648E+02  0.73744634746E+02  0.47000000000E+01 0.  1.
         -5    1    3    3    0  503  0.46167895071E+02  0.41378598368E+02 -0.75926988531E+01  0.62637065816E+02  0.47000000000E+01 0.  1.
<mgrwt>
<rscale>  0 0.12100129E+03</rscale>
<asrwt>0</asrwt>
<pdfrwt beam="1">  1        2 0.29699827E-01 0.13070696E+03</pdfrwt>
<pdfrwt beam="2">  1       -2 0.10859317E-01 0.13070696E+03</pdfrwt>
<totfact> 0.96953197E+03</totfact>
</mgrwt>
</event>
<event>
 8    1  0.3520338E-004  0.2565288E+03  0.7546771E-02  0.1111563E+00
          1   -1    0    0  501    0  0.00000000000E+00  0.00000000000E+00  0.22732044921E+03  0.22732044921E+03  0.00000000000E+00 0. -1.
         -1   -1    0    0    0  501 -0.00000000000E+00 -0.00000000000E+00 -0.27492192659E+03  0.27492192659E+03  0.00000000000E+00 0.  1.
         25    2    1    2    0    0 -0.19391495869E+03  0.11215614480E+03 -0.43870143655E+01  0.25656629330E+03  0.12500001978E+03 0.  0.
         23    2    1    2    0    0  0.19391495869E+03 -0.11215614480E+03 -0.43214463015E+02  0.24567608250E+03  0.91144038094E+02 0.  0.
          5    1    3    3  502    0  0.83829168508E+01  0.29131329677E+02  0.19799210003E+02  0.36510359906E+02  0.47000000000E+01 0. -1.
         -5    1    4    4    0  503  0.11906492260E+03 -0.55884849436E+02  0.19251791228E+02  0.13301238159E+03  0.47000000000E+01 0.  1.
          5    1    4    4  503    0  0.74850036090E+02 -0.56271295363E+02 -0.62466254244E+02  0.11266370091E+03  0.47000000000E+01 0. -1.
         -5    1    3    3    0  502 -0.20229787554E+03  0.83024815121E+02 -0.24186224369E+02  0.22005593340E+03  0.47000000000E+01 0. -1.
<mgrwt>
<rscale>  0 0.25277643E+03</rscale>
<asrwt>0</asrwt>
<pdfrwt beam="1">  1        1 0.34972377E-01 0.25652878E+03</pdfrwt>
<pdfrwt beam="2">  1       -1 0.42295681E-01 0.25652878E+03</pdfrwt>
<totfact> 0.69769920E+02</totfact>
</mgrwt>
</event>
<event>
 8    1  0.3520338E-004  0.1363709E+03  0.7546771E-02  0.1227658E+00
         -1   -1    0    0    0  501 -0.00000000000E+00  0.00000000000E+00  0.31514780339E+02  0.31514780339E+02  0.00000000000E+00 0.  1.
          1   -1    0    0  501    0  0.00000000000E+00 -0.00000000000E+00 -0.49003011541E+03  0.49003011541E+03  0.00000000000E+00 0. -1.
         25    2    1    2    0    0 -0.17411600066E+02 -0.51636726549E+02 -0.25512619207E+03  0.28928602950E+03  0.12501007015E+03 0.  0.
         23    2    1    2    0    0  0.17411600066E+02  0.51636726549E+02 -0.20338914300E+03  0.23225886625E+03  0.98017968326E+02 0.  0.
          5    1    3    3  502    0 -0.65706982993E+02 -0.17034175136E+02 -0.18578395802E+03  0.19785181272E+03  0.47000000000E+01 0.  1.
         -5    1    3    3    0  502  0.48295382926E+02 -0.34602551414E+02 -0.69342234048E+02  0.91434216785E+02  0.47000000000E+01 0.  1.
          5    1    4    4  503    0  0.33797114959E+02  0.18874282017E+02 -0.18841343315E+03  0.19240632861E+03  0.47000000000E+01 0. -1.
         -5    1    4    4    0  503 -0.16385514892E+02  0.32762444533E+02 -0.14975709852E+02  0.39852537631E+02  0.47000000000E+01 0.  1.
<mgrwt>
<rscale>  0 0.12986397E+03</rscale>
<asrwt>0</asrwt>
<pdfrwt beam="1">  1        1 0.75389250E-01 0.13637094E+03</pdfrwt>
<pdfrwt beam="2">  1       -1 0.48484276E-02 0.13637094E+03</pdfrwt>
<totfact> 0.81727339E+03</totfact>
</mgrwt>
</event>
<event>
 8    1  0.3520338E-004  0.1367237E+03  0.7546771E-02  0.1229086E+00
          2   -1    0    0  501    0  0.00000000000E+00  0.00000000000E+00  0.49182573431E+03  0.49182573431E+03  0.00000000000E+00 0. -1.
         -2   -1    0    0    0  501 -0.00000000000E+00 -0.00000000000E+00 -0.31848695870E+02  0.31848695870E+02  0.00000000000E+00 0.  1.
         25    2    1    2    0    0  0.11034013006E+02  0.54233765836E+02  0.31022544088E+03  0.33901799399E+03  0.12502129932E+03 0.  0.
         23    2    1    2    0    0 -0.11034013006E+02 -0.54233765836E+02  0.14975159756E+03  0.18465643619E+03  0.92786893760E+02 0.  0.
          5    1    3    3  502    0 -0.34999836057E+02  0.50208044327E+02  0.64885402841E+02  0.89319884354E+02  0.47000000000E+01 0.  1.
         -5    1    3    3    0  502  0.46033849062E+02  0.40257215083E+01  0.24534003803E+03  0.24969810964E+03  0.47000000000E+01 0.  1.
          5    1    4    4  503    0  0.34694039869E+02 -0.43435038546E+02  0.10829423955E+03  0.12181958503E+03  0.47000000000E+01 0. -1.
         -5    1    4    4    0  503 -0.45728052874E+02 -0.10798727290E+02  0.41457358011E+02  0.62836851162E+02  0.47000000000E+01 0.  1.
<mgrwt>
<rscale>  0 0.12890750E+03</rscale>
<asrwt>0</asrwt>
<pdfrwt beam="1">  1        2 0.75665492E-01 0.13672372E+03</pdfrwt>
<pdfrwt beam="2">  1       -2 0.48997997E-02 0.13672372E+03</pdfrwt>
<totfact> 0.12158372E+04</totfact>
</mgrwt>
</event>
<event>
 8    1  0.3520338E-004  0.3425055E+03  0.7546771E-02  0.1066933E+00
         -1   -1    0    0    0  501 -0.00000000000E+00  0.00000000000E+00  0.11740229822E+04  0.11740229822E+04  0.00000000000E+00 0.  1.
          1   -1    0    0  501    0  0.00000000000E+00 -0.00000000000E+00 -0.97486952309E+02  0.97486952309E+02  0.00000000000E+00 0. -1.
         25    2    1    2    0    0 -0.19324125666E+03 -0.25364384546E+03  0.48962666702E+03  0.59753182051E+03  0.12503047569E+03 0.  0.
         23    2    1    2    0    0  0.19324125666E+03  0.25364384546E+03  0.58690936289E+03  0.67397811402E+03  0.90036183332E+02 0.  0.
          5    1    3    3  502    0 -0.86606812833E+02 -0.18071580883E+03  0.21470400501E+03  0.29373260520E+03  0.47000000000E+01 0. -1.
         -5    1    4    4    0  503  0.11617106572E+03  0.21482496304E+03  0.45145862565E+03  0.51330542753E+03  0.47000000000E+01 0.  1.
          5    1    4    4  503    0  0.77070190946E+02  0.38818882418E+02  0.13545073724E+03  0.16067268649E+03  0.47000000000E+01 0. -1.
         -5    1    3    3    0  502 -0.10663444383E+03 -0.72928036630E+02  0.27492266201E+03  0.30379921531E+03  0.47000000000E+01 0. -1.
<mgrwt>
<rscale>  0 0.33967843E+03</rscale>
<asrwt>0</asrwt>
<pdfrwt beam="1">  1        1 0.14997993E-01 0.34250548E+03</pdfrwt>
<pdfrwt beam="2">  1       -1 0.18061891E+00 0.34250548E+03</pdfrwt>
<totfact> 0.83891835E+01</totfact>
</mgrwt>
</event>
<event>
 8    1  0.3520338E-004  0.1338523E+03  0.7546771E-02  0.1234839E+00
         -3   -1    0    0    0  501 -0.00000000000E+00  0.00000000000E+00  0.50921711725E+03  0.50921711725E+03  0.00000000000E+00 0. -1.
          3   -1    0    0  501    0  0.00000000000E+00 -0.00000000000E+00 -0.27477900505E+02  0.27477900505E+02  0.00000000000E+00 0.  1.
         25    2    1    2    0    0  0.29949757130E+02 -0.37290842027E+02  0.25671366909E+03  0.28951396505E+03  0.12501533188E+03 0.  0.
         23    2    1    2    0    0 -0.29949757130E+02  0.37290842027E+02  0.22502554765E+03  0.24718105271E+03  0.90412282744E+02 0.  0.
          5    1    3    3  502    0  0.68693489314E+02 -0.47821211080E+02  0.21791438350E+03  0.23348325901E+03  0.47000000000E+01 0.  1.
         -5    1    3    3    0  502 -0.38743732184E+02  0.10530369053E+02  0.38799285594E+02  0.56030706033E+02  0.47000000000E+01 0.  1.
          5    1    4    4  503    0  0.49818443634E+01  0.42448944895E+02  0.19760167297E+03  0.20222572254E+03  0.47000000000E+01 0. -1.
         -5    1    4    4    0  503 -0.34931601493E+02 -0.51581028680E+01  0.27423874682E+02  0.44955330169E+02  0.47000000000E+01 0.  1.
<mgrwt>
<rscale>  0 0.12514716E+03</rscale>
<asrwt>0</asrwt>
<pdfrwt beam="1">  1        3 0.42273697E-02 0.13385226E+03</pdfrwt>
<pdfrwt beam="2">  1       -3 0.78341088E-01 0.13385226E+03</pdfrwt>
<totfact> 0.10686958E+03</totfact>
</mgrwt>
</event>
<event>
 8    1  0.3520338E-004  0.1271810E+03  0.7546771E-02  0.1244501E+00
          1   -1    0    0  501    0  0.00000000000E+00  0.00000000000E+00  0.94489128244E+03  0.94489128244E+03  0.00000000000E+00 0. -1.
         -1   -1    0    0    0  501 -0.00000000000E+00 -0.00000000000E+00 -0.14808678068E+02  0.14808678068E+02  0.00000000000E+00 0.  1.
         25    2    1    2    0    0 -0.36336739414E+01 -0.23196892326E+02  0.66579495204E+03  0.67783325878E+03  0.12499483646E+03 0.  0.
         23    2    1    2    0    0  0.36336739414E+01  0.23196892326E+02  0.26428765234E+03  0.28186670174E+03  0.95129254021E+02 0.  0.
          5    1    4    4  502    0  0.16841527686E+02  0.55833561519E+02  0.20043023637E+03  0.20879509884E+03  0.47000000000E+01 0. -1.
         -5    1    3    3    0  503 -0.24550177799E+02  0.46860088018E+02  0.24283457542E+03  0.24857453630E+03  0.47000000000E+01 0.  1.
          5    1    3    3  503    0  0.20916503858E+02 -0.70056980344E+02  0.42296037662E+03  0.42925872247E+03  0.47000000000E+01 0.  1.
         -5    1    4    4    0  502 -0.13207853744E+02 -0.32636669193E+02  0.63857415968E+02  0.73071602902E+02  0.47000000000E+01 0.  1.
<mgrwt>
<rscale>  0 0.11915315E+03</rscale>
<asrwt>0</asrwt>
<pdfrwt beam="1">  1        1 0.14536784E+00 0.12718101E+03</pdfrwt>
<pdfrwt beam="2">  1       -1 0.22782589E-02 0.12718101E+03</pdfrwt>
<totfact> 0.95800316E+03</totfact>
</mgrwt>
</event>
<event>
 8    1  0.3520338E-004  0.2273281E+03  0.7546771E-02  0.1130668E+00
          2   -1    0    0  501    0  0.00000000000E+00  0.00000000000E+00  0.37778219110E+03  0.37778219110E+03  0.00000000000E+00 0. -1.
         -2   -1    0    0    0  501 -0.00000000000E+00 -0.00000000000E+00 -0.14015002767E+03  0.14015002767E+03  0.00000000000E+00 0.  1.
         25    2    1    2    0    0  0.21575547917E+02  0.18865153330E+03  0.51677261226E+02  0.23312791313E+03  0.12499271685E+03 0.  0.
         23    2    1    2    0    0 -0.21575547917E+02 -0.18865153330E+03  0.18595490220E+03  0.28480430564E+03  0.10236875294E+03 0.  0.
          5    1    4    4  502    0  0.40077667820E+02 -0.52793803489E+02  0.57874510809E+02  0.88118977219E+02  0.47000000000E+01 0. -1.
         -5    1    4    4    0  502 -0.61653215737E+02 -0.13585772981E+03  0.12808039139E+03  0.19668532843E+03  0.47000000000E+01 0.  1.
          5    1    3    3  503    0  0.15013219158E+01  0.20260576633E+02  0.59753321554E+02  0.63287395031E+02  0.47000000000E+01 0.  1.
         -5    1    3    3    0  503  0.20074226001E+02  0.16839095667E+03 -0.80760603283E+01  0.16984051810E+03  0.47000000000E+01 0.  1.
<mgrwt>
<rscale>  0 0.22436831E+03</rscale>
<asrwt>0</asrwt>
<pdfrwt beam="1">  1        2 0.58120337E-01 0.22732814E+03</pdfrwt>
<pdfrwt beam="2">  1       -2 0.21561543E-01 0.22732814E+03</pdfrwt>
<totfact> 0.15617256E+03</totfact>
</mgrwt>
</event>
<event>
 8    1  0.3520338E-004  0.1286580E+03  0.7546771E-02  0.1244103E+00
         -2   -1    0    0    0  501 -0.00000000000E+00  0.00000000000E+00  0.15422861608E+02  0.15422861608E+02  0.00000000000E+00 0.  1.
          2   -1    0    0  501    0  0.00000000000E+00 -0.00000000000E+00 -0.83375899250E+03  0.83375899250E+03  0.00000000000E+00 0. -1.
         25    2    1    2    0    0  0.22316002253E+02  0.20745404551E+02 -0.53335282920E+03  0.54865117943E+03  0.12499800202E+03 0.  0.
         23    2    1    2    0    0 -0.22316002253E+02 -0.20745404551E+02 -0.28498330169E+03  0.30053067468E+03  0.90414757712E+02 0.  0.
          5    1    4    4  502    0 -0.22709041527E+02  0.31326241377E+02 -0.16688662934E+03  0.17137756859E+03  0.47000000000E+01 0. -1.
         -5    1    4    4    0  502  0.39303927304E+00 -0.52071645928E+02 -0.11809667236E+03  0.12915310609E+03  0.47000000000E+01 0.  1.
          5    1    3    3  503    0 -0.35309327725E+02  0.21260981926E+02 -0.41355423934E+03  0.41562961499E+03  0.47000000000E+01 0. -1.
         -5    1    3    3    0  503  0.57625329978E+02 -0.51557737500E+00 -0.11979858986E+03  0.13302156445E+03  0.47000000000E+01 0. -1.
<mgrwt>
<rscale>  0 0.11939244E+03</rscale>
<asrwt>0</asrwt>
<pdfrwt beam="1">  1        2 0.12827061E+00 0.12865798E+03</pdfrwt>
<pdfrwt beam="2">  1       -2 0.23727480E-02 0.12865798E+03</pdfrwt>
<totfact> 0.19108716E+04</totfact>
</mgrwt>
</event>
