<event>
 8    1  0.5224537E-004  0.1870361E+03  0.7546771E-02  0.1161619E+00
          1   -1    0    0  501    0  0.00000000000E+00  0.00000000000E+00  0.27901312456E+03  0.27901312456E+03  0.00000000000E+00 0. -1.
         -1   -1    0    0    0  501 -0.00000000000E+00 -0.00000000000E+00 -0.14859349880E+03  0.14859349880E+03  0.00000000000E+00 0.  1.
         23    2    1    2    0    0 -0.13218090035E+03 -0.92922174628E+02 -0.21956306877E+02  0.18635790577E+03  0.90226762540E+02 0.  0.
         23    2    1    2    0    0  0.13218090035E+03  0.92922174628E+02  0.15237593264E+03  0.24124871759E+03  0.94213576174E+02 0.  0.
          5    1    4    4  502    0  0.56474172087E+02  0.29652533518E+02  0.12226831127E+03  0.13798635729E+03  0.47000000000E+01 0. -1.
         -5    1    4    4    0  502  0.75706728259E+02  0.63269641110E+02  0.30107621373E+02  0.10326236030E+03  0.47000000000E+01 0.  1.
          5    1    3    3  503    0  0.42993116921E+01 -0.33249357192E+02  0.69267079775E+01  0.34555363087E+02  0.47000000000E+01 0. -1.
         -5    1    3    3    0  503 -0.13648021204E+03 -0.59672817436E+02 -0.28883014855E+02  0.15180254269E+03  0.47000000000E+01 0.  1.
<mgrwt>
<rscale>  0 0.18654013E+03</rscale>
<asrwt>0</asrwt>
<pdfrwt beam="1">  1        1 0.42925096E-01 0.18703614E+03</pdfrwt>
<pdfrwt beam="2">  1       -1 0.22860538E-01 0.18703614E+03</pdfrwt>
<totfact> 0.15401884E+03</totfact>
</mgrwt>
</event>
<event>
 8    1  0.5224537E-004  0.9056294E+02  0.7546771E-02  0.1302066E+00
         -2   -1    0    0    0  501 -0.00000000000E+00  0.00000000000E+00  0.35737575032E+03  0.35737575032E+03  0.00000000000E+00 0.  1.
          2   -1    0    0  501    0  0.00000000000E+00 -0.00000000000E+00 -0.44792918270E+02  0.44792918270E+02  0.00000000000E+00 0. -1.
         23    2    1    2    0    0  0.10905071450E+02  0.31596207679E+01  0.29706262804E+03  0.31028546677E+03  0.88892981273E+02 0.  0.
         23    2    1    2    0    0 -0.10905071450E+02 -0.31596207679E+01  0.15520204007E+02  0.91883201825E+02  0.89848440490E+02 0.  0.
          5    1    3    3  502    0  0.42772120272E+01  0.45215928391E+02  0.12870948391E+03  0.13656864930E+03  0.47000000000E+01 0. -1.
         -5    1    4    4    0  503  0.16340091098E+02 -0.40571717500E+02  0.91170265424E+01  0.44925193500E+02  0.47000000000E+01 0.  1.
          5    1    4    4  503    0 -0.27245162548E+02  0.37412096732E+02  0.64031774648E+01  0.46958008325E+02  0.47000000000E+01 0. -1.
         -5    1    3    3    0  502  0.66278594231E+01 -0.42056307623E+02  0.16835314413E+03  0.17371681746E+03  0.47000000000E+01 0.  1.
<mgrwt>
<rscale>  0 0.90325044E+02</rscale>
<asrwt>0</asrwt>
<pdfrwt beam="1">  1        2 0.68912184E-02 0.90562940E+02</pdfrwt>
<pdfrwt beam="2">  1       -2 0.54980883E-01 0.90562940E+02</pdfrwt>
<totfact> 0.30373729E+03</totfact>
</mgrwt>
</event>
<event>
 8    1  0.5224537E-004  0.1100454E+03  0.7546771E-02  0.1262504E+00
          2   -1    0    0  501    0  0.00000000000E+00  0.00000000000E+00  0.54677807990E+03  0.54677807990E+03  0.00000000000E+00 0. -1.
         -2   -1    0    0    0  501 -0.00000000000E+00 -0.00000000000E+00 -0.26180329574E+02  0.26180329574E+02  0.00000000000E+00 0.  1.
         23    2    1    2    0    0  0.31038615304E+02  0.46704251650E+02  0.13239991659E+03  0.16946424229E+03  0.89686725536E+02 0.  0.
         23    2    1    2    0    0 -0.31038615304E+02 -0.46704251650E+02  0.38819783373E+03  0.40349416718E+03  0.94685279096E+02 0.  0.
          5    1    3    3  502    0  0.53340877884E+02  0.32362194206E+01  0.48795835056E+02  0.72517900468E+02  0.47000000000E+01 0. -1.
         -5    1    4    4    0  503 -0.59602125578E+02 -0.10620277373E+02  0.17204854576E+03  0.18244998154E+03  0.47000000000E+01 0.  1.
          5    1    4    4  503    0  0.28563510273E+02 -0.36083974277E+02  0.21614928797E+03  0.22104418564E+03  0.47000000000E+01 0. -1.
         -5    1    3    3    0  502 -0.22302262579E+02  0.43468032229E+02  0.83604081539E+02  0.96946341818E+02  0.47000000000E+01 0.  1.
<mgrwt>
<rscale>  0 0.10896193E+03</rscale>
<asrwt>0</asrwt>
<pdfrwt beam="1">  1        2 0.84119696E-01 0.11004538E+03</pdfrwt>
<pdfrwt beam="2">  1       -2 0.40277434E-02 0.11004538E+03</pdfrwt>
<totfact> 0.14244886E+04</totfact>
</mgrwt>
</event>
<event>
 8    1  0.5224537E-004  0.9323389E+02  0.7546771E-02  0.1295227E+00
         -1   -1    0    0    0  501 -0.00000000000E+00  0.00000000000E+00  0.60976654220E+03  0.60976654220E+03  0.00000000000E+00 0.  1.
          1   -1    0    0  501    0  0.00000000000E+00 -0.00000000000E+00 -0.50019432222E+02  0.50019432222E+02  0.00000000000E+00 0. -1.
         23    2    1    2    0    0  0.13745661106E+02 -0.96514908854E+01  0.55886446470E+03  0.56658807591E+03  0.91708578578E+02 0.  0.
         23    2    1    2    0    0 -0.13745661106E+02  0.96514908854E+01  0.88264528412E+00  0.93197898516E+02  0.91667741052E+02 0.  0.
          5    1    3    3  502    0 -0.16521443626E+02 -0.37353236782E+02  0.14646686417E+03  0.15212775781E+03  0.47000000000E+01 0. -1.
         -5    1    3    3    0  502  0.30267104732E+02  0.27701745897E+02  0.41239760052E+03  0.41446031809E+03  0.47000000000E+01 0.  1.
          5    1    4    4  503    0 -0.45925915027E+02 -0.16410587286E+02 -0.10258935241E+02  0.50058294002E+02  0.47000000000E+01 0. -1.
         -5    1    4    4    0  503  0.32180253921E+02  0.26062078171E+02  0.11141580526E+02  0.43139604514E+02  0.47000000000E+01 0.  1.
<mgrwt>
<rscale>  0 0.93223844E+02</rscale>
<asrwt>0</asrwt>
<pdfrwt beam="1">  1        1 0.76952977E-02 0.93233888E+02</pdfrwt>
<pdfrwt beam="2">  1       -1 0.93810232E-01 0.93233888E+02</pdfrwt>
<totfact> 0.10347601E+03</totfact>
</mgrwt>
</event>
<event>
 8    1  0.5224537E-004  0.1327154E+03  0.7546771E-02  0.1223913E+00
          2   -1    0    0  501    0  0.00000000000E+00  0.00000000000E+00  0.91485996351E+03  0.91485996351E+03  0.00000000000E+00 0. -1.
         -2   -1    0    0    0  501 -0.00000000000E+00 -0.00000000000E+00 -0.19641842537E+02  0.19641842537E+02  0.00000000000E+00 0.  1.
         23    2    1    2    0    0 -0.66622360515E+02 -0.68134295850E+02  0.52464527291E+03  0.54088064394E+03  0.90655322030E+02 0.  0.
         23    2    1    2    0    0  0.66622360515E+02  0.68134295850E+02  0.37057284806E+03  0.39362116210E+03  0.92371869872E+02 0.  0.
          5    1    3    3  502    0 -0.12552381261E+02 -0.33592491514E+02  0.48989622742E+02  0.60894095755E+02  0.47000000000E+01 0. -1.
         -5    1    4    4    0  503  0.43167538379E+02  0.36141273485E+02  0.67927373883E+02  0.88350699723E+02  0.47000000000E+01 0.  1.
          5    1    4    4  503    0  0.23454822136E+02  0.31993022365E+02  0.30264547418E+03  0.30527046238E+03  0.47000000000E+01 0. -1.
         -5    1    3    3    0  502 -0.54069979253E+02 -0.34541804337E+02  0.47565565017E+03  0.47998654819E+03  0.47000000000E+01 0.  1.
<mgrwt>
<rscale>  0 0.13241718E+03</rscale>
<asrwt>0</asrwt>
<pdfrwt beam="1">  1        2 0.14074765E+00 0.13271542E+03</pdfrwt>
<pdfrwt beam="2">  1       -2 0.30218226E-02 0.13271542E+03</pdfrwt>
<totfact> 0.11930705E+04</totfact>
</mgrwt>
</event>
<event>
 8    1  0.5224537E-004  0.1438505E+03  0.7546771E-02  0.1208919E+00
          2   -1    0    0  501    0  0.00000000000E+00  0.00000000000E+00  0.17181416330E+04  0.17181416330E+04  0.00000000000E+00 0. -1.
         -2   -1    0    0    0  501 -0.00000000000E+00 -0.00000000000E+00 -0.16298257453E+02  0.16298257453E+02  0.00000000000E+00 0.  1.
         23    2    1    2    0    0  0.39521341410E+02  0.10228963750E+03  0.13074320740E+04  0.13153218555E+04  0.93101284252E+02 0.  0.
         23    2    1    2    0    0 -0.39521341410E+02 -0.10228963750E+03  0.39441130151E+03  0.41911803489E+03  0.89858477876E+02 0.  0.
          5    1    3    3  502    0  0.10489635373E+02  0.11220512644E+03  0.10346349095E+04  0.10407648672E+04  0.47000000000E+01 0. -1.
         -5    1    3    3    0  502  0.29031706037E+02 -0.99154889419E+01  0.27279716449E+03  0.27455698832E+03  0.47000000000E+01 0.  1.
          5    1    4    4  503    0 -0.42356417711E+02 -0.40241185418E+01  0.13708932127E+03  0.14361696160E+03  0.47000000000E+01 0. -1.
         -5    1    4    4    0  503  0.28350763005E+01 -0.98265518954E+02  0.25732198023E+03  0.27550107329E+03  0.47000000000E+01 0.  1.
<mgrwt>
<rscale>  0 0.14332832E+03</rscale>
<asrwt>0</asrwt>
<pdfrwt beam="1">  1        2 0.26432934E+00 0.14385046E+03</pdfrwt>
<pdfrwt beam="2">  1       -2 0.25074256E-02 0.14385046E+03</pdfrwt>
<totfact> 0.57159677E+03</totfact>
</mgrwt>
</event>
<event>
 8    1  0.5224537E-004  0.1131515E+03  0.7546771E-02  0.1256197E+00
          1   -1    0    0  501    0  0.00000000000E+00  0.00000000000E+00  0.24185190236E+03  0.24185190236E+03  0.00000000000E+00 0. -1.
         -1   -1    0    0    0  501 -0.00000000000E+00 -0.00000000000E+00 -0.53380856879E+02  0.53380856879E+02  0.00000000000E+00 0.  1.
         23    2    1    2    0    0  0.47712575727E+02 -0.43186119388E+02  0.12037485264E+03  0.16317081178E+03  0.89404014886E+02 0.  0.
         23    2    1    2    0    0 -0.47712575727E+02  0.43186119388E+02  0.68096192839E+02  0.13206194746E+03  0.93068446304E+02 0.  0.
          5    1    4    4  502    0 -0.37570899276E+02  0.72312304930E+02  0.53679529123E+02  0.97694543161E+02  0.47000000000E+01 0. -1.
         -5    1    4    4    0  502 -0.10141676451E+02 -0.29126185542E+02  0.14416663716E+02  0.34367404298E+02  0.47000000000E+01 0.  1.
          5    1    3    3  503    0  0.64258869221E+02 -0.23363529187E+01  0.58491980965E+02  0.87052068647E+02  0.47000000000E+01 0. -1.
         -5    1    3    3    0  503 -0.16546293495E+02 -0.40849766469E+02  0.61882871673E+02  0.76118743129E+02  0.47000000000E+01 0.  1.
<mgrwt>
<rscale>  0 0.11239539E+03</rscale>
<asrwt>0</asrwt>
<pdfrwt beam="1">  1        1 0.37207985E-01 0.11315152E+03</pdfrwt>
<pdfrwt beam="2">  1       -1 0.82124396E-02 0.11315152E+03</pdfrwt>
<totfact> 0.88848802E+03</totfact>
</mgrwt>
</event>
<event>
 8    1  0.5224537E-004  0.9551214E+02  0.7546771E-02  0.1291267E+00
         -2   -1    0    0    0  501 -0.00000000000E+00  0.00000000000E+00  0.57460481112E+02  0.57460481112E+02  0.00000000000E+00 0.  1.
          2   -1    0    0  501    0  0.00000000000E+00 -0.00000000000E+00 -0.15975331131E+03  0.15975331131E+03  0.00000000000E+00 0. -1.
         23    2    1    2    0    0  0.19365004243E+02  0.82694255457E+01 -0.70175211284E+02  0.11852058814E+03  0.93162131504E+02 0.  0.
         23    2    1    2    0    0 -0.19365004243E+02 -0.82694255457E+01 -0.32117618911E+02  0.98693204279E+02  0.90914357162E+02 0.  0.
          5    1    4    4  502    0 -0.49190397343E+02 -0.28070240768E+02 -0.23966791386E+02  0.61677635306E+02  0.47000000000E+01 0. -1.
         -5    1    4    4    0  502  0.29825393100E+02  0.19800815223E+02 -0.81508275252E+01  0.37015568973E+02  0.47000000000E+01 0.  1.
          5    1    3    3  503    0  0.91475372143E+01 -0.41956164367E+02 -0.39909579535E+02  0.58812088078E+02  0.47000000000E+01 0. -1.
         -5    1    3    3    0  503  0.10217467029E+02  0.50225589913E+02 -0.30265631749E+02  0.59708500063E+02  0.47000000000E+01 0.  1.
<mgrwt>
<rscale>  0 0.94959578E+02</rscale>
<asrwt>0</asrwt>
<pdfrwt beam="1">  1        2 0.24577432E-01 0.95512143E+02</pdfrwt>
<pdfrwt beam="2">  1       -2 0.88400742E-02 0.95512143E+02</pdfrwt>
<totfact> 0.15966571E+04</totfact>
</mgrwt>
</event>
<event>
 8    1  0.5224537E-004  0.1559729E+03  0.7546771E-02  0.1193671E+00
         -1   -1    0    0    0  501 -0.00000000000E+00  0.00000000000E+00  0.38668600875E+02  0.38668600875E+02  0.00000000000E+00 0.  1.
          1   -1    0    0  501    0  0.00000000000E+00 -0.00000000000E+00 -0.97157834409E+03  0.97157834409E+03  0.00000000000E+00 0. -1.
         23    2    1    2    0    0 -0.83471802179E+02 -0.92743556908E+02 -0.16562199619E+03  0.22750425534E+03  0.93587560424E+02 0.  0.
         23    2    1    2    0    0  0.83471802179E+02  0.92743556908E+02 -0.76728774702E+03  0.78274268963E+03  0.91579049631E+02 0.  0.
          5    1    3    3  502    0 -0.47831585401E+02  0.61470792947E+01 -0.71232550490E+02  0.86149947157E+02  0.47000000000E+01 0. -1.
         -5    1    4    4    0  503 -0.12734159148E+02  0.43309583021E+02 -0.27193524808E+03  0.27569684064E+03  0.47000000000E+01 0.  1.
          5    1    4    4  503    0  0.96205961327E+02  0.49433973887E+02 -0.49535249894E+03  0.50704584899E+03  0.47000000000E+01 0. -1.
         -5    1    3    3    0  502 -0.35640216777E+02 -0.98890636203E+02 -0.94389445703E+02  0.14135430818E+03  0.47000000000E+01 0.  1.
<mgrwt>
<rscale>  0 0.15567282E+03</rscale>
<asrwt>0</asrwt>
<pdfrwt beam="1">  1        1 0.14947360E+00 0.15597288E+03</pdfrwt>
<pdfrwt beam="2">  1       -1 0.59490154E-02 0.15597288E+03</pdfrwt>
<totfact> 0.22558832E+03</totfact>
</mgrwt>
</event>
<event>
 8    1  0.5224537E-004  0.1278708E+03  0.7546771E-02  0.1231209E+00
          1   -1    0    0  501    0  0.00000000000E+00  0.00000000000E+00  0.94400549629E+03  0.94400549629E+03  0.00000000000E+00 0. -1.
         -1   -1    0    0    0  501 -0.00000000000E+00 -0.00000000000E+00 -0.32900662958E+02  0.32900662958E+02  0.00000000000E+00 0.  1.
         23    2    1    2    0    0  0.78990158508E+02  0.43034907242E+02  0.11593503487E+03  0.17152056546E+03  0.88808353680E+02 0.  0.
         23    2    1    2    0    0 -0.78990158508E+02 -0.43034907242E+02  0.79516979846E+03  0.80538559379E+03  0.90881779853E+02 0.  0.
          5    1    3    3  502    0 -0.21042152260E+01  0.41171165118E+02  0.59714931190E+02  0.72714892325E+02  0.47000000000E+01 0. -1.
         -5    1    3    3    0  502  0.81094373734E+02  0.18637421242E+01  0.56220103680E+02  0.98805673136E+02  0.47000000000E+01 0.  1.
          5    1    4    4  503    0 -0.44659152623E+02  0.19531972600E+02  0.46422146158E+03  0.46679716501E+03  0.47000000000E+01 0. -1.
         -5    1    4    4    0  503 -0.34331005885E+02 -0.62566879842E+02  0.33094833688E+03  0.33858842878E+03  0.47000000000E+01 0.  1.
<mgrwt>
<rscale>  0 0.12750293E+03</rscale>
<asrwt>0</asrwt>
<pdfrwt beam="1">  1        1 0.14523159E+00 0.12787082E+03</pdfrwt>
<pdfrwt beam="2">  1       -1 0.50616412E-02 0.12787082E+03</pdfrwt>
<totfact> 0.29934650E+03</totfact>
</mgrwt>
</event>
<event>
 8    1  0.5224537E-004  0.1125214E+03  0.7546771E-02  0.1256505E+00
         -1   -1    0    0    0  501 -0.00000000000E+00  0.00000000000E+00  0.30002085527E+02  0.30002085527E+02  0.00000000000E+00 0.  1.
          1   -1    0    0  501    0  0.00000000000E+00 -0.00000000000E+00 -0.44571850042E+03  0.44571850042E+03  0.00000000000E+00 0. -1.
         23    2    1    2    0    0  0.41356725786E+02 -0.49323596253E+02 -0.14912425616E+03  0.18681300896E+03  0.92292256579E+02 0.  0.
         23    2    1    2    0    0 -0.41356725786E+02  0.49323596253E+02 -0.26659215873E+03  0.28890757699E+03  0.90846095298E+02 0.  0.
          5    1    4    4  502    0 -0.86237699269E+01  0.70312175069E+02 -0.15092845021E+03  0.16679226137E+03  0.47000000000E+01 0. -1.
         -5    1    3    3    0  503  0.12199561082E+01 -0.39191340891E+02 -0.88336215273E+01  0.40466929251E+02  0.47000000000E+01 0.  1.
          5    1    3    3  503    0  0.40136769678E+02 -0.10132255362E+02 -0.14029063463E+03  0.14634607970E+03  0.47000000000E+01 0. -1.
         -5    1    4    4    0  502 -0.32732955859E+02 -0.20988578816E+02 -0.11566370852E+03  0.12211531562E+03  0.47000000000E+01 0.  1.
<mgrwt>
<rscale>  0 0.11222441E+03</rscale>
<asrwt>0</asrwt>
<pdfrwt beam="1">  1        1 0.68572072E-01 0.11252136E+03</pdfrwt>
<pdfrwt beam="2">  1       -1 0.46157058E-02 0.11252136E+03</pdfrwt>
<totfact> 0.97907966E+03</totfact>
</mgrwt>
</event>
<event>
 8    1  0.5224537E-004  0.1009085E+03  0.7546771E-02  0.1283289E+00
          2   -1    0    0  501    0  0.00000000000E+00  0.00000000000E+00  0.58383206157E+03  0.58383206157E+03  0.00000000000E+00 0. -1.
         -2   -1    0    0    0  501 -0.00000000000E+00 -0.00000000000E+00 -0.21875428885E+02  0.21875428885E+02  0.00000000000E+00 0.  1.
         23    2    1    2    0    0  0.16047981848E+02  0.11021645167E+02  0.11366941755E+03  0.14620345861E+03  0.89864901050E+02 0.  0.
         23    2    1    2    0    0 -0.16047981848E+02 -0.11021645167E+02  0.44828721513E+03  0.45950403184E+03  0.99012694345E+02 0.  0.
          5    1    4    4  502    0  0.15546364684E+02 -0.47135426395E+02  0.28180913781E+03  0.28618511148E+03  0.47000000000E+01 0. -1.
         -5    1    4    4    0  502 -0.31594346533E+02  0.36113781228E+02  0.16647807732E+03  0.17331892036E+03  0.47000000000E+01 0.  1.
          5    1    3    3  503    0 -0.20807445197E+02 -0.29860724096E+02  0.46382951149E+02  0.59144575207E+02  0.47000000000E+01 0. -1.
         -5    1    3    3    0  503  0.36855427045E+02  0.40882369262E+02  0.67286466401E+02  0.87058883406E+02  0.47000000000E+01 0.  1.
<mgrwt>
<rscale>  0 0.98590082E+02</rscale>
<asrwt>0</asrwt>
<pdfrwt beam="1">  1        2 0.89820305E-01 0.10090851E+03</pdfrwt>
<pdfrwt beam="2">  1       -2 0.33654510E-02 0.10090851E+03</pdfrwt>
<totfact> 0.17121495E+04</totfact>
</mgrwt>
</event>
<event>
 8    1  0.5224537E-004  0.2397259E+03  0.7546771E-02  0.1119983E+00
         -1   -1    0    0    0  501 -0.00000000000E+00  0.00000000000E+00  0.59318201370E+02  0.59318201370E+02  0.00000000000E+00 0.  1.
          1   -1    0    0  501    0  0.00000000000E+00 -0.00000000000E+00 -0.11332598103E+04  0.11332598103E+04  0.00000000000E+00 0. -1.
         23    2    1    2    0    0  0.12294643785E+03 -0.18681248640E+03 -0.76419983763E+03  0.80090408671E+03  0.86204597454E+02 0.  0.
         23    2    1    2    0    0 -0.12294643785E+03  0.18681248640E+03 -0.30974177125E+03  0.39167392491E+03  0.86335201048E+02 0.  0.
          5    1    4    4  502    0 -0.49987478183E+02  0.16771113906E+02 -0.50681775828E+02  0.73285405353E+02  0.47000000000E+01 0. -1.
         -5    1    4    4    0  502 -0.72958959669E+02  0.17004137250E+03 -0.25905999543E+03  0.31838851956E+03  0.47000000000E+01 0.  1.
          5    1    3    3  503    0  0.90569892886E+02 -0.13984483342E+03 -0.67216021988E+03  0.69251782224E+03  0.47000000000E+01 0. -1.
         -5    1    3    3    0  503  0.32376544967E+02 -0.46967652982E+02 -0.92039617752E+02  0.10838626447E+03  0.47000000000E+01 0.  1.
<mgrwt>
<rscale>  0 0.23971413E+03</rscale>
<asrwt>0</asrwt>
<pdfrwt beam="1">  1        1 0.17434765E+00 0.23972588E+03</pdfrwt>
<pdfrwt beam="2">  1       -1 0.91258778E-02 0.23972588E+03</pdfrwt>
<totfact> 0.90013450E+02</totfact>
</mgrwt>
</event>
<event>
 8    1  0.5224537E-004  0.1264602E+03  0.7546771E-02  0.1238023E+00
          2   -1    0    0  501    0  0.00000000000E+00  0.00000000000E+00  0.81394266318E+03  0.81394266318E+03  0.00000000000E+00 0. -1.
         -2   -1    0    0    0  501 -0.00000000000E+00 -0.00000000000E+00 -0.14387923095E+03  0.14387923095E+03  0.00000000000E+00 0.  1.
         23    2    1    2    0    0 -0.82082492059E+01  0.72596119103E+02 -0.11116231568E+03  0.16837233667E+03  0.10322117740E+03 0.  0.
         23    2    1    2    0    0  0.82082492059E+01 -0.72596119103E+02  0.78122574792E+03  0.78944955746E+03  0.87059535424E+02 0.  0.
          5    1    4    4  502    0 -0.34557838274E+02 -0.49316072045E+02  0.53597096055E+03  0.53936377307E+03  0.47000000000E+01 0. -1.
         -5    1    4    4    0  502  0.42766087480E+02 -0.23280047058E+02  0.24525478737E+03  0.25008578440E+03  0.47000000000E+01 0.  1.
          5    1    3    3  503    0 -0.14875103052E+02 -0.24416860355E+02 -0.28768732347E+02  0.40831136663E+02  0.47000000000E+01 0. -1.
         -5    1    3    3    0  503  0.66668538458E+01  0.97012979458E+02 -0.82393583332E+02  0.12754120000E+03  0.47000000000E+01 0.  1.
<mgrwt>
<rscale>  0 0.12312900E+03</rscale>
<asrwt>0</asrwt>
<pdfrwt beam="1">  1        2 0.12522195E+00 0.12646020E+03</pdfrwt>
<pdfrwt beam="2">  1       -2 0.22135267E-01 0.12646020E+03</pdfrwt>
<totfact> 0.61919661E+02</totfact>
</mgrwt>
</event>
<event>
 8    1  0.5224537E-004  0.9741209E+02  0.7546771E-02  0.1286164E+00
         -3   -1    0    0    0  501 -0.00000000000E+00  0.00000000000E+00  0.15678126936E+03  0.15678126936E+03  0.00000000000E+00 0.  1.
          3   -1    0    0  501    0  0.00000000000E+00 -0.00000000000E+00 -0.61287509930E+02  0.61287509930E+02  0.00000000000E+00 0. -1.
         23    2    1    2    0    0  0.20248371219E+02 -0.33064039630E+01  0.62455288119E+02  0.11520646370E+03  0.94609393927E+02 0.  0.
         23    2    1    2    0    0 -0.20248371219E+02  0.33064039630E+01  0.33038471315E+02  0.10286231560E+03  0.95227026307E+02 0.  0.
          5    1    4    4  502    0 -0.57067818916E+02 -0.74618596724E+01  0.26996901007E+02  0.63744317155E+02  0.47000000000E+01 0. -1.
         -5    1    4    4    0  502  0.36819447697E+02  0.10768263635E+02  0.60415703084E+01  0.39117998444E+02  0.47000000000E+01 0.  1.
          5    1    3    3  503    0  0.21098710907E+02 -0.46504445825E+02  0.21902826898E+02  0.55764172275E+02  0.47000000000E+01 0. -1.
         -5    1    3    3    0  503 -0.85033968790E+00  0.43198041862E+02  0.40552461221E+02  0.59442291421E+02  0.47000000000E+01 0.  1.
<mgrwt>
<rscale>  0 0.97260816E+02</rscale>
<asrwt>0</asrwt>
<pdfrwt beam="1">  1        3 0.94288477E-02 0.97412091E+02</pdfrwt>
<pdfrwt beam="2">  1       -3 0.24120195E-01 0.97412091E+02</pdfrwt>
<totfact> 0.27954135E+03</totfact>
</mgrwt>
</event>
<event>
 8    1  0.5224537E-004  0.9633121E+02  0.7546771E-02  0.1289116E+00
          3   -1    0    0  501    0  0.00000000000E+00  0.00000000000E+00  0.61127089734E+02  0.61127089734E+02  0.00000000000E+00 0. -1.
         -3   -1    0    0    0  501 -0.00000000000E+00 -0.00000000000E+00 -0.20376322971E+03  0.20376322971E+03  0.00000000000E+00 0.  1.
         23    2    1    2    0    0 -0.22682986038E+02 -0.18872487773E+02 -0.14026724580E+03  0.17016051792E+03  0.91700670461E+02 0.  0.
         23    2    1    2    0    0  0.22682986038E+02  0.18872487773E+02 -0.23688941719E+01  0.94729801524E+02  0.89985748798E+02 0.  0.
          5    1    3    3  502    0  0.24088833080E+02  0.11481338400E+02 -0.93145477379E+02  0.97006509919E+02  0.47000000000E+01 0. -1.
         -5    1    4    4    0  503 -0.83393634024E+01 -0.31602741287E+02 -0.10711475217E+02  0.34714607014E+02  0.47000000000E+01 0.  1.
          5    1    4    4  503    0  0.31022349440E+02  0.50475229061E+02  0.83425810452E+01  0.60015194509E+02  0.47000000000E+01 0. -1.
         -5    1    3    3    0  502 -0.46771819118E+02 -0.30353826173E+02 -0.47121768423E+02  0.73154007999E+02  0.47000000000E+01 0.  1.
<mgrwt>
<rscale>  0 0.95920835E+02</rscale>
<asrwt>0</asrwt>
<pdfrwt beam="1">  1        3 0.94041674E-02 0.96331208E+02</pdfrwt>
<pdfrwt beam="2">  1       -3 0.31348190E-01 0.96331208E+02</pdfrwt>
<totfact> 0.17409591E+03</totfact>
</mgrwt>
</event>
<event>
 8    1  0.5224537E-004  0.1045568E+03  0.7546771E-02  0.1277098E+00
         -3   -1    0    0    0  501 -0.00000000000E+00  0.00000000000E+00  0.83635061197E+02  0.83635061197E+02  0.00000000000E+00 0.  1.
          3   -1    0    0  501    0  0.00000000000E+00 -0.00000000000E+00 -0.13499994596E+03  0.13499994596E+03  0.00000000000E+00 0. -1.
         23    2    1    2    0    0  0.30331387559E+02  0.36629777453E+02  0.15861565337E+02  0.94330845144E+02  0.79906103792E+02 0.  0.
         23    2    1    2    0    0 -0.30331387559E+02 -0.36629777453E+02 -0.67226450098E+02  0.12430416201E+03  0.93114958159E+02 0.  0.
          5    1    3    3  502    0  0.17232400758E+02 -0.21711727713E+02  0.19542460746E+02  0.34239633879E+02  0.47000000000E+01 0. -1.
         -5    1    3    3    0  502  0.13098986801E+02  0.58341505166E+02 -0.36808954098E+01  0.60091211265E+02  0.47000000000E+01 0.  1.
          5    1    4    4  503    0 -0.61375858005E+02 -0.20676533922E+02 -0.59874203039E+02  0.88326242932E+02  0.47000000000E+01 0. -1.
         -5    1    4    4    0  503  0.31044470446E+02 -0.15953243530E+02 -0.73522470590E+01  0.35977919079E+02  0.47000000000E+01 0.  1.
<mgrwt>
<rscale>  0 0.10153615E+03</rscale>
<asrwt>0</asrwt>
<pdfrwt beam="1">  1        3 0.20769222E-01 0.10455682E+03</pdfrwt>
<pdfrwt beam="2">  1       -3 0.12866932E-01 0.10455682E+03</pdfrwt>
<totfact> 0.22098075E+03</totfact>
</mgrwt>
</event>
<event>
 8    1  0.5224537E-004  0.1003787E+03  0.7546771E-02  0.1279775E+00
         -2   -1    0    0    0  501 -0.00000000000E+00  0.00000000000E+00  0.50379363450E+03  0.50379363450E+03  0.00000000000E+00 0.  1.
          2   -1    0    0  501    0  0.00000000000E+00 -0.00000000000E+00 -0.20215022240E+02  0.20215022240E+02  0.00000000000E+00 0. -1.
         23    2    1    2    0    0 -0.34949475073E+01 -0.40882062122E+02  0.20951163240E+03  0.23231660075E+03  0.91609613097E+02 0.  0.
         23    2    1    2    0    0  0.34949475073E+01  0.40882062122E+02  0.27406697987E+03  0.29169205600E+03  0.91038389793E+02 0.  0.
          5    1    4    4  502    0  0.37142011643E+02  0.40952843351E+02  0.10020373510E+03  0.11454057332E+03  0.47000000000E+01 0. -1.
         -5    1    3    3    0  503  0.32407517079E+02 -0.48590199076E+02  0.16073568040E+03  0.17108273894E+03  0.47000000000E+01 0.  1.
          5    1    3    3  503    0 -0.35902464586E+02  0.77081369540E+01  0.48775951997E+02  0.61233861808E+02  0.47000000000E+01 0. -1.
         -5    1    4    4    0  502 -0.33647064136E+02 -0.70781228325E-01  0.17386324477E+03  0.17715148268E+03  0.47000000000E+01 0.  1.
<mgrwt>
<rscale>  0 0.10024816E+03</rscale>
<asrwt>0</asrwt>
<pdfrwt beam="1">  1        2 0.31100038E-02 0.10037868E+03</pdfrwt>
<pdfrwt beam="2">  1       -2 0.77506704E-01 0.10037868E+03</pdfrwt>
<totfact> 0.42096481E+03</totfact>
</mgrwt>
</event>
<event>
 8    1  0.5224537E-004  0.9511160E+02  0.7546771E-02  0.1299293E+00
          1   -1    0    0  501    0  0.00000000000E+00  0.00000000000E+00  0.22806950030E+03  0.22806950030E+03  0.00000000000E+00 0. -1.
         -1   -1    0    0    0  501 -0.00000000000E+00 -0.00000000000E+00 -0.38515403691E+02  0.38515403691E+02  0.00000000000E+00 0.  1.
         23    2    1    2    0    0 -0.13539688760E+02  0.15348252921E+02  0.14600781999E+03  0.17425412277E+03  0.92883387980E+02 0.  0.
         23    2    1    2    0    0  0.13539688760E+02 -0.15348252921E+02  0.43546276613E+02  0.92330781222E+02  0.78802302725E+02 0.  0.
          5    1    4    4  502    0 -0.24886894487E+01 -0.44883307923E+02  0.35465293215E+02  0.57450691276E+02  0.47000000000E+01 0.  1.
         -5    1    4    4    0  502  0.16028378208E+02  0.29535055002E+02  0.80809833976E+01  0.34880089946E+02  0.47000000000E+01 0. -1.
          5    1    3    3  503    0 -0.48266137895E+02  0.26686338163E+02  0.10782246303E+03  0.12120047131E+03  0.47000000000E+01 0. -1.
         -5    1    3    3    0  503  0.34726449135E+02 -0.11338085242E+02  0.38185356961E+02  0.53053651455E+02  0.47000000000E+01 0.  1.
<mgrwt>
<rscale>  0 0.91485783E+02</rscale>
<asrwt>0</asrwt>
<pdfrwt beam="1">  1        1 0.35087615E-01 0.95111597E+02</pdfrwt>
<pdfrwt beam="2">  1       -1 0.59254469E-02 0.95111597E+02</pdfrwt>
<totfact> 0.15282551E+04</totfact>
</mgrwt>
</event>
<event>
 8    1  0.5224537E-004  0.1349748E+03  0.7546771E-02  0.1220562E+00
         -2   -1    0    0    0  501 -0.00000000000E+00  0.00000000000E+00  0.13997797407E+03  0.13997797407E+03  0.00000000000E+00 0.  1.
          2   -1    0    0  501    0  0.00000000000E+00 -0.00000000000E+00 -0.13043500842E+03  0.13043500842E+03  0.00000000000E+00 0. -1.
         23    2    1    2    0    0  0.94611836078E+02  0.25295337589E+02  0.17269106689E+02  0.13521721334E+03  0.91619971124E+02 0.  0.
         23    2    1    2    0    0 -0.94611836078E+02 -0.25295337589E+02 -0.77261410391E+01  0.13519576914E+03  0.92881371163E+02 0.  0.
          5    1    4    4  502    0 -0.61826114282E+02  0.14876130106E+02 -0.38724319695E+02  0.74601813583E+02  0.47000000000E+01 0. -1.
         -5    1    3    3    0  503  0.77008385683E+02 -0.12926654284E+02  0.39236315826E+02  0.87515531971E+02  0.47000000000E+01 0.  1.
          5    1    3    3  503    0  0.17603450394E+02  0.38221991873E+02 -0.21967209137E+02  0.47701681373E+02  0.47000000000E+01 0. -1.
         -5    1    4    4    0  502 -0.32785721796E+02 -0.40171467695E+02  0.30998178655E+02  0.60593955560E+02  0.47000000000E+01 0.  1.
<mgrwt>
<rscale>  0 0.13475808E+03</rscale>
<asrwt>0</asrwt>
<pdfrwt beam="1">  1        2 0.20066924E-01 0.13497482E+03</pdfrwt>
<pdfrwt beam="2">  1       -2 0.21535073E-01 0.13497482E+03</pdfrwt>
<totfact> 0.48792211E+03</totfact>
</mgrwt>
</event>
<event>
 8    1  0.5224537E-004  0.9411905E+02  0.7546771E-02  0.1300554E+00
         -1   -1    0    0    0  501 -0.00000000000E+00  0.00000000000E+00  0.44390593557E+02  0.44390593557E+02  0.00000000000E+00 0.  1.
          1   -1    0    0  501    0  0.00000000000E+00 -0.00000000000E+00 -0.18561519905E+03  0.18561519905E+03  0.00000000000E+00 0. -1.
         23    2    1    2    0    0  0.22571838998E+02  0.82539158169E+01 -0.38455472509E+02  0.90650526926E+02  0.78492545022E+02 0.  0.
         23    2    1    2    0    0 -0.22571838998E+02 -0.82539158169E+01 -0.10276913299E+03  0.13935526568E+03  0.90998793052E+02 0.  0.
          5    1    3    3  502    0 -0.38096417141E+01  0.39970264510E+02 -0.16298313246E+02  0.43587388424E+02  0.47000000000E+01 0. -1.
         -5    1    3    3    0  502  0.26381480712E+02 -0.31716348693E+02 -0.22157159264E+02  0.47063138502E+02  0.47000000000E+01 0.  1.
          5    1    4    4  503    0  0.49503355955E+01 -0.45994202051E+02 -0.42809238674E+02  0.63203586613E+02  0.47000000000E+01 0.  1.
         -5    1    4    4    0  503 -0.27522174594E+02  0.37740286234E+02 -0.59959894312E+02  0.76151679071E+02  0.47000000000E+01 0. -1.
<mgrwt>
<rscale>  0 0.90955742E+02</rscale>
<asrwt>0</asrwt>
<pdfrwt beam="1">  1        1 0.28556185E-01 0.94119049E+02</pdfrwt>
<pdfrwt beam="2">  1       -1 0.68293220E-02 0.94119049E+02</pdfrwt>
<totfact> 0.15935901E+04</totfact>
</mgrwt>
</event>
<event>
 8    1  0.5224537E-004  0.2353142E+03  0.7546771E-02  0.1123153E+00
         -2   -1    0    0    0  501 -0.00000000000E+00  0.00000000000E+00  0.97228382291E+02  0.97228382291E+02  0.00000000000E+00 0.  1.
          2   -1    0    0  501    0  0.00000000000E+00 -0.00000000000E+00 -0.69363016389E+03  0.69363016389E+03  0.00000000000E+00 0. -1.
         23    2    1    2    0    0  0.20973529690E+03 -0.51995156568E+02 -0.12965404739E+03  0.26866883929E+03  0.93168568338E+02 0.  0.
         23    2    1    2    0    0 -0.20973529690E+03  0.51995156568E+02 -0.46674773420E+03  0.52218970689E+03  0.90201172540E+02 0.  0.
          5    1    3    3  502    0  0.12027522718E+03  0.16663477057E+02 -0.79130357220E+02  0.14500863827E+03  0.47000000000E+01 0.  1.
         -5    1    4    4    0  503 -0.11860142353E+03  0.10588598194E+02 -0.16008260660E+03  0.19956689858E+03  0.47000000000E+01 0.  1.
          5    1    4    4  503    0 -0.91133873372E+02  0.41406558374E+02 -0.30666512760E+03  0.32262280831E+03  0.47000000000E+01 0. -1.
         -5    1    3    3    0  502  0.89460069722E+02 -0.68658633625E+02 -0.50523690174E+02  0.12366020101E+03  0.47000000000E+01 0. -1.
<mgrwt>
<rscale>  0 0.23502391E+03</rscale>
<asrwt>0</asrwt>
<pdfrwt beam="1">  1        2 0.10671233E+00 0.23531420E+03</pdfrwt>
<pdfrwt beam="2">  1       -2 0.14958213E-01 0.23531420E+03</pdfrwt>
<totfact> 0.14573923E+03</totfact>
</mgrwt>
</event>
<event>
 8    1  0.5224537E-004  0.9316822E+02  0.7546771E-02  0.1296075E+00
          1   -1    0    0  501    0  0.00000000000E+00  0.00000000000E+00  0.50666436828E+03  0.50666436828E+03  0.00000000000E+00 0. -1.
         -1   -1    0    0    0  501 -0.00000000000E+00 -0.00000000000E+00 -0.17076577631E+02  0.17076577631E+02  0.00000000000E+00 0.  1.
         23    2    1    2    0    0  0.11006186248E+02 -0.43059777249E+00  0.21699773102E+03  0.23566863155E+03  0.91270844629E+02 0.  0.
         23    2    1    2    0    0 -0.11006186248E+02  0.43059777249E+00  0.27259005962E+03  0.28807231435E+03  0.92514842817E+02 0.  0.
          5    1    3    3  502    0  0.33840546527E+02  0.72058785419E+01  0.20573127483E+03  0.20867332057E+03  0.47000000000E+01 0. -1.
         -5    1    3    3    0  502 -0.22834360279E+02 -0.76364763143E+01  0.11266456190E+02  0.26995310981E+02  0.47000000000E+01 0.  1.
          5    1    4    4  503    0  0.38356936120E+02  0.14992062955E+02  0.12542210034E+03  0.13209394291E+03  0.47000000000E+01 0. -1.
         -5    1    4    4    0  503 -0.49363122368E+02 -0.14561465183E+02  0.14716795928E+03  0.15597837144E+03  0.47000000000E+01 0.  1.
<mgrwt>
<rscale>  0 0.92857886E+02</rscale>
<asrwt>0</asrwt>
<pdfrwt beam="1">  1        1 0.77948353E-01 0.93168223E+02</pdfrwt>
<pdfrwt beam="2">  1       -1 0.26271662E-02 0.93168223E+02</pdfrwt>
<totfact> 0.18525163E+04</totfact>
</mgrwt>
</event>
<event>
 8    1  0.5224537E-004  0.1151247E+03  0.7546771E-02  0.1252229E+00
          1   -1    0    0  501    0  0.00000000000E+00  0.00000000000E+00  0.11043973873E+03  0.11043973873E+03  0.00000000000E+00 0. -1.
         -1   -1    0    0    0  501 -0.00000000000E+00 -0.00000000000E+00 -0.27785901821E+03  0.27785901821E+03  0.00000000000E+00 0.  1.
         23    2    1    2    0    0 -0.38065594675E+02 -0.56201160235E+02 -0.23067938051E+03  0.25693846779E+03  0.90536400010E+02 0.  0.
         23    2    1    2    0    0  0.38065594675E+02  0.56201160235E+02  0.63260101031E+02  0.13136028915E+03  0.92984543198E+02 0.  0.
          5    1    4    4  502    0 -0.27443126201E+02  0.36969160080E+02  0.30990334283E+02  0.55698606731E+02  0.47000000000E+01 0. -1.
         -5    1    4    4    0  502  0.65508720876E+02  0.19232000155E+02  0.32269766748E+02  0.75661682421E+02  0.47000000000E+01 0.  1.
          5    1    3    3  503    0 -0.46408989168E+02 -0.86272983740E+01 -0.46327919142E+02  0.66306791845E+02  0.47000000000E+01 0. -1.
         -5    1    3    3    0  503  0.83433944925E+01 -0.47573861861E+02 -0.18435146137E+03  0.19063167594E+03  0.47000000000E+01 0.  1.
<mgrwt>
<rscale>  0 0.11462943E+03</rscale>
<asrwt>0</asrwt>
<pdfrwt beam="1">  1        1 0.16990729E-01 0.11512465E+03</pdfrwt>
<pdfrwt beam="2">  1       -1 0.42747541E-01 0.11512465E+03</pdfrwt>
<totfact> 0.16819068E+03</totfact>
</mgrwt>
</event>
<event>
 8    1  0.5224537E-004  0.1109928E+03  0.7546771E-02  0.1259239E+00
         -2   -1    0    0    0  501 -0.00000000000E+00  0.00000000000E+00  0.19962922808E+02  0.19962922808E+02  0.00000000000E+00 0.  1.
          2   -1    0    0  501    0  0.00000000000E+00 -0.00000000000E+00 -0.61290366626E+03  0.61290366626E+03  0.00000000000E+00 0. -1.
         23    2    1    2    0    0  0.74934064707E+01  0.56025397233E+02 -0.28084157071E+03  0.30197913215E+03  0.95521788819E+02 0.  0.
         23    2    1    2    0    0 -0.74934064707E+01 -0.56025397233E+02 -0.31209917275E+03  0.33088745692E+03  0.94263562656E+02 0.  0.
          5    1    4    4  502    0 -0.29234447172E+02 -0.75025910057E+02 -0.22854365713E+03  0.24235889358E+03  0.47000000000E+01 0. -1.
         -5    1    3    3    0  503 -0.18315969196E+02  0.21417207917E+02 -0.14348752207E+02  0.31971052727E+02  0.47000000000E+01 0.  1.
          5    1    3    3  503    0  0.25809375667E+02  0.34608189317E+02 -0.26649281850E+03  0.27000807942E+03  0.47000000000E+01 0. -1.
         -5    1    4    4    0  502  0.21741040702E+02  0.19000512823E+02 -0.83555515613E+02  0.88528563344E+02  0.47000000000E+01 0.  1.
<mgrwt>
<rscale>  0 0.11072159E+03</rscale>
<asrwt>0</asrwt>
<pdfrwt beam="1">  1        2 0.94292860E-01 0.11099283E+03</pdfrwt>
<pdfrwt beam="2">  1       -2 0.30712193E-02 0.11099283E+03</pdfrwt>
<totfact> 0.18690695E+04</totfact>
</mgrwt>
</event>
<event>
 8    1  0.5224537E-004  0.9752907E+02  0.7546771E-02  0.1292538E+00
          2   -1    0    0  501    0  0.00000000000E+00  0.00000000000E+00  0.17841652554E+03  0.17841652554E+03  0.00000000000E+00 0. -1.
         -2   -1    0    0    0  501 -0.00000000000E+00 -0.00000000000E+00 -0.50073846280E+02  0.50073846280E+02  0.00000000000E+00 0.  1.
         23    2    1    2    0    0 -0.46496936639E+01 -0.34300629650E+02  0.88548661256E+02  0.12315527052E+03  0.78282835926E+02 0.  0.
         23    2    1    2    0    0  0.46496936639E+01  0.34300629650E+02  0.39794018004E+02  0.10533510130E+03  0.91179859903E+02 0.  0.
          5    1    4    4  502    0 -0.56602019748E+01 -0.25889593198E+02  0.34645715021E+02  0.43871682115E+02  0.47000000000E+01 0. -1.
         -5    1    4    4    0  502  0.10309895639E+02  0.60190222848E+02  0.51483029837E+01  0.61463419187E+02  0.47000000000E+01 0.  1.
          5    1    3    3  503    0 -0.13718437270E+02 -0.15054940820E+02 -0.93228510953E+01  0.22887820271E+02  0.47000000000E+01 0.  1.
         -5    1    3    3    0  503  0.90687436062E+01 -0.19245688831E+02  0.97871512351E+02  0.10026745025E+03  0.47000000000E+01 0. -1.
<mgrwt>
<rscale>  0 0.94397732E+02</rscale>
<asrwt>0</asrwt>
<pdfrwt beam="1">  1        2 0.27448696E-01 0.97529071E+02</pdfrwt>
<pdfrwt beam="2">  1       -2 0.77036687E-02 0.97529071E+02</pdfrwt>
<totfact> 0.17524515E+04</totfact>
</mgrwt>
</event>
<event>
 8    1  0.5224537E-004  0.1231971E+03  0.7546771E-02  0.1239554E+00
          1   -1    0    0  501    0  0.00000000000E+00  0.00000000000E+00  0.16424472676E+03  0.16424472676E+03  0.00000000000E+00 0. -1.
         -1   -1    0    0    0  501 -0.00000000000E+00 -0.00000000000E+00 -0.12005476821E+03  0.12005476821E+03  0.00000000000E+00 0.  1.
         23    2    1    2    0    0 -0.15079641282E+02 -0.75064119291E+02 -0.50002015150E+02  0.12922001797E+03  0.91299473925E+02 0.  0.
         23    2    1    2    0    0  0.15079641282E+02  0.75064119291E+02  0.94191973699E+02  0.15507947699E+03  0.96516831114E+02 0.  0.
          5    1    4    4  502    0 -0.26477341814E+02  0.50790028144E+02  0.10498455788E+02  0.58420751128E+02  0.47000000000E+01 0.  1.
         -5    1    4    4    0  502  0.41556983096E+02  0.24274091147E+02  0.83693517912E+02  0.96658725863E+02  0.47000000000E+01 0. -1.
          5    1    3    3  503    0 -0.36810098472E+02 -0.78286084214E+02 -0.15443845613E+02  0.88001685770E+02  0.47000000000E+01 0. -1.
         -5    1    3    3    0  503  0.21730457190E+02  0.32219649226E+01 -0.34558169537E+02  0.41218332200E+02  0.47000000000E+01 0.  1.
<mgrwt>
<rscale>  0 0.12217355E+03</rscale>
<asrwt>0</asrwt>
<pdfrwt beam="1">  1        1 0.25268419E-01 0.12319706E+03</pdfrwt>
<pdfrwt beam="2">  1       -1 0.18469964E-01 0.12319706E+03</pdfrwt>
<totfact> 0.41353600E+03</totfact>
</mgrwt>
</event>
<event>
 8    1  0.5224537E-004  0.9860616E+02  0.7546771E-02  0.1283742E+00
         -1   -1    0    0    0  501 -0.00000000000E+00  0.00000000000E+00  0.17132355587E+02  0.17132355587E+02  0.00000000000E+00 0.  1.
          1   -1    0    0  501    0  0.00000000000E+00 -0.00000000000E+00 -0.56864073919E+03  0.56864073919E+03  0.00000000000E+00 0. -1.
         23    2    1    2    0    0  0.25879002491E+02  0.16936502022E+02 -0.24617708499E+03  0.26519112527E+03  0.93630165400E+02 0.  0.
         23    2    1    2    0    0 -0.25879002491E+02 -0.16936502022E+02 -0.30533129860E+03  0.32058196951E+03  0.92677016538E+02 0.  0.
          5    1    4    4  502    0 -0.42973390002E+01  0.35753390205E+02 -0.16726066409E+03  0.17115779791E+03  0.47000000000E+01 0. -1.
         -5    1    4    4    0  502 -0.21581663490E+02 -0.52689892227E+02 -0.13807063451E+03  0.14942417160E+03  0.47000000000E+01 0.  1.
          5    1    3    3  503    0 -0.12944234000E+02 -0.24893746825E+02 -0.15451582331E+03  0.15711295771E+03  0.47000000000E+01 0. -1.
         -5    1    3    3    0  503  0.38823236490E+02  0.41830248847E+02 -0.91661261681E+02  0.10807816756E+03  0.47000000000E+01 0.  1.
<mgrwt>
<rscale>  0 0.98379235E+02</rscale>
<asrwt>0</asrwt>
<pdfrwt beam="1">  1        1 0.87483194E-01 0.98606165E+02</pdfrwt>
<pdfrwt beam="2">  1       -1 0.26357469E-02 0.98606165E+02</pdfrwt>
<totfact> 0.15941867E+04</totfact>
</mgrwt>
</event>
<event>
 8    1  0.5224537E-004  0.1116630E+03  0.7546771E-02  0.1257991E+00
         -2   -1    0    0    0  501 -0.00000000000E+00  0.00000000000E+00  0.20335665262E+02  0.20335665262E+02  0.00000000000E+00 0.  1.
          2   -1    0    0  501    0  0.00000000000E+00 -0.00000000000E+00 -0.68435335765E+03  0.68435335765E+03  0.00000000000E+00 0. -1.
         23    2    1    2    0    0  0.54906683927E+02  0.31078265401E+02 -0.45145813748E+03  0.46506244881E+03  0.92130499160E+02 0.  0.
         23    2    1    2    0    0 -0.54906683927E+02 -0.31078265401E+02 -0.21255955490E+03  0.23962657410E+03  0.90877544605E+02 0.  0.
          5    1    4    4  502    0  0.14777680975E+02 -0.29068239474E+02 -0.11500498373E+03  0.11963101054E+03  0.47000000000E+01 0. -1.
         -5    1    4    4    0  502 -0.69684364903E+02 -0.20100259272E+01 -0.97554571179E+02  0.11999556356E+03  0.47000000000E+01 0.  1.
          5    1    3    3  503    0  0.78282138680E+02  0.88042415514E+01 -0.30945220802E+03  0.31935617570E+03  0.47000000000E+01 0. -1.
         -5    1    3    3    0  503 -0.23375454752E+02  0.22274023850E+02 -0.14200592946E+03  0.14570627311E+03  0.47000000000E+01 0.  1.
<mgrwt>
<rscale>  0 0.11140425E+03</rscale>
<asrwt>0</asrwt>
<pdfrwt beam="1">  1        2 0.10528511E+00 0.11166303E+03</pdfrwt>
<pdfrwt beam="2">  1       -2 0.31285645E-02 0.11166303E+03</pdfrwt>
<totfact> 0.16030642E+04</totfact>
</mgrwt>
</event>
<event>
 8    1  0.5224537E-004  0.1012379E+03  0.7546771E-02  0.1277811E+00
         -3   -1    0    0    0  501 -0.00000000000E+00  0.00000000000E+00  0.46712025866E+02  0.46712025866E+02  0.00000000000E+00 0.  1.
          3   -1    0    0  501    0  0.00000000000E+00 -0.00000000000E+00 -0.22198814308E+03  0.22198814308E+03  0.00000000000E+00 0. -1.
         23    2    1    2    0    0  0.28399687240E+02  0.33137488611E+02 -0.10313456908E+03  0.14438796681E+03  0.91140058327E+02 0.  0.
         23    2    1    2    0    0 -0.28399687240E+02 -0.33137488611E+02 -0.72141548130E+02  0.12431220214E+03  0.91348154044E+02 0.  0.
          5    1    3    3  502    0 -0.65119028925E+01  0.45516099969E+02 -0.14872553351E+02  0.48553095461E+02  0.47000000000E+01 0. -1.
         -5    1    4    4    0  503 -0.75618214410E+01 -0.34865650556E+02  0.11650007011E+02  0.37823371023E+02  0.47000000000E+01 0.  1.
          5    1    4    4  503    0 -0.20837865799E+02  0.17281619449E+01 -0.83791555141E+02  0.86488831116E+02  0.47000000000E+01 0. -1.
         -5    1    3    3    0  502  0.34911590132E+02 -0.12378611358E+02 -0.88262015732E+02  0.95834871345E+02  0.47000000000E+01 0.  1.
<mgrwt>
<rscale>  0 0.10119098E+03</rscale>
<asrwt>0</asrwt>
<pdfrwt beam="1">  1        3 0.34152022E-01 0.10123794E+03</pdfrwt>
<pdfrwt beam="2">  1       -3 0.71864655E-02 0.10123794E+03</pdfrwt>
<totfact> 0.23169920E+03</totfact>
</mgrwt>
</event>
<event>
 8    1  0.5224537E-004  0.9328822E+02  0.7546771E-02  0.1295505E+00
         -2   -1    0    0    0  501 -0.00000000000E+00  0.00000000000E+00  0.86348377810E+03  0.86348377810E+03  0.00000000000E+00 0.  1.
          2   -1    0    0  501    0  0.00000000000E+00 -0.00000000000E+00 -0.27123820736E+02  0.27123820736E+02  0.00000000000E+00 0. -1.
         23    2    1    2    0    0 -0.28541740656E+01 -0.64790685737E+01  0.77261644489E+03  0.77822802720E+03  0.93019174192E+02 0.  0.
         23    2    1    2    0    0  0.28541740656E+01  0.64790685737E+01  0.63743512477E+02  0.11237957164E+03  0.92281136205E+02 0.  0.
          5    1    3    3  502    0  0.43847073261E+02 -0.12710807006E+02  0.39244815682E+03  0.39512248258E+03  0.47000000000E+01 0. -1.
         -5    1    4    4    0  503  0.18309376182E+02 -0.17412692312E+02  0.76604993645E+02  0.80801300492E+02  0.47000000000E+01 0.  1.
          5    1    4    4  503    0 -0.15455202117E+02  0.23891760886E+02 -0.12861481169E+02  0.31578271145E+02  0.47000000000E+01 0. -1.
         -5    1    3    3    0  502 -0.46701247326E+02  0.62317384327E+01  0.38016828807E+03  0.38310554462E+03  0.47000000000E+01 0.  1.
<mgrwt>
<rscale>  0 0.93103697E+02</rscale>
<asrwt>0</asrwt>
<pdfrwt beam="1">  1        2 0.41728962E-02 0.93288217E+02</pdfrwt>
<pdfrwt beam="2">  1       -2 0.13284364E+00 0.93288217E+02</pdfrwt>
<totfact> 0.82421498E+02</totfact>
</mgrwt>
</event>
<event>
 8    1  0.5224537E-004  0.9439482E+02  0.7546771E-02  0.1293206E+00
          2   -1    0    0  501    0  0.00000000000E+00  0.00000000000E+00  0.17575341984E+03  0.17575341984E+03  0.00000000000E+00 0. -1.
         -2   -1    0    0    0  501 -0.00000000000E+00 -0.00000000000E+00 -0.53188487873E+02  0.53188487873E+02  0.00000000000E+00 0.  1.
         23    2    1    2    0    0  0.12642052963E+02 -0.20491999002E+02  0.33960623349E+02  0.10031802039E+03  0.91272327409E+02 0.  0.
         23    2    1    2    0    0 -0.12642052963E+02  0.20491999002E+02  0.88604308614E+02  0.12862388732E+03  0.90075731235E+02 0.  0.
          5    1    4    4  502    0 -0.39570584897E+02  0.33256860514E+02  0.83069213726E+02  0.97951182889E+02  0.47000000000E+01 0. -1.
         -5    1    3    3    0  503  0.23253570185E+02 -0.52754809419E+02  0.31691236423E+02  0.65956219640E+02  0.47000000000E+01 0.  1.
          5    1    3    3  503    0 -0.10611517222E+02  0.32262810418E+02  0.22693869255E+01  0.34361800750E+02  0.47000000000E+01 0. -1.
         -5    1    4    4    0  502  0.26928531934E+02 -0.12764861512E+02  0.55350948883E+01  0.30672704429E+02  0.47000000000E+01 0.  1.
<mgrwt>
<rscale>  0 0.94104349E+02</rscale>
<asrwt>0</asrwt>
<pdfrwt beam="1">  1        2 0.27038987E-01 0.94394816E+02</pdfrwt>
<pdfrwt beam="2">  1       -2 0.81828444E-02 0.94394816E+02</pdfrwt>
<totfact> 0.16187509E+04</totfact>
</mgrwt>
</event>
<event>
 8    1  0.5224537E-004  0.1015170E+03  0.7546771E-02  0.1278508E+00
          2   -1    0    0  501    0  0.00000000000E+00  0.00000000000E+00  0.62188809057E+03  0.62188809057E+03  0.00000000000E+00 0. -1.
         -2   -1    0    0    0  501 -0.00000000000E+00 -0.00000000000E+00 -0.20601977434E+02  0.20601977434E+02  0.00000000000E+00 0.  1.
         23    2    1    2    0    0 -0.33337881074E+02  0.44485207165E+01  0.44694449178E+03  0.45775501065E+03  0.93000362316E+02 0.  0.
         23    2    1    2    0    0  0.33337881074E+02 -0.44485207165E+01  0.15434162136E+03  0.18473505736E+03  0.95783619070E+02 0.  0.
          5    1    3    3  502    0 -0.63050497383E+02 -0.82028473338E+01  0.24341974153E+03  0.25163050787E+03  0.47000000000E+01 0. -1.
         -5    1    4    4    0  503  0.59885950356E+02 -0.26267582657E+02  0.86469455314E+02  0.10851437532E+03  0.47000000000E+01 0.  1.
          5    1    4    4  503    0 -0.26548069283E+02  0.21819061941E+02  0.67872166049E+02  0.76220682041E+02  0.47000000000E+01 0. -1.
         -5    1    3    3    0  502  0.29712616309E+02  0.12651368050E+02  0.20352475025E+03  0.20612450278E+03  0.47000000000E+01 0.  1.
<mgrwt>
<rscale>  0 0.10085513E+03</rscale>
<asrwt>0</asrwt>
<pdfrwt beam="1">  1        2 0.95675076E-01 0.10151702E+03</pdfrwt>
<pdfrwt beam="2">  1       -2 0.31695355E-02 0.10151702E+03</pdfrwt>
<totfact> 0.17418687E+04</totfact>
</mgrwt>
</event>
<event>
 8    1  0.5224537E-004  0.9705254E+02  0.7546771E-02  0.1288380E+00
          1   -1    0    0  501    0  0.00000000000E+00  0.00000000000E+00  0.19300999956E+03  0.19300999956E+03  0.00000000000E+00 0. -1.
         -1   -1    0    0    0  501 -0.00000000000E+00 -0.00000000000E+00 -0.97441120756E+02  0.97441120756E+02  0.00000000000E+00 0.  1.
         23    2    1    2    0    0  0.88223076770E+01 -0.13783329250E+02 -0.56846044306E+02  0.10975938124E+03  0.92454506321E+02 0.  0.
         23    2    1    2    0    0 -0.88223076770E+01  0.13783329250E+02  0.15241492311E+03  0.18069173908E+03  0.95662858550E+02 0.  0.
          5    1    3    3  502    0 -0.18512683468E+02 -0.26993573480E+02  0.11351439943E+02  0.34961659674E+02  0.47000000000E+01 0. -1.
         -5    1    3    3    0  502  0.27334991145E+02  0.13210244230E+02 -0.68197484249E+02  0.74797721566E+02  0.47000000000E+01 0.  1.
          5    1    4    4  503    0 -0.12503606260E+02 -0.40381338946E+02  0.64722743969E+02  0.77447506683E+02  0.47000000000E+01 0. -1.
         -5    1    4    4    0  503  0.36812985827E+01  0.54164668196E+02  0.87692179143E+02  0.10324423240E+03  0.47000000000E+01 0.  1.
<mgrwt>
<rscale>  0 0.96252489E+02</rscale>
<asrwt>0</asrwt>
<pdfrwt beam="1">  1        1 0.29693846E-01 0.97052541E+02</pdfrwt>
<pdfrwt beam="2">  1       -1 0.14990942E-01 0.97052541E+02</pdfrwt>
<totfact> 0.46284542E+03</totfact>
</mgrwt>
</event>
<event>
 8    1  0.5224537E-004  0.9720433E+02  0.7546771E-02  0.1287355E+00
          3   -1    0    0  501    0  0.00000000000E+00  0.00000000000E+00  0.13221259315E+03  0.13221259315E+03  0.00000000000E+00 0. -1.
         -3   -1    0    0    0  501 -0.00000000000E+00 -0.00000000000E+00 -0.11151885446E+03  0.11151885446E+03  0.00000000000E+00 0.  1.
         23    2    1    2    0    0  0.15376305676E+02 -0.25364628050E+02 -0.63898691581E+02  0.11632593824E+03  0.92568277443E+02 0.  0.
         23    2    1    2    0    0 -0.15376305676E+02  0.25364628050E+02  0.84592430271E+02  0.12740550937E+03  0.90534465409E+02 0.  0.
          5    1    3    3  502    0 -0.27171542940E+02  0.53705360126E+01 -0.56516312889E+02  0.63113540745E+02  0.47000000000E+01 0. -1.
         -5    1    4    4    0  503  0.34812880017E+02  0.84281429005E+01  0.13369397052E+02  0.38520137400E+02  0.47000000000E+01 0.  1.
          5    1    4    4  503    0 -0.50189185692E+02  0.16936485150E+02  0.71223033219E+02  0.88885371972E+02  0.47000000000E+01 0. -1.
         -5    1    3    3    0  502  0.42547848615E+02 -0.30735164063E+02 -0.73823786926E+01  0.53212397493E+02  0.47000000000E+01 0.  1.
<mgrwt>
<rscale>  0 0.96716976E+02</rscale>
<asrwt>0</asrwt>
<pdfrwt beam="1">  1        3 0.20340399E-01 0.97204327E+02</pdfrwt>
<pdfrwt beam="2">  1       -3 0.17156747E-01 0.97204327E+02</pdfrwt>
<totfact> 0.13870778E+03</totfact>
</mgrwt>
</event>
<event>
 8    1  0.5224537E-004  0.9647905E+02  0.7546771E-02  0.1289429E+00
          2   -1    0    0  501    0  0.00000000000E+00  0.00000000000E+00  0.59833449247E+03  0.59833449247E+03  0.00000000000E+00 0. -1.
         -2   -1    0    0    0  501 -0.00000000000E+00 -0.00000000000E+00 -0.23698827267E+02  0.23698827267E+02  0.00000000000E+00 0.  1.
         23    2    1    2    0    0 -0.29745836743E+01 -0.33257909232E+02  0.97472549866E+02  0.13521420968E+03  0.87561680249E+02 0.  0.
         23    2    1    2    0    0  0.29745836743E+01  0.33257909232E+02  0.47716311534E+03  0.48681911006E+03  0.90516686876E+02 0.  0.
          5    1    4    4  502    0 -0.42822403141E+02  0.21786107905E+02  0.27108185928E+03  0.27534679432E+03  0.47000000000E+01 0. -1.
         -5    1    3    3    0  503 -0.28733670108E+02 -0.52588150630E+02  0.53238541250E+02  0.80296759954E+02  0.47000000000E+01 0.  1.
          5    1    3    3  503    0  0.25759086434E+02  0.19330241398E+02  0.44234008616E+02  0.54917449729E+02  0.47000000000E+01 0. -1.
         -5    1    4    4    0  502  0.45796986816E+02  0.11471801327E+02  0.20608125606E+03  0.21147231574E+03  0.47000000000E+01 0.  1.
<mgrwt>
<rscale>  0 0.95779783E+02</rscale>
<asrwt>0</asrwt>
<pdfrwt beam="1">  1        2 0.92051449E-01 0.96479051E+02</pdfrwt>
<pdfrwt beam="2">  1       -2 0.36459739E-02 0.96479051E+02</pdfrwt>
<totfact> 0.14755532E+04</totfact>
</mgrwt>
</event>
<event>
 8    1  0.5224537E-004  0.1059784E+03  0.7546771E-02  0.1268207E+00
         -1   -1    0    0    0  501 -0.00000000000E+00  0.00000000000E+00  0.99474488623E+01  0.99474488623E+01  0.00000000000E+00 0.  1.
          1   -1    0    0  501    0  0.00000000000E+00 -0.00000000000E+00 -0.12705354393E+04  0.12705354393E+04  0.00000000000E+00 0. -1.
         23    2    1    2    0    0  0.26005725953E+02  0.46480314550E+02 -0.84396452775E+03  0.85059159424E+03  0.91614511228E+02 0.  0.
         23    2    1    2    0    0 -0.26005725953E+02 -0.46480314550E+02 -0.41662346271E+03  0.42989129395E+03  0.91622581859E+02 0.  0.
          5    1    4    4  502    0 -0.43536256171E+02 -0.81162648579E+01 -0.33447969744E+03  0.33743152988E+03  0.47000000000E+01 0. -1.
         -5    1    4    4    0  502  0.17530530219E+02 -0.38364049692E+02 -0.82143765269E+02  0.92459764066E+02  0.47000000000E+01 0.  1.
          5    1    3    3  503    0  0.57294283709E+02  0.35442242068E+02 -0.67256058542E+03  0.67594276276E+03  0.47000000000E+01 0. -1.
         -5    1    3    3    0  503 -0.31288557756E+02  0.11038072481E+02 -0.17140394234E+03  0.17464883149E+03  0.47000000000E+01 0.  1.
<mgrwt>
<rscale>  0 0.10597663E+03</rscale>
<asrwt>0</asrwt>
<pdfrwt beam="1">  1        1 0.19546700E+00 0.10597837E+03</pdfrwt>
<pdfrwt beam="2">  1       -1 0.15303767E-02 0.10597837E+03</pdfrwt>
<totfact> 0.99141435E+03</totfact>
</mgrwt>
</event>
<event>
 8    1  0.5224537E-004  0.9723817E+02  0.7546771E-02  0.1288369E+00
         -1   -1    0    0    0  501 -0.00000000000E+00  0.00000000000E+00  0.45349675028E+03  0.45349675028E+03  0.00000000000E+00 0.  1.
          1   -1    0    0  501    0  0.00000000000E+00 -0.00000000000E+00 -0.49566703167E+02  0.49566703167E+02  0.00000000000E+00 0. -1.
         23    2    1    2    0    0 -0.22064724821E+02 -0.23721262772E+02  0.61560885724E+01  0.93576722271E+02  0.87573712583E+02 0.  0.
         23    2    1    2    0    0  0.22064724821E+02  0.23721262772E+02  0.39777395854E+03  0.40948673117E+03  0.91682662082E+02 0.  0.
          5    1    3    3  502    0 -0.19748357109E+02  0.28738521576E+02 -0.12961757339E+02  0.37496631638E+02  0.47000000000E+01 0. -1.
         -5    1    4    4    0  503  0.39358974380E+02 -0.21550397526E+02  0.24570456508E+03  0.24981267342E+03  0.47000000000E+01 0.  1.
          5    1    4    4  503    0 -0.17294249559E+02  0.45271660298E+02  0.15206939345E+03  0.15967405775E+03  0.47000000000E+01 0. -1.
         -5    1    3    3    0  502 -0.23163677116E+01 -0.52459784348E+02  0.19117845911E+02  0.56080090633E+02  0.47000000000E+01 0.  1.
<mgrwt>
<rscale>  0 0.96257387E+02</rscale>
<asrwt>0</asrwt>
<pdfrwt beam="1">  1        1 0.76256469E-02 0.97238166E+02</pdfrwt>
<pdfrwt beam="2">  1       -1 0.69768728E-01 0.97238166E+02</pdfrwt>
<totfact> 0.19180612E+03</totfact>
</mgrwt>
</event>
<event>
 8    1  0.5224537E-004  0.1972025E+03  0.7546771E-02  0.1152488E+00
          1   -1    0    0  501    0  0.00000000000E+00  0.00000000000E+00  0.13676251217E+04  0.13676251217E+04  0.00000000000E+00 0. -1.
         -1   -1    0    0    0  501 -0.00000000000E+00 -0.00000000000E+00 -0.28914521475E+02  0.28914521475E+02  0.00000000000E+00 0.  1.
         23    2    1    2    0    0 -0.89643557961E+02  0.14876202733E+03  0.55603782356E+03  0.58940551741E+03  0.89747949675E+02 0.  0.
         23    2    1    2    0    0  0.89643557961E+02 -0.14876202733E+03  0.78267277670E+03  0.80713412579E+03  0.93395467645E+02 0.  0.
          5    1    3    3  502    0 -0.84773384149E+02  0.83765441037E+02  0.44362781654E+03  0.45938100242E+03  0.47000000000E+01 0. -1.
         -5    1    4    4    0  503  0.48339850012E+02 -0.52096213188E+02  0.15345192741E+03  0.16917547267E+03  0.47000000000E+01 0.  1.
          5    1    4    4  503    0  0.41303707948E+02 -0.96665814141E+02  0.62922084929E+03  0.63795865312E+03  0.47000000000E+01 0. -1.
         -5    1    3    3    0  502 -0.48701738117E+01  0.64996586291E+02  0.11241000702E+03  0.13002451500E+03  0.47000000000E+01 0.  1.
<mgrwt>
<rscale>  0 0.19677584E+03</rscale>
<asrwt>0</asrwt>
<pdfrwt beam="1">  1        1 0.21040381E+00 0.19720249E+03</pdfrwt>
<pdfrwt beam="2">  1       -1 0.44483890E-02 0.19720249E+03</pdfrwt>
<totfact> 0.18416954E+03</totfact>
</mgrwt>
</event>
<event>
 8    1  0.5224537E-004  0.1393104E+03  0.7546771E-02  0.1214796E+00
         -1   -1    0    0    0  501 -0.00000000000E+00  0.00000000000E+00  0.31926350784E+02  0.31926350784E+02  0.00000000000E+00 0.  1.
          1   -1    0    0  501    0  0.00000000000E+00 -0.00000000000E+00 -0.61291938970E+03  0.61291938970E+03  0.00000000000E+00 0. -1.
         23    2    1    2    0    0 -0.14883196272E+02  0.10878934818E+03 -0.24721953455E+03  0.28376906022E+03  0.85736511864E+02 0.  0.
         23    2    1    2    0    0  0.14883196272E+02 -0.10878934818E+03 -0.33377350437E+03  0.36107668027E+03  0.83156388855E+02 0.  0.
          5    1    4    4  502    0  0.31734565234E+02 -0.91604869019E+02 -0.31658627975E+03  0.33113063462E+03  0.47000000000E+01 0. -1.
         -5    1    4    4    0  502 -0.16851368962E+02 -0.17184479156E+02 -0.17187224616E+02  0.29946045645E+02  0.47000000000E+01 0.  1.
          5    1    3    3  503    0  0.23001967499E+02  0.28792743586E+00 -0.54372602269E+02  0.59225360181E+02  0.47000000000E+01 0. -1.
         -5    1    3    3    0  503 -0.37885163771E+02  0.10850142074E+03 -0.19284693228E+03  0.22454370003E+03  0.47000000000E+01 0.  1.
<mgrwt>
<rscale>  0 0.13891548E+03</rscale>
<asrwt>0</asrwt>
<pdfrwt beam="1">  1        1 0.94295282E-01 0.13931038E+03</pdfrwt>
<pdfrwt beam="2">  1       -1 0.49117467E-02 0.13931038E+03</pdfrwt>
<totfact> 0.59581402E+03</totfact>
</mgrwt>
</event>
<event>
 8    1  0.5224537E-004  0.9379725E+02  0.7546771E-02  0.1294400E+00
         -1   -1    0    0    0  501 -0.00000000000E+00  0.00000000000E+00  0.82533944546E+02  0.82533944546E+02  0.00000000000E+00 0.  1.
          1   -1    0    0  501    0  0.00000000000E+00 -0.00000000000E+00 -0.29243528906E+03  0.29243528906E+03  0.00000000000E+00 0. -1.
         23    2    1    2    0    0 -0.20449818573E+02 -0.43010099185E+01  0.44721807489E+02  0.10391325167E+03  0.91439761820E+02 0.  0.
         23    2    1    2    0    0  0.20449818573E+02  0.43010099185E+01 -0.25462315200E+03  0.27105598193E+03  0.90563248846E+02 0.  0.
          5    1    3    3  502    0  0.29016210361E+02  0.19362756895E+02  0.39487063687E+01  0.35419473462E+02  0.47000000000E+01 0. -1.
         -5    1    4    4    0  503 -0.30295896706E+02 -0.14990940305E+02 -0.60850733578E+02  0.69767266145E+02  0.47000000000E+01 0.  1.
          5    1    4    4  503    0  0.50745715278E+02  0.19291950224E+02 -0.19377241842E+03  0.20128871579E+03  0.47000000000E+01 0. -1.
         -5    1    3    3    0  502 -0.49466028934E+02 -0.23663766814E+02  0.40773101120E+02  0.68493778208E+02  0.47000000000E+01 0.  1.
<mgrwt>
<rscale>  0 0.93582946E+02</rscale>
<asrwt>0</asrwt>
<pdfrwt beam="1">  1        1 0.44990045E-01 0.93797248E+02</pdfrwt>
<pdfrwt beam="2">  1       -1 0.12697530E-01 0.93797248E+02</pdfrwt>
<totfact> 0.35883653E+03</totfact>
</mgrwt>
</event>
<event>
 8    1  0.5224537E-004  0.1274561E+03  0.7546771E-02  0.1234270E+00
         -1   -1    0    0    0  501 -0.00000000000E+00  0.00000000000E+00  0.10413126896E+04  0.10413126896E+04  0.00000000000E+00 0.  1.
          1   -1    0    0  501    0  0.00000000000E+00 -0.00000000000E+00 -0.15338642850E+02  0.15338642850E+02  0.00000000000E+00 0. -1.
         23    2    1    2    0    0 -0.75861923736E+02  0.31225456143E+02  0.41902222384E+03  0.43797794974E+03  0.97544860458E+02 0.  0.
         23    2    1    2    0    0  0.75861923736E+02 -0.31225456143E+02  0.60695182294E+03  0.61867338274E+03  0.87385230777E+02 0.  0.
          5    1    4    4  502    0  0.37635723594E+02  0.17140803491E+02  0.10532368281E+03  0.11324938409E+03  0.47000000000E+01 0. -1.
         -5    1    4    4    0  502  0.38226200142E+02 -0.48366259634E+02  0.50162814013E+03  0.50542399865E+03  0.47000000000E+01 0.  1.
          5    1    3    3  503    0  0.10019481758E+02  0.32071816415E+02  0.61326889587E+02  0.70086152764E+02  0.47000000000E+01 0. -1.
         -5    1    3    3    0  503 -0.85881405494E+02 -0.84636027235E+00  0.35769533425E+03  0.36789179698E+03  0.47000000000E+01 0.  1.
<mgrwt>
<rscale>  0 0.12551291E+03</rscale>
<asrwt>0</asrwt>
<pdfrwt beam="1">  1        1 0.23597920E-02 0.12745611E+03</pdfrwt>
<pdfrwt beam="2">  1       -1 0.16020190E+00 0.12745611E+03</pdfrwt>
<totfact> 0.14746165E+03</totfact>
</mgrwt>
</event>
<event>
 8    1  0.5224537E-004  0.1247532E+03  0.7546771E-02  0.1237046E+00
          1   -1    0    0  501    0  0.00000000000E+00  0.00000000000E+00  0.40563265988E+03  0.40563265988E+03  0.00000000000E+00 0. -1.
         -1   -1    0    0    0  501 -0.00000000000E+00 -0.00000000000E+00 -0.37710901259E+02  0.37710901259E+02  0.00000000000E+00 0.  1.
         23    2    1    2    0    0  0.59319836300E+02  0.52207896145E+02  0.20802773366E+03  0.24053956267E+03  0.91319416540E+02 0.  0.
         23    2    1    2    0    0 -0.59319836300E+02 -0.52207896145E+02  0.15989402496E+03  0.20280399847E+03  0.96534217663E+02 0.  0.
          5    1    4    4  502    0 -0.22562481965E+02  0.27128017669E+02  0.61756554110E+02  0.71280831299E+02  0.47000000000E+01 0. -1.
         -5    1    3    3    0  503  0.19661415106E+02 -0.12910315360E+02  0.62513148469E+01  0.24787424715E+02  0.47000000000E+01 0.  1.
          5    1    3    3  503    0  0.39658421194E+02  0.65118211505E+02  0.20177641882E+03  0.21575213795E+03  0.47000000000E+01 0. -1.
         -5    1    4    4    0  502 -0.36757354335E+02 -0.79335913814E+02  0.98137470846E+02  0.13152316717E+03  0.47000000000E+01 0.  1.
<mgrwt>
<rscale>  0 0.12374351E+03</rscale>
<asrwt>0</asrwt>
<pdfrwt beam="1">  1        1 0.62405022E-01 0.12475321E+03</pdfrwt>
<pdfrwt beam="2">  1       -1 0.58016774E-02 0.12475321E+03</pdfrwt>
<totfact> 0.79286614E+03</totfact>
</mgrwt>
</event>
<event>
 8    1  0.5224537E-004  0.1060256E+03  0.7546771E-02  0.1269657E+00
          1   -1    0    0  501    0  0.00000000000E+00  0.00000000000E+00  0.22011781602E+02  0.22011781602E+02  0.00000000000E+00 0. -1.
         -1   -1    0    0    0  501 -0.00000000000E+00 -0.00000000000E+00 -0.51597345498E+03  0.51597345498E+03  0.00000000000E+00 0.  1.
         23    2    1    2    0    0 -0.42432321451E+02  0.25432036408E+02 -0.30377779313E+03  0.32174893570E+03  0.93777074177E+02 0.  0.
         23    2    1    2    0    0  0.42432321451E+02 -0.25432036408E+02 -0.19018388025E+03  0.21623630089E+03  0.90227152990E+02 0.  0.
          5    1    4    4  502    0  0.34656632395E+02  0.27691488070E+02 -0.55744456664E+02  0.71396324340E+02  0.47000000000E+01 0. -1.
         -5    1    3    3    0  503  0.21878487656E+00 -0.23232410557E+02 -0.18406560122E+03  0.18558563608E+03  0.47000000000E+01 0.  1.
          5    1    3    3  503    0 -0.42651106327E+02  0.48664446965E+02 -0.11971219191E+03  0.13616329961E+03  0.47000000000E+01 0. -1.
         -5    1    4    4    0  502  0.77756890555E+01 -0.53123524478E+02 -0.13443942358E+03  0.14483997655E+03  0.47000000000E+01 0.  1.
<mgrwt>
<rscale>  0 0.10523519E+03</rscale>
<asrwt>0</asrwt>
<pdfrwt beam="1">  1        1 0.33864281E-02 0.10602561E+03</pdfrwt>
<pdfrwt beam="2">  1       -1 0.79380529E-01 0.10602561E+03</pdfrwt>
<totfact> 0.44744711E+03</totfact>
</mgrwt>
</event>
<event>
 8    1  0.5577711E-004  0.1098095E+03  0.7546771E-02  0.1263634E+00
          2   -1    0    0  501    0  0.00000000000E+00  0.00000000000E+00  0.33558319503E+03  0.33558319503E+03  0.00000000000E+00 0. -1.
         -2   -1    0    0    0  501 -0.00000000000E+00 -0.00000000000E+00 -0.58013100903E+02  0.58013100903E+02  0.00000000000E+00 0.  1.
         23    2    1    2    0    0 -0.47039382305E+02 -0.71125404615E+01  0.26294895757E+03  0.28281769718E+03  0.92630469233E+02 0.  0.
         23    2    1    2    0    0  0.47039382305E+02  0.71125404615E+01  0.14621136561E+02  0.11077859876E+03  0.98968826351E+02 0.  0.
          5    1    3    3  502    0 -0.73941348646E+02  0.26115851157E+01  0.20560694596E+03  0.21856452055E+03  0.47000000000E+01 0. -1.
         -5    1    3    3    0  502  0.26901966341E+02 -0.97241255772E+01  0.57342011605E+02  0.64253176623E+02  0.47000000000E+01 0.  1.
          5    1    4    4  503    0 -0.11891215803E+02 -0.33817990347E+02  0.14283199175E+02  0.38873606252E+02  0.47000000000E+01 0. -1.
         -5    1    4    4    0  503  0.58930598109E+02  0.40930530809E+02  0.33793738633E+00  0.71904992507E+02  0.47000000000E+01 0.  1.
<mgrwt>
<rscale>  0 0.10836200E+03</rscale>
<asrwt>0</asrwt>
<pdfrwt beam="1">  1        2 0.51628183E-01 0.10980947E+03</pdfrwt>
<pdfrwt beam="2">  1       -2 0.89250926E-02 0.10980947E+03</pdfrwt>
<totfact> 0.72287196E+03</totfact>
</mgrwt>
</event>
<event>
 8    1  0.5224537E-004  0.1069278E+03  0.7546771E-02  0.1269515E+00
         -2   -1    0    0    0  501 -0.00000000000E+00  0.00000000000E+00  0.54880697795E+02  0.54880697795E+02  0.00000000000E+00 0.  1.
          2   -1    0    0  501    0  0.00000000000E+00 -0.00000000000E+00 -0.21332467472E+03  0.21332467472E+03  0.00000000000E+00 0. -1.
         23    2    1    2    0    0 -0.16828649736E+02 -0.38983281439E+02 -0.38991977600E+02  0.10788591755E+03  0.91192637881E+02 0.  0.
         23    2    1    2    0    0  0.16828649736E+02  0.38983281439E+02 -0.11945199933E+03  0.16031945497E+03  0.98135864063E+02 0.  0.
          5    1    3    3  502    0 -0.21259319244E+02 -0.65151839402E+01  0.26252771641E+02  0.34723252948E+02  0.47000000000E+01 0.  1.
         -5    1    4    4    0  503 -0.35954396358E+02  0.39861225634E+02 -0.57964764401E+02  0.79143160403E+02  0.47000000000E+01 0.  1.
          5    1    4    4  503    0  0.52783046094E+02 -0.87794419569E+00 -0.61487234927E+02  0.81176294569E+02  0.47000000000E+01 0. -1.
         -5    1    3    3    0  502  0.44306695072E+01 -0.32468097498E+02 -0.65244749241E+02  0.73162664597E+02  0.47000000000E+01 0. -1.
<mgrwt>
<rscale>  0 0.10530768E+03</rscale>
<asrwt>0</asrwt>
<pdfrwt beam="1">  1        2 0.32819182E-01 0.10692777E+03</pdfrwt>
<pdfrwt beam="2">  1       -2 0.84431841E-02 0.10692777E+03</pdfrwt>
<totfact> 0.12680860E+04</totfact>
</mgrwt>
</event>
<event>
 8    1  0.5224537E-004  0.1143064E+03  0.7546771E-02  0.1253186E+00
          1   -1    0    0  501    0  0.00000000000E+00  0.00000000000E+00  0.45765395294E+02  0.45765395294E+02  0.00000000000E+00 0. -1.
         -1   -1    0    0    0  501 -0.00000000000E+00 -0.00000000000E+00 -0.28359190491E+03  0.28359190491E+03  0.00000000000E+00 0.  1.
         23    2    1    2    0    0  0.32692634220E+02 -0.59269394542E+02 -0.12372739090E+03  0.16785017035E+03  0.91013971274E+02 0.  0.
         23    2    1    2    0    0 -0.32692634220E+02  0.59269394542E+02 -0.11409911871E+03  0.16150712985E+03  0.92110122350E+02 0.  0.
          5    1    3    3  502    0 -0.22879718456E+02 -0.19082474492E+01 -0.38823789862E+01  0.23754700409E+02  0.47000000000E+01 0. -1.
         -5    1    4    4    0  503 -0.25601282041E+01 -0.22515709556E+02 -0.43383113946E+02  0.49170072289E+02  0.47000000000E+01 0.  1.
          5    1    4    4  503    0 -0.30132506016E+02  0.81785104098E+02 -0.70716004769E+02  0.11233705756E+03  0.47000000000E+01 0. -1.
         -5    1    3    3    0  502  0.55572352676E+02 -0.57361147092E+02 -0.11984501191E+03  0.14409546994E+03  0.47000000000E+01 0.  1.
<mgrwt>
<rscale>  0 0.11408536E+03</rscale>
<asrwt>0</asrwt>
<pdfrwt beam="1">  1        1 0.70408302E-02 0.11430636E+03</pdfrwt>
<pdfrwt beam="2">  1       -1 0.43629523E-01 0.11430636E+03</pdfrwt>
<totfact> 0.51499372E+03</totfact>
</mgrwt>
</event>
<event>
 8    1  0.5224537E-004  0.1216401E+03  0.7546771E-02  0.1240570E+00
         -1   -1    0    0    0  501 -0.00000000000E+00  0.00000000000E+00  0.49389239804E+03  0.49389239804E+03  0.00000000000E+00 0.  1.
          1   -1    0    0  501    0  0.00000000000E+00 -0.00000000000E+00 -0.89672842920E+02  0.89672842920E+02  0.00000000000E+00 0. -1.
         23    2    1    2    0    0 -0.67591899000E+02 -0.45657279055E+02  0.44050641884E+03  0.45699259052E+03  0.90238965035E+02 0.  0.
         23    2    1    2    0    0  0.67591899000E+02  0.45657279055E+02 -0.36286863726E+02  0.12657265043E+03  0.89725400070E+02 0.  0.
          5    1    4    4  502    0  0.18561162411E+02 -0.27108417067E+02 -0.67143856725E+01  0.33860832844E+02  0.47000000000E+01 0. -1.
         -5    1    3    3    0  503 -0.67046855662E+02 -0.51769807063E+01  0.36515709532E+03  0.37132718221E+03  0.47000000000E+01 0.  1.
          5    1    3    3  503    0 -0.54504333739E+00 -0.40480298349E+02  0.75349323522E+02  0.85665408316E+02  0.47000000000E+01 0. -1.
         -5    1    4    4    0  502  0.49030736589E+02  0.72765696122E+02 -0.29572478053E+02  0.92711817590E+02  0.47000000000E+01 0.  1.
<mgrwt>
<rscale>  0 0.12154490E+03</rscale>
<asrwt>0</asrwt>
<pdfrwt beam="1">  1        1 0.13795822E-01 0.12164014E+03</pdfrwt>
<pdfrwt beam="2">  1       -1 0.75983444E-01 0.12164014E+03</pdfrwt>
<totfact> 0.74852717E+02</totfact>
</mgrwt>
</event>
<event>
 8    1  0.5224537E-004  0.9775800E+02  0.7546771E-02  0.1285687E+00
          2   -1    0    0  501    0  0.00000000000E+00  0.00000000000E+00  0.66926058506E+03  0.66926058506E+03  0.00000000000E+00 0. -1.
         -2   -1    0    0    0  501 -0.00000000000E+00 -0.00000000000E+00 -0.18616763644E+02  0.18616763644E+02  0.00000000000E+00 0.  1.
         23    2    1    2    0    0  0.20881577096E+02  0.28910760668E+02  0.49298848597E+03  0.50237308422E+03  0.89828704259E+02 0.  0.
         23    2    1    2    0    0 -0.20881577096E+02 -0.28910760668E+02  0.15765533545E+03  0.18550426448E+03  0.91020629537E+02 0.  0.
          5    1    3    3  502    0 -0.27264070751E+02 -0.14539523234E+02  0.18132756142E+03  0.18400136364E+03  0.47000000000E+01 0. -1.
         -5    1    4    4    0  503  0.13731790844E+02 -0.44508086095E+02  0.39312024010E+02  0.61131473395E+02  0.47000000000E+01 0.  1.
          5    1    4    4  503    0 -0.34613367940E+02  0.15597325427E+02  0.11834331144E+03  0.12437279109E+03  0.47000000000E+01 0.  1.
         -5    1    3    3    0  502  0.48145647847E+02  0.43450283903E+02  0.31166092455E+03  0.31837172059E+03  0.47000000000E+01 0.  1.
<mgrwt>
<rscale>  0 0.97479617E+02</rscale>
<asrwt>0</asrwt>
<pdfrwt beam="1">  1        2 0.10296315E+00 0.97758004E+02</pdfrwt>
<pdfrwt beam="2">  1       -2 0.28641180E-02 0.97758004E+02</pdfrwt>
<totfact> 0.18502614E+04</totfact>
</mgrwt>
</event>
<event>
 8    1  0.5224537E-004  0.1123182E+03  0.7546771E-02  0.1257164E+00
         -2   -1    0    0    0  501 -0.00000000000E+00  0.00000000000E+00  0.94287745427E+01  0.94287745427E+01  0.00000000000E+00 0.  1.
          2   -1    0    0  501    0  0.00000000000E+00 -0.00000000000E+00 -0.13172547030E+04  0.13172547030E+04  0.00000000000E+00 0. -1.
         23    2    1    2    0    0  0.26494832219E+02  0.58374358843E+02 -0.67666270727E+03  0.68592112671E+03  0.92227060818E+02 0.  0.
         23    2    1    2    0    0 -0.26494832219E+02 -0.58374358843E+02 -0.63116322116E+03  0.64076235081E+03  0.89999092025E+02 0.  0.
          5    1    4    4  502    0 -0.45716883945E+02 -0.72268441452E+02 -0.51940517411E+03  0.52641864138E+03  0.47000000000E+01 0. -1.
         -5    1    3    3    0  503 -0.20124246490E+01  0.74050024080E+02 -0.55320411885E+03  0.55816157431E+03  0.47000000000E+01 0.  1.
          5    1    3    3  503    0  0.28507256868E+02 -0.15675665237E+02 -0.12345858842E+03  0.12775955240E+03  0.47000000000E+01 0. -1.
         -5    1    4    4    0  502  0.19222051726E+02  0.13894082609E+02 -0.11175804706E+03  0.11434370943E+03  0.47000000000E+01 0.  1.
<mgrwt>
<rscale>  0 0.11185985E+03</rscale>
<asrwt>0</asrwt>
<pdfrwt beam="1">  1        2 0.20265439E+00 0.11231818E+03</pdfrwt>
<pdfrwt beam="2">  1       -2 0.14505820E-02 0.11231818E+03</pdfrwt>
<totfact> 0.20167846E+04</totfact>
</mgrwt>
</event>
<event>
 8    1  0.5224537E-004  0.9515488E+02  0.7546771E-02  0.1294290E+00
          1   -1    0    0  501    0  0.00000000000E+00  0.00000000000E+00  0.76977556626E+02  0.76977556626E+02  0.00000000000E+00 0. -1.
         -1   -1    0    0    0  501 -0.00000000000E+00 -0.00000000000E+00 -0.11699287679E+03  0.11699287679E+03  0.00000000000E+00 0.  1.
         23    2    1    2    0    0  0.30253403901E+01  0.14786047160E+02  0.36440127579E+01  0.89277607210E+02  0.87917190840E+02 0.  0.
         23    2    1    2    0    0 -0.30253403901E+01 -0.14786047160E+02 -0.43659332921E+02  0.10469282620E+03  0.93950362600E+02 0.  0.
          5    1    3    3  502    0  0.18621933173E+02 -0.33027328083E+02 -0.30347595150E+01  0.38325977623E+02  0.47000000000E+01 0. -1.
         -5    1    3    3    0  502 -0.15596592783E+02  0.47813375243E+02  0.66787722728E+01  0.50951629588E+02  0.47000000000E+01 0.  1.
          5    1    4    4  503    0 -0.42016154628E+02 -0.18424553623E+02 -0.35593435470E+00  0.46119823451E+02  0.47000000000E+01 0. -1.
         -5    1    4    4    0  503  0.38990814238E+02  0.36385064633E+01 -0.43303398566E+02  0.58573002754E+02  0.47000000000E+01 0.  1.
<mgrwt>
<rscale>  0 0.93630729E+02</rscale>
<asrwt>0</asrwt>
<pdfrwt beam="1">  1        1 0.11842701E-01 0.95154876E+02</pdfrwt>
<pdfrwt beam="2">  1       -1 0.17998904E-01 0.95154876E+02</pdfrwt>
<totfact> 0.11092360E+04</totfact>
</mgrwt>
</event>
<event>
 8    1  0.5224537E-004  0.1402595E+03  0.7546771E-02  0.1213179E+00
         -4   -1    0    0    0  501 -0.00000000000E+00  0.00000000000E+00  0.32037888845E+02  0.32037888845E+02  0.00000000000E+00 0. -1.
          4   -1    0    0  501    0  0.00000000000E+00 -0.00000000000E+00 -0.67127974786E+03  0.67127974786E+03  0.00000000000E+00 0.  1.
         23    2    1    2    0    0 -0.28598097192E+02 -0.10143959030E+03 -0.21526296824E+03  0.25692579051E+03  0.92546608195E+02 0.  0.
         23    2    1    2    0    0  0.28598097192E+02  0.10143959030E+03 -0.42397889077E+03  0.44639184620E+03  0.91650089397E+02 0.  0.
          5    1    3    3  502    0 -0.51683863265E+02 -0.76460093730E+02 -0.19798009095E+03  0.21848472273E+03  0.47000000000E+01 0. -1.
         -5    1    3    3    0  502  0.23085766073E+02 -0.24979496570E+02 -0.17282877290E+02  0.38441067773E+02  0.47000000000E+01 0.  1.
          5    1    4    4  503    0  0.14002146454E+02  0.67270808303E+02 -0.10727442234E+03  0.12748063948E+03  0.47000000000E+01 0. -1.
         -5    1    4    4    0  503  0.14595950738E+02  0.34168781998E+02 -0.31670446843E+03  0.31891120671E+03  0.47000000000E+01 0.  1.
<mgrwt>
<rscale>  0 0.14011175E+03</rscale>
<asrwt>0</asrwt>
<pdfrwt beam="1">  1        4 0.10327381E+00 0.14025946E+03</pdfrwt>
<pdfrwt beam="2">  1       -4 0.49289060E-02 0.14025946E+03</pdfrwt>
<totfact> 0.32510039E+02</totfact>
</mgrwt>
</event>
<event>
 8    1  0.5224537E-004  0.9504330E+02  0.7546771E-02  0.1292270E+00
         -2   -1    0    0    0  501 -0.00000000000E+00  0.00000000000E+00  0.15761774846E+03  0.15761774846E+03  0.00000000000E+00 0.  1.
          2   -1    0    0  501    0  0.00000000000E+00 -0.00000000000E+00 -0.56477751439E+02  0.56477751439E+02  0.00000000000E+00 0. -1.
         23    2    1    2    0    0  0.71837278584E+01 -0.24410514295E+02  0.41888372303E+02  0.10386464463E+03  0.91573738135E+02 0.  0.
         23    2    1    2    0    0 -0.71837278584E+01  0.24410514295E+02  0.59251624718E+02  0.11023085527E+03  0.89401382917E+02 0.  0.
          5    1    4    4  502    0 -0.16196258779E+02 -0.13160736846E+02 -0.15184289670E+02  0.26233117343E+02  0.47000000000E+01 0. -1.
         -5    1    3    3    0  503  0.47034942954E+02 -0.62109530196E+01  0.35281178210E+02  0.59310313876E+02  0.47000000000E+01 0.  1.
          5    1    3    3  503    0 -0.39851215096E+02 -0.18199561276E+02  0.66071940923E+01  0.44554330755E+02  0.47000000000E+01 0. -1.
         -5    1    4    4    0  502  0.90125309209E+01  0.37571251141E+02  0.74435914387E+02  0.83997737926E+02  0.47000000000E+01 0.  1.
<mgrwt>
<rscale>  0 0.94516121E+02</rscale>
<asrwt>0</asrwt>
<pdfrwt beam="1">  1        2 0.86888849E-02 0.95043299E+02</pdfrwt>
<pdfrwt beam="2">  1       -2 0.24248884E-01 0.95043299E+02</pdfrwt>
<totfact> 0.10403435E+04</totfact>
</mgrwt>
</event>
<event>
 8    1  0.5224537E-004  0.1073650E+03  0.7546771E-02  0.1265586E+00
          1   -1    0    0  501    0  0.00000000000E+00  0.00000000000E+00  0.11597481198E+04  0.11597481198E+04  0.00000000000E+00 0. -1.
         -1   -1    0    0    0  501 -0.00000000000E+00 -0.00000000000E+00 -0.10615154804E+02  0.10615154804E+02  0.00000000000E+00 0.  1.
         23    2    1    2    0    0  0.57309332077E+02  0.84529669691E+01  0.72372054936E+03  0.73164108880E+03  0.90396001337E+02 0.  0.
         23    2    1    2    0    0 -0.57309332077E+02 -0.84529669691E+01  0.42541241559E+03  0.43872218576E+03  0.90253092727E+02 0.  0.
          5    1    3    3  502    0 -0.47937535169E+00 -0.33771578117E+02  0.17906091751E+03  0.18227904836E+03  0.47000000000E+01 0. -1.
         -5    1    3    3    0  502  0.57788707429E+02  0.42224545086E+02  0.54465963185E+03  0.54936204044E+03  0.47000000000E+01 0.  1.
          5    1    4    4  503    0 -0.13251968351E+02 -0.39452475881E+02  0.93749769406E+02  0.10268019177E+03  0.47000000000E+01 0. -1.
         -5    1    4    4    0  503 -0.44057363726E+02  0.30999508912E+02  0.33166264618E+03  0.33604199399E+03  0.47000000000E+01 0.  1.
<mgrwt>
<rscale>  0 0.10733494E+03</rscale>
<asrwt>0</asrwt>
<pdfrwt beam="1">  1        1 0.17842269E+00 0.10736503E+03</pdfrwt>
<pdfrwt beam="2">  1       -1 0.16331017E-02 0.10736503E+03</pdfrwt>
<totfact> 0.10742993E+04</totfact>
</mgrwt>
</event>
<event>
 8    1  0.5224537E-004  0.1288422E+03  0.7546771E-02  0.1229463E+00
          2   -1    0    0  501    0  0.00000000000E+00  0.00000000000E+00  0.38572429362E+03  0.38572429362E+03  0.00000000000E+00 0. -1.
         -2   -1    0    0    0  501 -0.00000000000E+00 -0.00000000000E+00 -0.42791138318E+02  0.42791138318E+02  0.00000000000E+00 0.  1.
         23    2    1    2    0    0  0.11912860151E+02  0.87932746880E+02  0.17079195194E+03  0.21393972640E+03  0.93414300161E+02 0.  0.
         23    2    1    2    0    0 -0.11912860151E+02 -0.87932746880E+02  0.17214120336E+03  0.21457570553E+03  0.92390774973E+02 0.  0.
          5    1    3    3  502    0  0.22444857526E+00  0.47776644809E+02  0.16452945091E+03  0.17139045593E+03  0.47000000000E+01 0. -1.
         -5    1    4    4    0  503  0.93937163932E+01 -0.44629492891E+02  0.15733012215E+03  0.16387461938E+03  0.47000000000E+01 0.  1.
          5    1    4    4  503    0 -0.21306576544E+02 -0.43303253990E+02  0.14811081214E+02  0.50701086151E+02  0.47000000000E+01 0.  1.
         -5    1    3    3    0  502  0.11688411576E+02  0.40156102071E+02  0.62625010300E+01  0.42549270474E+02  0.47000000000E+01 0. -1.
<mgrwt>
<rscale>  0 0.12865678E+03</rscale>
<asrwt>0</asrwt>
<pdfrwt beam="1">  1        2 0.59342197E-01 0.12884221E+03</pdfrwt>
<pdfrwt beam="2">  1       -2 0.65832523E-02 0.12884221E+03</pdfrwt>
<totfact> 0.10067346E+04</totfact>
</mgrwt>
</event>
<event>
 8    1  0.5224537E-004  0.1066596E+03  0.7546771E-02  0.1268437E+00
          1   -1    0    0  501    0  0.00000000000E+00  0.00000000000E+00  0.71576160996E+02  0.71576160996E+02  0.00000000000E+00 0. -1.
         -1   -1    0    0    0  501 -0.00000000000E+00 -0.00000000000E+00 -0.18363576702E+03  0.18363576702E+03  0.00000000000E+00 0.  1.
         23    2    1    2    0    0 -0.15265529999E+02 -0.46917242820E+02 -0.10777592679E+03  0.15163088973E+03  0.94562213618E+02 0.  0.
         23    2    1    2    0    0  0.15265529999E+02  0.46917242820E+02 -0.42836792268E+01  0.10358103828E+03  0.90974817964E+02 0.  0.
          5    1    3    3  502    0  0.37017115961E+02 -0.11037662643E+02 -0.62316101210E+02  0.73467566590E+02  0.47000000000E+01 0. -1.
         -5    1    3    3    0  502 -0.52282645960E+02 -0.35879580177E+02 -0.45459825583E+02  0.78163323140E+02  0.47000000000E+01 0.  1.
          5    1    4    4  503    0  0.49401862641E+02  0.17417457690E+02 -0.18958315898E+02  0.55905452386E+02  0.47000000000E+01 0. -1.
         -5    1    4    4    0  503 -0.34136332642E+02  0.29499785129E+02  0.14674636672E+02  0.47675585895E+02  0.47000000000E+01 0.  1.
<mgrwt>
<rscale>  0 0.10585885E+03</rscale>
<asrwt>0</asrwt>
<pdfrwt beam="1">  1        1 0.11011717E-01 0.10665963E+03</pdfrwt>
<pdfrwt beam="2">  1       -1 0.28251656E-01 0.10665963E+03</pdfrwt>
<totfact> 0.59520490E+03</totfact>
</mgrwt>
</event>
<event>
 8    1  0.5224537E-004  0.1047360E+03  0.7546771E-02  0.1270663E+00
         -2   -1    0    0    0  501 -0.00000000000E+00  0.00000000000E+00  0.26932871769E+02  0.26932871769E+02  0.00000000000E+00 0.  1.
          2   -1    0    0  501    0  0.00000000000E+00 -0.00000000000E+00 -0.50480959743E+03  0.50480959743E+03  0.00000000000E+00 0. -1.
         23    2    1    2    0    0 -0.21200466561E+02 -0.43909687725E+02 -0.12193776612E+03  0.16071394884E+03  0.92642506907E+02 0.  0.
         23    2    1    2    0    0  0.21200466561E+02  0.43909687725E+02 -0.35593895954E+03  0.37102852036E+03  0.92693578762E+02 0.  0.
          5    1    4    4  502    0  0.40011886330E+02 -0.31963730024E+01 -0.25264113297E+03  0.25585308268E+03  0.47000000000E+01 0. -1.
         -5    1    3    3    0  503 -0.54302853456E+02 -0.24842974659E+02 -0.45810319742E+02  0.75409871226E+02  0.47000000000E+01 0.  1.
          5    1    3    3  503    0  0.33102386895E+02 -0.19066713065E+02 -0.76127446375E+02  0.85304077609E+02  0.47000000000E+01 0. -1.
         -5    1    4    4    0  502 -0.18811419770E+02  0.47106060727E+02 -0.10329782657E+03  0.11517543768E+03  0.47000000000E+01 0.  1.
<mgrwt>
<rscale>  0 0.10472465E+03</rscale>
<asrwt>0</asrwt>
<pdfrwt beam="1">  1        2 0.77663016E-01 0.10473595E+03</pdfrwt>
<pdfrwt beam="2">  1       -2 0.41435187E-02 0.10473595E+03</pdfrwt>
<totfact> 0.14848518E+04</totfact>
</mgrwt>
</event>
<event>
 8    1  0.5224537E-004  0.1336205E+03  0.7546771E-02  0.1222615E+00
          1   -1    0    0  501    0  0.00000000000E+00  0.00000000000E+00  0.18374362223E+02  0.18374362223E+02  0.00000000000E+00 0. -1.
         -1   -1    0    0    0  501 -0.00000000000E+00 -0.00000000000E+00 -0.10767705581E+04  0.10767705581E+04  0.00000000000E+00 0.  1.
         23    2    1    2    0    0  0.90924022587E+02  0.31808413308E+02 -0.70508880702E+03  0.71741412368E+03  0.90850679845E+02 0.  0.
         23    2    1    2    0    0 -0.90924022587E+02 -0.31808413308E+02 -0.35330738884E+03  0.37773079663E+03  0.92603945224E+02 0.  0.
          5    1    4    4  502    0 -0.62841668539E+02  0.11808005552E+01 -0.84517568962E+02  0.10543139503E+03  0.47000000000E+01 0. -1.
         -5    1    3    3    0  503  0.83410047874E+02  0.59559631544E+02 -0.51694603606E+03  0.52702929709E+03  0.47000000000E+01 0.  1.
          5    1    3    3  503    0  0.75139747127E+01 -0.27751218237E+02 -0.18814277096E+03  0.19038482659E+03  0.47000000000E+01 0. -1.
         -5    1    4    4    0  502 -0.28082354048E+02 -0.32989213863E+02 -0.26878981988E+03  0.27229940160E+03  0.47000000000E+01 0.  1.
<mgrwt>
<rscale>  0 0.13331723E+03</rscale>
<asrwt>0</asrwt>
<pdfrwt beam="1">  1        1 0.28268251E-02 0.13362052E+03</pdfrwt>
<pdfrwt beam="2">  1       -1 0.16565700E+00 0.13362052E+03</pdfrwt>
<totfact> 0.10507189E+03</totfact>
</mgrwt>
</event>
<event>
 8    1  0.5224537E-004  0.9550592E+02  0.7546771E-02  0.1290698E+00
          1   -1    0    0  501    0  0.00000000000E+00  0.00000000000E+00  0.10681354889E+04  0.10681354889E+04  0.00000000000E+00 0. -1.
         -1   -1    0    0    0  501 -0.00000000000E+00 -0.00000000000E+00 -0.84871907424E+01  0.84871907424E+01  0.00000000000E+00 0.  1.
         23    2    1    2    0    0  0.13481950816E+02  0.22092854976E+02  0.48457496686E+03  0.49367266739E+03  0.90719054143E+02 0.  0.
         23    2    1    2    0    0 -0.13481950816E+02 -0.22092854976E+02  0.57507333126E+03  0.58295001221E+03  0.91932166148E+02 0.  0.
          5    1    4    4  502    0 -0.42859493689E+02 -0.31825046005E+02  0.47703505606E+03  0.48003573248E+03  0.47000000000E+01 0. -1.
         -5    1    4    4    0  502  0.29377542874E+02  0.97321910282E+01  0.98038275204E+02  0.10291427973E+03  0.47000000000E+01 0.  1.
          5    1    3    3  503    0 -0.38611013853E+02  0.91581897203E+01  0.18164888677E+03  0.18599217966E+03  0.47000000000E+01 0. -1.
         -5    1    3    3    0  503  0.52092964668E+02  0.12934665256E+02  0.30292608009E+03  0.30768048774E+03  0.47000000000E+01 0.  1.
<mgrwt>
<rscale>  0 0.95212785E+02</rscale>
<asrwt>0</asrwt>
<pdfrwt beam="1">  1        1 0.16432843E+00 0.95505918E+02</pdfrwt>
<pdfrwt beam="2">  1       -1 0.13057225E-02 0.95505918E+02</pdfrwt>
<totfact> 0.16954392E+04</totfact>
</mgrwt>
</event>
<event>
 8    1  0.5224537E-004  0.9707609E+02  0.7546771E-02  0.1287677E+00
         -2   -1    0    0    0  501 -0.00000000000E+00  0.00000000000E+00  0.14260785156E+03  0.14260785156E+03  0.00000000000E+00 0.  1.
          2   -1    0    0  501    0  0.00000000000E+00 -0.00000000000E+00 -0.64856659172E+02  0.64856659172E+02  0.00000000000E+00 0. -1.
         23    2    1    2    0    0 -0.12423297169E+02  0.29891739097E+02  0.43179965428E+02  0.10441628854E+03  0.89389023483E+02 0.  0.
         23    2    1    2    0    0  0.12423297169E+02 -0.29891739097E+02  0.34571226957E+02  0.10304822219E+03  0.91520008656E+02 0.  0.
          5    1    3    3  502    0  0.13723637751E+02 -0.27730966370E+02  0.10271851890E+02  0.32938513479E+02  0.47000000000E+01 0. -1.
         -5    1    4    4    0  503  0.13339414960E+02  0.16423689462E+02  0.49593293135E+02  0.54122659682E+02  0.47000000000E+01 0.  1.
          5    1    4    4  503    0 -0.91611779101E+00 -0.46315428559E+02 -0.15022066179E+02  0.48925562508E+02  0.47000000000E+01 0. -1.
         -5    1    3    3    0  502 -0.26146934920E+02  0.57622705467E+02  0.32908113538E+02  0.71477775061E+02  0.47000000000E+01 0.  1.
<mgrwt>
<rscale>  0 0.96570559E+02</rscale>
<asrwt>0</asrwt>
<pdfrwt beam="1">  1        2 0.99779475E-02 0.97076085E+02</pdfrwt>
<pdfrwt beam="2">  1       -2 0.21939670E-01 0.97076085E+02</pdfrwt>
<totfact> 0.10446885E+04</totfact>
</mgrwt>
</event>
<event>
 8    1  0.5224537E-004  0.1131958E+03  0.7546771E-02  0.1263651E+00
         -1   -1    0    0    0  501 -0.00000000000E+00  0.00000000000E+00  0.57227008095E+02  0.57227008095E+02  0.00000000000E+00 0.  1.
          1   -1    0    0  501    0  0.00000000000E+00 -0.00000000000E+00 -0.33116211971E+03  0.33116211971E+03  0.00000000000E+00 0. -1.
         23    2    1    2    0    0 -0.33940909904E+02 -0.97035510349E+01 -0.33607645019E+01  0.95091051953E+02  0.88231905542E+02 0.  0.
         23    2    1    2    0    0  0.33940909904E+02  0.97035510349E+01 -0.27057434711E+03  0.29329807585E+03  0.10755063791E+03 0.  0.
          5    1    4    4  502    0 -0.24284578698E+02  0.34854708803E+02 -0.16127007366E+03  0.16683740033E+03  0.47000000000E+01 0. -1.
         -5    1    3    3    0  503 -0.40426457906E+02 -0.39226298841E+02 -0.20378120193E+02  0.60086261343E+02  0.47000000000E+01 0.  1.
          5    1    3    3  503    0  0.64855480023E+01  0.29522747806E+02  0.17017355691E+02  0.35004790610E+02  0.47000000000E+01 0. -1.
         -5    1    4    4    0  502  0.58225488603E+02 -0.25151157768E+02 -0.10930427344E+03  0.12646067552E+03  0.47000000000E+01 0.  1.
<mgrwt>
<rscale>  0 0.10835270E+03</rscale>
<asrwt>0</asrwt>
<pdfrwt beam="1">  1        1 0.50948018E-01 0.11319578E+03</pdfrwt>
<pdfrwt beam="2">  1       -1 0.88041551E-02 0.11319578E+03</pdfrwt>
<totfact> 0.54358036E+03</totfact>
</mgrwt>
</event>
<event>
 8    1  0.5224537E-004  0.1336962E+03  0.7546771E-02  0.1222199E+00
         -1   -1    0    0    0  501 -0.00000000000E+00  0.00000000000E+00  0.10881493834E+03  0.10881493834E+03  0.00000000000E+00 0.  1.
          1   -1    0    0  501    0  0.00000000000E+00 -0.00000000000E+00 -0.24316891586E+03  0.24316891586E+03  0.00000000000E+00 0. -1.
         23    2    1    2    0    0  0.23664004969E+02 -0.94472398911E+02 -0.16764295118E+03  0.21420565614E+03  0.91076257919E+02 0.  0.
         23    2    1    2    0    0 -0.23664004969E+02  0.94472398911E+02  0.33288973662E+02  0.13777819806E+03  0.91595069765E+02 0.  0.
          5    1    4    4  502    0 -0.36966400907E+02  0.63254345331E+02 -0.18475970947E+02  0.75703886966E+02  0.47000000000E+01 0. -1.
         -5    1    4    4    0  502  0.13302395939E+02  0.31218053580E+02  0.51764944609E+02  0.62074311091E+02  0.47000000000E+01 0.  1.
          5    1    3    3  503    0 -0.10088157388E+02 -0.52362005432E+02 -0.14663879916E+03  0.15610438159E+03  0.47000000000E+01 0. -1.
         -5    1    3    3    0  503  0.33752162356E+02 -0.42110393479E+02 -0.21004152018E+02  0.58101274553E+02  0.47000000000E+01 0.  1.
<mgrwt>
<rscale>  0 0.13360739E+03</rscale>
<asrwt>0</asrwt>
<pdfrwt beam="1">  1        1 0.37410602E-01 0.13369621E+03</pdfrwt>
<pdfrwt beam="2">  1       -1 0.16740760E-01 0.13369621E+03</pdfrwt>
<totfact> 0.29816885E+03</totfact>
</mgrwt>
</event>
<event>
 8    1  0.5224537E-004  0.1481787E+03  0.7546771E-02  0.1207285E+00
          1   -1    0    0  501    0  0.00000000000E+00  0.00000000000E+00  0.37565810807E+02  0.37565810807E+02  0.00000000000E+00 0. -1.
         -1   -1    0    0    0  501 -0.00000000000E+00 -0.00000000000E+00 -0.53532085689E+03  0.53532085689E+03  0.00000000000E+00 0.  1.
         23    2    1    2    0    0 -0.10953012299E+03  0.37987259096E+02 -0.28626227311E+03  0.32233989346E+03  0.92287800979E+02 0.  0.
         23    2    1    2    0    0  0.10953012299E+03 -0.37987259096E+02 -0.21149277297E+03  0.25054677424E+03  0.67857301500E+02 0.  0.
          5    1    3    3  502    0 -0.12143643426E+02 -0.26002156276E+02 -0.36313520271E+02  0.46522488768E+02  0.47000000000E+01 0. -1.
         -5    1    4    4    0  503  0.48382192380E+02 -0.14952952497E+02 -0.15795804496E+03  0.16594354852E+03  0.47000000000E+01 0.  1.
          5    1    4    4  503    0  0.61147930614E+02 -0.23034306599E+02 -0.53534728005E+02  0.84603225715E+02  0.47000000000E+01 0. -1.
         -5    1    3    3    0  502 -0.97386479568E+02  0.63989415372E+02 -0.24994875284E+03  0.27581740469E+03  0.47000000000E+01 0.  1.
<mgrwt>
<rscale>  0 0.14458803E+03</rscale>
<asrwt>0</asrwt>
<pdfrwt beam="1">  1        1 0.57793559E-02 0.14817867E+03</pdfrwt>
<pdfrwt beam="2">  1       -1 0.82357050E-01 0.14817867E+03</pdfrwt>
<totfact> 0.20367756E+03</totfact>
</mgrwt>
</event>
<event>
 8    1  0.5224537E-004  0.9842027E+02  0.7546771E-02  0.1287044E+00
         -2   -1    0    0    0  501 -0.00000000000E+00  0.00000000000E+00  0.42630050202E+03  0.42630050202E+03  0.00000000000E+00 0.  1.
          2   -1    0    0  501    0  0.00000000000E+00 -0.00000000000E+00 -0.23412570598E+03  0.23412570598E+03  0.00000000000E+00 0. -1.
         23    2    1    2    0    0  0.79808139571E+01  0.92128836919E+01  0.41116037046E+03  0.42277582663E+03  0.97662575875E+02 0.  0.
         23    2    1    2    0    0 -0.79808139571E+01 -0.92128836919E+01 -0.21898557443E+03  0.23765038137E+03  0.91512028382E+02 0.  0.
          5    1    4    4  502    0  0.84218540201E+00 -0.42504832118E+02 -0.18173490794E+03  0.18670039313E+03  0.47000000000E+01 0. -1.
         -5    1    3    3    0  503  0.35859166463E+02  0.36455600774E+02  0.14694394178E+03  0.15565828816E+03  0.47000000000E+01 0.  1.
          5    1    3    3  503    0 -0.27878352505E+02 -0.27242717082E+02  0.26421642868E+03  0.26711753847E+03  0.47000000000E+01 0. -1.
         -5    1    4    4    0  502 -0.88229993591E+01  0.33291948426E+02 -0.37250666483E+02  0.50949988235E+02  0.47000000000E+01 0.  1.
<mgrwt>
<rscale>  0 0.96858472E+02</rscale>
<asrwt>0</asrwt>
<pdfrwt beam="1">  1        2 0.36019340E-01 0.98420269E+02</pdfrwt>
<pdfrwt beam="2">  1       -2 0.65584692E-01 0.98420269E+02</pdfrwt>
<totfact> 0.31604654E+02</totfact>
</mgrwt>
</event>
<event>
 8    1  0.5224537E-004  0.9525939E+02  0.7546771E-02  0.1291725E+00
         -1   -1    0    0    0  501 -0.00000000000E+00  0.00000000000E+00  0.35506482050E+02  0.35506482050E+02  0.00000000000E+00 0.  1.
          1   -1    0    0  501    0  0.00000000000E+00 -0.00000000000E+00 -0.27529303131E+03  0.27529303131E+03  0.00000000000E+00 0. -1.
         23    2    1    2    0    0 -0.11203869175E+01 -0.28750314532E+02 -0.16791973057E+03  0.19305798784E+03  0.90810323775E+02 0.  0.
         23    2    1    2    0    0  0.11203869175E+01  0.28750314532E+02 -0.71866818695E+02  0.11774152552E+03  0.88715226142E+02 0.  0.
          5    1    3    3  502    0 -0.35618529618E+02 -0.36203232477E+02 -0.13596167647E+03  0.14521370859E+03  0.47000000000E+01 0. -1.
         -5    1    3    3    0  502  0.34498142701E+02  0.74529179447E+01 -0.31958054099E+02  0.47844279256E+02  0.47000000000E+01 0.  1.
          5    1    4    4  503    0 -0.35839674820E+02  0.14903167135E+01 -0.50508681350E+01  0.36528134418E+02  0.47000000000E+01 0. -1.
         -5    1    4    4    0  503  0.36960061738E+02  0.27259997819E+02 -0.66815950560E+02  0.81213391100E+02  0.47000000000E+01 0.  1.
<mgrwt>
<rscale>  0 0.94756646E+02</rscale>
<asrwt>0</asrwt>
<pdfrwt beam="1">  1        1 0.42352774E-01 0.95259387E+02</pdfrwt>
<pdfrwt beam="2">  1       -1 0.54625357E-02 0.95259387E+02</pdfrwt>
<totfact> 0.13689124E+04</totfact>
</mgrwt>
</event>
<event>
 8    1  0.5224537E-004  0.1781694E+03  0.7546771E-02  0.1169889E+00
         -1   -1    0    0    0  501 -0.00000000000E+00  0.00000000000E+00  0.20537073324E+02  0.20537073324E+02  0.00000000000E+00 0.  1.
          1   -1    0    0  501    0  0.00000000000E+00 -0.00000000000E+00 -0.16656451640E+04  0.16656451640E+04  0.00000000000E+00 0. -1.
         23    2    1    2    0    0 -0.55979800694E+02  0.14211058435E+03 -0.58387152858E+03  0.61009331528E+03  0.89323766130E+02 0.  0.
         23    2    1    2    0    0  0.55979800694E+02 -0.14211058435E+03 -0.10612365621E+04  0.10760889221E+04  0.91734241924E+02 0.  0.
          5    1    3    3  502    0 -0.21035649751E+02  0.89484800488E+02 -0.47748680729E+03  0.48627746115E+03  0.47000000000E+01 0. -1.
         -5    1    4    4    0  503 -0.17055725219E+02 -0.68822798810E+02 -0.54058242091E+03  0.54523290362E+03  0.47000000000E+01 0.  1.
          5    1    4    4  503    0  0.73035525913E+02 -0.73287785542E+02 -0.52065414120E+03  0.53085601843E+03  0.47000000000E+01 0. -1.
         -5    1    3    3    0  502 -0.34944150944E+02  0.52625783864E+02 -0.10638472128E+03  0.12381585413E+03  0.47000000000E+01 0.  1.
<mgrwt>
<rscale>  0 0.17786133E+03</rscale>
<asrwt>0</asrwt>
<pdfrwt beam="1">  1        1 0.25625309E+00 0.17816938E+03</pdfrwt>
<pdfrwt beam="2">  1       -1 0.31595499E-02 0.17816938E+03</pdfrwt>
<totfact> 0.19469926E+03</totfact>
</mgrwt>
</event>
<event>
 8    1  0.5224537E-004  0.1038313E+03  0.7546771E-02  0.1290249E+00
          2   -1    0    0  501    0  0.00000000000E+00  0.00000000000E+00  0.54462295494E+03  0.54462295494E+03  0.00000000000E+00 0. -1.
         -2   -1    0    0    0  501 -0.00000000000E+00 -0.00000000000E+00 -0.16524104478E+02  0.16524104478E+02  0.00000000000E+00 0.  1.
         23    2    1    2    0    0  0.22678614580E+02  0.12525239926E+02  0.39936573451E+03  0.41264261522E+03  0.10054718694E+03 0.  0.
         23    2    1    2    0    0 -0.22678614580E+02 -0.12525239926E+02  0.12873311595E+03  0.14850444420E+03  0.69355270954E+02 0.  0.
          5    1    4    4  502    0  0.78708657169E+01  0.23641039840E+02  0.57530648894E+02  0.62870619958E+02  0.47000000000E+01 0. -1.
         -5    1    3    3    0  503  0.48953093842E+02 -0.22297157407E+02  0.28659454482E+03  0.29163691767E+03  0.47000000000E+01 0.  1.
          5    1    3    3  503    0 -0.26274479262E+02  0.34822397333E+02  0.11277118969E+03  0.12100569755E+03  0.47000000000E+01 0. -1.
         -5    1    4    4    0  502 -0.30549480297E+02 -0.36166279766E+02  0.71202467058E+02  0.85633824239E+02  0.47000000000E+01 0.  1.
<mgrwt>
<rscale>  0 0.95412922E+02</rscale>
<asrwt>0</asrwt>
<pdfrwt beam="1">  1        2 0.83788133E-01 0.10383130E+03</pdfrwt>
<pdfrwt beam="2">  1       -2 0.25421703E-02 0.10383130E+03</pdfrwt>
<totfact> 0.27914091E+04</totfact>
</mgrwt>
</event>
<event>
 8    1  0.5224537E-004  0.9505307E+02  0.7546771E-02  0.1292310E+00
          2   -1    0    0  501    0  0.00000000000E+00  0.00000000000E+00  0.42967846410E+03  0.42967846410E+03  0.00000000000E+00 0. -1.
         -2   -1    0    0    0  501 -0.00000000000E+00 -0.00000000000E+00 -0.29570112435E+02  0.29570112435E+02  0.00000000000E+00 0.  1.
         23    2    1    2    0    0 -0.15563290990E+01  0.26189770483E+02  0.71565173868E+02  0.11723146305E+03  0.89069161776E+02 0.  0.
         23    2    1    2    0    0  0.15563290990E+01 -0.26189770483E+02  0.32854317779E+03  0.34201711348E+03  0.91360604217E+02 0.  0.
          5    1    4    4  502    0  0.28337400245E+02 -0.22572837277E+02  0.30077476195E+03  0.30298529446E+03  0.47000000000E+01 0. -1.
         -5    1    3    3    0  503  0.23699608417E+02  0.23150245025E+02 -0.72855149605E+01  0.34245788239E+02  0.47000000000E+01 0.  1.
          5    1    3    3  503    0 -0.25255937516E+02  0.30395254574E+01  0.78850688829E+02  0.82985674810E+02  0.47000000000E+01 0. -1.
         -5    1    4    4    0  502 -0.26781071146E+02 -0.36169332061E+01  0.27768415843E+02  0.39031819020E+02  0.47000000000E+01 0.  1.
<mgrwt>
<rscale>  0 0.94498162E+02</rscale>
<asrwt>0</asrwt>
<pdfrwt beam="1">  1        2 0.66104374E-01 0.95053071E+02</pdfrwt>
<pdfrwt beam="2">  1       -2 0.45492484E-02 0.95053071E+02</pdfrwt>
<totfact> 0.15243340E+04</totfact>
</mgrwt>
</event>
<event>
 8    1  0.5224537E-004  0.1160607E+03  0.7546771E-02  0.1250588E+00
          1   -1    0    0  501    0  0.00000000000E+00  0.00000000000E+00  0.19037468946E+03  0.19037468946E+03  0.00000000000E+00 0. -1.
         -1   -1    0    0    0  501 -0.00000000000E+00 -0.00000000000E+00 -0.69688702853E+02  0.69688702853E+02  0.00000000000E+00 0.  1.
         23    2    1    2    0    0 -0.69127496343E+02 -0.22203069897E+02  0.55557140706E+02  0.12867279664E+03  0.90545599824E+02 0.  0.
         23    2    1    2    0    0  0.69127496343E+02  0.22203069897E+02  0.65128845904E+02  0.13139059568E+03  0.88034851058E+02 0.  0.
          5    1    3    3  502    0 -0.72800072577E+01  0.32229152796E+02  0.19127311893E+02  0.38466360055E+02  0.47000000000E+01 0. -1.
         -5    1    4    4    0  503  0.51194321016E+02 -0.29308166828E+02  0.30040062801E+02  0.66365070031E+02  0.47000000000E+01 0.  1.
          5    1    4    4  503    0  0.17933175327E+02  0.51511236725E+02  0.35088783103E+02  0.65025525649E+02  0.47000000000E+01 0. -1.
         -5    1    3    3    0  502 -0.61847489085E+02 -0.54432222693E+02  0.36429828813E+02  0.90206436582E+02  0.47000000000E+01 0.  1.
<mgrwt>
<rscale>  0 0.11557064E+03</rscale>
<asrwt>0</asrwt>
<pdfrwt beam="1">  1        1 0.29288414E-01 0.11606073E+03</pdfrwt>
<pdfrwt beam="2">  1       -1 0.10721339E-01 0.11606073E+03</pdfrwt>
<totfact> 0.79876431E+03</totfact>
</mgrwt>
</event>
<event>
 8    1  0.5224537E-004  0.1720533E+03  0.7546771E-02  0.1175871E+00
          1   -1    0    0  501    0  0.00000000000E+00  0.00000000000E+00  0.89792675200E+02  0.89792675200E+02  0.00000000000E+00 0. -1.
         -1   -1    0    0    0  501 -0.00000000000E+00 -0.00000000000E+00 -0.33245197756E+03  0.33245197756E+03  0.00000000000E+00 0.  1.
         23    2    1    2    0    0 -0.99171344966E+02 -0.10686949243E+03 -0.98723437535E+02  0.19836492250E+03  0.91357984256E+02 0.  0.
         23    2    1    2    0    0  0.99171344966E+02  0.10686949243E+03 -0.14393586483E+03  0.22387973026E+03  0.90269354508E+02 0.  0.
          5    1    4    4  502    0  0.32345878698E+02 -0.12141477040E+02 -0.31240919338E+02  0.46816197780E+02  0.47000000000E+01 0. -1.
         -5    1    3    3    0  503 -0.29441818663E+02  0.56822071676E+01 -0.47403921457E+02  0.56287919965E+02  0.47000000000E+01 0.  1.
          5    1    3    3  503    0 -0.69729526303E+02 -0.11255169959E+03 -0.51319516077E+02  0.14207700254E+03  0.47000000000E+01 0. -1.
         -5    1    4    4    0  502  0.66825466268E+02  0.11901096947E+03 -0.11269494549E+03  0.17706353248E+03  0.47000000000E+01 0.  1.
<mgrwt>
<rscale>  0 0.17190919E+03</rscale>
<asrwt>0</asrwt>
<pdfrwt beam="1">  1        1 0.13814258E-01 0.17205326E+03</pdfrwt>
<pdfrwt beam="2">  1       -1 0.51146457E-01 0.17205326E+03</pdfrwt>
<totfact> 0.16131075E+03</totfact>
</mgrwt>
</event>
<event>
 8    1  0.5224537E-004  0.1169194E+03  0.7546771E-02  0.1248422E+00
          1   -1    0    0  501    0  0.00000000000E+00  0.00000000000E+00  0.34786953941E+03  0.34786953941E+03  0.00000000000E+00 0. -1.
         -1   -1    0    0    0  501 -0.00000000000E+00 -0.00000000000E+00 -0.39222938242E+02  0.39222938242E+02  0.00000000000E+00 0.  1.
         23    2    1    2    0    0 -0.65180133826E+02  0.32964169656E+02  0.14781650725E+03  0.18846717775E+03  0.91296609715E+02 0.  0.
         23    2    1    2    0    0  0.65180133826E+02 -0.32964169656E+02  0.16083009392E+03  0.19862529991E+03  0.90832837269E+02 0.  0.
          5    1    3    3  502    0 -0.27134120755E+02  0.10888643324E+02  0.14055192485E+03  0.14363758784E+03  0.47000000000E+01 0. -1.
         -5    1    4    4    0  503  0.46291244309E+02 -0.50084359943E+02  0.15848067182E+03  0.17259645347E+03  0.47000000000E+01 0. -1.
          5    1    4    4  503    0  0.18888889516E+02  0.17120190287E+02  0.23494221017E+01  0.26028846437E+02  0.47000000000E+01 0.  1.
         -5    1    3    3    0  502 -0.38046013071E+02  0.22075526332E+02  0.72645824015E+01  0.44829589903E+02  0.47000000000E+01 0.  1.
<mgrwt>
<rscale>  0 0.11682890E+03</rscale>
<asrwt>0</asrwt>
<pdfrwt beam="1">  1        1 0.53518389E-01 0.11691945E+03</pdfrwt>
<pdfrwt beam="2">  1       -1 0.60342984E-02 0.11691945E+03</pdfrwt>
<totfact> 0.90189206E+03</totfact>
</mgrwt>
</event>
<event>
 8    1  0.5224537E-004  0.1182638E+03  0.7546771E-02  0.1246670E+00
          1   -1    0    0  501    0  0.00000000000E+00  0.00000000000E+00  0.20305024563E+03  0.20305024563E+03  0.00000000000E+00 0. -1.
         -1   -1    0    0    0  501 -0.00000000000E+00 -0.00000000000E+00 -0.75176619447E+02  0.75176619447E+02  0.00000000000E+00 0.  1.
         23    2    1    2    0    0  0.23410144774E+02  0.68635628808E+02  0.10667796268E+03  0.15807870951E+03  0.91377274293E+02 0.  0.
         23    2    1    2    0    0 -0.23410144774E+02 -0.68635628808E+02  0.21195663498E+02  0.12014815557E+03  0.93420761691E+02 0.  0.
          5    1    4    4  502    0 -0.44750858346E+02 -0.46693059777E+02 -0.20682189836E+02  0.68064117789E+02  0.47000000000E+01 0. -1.
         -5    1    4    4    0  502  0.21340713572E+02 -0.21942569031E+02  0.41877853333E+02  0.52084037778E+02  0.47000000000E+01 0.  1.
          5    1    3    3  503    0 -0.16394036895E+02  0.56081565720E+02  0.99480221118E+02  0.11546562628E+03  0.47000000000E+01 0. -1.
         -5    1    3    3    0  503  0.39804181669E+02  0.12554063087E+02  0.71977415672E+01  0.42613083225E+02  0.47000000000E+01 0.  1.
<mgrwt>
<rscale>  0 0.11785985E+03</rscale>
<asrwt>0</asrwt>
<pdfrwt beam="1">  1        1 0.31238499E-01 0.11826379E+03</pdfrwt>
<pdfrwt beam="2">  1       -1 0.11565634E-01 0.11826379E+03</pdfrwt>
<totfact> 0.65766171E+03</totfact>
</mgrwt>
</event>
<event>
 8    1  0.5224537E-004  0.1002505E+03  0.7546771E-02  0.1283723E+00
          1   -1    0    0  501    0  0.00000000000E+00  0.00000000000E+00  0.33120970760E+02  0.33120970760E+02  0.00000000000E+00 0. -1.
         -1   -1    0    0    0  501 -0.00000000000E+00 -0.00000000000E+00 -0.28196749637E+03  0.28196749637E+03  0.00000000000E+00 0.  1.
         23    2    1    2    0    0 -0.17417250523E+02  0.99765767820E+01 -0.12215076525E+03  0.15352739054E+03  0.90812760629E+02 0.  0.
         23    2    1    2    0    0  0.17417250523E+02 -0.99765767820E+01 -0.12669576036E+03  0.16156107659E+03  0.98220532872E+02 0.  0.
          5    1    4    4  502    0 -0.24251316812E+02 -0.17153886675E+02 -0.23811608172E+01  0.30168561815E+02  0.47000000000E+01 0. -1.
         -5    1    3    3    0  503  0.27690840418E+02  0.31490726922E+02 -0.47099654497E+02  0.63236982684E+02  0.47000000000E+01 0.  1.
          5    1    3    3  503    0 -0.45108090942E+02 -0.21514150140E+02 -0.75051110756E+02  0.90290407854E+02  0.47000000000E+01 0. -1.
         -5    1    4    4    0  502  0.41668567335E+02  0.71773098929E+01 -0.12431459954E+03  0.13139251478E+03  0.47000000000E+01 0.  1.
<mgrwt>
<rscale>  0 0.98387751E+02</rscale>
<asrwt>0</asrwt>
<pdfrwt beam="1">  1        1 0.50955340E-02 0.10025052E+03</pdfrwt>
<pdfrwt beam="2">  1       -1 0.43379614E-01 0.10025052E+03</pdfrwt>
<totfact> 0.79598597E+03</totfact>
</mgrwt>
</event>
<event>
 8    1  0.5224537E-004  0.1021765E+03  0.7546771E-02  0.1278503E+00
         -2   -1    0    0    0  501 -0.00000000000E+00  0.00000000000E+00  0.24392331190E+02  0.24392331190E+02  0.00000000000E+00 0.  1.
          2   -1    0    0  501    0  0.00000000000E+00 -0.00000000000E+00 -0.40689516225E+03  0.40689516225E+03  0.00000000000E+00 0. -1.
         23    2    1    2    0    0  0.26099251896E+02 -0.25556616836E+02 -0.19041958113E+03  0.21610101869E+03  0.95423905740E+02 0.  0.
         23    2    1    2    0    0 -0.26099251896E+02  0.25556616836E+02 -0.19208324993E+03  0.21518647475E+03  0.89860627635E+02 0.  0.
          5    1    3    3  502    0 -0.21910541477E+02  0.24032065141E+02 -0.56195098315E+02  0.65096782235E+02  0.47000000000E+01 0. -1.
         -5    1    3    3    0  502  0.48009793373E+02 -0.49588681977E+02 -0.13422448282E+03  0.15100423646E+03  0.47000000000E+01 0.  1.
          5    1    4    4  503    0  0.19574604978E+02  0.39545920289E+02 -0.12543699718E+03  0.13305478283E+03  0.47000000000E+01 0. -1.
         -5    1    4    4    0  503 -0.45673856874E+02 -0.13989303453E+02 -0.66646252749E+02  0.82131691924E+02  0.47000000000E+01 0.  1.
<mgrwt>
<rscale>  0 0.10085735E+03</rscale>
<asrwt>0</asrwt>
<pdfrwt beam="1">  1        2 0.62599258E-01 0.10217648E+03</pdfrwt>
<pdfrwt beam="2">  1       -2 0.37526662E-02 0.10217648E+03</pdfrwt>
<totfact> 0.21604346E+04</totfact>
</mgrwt>
</event>
<event>
 8    1  0.5224537E-004  0.1798461E+03  0.7546771E-02  0.1168189E+00
          2   -1    0    0  501    0  0.00000000000E+00  0.00000000000E+00  0.38850083369E+03  0.38850083369E+03  0.00000000000E+00 0. -1.
         -2   -1    0    0    0  501 -0.00000000000E+00 -0.00000000000E+00 -0.82811486192E+02  0.82811486192E+02  0.00000000000E+00 0.  1.
         23    2    1    2    0    0  0.95057529702E+02  0.12081348106E+03  0.15474744729E+03  0.23651861664E+03  0.91446445618E+02 0.  0.
         23    2    1    2    0    0 -0.95057529702E+02 -0.12081348106E+03  0.15094190021E+03  0.23479370324E+03  0.93342352042E+02 0.  0.
          5    1    4    4  502    0 -0.54727806472E+02 -0.19324191431E+02  0.14578774475E+02  0.60026559462E+02  0.47000000000E+01 0. -1.
         -5    1    4    4    0  502 -0.40329723230E+02 -0.10148928963E+03  0.13636312573E+03  0.17476714378E+03  0.47000000000E+01 0.  1.
          5    1    3    3  503    0  0.13968103079E+02  0.36768108139E+02  0.99784277480E+02  0.10735918085E+03  0.47000000000E+01 0. -1.
         -5    1    3    3    0  503  0.81089426623E+02  0.84045372921E+02  0.54963169813E+02  0.12915943580E+03  0.47000000000E+01 0.  1.
<mgrwt>
<rscale>  0 0.17960145E+03</rscale>
<asrwt>0</asrwt>
<pdfrwt beam="1">  1        2 0.59769358E-01 0.17984612E+03</pdfrwt>
<pdfrwt beam="2">  1       -2 0.12740229E-01 0.17984612E+03</pdfrwt>
<totfact> 0.36207315E+03</totfact>
</mgrwt>
</event>
<event>
 8    1  0.5224537E-004  0.1080780E+03  0.7546771E-02  0.1267073E+00
         -1   -1    0    0    0  501 -0.00000000000E+00  0.00000000000E+00  0.33166023811E+02  0.33166023811E+02  0.00000000000E+00 0.  1.
          1   -1    0    0  501    0  0.00000000000E+00 -0.00000000000E+00 -0.38838512742E+03  0.38838512742E+03  0.00000000000E+00 0. -1.
         23    2    1    2    0    0 -0.40506924891E+02  0.22625720372E+02 -0.26140664893E+03  0.28286795972E+03  0.97612050208E+02 0.  0.
         23    2    1    2    0    0  0.40506924891E+02 -0.22625720372E+02 -0.93812454684E+02  0.13868319151E+03  0.90991850009E+02 0.  0.
          5    1    3    3  502    0 -0.47317253690E+02 -0.19582015278E+02 -0.71017995294E+02  0.87681374731E+02  0.47000000000E+01 0.  1.
         -5    1    4    4    0  503  0.53391724377E+02 -0.11208067258E+01 -0.14740887050E+02  0.55599606030E+02  0.47000000000E+01 0.  1.
          5    1    4    4  503    0 -0.12884799486E+02 -0.21504913646E+02 -0.79071567633E+02  0.83083585483E+02  0.47000000000E+01 0. -1.
         -5    1    3    3    0  502  0.68103287988E+01  0.42207735650E+02 -0.19038865363E+03  0.19518658499E+03  0.47000000000E+01 0. -1.
<mgrwt>
<rscale>  0 0.10656145E+03</rscale>
<asrwt>0</asrwt>
<pdfrwt beam="1">  1        1 0.59751557E-01 0.10807797E+03</pdfrwt>
<pdfrwt beam="2">  1       -1 0.51024653E-02 0.10807797E+03</pdfrwt>
<totfact> 0.10015524E+04</totfact>
</mgrwt>
</event>
<event>
 8    1  0.5224537E-004  0.9649719E+02  0.7546771E-02  0.1288409E+00
         -3   -1    0    0    0  501 -0.00000000000E+00  0.00000000000E+00  0.14662035328E+03  0.14662035328E+03  0.00000000000E+00 0.  1.
          3   -1    0    0  501    0  0.00000000000E+00 -0.00000000000E+00 -0.68469888309E+02  0.68469888309E+02  0.00000000000E+00 0. -1.
         23    2    1    2    0    0 -0.23096766938E+02 -0.15108291159E+02  0.69735456280E+02  0.11822682821E+03  0.91393806904E+02 0.  0.
         23    2    1    2    0    0  0.23096766938E+02  0.15108291159E+02  0.84150086876E+01  0.96863413380E+02  0.92466141780E+02 0.  0.
          5    1    4    4  502    0 -0.23076001714E+02  0.19228194391E+02 -0.25135195820E+02  0.39447349512E+02  0.47000000000E+01 0. -1.
         -5    1    4    4    0  502  0.46172768652E+02 -0.41199032313E+01  0.33550204507E+02  0.57416063868E+02  0.47000000000E+01 0.  1.
          5    1    3    3  503    0 -0.44511554431E+02 -0.31249255100E+02  0.72620174155E+02  0.90849183356E+02  0.47000000000E+01 0. -1.
         -5    1    3    3    0  503  0.21414787494E+02  0.16140963940E+02 -0.28847178754E+01  0.27377644850E+02  0.47000000000E+01 0.  1.
<mgrwt>
<rscale>  0 0.96239401E+02</rscale>
<asrwt>0</asrwt>
<pdfrwt beam="1">  1        3 0.10533829E-01 0.96497194E+02</pdfrwt>
<pdfrwt beam="2">  1       -3 0.22556977E-01 0.96497194E+02</pdfrwt>
<totfact> 0.26208991E+03</totfact>
</mgrwt>
</event>
<event>
 8    1  0.5224537E-004  0.9398997E+02  0.7546771E-02  0.1298802E+00
          3   -1    0    0  501    0  0.00000000000E+00  0.00000000000E+00  0.19289739775E+03  0.19289739775E+03  0.00000000000E+00 0. -1.
         -3   -1    0    0    0  501 -0.00000000000E+00 -0.00000000000E+00 -0.43227257724E+02  0.43227257724E+02  0.00000000000E+00 0.  1.
         23    2    1    2    0    0 -0.74433668004E+01 -0.49142592898E+01  0.55401042339E+02  0.10910265501E+03  0.93565806706E+02 0.  0.
         23    2    1    2    0    0  0.74433668004E+01  0.49142592898E+01  0.94269097691E+02  0.12702200047E+03  0.84666239844E+02 0.  0.
          5    1    3    3  502    0  0.30919531360E+02 -0.75977888624E+01  0.61948888302E+02  0.69810447477E+02  0.47000000000E+01 0. -1.
         -5    1    4    4    0  503 -0.41818755827E+01 -0.36342614334E+02  0.22231867862E+02  0.43065295176E+02  0.47000000000E+01 0. -1.
          5    1    4    4  503    0  0.11625242383E+02  0.41256873623E+02  0.72037229830E+02  0.83956705290E+02  0.47000000000E+01 0.  1.
         -5    1    3    3    0  502 -0.38362898160E+02  0.26835295726E+01 -0.65478459625E+01  0.39292207535E+02  0.47000000000E+01 0.  1.
<mgrwt>
<rscale>  0 0.91693350E+02</rscale>
<asrwt>0</asrwt>
<pdfrwt beam="1">  1        3 0.29676522E-01 0.93989967E+02</pdfrwt>
<pdfrwt beam="2">  1       -3 0.66503474E-02 0.93989967E+02</pdfrwt>
<totfact> 0.33499730E+03</totfact>
</mgrwt>
</event>
<event>
 8    1  0.5224537E-004  0.1147944E+03  0.7546771E-02  0.1252251E+00
          2   -1    0    0  501    0  0.00000000000E+00  0.00000000000E+00  0.46579654660E+03  0.46579654660E+03  0.00000000000E+00 0. -1.
         -2   -1    0    0    0  501 -0.00000000000E+00 -0.00000000000E+00 -0.34743566523E+02  0.34743566523E+02  0.00000000000E+00 0.  1.
         23    2    1    2    0    0  0.42645866991E+01  0.69775464511E+02  0.10676309060E+03  0.15676772836E+03  0.91054714276E+02 0.  0.
         23    2    1    2    0    0 -0.42645866991E+01 -0.69775464511E+02  0.32428988947E+03  0.34377238476E+03  0.90159403085E+02 0.  0.
          5    1    4    4  502    0 -0.34185376771E+02 -0.35763225571E+02  0.26164042068E+03  0.26631832085E+03  0.47000000000E+01 0. -1.
         -5    1    3    3    0  503  0.33792614305E+01  0.37972054855E+02 -0.65621764594E+01  0.38967274957E+02  0.47000000000E+01 0.  1.
          5    1    3    3  503    0  0.88532526858E+00  0.31803409656E+02  0.11332526706E+03  0.11780045340E+03  0.47000000000E+01 0. -1.
         -5    1    4    4    0  502  0.29920790072E+02 -0.34012238940E+02  0.62649468788E+02  0.77454063907E+02  0.47000000000E+01 0.  1.
<mgrwt>
<rscale>  0 0.11461681E+03</rscale>
<asrwt>0</asrwt>
<pdfrwt beam="1">  1        2 0.71661003E-01 0.11479444E+03</pdfrwt>
<pdfrwt beam="2">  1       -2 0.53451644E-02 0.11479444E+03</pdfrwt>
<totfact> 0.11172280E+04</totfact>
</mgrwt>
</event>
<event>
 8    1  0.5224537E-004  0.1457682E+03  0.7546771E-02  0.1205945E+00
          3   -1    0    0  501    0  0.00000000000E+00  0.00000000000E+00  0.60285698205E+02  0.60285698205E+02  0.00000000000E+00 0. -1.
         -3   -1    0    0    0  501 -0.00000000000E+00 -0.00000000000E+00 -0.46339414098E+03  0.46339414098E+03  0.00000000000E+00 0.  1.
         23    2    1    2    0    0 -0.13699901041E+02 -0.11256676529E+03 -0.33070318556E+03  0.36140416126E+03  0.91593705609E+02 0.  0.
         23    2    1    2    0    0  0.13699901041E+02  0.11256676529E+03 -0.72405257217E+02  0.16227567792E+03  0.90729876202E+02 0.  0.
          5    1    3    3  502    0 -0.40714029718E+02 -0.19772813931E+02 -0.14546982320E+03  0.15242098231E+03  0.47000000000E+01 0. -1.
         -5    1    4    4    0  503 -0.12025842212E+02  0.32737576883E+02  0.17440409741E+02  0.39276299635E+02  0.47000000000E+01 0.  1.
          5    1    4    4  503    0  0.25725743253E+02  0.79829188403E+02 -0.89845666958E+02  0.12299937828E+03  0.47000000000E+01 0. -1.
         -5    1    3    3    0  502  0.27014128677E+02 -0.92793951354E+02 -0.18523336236E+03  0.20898317895E+03  0.47000000000E+01 0.  1.
<mgrwt>
<rscale>  0 0.14563271E+03</rscale>
<asrwt>0</asrwt>
<pdfrwt beam="1">  1        3 0.92747231E-02 0.14576821E+03</pdfrwt>
<pdfrwt beam="2">  1       -3 0.71291404E-01 0.14576821E+03</pdfrwt>
<totfact> 0.37554873E+02</totfact>
</mgrwt>
</event>
<event>
 8    1  0.5224537E-004  0.1048906E+03  0.7546771E-02  0.1272722E+00
          1   -1    0    0  501    0  0.00000000000E+00  0.00000000000E+00  0.22050254422E+03  0.22050254422E+03  0.00000000000E+00 0. -1.
         -1   -1    0    0    0  501 -0.00000000000E+00 -0.00000000000E+00 -0.12155577565E+03  0.12155577565E+03  0.00000000000E+00 0.  1.
         23    2    1    2    0    0 -0.29988263686E+02  0.37782743150E+02 -0.83402179128E+02  0.13400734824E+03  0.93140830258E+02 0.  0.
         23    2    1    2    0    0  0.29988263686E+02 -0.37782743150E+02  0.18234894770E+03  0.20805097162E+03  0.87790867554E+02 0.  0.
          5    1    3    3  502    0  0.33669084874E+02  0.13825095776E+02 -0.30189114292E+02  0.47520660467E+02  0.47000000000E+01 0. -1.
         -5    1    4    4    0  503  0.36933636670E+02  0.78914562971E+01  0.29066419045E+02  0.47888571876E+02  0.47000000000E+01 0.  1.
          5    1    4    4  503    0 -0.69453729839E+01 -0.45674199447E+02  0.15328252866E+03  0.16016239975E+03  0.47000000000E+01 0. -1.
         -5    1    3    3    0  502 -0.63657348560E+02  0.23957647374E+02 -0.53213064836E+02  0.86486687777E+02  0.47000000000E+01 0.  1.
<mgrwt>
<rscale>  0 0.10369007E+03</rscale>
<asrwt>0</asrwt>
<pdfrwt beam="1">  1        1 0.33923468E-01 0.10489064E+03</pdfrwt>
<pdfrwt beam="2">  1       -1 0.18700889E-01 0.10489064E+03</pdfrwt>
<totfact> 0.27904199E+03</totfact>
</mgrwt>
</event>
<event>
 8    1  0.1069885E-003  0.1474165E+03  0.7546771E-02  0.1206488E+00
          1   -1    0    0  501    0  0.00000000000E+00  0.00000000000E+00  0.77651627336E+03  0.77651627336E+03  0.00000000000E+00 0. -1.
         -1   -1    0    0    0  501 -0.00000000000E+00 -0.00000000000E+00 -0.50240932605E+02  0.50240932605E+02  0.00000000000E+00 0.  1.
         23    2    1    2    0    0  0.86227698942E+02  0.58863087752E+02  0.65376094061E+03  0.67017534705E+03  0.10407472871E+03 0.  0.
         23    2    1    2    0    0 -0.86227698942E+02 -0.58863087752E+02  0.72514400139E+02  0.15658185891E+03  0.91430088860E+02 0.  0.
          5    1    3    3  502    0  0.10967244016E+03  0.54911289052E+02  0.52541149638E+03  0.53955780444E+03  0.47000000000E+01 0. -1.
         -5    1    3    3    0  502 -0.23444741220E+02  0.39517987001E+01  0.12834944423E+03  0.13061754261E+03  0.47000000000E+01 0.  1.
          5    1    4    4  503    0 -0.18726968907E+02  0.23705125291E+02  0.71161077718E+01  0.31390465420E+02  0.47000000000E+01 0.  1.
         -5    1    4    4    0  503 -0.67500730035E+02 -0.82568213043E+02  0.65398292367E+02  0.12519139349E+03  0.47000000000E+01 0.  1.
<mgrwt>
<rscale>  0 0.14520793E+03</rscale>
<asrwt>0</asrwt>
<pdfrwt beam="1">  1        1 0.11946403E+00 0.14741651E+03</pdfrwt>
<pdfrwt beam="2">  1       -1 0.77293748E-02 0.14741651E+03</pdfrwt>
<totfact> 0.21642420E+03</totfact>
</mgrwt>
</event>
<event>
 8    1  0.5224537E-004  0.9609593E+02  0.7546771E-02  0.1289446E+00
         -1   -1    0    0    0  501 -0.00000000000E+00  0.00000000000E+00  0.90358647388E+02  0.90358647388E+02  0.00000000000E+00 0.  1.
          1   -1    0    0  501    0  0.00000000000E+00 -0.00000000000E+00 -0.11035778823E+03  0.11035778823E+03  0.00000000000E+00 0. -1.
         23    2    1    2    0    0  0.20082244187E+01  0.29154007728E+02 -0.39545972771E+02  0.10391492650E+03  0.91544736906E+02 0.  0.
         23    2    1    2    0    0 -0.20082244187E+01 -0.29154007728E+02  0.19546831924E+02  0.96801509122E+02  0.90191265642E+02 0.  0.
          5    1    3    3  502    0 -0.21993315365E+02  0.41883755571E+01 -0.59446990597E+02  0.63696806055E+02  0.47000000000E+01 0. -1.
         -5    1    3    3    0  502  0.24001539783E+02  0.24965632171E+02  0.19901017826E+02  0.40218120446E+02  0.47000000000E+01 0.  1.
          5    1    4    4  503    0 -0.14940383270E+02  0.28309451116E+02  0.19379588343E+02  0.37713373213E+02  0.47000000000E+01 0. -1.
         -5    1    4    4    0  503  0.12932158852E+02 -0.57463458844E+02  0.16724358087E+00  0.59088135909E+02  0.47000000000E+01 0.  1.
<mgrwt>
<rscale>  0 0.95772180E+02</rscale>
<asrwt>0</asrwt>
<pdfrwt beam="1">  1        1 0.16978121E-01 0.96095931E+02</pdfrwt>
<pdfrwt beam="2">  1       -1 0.13901330E-01 0.96095931E+02</pdfrwt>
<totfact> 0.10454227E+04</totfact>
</mgrwt>
</event>
<event>
 8    1  0.5224537E-004  0.9903692E+02  0.7546771E-02  0.1282834E+00
          2   -1    0    0  501    0  0.00000000000E+00  0.00000000000E+00  0.75457530585E+03  0.75457530585E+03  0.00000000000E+00 0. -1.
         -2   -1    0    0    0  501 -0.00000000000E+00 -0.00000000000E+00 -0.16198037797E+02  0.16198037797E+02  0.00000000000E+00 0.  1.
         23    2    1    2    0    0 -0.33007905111E+02 -0.19132478287E+02  0.54510056582E+03  0.55402431293E+03  0.91393319950E+02 0.  0.
         23    2    1    2    0    0  0.33007905111E+02  0.19132478287E+02  0.19327670224E+03  0.21674903072E+03  0.90380778747E+02 0.  0.
          5    1    4    4  502    0  0.52611259946E+02  0.37938747552E+02  0.16454130930E+03  0.17692717627E+03  0.47000000000E+01 0. -1.
         -5    1    3    3    0  503 -0.12287363776E+02  0.36582076786E+02  0.18768541163E+03  0.19166932825E+03  0.47000000000E+01 0.  1.
          5    1    3    3  503    0 -0.20720541335E+02 -0.55714555074E+02  0.35741515418E+03  0.36235498468E+03  0.47000000000E+01 0. -1.
         -5    1    4    4    0  502 -0.19603354836E+02 -0.18806269264E+02  0.28735392940E+02  0.39821854450E+02  0.47000000000E+01 0.  1.
<mgrwt>
<rscale>  0 0.98802690E+02</rscale>
<asrwt>0</asrwt>
<pdfrwt beam="1">  1        2 0.11608848E+00 0.99036925E+02</pdfrwt>
<pdfrwt beam="2">  1       -2 0.24920064E-02 0.99036925E+02</pdfrwt>
<totfact> 0.19685783E+04</totfact>
</mgrwt>
</event>
<event>
 8    1  0.5224537E-004  0.9826417E+02  0.7546771E-02  0.1284820E+00
          3   -1    0    0  501    0  0.00000000000E+00  0.00000000000E+00  0.27826409638E+03  0.27826409638E+03  0.00000000000E+00 0. -1.
         -3   -1    0    0    0  501 -0.00000000000E+00 -0.00000000000E+00 -0.11299838158E+03  0.11299838158E+03  0.00000000000E+00 0.  1.
         23    2    1    2    0    0  0.10801462637E+02  0.30546324904E+02 -0.80574780248E+02  0.12707533916E+03  0.92769052221E+02 0.  0.
         23    2    1    2    0    0 -0.10801462637E+02 -0.30546324904E+02  0.24584049505E+03  0.26418713880E+03  0.91145739023E+02 0.  0.
          5    1    3    3  502    0 -0.58778267184E+01  0.60173503243E+02 -0.66444763959E+02  0.89957745620E+02  0.47000000000E+01 0.  1.
         -5    1    3    3    0  502  0.16679289356E+02 -0.29627178339E+02 -0.14130016289E+02  0.37117593539E+02  0.47000000000E+01 0. -1.
          5    1    4    4  503    0 -0.45186467743E+02 -0.39109263044E+02  0.13461624496E+03  0.14736001741E+03  0.47000000000E+01 0. -1.
         -5    1    4    4    0  503  0.34385005105E+02  0.85629381398E+01  0.11122425008E+03  0.11682712139E+03  0.47000000000E+01 0.  1.
<mgrwt>
<rscale>  0 0.97879147E+02</rscale>
<asrwt>0</asrwt>
<pdfrwt beam="1">  1        3 0.42809861E-01 0.98264167E+02</pdfrwt>
<pdfrwt beam="2">  1       -3 0.17384366E-01 0.98264167E+02</pdfrwt>
<totfact> 0.34694634E+02</totfact>
</mgrwt>
</event>
<event>
 8    1  0.5224537E-004  0.9815143E+02  0.7546771E-02  0.1284339E+00
          3   -1    0    0  501    0  0.00000000000E+00  0.00000000000E+00  0.26560095886E+02  0.26560095886E+02  0.00000000000E+00 0. -1.
         -3   -1    0    0    0  501 -0.00000000000E+00 -0.00000000000E+00 -0.43749485958E+03  0.43749485958E+03  0.00000000000E+00 0.  1.
         23    2    1    2    0    0  0.25935259837E+02 -0.24649002794E+02 -0.10889570106E+03  0.14646827707E+03  0.91183723522E+02 0.  0.
         23    2    1    2    0    0 -0.25935259837E+02  0.24649002794E+02 -0.30203906263E+03  0.31758667840E+03  0.91397439242E+02 0.  0.
          5    1    4    4  502    0 -0.15121728768E+02 -0.34406795674E+02 -0.12179399690E+03  0.12754748901E+03  0.47000000000E+01 0. -1.
         -5    1    3    3    0  503  0.53524295142E+02 -0.34686649804E+02 -0.92672854010E+02  0.11259823140E+03  0.47000000000E+01 0.  1.
          5    1    3    3  503    0 -0.27589035305E+02  0.10037647011E+02 -0.16222847051E+02  0.33870045660E+02  0.47000000000E+01 0. -1.
         -5    1    4    4    0  502 -0.10813531069E+02  0.59055798468E+02 -0.18024506573E+03  0.19003918940E+03  0.47000000000E+01 0.  1.
<mgrwt>
<rscale>  0 0.98101646E+02</rscale>
<asrwt>0</asrwt>
<pdfrwt beam="1">  1        3 0.40861691E-02 0.98151429E+02</pdfrwt>
<pdfrwt beam="2">  1       -3 0.67306894E-01 0.98151429E+02</pdfrwt>
<totfact> 0.14731930E+03</totfact>
</mgrwt>
</event>
<event>
 8    1  0.5224537E-004  0.2138552E+03  0.7546771E-02  0.1139946E+00
          2   -1    0    0  501    0  0.00000000000E+00  0.00000000000E+00  0.10333740846E+03  0.10333740846E+03  0.00000000000E+00 0. -1.
         -2   -1    0    0    0  501 -0.00000000000E+00 -0.00000000000E+00 -0.51184815882E+03  0.51184815882E+03  0.00000000000E+00 0.  1.
         23    2    1    2    0    0  0.17824745989E+03 -0.56328785066E+02 -0.32584872582E+03  0.38591047956E+03  0.88342612199E+02 0.  0.
         23    2    1    2    0    0 -0.17824745989E+03  0.56328785066E+02 -0.82662024541E+02  0.22927508772E+03  0.10386995023E+03 0.  0.
          5    1    4    4  502    0 -0.17363759724E+03  0.78269369409E+02 -0.69161641361E+02  0.20268579624E+03  0.47000000000E+01 0. -1.
         -5    1    3    3    0  503  0.15567752209E+03 -0.67964770928E+02 -0.31497352349E+03  0.35788980353E+03  0.47000000000E+01 0.  1.
          5    1    3    3  503    0  0.22569937803E+02  0.11635985862E+02 -0.10875202330E+02  0.28020676029E+02  0.47000000000E+01 0. -1.
         -5    1    4    4    0  502 -0.46098626511E+01 -0.21940584344E+02 -0.13500383180E+02  0.26589291472E+02  0.47000000000E+01 0.  1.
<mgrwt>
<rscale>  0 0.21205879E+03</rscale>
<asrwt>0</asrwt>
<pdfrwt beam="1">  1        2 0.15898063E-01 0.21385522E+03</pdfrwt>
<pdfrwt beam="2">  1       -2 0.78745871E-01 0.21385522E+03</pdfrwt>
<totfact> 0.53532431E+02</totfact>
</mgrwt>
</event>
<event>
 8    1  0.5224537E-004  0.9610969E+02  0.7546771E-02  0.1290460E+00
         -3   -1    0    0    0  501 -0.00000000000E+00  0.00000000000E+00  0.41421289380E+02  0.41421289380E+02  0.00000000000E+00 0.  1.
          3   -1    0    0  501    0  0.00000000000E+00 -0.00000000000E+00 -0.76629976149E+03  0.76629976149E+03  0.00000000000E+00 0. -1.
         23    2    1    2    0    0  0.11313655921E+02 -0.13454562001E+02 -0.18464733139E+02  0.94799285209E+02  0.91306812765E+02 0.  0.
         23    2    1    2    0    0 -0.11313655921E+02  0.13454562001E+02 -0.70641373898E+03  0.71292176566E+03  0.94488355347E+02 0.  0.
          5    1    3    3  502    0 -0.26897888814E+02 -0.38390646913E+02 -0.89603336145E+01  0.47955351855E+02  0.47000000000E+01 0. -1.
         -5    1    3    3    0  502  0.38211544735E+02  0.24936084912E+02 -0.95043995242E+01  0.46843933354E+02  0.47000000000E+01 0.  1.
          5    1    4    4  503    0  0.14622926510E+02 -0.36471644268E+02 -0.30538573953E+03  0.30793919971E+03  0.47000000000E+01 0. -1.
         -5    1    4    4    0  503 -0.25936582431E+02  0.49926206270E+02 -0.40102799945E+03  0.40498256595E+03  0.47000000000E+01 0.  1.
<mgrwt>
<rscale>  0 0.95318465E+02</rscale>
<asrwt>0</asrwt>
<pdfrwt beam="1">  1        3 0.11789227E+00 0.96109694E+02</pdfrwt>
<pdfrwt beam="2">  1       -3 0.63725060E-02 0.96109694E+02</pdfrwt>
<totfact> 0.21307943E+02</totfact>
</mgrwt>
</event>
<event>
 8    1  0.5224537E-004  0.1029089E+03  0.7546771E-02  0.1275882E+00
         -2   -1    0    0    0  501 -0.00000000000E+00  0.00000000000E+00  0.11288398108E+03  0.11288398108E+03  0.00000000000E+00 0.  1.
          2   -1    0    0  501    0  0.00000000000E+00 -0.00000000000E+00 -0.99025052062E+02  0.99025052062E+02  0.00000000000E+00 0. -1.
         23    2    1    2    0    0  0.67258200813E+00 -0.46544217435E+02  0.37139438713E+02  0.10940555069E+03  0.91779191924E+02 0.  0.
         23    2    1    2    0    0 -0.67258200813E+00  0.46544217435E+02 -0.23280509696E+02  0.10250348245E+03  0.88307220770E+02 0.  0.
          5    1    3    3  502    0  0.32334031582E+02 -0.55820829555E+02  0.80675998720E+01  0.65181521754E+02  0.47000000000E+01 0. -1.
         -5    1    3    3    0  502 -0.31661449574E+02  0.92766121195E+01  0.29071838841E+02  0.44224028933E+02  0.47000000000E+01 0.  1.
          5    1    4    4  503    0  0.21381954377E+02  0.57375826395E+02 -0.39196308228E+02  0.72853373334E+02  0.47000000000E+01 0. -1.
         -5    1    4    4    0  503 -0.22054536385E+02 -0.10831608960E+02  0.15915798532E+02  0.29650109118E+02  0.47000000000E+01 0.  1.
<mgrwt>
<rscale>  0 0.10212903E+03</rscale>
<asrwt>0</asrwt>
<pdfrwt beam="1">  1        2 0.15234623E-01 0.10290888E+03</pdfrwt>
<pdfrwt beam="2">  1       -2 0.17366766E-01 0.10290888E+03</pdfrwt>
<totfact> 0.94010464E+03</totfact>
</mgrwt>
</event>
<event>
 8    1  0.5224537E-004  0.1094482E+03  0.7546771E-02  0.1263777E+00
         -2   -1    0    0    0  501 -0.00000000000E+00  0.00000000000E+00  0.64252591796E+02  0.64252591796E+02  0.00000000000E+00 0.  1.
          2   -1    0    0  501    0  0.00000000000E+00 -0.00000000000E+00 -0.31068093862E+03  0.31068093862E+03  0.00000000000E+00 0. -1.
         23    2    1    2    0    0 -0.46726380329E+01 -0.52557639070E+02 -0.25674650135E+01  0.10947830547E+03  0.95889355625E+02 0.  0.
         23    2    1    2    0    0  0.46726380329E+01  0.52557639070E+02 -0.24386088181E+03  0.26545522494E+03  0.90632266881E+02 0.  0.
          5    1    3    3  502    0  0.81719820862E+01 -0.19272715824E+02 -0.47376579534E+02  0.52008164309E+02  0.47000000000E+01 0. -1.
         -5    1    4    4    0  503 -0.33300058250E+02  0.21223108490E+02 -0.42891234227E+02  0.58489846871E+02  0.47000000000E+01 0.  1.
          5    1    4    4  503    0  0.37972696283E+02  0.31334530580E+02 -0.20096964758E+03  0.20696537807E+03  0.47000000000E+01 0. -1.
         -5    1    3    3    0  502 -0.12844620119E+02 -0.33284923246E+02  0.44809114520E+02  0.57470141166E+02  0.47000000000E+01 0.  1.
<mgrwt>
<rscale>  0 0.10828602E+03</rscale>
<asrwt>0</asrwt>
<pdfrwt beam="1">  1        2 0.47797068E-01 0.10944820E+03</pdfrwt>
<pdfrwt beam="2">  1       -2 0.98850139E-02 0.10944820E+03</pdfrwt>
<totfact> 0.66866541E+03</totfact>
</mgrwt>
</event>
<event>
 8    1  0.5224537E-004  0.9189858E+02  0.7546771E-02  0.1298744E+00
          2   -1    0    0  501    0  0.00000000000E+00  0.00000000000E+00  0.11930523896E+03  0.11930523896E+03  0.00000000000E+00 0. -1.
         -2   -1    0    0    0  501 -0.00000000000E+00 -0.00000000000E+00 -0.89522033308E+02  0.89522033308E+02  0.00000000000E+00 0.  1.
         23    2    1    2    0    0 -0.63606802664E+01  0.33507084981E+01  0.63311308762E+02  0.11100353955E+03  0.90894325872E+02 0.  0.
         23    2    1    2    0    0  0.63606802664E+01 -0.33507084981E+01 -0.33528103111E+02  0.97823732711E+02  0.91616938840E+02 0.  0.
          5    1    4    4  502    0  0.36941137021E+02  0.52350265954E+01  0.14287430907E+02  0.40227773861E+02  0.47000000000E+01 0. -1.
         -5    1    4    4    0  502 -0.30580456755E+02 -0.85857350935E+01 -0.47815534019E+02  0.57595958850E+02  0.47000000000E+01 0.  1.
          5    1    3    3  503    0  0.22650127739E+01 -0.38325580507E+02  0.55089455985E+01  0.39069411125E+02  0.47000000000E+01 0. -1.
         -5    1    3    3    0  503 -0.86256930403E+01  0.41676289005E+02  0.57802363163E+02  0.71934128430E+02  0.47000000000E+01 0.  1.
<mgrwt>
<rscale>  0 0.91717953E+02</rscale>
<asrwt>0</asrwt>
<pdfrwt beam="1">  1        2 0.18354652E-01 0.91898580E+02</pdfrwt>
<pdfrwt beam="2">  1       -2 0.13772620E-01 0.91898580E+02</pdfrwt>
<totfact> 0.10962557E+04</totfact>
</mgrwt>
</event>
<event>
 8    1  0.5224537E-004  0.1345102E+03  0.7546771E-02  0.1221781E+00
          1   -1    0    0  501    0  0.00000000000E+00  0.00000000000E+00  0.68272311379E+02  0.68272311379E+02  0.00000000000E+00 0. -1.
         -1   -1    0    0    0  501 -0.00000000000E+00 -0.00000000000E+00 -0.26211173262E+03  0.26211173262E+03  0.00000000000E+00 0.  1.
         23    2    1    2    0    0 -0.64761527525E+02  0.69394456525E+02 -0.82142066991E+02  0.15554324308E+03  0.91851702521E+02 0.  0.
         23    2    1    2    0    0  0.64761527525E+02 -0.69394456525E+02 -0.11169735425E+03  0.17484080091E+03  0.95306666472E+02 0.  0.
          5    1    4    4  502    0  0.18915259385E+02 -0.77598173438E+02 -0.97079317441E+02  0.12580042700E+03  0.47000000000E+01 0. -1.
         -5    1    4    4    0  502  0.45846268139E+02  0.82037169124E+01 -0.14618036808E+02  0.49040373914E+02  0.47000000000E+01 0.  1.
          5    1    3    3  503    0 -0.60912358358E+02  0.42922573714E+01 -0.17726513273E+02  0.63757808517E+02  0.47000000000E+01 0. -1.
         -5    1    3    3    0  503 -0.38491691666E+01  0.65102199154E+02 -0.64415553718E+02  0.91785434567E+02  0.47000000000E+01 0.  1.
<mgrwt>
<rscale>  0 0.13389973E+03</rscale>
<asrwt>0</asrwt>
<pdfrwt beam="1">  1        1 0.10503433E-01 0.13451025E+03</pdfrwt>
<pdfrwt beam="2">  1       -1 0.40324882E-01 0.13451025E+03</pdfrwt>
<totfact> 0.35094839E+03</totfact>
</mgrwt>
</event>
<event>
 8    1  0.5224537E-004  0.9507998E+02  0.7546771E-02  0.1291314E+00
         -1   -1    0    0    0  501 -0.00000000000E+00  0.00000000000E+00  0.98193431124E+02  0.98193431124E+02  0.00000000000E+00 0.  1.
          1   -1    0    0  501    0  0.00000000000E+00 -0.00000000000E+00 -0.20020498577E+03  0.20020498577E+03  0.00000000000E+00 0. -1.
         23    2    1    2    0    0 -0.21126889616E+02 -0.13384390992E+02 -0.16100440598E+03  0.18698294500E+03  0.91731758890E+02 0.  0.
         23    2    1    2    0    0  0.21126889616E+02  0.13384390992E+02  0.58992851336E+02  0.11141547189E+03  0.91146933471E+02 0.  0.
          5    1    3    3  502    0 -0.19940067777E+02  0.37731167045E+02 -0.85503251379E+02  0.95677287095E+02  0.47000000000E+01 0. -1.
         -5    1    3    3    0  502 -0.11868218389E+01 -0.51115558037E+02 -0.75501154604E+02  0.91305657909E+02  0.47000000000E+01 0.  1.
          5    1    4    4  503    0 -0.25330244583E+02  0.31792793606E+02  0.11964035858E+02  0.42633685859E+02  0.47000000000E+01 0. -1.
         -5    1    4    4    0  503  0.46457134198E+02 -0.18408402614E+02  0.47028815477E+02  0.68781786033E+02  0.47000000000E+01 0.  1.
<mgrwt>
<rscale>  0 0.94938641E+02</rscale>
<asrwt>0</asrwt>
<pdfrwt beam="1">  1        1 0.30800767E-01 0.95079982E+02</pdfrwt>
<pdfrwt beam="2">  1       -1 0.15106682E-01 0.95079982E+02</pdfrwt>
<totfact> 0.43663293E+03</totfact>
</mgrwt>
</event>
<event>
 8    1  0.5224537E-004  0.9422456E+02  0.7546771E-02  0.1293269E+00
          1   -1    0    0  501    0  0.00000000000E+00  0.00000000000E+00  0.27141340739E+02  0.27141340739E+02  0.00000000000E+00 0. -1.
         -1   -1    0    0    0  501 -0.00000000000E+00 -0.00000000000E+00 -0.32764018479E+03  0.32764018479E+03  0.00000000000E+00 0.  1.
         23    2    1    2    0    0 -0.79912664337E+01 -0.23367417551E+02 -0.16643329957E+03  0.19125457145E+03  0.90930585365E+02 0.  0.
         23    2    1    2    0    0  0.79912664337E+01  0.23367417551E+02 -0.13406554449E+03  0.16352695408E+03  0.90319421774E+02 0.  0.
          5    1    4    4  502    0 -0.29025050946E+02  0.23940812416E+02 -0.18703493467E+02  0.42279152657E+02  0.47000000000E+01 0. -1.
         -5    1    3    3    0  503 -0.31397647639E+02 -0.37705459077E+02 -0.15219416753E+03  0.15997708759E+03  0.47000000000E+01 0.  1.
          5    1    3    3  503    0  0.23406381205E+02  0.14338041526E+02 -0.14239132032E+02  0.31277483865E+02  0.47000000000E+01 0. -1.
         -5    1    4    4    0  502  0.37016317379E+02 -0.57339486536E+00 -0.11536205102E+03  0.12124780142E+03  0.47000000000E+01 0.  1.
<mgrwt>
<rscale>  0 0.94076799E+02</rscale>
<asrwt>0</asrwt>
<pdfrwt beam="1">  1        1 0.41755906E-02 0.94224561E+02</pdfrwt>
<pdfrwt beam="2">  1       -1 0.50406185E-01 0.94224561E+02</pdfrwt>
<totfact> 0.79304509E+03</totfact>
</mgrwt>
</event>
<event>
 8    1  0.5224537E-004  0.1024693E+03  0.7546771E-02  0.1276161E+00
         -1   -1    0    0    0  501 -0.00000000000E+00  0.00000000000E+00  0.19397409106E+03  0.19397409106E+03  0.00000000000E+00 0.  1.
          1   -1    0    0  501    0  0.00000000000E+00 -0.00000000000E+00 -0.58576489994E+02  0.58576489994E+02  0.00000000000E+00 0. -1.
         23    2    1    2    0    0 -0.55995160633E+01 -0.47039747577E+02  0.10675910668E+03  0.14797793805E+03  0.90861822877E+02 0.  0.
         23    2    1    2    0    0  0.55995160633E+01  0.47039747577E+02  0.28638494379E+02  0.10457264300E+03  0.88719681424E+02 0.  0.
          5    1    4    4  502    0  0.40767884877E+02  0.46768721930E+02  0.29976625637E+02  0.69065344948E+02  0.47000000000E+01 0. -1.
         -5    1    3    3    0  503 -0.10505816575E+02 -0.70004763666E+02  0.10086180078E+03  0.12331355146E+03  0.47000000000E+01 0.  1.
          5    1    3    3  503    0  0.49063005119E+01  0.22965016089E+02  0.58973059040E+01  0.24664386584E+02  0.47000000000E+01 0. -1.
         -5    1    4    4    0  502 -0.35168368813E+02  0.27102564740E+00 -0.13381312573E+01  0.35507298055E+02  0.47000000000E+01 0.  1.
<mgrwt>
<rscale>  0 0.10199236E+03</rscale>
<asrwt>0</asrwt>
<pdfrwt beam="1">  1        1 0.90117677E-02 0.10246933E+03</pdfrwt>
<pdfrwt beam="2">  1       -1 0.29842168E-01 0.10246933E+03</pdfrwt>
<totfact> 0.70512380E+03</totfact>
</mgrwt>
</event>
<event>
 8    1  0.5224537E-004  0.1118502E+03  0.7546771E-02  0.1263734E+00
          3   -1    0    0  501    0  0.00000000000E+00  0.00000000000E+00  0.28105227969E+02  0.28105227969E+02  0.00000000000E+00 0. -1.
         -3   -1    0    0    0  501 -0.00000000000E+00 -0.00000000000E+00 -0.41498521843E+03  0.41498521843E+03  0.00000000000E+00 0.  1.
         23    2    1    2    0    0 -0.75483576374E+01 -0.31773193423E+02 -0.25610846499E+03  0.27946737823E+03  0.10697642792E+03 0.  0.
         23    2    1    2    0    0  0.75483576374E+01  0.31773193423E+02 -0.13077152547E+03  0.16362306817E+03  0.92762077596E+02 0.  0.
          5    1    3    3  502    0  0.22312238002E+02  0.28287788461E+02 -0.44588502865E+02  0.57517471506E+02  0.47000000000E+01 0. -1.
         -5    1    3    3    0  502 -0.29860595640E+02 -0.60060981884E+02 -0.21151996212E+03  0.22194990672E+03  0.47000000000E+01 0.  1.
          5    1    4    4  503    0 -0.26158991808E+02  0.41773369489E+02 -0.11419968286E+03  0.12447073879E+03  0.47000000000E+01 0. -1.
         -5    1    4    4    0  503  0.33707349446E+02 -0.10000176066E+02 -0.16571842612E+02  0.39152329376E+02  0.47000000000E+01 0.  1.
<mgrwt>
<rscale>  0 0.10830869E+03</rscale>
<asrwt>0</asrwt>
<pdfrwt beam="1">  1        3 0.43238812E-02 0.11185021E+03</pdfrwt>
<pdfrwt beam="2">  1       -3 0.63843880E-01 0.11185021E+03</pdfrwt>
<totfact> 0.15426462E+03</totfact>
</mgrwt>
</event>
<event>
 8    1  0.5224537E-004  0.9986441E+02  0.7546771E-02  0.1280631E+00
          1   -1    0    0  501    0  0.00000000000E+00  0.00000000000E+00  0.31803266953E+03  0.31803266953E+03  0.00000000000E+00 0. -1.
         -1   -1    0    0    0  501 -0.00000000000E+00 -0.00000000000E+00 -0.37157993784E+02  0.37157993784E+02  0.00000000000E+00 0.  1.
         23    2    1    2    0    0 -0.39867759465E+02 -0.29383295061E+01  0.21083832421E+03  0.23329316124E+03  0.91514086901E+02 0.  0.
         23    2    1    2    0    0  0.39867759465E+02  0.29383295061E+01  0.70036351530E+02  0.12189750207E+03  0.91410275403E+02 0.  0.
          5    1    4    4  502    0  0.36909507277E+01 -0.38708919510E+02  0.48858357913E+02  0.62619746924E+02  0.47000000000E+01 0. -1.
         -5    1    3    3    0  503 -0.37791550067E+02  0.40615547716E+02  0.10842467700E+03  0.12188447217E+03  0.47000000000E+01 0.  1.
          5    1    3    3  503    0 -0.20762093976E+01 -0.43553877222E+02  0.10241364721E+03  0.11140868907E+03  0.47000000000E+01 0. -1.
         -5    1    4    4    0  502  0.36176808737E+02  0.41647249016E+02  0.21177993617E+02  0.59277755142E+02  0.47000000000E+01 0.  1.
<mgrwt>
<rscale>  0 0.99840620E+02</rscale>
<asrwt>0</asrwt>
<pdfrwt beam="1">  1        1 0.48928101E-01 0.99864409E+02</pdfrwt>
<pdfrwt beam="2">  1       -1 0.57166147E-02 0.99864409E+02</pdfrwt>
<totfact> 0.10775517E+04</totfact>
</mgrwt>
</event>
<event>
 8    1  0.5224537E-004  0.9822544E+02  0.7546771E-02  0.1285960E+00
          1   -1    0    0  501    0  0.00000000000E+00  0.00000000000E+00  0.35641708407E+03  0.35641708407E+03  0.00000000000E+00 0. -1.
         -1   -1    0    0    0  501 -0.00000000000E+00 -0.00000000000E+00 -0.28171065393E+02  0.28171065393E+02  0.00000000000E+00 0.  1.
         23    2    1    2    0    0 -0.29766342698E+01  0.11584193943E+02  0.21857773629E+03  0.23963402197E+03  0.97494532067E+02 0.  0.
         23    2    1    2    0    0  0.29766342698E+01 -0.11584193943E+02  0.10966828238E+03  0.14495412749E+03  0.94029319972E+02 0.  0.
          5    1    3    3  502    0 -0.46171913697E+02  0.24136728520E+02  0.10301077175E+03  0.11553240400E+03  0.47000000000E+01 0. -1.
         -5    1    3    3    0  502  0.43195279428E+02 -0.12552534577E+02  0.11556696454E+03  0.12410161797E+03  0.47000000000E+01 0.  1.
          5    1    4    4  503    0 -0.27935423977E+02  0.20734758064E+02  0.11441190880E+02  0.36923013874E+02  0.47000000000E+01 0. -1.
         -5    1    4    4    0  503  0.30912058247E+02 -0.32318952007E+02  0.98227091503E+02  0.10803111362E+03  0.47000000000E+01 0.  1.
<mgrwt>
<rscale>  0 0.97354301E+02</rscale>
<asrwt>0</asrwt>
<pdfrwt beam="1">  1        1 0.54833394E-01 0.98225443E+02</pdfrwt>
<pdfrwt beam="2">  1       -1 0.43340103E-02 0.98225443E+02</pdfrwt>
<totfact> 0.14036103E+04</totfact>
</mgrwt>
</event>
<event>
 8    1  0.5224537E-004  0.9592176E+02  0.7546771E-02  0.1289857E+00
         -4   -1    0    0    0  501 -0.00000000000E+00  0.00000000000E+00  0.10518688022E+03  0.10518688022E+03  0.00000000000E+00 0.  1.
          4   -1    0    0  501    0  0.00000000000E+00 -0.00000000000E+00 -0.12113143941E+03  0.12113143941E+03  0.00000000000E+00 0. -1.
         23    2    1    2    0    0  0.62768463589E+01  0.23945703273E+02 -0.68720634699E+02  0.11799792331E+03  0.92672481172E+02 0.  0.
         23    2    1    2    0    0 -0.62768463589E+01 -0.23945703273E+02  0.52776075510E+02  0.10832039632E+03  0.91297308867E+02 0.  0.
          5    1    4    4  502    0 -0.80844112119E+01 -0.51123469257E+02  0.60366694860E+02  0.79656730173E+02  0.47000000000E+01 0. -1.
         -5    1    3    3    0  503 -0.23529968826E+02  0.24653919685E+02  0.82004850277E+01  0.35366836775E+02  0.47000000000E+01 0.  1.
          5    1    3    3  503    0  0.29806815185E+02 -0.70821641227E+00 -0.76921119727E+02  0.82631086535E+02  0.47000000000E+01 0. -1.
         -5    1    4    4    0  502  0.18075648530E+01  0.27177765985E+02 -0.75906193501E+01  0.28663666143E+02  0.47000000000E+01 0.  1.
<mgrwt>
<rscale>  0 0.95588043E+02</rscale>
<asrwt>0</asrwt>
<pdfrwt beam="1">  1        4 0.18635606E-01 0.95921761E+02</pdfrwt>
<pdfrwt beam="2">  1       -4 0.16182597E-01 0.95921761E+02</pdfrwt>
<totfact> 0.12842890E+03</totfact>
</mgrwt>
</event>
<event>
 8    1  0.5224537E-004  0.1084690E+03  0.7546771E-02  0.1264722E+00
          2   -1    0    0  501    0  0.00000000000E+00  0.00000000000E+00  0.48650903175E+03  0.48650903175E+03  0.00000000000E+00 0. -1.
         -2   -1    0    0    0  501 -0.00000000000E+00 -0.00000000000E+00 -0.29157924696E+02  0.29157924696E+02  0.00000000000E+00 0.  1.
         23    2    1    2    0    0  0.51686571660E+02 -0.22369795216E+02  0.11364112670E+03  0.15524766194E+03  0.89530002966E+02 0.  0.
         23    2    1    2    0    0 -0.51686571660E+02  0.22369795216E+02  0.34370998036E+03  0.36041929451E+03  0.92701714283E+02 0.  0.
          5    1    4    4  502    0  0.20901099186E+02  0.20915807784E+02  0.16093754008E+03  0.16369883558E+03  0.47000000000E+01 0. -1.
         -5    1    4    4    0  502 -0.72587670846E+02  0.14539874312E+01  0.18277244028E+03  0.19672045893E+03  0.47000000000E+01 0.  1.
          5    1    3    3  503    0  0.14362763595E+02  0.27230544762E+02  0.76887782982E+02  0.82955486365E+02  0.47000000000E+01 0. -1.
         -5    1    3    3    0  503  0.37323808065E+02 -0.49600339978E+02  0.36753343717E+02  0.72292175571E+02  0.47000000000E+01 0.  1.
<mgrwt>
<rscale>  0 0.10778812E+03</rscale>
<asrwt>0</asrwt>
<pdfrwt beam="1">  1        2 0.74847537E-01 0.10846897E+03</pdfrwt>
<pdfrwt beam="2">  1       -2 0.44858349E-02 0.10846897E+03</pdfrwt>
<totfact> 0.13782801E+04</totfact>
</mgrwt>
</event>
<event>
 8    1  0.5224537E-004  0.9334890E+02  0.7546771E-02  0.1296817E+00
         -1   -1    0    0    0  501 -0.00000000000E+00  0.00000000000E+00  0.33153376256E+02  0.33153376256E+02  0.00000000000E+00 0.  1.
          1   -1    0    0  501    0  0.00000000000E+00 -0.00000000000E+00 -0.25819884065E+03  0.25819884065E+03  0.00000000000E+00 0. -1.
         23    2    1    2    0    0  0.96738910603E+00  0.37315451494E+01 -0.12935672971E+03  0.15767218544E+03  0.90069385850E+02 0.  0.
         23    2    1    2    0    0 -0.96738910603E+00 -0.37315451494E+01 -0.95688734680E+02  0.13368003147E+03  0.93269269313E+02 0.  0.
          5    1    3    3  502    0  0.31314822944E+02  0.18917876812E+02 -0.17767413675E+02  0.40942339794E+02  0.47000000000E+01 0. -1.
         -5    1    4    4    0  503  0.23954200204E+02  0.33642144941E+02 -0.21430646671E+02  0.46764946705E+02  0.47000000000E+01 0.  1.
          5    1    4    4  503    0 -0.24921589310E+02 -0.37373690090E+02 -0.74258088009E+02  0.86915084764E+02  0.47000000000E+01 0. -1.
         -5    1    3    3    0  502 -0.30347433838E+02 -0.15186331663E+02 -0.11158931604E+03  0.11672984564E+03  0.47000000000E+01 0.  1.
<mgrwt>
<rscale>  0 0.92539159E+02</rscale>
<asrwt>0</asrwt>
<pdfrwt beam="1">  1        1 0.39722897E-01 0.93348899E+02</pdfrwt>
<pdfrwt beam="2">  1       -1 0.51005196E-02 0.93348899E+02</pdfrwt>
<totfact> 0.16338410E+04</totfact>
</mgrwt>
</event>
<event>
 8    1  0.5224537E-004  0.1731354E+03  0.7546771E-02  0.1174717E+00
          2   -1    0    0  501    0  0.00000000000E+00  0.00000000000E+00  0.58210532758E+03  0.58210532758E+03  0.00000000000E+00 0. -1.
         -2   -1    0    0    0  501 -0.00000000000E+00 -0.00000000000E+00 -0.71423851855E+02  0.71423851855E+02  0.00000000000E+00 0.  1.
         23    2    1    2    0    0  0.31187619357E+02 -0.14418164404E+03  0.82441406610E+02  0.19176143511E+03  0.90635800843E+02 0.  0.
         23    2    1    2    0    0 -0.31187619357E+02  0.14418164404E+03  0.42824006912E+03  0.46176774432E+03  0.89882583528E+02 0.  0.
          5    1    3    3  502    0 -0.66888419724E+01 -0.12514165111E+03  0.80586496686E+02  0.14906859796E+03  0.47000000000E+01 0. -1.
         -5    1    3    3    0  502  0.37876461329E+02 -0.19039992928E+02  0.18549099249E+01  0.42692837155E+02  0.47000000000E+01 0.  1.
          5    1    4    4  503    0 -0.24974596270E+02  0.89831339555E+01  0.14904589349E+03  0.15146351218E+03  0.47000000000E+01 0. -1.
         -5    1    4    4    0  503 -0.62130230870E+01  0.13519851008E+03  0.27919417562E+03  0.31030423214E+03  0.47000000000E+01 0.  1.
<mgrwt>
<rscale>  0 0.17303703E+03</rscale>
<asrwt>0</asrwt>
<pdfrwt beam="1">  1        2 0.89554663E-01 0.17313539E+03</pdfrwt>
<pdfrwt beam="2">  1       -2 0.10988285E-01 0.17313539E+03</pdfrwt>
<totfact> 0.29348097E+03</totfact>
</mgrwt>
</event>
<event>
 8    1  0.5224537E-004  0.9447560E+02  0.7546771E-02  0.1294003E+00
          2   -1    0    0  501    0  0.00000000000E+00  0.00000000000E+00  0.14855756175E+03  0.14855756175E+03  0.00000000000E+00 0. -1.
         -2   -1    0    0    0  501 -0.00000000000E+00 -0.00000000000E+00 -0.15569009503E+03  0.15569009503E+03  0.00000000000E+00 0.  1.
         23    2    1    2    0    0  0.19275903797E+02 -0.17942363791E+01 -0.12390647982E+03  0.15581545269E+03  0.92470859225E+02 0.  0.
         23    2    1    2    0    0 -0.19275903797E+02  0.17942363791E+01  0.11677394653E+03  0.14843220409E+03  0.89561067827E+02 0.  0.
          5    1    4    4  502    0  0.33403451307E+01 -0.41847121633E+02  0.54896894415E+02  0.69268308129E+02  0.47000000000E+01 0. -1.
         -5    1    4    4    0  502 -0.22616248928E+02  0.43641358012E+02  0.61877052119E+02  0.79163895961E+02  0.47000000000E+01 0.  1.
          5    1    3    3  503    0 -0.13099620377E+02 -0.25043669016E+02 -0.34611255918E+01  0.28859223866E+02  0.47000000000E+01 0. -1.
         -5    1    3    3    0  503  0.32375524174E+02  0.23249432637E+02 -0.12044535422E+03  0.12695622883E+03  0.47000000000E+01 0.  1.
<mgrwt>
<rscale>  0 0.93755894E+02</rscale>
<asrwt>0</asrwt>
<pdfrwt beam="1">  1        2 0.22855010E-01 0.94475603E+02</pdfrwt>
<pdfrwt beam="2">  1       -2 0.23952322E-01 0.94475603E+02</pdfrwt>
<totfact> 0.34373038E+03</totfact>
</mgrwt>
</event>
<event>
 8    1  0.5224537E-004  0.1014908E+03  0.7546771E-02  0.1283098E+00
         -1   -1    0    0    0  501 -0.00000000000E+00  0.00000000000E+00  0.32992685250E+02  0.32992685250E+02  0.00000000000E+00 0.  1.
          1   -1    0    0  501    0  0.00000000000E+00 -0.00000000000E+00 -0.29767044035E+03  0.29767044035E+03  0.00000000000E+00 0. -1.
         23    2    1    2    0    0 -0.84517619131E+01 -0.18324287877E+02 -0.16569051221E+03  0.18889267727E+03  0.88430118651E+02 0.  0.
         23    2    1    2    0    0  0.84517619131E+01  0.18324287877E+02 -0.98987242896E+02  0.14177044833E+03  0.99464435649E+02 0.  0.
          5    1    4    4  502    0 -0.15897675264E+02  0.54342445309E+02 -0.46239084999E+02  0.73252852658E+02  0.47000000000E+01 0. -1.
         -5    1    4    4    0  502  0.24349437177E+02 -0.36018157432E+02 -0.52748157896E+02  0.68517595675E+02  0.47000000000E+01 0.  1.
          5    1    3    3  503    0  0.27822720783E+02 -0.94619719168E+01 -0.14046898917E+03  0.14358711510E+03  0.47000000000E+01 0. -1.
         -5    1    3    3    0  503 -0.36274482696E+02 -0.88623159606E+01 -0.25221523036E+02  0.45305562168E+02  0.47000000000E+01 0.  1.
<mgrwt>
<rscale>  0 0.98679261E+02</rscale>
<asrwt>0</asrwt>
<pdfrwt beam="1">  1        1 0.45795454E-01 0.10149082E+03</pdfrwt>
<pdfrwt beam="2">  1       -1 0.50757976E-02 0.10149082E+03</pdfrwt>
<totfact> 0.13940957E+04</totfact>
</mgrwt>
</event>
<event>
 8    1  0.5224537E-004  0.1402194E+03  0.7546771E-02  0.1213670E+00
          1   -1    0    0  501    0  0.00000000000E+00  0.00000000000E+00  0.52119077228E+03  0.52119077228E+03  0.00000000000E+00 0. -1.
         -1   -1    0    0    0  501 -0.00000000000E+00 -0.00000000000E+00 -0.44805737141E+02  0.44805737141E+02  0.00000000000E+00 0.  1.
         23    2    1    2    0    0 -0.70990135073E+02 -0.79107654098E+02  0.12308445499E+03  0.18657779668E+03  0.91454201328E+02 0.  0.
         23    2    1    2    0    0  0.70990135073E+02  0.79107654098E+02  0.35330058015E+03  0.37941871274E+03  0.88541738340E+02 0.  0.
          5    1    4    4  502    0  0.90972924493E+02  0.55249274504E+02  0.26138249323E+03  0.28226132057E+03  0.47000000000E+01 0. -1.
         -5    1    4    4    0  502 -0.19982789420E+02  0.23858379594E+02  0.91918086917E+02  0.97157392165E+02  0.47000000000E+01 0.  1.
          5    1    3    3  503    0  0.13946882213E+02 -0.41984507706E+02  0.58539136449E+02  0.73526423189E+02  0.47000000000E+01 0. -1.
         -5    1    3    3    0  503 -0.84937017286E+02 -0.37123146392E+02  0.64545318543E+02  0.11305137350E+03  0.47000000000E+01 0.  1.
<mgrwt>
<rscale>  0 0.13974656E+03</rscale>
<asrwt>0</asrwt>
<pdfrwt beam="1">  1        1 0.80183192E-01 0.14021944E+03</pdfrwt>
<pdfrwt beam="2">  1       -1 0.68931907E-02 0.14021944E+03</pdfrwt>
<totfact> 0.44728746E+03</totfact>
</mgrwt>
</event>
<event>
 8    1  0.5224537E-004  0.1111684E+03  0.7546771E-02  0.1258672E+00
         -2   -1    0    0    0  501 -0.00000000000E+00  0.00000000000E+00  0.15848059146E+02  0.15848059146E+02  0.00000000000E+00 0.  1.
          2   -1    0    0  501    0  0.00000000000E+00 -0.00000000000E+00 -0.79413171017E+03  0.79413171017E+03  0.00000000000E+00 0. -1.
         23    2    1    2    0    0 -0.42489177609E+02 -0.47984184329E+02 -0.44945660818E+03  0.46286936427E+03  0.90160931607E+02 0.  0.
         23    2    1    2    0    0  0.42489177609E+02  0.47984184329E+02 -0.32882704285E+03  0.34711040505E+03  0.90832797063E+02 0.  0.
          5    1    3    3  502    0 -0.28224848703E+02  0.19681553573E+02 -0.23333002768E+03  0.23590039732E+03  0.47000000000E+01 0. -1.
         -5    1    3    3    0  502 -0.14264328905E+02 -0.67665737903E+02 -0.21612658049E+03  0.22696896695E+03  0.47000000000E+01 0.  1.
          5    1    4    4  503    0  0.33875922879E+02  0.74956631172E+02 -0.24939194167E+03  0.26264901538E+03  0.47000000000E+01 0. -1.
         -5    1    4    4    0  503  0.86132547292E+01 -0.26972446842E+02 -0.79435101177E+02  0.84461389668E+02  0.47000000000E+01 0.  1.
<mgrwt>
<rscale>  0 0.11103106E+03</rscale>
<asrwt>0</asrwt>
<pdfrwt beam="1">  1        2 0.12217409E+00 0.11116838E+03</pdfrwt>
<pdfrwt beam="2">  1       -2 0.24381633E-02 0.11116838E+03</pdfrwt>
<totfact> 0.19288047E+04</totfact>
</mgrwt>
</event>
<event>
 8    1  0.5224537E-004  0.1787376E+03  0.7546771E-02  0.1169504E+00
          2   -1    0    0  501    0  0.00000000000E+00  0.00000000000E+00  0.93775727502E+03  0.93775727502E+03  0.00000000000E+00 0. -1.
         -2   -1    0    0    0  501 -0.00000000000E+00 -0.00000000000E+00 -0.41106731394E+02  0.41106731394E+02  0.00000000000E+00 0.  1.
         23    2    1    2    0    0 -0.10340274153E+03  0.11328544434E+03  0.23858950229E+03  0.29696119045E+03  0.87950435902E+02 0.  0.
         23    2    1    2    0    0  0.10340274153E+03 -0.11328544434E+03  0.65806104134E+03  0.68190281596E+03  0.91768172246E+02 0.  0.
          5    1    3    3  502    0 -0.47028382357E+02 -0.13461609972E+01  0.83731342453E+02  0.96158767700E+02  0.47000000000E+01 0. -1.
         -5    1    3    3    0  502 -0.56374359175E+02  0.11463160534E+03  0.15485815983E+03  0.20080242275E+03  0.47000000000E+01 0.  1.
          5    1    4    4  503    0  0.10296001408E+03 -0.64736022088E+02  0.55056079903E+03  0.56385352751E+03  0.47000000000E+01 0. -1.
         -5    1    4    4    0  503  0.44272745184E+00 -0.48549422251E+02  0.10750024230E+03  0.11804928845E+03  0.47000000000E+01 0.  1.
<mgrwt>
<rscale>  0 0.17825316E+03</rscale>
<asrwt>0</asrwt>
<pdfrwt beam="1">  1        2 0.14427033E+00 0.17873756E+03</pdfrwt>
<pdfrwt beam="2">  1       -2 0.63241133E-02 0.17873756E+03</pdfrwt>
<totfact> 0.38704994E+03</totfact>
</mgrwt>
</event>
<event>
 8    1  0.5224537E-004  0.9695577E+02  0.7546771E-02  0.1288089E+00
         -2   -1    0    0    0  501 -0.00000000000E+00  0.00000000000E+00  0.26226702164E+02  0.26226702164E+02  0.00000000000E+00 0. -1.
          2   -1    0    0  501    0  0.00000000000E+00 -0.00000000000E+00 -0.35124477310E+03  0.35124477310E+03  0.00000000000E+00 0.  1.
         23    2    1    2    0    0  0.42119701486E+01  0.27426497623E+02 -0.14980985210E+03  0.17722577310E+03  0.90531924756E+02 0.  0.
         23    2    1    2    0    0 -0.42119701486E+01 -0.27426497623E+02 -0.17520821883E+03  0.20024570216E+03  0.92900311212E+02 0.  0.
          5    1    4    4  502    0 -0.34802573743E+02 -0.28109127389E+02 -0.15912341855E+03  0.16535928917E+03  0.47000000000E+01 0. -1.
         -5    1    4    4    0  502  0.30590603594E+02  0.68262976650E+00 -0.16084800281E+02  0.34886412996E+02  0.47000000000E+01 0.  1.
          5    1    3    3  503    0  0.28326330135E+02  0.31757878152E+02 -0.24235743784E+02  0.49197612548E+02  0.47000000000E+01 0. -1.
         -5    1    3    3    0  503 -0.24114359986E+02 -0.43313805291E+01 -0.12557410832E+03  0.12802816055E+03  0.47000000000E+01 0.  1.
<mgrwt>
<rscale>  0 0.96384008E+02</rscale>
<asrwt>0</asrwt>
<pdfrwt beam="1">  1        2 0.54037647E-01 0.96955770E+02</pdfrwt>
<pdfrwt beam="2">  1       -2 0.40348781E-02 0.96955770E+02</pdfrwt>
<totfact> 0.22550232E+04</totfact>
</mgrwt>
</event>
<event>
 8    1  0.5224537E-004  0.1184042E+03  0.7546771E-02  0.1247482E+00
         -1   -1    0    0    0  501 -0.00000000000E+00  0.00000000000E+00  0.17296442085E+02  0.17296442085E+02  0.00000000000E+00 0.  1.
          1   -1    0    0  501    0  0.00000000000E+00 -0.00000000000E+00 -0.79021785250E+03  0.79021785250E+03  0.00000000000E+00 0. -1.
         23    2    1    2    0    0  0.80590001056E+02 -0.36097010024E+02 -0.35483421189E+03  0.37406801348E+03  0.78878503918E+02 0.  0.
         23    2    1    2    0    0 -0.80590001056E+02  0.36097010024E+02 -0.41808719852E+03  0.43344628110E+03  0.72670699924E+02 0.  0.
          5    1    4    4  502    0  0.59381043355E+01  0.22696774463E+02 -0.13451881863E+03  0.13663018415E+03  0.47000000000E+01 0. -1.
         -5    1    4    4    0  502 -0.86528105391E+02  0.13400235561E+02 -0.28356837989E+03  0.29681609695E+03  0.47000000000E+01 0.  1.
          5    1    3    3  503    0  0.83861265653E+02 -0.15689750839E+02 -0.33239256819E+03  0.34319934374E+03  0.47000000000E+01 0. -1.
         -5    1    3    3    0  503 -0.32712645974E+01 -0.20407259185E+02 -0.22441643703E+02  0.30868669741E+02  0.47000000000E+01 0.  1.
<mgrwt>
<rscale>  0 0.11738059E+03</rscale>
<asrwt>0</asrwt>
<pdfrwt beam="1">  1        1 0.12157193E+00 0.11840423E+03</pdfrwt>
<pdfrwt beam="2">  1       -1 0.26609922E-02 0.11840423E+03</pdfrwt>
<totfact> 0.10063889E+04</totfact>
</mgrwt>
</event>
<event>
 8    1  0.5224537E-004  0.9386624E+02  0.7546771E-02  0.1293785E+00
         -1   -1    0    0    0  501 -0.00000000000E+00  0.00000000000E+00  0.16526016003E+02  0.16526016003E+02  0.00000000000E+00 0.  1.
          1   -1    0    0  501    0  0.00000000000E+00 -0.00000000000E+00 -0.53282487536E+03  0.53282487536E+03  0.00000000000E+00 0. -1.
         23    2    1    2    0    0  0.26230904545E+01  0.16825046409E+02 -0.25656274604E+03  0.27319464348E+03  0.92308763301E+02 0.  0.
         23    2    1    2    0    0 -0.26230904545E+01 -0.16825046409E+02 -0.25973611332E+03  0.27615624789E+03  0.92246744614E+02 0.  0.
          5    1    3    3  502    0  0.33134220062E+02 -0.20833794513E+02 -0.69538919333E+02  0.79935441669E+02  0.47000000000E+01 0. -1.
         -5    1    3    3    0  502 -0.30511129607E+02  0.37658840922E+02 -0.18702382670E+03  0.19325920181E+03  0.47000000000E+01 0.  1.
          5    1    4    4  503    0  0.80449579378E+01 -0.52907601689E+02 -0.18031075853E+03  0.18814354974E+03  0.47000000000E+01 0. -1.
         -5    1    4    4    0  503 -0.10668048392E+02  0.36082555280E+02 -0.79425354791E+02  0.88012698150E+02  0.47000000000E+01 0.  1.
<mgrwt>
<rscale>  0 0.93850987E+02</rscale>
<asrwt>0</asrwt>
<pdfrwt beam="1">  1        1 0.81973068E-01 0.93866238E+02</pdfrwt>
<pdfrwt beam="2">  1       -1 0.25424637E-02 0.93866238E+02</pdfrwt>
<totfact> 0.18204401E+04</totfact>
</mgrwt>
</event>
<event>
 8    1  0.5224537E-004  0.1106822E+03  0.7546771E-02  0.1259914E+00
         -2   -1    0    0    0  501 -0.00000000000E+00  0.00000000000E+00  0.53132400656E+03  0.53132400656E+03  0.00000000000E+00 0.  1.
          2   -1    0    0  501    0  0.00000000000E+00 -0.00000000000E+00 -0.22890644963E+02  0.22890644963E+02  0.00000000000E+00 0. -1.
         23    2    1    2    0    0 -0.18894239670E+02 -0.58426770697E+02  0.27146264745E+03  0.29266985667E+03  0.90515171204E+02 0.  0.
         23    2    1    2    0    0  0.18894239670E+02  0.58426770697E+02  0.23697071414E+03  0.26154479485E+03  0.92086266742E+02 0.  0.
          5    1    4    4  502    0 -0.23978705916E+02 -0.10981411904E+02  0.83242981226E+02  0.87447433742E+02  0.47000000000E+01 0. -1.
         -5    1    3    3    0  503  0.63167182672E+01 -0.77194629042E+02  0.19140279430E+03  0.20653336619E+03  0.47000000000E+01 0.  1.
          5    1    3    3  503    0 -0.25210957937E+02  0.18767858345E+02  0.80059853149E+02  0.86136490486E+02  0.47000000000E+01 0. -1.
         -5    1    4    4    0  502  0.42872945585E+02  0.69408182601E+02  0.15372773292E+03  0.17409736110E+03  0.47000000000E+01 0.  1.
<mgrwt>
<rscale>  0 0.11035489E+03</rscale>
<asrwt>0</asrwt>
<pdfrwt beam="1">  1        2 0.35216381E-02 0.11068225E+03</pdfrwt>
<pdfrwt beam="2">  1       -2 0.81742146E-01 0.11068225E+03</pdfrwt>
<totfact> 0.32062373E+03</totfact>
</mgrwt>
</event>
<event>
 8    1  0.5224537E-004  0.1037555E+03  0.7546771E-02  0.1276316E+00
         -1   -1    0    0    0  501 -0.00000000000E+00  0.00000000000E+00  0.55269414220E+02  0.55269414220E+02  0.00000000000E+00 0.  1.
          1   -1    0    0  501    0  0.00000000000E+00 -0.00000000000E+00 -0.21890559263E+03  0.21890559263E+03  0.00000000000E+00 0. -1.
         23    2    1    2    0    0 -0.43793307790E+02  0.44176492323E+01 -0.14083120998E+03  0.17492465564E+03  0.93956564512E+02 0.  0.
         23    2    1    2    0    0  0.43793307790E+02 -0.44176492323E+01 -0.22804968429E+02  0.99250351208E+02  0.85983697280E+02 0.  0.
          5    1    3    3  502    0 -0.24217320813E+02 -0.10690219915E+00 -0.15023603852E+03  0.15224797971E+03  0.47000000000E+01 0. -1.
         -5    1    3    3    0  502 -0.19575986977E+02  0.45245514315E+01  0.94048285345E+01  0.22676675937E+02  0.47000000000E+01 0.  1.
          5    1    4    4  503    0  0.60605263676E+02  0.20162070444E+02 -0.50029281346E+01  0.64238822839E+02  0.47000000000E+01 0.  1.
         -5    1    4    4    0  503 -0.16811955886E+02 -0.24579719676E+02 -0.17802040295E+02  0.35011528369E+02  0.47000000000E+01 0. -1.
<mgrwt>
<rscale>  0 0.10191706E+03</rscale>
<asrwt>0</asrwt>
<pdfrwt beam="1">  1        1 0.33677784E-01 0.10375551E+03</pdfrwt>
<pdfrwt beam="2">  1       -1 0.85029867E-02 0.10375551E+03</pdfrwt>
<totfact> 0.94647034E+03</totfact>
</mgrwt>
</event>
<event>
 8    1  0.5224537E-004  0.1509280E+03  0.7546771E-02  0.1200692E+00
         -2   -1    0    0    0  501 -0.00000000000E+00  0.00000000000E+00  0.33494493565E+02  0.33494493565E+02  0.00000000000E+00 0.  1.
          2   -1    0    0  501    0  0.00000000000E+00 -0.00000000000E+00 -0.76387087517E+03  0.76387087517E+03  0.00000000000E+00 0. -1.
         23    2    1    2    0    0  0.83251174162E+02 -0.79472722612E+02 -0.50717920808E+03  0.52792848253E+03  0.90725200052E+02 0.  0.
         23    2    1    2    0    0 -0.83251174162E+02  0.79472722612E+02 -0.22319717352E+03  0.26943688620E+03  0.97634961653E+02 0.  0.
          5    1    3    3  502    0  0.71301096534E+02 -0.53527013170E+02 -0.47995691030E+03  0.48819024289E+03  0.47000000000E+01 0. -1.
         -5    1    3    3    0  502  0.11950077629E+02 -0.25945709441E+02 -0.27222297774E+02  0.39738239642E+02  0.47000000000E+01 0.  1.
          5    1    4    4  503    0 -0.22952905582E+02  0.86706419330E+02 -0.12614276620E+03  0.15485130445E+03  0.47000000000E+01 0. -1.
         -5    1    4    4    0  503 -0.60298268580E+02 -0.72336967188E+01 -0.97054407329E+02  0.11458558175E+03  0.47000000000E+01 0.  1.
<mgrwt>
<rscale>  0 0.14982210E+03</rscale>
<asrwt>0</asrwt>
<pdfrwt beam="1">  1        2 0.11751860E+00 0.15092799E+03</pdfrwt>
<pdfrwt beam="2">  1       -2 0.51529990E-02 0.15092799E+03</pdfrwt>
<totfact> 0.68302589E+03</totfact>
</mgrwt>
</event>
<event>
 7    1  0.5224537E-004  0.3179421E+03  0.7546771E-02  0.1076600E+00
          1   -1    0    0  501    0  0.00000000000E+00  0.00000000000E+00  0.36081679916E+03  0.36081679916E+03  0.00000000000E+00 0. -1.
         -1   -1    0    0    0  501 -0.00000000000E+00 -0.00000000000E+00 -0.70040518420E+02  0.70040518420E+02  0.00000000000E+00 0.  1.
         23    2    1    2    0    0  0.85982796191E+02  0.91857531880E+01  0.12611042568E+03  0.17786246539E+03  0.90850414568E+02 0.  0.
          5    1    3    3  502    0 -0.18159125861E+02  0.85654825505E+01  0.27418407362E+02  0.34307148025E+02  0.47000000000E+01 0. -1.
         -5    1    3    3    0  502  0.10414192205E+03  0.62027063744E+00  0.98692018314E+02  0.14355531736E+03  0.47000000000E+01 0.  1.
          5    1    1    2  503    0 -0.13444542952E+03 -0.31535510262E+02  0.11195424252E+03  0.17783673508E+03  0.47000000000E+01 0. -1.
         -5    1    1    2    0  503  0.48462633329E+02  0.22349757074E+02  0.52711612541E+02  0.75158117107E+02  0.47000000000E+01 0.  1.
<mgrwt>
<rscale>  0 0.31794211E+03</rscale>
<asrwt>0</asrwt>
<pdfrwt beam="1">  1        1 0.55510276E-01 0.31794211E+03</pdfrwt>
<pdfrwt beam="2">  1       -1 0.10775465E-01 0.31794211E+03</pdfrwt>
<totfact> 0.37550519E+03</totfact>
</mgrwt>
</event>
<event>
 8    1  0.5224537E-004  0.9326241E+02  0.7546771E-02  0.1295771E+00
          2   -1    0    0  501    0  0.00000000000E+00  0.00000000000E+00  0.31647775144E+03  0.31647775144E+03  0.00000000000E+00 0. -1.
         -2   -1    0    0    0  501 -0.00000000000E+00 -0.00000000000E+00 -0.42396954701E+02  0.42396954701E+02  0.00000000000E+00 0.  1.
         23    2    1    2    0    0 -0.11556111346E+02 -0.14712294960E+02  0.28967648527E+02  0.96618472454E+02  0.90255244866E+02 0.  0.
         23    2    1    2    0    0  0.11556111346E+02  0.14712294960E+02  0.24511314821E+03  0.26225623369E+03  0.91366740931E+02 0.  0.
          5    1    3    3  502    0 -0.43169707055E+02 -0.16764397188E+02  0.41368611289E+02  0.62274558371E+02  0.47000000000E+01 0. -1.
         -5    1    4    4    0  503  0.30651656813E+02 -0.28487247863E+02  0.15224973996E+03  0.15796556800E+03  0.47000000000E+01 0.  1.
          5    1    4    4  503    0 -0.19095545467E+02  0.43199542823E+02  0.92863408255E+02  0.10429066569E+03  0.47000000000E+01 0. -1.
         -5    1    3    3    0  502  0.31613595708E+02  0.20521022276E+01 -0.12400962762E+02  0.34343914084E+02  0.47000000000E+01 0.  1.
<mgrwt>
<rscale>  0 0.92989050E+02</rscale>
<asrwt>0</asrwt>
<pdfrwt beam="1">  1        2 0.48688883E-01 0.93262408E+02</pdfrwt>
<pdfrwt beam="2">  1       -2 0.65226086E-02 0.93262408E+02</pdfrwt>
<totfact> 0.12250412E+04</totfact>
</mgrwt>
</event>
<event>
 8    1  0.5224537E-004  0.9629195E+02  0.7546771E-02  0.1288867E+00
         -1   -1    0    0    0  501 -0.00000000000E+00  0.00000000000E+00  0.33492174862E+02  0.33492174862E+02  0.00000000000E+00 0.  1.
          1   -1    0    0  501    0  0.00000000000E+00 -0.00000000000E+00 -0.57913964278E+03  0.57913964278E+03  0.00000000000E+00 0. -1.
         23    2    1    2    0    0  0.23983025233E+02  0.41299645362E+00 -0.49743655770E+02  0.10746577551E+03  0.92190593616E+02 0.  0.
         23    2    1    2    0    0 -0.23983025233E+02 -0.41299645362E+00 -0.49590381214E+03  0.50516604213E+03  0.93256544834E+02 0.  0.
          5    1    3    3  502    0 -0.34342451516E+02 -0.78996005821E+01 -0.24628301473E+02  0.43248709795E+02  0.47000000000E+01 0. -1.
         -5    1    3    3    0  502  0.58325476750E+02  0.83125970357E+01 -0.25115354297E+02  0.64217065715E+02  0.47000000000E+01 0.  1.
          5    1    4    4  503    0 -0.50763952199E+02  0.94888038932E+01 -0.43094060053E+03  0.43404942970E+03  0.47000000000E+01 0. -1.
         -5    1    4    4    0  503  0.26780926965E+02 -0.99018003468E+01 -0.64963211616E+02  0.71116612424E+02  0.47000000000E+01 0.  1.
<mgrwt>
<rscale>  0 0.96032910E+02</rscale>
<asrwt>0</asrwt>
<pdfrwt beam="1">  1        1 0.89098406E-01 0.96291948E+02</pdfrwt>
<pdfrwt beam="2">  1       -1 0.51526423E-02 0.96291948E+02</pdfrwt>
<totfact> 0.58677593E+03</totfact>
</mgrwt>
</event>
<event>
 8    1  0.5224537E-004  0.1085981E+03  0.7546771E-02  0.1265310E+00
         -1   -1    0    0    0  501 -0.00000000000E+00  0.00000000000E+00  0.48500488272E+02  0.48500488272E+02  0.00000000000E+00 0.  1.
          1   -1    0    0  501    0  0.00000000000E+00 -0.00000000000E+00 -0.32876335677E+03  0.32876335677E+03  0.00000000000E+00 0. -1.
         23    2    1    2    0    0 -0.25490773034E+02  0.54745596257E+02 -0.23965034828E+03  0.26132019204E+03  0.84906380918E+02 0.  0.
         23    2    1    2    0    0  0.25490773034E+02 -0.54745596257E+02 -0.40612520219E+02  0.11594365300E+03  0.90259038620E+02 0.  0.
          5    1    3    3  502    0 -0.54798030454E+02  0.35857795744E+02 -0.12229511471E+03  0.13880486569E+03  0.47000000000E+01 0. -1.
         -5    1    3    3    0  502  0.29307257420E+02  0.18887800513E+02 -0.11735523357E+03  0.12251532636E+03  0.47000000000E+01 0.  1.
          5    1    4    4  503    0  0.98562232578E+01  0.22276363057E+02 -0.25868189545E+02  0.35841801270E+02  0.47000000000E+01 0. -1.
         -5    1    4    4    0  503  0.15634549776E+02 -0.77021959313E+02 -0.14744330674E+02  0.80101851728E+02  0.47000000000E+01 0.  1.
<mgrwt>
<rscale>  0 0.10747941E+03</rscale>
<asrwt>0</asrwt>
<pdfrwt beam="1">  1        1 0.50578979E-01 0.10859813E+03</pdfrwt>
<pdfrwt beam="2">  1       -1 0.74616134E-02 0.10859813E+03</pdfrwt>
<totfact> 0.70121476E+03</totfact>
</mgrwt>
</event>
<event>
 8    1  0.5224537E-004  0.1352057E+03  0.7546771E-02  0.1226560E+00
         -1   -1    0    0    0  501 -0.00000000000E+00  0.00000000000E+00  0.15489992610E+03  0.15489992610E+03  0.00000000000E+00 0.  1.
          1   -1    0    0  501    0  0.00000000000E+00 -0.00000000000E+00 -0.12567552647E+03  0.12567552647E+03  0.00000000000E+00 0. -1.
         23    2    1    2    0    0  0.75161120360E+02  0.10482489164E+02  0.74587241873E+02  0.15441450346E+03  0.11189953367E+03 0.  0.
         23    2    1    2    0    0 -0.75161120360E+02 -0.10482489164E+02 -0.45362842235E+02  0.12616094911E+03  0.89998450157E+02 0.  0.
          5    1    3    3  502    0  0.56152526019E+02  0.38811622753E+02 -0.40762478986E+01  0.68543081606E+02  0.47000000000E+01 0. -1.
         -5    1    3    3    0  502  0.19008594341E+02 -0.28329133589E+02  0.78663489772E+02  0.85871421858E+02  0.47000000000E+01 0.  1.
          5    1    4    4  503    0  0.10454671508E+02  0.22961564067E+02 -0.88541066526E+01  0.27148089902E+02  0.47000000000E+01 0. -1.
         -5    1    4    4    0  503 -0.85615791868E+02 -0.33444053230E+02 -0.36508735582E+02  0.99012859203E+02  0.47000000000E+01 0.  1.
<mgrwt>
<rscale>  0 0.13060565E+03</rscale>
<asrwt>0</asrwt>
<pdfrwt beam="1">  1        1 0.19334696E-01 0.13520570E+03</pdfrwt>
<pdfrwt beam="2">  1       -1 0.23830758E-01 0.13520570E+03</pdfrwt>
<totfact> 0.38656035E+03</totfact>
</mgrwt>
</event>
<event>
 8    1  0.5224537E-004  0.1383721E+03  0.7546771E-02  0.1224162E+00
          1   -1    0    0  501    0  0.00000000000E+00  0.00000000000E+00  0.39717125272E+03  0.39717125272E+03  0.00000000000E+00 0. -1.
         -1   -1    0    0    0  501 -0.00000000000E+00 -0.00000000000E+00 -0.44886650521E+02  0.44886650521E+02  0.00000000000E+00 0.  1.
         23    2    1    2    0    0 -0.45109030186E+02  0.54389001293E+02  0.93327568839E+02  0.14845005251E+03  0.91292907276E+02 0.  0.
         23    2    1    2    0    0  0.45109030186E+02 -0.54389001293E+02  0.25895703336E+03  0.29360785073E+03  0.11896989879E+03 0.  0.
          5    1    4    4  502    0  0.56893136922E+01 -0.82371222611E+02  0.20476781084E+03  0.22083779785E+03  0.47000000000E+01 0. -1.
         -5    1    3    3    0  503 -0.38959406352E+02  0.79770676422E+02  0.72618191611E+02  0.11478975526E+03  0.47000000000E+01 0.  1.
          5    1    3    3  503    0 -0.61496238340E+01 -0.25381675129E+02  0.20709377228E+02  0.33660297249E+02  0.47000000000E+01 0. -1.
         -5    1    4    4    0  502  0.39419716494E+02  0.27982221318E+02  0.54189222520E+02  0.72770052877E+02  0.47000000000E+01 0.  1.
<mgrwt>
<rscale>  0 0.13224504E+03</rscale>
<asrwt>0</asrwt>
<pdfrwt beam="1">  1        1 0.61103267E-01 0.13837205E+03</pdfrwt>
<pdfrwt beam="2">  1       -1 0.69056388E-02 0.13837205E+03</pdfrwt>
<totfact> 0.63211847E+03</totfact>
</mgrwt>
</event>
<event>
 8    1  0.5224537E-004  0.9115567E+02  0.7546771E-02  0.1309021E+00
          1   -1    0    0  501    0  0.00000000000E+00  0.00000000000E+00  0.41218452854E+03  0.41218452854E+03  0.00000000000E+00 0. -1.
         -1   -1    0    0    0  501 -0.00000000000E+00 -0.00000000000E+00 -0.25074465215E+02  0.25074465215E+02  0.00000000000E+00 0.  1.
         23    2    1    2    0    0  0.91745489653E+01 -0.14712272654E+02  0.60687475146E+02  0.98347408129E+02  0.75422939021E+02 0.  0.
         23    2    1    2    0    0 -0.91745489653E+01  0.14712272654E+02  0.32642258818E+03  0.33891158562E+03  0.89491527441E+02 0.  0.
          5    1    3    3  502    0  0.39883085676E+02 -0.47431237081E+01  0.17108740888E+02  0.43908504419E+02  0.47000000000E+01 0. -1.
         -5    1    4    4    0  503 -0.17876585692E+01  0.34858076342E+02  0.30865881440E+03  0.31066160837E+03  0.47000000000E+01 0. -1.
          5    1    4    4  503    0 -0.73868903962E+01 -0.20145803688E+02  0.17763773773E+02  0.28249977250E+02  0.47000000000E+01 0.  1.
         -5    1    3    3    0  502 -0.30708536710E+02 -0.99691489456E+01  0.43578734258E+02  0.54438903710E+02  0.47000000000E+01 0.  1.
<mgrwt>
<rscale>  0 0.87500245E+02</rscale>
<asrwt>0</asrwt>
<pdfrwt beam="1">  1        1 0.63412999E-01 0.91155673E+02</pdfrwt>
<pdfrwt beam="2">  1       -1 0.38576103E-02 0.91155673E+02</pdfrwt>
<totfact> 0.13790045E+04</totfact>
</mgrwt>
</event>
<event>
 8    1  0.5224537E-004  0.1083146E+03  0.7546771E-02  0.1264985E+00
          1   -1    0    0  501    0  0.00000000000E+00  0.00000000000E+00  0.59367338125E+03  0.59367338125E+03  0.00000000000E+00 0. -1.
         -1   -1    0    0    0  501 -0.00000000000E+00 -0.00000000000E+00 -0.20599762790E+02  0.20599762790E+02  0.00000000000E+00 0.  1.
         23    2    1    2    0    0 -0.47578820320E+02 -0.26154311872E+02  0.36746192410E+03  0.38309308433E+03  0.93724348112E+02 0.  0.
         23    2    1    2    0    0  0.47578820320E+02  0.26154311872E+02  0.20561169436E+03  0.23118005971E+03  0.90665643854E+02 0.  0.
          5    1    4    4  502    0 -0.25678670809E+02  0.52950301550E+01  0.32695515647E+02  0.42172481813E+02  0.47000000000E+01 0. -1.
         -5    1    3    3    0  503  0.11780204398E+02  0.25667880407E+02  0.79101520834E+02  0.84123444404E+02  0.47000000000E+01 0.  1.
          5    1    3    3  503    0 -0.59359024718E+02 -0.51822192279E+02  0.28836040327E+03  0.29896963993E+03  0.47000000000E+01 0. -1.
         -5    1    4    4    0  502  0.73257491129E+02  0.20859281717E+02  0.17291617872E+03  0.18900757790E+03  0.47000000000E+01 0.  1.
<mgrwt>
<rscale>  0 0.10764958E+03</rscale>
<asrwt>0</asrwt>
<pdfrwt beam="1">  1        1 0.91334353E-01 0.10831457E+03</pdfrwt>
<pdfrwt beam="2">  1       -1 0.31691947E-02 0.10831457E+03</pdfrwt>
<totfact> 0.11625089E+04</totfact>
</mgrwt>
</event>
<event>
 8    1  0.5224537E-004  0.1159139E+03  0.7546771E-02  0.1251110E+00
          1   -1    0    0  501    0  0.00000000000E+00  0.00000000000E+00  0.12177023494E+03  0.12177023494E+03  0.00000000000E+00 0. -1.
         -1   -1    0    0    0  501 -0.00000000000E+00 -0.00000000000E+00 -0.14225061594E+03  0.14225061594E+03  0.00000000000E+00 0.  1.
         23    2    1    2    0    0 -0.35234493408E+02 -0.58892504382E+02  0.54692778512E+02  0.12586502783E+03  0.90226983833E+02 0.  0.
         23    2    1    2    0    0  0.35234493408E+02  0.58892504382E+02 -0.75173159507E+02  0.13815582305E+03  0.93414297274E+02 0.  0.
          5    1    3    3  502    0 -0.85108725503E+01 -0.23186057581E+02  0.73164262106E+02  0.77363605573E+02  0.47000000000E+01 0. -1.
         -5    1    4    4    0  503  0.51314325720E+02  0.70868582188E+02 -0.37681532900E+02  0.95380836058E+02  0.47000000000E+01 0.  1.
          5    1    4    4  503    0 -0.16079832312E+02 -0.11976077807E+02 -0.37491626607E+02  0.42774986995E+02  0.47000000000E+01 0. -1.
         -5    1    3    3    0  502 -0.26723620858E+02 -0.35706446800E+02 -0.18471483595E+02  0.48501422258E+02  0.47000000000E+01 0.  1.
<mgrwt>
<rscale>  0 0.11527031E+03</rscale>
<asrwt>0</asrwt>
<pdfrwt beam="1">  1        1 0.18733882E-01 0.11591388E+03</pdfrwt>
<pdfrwt beam="2">  1       -1 0.21884710E-01 0.11591388E+03</pdfrwt>
<totfact> 0.45778755E+03</totfact>
</mgrwt>
</event>
<event>
 8    1  0.5224537E-004  0.1021976E+03  0.7546771E-02  0.1276294E+00
         -2   -1    0    0    0  501 -0.00000000000E+00  0.00000000000E+00  0.19312449140E+02  0.19312449140E+02  0.00000000000E+00 0.  1.
          2   -1    0    0  501    0  0.00000000000E+00 -0.00000000000E+00 -0.73419230042E+03  0.73419230042E+03  0.00000000000E+00 0. -1.
         23    2    1    2    0    0  0.10606470542E+02  0.42901763224E+02 -0.55499339958E+03  0.56432439325E+03  0.92148188955E+02 0.  0.
         23    2    1    2    0    0 -0.10606470542E+02 -0.42901763224E+02 -0.15988645170E+03  0.18918035632E+03  0.90953126795E+02 0.  0.
          5    1    4    4  502    0 -0.46071658700E+02 -0.27033293805E+02 -0.53175554621E+02  0.75519046065E+02  0.47000000000E+01 0. -1.
         -5    1    3    3    0  503  0.43074294619E+02  0.43515326739E+02 -0.24416689910E+03  0.25177081470E+03  0.47000000000E+01 0.  1.
          5    1    3    3  503    0 -0.32467824077E+02 -0.61356351480E+00 -0.31082650048E+03  0.31255357855E+03  0.47000000000E+01 0. -1.
         -5    1    4    4    0  502  0.35465188158E+02 -0.15868469419E+02 -0.10671089708E+03  0.11366131025E+03  0.47000000000E+01 0.  1.
<mgrwt>
<rscale>  0 0.10192746E+03</rscale>
<asrwt>0</asrwt>
<pdfrwt beam="1">  1        2 0.11295267E+00 0.10219759E+03</pdfrwt>
<pdfrwt beam="2">  1       -2 0.29711457E-02 0.10219759E+03</pdfrwt>
<totfact> 0.15795643E+04</totfact>
</mgrwt>
</event>
<event>
 8    1  0.5224537E-004  0.9865629E+02  0.7546771E-02  0.1283514E+00
         -1   -1    0    0    0  501 -0.00000000000E+00  0.00000000000E+00  0.12131956804E+02  0.12131956804E+02  0.00000000000E+00 0.  1.
          1   -1    0    0  501    0  0.00000000000E+00 -0.00000000000E+00 -0.79777927626E+03  0.79777927626E+03  0.00000000000E+00 0. -1.
         23    2    1    2    0    0  0.40046506973E+02 -0.35846288065E+01 -0.40892515428E+03  0.42065763439E+03  0.90091571662E+02 0.  0.
         23    2    1    2    0    0 -0.40046506973E+02  0.35846288065E+01 -0.37672216517E+03  0.38925359867E+03  0.89343170196E+02 0.  0.
          5    1    3    3  502    0 -0.22718468196E+02  0.20692495969E+02 -0.13834662619E+03  0.14179628755E+03  0.47000000000E+01 0. -1.
         -5    1    3    3    0  502  0.62764975169E+02 -0.24277124775E+02 -0.27057852810E+03  0.27886134684E+03  0.47000000000E+01 0.  1.
          5    1    4    4  503    0 -0.17751465172E+02  0.45677951286E+02 -0.21695967771E+03  0.22247512558E+03  0.47000000000E+01 0. -1.
         -5    1    4    4    0  503 -0.22295041801E+02 -0.42093322479E+02 -0.15976248746E+03  0.16677847309E+03  0.47000000000E+01 0.  1.
<mgrwt>
<rscale>  0 0.98485106E+02</rscale>
<asrwt>0</asrwt>
<pdfrwt beam="1">  1        1 0.12273528E+00 0.98656290E+02</pdfrwt>
<pdfrwt beam="2">  1       -1 0.18664548E-02 0.98656290E+02</pdfrwt>
<totfact> 0.16292700E+04</totfact>
</mgrwt>
</event>
<event>
 7    1  0.5224537E-004  0.1667134E+03  0.7546771E-02  0.1189958E+00
          2   -1    0    0  501    0  0.00000000000E+00  0.00000000000E+00  0.74811872719E+03  0.74811872719E+03  0.00000000000E+00 0. -1.
         -2   -1    0    0    0  501 -0.00000000000E+00 -0.00000000000E+00 -0.48092366853E+02  0.48092366853E+02  0.00000000000E+00 0.  1.
         23    2    1    2    0    0  0.99885274477E+02  0.21823435346E+02  0.91356794484E+02  0.16512315522E+03  0.92012293214E+02 0.  0.
          5    1    1    2  502    0 -0.12938805239E+03 -0.16038814324E+02  0.41445038176E+03  0.43449939080E+03  0.47000000000E+01 0. -1.
         -5    1    3    3    0  503  0.60084512197E+02 -0.15537668101E+02  0.44644136498E+01  0.62398627590E+02  0.47000000000E+01 0.  1.
          5    1    3    3  503    0  0.39800762280E+02  0.37361103447E+02  0.86892380834E+02  0.10272452763E+03  0.47000000000E+01 0. -1.
         -5    1    1    2    0  502  0.29502777913E+02 -0.57846210223E+01  0.19421918410E+03  0.19658854803E+03  0.47000000000E+01 0.  1.
<mgrwt>
<rscale>  0 0.15888825E+03</rscale>
<asrwt>0</asrwt>
<pdfrwt beam="1">  1        2 0.11509518E+00 0.16671337E+03</pdfrwt>
<pdfrwt beam="2">  1       -2 0.73988262E-02 0.16671337E+03</pdfrwt>
<totfact> 0.40530118E+03</totfact>
</mgrwt>
</event>
<event>
 8    1  0.5224537E-004  0.9446174E+02  0.7546771E-02  0.1292964E+00
         -3   -1    0    0    0  501 -0.00000000000E+00  0.00000000000E+00  0.16534562715E+03  0.16534562715E+03  0.00000000000E+00 0.  1.
          3   -1    0    0  501    0  0.00000000000E+00 -0.00000000000E+00 -0.53625083935E+02  0.53625083935E+02  0.00000000000E+00 0. -1.
         23    2    1    2    0    0 -0.16321005454E+02 -0.11331035902E+02  0.63310220325E+02  0.11371545297E+03  0.92348538987E+02 0.  0.
         23    2    1    2    0    0  0.16321005454E+02  0.11331035902E+02  0.48410322886E+02  0.10525525811E+03  0.91325475110E+02 0.  0.
          5    1    4    4  502    0  0.12208404163E+02 -0.36012082481E+02  0.15432234870E+01  0.38345622378E+02  0.47000000000E+01 0. -1.
         -5    1    3    3    0  503 -0.15523480014E+00  0.38226221765E+02  0.11801654304E+02  0.40281970813E+02  0.47000000000E+01 0.  1.
          5    1    3    3  503    0 -0.16165770654E+02 -0.49557257667E+02  0.51508566021E+02  0.73433482158E+02  0.47000000000E+01 0. -1.
         -5    1    4    4    0  502  0.41126012916E+01  0.47343118383E+02  0.46867099399E+02  0.66909635731E+02  0.47000000000E+01 0.  1.
<mgrwt>
<rscale>  0 0.94210759E+02</rscale>
<asrwt>0</asrwt>
<pdfrwt beam="1">  1        3 0.82500130E-02 0.94461740E+02</pdfrwt>
<pdfrwt beam="2">  1       -3 0.25437789E-01 0.94461740E+02</pdfrwt>
<totfact> 0.31374040E+03</totfact>
</mgrwt>
</event>
<event>
 8    1  0.5224537E-004  0.1171749E+03  0.7546771E-02  0.1248663E+00
         -1   -1    0    0    0  501 -0.00000000000E+00  0.00000000000E+00  0.17778495158E+02  0.17778495158E+02  0.00000000000E+00 0.  1.
          1   -1    0    0  501    0  0.00000000000E+00 -0.00000000000E+00 -0.76632184933E+03  0.76632184933E+03  0.00000000000E+00 0. -1.
         23    2    1    2    0    0  0.66606292048E+02 -0.32917409527E+02 -0.34057857897E+03  0.36017180773E+03  0.90609098002E+02 0.  0.
         23    2    1    2    0    0 -0.66606292048E+02  0.32917409527E+02 -0.40796477520E+03  0.42392853676E+03  0.88091954690E+02 0.  0.
          5    1    4    4  502    0  0.71418990006E+01  0.36066156794E+02 -0.87279393701E+02  0.94823820594E+02  0.47000000000E+01 0. -1.
         -5    1    4    4    0  502 -0.73748191049E+02 -0.31487472670E+01 -0.32068538150E+03  0.32910471616E+03  0.47000000000E+01 0.  1.
          5    1    3    3  503    0  0.68315076600E+02 -0.59093133970E+01 -0.31575685311E+03  0.32315066140E+03  0.47000000000E+01 0. -1.
         -5    1    3    3    0  503 -0.17087845518E+01 -0.27008096130E+02 -0.24821725862E+02  0.37021146335E+02  0.47000000000E+01 0.  1.
<mgrwt>
<rscale>  0 0.11668805E+03</rscale>
<asrwt>0</asrwt>
<pdfrwt beam="1">  1        1 0.11789565E+00 0.11717492E+03</pdfrwt>
<pdfrwt beam="2">  1       -1 0.27351536E-02 0.11717492E+03</pdfrwt>
<totfact> 0.10114457E+04</totfact>
</mgrwt>
</event>
<event>
 8    1  0.5224537E-004  0.1260179E+03  0.7546771E-02  0.1234563E+00
          2   -1    0    0  501    0  0.00000000000E+00  0.00000000000E+00  0.85368119557E+02  0.85368119557E+02  0.00000000000E+00 0. -1.
         -2   -1    0    0    0  501 -0.00000000000E+00 -0.00000000000E+00 -0.18329551867E+03  0.18329551867E+03  0.00000000000E+00 0.  1.
         23    2    1    2    0    0 -0.18983306492E+02  0.82082040487E+02 -0.38150986963E+02  0.13166627626E+03  0.93715970906E+02 0.  0.
         23    2    1    2    0    0  0.18983306492E+02 -0.82082040487E+02 -0.59776412155E+02  0.13699736197E+03  0.89984612240E+02 0.  0.
          5    1    3    3  502    0  0.37010782625E+02  0.40724243182E+02 -0.85986759381E+01  0.55895341856E+02  0.47000000000E+01 0. -1.
         -5    1    4    4    0  503 -0.18219452097E+02 -0.50148830484E+02 -0.68523461358E+02  0.86973607434E+02  0.47000000000E+01 0.  1.
          5    1    4    4  503    0  0.37202758590E+02 -0.31933210004E+02  0.87470492037E+01  0.50023754533E+02  0.47000000000E+01 0. -1.
         -5    1    3    3    0  502 -0.55994089118E+02  0.41357797305E+02 -0.29552311025E+02  0.75770934407E+02  0.47000000000E+01 0.  1.
<mgrwt>
<rscale>  0 0.12532478E+03</rscale>
<asrwt>0</asrwt>
<pdfrwt beam="1">  1        2 0.13133557E-01 0.12601790E+03</pdfrwt>
<pdfrwt beam="2">  1       -2 0.28199310E-01 0.12601790E+03</pdfrwt>
<totfact> 0.49619460E+03</totfact>
</mgrwt>
</event>
<event>
 8    1  0.5224537E-004  0.1227617E+03  0.7546771E-02  0.1238935E+00
          1   -1    0    0  501    0  0.00000000000E+00  0.00000000000E+00  0.89141238902E+03  0.89141238902E+03  0.00000000000E+00 0. -1.
         -1   -1    0    0    0  501 -0.00000000000E+00 -0.00000000000E+00 -0.69406933830E+02  0.69406933830E+02  0.00000000000E+00 0.  1.
         23    2    1    2    0    0  0.69778071163E+02  0.41429024785E+02 -0.69341407443E+01  0.12295737302E+03  0.92114548046E+02 0.  0.
         23    2    1    2    0    0 -0.69778071163E+02 -0.41429024785E+02  0.82893959594E+03  0.83786194983E+03  0.91029939896E+02 0.  0.
          5    1    4    4  502    0 -0.91088443351E+02 -0.39580214588E+02  0.70923353685E+03  0.71616897286E+03  0.47000000000E+01 0. -1.
         -5    1    3    3    0  503  0.33596395943E+02  0.14298008569E+02 -0.48815216877E+02  0.61140545206E+02  0.47000000000E+01 0.  1.
          5    1    3    3  503    0  0.36181675220E+02  0.27131016216E+02  0.41881076133E+02  0.61816827812E+02  0.47000000000E+01 0. -1.
         -5    1    4    4    0  502  0.21310372188E+02 -0.18488101973E+01  0.11970605909E+03  0.12169297697E+03  0.47000000000E+01 0.  1.
<mgrwt>
<rscale>  0 0.12255826E+03</rscale>
<asrwt>0</asrwt>
<pdfrwt beam="1">  1        1 0.13714036E+00 0.12276169E+03</pdfrwt>
<pdfrwt beam="2">  1       -1 0.10677990E-01 0.12276169E+03</pdfrwt>
<totfact> 0.10698440E+03</totfact>
</mgrwt>
</event>
<event>
 8    1  0.5224537E-004  0.9588923E+02  0.7546771E-02  0.1291022E+00
          3   -1    0    0  501    0  0.00000000000E+00  0.00000000000E+00  0.69936863967E+03  0.69936863967E+03  0.00000000000E+00 0. -1.
         -3   -1    0    0    0  501 -0.00000000000E+00 -0.00000000000E+00 -0.13766824701E+02  0.13766824701E+02  0.00000000000E+00 0.  1.
         23    2    1    2    0    0  0.23475278835E+02  0.14111055932E+01  0.23841750906E+03  0.25578598321E+03  0.89612949091E+02 0.  0.
         23    2    1    2    0    0 -0.23475278835E+02 -0.14111055932E+01  0.44718430590E+03  0.45734948116E+03  0.92960553632E+02 0.  0.
          5    1    4    4  502    0  0.17389701372E+02 -0.33259053185E+02  0.27158481280E+03  0.27420606644E+03  0.47000000000E+01 0. -1.
         -5    1    4    4    0  502 -0.40864980207E+02  0.31847947591E+02  0.17559949311E+03  0.18314341471E+03  0.47000000000E+01 0.  1.
          5    1    3    3  503    0  0.43532045451E+02 -0.20460401666E+02  0.20597005778E+03  0.21156422600E+03  0.47000000000E+01 0. -1.
         -5    1    3    3    0  503 -0.20056766616E+02  0.21871507260E+02  0.32447451279E+02  0.44221757217E+02  0.47000000000E+01 0.  1.
<mgrwt>
<rscale>  0 0.95068318E+02</rscale>
<asrwt>0</asrwt>
<pdfrwt beam="1">  1        3 0.10759515E+00 0.95889230E+02</pdfrwt>
<pdfrwt beam="2">  1       -3 0.21179736E-02 0.95889230E+02</pdfrwt>
<totfact> 0.14465636E+03</totfact>
</mgrwt>
</event>
<event>
 8    1  0.5224537E-004  0.1102534E+03  0.7546771E-02  0.1272824E+00
          1   -1    0    0  501    0  0.00000000000E+00  0.00000000000E+00  0.95857233773E+02  0.95857233773E+02  0.00000000000E+00 0. -1.
         -1   -1    0    0    0  501 -0.00000000000E+00 -0.00000000000E+00 -0.12548124740E+03  0.12548124740E+03  0.00000000000E+00 0.  1.
         23    2    1    2    0    0  0.46273124217E+02 -0.18204436502E+02 -0.65317042584E+02  0.12814885353E+03  0.98403298090E+02 0.  0.
         23    2    1    2    0    0 -0.46273124217E+02  0.18204436502E+02  0.35693028954E+02  0.93189627650E+02  0.70268846955E+02 0.  0.
          5    1    3    3  502    0  0.53551510405E+02  0.26788471049E+02 -0.18995885078E+02  0.62994603719E+02  0.47000000000E+01 0. -1.
         -5    1    3    3    0  502 -0.72783861874E+01 -0.44992907550E+02 -0.46321157506E+02  0.65154249808E+02  0.47000000000E+01 0.  1.
          5    1    4    4  503    0 -0.77553518660E+01  0.32694018292E+02 -0.59596354234E+01  0.34447809350E+02  0.47000000000E+01 0. -1.
         -5    1    4    4    0  503 -0.38517772351E+02 -0.14489581790E+02  0.41652664378E+02  0.58741818300E+02  0.47000000000E+01 0.  1.
<mgrwt>
<rscale>  0 0.10363909E+03</rscale>
<asrwt>0</asrwt>
<pdfrwt beam="1">  1        1 0.14747267E-01 0.11025340E+03</pdfrwt>
<pdfrwt beam="2">  1       -1 0.19304807E-01 0.11025340E+03</pdfrwt>
<totfact> 0.75740166E+03</totfact>
</mgrwt>
</event>
<event>
 8    1  0.5224537E-004  0.9768810E+02  0.7546771E-02  0.1287696E+00
          2   -1    0    0  501    0  0.00000000000E+00  0.00000000000E+00  0.13446367788E+03  0.13446367788E+03  0.00000000000E+00 0. -1.
         -2   -1    0    0    0  501 -0.00000000000E+00 -0.00000000000E+00 -0.25340331495E+03  0.25340331495E+03  0.00000000000E+00 0.  1.
         23    2    1    2    0    0 -0.13392843431E+02 -0.99565095566E+01 -0.22506666159E+03  0.24362445646E+03  0.91757142991E+02 0.  0.
         23    2    1    2    0    0  0.13392843431E+02  0.99565095566E+01  0.10612702452E+03  0.14424253637E+03  0.96252083749E+02 0.  0.
          5    1    4    4  502    0  0.13536860636E+01  0.52332104038E+02  0.66832602915E+02  0.85024516414E+02  0.47000000000E+01 0. -1.
         -5    1    4    4    0  502  0.12039157367E+02 -0.42375594482E+02  0.39294421607E+02  0.59218019954E+02  0.47000000000E+01 0.  1.
          5    1    3    3  503    0 -0.43484075172E+02  0.18944401261E+02 -0.85607195715E+02  0.97981820206E+02  0.47000000000E+01 0. -1.
         -5    1    3    3    0  503  0.30091231741E+02 -0.28900910818E+02 -0.13945946587E+03  0.14564263625E+03  0.47000000000E+01 0.  1.
<mgrwt>
<rscale>  0 0.96562359E+02</rscale>
<asrwt>0</asrwt>
<pdfrwt beam="1">  1        2 0.20686720E-01 0.97688095E+02</pdfrwt>
<pdfrwt beam="2">  1       -2 0.38985125E-01 0.97688095E+02</pdfrwt>
<totfact> 0.16067136E+03</totfact>
</mgrwt>
</event>
<event>
 8    1  0.5224537E-004  0.1339009E+03  0.7546771E-02  0.1228892E+00
          4   -1    0    0  501    0  0.00000000000E+00  0.00000000000E+00  0.47376774283E+02  0.47376774283E+02  0.00000000000E+00 0. -1.
         -4   -1    0    0    0  501 -0.00000000000E+00 -0.00000000000E+00 -0.37500485086E+03  0.37500485086E+03  0.00000000000E+00 0.  1.
         23    2    1    2    0    0  0.16740113618E+02 -0.71374141824E+02 -0.22768204688E+03  0.25529283395E+03  0.89223411007E+02 0.  0.
         23    2    1    2    0    0 -0.16740113618E+02  0.71374141824E+02 -0.99946029704E+02  0.16708879120E+03  0.11204889899E+03 0.  0.
          5    1    3    3  502    0  0.52657930144E+02 -0.46062395022E+02 -0.15679145130E+03  0.17175637118E+03  0.47000000000E+01 0. -1.
         -5    1    3    3    0  502 -0.35917816526E+02 -0.25311746801E+02 -0.70890595582E+02  0.83536462769E+02  0.47000000000E+01 0.  1.
          5    1    4    4  503    0  0.13593262669E+02  0.50382770706E+02  0.79217903826E+01  0.52990991092E+02  0.47000000000E+01 0. -1.
         -5    1    4    4    0  503 -0.30333376287E+02  0.20991371118E+02 -0.10786782009E+03  0.11409780010E+03  0.47000000000E+01 0.  1.
<mgrwt>
<rscale>  0 0.12903665E+03</rscale>
<asrwt>0</asrwt>
<pdfrwt beam="1">  1        4 0.72887345E-02 0.13390092E+03</pdfrwt>
<pdfrwt beam="2">  1       -4 0.57693054E-01 0.13390092E+03</pdfrwt>
<totfact> 0.61414899E+02</totfact>
</mgrwt>
</event>
<event>
 8    1  0.5224537E-004  0.9651132E+02  0.7546771E-02  0.1289062E+00
         -1   -1    0    0    0  501 -0.00000000000E+00  0.00000000000E+00  0.17099030697E+02  0.17099030697E+02  0.00000000000E+00 0.  1.
          1   -1    0    0  501    0  0.00000000000E+00 -0.00000000000E+00 -0.53902144691E+03  0.53902144691E+03  0.00000000000E+00 0. -1.
         23    2    1    2    0    0  0.24510717826E+01  0.29723284538E+02 -0.23256665680E+03  0.25179690986E+03  0.91787540353E+02 0.  0.
         23    2    1    2    0    0 -0.24510717826E+01 -0.29723284538E+02 -0.28935575942E+03  0.30432356775E+03  0.89423693633E+02 0.  0.
          5    1    3    3  502    0 -0.27676279661E+02 -0.21976396475E+02 -0.10319499911E+03  0.10917983467E+03  0.47000000000E+01 0. -1.
         -5    1    4    4    0  503  0.27967202696E+02 -0.49385477838E+02 -0.19499748967E+03  0.20314330121E+03  0.47000000000E+01 0.  1.
          5    1    4    4  503    0 -0.30418274479E+02  0.19662193300E+02 -0.94358269746E+02  0.10118026654E+03  0.47000000000E+01 0. -1.
         -5    1    3    3    0  502  0.30127351444E+02  0.51699681013E+02 -0.12937165769E+03  0.14261707518E+03  0.47000000000E+01 0.  1.
<mgrwt>
<rscale>  0 0.95945021E+02</rscale>
<asrwt>0</asrwt>
<pdfrwt beam="1">  1        1 0.82926369E-01 0.96511315E+02</pdfrwt>
<pdfrwt beam="2">  1       -1 0.26306203E-02 0.96511315E+02</pdfrwt>
<totfact> 0.17119424E+04</totfact>
</mgrwt>
</event>
<event>
 8    1  0.5224537E-004  0.1111004E+03  0.7546771E-02  0.1259764E+00
          1   -1    0    0  501    0  0.00000000000E+00  0.00000000000E+00  0.22413318087E+03  0.22413318087E+03  0.00000000000E+00 0. -1.
         -1   -1    0    0    0  501 -0.00000000000E+00 -0.00000000000E+00 -0.74947173797E+02  0.74947173797E+02  0.00000000000E+00 0.  1.
         23    2    1    2    0    0  0.52197469686E+02  0.36372899221E+02 -0.42437573391E+01  0.11118137103E+03  0.91080865984E+02 0.  0.
         23    2    1    2    0    0 -0.52197469686E+02 -0.36372899221E+02  0.15342976441E+03  0.18789898363E+03  0.87850849767E+02 0.  0.
          5    1    3    3  502    0  0.71451144135E+02  0.30870649490E+01 -0.86501425324E+01  0.72192180561E+02  0.47000000000E+01 0. -1.
         -5    1    3    3    0  502 -0.19253674449E+02  0.33285834272E+02  0.44063851933E+01  0.38989190470E+02  0.47000000000E+01 0.  1.
          5    1    4    4  503    0 -0.54772453187E+01 -0.21423582744E+02  0.13240819229E+03  0.13432419551E+03  0.47000000000E+01 0. -1.
         -5    1    4    4    0  503 -0.46720224368E+02 -0.14949316477E+02  0.21021572116E+02  0.53574788122E+02  0.47000000000E+01 0.  1.
<mgrwt>
<rscale>  0 0.11043637E+03</rscale>
<asrwt>0</asrwt>
<pdfrwt beam="1">  1        1 0.34482028E-01 0.11110035E+03</pdfrwt>
<pdfrwt beam="2">  1       -1 0.11530334E-01 0.11110035E+03</pdfrwt>
<totfact> 0.58243478E+03</totfact>
</mgrwt>
</event>
<event>
 8    1  0.5224537E-004  0.1323302E+03  0.7546771E-02  0.1224322E+00
          2   -1    0    0  501    0  0.00000000000E+00  0.00000000000E+00  0.44574996122E+03  0.44574996122E+03  0.00000000000E+00 0. -1.
         -2   -1    0    0    0  501 -0.00000000000E+00 -0.00000000000E+00 -0.39067806030E+02  0.39067806030E+02  0.00000000000E+00 0.  1.
         23    2    1    2    0    0 -0.94639073141E+02 -0.12421900188E+02  0.19817193796E+03  0.23786067656E+03  0.90524729695E+02 0.  0.
         23    2    1    2    0    0  0.94639073141E+02  0.12421900188E+02  0.20851021722E+03  0.24695709069E+03  0.91653893464E+02 0.  0.
          5    1    4    4  502    0  0.94668058779E+02 -0.21163200792E+02  0.13839781585E+03  0.16907385325E+03  0.47000000000E+01 0. -1.
         -5    1    3    3    0  503 -0.74515631523E+02 -0.15069354283E+02  0.56937882839E+02  0.95098250678E+02  0.47000000000E+01 0.  1.
          5    1    3    3  503    0 -0.20123441617E+02  0.26474540951E+01  0.14123405512E+03  0.14276242588E+03  0.47000000000E+01 0. -1.
         -5    1    4    4    0  502 -0.28985637816E-01  0.33585100980E+02  0.70112401378E+02  0.77883237446E+02  0.47000000000E+01 0.  1.
<mgrwt>
<rscale>  0 0.13213493E+03</rscale>
<asrwt>0</asrwt>
<pdfrwt beam="1">  1        2 0.68576914E-01 0.13233025E+03</pdfrwt>
<pdfrwt beam="2">  1       -2 0.60104320E-02 0.13233025E+03</pdfrwt>
<totfact> 0.99208877E+03</totfact>
</mgrwt>
</event>
<event>
 8    1  0.5224537E-004  0.1202433E+03  0.7546771E-02  0.1242971E+00
         -1   -1    0    0    0  501 -0.00000000000E+00  0.00000000000E+00  0.12702028385E+02  0.12702028385E+02  0.00000000000E+00 0.  1.
          1   -1    0    0  501    0  0.00000000000E+00 -0.00000000000E+00 -0.13689127555E+04  0.13689127555E+04  0.00000000000E+00 0. -1.
         23    2    1    2    0    0 -0.74297849114E+02 -0.26441426189E+02 -0.38914843614E+03  0.40710571881E+03  0.89884601211E+02 0.  0.
         23    2    1    2    0    0  0.74297849114E+02  0.26441426189E+02 -0.96706229101E+03  0.97450906511E+03  0.90769619849E+02 0.  0.
          5    1    3    3  502    0 -0.64887652997E+01 -0.40058728280E+02 -0.22873235260E+03  0.23235185584E+03  0.47000000000E+01 0. -1.
         -5    1    3    3    0  502 -0.67809083814E+02  0.13617302092E+02 -0.16041608353E+03  0.17475386296E+03  0.47000000000E+01 0.  1.
          5    1    4    4  503    0  0.60235053354E+02  0.55118703822E+02 -0.81284721101E+03  0.81695104603E+03  0.47000000000E+01 0. -1.
         -5    1    4    4    0  503  0.14062795760E+02 -0.28677277634E+02 -0.15421508000E+03  0.15755801908E+03  0.47000000000E+01 0.  1.
<mgrwt>
<rscale>  0 0.12007625E+03</rscale>
<asrwt>0</asrwt>
<pdfrwt beam="1">  1        1 0.21060182E+00 0.12024327E+03</pdfrwt>
<pdfrwt beam="2">  1       -1 0.19541595E-02 0.12024327E+03</pdfrwt>
<totfact> 0.60524715E+03</totfact>
</mgrwt>
</event>
<event>
 8    1  0.5224537E-004  0.1008523E+03  0.7546771E-02  0.1279199E+00
         -1   -1    0    0    0  501 -0.00000000000E+00  0.00000000000E+00  0.20670440262E+03  0.20670440262E+03  0.00000000000E+00 0.  1.
          1   -1    0    0  501    0  0.00000000000E+00 -0.00000000000E+00 -0.48571248070E+02  0.48571248070E+02  0.00000000000E+00 0. -1.
         23    2    1    2    0    0 -0.29234120490E+02  0.26984809073E+02  0.77903459120E+02  0.12640368736E+03  0.91247627449E+02 0.  0.
         23    2    1    2    0    0  0.29234120490E+02 -0.26984809073E+02  0.80229695435E+02  0.12887196333E+03  0.92673432987E+02 0.  0.
          5    1    3    3  502    0 -0.31865731702E+02  0.58801047606E+02  0.48510983452E+02  0.82755021431E+02  0.47000000000E+01 0. -1.
         -5    1    4    4    0  503  0.29851887878E+02 -0.54078634728E+02  0.80233759549E+02  0.10136656310E+03  0.47000000000E+01 0.  1.
          5    1    4    4  503    0 -0.61776738877E+00  0.27093825655E+02 -0.40641142931E-02  0.27505400227E+02  0.47000000000E+01 0. -1.
         -5    1    3    3    0  502  0.26316112123E+01 -0.31816238533E+02  0.29392475668E+02  0.43648665934E+02  0.47000000000E+01 0.  1.
<mgrwt>
<rscale>  0 0.10052351E+03</rscale>
<asrwt>0</asrwt>
<pdfrwt beam="1">  1        1 0.74724998E-02 0.10085226E+03</pdfrwt>
<pdfrwt beam="2">  1       -1 0.31800677E-01 0.10085226E+03</pdfrwt>
<totfact> 0.81188771E+03</totfact>
</mgrwt>
</event>
<event>
 8    1  0.5224537E-004  0.1060313E+03  0.7546771E-02  0.1269509E+00
          2   -1    0    0  501    0  0.00000000000E+00  0.00000000000E+00  0.79369819413E+03  0.79369819413E+03  0.00000000000E+00 0.  1.
         -2   -1    0    0    0  501 -0.00000000000E+00 -0.00000000000E+00 -0.15484672798E+02  0.15484672798E+02  0.00000000000E+00 0. -1.
         23    2    1    2    0    0 -0.42465069382E+02  0.33022850301E+02  0.51836647307E+03  0.52853519464E+03  0.88044652401E+02 0.  0.
         23    2    1    2    0    0  0.42465069382E+02 -0.33022850301E+02  0.25984704827E+03  0.28064767229E+03  0.91371968939E+02 0.  0.
          5    1    3    3  502    0 -0.23360112202E+02 -0.13757509364E+02  0.47128583735E+02  0.54572495919E+02  0.47000000000E+01 0. -1.
         -5    1    4    4    0  503  0.55387298739E+02  0.68959114156E+01  0.19795045257E+03  0.20572257564E+03  0.47000000000E+01 0.  1.
          5    1    4    4  503    0 -0.12922229357E+02 -0.39918761717E+02  0.61896595696E+02  0.74925096646E+02  0.47000000000E+01 0. -1.
         -5    1    3    3    0  502 -0.19104957180E+02  0.46780359665E+02  0.47123788933E+03  0.47396269872E+03  0.47000000000E+01 0.  1.
<mgrwt>
<rscale>  0 0.10531057E+03</rscale>
<asrwt>0</asrwt>
<pdfrwt beam="1">  1        2 0.12210738E+00 0.10603126E+03</pdfrwt>
<pdfrwt beam="2">  1       -2 0.23822580E-02 0.10603126E+03</pdfrwt>
<totfact> 0.19881640E+04</totfact>
</mgrwt>
</event>
<event>
 8    1  0.5224537E-004  0.1073063E+03  0.7546771E-02  0.1267563E+00
         -2   -1    0    0    0  501 -0.00000000000E+00  0.00000000000E+00  0.58766753249E+02  0.58766753249E+02  0.00000000000E+00 0.  1.
          2   -1    0    0  501    0  0.00000000000E+00 -0.00000000000E+00 -0.20055778944E+03  0.20055778944E+03  0.00000000000E+00 0. -1.
         23    2    1    2    0    0  0.53560717416E+01  0.59237698329E+02 -0.40777007717E+02  0.11479285623E+03  0.89313174144E+02 0.  0.
         23    2    1    2    0    0 -0.53560717416E+01 -0.59237698329E+02 -0.10101402848E+03  0.14453168646E+03  0.84544556504E+02 0.  0.
          5    1    4    4  502    0 -0.43342386457E+02 -0.29499798731E+02 -0.37478837209E+02  0.64618525420E+02  0.47000000000E+01 0. -1.
         -5    1    3    3    0  503  0.35192312029E+02 -0.43858164498E+01 -0.61044460429E+01  0.36291713563E+02  0.47000000000E+01 0.  1.
          5    1    3    3  503    0 -0.29836240287E+02  0.63623514778E+02 -0.34672561674E+02  0.78501142668E+02  0.47000000000E+01 0. -1.
         -5    1    4    4    0  502  0.37986314715E+02 -0.29737899598E+02 -0.63535191269E+02  0.79913161042E+02  0.47000000000E+01 0.  1.
<mgrwt>
<rscale>  0 0.10630864E+03</rscale>
<asrwt>0</asrwt>
<pdfrwt beam="1">  1        2 0.30855045E-01 0.10730627E+03</pdfrwt>
<pdfrwt beam="2">  1       -2 0.90410389E-02 0.10730627E+03</pdfrwt>
<totfact> 0.12191618E+04</totfact>
</mgrwt>
</event>
<event>
 8    1  0.5224537E-004  0.9308191E+02  0.7546771E-02  0.1299867E+00
         -1   -1    0    0    0  501 -0.00000000000E+00  0.00000000000E+00  0.61163131270E+03  0.61163131270E+03  0.00000000000E+00 0.  1.
          1   -1    0    0  501    0  0.00000000000E+00 -0.00000000000E+00 -0.20096587284E+02  0.20096587284E+02  0.00000000000E+00 0. -1.
         23    2    1    2    0    0 -0.23231836036E+01  0.10318774467E+02  0.48972310485E+03  0.49849068375E+03  0.92479014229E+02 0.  0.
         23    2    1    2    0    0  0.23231836036E+01 -0.10318774467E+02  0.10181162056E+03  0.13323721623E+03  0.85291707798E+02 0.  0.
          5    1    4    4  502    0  0.22781785774E+02  0.19428612572E+02  0.62100599709E+01  0.30937608090E+02  0.47000000000E+01 0. -1.
         -5    1    4    4    0  502 -0.20458602170E+02 -0.29747387038E+02  0.95601560593E+02  0.10229960814E+03  0.47000000000E+01 0.  1.
          5    1    3    3  503    0 -0.21253035426E+02 -0.36375533606E+02  0.23401342249E+03  0.23782187213E+03  0.47000000000E+01 0. -1.
         -5    1    3    3    0  503  0.18929851822E+02  0.46694308073E+02  0.25570968236E+03  0.26066881162E+03  0.47000000000E+01 0.  1.
<mgrwt>
<rscale>  0 0.91243970E+02</rscale>
<asrwt>0</asrwt>
<pdfrwt beam="1">  1        1 0.30917831E-02 0.93081912E+02</pdfrwt>
<pdfrwt beam="2">  1       -1 0.94097111E-01 0.93081912E+02</pdfrwt>
<totfact> 0.35248712E+03</totfact>
</mgrwt>
</event>
<event>
 8    1  0.5224537E-004  0.9686968E+02  0.7546771E-02  0.1287545E+00
         -1   -1    0    0    0  501 -0.00000000000E+00  0.00000000000E+00  0.28160167291E+03  0.28160167291E+03  0.00000000000E+00 0.  1.
          1   -1    0    0  501    0  0.00000000000E+00 -0.00000000000E+00 -0.53348820649E+02  0.53348820649E+02  0.00000000000E+00 0. -1.
         23    2    1    2    0    0  0.29226704217E+02 -0.13830920894E+02  0.21722019527E+03  0.23745457589E+03  0.90302645382E+02 0.  0.
         23    2    1    2    0    0 -0.29226704217E+02  0.13830920894E+02  0.11032656995E+02  0.97495917678E+02  0.91313962959E+02 0.  0.
          5    1    3    3  502    0 -0.25249796701E+02 -0.48570912699E+00  0.13743251116E+03  0.13981263630E+03  0.47000000000E+01 0. -1.
         -5    1    3    3    0  502  0.54476500917E+02 -0.13345211767E+02  0.79787684115E+02  0.97641939584E+02  0.47000000000E+01 0.  1.
          5    1    4    4  503    0 -0.34788736251E+02 -0.33047557482E+02  0.13259465791E+02  0.50003006495E+02  0.47000000000E+01 0. -1.
         -5    1    4    4    0  503  0.55620320344E+01  0.46878478376E+02 -0.22268087964E+01  0.47492911183E+02  0.47000000000E+01 0.  1.
<mgrwt>
<rscale>  0 0.96630614E+02</rscale>
<asrwt>0</asrwt>
<pdfrwt beam="1">  1        1 0.82075110E-02 0.96869678E+02</pdfrwt>
<pdfrwt beam="2">  1       -1 0.43323334E-01 0.96869678E+02</pdfrwt>
<totfact> 0.41993423E+03</totfact>
</mgrwt>
</event>
<event>
 8    1  0.5224537E-004  0.9630641E+02  0.7546771E-02  0.1297472E+00
          1   -1    0    0  501    0  0.00000000000E+00  0.00000000000E+00  0.15517655903E+03  0.15517655903E+03  0.00000000000E+00 0. -1.
         -1   -1    0    0    0  501 -0.00000000000E+00 -0.00000000000E+00 -0.53078005071E+02  0.53078005071E+02  0.00000000000E+00 0.  1.
         23    2    1    2    0    0  0.12772536923E+02 -0.18351100661E+02  0.68788248893E+02  0.10635019062E+03  0.77965628740E+02 0.  0.
         23    2    1    2    0    0 -0.12772536923E+02  0.18351100661E+02  0.33310305063E+02  0.10190437348E+03  0.93675099760E+02 0.  0.
          5    1    3    3  502    0 -0.27294551613E+02 -0.19205930074E+02  0.53436585040E+02  0.63177677375E+02  0.47000000000E+01 0. -1.
         -5    1    3    3    0  502  0.40067088536E+02  0.85482941337E+00  0.15351663853E+02  0.43172513248E+02  0.47000000000E+01 0.  1.
          5    1    4    4  503    0 -0.69222832659E+01 -0.20463562503E+02  0.53228178644E+02  0.57636831954E+02  0.47000000000E+01 0. -1.
         -5    1    4    4    0  503 -0.58502536576E+01  0.38814663163E+02 -0.19917873581E+02  0.44267541521E+02  0.47000000000E+01 0.  1.
<mgrwt>
<rscale>  0 0.92258755E+02</rscale>
<asrwt>0</asrwt>
<pdfrwt beam="1">  1        1 0.23873317E-01 0.96306412E+02</pdfrwt>
<pdfrwt beam="2">  1       -1 0.81658470E-02 0.96306412E+02</pdfrwt>
<totfact> 0.15279226E+04</totfact>
</mgrwt>
</event>
<event>
 8    1  0.5224537E-004  0.9958074E+02  0.7546771E-02  0.1281699E+00
         -1   -1    0    0    0  501 -0.00000000000E+00  0.00000000000E+00  0.36612219602E+02  0.36612219602E+02  0.00000000000E+00 0.  1.
          1   -1    0    0  501    0  0.00000000000E+00 -0.00000000000E+00 -0.30750540206E+03  0.30750540206E+03  0.00000000000E+00 0. -1.
         23    2    1    2    0    0  0.32499522766E+02 -0.12343524025E+02 -0.74514457725E+02  0.12437333803E+03  0.93315278688E+02 0.  0.
         23    2    1    2    0    0 -0.32499522766E+02  0.12343524025E+02 -0.19637872473E+03  0.21974428363E+03  0.92273317361E+02 0.  0.
          5    1    4    4  502    0 -0.13719195265E+02  0.40015252133E+02 -0.17424016152E+03  0.17936320863E+03  0.47000000000E+01 0. -1.
         -5    1    4    4    0  502 -0.18780327501E+02 -0.27671728108E+02 -0.22138563207E+02  0.40381075003E+02  0.47000000000E+01 0.  1.
          5    1    3    3  503    0  0.27023152015E+02  0.34328134440E+02 -0.11127354662E+02  0.45327470487E+02  0.47000000000E+01 0. -1.
         -5    1    3    3    0  503  0.54763707509E+01 -0.46671658465E+02 -0.63387103063E+02  0.79045867540E+02  0.47000000000E+01 0.  1.
<mgrwt>
<rscale>  0 0.99335901E+02</rscale>
<asrwt>0</asrwt>
<pdfrwt beam="1">  1        1 0.47308524E-01 0.99580735E+02</pdfrwt>
<pdfrwt beam="2">  1       -1 0.56326491E-02 0.99580735E+02</pdfrwt>
<totfact> 0.11474629E+04</totfact>
</mgrwt>
</event>
<event>
 8    1  0.5224537E-004  0.9234629E+02  0.7546771E-02  0.1297935E+00
          1   -1    0    0  501    0  0.00000000000E+00  0.00000000000E+00  0.38537580053E+03  0.38537580053E+03  0.00000000000E+00 0. -1.
         -1   -1    0    0    0  501 -0.00000000000E+00 -0.00000000000E+00 -0.25378446864E+02  0.25378446864E+02  0.00000000000E+00 0.  1.
         23    2    1    2    0    0 -0.22740111776E+01 -0.82325204147E+01  0.25745373102E+03  0.27351464623E+03  0.91950489749E+02 0.  0.
         23    2    1    2    0    0  0.22740111776E+01  0.82325204147E+01  0.10254362265E+03  0.13723960117E+03  0.90810616473E+02 0.  0.
          5    1    3    3  502    0 -0.34018369761E+02 -0.22219846687E+02  0.21320482705E+03  0.21709297397E+03  0.47000000000E+01 0. -1.
         -5    1    4    4    0  503 -0.77172303660E+01 -0.27095066040E+02  0.95347610735E+02  0.99533688373E+02  0.47000000000E+01 0.  1.
          5    1    4    4  503    0  0.99912415437E+01  0.35327586455E+02  0.71960119114E+01  0.37705912795E+02  0.47000000000E+01 0. -1.
         -5    1    3    3    0  502  0.31744358583E+02  0.13987326272E+02  0.44248903970E+02  0.56421672260E+02  0.47000000000E+01 0.  1.
<mgrwt>
<rscale>  0 0.92061246E+02</rscale>
<asrwt>0</asrwt>
<pdfrwt beam="1">  1        1 0.59288581E-01 0.92346294E+02</pdfrwt>
<pdfrwt beam="2">  1       -1 0.39043767E-02 0.92346294E+02</pdfrwt>
<totfact> 0.14749814E+04</totfact>
</mgrwt>
</event>
<event>
 8    1  0.5224537E-004  0.1024585E+03  0.7546771E-02  0.1279628E+00
         -3   -1    0    0    0  501 -0.00000000000E+00  0.00000000000E+00  0.15102161066E+03  0.15102161066E+03  0.00000000000E+00 0.  1.
          3   -1    0    0  501    0  0.00000000000E+00 -0.00000000000E+00 -0.65603382511E+02  0.65603382511E+02  0.00000000000E+00 0. -1.
         23    2    1    2    0    0 -0.12857348337E+02 -0.23055446926E+02  0.61403160593E+02  0.11944914116E+03  0.98999414912E+02 0.  0.
         23    2    1    2    0    0  0.12857348337E+02  0.23055446926E+02  0.24015067553E+02  0.97175852013E+02  0.90385605633E+02 0.  0.
          5    1    3    3  502    0  0.34844774654E+02 -0.32157644445E+02  0.50549808102E+02  0.69466866319E+02  0.47000000000E+01 0. -1.
         -5    1    3    3    0  502 -0.47702122992E+02  0.91021975196E+01  0.10853352491E+02  0.49982274837E+02  0.47000000000E+01 0.  1.
          5    1    4    4  503    0  0.43145795994E+02  0.23969722254E+01 -0.12489112023E+02  0.45225801341E+02  0.47000000000E+01 0. -1.
         -5    1    4    4    0  503 -0.30288447656E+02  0.20658474700E+02  0.36504179576E+02  0.51950050673E+02  0.47000000000E+01 0.  1.
<mgrwt>
<rscale>  0 0.10031818E+03</rscale>
<asrwt>0</asrwt>
<pdfrwt beam="1">  1        3 0.10092828E-01 0.10245852E+03</pdfrwt>
<pdfrwt beam="2">  1       -3 0.23234094E-01 0.10245852E+03</pdfrwt>
<totfact> 0.27005075E+03</totfact>
</mgrwt>
</event>
<event>
 8    1  0.5224537E-004  0.1535023E+03  0.7546771E-02  0.1196416E+00
         -1   -1    0    0    0  501 -0.00000000000E+00  0.00000000000E+00  0.12104253659E+03  0.12104253659E+03  0.00000000000E+00 0.  1.
          1   -1    0    0  501    0  0.00000000000E+00 -0.00000000000E+00 -0.20539441623E+03  0.20539441623E+03  0.00000000000E+00 0. -1.
         23    2    1    2    0    0 -0.12184760001E+03  0.21005030655E+01 -0.80870646267E+02  0.17350220391E+03  0.93336507285E+02 0.  0.
         23    2    1    2    0    0  0.12184760001E+03 -0.21005030655E+01 -0.34812333747E+01  0.15293474891E+03  0.92334547698E+02 0.  0.
          5    1    3    3  502    0 -0.45196809793E+02 -0.41956786855E+02 -0.16414904352E+02  0.63989551206E+02  0.47000000000E+01 0. -1.
         -5    1    3    3    0  502 -0.76650790213E+02  0.44057289921E+02 -0.64455741915E+02  0.10951265270E+03  0.47000000000E+01 0.  1.
          5    1    4    4  503    0  0.22446996067E+02 -0.13317884858E+01 -0.40660868681E+02  0.46701579576E+02  0.47000000000E+01 0. -1.
         -5    1    4    4    0  503  0.99400603939E+02 -0.76871457968E+00  0.37179635307E+02  0.10623316934E+03  0.47000000000E+01 0.  1.
<mgrwt>
<rscale>  0 0.15335027E+03</rscale>
<asrwt>0</asrwt>
<pdfrwt beam="1">  1        1 0.31599141E-01 0.15350229E+03</pdfrwt>
<pdfrwt beam="2">  1       -1 0.18621929E-01 0.15350229E+03</pdfrwt>
<totfact> 0.31236008E+03</totfact>
</mgrwt>
</event>
<event>
 8    1  0.5224537E-004  0.9115041E+02  0.7546771E-02  0.1301363E+00
          1   -1    0    0  501    0  0.00000000000E+00  0.00000000000E+00  0.10988227710E+04  0.10988227710E+04  0.00000000000E+00 0. -1.
         -1   -1    0    0    0  501 -0.00000000000E+00 -0.00000000000E+00 -0.78179450557E+01  0.78179450557E+01  0.00000000000E+00 0.  1.
         23    2    1    2    0    0 -0.11504173583E+02  0.10537720661E+02  0.68144533443E+03  0.68751446613E+03  0.89805388208E+02 0.  0.
         23    2    1    2    0    0  0.11504173583E+02 -0.10537720661E+02  0.40955949155E+03  0.41912624996E+03  0.87660976060E+02 0.  0.
          5    1    4    4  502    0 -0.28052476576E+02 -0.30542544083E+02  0.24988607701E+03  0.25334744902E+03  0.47000000000E+01 0. -1.
         -5    1    4    4    0  502  0.39556650159E+02  0.20004823421E+02  0.15967341454E+03  0.16577880094E+03  0.47000000000E+01 0.  1.
          5    1    3    3  503    0 -0.48436862048E+02  0.19560784554E+02  0.36182643579E+03  0.36560800529E+03  0.47000000000E+01 0. -1.
         -5    1    3    3    0  503  0.36932688465E+02 -0.90230638921E+01  0.31961889864E+03  0.32190646084E+03  0.47000000000E+01 0.  1.
<mgrwt>
<rscale>  0 0.90617756E+02</rscale>
<asrwt>0</asrwt>
<pdfrwt beam="1">  1        1 0.16904953E+00 0.91150410E+02</pdfrwt>
<pdfrwt beam="2">  1       -1 0.12027617E-02 0.91150410E+02</pdfrwt>
<totfact> 0.18060537E+04</totfact>
</mgrwt>
</event>
<event>
 8    1  0.5224537E-004  0.9710936E+02  0.7546771E-02  0.1289803E+00
         -1   -1    0    0    0  501 -0.00000000000E+00  0.00000000000E+00  0.30976116186E+02  0.30976116186E+02  0.00000000000E+00 0.  1.
          1   -1    0    0  501    0  0.00000000000E+00 -0.00000000000E+00 -0.49184576125E+03  0.49184576125E+03  0.00000000000E+00 0. -1.
         23    2    1    2    0    0 -0.19316487865E+01  0.28010714467E+02 -0.65687020244E+02  0.11723912381E+03  0.92961799312E+02 0.  0.
         23    2    1    2    0    0  0.19316487865E+01 -0.28010714467E+02 -0.39518262482E+03  0.40558275362E+03  0.86831628377E+02 0.  0.
          5    1    3    3  502    0  0.22253515369E+02  0.39781527598E+02 -0.75421109424E+02  0.88250907253E+02  0.47000000000E+01 0. -1.
         -5    1    3    3    0  502 -0.24185164156E+02 -0.11770813131E+02  0.97340891798E+01  0.28988216557E+02  0.47000000000E+01 0.  1.
          5    1    4    4  503    0 -0.15404419204E+02 -0.52064530019E+02 -0.17299700770E+03  0.18137824039E+03  0.47000000000E+01 0. -1.
         -5    1    4    4    0  503  0.17336067990E+02  0.24053815551E+02 -0.22218561712E+03  0.22420451323E+03  0.47000000000E+01 0.  1.
<mgrwt>
<rscale>  0 0.95612311E+02</rscale>
<asrwt>0</asrwt>
<pdfrwt beam="1">  1        1 0.75668572E-01 0.97109359E+02</pdfrwt>
<pdfrwt beam="2">  1       -1 0.47655567E-02 0.97109359E+02</pdfrwt>
<totfact> 0.81484400E+03</totfact>
</mgrwt>
</event>
<event>
 8    1  0.5224537E-004  0.1234481E+03  0.7546771E-02  0.1241127E+00
          2   -1    0    0  501    0  0.00000000000E+00  0.00000000000E+00  0.42615760186E+03  0.42615760186E+03  0.00000000000E+00 0. -1.
         -2   -1    0    0    0  501 -0.00000000000E+00 -0.00000000000E+00 -0.34897769756E+02  0.34897769756E+02  0.00000000000E+00 0.  1.
         23    2    1    2    0    0  0.13003741707E+02 -0.68053213355E+02  0.25218790014E+03  0.28078135285E+03  0.10217188453E+03 0.  0.
         23    2    1    2    0    0 -0.13003741707E+02  0.68053213355E+02  0.13907193197E+03  0.18027401877E+03  0.91418720370E+02 0.  0.
          5    1    4    4  502    0 -0.20916928117E+02 -0.12963948667E+02  0.66700876882E+02  0.71250816302E+02  0.47000000000E+01 0. -1.
         -5    1    3    3    0  503  0.15518066152E+02  0.12789775947E+02  0.58524126084E+01  0.21464609925E+02  0.47000000000E+01 0.  1.
          5    1    3    3  503    0 -0.25143244449E+01 -0.80842989301E+02  0.24633548753E+03  0.25931674293E+03  0.47000000000E+01 0. -1.
         -5    1    4    4    0  502  0.79131864092E+01  0.81017162021E+02  0.72371055089E+02  0.10902320247E+03  0.47000000000E+01 0.  1.
<mgrwt>
<rscale>  0 0.12120230E+03</rscale>
<asrwt>0</asrwt>
<pdfrwt beam="1">  1        2 0.65562704E-01 0.12344809E+03</pdfrwt>
<pdfrwt beam="2">  1       -2 0.53688880E-02 0.12344809E+03</pdfrwt>
<totfact> 0.12281121E+04</totfact>
</mgrwt>
</event>
<event>
 8    1  0.5224537E-004  0.1031715E+03  0.7546771E-02  0.1275399E+00
          2   -1    0    0  501    0  0.00000000000E+00  0.00000000000E+00  0.13050477162E+03  0.13050477162E+03  0.00000000000E+00 0. -1.
         -2   -1    0    0    0  501 -0.00000000000E+00 -0.00000000000E+00 -0.10103890230E+03  0.10103890230E+03  0.00000000000E+00 0.  1.
         23    2    1    2    0    0  0.41725088920E+02  0.22669975926E+02  0.68539782115E+02  0.12122079300E+03  0.87987885921E+02 0.  0.
         23    2    1    2    0    0 -0.41725088920E+02 -0.22669975926E+02 -0.39073912802E+02  0.11032288093E+03  0.91593976549E+02 0.  0.
          5    1    4    4  502    0  0.10514410270E+02  0.27979825711E+02 -0.11411255411E+02  0.32337752244E+02  0.47000000000E+01 0. -1.
         -5    1    3    3    0  503  0.81542391279E+01 -0.22381780608E+02  0.59313170727E+02  0.64090388832E+02  0.47000000000E+01 0.  1.
          5    1    3    3  503    0  0.33570849792E+02  0.45051756533E+02  0.92266113879E+01  0.57130404166E+02  0.47000000000E+01 0. -1.
         -5    1    4    4    0  502 -0.52239499190E+02 -0.50649801637E+02 -0.27662657391E+02  0.77985128681E+02  0.47000000000E+01 0.  1.
<mgrwt>
<rscale>  0 0.10236523E+03</rscale>
<asrwt>0</asrwt>
<pdfrwt beam="1">  1        2 0.20077657E-01 0.10317154E+03</pdfrwt>
<pdfrwt beam="2">  1       -2 0.15544447E-01 0.10317154E+03</pdfrwt>
<totfact> 0.82336024E+03</totfact>
</mgrwt>
</event>
<event>
 8    1  0.5224537E-004  0.1654299E+03  0.7546771E-02  0.1182738E+00
         -1   -1    0    0    0  501 -0.00000000000E+00  0.00000000000E+00  0.41539084837E+03  0.41539084837E+03  0.00000000000E+00 0.  1.
          1   -1    0    0  501    0  0.00000000000E+00 -0.00000000000E+00 -0.18168721546E+03  0.18168721546E+03  0.00000000000E+00 0. -1.
         23    2    1    2    0    0  0.65563903894E+02 -0.12057870924E+03 -0.12153133289E+03  0.20527281443E+03  0.92353737630E+02 0.  0.
         23    2    1    2    0    0 -0.65563903894E+02  0.12057870924E+03  0.35523496580E+03  0.39180524940E+03  0.92095721492E+02 0.  0.
          5    1    4    4  502    0 -0.63032479903E+02  0.38088819063E+02  0.10552650740E+03  0.12877028161E+03  0.47000000000E+01 0. -1.
         -5    1    3    3    0  503  0.70075854173E+01 -0.10237999717E+03 -0.87768890230E+02  0.13511564738E+03  0.47000000000E+01 0.  1.
          5    1    3    3  503    0  0.58556318477E+02 -0.18198712072E+02 -0.33762442657E+02  0.70157167052E+02  0.47000000000E+01 0. -1.
         -5    1    4    4    0  502 -0.25314239908E+01  0.82489890179E+02  0.24970845839E+03  0.26303496779E+03  0.47000000000E+01 0.  1.
<mgrwt>
<rscale>  0 0.16539395E+03</rscale>
<asrwt>0</asrwt>
<pdfrwt beam="1">  1        1 0.27951879E-01 0.16542994E+03</pdfrwt>
<pdfrwt beam="2">  1       -1 0.63906284E-01 0.16542994E+03</pdfrwt>
<totfact> 0.42908765E+02</totfact>
</mgrwt>
</event>
<event>
 8    1  0.5224537E-004  0.9394990E+02  0.7546771E-02  0.1293782E+00
          2   -1    0    0  501    0  0.00000000000E+00  0.00000000000E+00  0.92277470922E+03  0.92277470922E+03  0.00000000000E+00 0. -1.
         -2   -1    0    0    0  501 -0.00000000000E+00 -0.00000000000E+00 -0.97746822507E+01  0.97746822507E+01  0.00000000000E+00 0.  1.
         23    2    1    2    0    0 -0.19835551132E+02 -0.84565416864E+01  0.38115008550E+03  0.39246519026E+03  0.91041615213E+02 0.  0.
         23    2    1    2    0    0  0.19835551132E+02  0.84565416864E+01  0.53184994147E+03  0.54008420121E+03  0.91441904912E+02 0.  0.
          5    1    4    4  502    0 -0.11500226583E+02 -0.33895218307E+02  0.30605823509E+03  0.30817993819E+03  0.47000000000E+01 0. -1.
         -5    1    4    4    0  502  0.31335777715E+02  0.42351759994E+02  0.22579170638E+03  0.23190426302E+03  0.47000000000E+01 0.  1.
          5    1    3    3  503    0  0.41716887254E+01 -0.43083125188E+02  0.27030155068E+03  0.27378564053E+03  0.47000000000E+01 0. -1.
         -5    1    3    3    0  503 -0.24007239858E+02  0.34626583501E+02  0.11084853482E+03  0.11867954972E+03  0.47000000000E+01 0.  1.
<mgrwt>
<rscale>  0 0.93852361E+02</rscale>
<asrwt>0</asrwt>
<pdfrwt beam="1">  1        2 0.14196527E+00 0.93949902E+02</pdfrwt>
<pdfrwt beam="2">  1       -2 0.15037980E-02 0.93949902E+02</pdfrwt>
<totfact> 0.31508664E+04</totfact>
</mgrwt>
</event>
<event>
 8    1  0.5224537E-004  0.1132912E+03  0.7546771E-02  0.1255688E+00
         -3   -1    0    0    0  501 -0.00000000000E+00  0.00000000000E+00  0.70174677971E+02  0.70174677971E+02  0.00000000000E+00 0.  1.
          3   -1    0    0  501    0  0.00000000000E+00 -0.00000000000E+00 -0.22822410463E+03  0.22822410463E+03  0.00000000000E+00 0. -1.
         23    2    1    2    0    0  0.16986810064E+02  0.61756211401E+02 -0.90640240014E+01  0.11123163840E+03  0.90487233840E+02 0.  0.
         23    2    1    2    0    0 -0.16986810064E+02 -0.61756211401E+02 -0.14898540266E+03  0.18716714420E+03  0.93447890822E+02 0.  0.
          5    1    3    3  502    0 -0.21048915845E+02 -0.12141744034E+02 -0.12876772757E+02  0.27899463849E+02  0.47000000000E+01 0. -1.
         -5    1    3    3    0  502  0.38035725909E+02  0.73897955435E+02  0.38127487556E+01  0.83332174554E+02  0.47000000000E+01 0.  1.
          5    1    4    4  503    0  0.17065565162E+02 -0.72656821416E+02 -0.81221541135E+02  0.11040505404E+03  0.47000000000E+01 0. -1.
         -5    1    4    4    0  503 -0.34052375226E+02  0.10900610015E+02 -0.67763861526E+02  0.76762090163E+02  0.47000000000E+01 0.  1.
<mgrwt>
<rscale>  0 0.11267886E+03</rscale>
<asrwt>0</asrwt>
<pdfrwt beam="1">  1        3 0.35111401E-01 0.11329117E+03</pdfrwt>
<pdfrwt beam="2">  1       -3 0.10796104E-01 0.11329117E+03</pdfrwt>
<totfact> 0.11575682E+03</totfact>
</mgrwt>
</event>
<event>
 8    1  0.5224537E-004  0.9920222E+02  0.7546771E-02  0.1282943E+00
         -3   -1    0    0    0  501 -0.00000000000E+00  0.00000000000E+00  0.76704622455E+02  0.76704622455E+02  0.00000000000E+00 0.  1.
          3   -1    0    0  501    0  0.00000000000E+00 -0.00000000000E+00 -0.13285949376E+03  0.13285949376E+03  0.00000000000E+00 0. -1.
         23    2    1    2    0    0 -0.26095307626E+01 -0.35130847541E+02 -0.52138971909E+02  0.11206941056E+03  0.92736693339E+02 0.  0.
         23    2    1    2    0    0  0.26095307626E+01  0.35130847541E+02 -0.40158993980E+01  0.97494705659E+02  0.90819073349E+02 0.  0.
          5    1    3    3  502    0  0.56323141912E+01  0.27158165605E+02 -0.38365545243E+02  0.47574089418E+02  0.47000000000E+01 0. -1.
         -5    1    4    4    0  503 -0.29511350826E+02 -0.26883130999E+01  0.25666782452E+02  0.39484434608E+02  0.47000000000E+01 0.  1.
          5    1    4    4  503    0  0.32120881589E+02  0.37819160640E+02 -0.29682681850E+02  0.58010271051E+02  0.47000000000E+01 0. -1.
         -5    1    3    3    0  502 -0.82418449538E+01 -0.62289013145E+02 -0.13773426666E+02  0.64495321140E+02  0.47000000000E+01 0.  1.
<mgrwt>
<rscale>  0 0.98751594E+02</rscale>
<asrwt>0</asrwt>
<pdfrwt beam="1">  1        3 0.20439922E-01 0.99202220E+02</pdfrwt>
<pdfrwt beam="2">  1       -3 0.11800711E-01 0.99202220E+02</pdfrwt>
<totfact> 0.25983846E+03</totfact>
</mgrwt>
</event>
<event>
 7    1  0.5224537E-004  0.2486131E+03  0.7546771E-02  0.1114184E+00
          3   -1    0    0  501    0  0.00000000000E+00  0.00000000000E+00  0.17462501687E+02  0.17462501687E+02  0.00000000000E+00 0. -1.
         -3   -1    0    0    0  501 -0.00000000000E+00 -0.00000000000E+00 -0.88487422773E+03  0.88487422773E+03  0.00000000000E+00 0.  1.
         23    2    1    2    0    0 -0.11297272068E+02 -0.36025319748E+02 -0.35767066500E+03  0.37066621697E+03  0.89664306045E+02 0.  0.
          5    1    3    3  502    0  0.11627738048E+02 -0.61284841770E+02 -0.21644249121E+03  0.22530086134E+03  0.47000000000E+01 0. -1.
         -5    1    3    3    0  502 -0.22925010116E+02  0.25259522022E+02 -0.14122817380E+03  0.14536535562E+03  0.47000000000E+01 0.  1.
          5    1    1    2  503    0  0.10580913521E+02 -0.49863362509E+02 -0.30994337810E+03  0.31414216253E+03  0.47000000000E+01 0. -1.
         -5    1    1    2    0  503  0.71635854762E+00  0.85888682257E+02 -0.19979768294E+03  0.21752834992E+03  0.47000000000E+01 0.  1.
<mgrwt>
<rscale>  0 0.24861309E+03</rscale>
<asrwt>0</asrwt>
<pdfrwt beam="1">  1        3 0.26865391E-02 0.24861309E+03</pdfrwt>
<pdfrwt beam="2">  1       -3 0.13613448E+00 0.24861309E+03</pdfrwt>
<totfact> 0.66177688E+02</totfact>
</mgrwt>
</event>
<event>
 8    1  0.5224537E-004  0.1181056E+03  0.7546771E-02  0.1246510E+00
         -1   -1    0    0    0  501 -0.00000000000E+00  0.00000000000E+00  0.13264738017E+03  0.13264738017E+03  0.00000000000E+00 0.  1.
          1   -1    0    0  501    0  0.00000000000E+00 -0.00000000000E+00 -0.18527647155E+03  0.18527647155E+03  0.00000000000E+00 0. -1.
         23    2    1    2    0    0  0.37297033160E+02  0.64177393798E+02  0.78604220060E+02  0.14137040074E+03  0.91088749235E+02 0.  0.
         23    2    1    2    0    0 -0.37297033160E+02 -0.64177393798E+02 -0.13123331144E+03  0.17655345098E+03  0.91864750930E+02 0.  0.
          5    1    3    3  502    0  0.25528932271E+02  0.34353536490E+02 -0.12368222639E+02  0.44799048913E+02  0.47000000000E+01 0. -1.
         -5    1    3    3    0  502  0.11768100889E+02  0.29823857308E+02  0.90972442699E+02  0.96571351828E+02  0.47000000000E+01 0.  1.
          5    1    4    4  503    0 -0.21894506187E+02 -0.16438105099E+02 -0.12226279213E+03  0.12537886999E+03  0.47000000000E+01 0. -1.
         -5    1    4    4    0  503 -0.15402526973E+02 -0.47739288699E+02 -0.89705193095E+01  0.51174580989E+02  0.47000000000E+01 0.  1.
<mgrwt>
<rscale>  0 0.11795469E+03</rscale>
<asrwt>0</asrwt>
<pdfrwt beam="1">  1        1 0.28504072E-01 0.11810563E+03</pdfrwt>
<pdfrwt beam="2">  1       -1 0.20407289E-01 0.11810563E+03</pdfrwt>
<totfact> 0.30280312E+03</totfact>
</mgrwt>
</event>
<event>
 8    1  0.5224537E-004  0.1092183E+03  0.7546771E-02  0.1262942E+00
          1   -1    0    0  501    0  0.00000000000E+00  0.00000000000E+00  0.12461268787E+04  0.12461268787E+04  0.00000000000E+00 0. -1.
         -1   -1    0    0    0  501 -0.00000000000E+00 -0.00000000000E+00 -0.10135333098E+02  0.10135333098E+02  0.00000000000E+00 0.  1.
         23    2    1    2    0    0  0.10410132389E+02  0.44109796259E+02  0.79199337545E+03  0.79948867097E+03  0.99370937752E+02 0.  0.
         23    2    1    2    0    0 -0.10410132389E+02 -0.44109796259E+02  0.44399817012E+03  0.45677354080E+03  0.97229869486E+02 0.  0.
          5    1    3    3  502    0 -0.41848335653E+02  0.25814801978E+02  0.48482199921E+03  0.48733166131E+03  0.47000000000E+01 0. -1.
         -5    1    3    3    0  502  0.52258468043E+02  0.18294994282E+02  0.30717137624E+03  0.31215700966E+03  0.47000000000E+01 0.  1.
          5    1    4    4  503    0 -0.32977127329E+02 -0.66500202864E+02  0.28381669924E+03  0.29340036925E+03  0.47000000000E+01 0. -1.
         -5    1    4    4    0  503  0.22566994940E+02  0.22390406605E+02  0.16018147088E+03  0.16337317155E+03  0.47000000000E+01 0.  1.
<mgrwt>
<rscale>  0 0.10872889E+03</rscale>
<asrwt>0</asrwt>
<pdfrwt beam="1">  1        1 0.19171171E+00 0.10921826E+03</pdfrwt>
<pdfrwt beam="2">  1       -1 0.15592830E-02 0.10921826E+03</pdfrwt>
<totfact> 0.10039918E+04</totfact>
</mgrwt>
</event>
<event>
 8    1  0.5224537E-004  0.9905885E+02  0.7546771E-02  0.1282405E+00
         -3   -1    0    0    0  501 -0.00000000000E+00  0.00000000000E+00  0.82878333173E+02  0.82878333173E+02  0.00000000000E+00 0.  1.
          3   -1    0    0  501    0  0.00000000000E+00 -0.00000000000E+00 -0.20507963946E+03  0.20507963946E+03  0.00000000000E+00 0. -1.
         23    2    1    2    0    0 -0.34809401905E+02  0.16583196858E+02 -0.15488671557E+03  0.18385469907E+03  0.91246692173E+02 0.  0.
         23    2    1    2    0    0  0.34809401905E+02 -0.16583196858E+02  0.32685409275E+02  0.10410327357E+03  0.91008014531E+02 0.  0.
          5    1    3    3  502    0 -0.33260380907E+02 -0.20254508576E+02 -0.20174567749E+02  0.44108970059E+02  0.47000000000E+01 0. -1.
         -5    1    3    3    0  502 -0.15490209977E+01  0.36837705434E+02 -0.13471214782E+03  0.13974572901E+03  0.47000000000E+01 0.  1.
          5    1    4    4  503    0  0.30998126258E+02  0.22789716549E+02 -0.15359198450E+02  0.41692325300E+02  0.47000000000E+01 0. -1.
         -5    1    4    4    0  503  0.38112756472E+01 -0.39372913407E+02  0.48044607725E+02  0.62410948268E+02  0.47000000000E+01 0.  1.
<mgrwt>
<rscale>  0 0.99003851E+02</rscale>
<asrwt>0</asrwt>
<pdfrwt beam="1">  1        3 0.31550713E-01 0.99058850E+02</pdfrwt>
<pdfrwt beam="2">  1       -3 0.12750513E-01 0.99058850E+02</pdfrwt>
<totfact> 0.10460918E+03</totfact>
</mgrwt>
</event>
<event>
 8    1  0.5224537E-004  0.1046990E+03  0.7546771E-02  0.1271058E+00
          1   -1    0    0  501    0  0.00000000000E+00  0.00000000000E+00  0.31768744378E+03  0.31768744378E+03  0.00000000000E+00 0. -1.
         -1   -1    0    0    0  501 -0.00000000000E+00 -0.00000000000E+00 -0.46718092568E+02  0.46718092568E+02  0.00000000000E+00 0.  1.
         23    2    1    2    0    0  0.22301225730E+02 -0.45448248596E+02  0.41131484752E+02  0.11184402693E+03  0.90853725031E+02 0.  0.
         23    2    1    2    0    0 -0.22301225730E+02  0.45448248596E+02  0.22983786646E+03  0.25256150942E+03  0.91645966699E+02 0.  0.
          5    1    4    4  502    0 -0.28412614773E+02  0.67078181345E+02  0.20961784979E+03  0.22196506942E+03  0.47000000000E+01 0. -1.
         -5    1    4    4    0  502  0.61113890427E+01 -0.21629932749E+02  0.20220016673E+02  0.30596440006E+02  0.47000000000E+01 0.  1.
          5    1    3    3  503    0 -0.29005334774E+02  0.47215249252E+01  0.16508040802E+01  0.29806331493E+02  0.47000000000E+01 0. -1.
         -5    1    3    3    0  503  0.51306560504E+02 -0.50169773521E+02  0.39480680672E+02  0.82037695435E+02  0.47000000000E+01 0.  1.
<mgrwt>
<rscale>  0 0.10452533E+03</rscale>
<asrwt>0</asrwt>
<pdfrwt beam="1">  1        1 0.48874990E-01 0.10469896E+03</pdfrwt>
<pdfrwt beam="2">  1       -1 0.71873991E-02 0.10469896E+03</pdfrwt>
<totfact> 0.77138585E+03</totfact>
</mgrwt>
</event>
<event>
 8    1  0.5224537E-004  0.9434106E+02  0.7546771E-02  0.1293483E+00
          1   -1    0    0  501    0  0.00000000000E+00  0.00000000000E+00  0.36135193148E+03  0.36135193148E+03  0.00000000000E+00 0. -1.
         -1   -1    0    0    0  501 -0.00000000000E+00 -0.00000000000E+00 -0.54906574209E+02  0.54906574209E+02  0.00000000000E+00 0.  1.
         23    2    1    2    0    0 -0.11646051000E+02  0.12323417458E+02  0.30922858080E+03  0.32329947486E+03  0.92804838997E+02 0.  0.
         23    2    1    2    0    0  0.11646051000E+02 -0.12323417458E+02 -0.27832235261E+01  0.92959030829E+02  0.91357199813E+02 0.  0.
          5    1    3    3  502    0  0.38348549001E+02  0.97790730213E+01  0.18573582214E+03  0.18996348888E+03  0.47000000000E+01 0. -1.
         -5    1    3    3    0  502 -0.49994600001E+02  0.25443444370E+01  0.12349275866E+03  0.13333598599E+03  0.47000000000E+01 0.  1.
          5    1    4    4  503    0  0.23703418682E+02 -0.33904123742E+02  0.30228108279E+02  0.51450657858E+02  0.47000000000E+01 0. -1.
         -5    1    4    4    0  503 -0.12057367682E+02  0.21580706284E+02 -0.33011331805E+02  0.41508372971E+02  0.47000000000E+01 0.  1.
<mgrwt>
<rscale>  0 0.93983101E+02</rscale>
<asrwt>0</asrwt>
<pdfrwt beam="1">  1        1 0.55592603E-01 0.94341058E+02</pdfrwt>
<pdfrwt beam="2">  1       -1 0.84471655E-02 0.94341058E+02</pdfrwt>
<totfact> 0.51333591E+03</totfact>
</mgrwt>
</event>
<event>
 8    1  0.5224537E-004  0.1086640E+03  0.7546771E-02  0.1264904E+00
         -2   -1    0    0    0  501 -0.00000000000E+00  0.00000000000E+00  0.12511475545E+02  0.12511475545E+02  0.00000000000E+00 0.  1.
          2   -1    0    0  501    0  0.00000000000E+00 -0.00000000000E+00 -0.10892580154E+04  0.10892580154E+04  0.00000000000E+00 0. -1.
         23    2    1    2    0    0 -0.17686085053E-01  0.59595601536E+02 -0.30731361801E+03  0.32470135839E+03  0.86241963615E+02 0.  0.
         23    2    1    2    0    0  0.17686085053E-01 -0.59595601536E+02 -0.76943292189E+03  0.77706813260E+03  0.90863773781E+02 0.  0.
          5    1    4    4  502    0 -0.41351890235E+02 -0.49800604492E+02 -0.51358919681E+03  0.51767367339E+03  0.47000000000E+01 0. -1.
         -5    1    4    4    0  502  0.41369576320E+02 -0.97949970440E+01 -0.25584372507E+03  0.25939445921E+03  0.47000000000E+01 0.  1.
          5    1    3    3  503    0 -0.28293151206E+02  0.20293203438E+02 -0.23460351862E+03  0.23721976616E+03  0.47000000000E+01 0. -1.
         -5    1    3    3    0  503  0.28275465121E+02  0.39302398099E+02 -0.72710099393E+02  0.87481592223E+02  0.47000000000E+01 0.  1.
<mgrwt>
<rscale>  0 0.10769252E+03</rscale>
<asrwt>0</asrwt>
<pdfrwt beam="1">  1        2 0.16757815E+00 0.10866398E+03</pdfrwt>
<pdfrwt beam="2">  1       -2 0.19248425E-02 0.10866398E+03</pdfrwt>
<totfact> 0.17868317E+04</totfact>
</mgrwt>
</event>
<event>
 8    1  0.5224537E-004  0.1096209E+03  0.7546771E-02  0.1262144E+00
         -1   -1    0    0    0  501 -0.00000000000E+00  0.00000000000E+00  0.31114117565E+03  0.31114117565E+03  0.00000000000E+00 0.  1.
          1   -1    0    0  501    0  0.00000000000E+00 -0.00000000000E+00 -0.38814904071E+02  0.38814904071E+02  0.00000000000E+00 0. -1.
         23    2    1    2    0    0  0.25550275148E+02  0.51076775515E+02  0.11149628994E+03  0.15635906266E+03  0.93568585791E+02 0.  0.
         23    2    1    2    0    0 -0.25550275148E+02 -0.51076775515E+02  0.16082998163E+03  0.19359701706E+03  0.91388557630E+02 0.  0.
          5    1    3    3  502    0 -0.20108285883E+02  0.49801059722E+02  0.27241164881E+02  0.60404137066E+02  0.47000000000E+01 0. -1.
         -5    1    3    3    0  502  0.45658561030E+02  0.12757157929E+01  0.84255125061E+02  0.95954925591E+02  0.47000000000E+01 0.  1.
          5    1    4    4  503    0  0.23855515003E+02 -0.20667740133E+02  0.11548899804E+03  0.11981669227E+03  0.47000000000E+01 0. -1.
         -5    1    4    4    0  503 -0.49405790151E+02 -0.30409035382E+02  0.45340983598E+02  0.73780324795E+02  0.47000000000E+01 0.  1.
<mgrwt>
<rscale>  0 0.10915419E+03</rscale>
<asrwt>0</asrwt>
<pdfrwt beam="1">  1        1 0.59715239E-02 0.10962086E+03</pdfrwt>
<pdfrwt beam="2">  1       -1 0.47867871E-01 0.10962086E+03</pdfrwt>
<totfact> 0.54307979E+03</totfact>
</mgrwt>
</event>
<event>
 8    1  0.5224537E-004  0.1750147E+03  0.7546771E-02  0.1172952E+00
          1   -1    0    0  501    0  0.00000000000E+00  0.00000000000E+00  0.63474845641E+02  0.63474845641E+02  0.00000000000E+00 0. -1.
         -1   -1    0    0    0  501 -0.00000000000E+00 -0.00000000000E+00 -0.74080751160E+03  0.74080751160E+03  0.00000000000E+00 0.  1.
         23    2    1    2    0    0 -0.12982962177E+03 -0.69237619017E+02 -0.57669568703E+03  0.60239636585E+03  0.93026273555E+02 0.  0.
         23    2    1    2    0    0  0.12982962177E+03  0.69237619017E+02 -0.10063697893E+03  0.20188599139E+03  0.94765887412E+02 0.  0.
          5    1    4    4  502    0  0.12443696068E+03  0.21462568143E+02 -0.78388610146E+02  0.14870125492E+03  0.47000000000E+01 0. -1.
         -5    1    4    4    0  502  0.53926610837E+01  0.47775050874E+02 -0.22248368782E+02  0.53184736467E+02  0.47000000000E+01 0.  1.
          5    1    3    3  503    0 -0.16500071780E+02 -0.47221208919E+02 -0.10017978608E+03  0.11207218424E+03  0.47000000000E+01 0. -1.
         -5    1    3    3    0  503 -0.11332954999E+03 -0.22016410098E+02 -0.47651590095E+03  0.49032418161E+03  0.47000000000E+01 0.  1.
<mgrwt>
<rscale>  0 0.17478030E+03</rscale>
<asrwt>0</asrwt>
<pdfrwt beam="1">  1        1 0.97653608E-02 0.17501472E+03</pdfrwt>
<pdfrwt beam="2">  1       -1 0.11397039E+00 0.17501472E+03</pdfrwt>
<totfact> 0.49480573E+02</totfact>
</mgrwt>
</event>
<event>
 8    1  0.5224537E-004  0.1070949E+03  0.7546771E-02  0.1267704E+00
          2   -1    0    0  501    0  0.00000000000E+00  0.00000000000E+00  0.99201939766E+03  0.99201939766E+03  0.00000000000E+00 0. -1.
         -2   -1    0    0    0  501 -0.00000000000E+00 -0.00000000000E+00 -0.13855982852E+02  0.13855982852E+02  0.00000000000E+00 0.  1.
         23    2    1    2    0    0  0.20831213205E+02 -0.48664857318E+02  0.27519019909E+03  0.29529471110E+03  0.93097330502E+02 0.  0.
         23    2    1    2    0    0 -0.20831213205E+02  0.48664857318E+02  0.70297321572E+03  0.71058066941E+03  0.89170274999E+02 0.  0.
          5    1    4    4  502    0  0.23153035516E+02  0.54155996512E+02  0.39085227105E+03  0.39529295819E+03  0.47000000000E+01 0. -1.
         -5    1    4    4    0  502 -0.43984248722E+02 -0.54911391942E+01  0.31212094467E+03  0.31528771122E+03  0.47000000000E+01 0.  1.
          5    1    3    3  503    0 -0.27348385987E+02  0.67873673540E+01  0.42254683534E+02  0.51005400226E+02  0.47000000000E+01 0. -1.
         -5    1    3    3    0  503  0.48179599193E+02 -0.55452224672E+02  0.23293551556E+03  0.24428931087E+03  0.47000000000E+01 0.  1.
<mgrwt>
<rscale>  0 0.10623573E+03</rscale>
<asrwt>0</asrwt>
<pdfrwt beam="1">  1        2 0.15261831E+00 0.10709491E+03</pdfrwt>
<pdfrwt beam="2">  1       -2 0.21316904E-02 0.10709491E+03</pdfrwt>
<totfact> 0.17541010E+04</totfact>
</mgrwt>
</event>
<event>
 8    1  0.5224537E-004  0.9247988E+02  0.7546771E-02  0.1297703E+00
         -1   -1    0    0    0  501 -0.00000000000E+00  0.00000000000E+00  0.30718518551E+02  0.30718518551E+02  0.00000000000E+00 0.  1.
          1   -1    0    0  501    0  0.00000000000E+00 -0.00000000000E+00 -0.27460580314E+03  0.27460580314E+03  0.00000000000E+00 0. -1.
         23    2    1    2    0    0 -0.39604283504E+01 -0.54501201170E+01 -0.12060864502E+03  0.15121348020E+03  0.90959785282E+02 0.  0.
         23    2    1    2    0    0  0.39604283504E+01  0.54501201170E+01 -0.12327863957E+03  0.15411084149E+03  0.92234156847E+02 0.  0.
          5    1    3    3  502    0 -0.25532331726E+02 -0.32059203046E+02 -0.10587785279E+03  0.11363055124E+03  0.47000000000E+01 0. -1.
         -5    1    3    3    0  502  0.21571903375E+02  0.26609082929E+02 -0.14730792228E+02  0.37582928959E+02  0.47000000000E+01 0.  1.
          5    1    4    4  503    0 -0.29204644554E+02 -0.31053913844E+02 -0.59701668679E+02  0.73509428454E+02  0.47000000000E+01 0. -1.
         -5    1    4    4    0  503  0.33165072904E+02  0.36504033961E+02 -0.63576970890E+02  0.80601413038E+02  0.47000000000E+01 0.  1.
<mgrwt>
<rscale>  0 0.92160496E+02</rscale>
<asrwt>0</asrwt>
<pdfrwt beam="1">  1        1 0.42247048E-01 0.92479882E+02</pdfrwt>
<pdfrwt beam="2">  1       -1 0.47259258E-02 0.92479882E+02</pdfrwt>
<totfact> 0.16929437E+04</totfact>
</mgrwt>
</event>
<event>
 8    1  0.5224537E-004  0.1652789E+03  0.7546771E-02  0.1190325E+00
          3   -1    0    0  501    0  0.00000000000E+00  0.00000000000E+00  0.11661187903E+03  0.11661187903E+03  0.00000000000E+00 0. -1.
         -3   -1    0    0    0  501 -0.00000000000E+00 -0.00000000000E+00 -0.21171508860E+03  0.21171508860E+03  0.00000000000E+00 0.  1.
         23    2    1    2    0    0  0.29984043223E+02 -0.10232725701E+03 -0.12484701577E+02  0.16574978929E+03  0.12628228103E+03 0.  0.
         23    2    1    2    0    0 -0.29984043223E+02  0.10232725701E+03 -0.82618507999E+02  0.16257717834E+03  0.90750265430E+02 0.  0.
          5    1    3    3  502    0  0.45760236776E+02 -0.86953822774E+02 -0.58546457300E+02  0.11447595480E+03  0.47000000000E+01 0. -1.
         -5    1    3    3    0  502 -0.15776193553E+02 -0.15373434239E+02  0.46061755724E+02  0.51273834494E+02  0.47000000000E+01 0.  1.
          5    1    4    4  503    0  0.15085934812E+01  0.55594661234E+02  0.73678350240E+01  0.56297577256E+02  0.47000000000E+01 0. -1.
         -5    1    4    4    0  503 -0.31492636705E+02  0.46732595780E+02 -0.89986343023E+02  0.10627960108E+03  0.47000000000E+01 0.  1.
<mgrwt>
<rscale>  0 0.15856613E+03</rscale>
<asrwt>0</asrwt>
<pdfrwt beam="1">  1        3 0.17940289E-01 0.16527893E+03</pdfrwt>
<pdfrwt beam="2">  1       -3 0.32571552E-01 0.16527893E+03</pdfrwt>
<totfact> 0.59576285E+02</totfact>
</mgrwt>
</event>
<event>
 8    1  0.5224537E-004  0.1275400E+03  0.7546771E-02  0.1231341E+00
         -1   -1    0    0    0  501 -0.00000000000E+00  0.00000000000E+00  0.13906566627E+03  0.13906566627E+03  0.00000000000E+00 0.  1.
          1   -1    0    0  501    0  0.00000000000E+00 -0.00000000000E+00 -0.17251459189E+03  0.17251459189E+03  0.00000000000E+00 0. -1.
         23    2    1    2    0    0  0.66984229298E+01 -0.90010127042E+02  0.72013226301E+02  0.14646626491E+03  0.90109767250E+02 0.  0.
         23    2    1    2    0    0 -0.66984229298E+01  0.90010127042E+02 -0.10546215192E+03  0.16511399324E+03  0.89407345543E+02 0.  0.
          5    1    3    3  502    0 -0.30214636326E+02 -0.24847536297E+01  0.76213750962E+01  0.31611289237E+02  0.47000000000E+01 0. -1.
         -5    1    4    4    0  503 -0.24334963283E+02  0.43650680555E+02 -0.19485445877E+01  0.50234044003E+02  0.47000000000E+01 0.  1.
          5    1    4    4  503    0  0.17636540353E+02  0.46359446487E+02 -0.10351360733E+03  0.11487994924E+03  0.47000000000E+01 0. -1.
         -5    1    3    3    0  502  0.36913059256E+02 -0.87525373413E+02  0.64391851205E+02  0.11485497567E+03  0.47000000000E+01 0.  1.
<mgrwt>
<rscale>  0 0.12741603E+03</rscale>
<asrwt>0</asrwt>
<pdfrwt beam="1">  1        1 0.26540706E-01 0.12754004E+03</pdfrwt>
<pdfrwt beam="2">  1       -1 0.21394718E-01 0.12754004E+03</pdfrwt>
<totfact> 0.30791880E+03</totfact>
</mgrwt>
</event>
<event>
 8    1  0.5224537E-004  0.9627077E+02  0.7546771E-02  0.1289635E+00
          1   -1    0    0  501    0  0.00000000000E+00  0.00000000000E+00  0.63922232054E+02  0.63922232054E+02  0.00000000000E+00 0. -1.
         -1   -1    0    0    0  501 -0.00000000000E+00 -0.00000000000E+00 -0.14152919931E+03  0.14152919931E+03  0.00000000000E+00 0.  1.
         23    2    1    2    0    0 -0.42864072814E+01  0.28233780330E+02 -0.38058647395E+02  0.10137390961E+03  0.89513626159E+02 0.  0.
         23    2    1    2    0    0  0.42864072814E+01 -0.28233780330E+02 -0.39548319859E+02  0.10407752176E+03  0.91937703321E+02 0.  0.
          5    1    3    3  502    0  0.23667766345E+02  0.49341640839E+02 -0.90824138357E+01  0.55671724651E+02  0.47000000000E+01 0. -1.
         -5    1    4    4    0  503 -0.35999904959E+02 -0.32421222168E+01  0.73972711871E+01  0.37192931244E+02  0.47000000000E+01 0.  1.
          5    1    4    4  503    0  0.40286312240E+02 -0.24991658113E+02 -0.46945591046E+02  0.66884590511E+02  0.47000000000E+01 0. -1.
         -5    1    3    3    0  502 -0.27954173627E+02 -0.21107860509E+02 -0.28976233559E+02  0.45702184956E+02  0.47000000000E+01 0.  1.
<mgrwt>
<rscale>  0 0.95687433E+02</rscale>
<asrwt>0</asrwt>
<pdfrwt beam="1">  1        1 0.98341897E-02 0.96270769E+02</pdfrwt>
<pdfrwt beam="2">  1       -1 0.21773723E-01 0.96270769E+02</pdfrwt>
<totfact> 0.10459682E+04</totfact>
</mgrwt>
</event>
<event>
 8    1  0.5224537E-004  0.1039807E+03  0.7546771E-02  0.1272411E+00
          1   -1    0    0  501    0  0.00000000000E+00  0.00000000000E+00  0.30586912372E+03  0.30586912372E+03  0.00000000000E+00 0. -1.
         -1   -1    0    0    0  501 -0.00000000000E+00 -0.00000000000E+00 -0.85770285953E+02  0.85770285953E+02  0.00000000000E+00 0.  1.
         23    2    1    2    0    0 -0.77017223857E+01 -0.50120059998E+02  0.26057907886E+03  0.28055915293E+03  0.90777998506E+02 0.  0.
         23    2    1    2    0    0  0.77017223857E+01  0.50120059998E+02 -0.40480241092E+02  0.11108025674E+03  0.90160060876E+02 0.  0.
          5    1    3    3  502    0  0.39189615520E+02 -0.71779900955E+01  0.10687310252E+03  0.11415471759E+03  0.47000000000E+01 0. -1.
         -5    1    4    4    0  503 -0.30390687034E+02  0.56598425250E+02 -0.27638302124E+02  0.70092377214E+02  0.47000000000E+01 0.  1.
          5    1    4    4  503    0  0.38092409420E+02 -0.64783652522E+01 -0.12841938968E+02  0.40987879528E+02  0.47000000000E+01 0. -1.
         -5    1    3    3    0  502 -0.46891337906E+02 -0.42942069902E+02  0.15370597634E+03  0.16640443534E+03  0.47000000000E+01 0.  1.
<mgrwt>
<rscale>  0 0.10384566E+03</rscale>
<asrwt>0</asrwt>
<pdfrwt beam="1">  1        1 0.47056788E-01 0.10398068E+03</pdfrwt>
<pdfrwt beam="2">  1       -1 0.13195429E-01 0.10398068E+03</pdfrwt>
<totfact> 0.32193203E+03</totfact>
</mgrwt>
</event>
<event>
 8    1  0.5224537E-004  0.1080630E+03  0.7546771E-02  0.1265101E+00
          4   -1    0    0  501    0  0.00000000000E+00  0.00000000000E+00  0.11014671092E+04  0.11014671092E+04  0.00000000000E+00 0. -1.
         -4   -1    0    0    0  501 -0.00000000000E+00 -0.00000000000E+00 -0.14581410939E+02  0.14581410939E+02  0.00000000000E+00 0.  1.
         23    2    1    2    0    0  0.21044709449E+02 -0.52611233917E+02  0.84503149847E+03  0.85191305176E+03  0.92015175970E+02 0.  0.
         23    2    1    2    0    0 -0.21044709449E+02  0.52611233917E+02  0.24185419982E+03  0.26413546841E+03  0.89795712451E+02 0.  0.
          5    1    3    3  502    0  0.29223582096E+02 -0.76689247881E+02  0.64298671614E+03  0.64822007499E+03  0.47000000000E+01 0. -1.
         -5    1    3    3    0  502 -0.81788726473E+01  0.24078013964E+02  0.20204478234E+03  0.20369297676E+03  0.47000000000E+01 0.  1.
          5    1    4    4  503    0 -0.17599194248E+02 -0.23541164408E+02  0.71062137975E+02  0.77044373666E+02  0.47000000000E+01 0. -1.
         -5    1    4    4    0  503 -0.34455152007E+01  0.76152398326E+02  0.17079206184E+03  0.18709109475E+03  0.47000000000E+01 0.  1.
<mgrwt>
<rscale>  0 0.10758903E+03</rscale>
<asrwt>0</asrwt>
<pdfrwt beam="1">  1        4 0.16945641E+00 0.10806301E+03</pdfrwt>
<pdfrwt beam="2">  1       -4 0.22432949E-02 0.10806301E+03</pdfrwt>
<totfact> 0.31511497E+02</totfact>
</mgrwt>
</event>
<event>
 8    1  0.5224537E-004  0.9506438E+02  0.7546771E-02  0.1291211E+00
         -1   -1    0    0    0  501 -0.00000000000E+00  0.00000000000E+00  0.33599096255E+02  0.33599096255E+02  0.00000000000E+00 0.  1.
          1   -1    0    0  501    0  0.00000000000E+00 -0.00000000000E+00 -0.41380850714E+03  0.41380850714E+03  0.00000000000E+00 0. -1.
         23    2    1    2    0    0 -0.50962324637E+01 -0.15995506227E+02 -0.57141427921E+02  0.11064335531E+03  0.93246884588E+02 0.  0.
         23    2    1    2    0    0  0.50962324637E+01  0.15995506227E+02 -0.32306798296E+03  0.33676424808E+03  0.93570344475E+02 0.  0.
          5    1    3    3  502    0  0.43623726831E+02 -0.86699344444E+01 -0.32978129470E+02  0.55568375262E+02  0.47000000000E+01 0. -1.
         -5    1    4    4    0  503  0.14676915318E+02 -0.29699882349E+02 -0.53204786186E+02  0.62851683573E+02  0.47000000000E+01 0.  1.
          5    1    4    4  503    0 -0.95806828539E+01  0.45695388576E+02 -0.26986319678E+03  0.27391256451E+03  0.47000000000E+01 0. -1.
         -5    1    3    3    0  502 -0.48719959295E+02 -0.73255717827E+01 -0.24163298450E+02  0.55074980051E+02  0.47000000000E+01 0.  1.
<mgrwt>
<rscale>  0 0.94984694E+02</rscale>
<asrwt>0</asrwt>
<pdfrwt beam="1">  1        1 0.63662846E-01 0.95064384E+02</pdfrwt>
<pdfrwt beam="2">  1       -1 0.51690918E-02 0.95064384E+02</pdfrwt>
<totfact> 0.89865215E+03</totfact>
</mgrwt>
</event>
<event>
 8    1  0.5224537E-004  0.1053576E+03  0.7546771E-02  0.1270078E+00
          2   -1    0    0  501    0  0.00000000000E+00  0.00000000000E+00  0.39629128961E+03  0.39629128961E+03  0.00000000000E+00 0. -1.
         -2   -1    0    0    0  501 -0.00000000000E+00 -0.00000000000E+00 -0.31547741179E+02  0.31547741179E+02  0.00000000000E+00 0.  1.
         23    2    1    2    0    0 -0.37144581078E+02 -0.40193843315E+02  0.10620904803E+03  0.14866111979E+03  0.88456213524E+02 0.  0.
         23    2    1    2    0    0  0.37144581078E+02  0.40193843315E+02  0.25853450041E+03  0.27917791100E+03  0.90027513273E+02 0.  0.
          5    1    4    4  502    0  0.12246159035E+02  0.21354078470E+02  0.24245129772E+03  0.24374307548E+03  0.47000000000E+01 0. -1.
         -5    1    4    4    0  502  0.24898422043E+02  0.18839764845E+02  0.16083202685E+02  0.35434835519E+02  0.47000000000E+01 0.  1.
          5    1    3    3  503    0  0.27467687066E+02 -0.23999591683E+02  0.31136933622E+02  0.48187683790E+02  0.47000000000E+01 0. -1.
         -5    1    3    3    0  503 -0.64612268144E+02 -0.16194251633E+02  0.75072114405E+02  0.10047343600E+03  0.47000000000E+01 0.  1.
<mgrwt>
<rscale>  0 0.10502110E+03</rscale>
<asrwt>0</asrwt>
<pdfrwt beam="1">  1        2 0.60967887E-01 0.10535757E+03</pdfrwt>
<pdfrwt beam="2">  1       -2 0.48534989E-02 0.10535757E+03</pdfrwt>
<totfact> 0.15227276E+04</totfact>
</mgrwt>
</event>
<event>
 8    1  0.5224537E-004  0.9706192E+02  0.7546771E-02  0.1286863E+00
         -1   -1    0    0    0  501 -0.00000000000E+00  0.00000000000E+00  0.41905087747E+02  0.41905087747E+02  0.00000000000E+00 0.  1.
          1   -1    0    0  501    0  0.00000000000E+00 -0.00000000000E+00 -0.22598788608E+03  0.22598788608E+03  0.00000000000E+00 0. -1.
         23    2    1    2    0    0  0.84243575693E+01 -0.34530028620E+02 -0.78799564266E+02  0.12502155148E+03  0.90320121396E+02 0.  0.
         23    2    1    2    0    0 -0.84243575693E+01  0.34530028620E+02 -0.10528323406E+03  0.14287142234E+03  0.89801955829E+02 0.  0.
          5    1    3    3  502    0 -0.32745382527E+02 -0.34999650265E+02 -0.17938278258E+02  0.51391705774E+02  0.47000000000E+01 0. -1.
         -5    1    3    3    0  502  0.41169740097E+02  0.46962164488E+00 -0.60861286009E+02  0.73629845706E+02  0.47000000000E+01 0.  1.
          5    1    4    4  503    0 -0.43023440810E+02 -0.14538968548E-01 -0.70355703830E+02  0.82601644850E+02  0.47000000000E+01 0. -1.
         -5    1    4    4    0  503  0.34599083241E+02  0.34544567588E+02 -0.34927530234E+02  0.60269777494E+02  0.47000000000E+01 0.  1.
<mgrwt>
<rscale>  0 0.96941202E+02</rscale>
<asrwt>0</asrwt>
<pdfrwt beam="1">  1        1 0.34767367E-01 0.97061924E+02</pdfrwt>
<pdfrwt beam="2">  1       -1 0.64469365E-02 0.97061924E+02</pdfrwt>
<totfact> 0.13670940E+04</totfact>
</mgrwt>
</event>
<event>
 8    1  0.5224537E-004  0.9446302E+02  0.7546771E-02  0.1292865E+00
         -2   -1    0    0    0  501 -0.00000000000E+00  0.00000000000E+00  0.76381900503E+02  0.76381900503E+02  0.00000000000E+00 0.  1.
          2   -1    0    0  501    0  0.00000000000E+00 -0.00000000000E+00 -0.11583290253E+03  0.11583290253E+03  0.00000000000E+00 0. -1.
         23    2    1    2    0    0 -0.23467888611E+01 -0.22637274676E+02 -0.17916832074E+02  0.95328359744E+02  0.90821416401E+02 0.  0.
         23    2    1    2    0    0  0.23467888611E+01  0.22637274676E+02 -0.21534169954E+02  0.96886443290E+02  0.91680471176E+02 0.  0.
          5    1    4    4  502    0 -0.17941380032E+02 -0.17403307862E+02 -0.40586719768E+02  0.47897182208E+02  0.47000000000E+01 0. -1.
         -5    1    3    3    0  503  0.13719071795E+01  0.28333590729E+02 -0.31084612477E+02  0.42344038845E+02  0.47000000000E+01 0.  1.
          5    1    3    3  503    0 -0.37186960406E+01 -0.50970865405E+02  0.13167780403E+02  0.52984320899E+02  0.47000000000E+01 0. -1.
         -5    1    4    4    0  502  0.20288168893E+02  0.40040582538E+02  0.19052549814E+02  0.48989261082E+02  0.47000000000E+01 0.  1.
<mgrwt>
<rscale>  0 0.94253948E+02</rscale>
<asrwt>0</asrwt>
<pdfrwt beam="1">  1        2 0.17820447E-01 0.94463021E+02</pdfrwt>
<pdfrwt beam="2">  1       -2 0.11751062E-01 0.94463021E+02</pdfrwt>
<totfact> 0.14630623E+04</totfact>
</mgrwt>
</event>
<event>
 8    1  0.5224537E-004  0.1024724E+03  0.7546771E-02  0.1275187E+00
         -1   -1    0    0    0  501 -0.00000000000E+00  0.00000000000E+00  0.15188361082E+02  0.15188361082E+02  0.00000000000E+00 0.  1.
          1   -1    0    0  501    0  0.00000000000E+00 -0.00000000000E+00 -0.69253396601E+03  0.69253396601E+03  0.00000000000E+00 0. -1.
         23    2    1    2    0    0  0.43786750462E+00  0.45879011602E+02 -0.32359794957E+03  0.33943168517E+03  0.91614193739E+02 0.  0.
         23    2    1    2    0    0 -0.43786750462E+00 -0.45879011602E+02 -0.35374765536E+03  0.36829064193E+03  0.91627058374E+02 0.  0.
          5    1    4    4  502    0  0.33989951654E+02 -0.37951773917E+02 -0.29630500503E+03  0.30068987340E+03  0.47000000000E+01 0. -1.
         -5    1    4    4    0  502 -0.34427819158E+02 -0.79272376851E+01 -0.57442650327E+02  0.67600768530E+02  0.47000000000E+01 0.  1.
          5    1    3    3  503    0  0.37805394883E+02  0.10939821175E+02 -0.67882726115E+02  0.78607137554E+02  0.47000000000E+01 0. -1.
         -5    1    3    3    0  503 -0.37367527378E+02  0.34939190427E+02 -0.25571522346E+03  0.26082454761E+03  0.47000000000E+01 0.  1.
<mgrwt>
<rscale>  0 0.10246953E+03</rscale>
<asrwt>0</asrwt>
<pdfrwt beam="1">  1        1 0.10654369E+00 0.10247240E+03</pdfrwt>
<pdfrwt beam="2">  1       -1 0.23366709E-02 0.10247240E+03</pdfrwt>
<totfact> 0.14534409E+04</totfact>
</mgrwt>
</event>
<event>
 8    1  0.5224537E-004  0.9724820E+02  0.7546771E-02  0.1286831E+00
          1   -1    0    0  501    0  0.00000000000E+00  0.00000000000E+00  0.51626703927E+03  0.51626703927E+03  0.00000000000E+00 0. -1.
         -1   -1    0    0    0  501 -0.00000000000E+00 -0.00000000000E+00 -0.18237109109E+02  0.18237109109E+02  0.00000000000E+00 0.  1.
         23    2    1    2    0    0 -0.20115832938E+02  0.26623983080E+02  0.27071664563E+03  0.28726227908E+03  0.90103449172E+02 0.  0.
         23    2    1    2    0    0  0.20115832938E+02 -0.26623983080E+02  0.22731328453E+03  0.24724186930E+03  0.91344016767E+02 0.  0.
          5    1    3    3  502    0  0.12498750326E+02 -0.28693376089E+02  0.85010897404E+02  0.90710921440E+02  0.47000000000E+01 0. -1.
         -5    1    3    3    0  502 -0.32614583264E+02  0.55317359169E+02  0.18570574823E+03  0.19655135764E+03  0.47000000000E+01 0.  1.
          5    1    4    4  503    0 -0.11498166422E+02 -0.35723165403E+02  0.20188664021E+03  0.20539877768E+03  0.47000000000E+01 0. -1.
         -5    1    4    4    0  503  0.31613999361E+02  0.90991823230E+01  0.25426644321E+02  0.41843091615E+02  0.47000000000E+01 0.  1.
<mgrwt>
<rscale>  0 0.96955808E+02</rscale>
<asrwt>0</asrwt>
<pdfrwt beam="1">  1        1 0.79425687E-01 0.97248201E+02</pdfrwt>
<pdfrwt beam="2">  1       -1 0.28057095E-02 0.97248201E+02</pdfrwt>
<totfact> 0.16516114E+04</totfact>
</mgrwt>
</event>
<event>
 8    1  0.5224537E-004  0.1198530E+03  0.7546771E-02  0.1243468E+00
         -1   -1    0    0    0  501 -0.00000000000E+00  0.00000000000E+00  0.19206648680E+03  0.19206648680E+03  0.00000000000E+00 0.  1.
          1   -1    0    0  501    0  0.00000000000E+00 -0.00000000000E+00 -0.16435475346E+03  0.16435475346E+03  0.00000000000E+00 0. -1.
         23    2    1    2    0    0 -0.58278107626E+02 -0.52367043419E+02  0.14554498338E+03  0.18834559753E+03  0.90288852349E+02 0.  0.
         23    2    1    2    0    0  0.58278107626E+02  0.52367043419E+02 -0.11783325004E+03  0.16807564272E+03  0.90697859941E+02 0.  0.
          5    1    4    4  502    0  0.70107641318E+02  0.36049089526E+02 -0.12352458692E+03  0.14661184059E+03  0.47000000000E+01 0. -1.
         -5    1    3    3    0  503 -0.21358815410E+02 -0.73539345875E+02  0.94083476819E+02  0.12140026770E+03  0.47000000000E+01 0.  1.
          5    1    3    3  503    0 -0.36919292215E+02  0.21172302456E+02  0.51461506561E+02  0.66945329834E+02  0.47000000000E+01 0. -1.
         -5    1    4    4    0  502 -0.11829533693E+02  0.16317953893E+02  0.56913368826E+01  0.21463802136E+02  0.47000000000E+01 0.  1.
<mgrwt>
<rscale>  0 0.11977564E+03</rscale>
<asrwt>0</asrwt>
<pdfrwt beam="1">  1        1 0.25285347E-01 0.11985302E+03</pdfrwt>
<pdfrwt beam="2">  1       -1 0.29548690E-01 0.11985302E+03</pdfrwt>
<totfact> 0.19205955E+03</totfact>
</mgrwt>
</event>
<event>
 8    1  0.5224537E-004  0.1008045E+03  0.7546771E-02  0.1279387E+00
         -2   -1    0    0    0  501 -0.00000000000E+00  0.00000000000E+00  0.10140406818E+03  0.10140406818E+03  0.00000000000E+00 0.  1.
          2   -1    0    0  501    0  0.00000000000E+00 -0.00000000000E+00 -0.12589840815E+03  0.12589840815E+03  0.00000000000E+00 0. -1.
         23    2    1    2    0    0  0.35834726913E+02  0.17332286709E+02 -0.64953843237E+02  0.11868151072E+03  0.91004194515E+02 0.  0.
         23    2    1    2    0    0 -0.35834726913E+02 -0.17332286709E+02  0.40459503270E+02  0.10862096562E+03  0.92612131774E+02 0.  0.
          5    1    4    4  502    0 -0.54368053121E+02  0.16374232686E+02  0.69623790754E+01  0.57398305015E+02  0.47000000000E+01 0. -1.
         -5    1    3    3    0  503  0.39275906619E+02  0.51080847716E+02 -0.36832823681E+02  0.74367981985E+02  0.47000000000E+01 0.  1.
          5    1    3    3  503    0 -0.34411797059E+01 -0.33748561007E+02 -0.28121019556E+02  0.44313528732E+02  0.47000000000E+01 0. -1.
         -5    1    4    4    0  502  0.18533326208E+02 -0.33706519395E+02  0.33497124194E+02  0.51222660604E+02  0.47000000000E+01 0.  1.
<mgrwt>
<rscale>  0 0.10043363E+03</rscale>
<asrwt>0</asrwt>
<pdfrwt beam="1">  1        2 0.19368986E-01 0.10080448E+03</pdfrwt>
<pdfrwt beam="2">  1       -2 0.15600626E-01 0.10080448E+03</pdfrwt>
<totfact> 0.85054943E+03</totfact>
</mgrwt>
</event>
<event>
 8    1  0.5224537E-004  0.9225977E+02  0.7546771E-02  0.1297939E+00
          1   -1    0    0  501    0  0.00000000000E+00  0.00000000000E+00  0.33219512578E+03  0.33219512578E+03  0.00000000000E+00 0. -1.
         -1   -1    0    0    0  501 -0.00000000000E+00 -0.00000000000E+00 -0.47503454552E+02  0.47503454552E+02  0.00000000000E+00 0.  1.
         23    2    1    2    0    0  0.62334530076E+01  0.16823779646E+02  0.13180745081E+02  0.93196554030E+02  0.90498453822E+02 0.  0.
         23    2    1    2    0    0 -0.62334530076E+01 -0.16823779646E+02  0.27151092615E+03  0.28650202631E+03  0.89684628337E+02 0.  0.
          5    1    4    4  502    0 -0.41470777708E+02 -0.95551052955E+01  0.21587127905E+03  0.22007640618E+03  0.47000000000E+01 0. -1.
         -5    1    4    4    0  502  0.35237324700E+02 -0.72686743508E+01  0.55639647103E+02  0.66425620122E+02  0.47000000000E+01 0.  1.
          5    1    3    3  503    0  0.23779291318E+02  0.72244668699E+01  0.47145360248E+02  0.53501613153E+02  0.47000000000E+01 0. -1.
         -5    1    3    3    0  503 -0.17545838310E+02  0.95993127764E+01 -0.33964615167E+02  0.39694940876E+02  0.47000000000E+01 0.  1.
<mgrwt>
<rscale>  0 0.92059584E+02</rscale>
<asrwt>0</asrwt>
<pdfrwt beam="1">  1        1 0.51106941E-01 0.92259773E+02</pdfrwt>
<pdfrwt beam="2">  1       -1 0.73082240E-02 0.92259773E+02</pdfrwt>
<totfact> 0.70558112E+03</totfact>
</mgrwt>
</event>
<event>
 8    1  0.5224537E-004  0.9589418E+02  0.7546771E-02  0.1291613E+00
          2   -1    0    0  501    0  0.00000000000E+00  0.00000000000E+00  0.11631539302E+04  0.11631539302E+04  0.00000000000E+00 0. -1.
         -2   -1    0    0    0  501 -0.00000000000E+00 -0.00000000000E+00 -0.81717870478E+01  0.81717870478E+01  0.00000000000E+00 0.  1.
         23    2    1    2    0    0  0.23448809611E+02  0.29842402072E+02  0.42908144119E+03  0.43966643740E+03  0.88064052625E+02 0.  0.
         23    2    1    2    0    0 -0.23448809611E+02 -0.29842402072E+02  0.72590070193E+03  0.73165927982E+03  0.83384992960E+02 0.  0.
          5    1    4    4  502    0  0.25749609480E+02 -0.32681920504E+02  0.35917892769E+03  0.36161131400E+03  0.47000000000E+01 0. -1.
         -5    1    3    3    0  503 -0.30250174368E+02  0.12570829946E+02  0.89970390722E+02  0.95863757601E+02  0.47000000000E+01 0.  1.
          5    1    3    3  503    0  0.53698983979E+02  0.17271572126E+02  0.33911105047E+03  0.34380267980E+03  0.47000000000E+01 0. -1.
         -5    1    4    4    0  502 -0.49198419091E+02  0.28395184322E+01  0.36672177424E+03  0.37004796582E+03  0.47000000000E+01 0.  1.
<mgrwt>
<rscale>  0 0.94806232E+02</rscale>
<asrwt>0</asrwt>
<pdfrwt beam="1">  1        2 0.17894663E+00 0.95894176E+02</pdfrwt>
<pdfrwt beam="2">  1       -2 0.12571989E-02 0.95894176E+02</pdfrwt>
<totfact> 0.29599048E+04</totfact>
</mgrwt>
</event>
<event>
 8    1  0.5224537E-004  0.9166829E+02  0.7546771E-02  0.1301632E+00
          2   -1    0    0  501    0  0.00000000000E+00  0.00000000000E+00  0.31917409614E+03  0.31917409614E+03  0.00000000000E+00 0. -1.
         -2   -1    0    0    0  501 -0.00000000000E+00 -0.00000000000E+00 -0.34204373245E+02  0.34204373245E+02  0.00000000000E+00 0.  1.
         23    2    1    2    0    0 -0.84858802040E+01  0.10412390845E+02  0.23661498979E+03  0.25375131355E+03  0.90678816083E+02 0.  0.
         23    2    1    2    0    0  0.84858802040E+01 -0.10412390845E+02  0.48354733102E+02  0.99627155837E+02  0.86063708501E+02 0.  0.
          5    1    3    3  502    0 -0.28250519660E+02  0.11902435019E+00  0.22737844480E+03  0.22917494014E+03  0.47000000000E+01 0. -1.
         -5    1    4    4    0  503  0.31192972981E+02  0.23005012198E+02  0.43836575052E+02  0.58702363342E+02  0.47000000000E+01 0.  1.
          5    1    4    4  503    0 -0.22707092777E+02 -0.33417403044E+02  0.45181580500E+01  0.40924792495E+02  0.47000000000E+01 0. -1.
         -5    1    3    3    0  502  0.19764639456E+02  0.10293366495E+02  0.92365449975E+01  0.24576373413E+02  0.47000000000E+01 0.  1.
<mgrwt>
<rscale>  0 0.90505694E+02</rscale>
<asrwt>0</asrwt>
<pdfrwt beam="1">  1        2 0.49103705E-01 0.91668292E+02</pdfrwt>
<pdfrwt beam="2">  1       -2 0.52622115E-02 0.91668292E+02</pdfrwt>
<totfact> 0.16726106E+04</totfact>
</mgrwt>
</event>
<event>
 8    1  0.5224537E-004  0.1604438E+03  0.7546771E-02  0.1188930E+00
         -1   -1    0    0    0  501 -0.00000000000E+00  0.00000000000E+00  0.26118765563E+03  0.26118765563E+03  0.00000000000E+00 0.  1.
          1   -1    0    0  501    0  0.00000000000E+00 -0.00000000000E+00 -0.14217593027E+03  0.14217593027E+03  0.00000000000E+00 0. -1.
         23    2    1    2    0    0 -0.25979357855E+02 -0.12883232962E+03 -0.54535477248E+02  0.16701457263E+03  0.87447429947E+02 0.  0.
         23    2    1    2    0    0  0.25979357855E+02  0.12883232962E+03  0.17354720261E+03  0.23634901326E+03  0.92030040455E+02 0.  0.
          5    1    3    3  502    0 -0.34601696113E+02 -0.23029744517E+02 -0.43234807734E+02  0.60158001182E+02  0.47000000000E+01 0. -1.
         -5    1    3    3    0  502  0.86223382580E+01 -0.10580258510E+03 -0.11300669513E+02  0.10685657145E+03  0.47000000000E+01 0.  1.
          5    1    4    4  503    0 -0.15585624253E+02  0.18427057723E+02  0.85785450863E+02  0.89239574851E+02  0.47000000000E+01 0. -1.
         -5    1    4    4    0  503  0.41564982108E+02  0.11040527189E+03  0.87761751752E+02  0.14710943841E+03  0.47000000000E+01 0.  1.
<mgrwt>
<rscale>  0 0.15979391E+03</rscale>
<asrwt>0</asrwt>
<pdfrwt beam="1">  1        1 0.21873220E-01 0.16044384E+03</pdfrwt>
<pdfrwt beam="2">  1       -1 0.40182716E-01 0.16044384E+03</pdfrwt>
<totfact> 0.13744170E+03</totfact>
</mgrwt>
</event>
<event>
 8    1  0.5224537E-004  0.1126542E+03  0.7546771E-02  0.1256042E+00
          1   -1    0    0  501    0  0.00000000000E+00  0.00000000000E+00  0.28235587897E+03  0.28235587897E+03  0.00000000000E+00 0. -1.
         -1   -1    0    0    0  501 -0.00000000000E+00 -0.00000000000E+00 -0.66741245236E+02  0.66741245236E+02  0.00000000000E+00 0.  1.
         23    2    1    2    0    0 -0.53854985270E+02 -0.40414361455E+02  0.20795691079E+03  0.23618297743E+03  0.89457487294E+02 0.  0.
         23    2    1    2    0    0  0.53854985270E+02  0.40414361455E+02  0.76577229452E+01  0.11291414678E+03  0.90317682494E+02 0.  0.
          5    1    4    4  502    0  0.17355121635E+02  0.15909416761E+02  0.47611907998E+02  0.53322542811E+02  0.47000000000E+01 0. -1.
         -5    1    4    4    0  502  0.36499863635E+02  0.24504944695E+02 -0.39954185053E+02  0.59591603965E+02  0.47000000000E+01 0.  1.
          5    1    3    3  503    0 -0.19837780158E+01 -0.51955378786E+02  0.14237046622E+03  0.15164015435E+03  0.47000000000E+01 0. -1.
         -5    1    3    3    0  503 -0.51871207254E+02  0.11541017331E+02  0.65586444569E+02  0.84542823079E+02  0.47000000000E+01 0.  1.
<mgrwt>
<rscale>  0 0.11248167E+03</rscale>
<asrwt>0</asrwt>
<pdfrwt beam="1">  1        1 0.43439365E-01 0.11265418E+03</pdfrwt>
<pdfrwt beam="2">  1       -1 0.10267884E-01 0.11265418E+03</pdfrwt>
<totfact> 0.52387696E+03</totfact>
</mgrwt>
</event>
<event>
 8    1  0.5224537E-004  0.2718355E+03  0.7546771E-02  0.1100414E+00
         -1   -1    0    0    0  501 -0.00000000000E+00  0.00000000000E+00  0.36006640033E+03  0.36006640033E+03  0.00000000000E+00 0.  1.
          1   -1    0    0  501    0  0.00000000000E+00 -0.00000000000E+00 -0.22260511458E+03  0.22260511458E+03  0.00000000000E+00 0. -1.
         23    2    1    2    0    0 -0.83561110412E+02 -0.23995674428E+03  0.15220293287E+03  0.31043653958E+03  0.92969963079E+02 0.  0.
         23    2    1    2    0    0  0.83561110412E+02  0.23995674428E+03 -0.14741647110E+02  0.27223497533E+03  0.96606766510E+02 0.  0.
          5    1    3    3  502    0 -0.50924977258E+02 -0.46222792802E+02  0.14417099722E+02  0.70426150310E+02  0.47000000000E+01 0. -1.
         -5    1    3    3    0  502 -0.32636133155E+02 -0.19373395148E+03  0.13778583314E+03  0.24001038927E+03  0.47000000000E+01 0.  1.
          5    1    4    4  503    0  0.95378949246E+02  0.13510305567E+03  0.98756352979E+00  0.16544801266E+03  0.47000000000E+01 0. -1.
         -5    1    4    4    0  503 -0.11817838833E+02  0.10485368861E+03 -0.15729210640E+02  0.10678696268E+03  0.47000000000E+01 0.  1.
<mgrwt>
<rscale>  0 0.27151721E+03</rscale>
<asrwt>0</asrwt>
<pdfrwt beam="1">  1        1 0.34246941E-01 0.27183555E+03</pdfrwt>
<pdfrwt beam="2">  1       -1 0.55394831E-01 0.27183555E+03</pdfrwt>
<totfact> 0.43555109E+02</totfact>
</mgrwt>
</event>
<event>
 8    1  0.5224537E-004  0.9084605E+02  0.7546771E-02  0.1311620E+00
          1   -1    0    0  501    0  0.00000000000E+00  0.00000000000E+00  0.70645008202E+03  0.70645008202E+03  0.00000000000E+00 0. -1.
         -1   -1    0    0    0  501 -0.00000000000E+00 -0.00000000000E+00 -0.11817832409E+02  0.11817832409E+02  0.00000000000E+00 0.  1.
         23    2    1    2    0    0  0.70281116919E+01 -0.36052735659E+01  0.47131210033E+03  0.47717686673E+03  0.74163831304E+02 0.  0.
         23    2    1    2    0    0 -0.70281116919E+01  0.36052735659E+01  0.22332014928E+03  0.24109104770E+03  0.90501999169E+02 0.  0.
          5    1    3    3  502    0  0.36689613404E+02  0.26663760686E+01  0.35333907740E+03  0.35527993317E+03  0.47000000000E+01 0. -1.
         -5    1    3    3    0  502 -0.29661501712E+02 -0.62716496345E+01  0.11797302293E+03  0.12189693356E+03  0.47000000000E+01 0.  1.
          5    1    4    4  503    0 -0.58150069937E+01  0.43991347921E+02  0.74775040482E+02  0.87077262689E+02  0.47000000000E+01 0. -1.
         -5    1    4    4    0  503 -0.12131046982E+01 -0.40386074355E+02  0.14854510880E+03  0.15401378501E+03  0.47000000000E+01 0.  1.
<mgrwt>
<rscale>  0 0.86474866E+02</rscale>
<asrwt>0</asrwt>
<pdfrwt beam="1">  1        1 0.10868459E+00 0.90846047E+02</pdfrwt>
<pdfrwt beam="2">  1       -1 0.18181286E-02 0.90846047E+02</pdfrwt>
<totfact> 0.20018192E+04</totfact>
</mgrwt>
</event>
<event>
 8    1  0.5224537E-004  0.1453818E+03  0.7546771E-02  0.1206499E+00
         -3   -1    0    0    0  501 -0.00000000000E+00  0.00000000000E+00  0.14090282943E+03  0.14090282943E+03  0.00000000000E+00 0.  1.
          3   -1    0    0  501    0  0.00000000000E+00 -0.00000000000E+00 -0.16400323930E+03  0.16400323930E+03  0.00000000000E+00 0. -1.
         23    2    1    2    0    0  0.35002898324E+02  0.10610499908E+03 -0.57294592236E+02  0.15626433431E+03  0.93018267876E+02 0.  0.
         23    2    1    2    0    0 -0.35002898324E+02 -0.10610499908E+03  0.34194182368E+02  0.14864173442E+03  0.91878448957E+02 0.  0.
          5    1    3    3  502    0 -0.17175448822E+02  0.77092701242E+02 -0.95932880054E+01  0.79701956072E+02  0.47000000000E+01 0. -1.
         -5    1    3    3    0  502  0.52178347146E+02  0.29012297833E+02 -0.47701304231E+02  0.76562378240E+02  0.47000000000E+01 0.  1.
          5    1    4    4  503    0 -0.49952554297E+02 -0.58292341931E+02 -0.14902272861E+02  0.78341703741E+02  0.47000000000E+01 0. -1.
         -5    1    4    4    0  503  0.14949655973E+02 -0.47812657145E+02  0.49096455229E+02  0.70300030676E+02  0.47000000000E+01 0.  1.
<mgrwt>
<rscale>  0 0.14519982E+03</rscale>
<asrwt>0</asrwt>
<pdfrwt beam="1">  1        3 0.25231268E-01 0.14538181E+03</pdfrwt>
<pdfrwt beam="2">  1       -3 0.21677358E-01 0.14538181E+03</pdfrwt>
<totfact> 0.67118803E+02</totfact>
</mgrwt>
</event>
<event>
 8    1  0.5224537E-004  0.1023980E+03  0.7546771E-02  0.1275933E+00
          2   -1    0    0  501    0  0.00000000000E+00  0.00000000000E+00  0.24131721203E+03  0.24131721203E+03  0.00000000000E+00 0. -1.
         -2   -1    0    0    0  501 -0.00000000000E+00 -0.00000000000E+00 -0.43065591961E+02  0.43065591961E+02  0.00000000000E+00 0.  1.
         23    2    1    2    0    0 -0.14887433591E+02  0.44434772627E+02  0.91343196960E+02  0.13634644856E+03  0.89725635732E+02 0.  0.
         23    2    1    2    0    0  0.14887433591E+02 -0.44434772627E+02  0.10690842311E+03  0.14803635543E+03  0.91045411194E+02 0.  0.
          5    1    3    3  502    0 -0.24541922485E+02 -0.56604266481E+01 -0.60268275757E+01  0.26320316102E+02  0.47000000000E+01 0. -1.
         -5    1    4    4    0  503  0.47874939274E+02 -0.30394094164E+02  0.93536196794E+02  0.10948479749E+03  0.47000000000E+01 0. -1.
          5    1    4    4  503    0 -0.32987505683E+02 -0.14040678463E+02  0.13372226313E+02  0.38551557938E+02  0.47000000000E+01 0.  1.
         -5    1    3    3    0  502  0.96544888935E+01  0.50095199275E+02  0.97370024536E+02  0.11002613246E+03  0.47000000000E+01 0.  1.
<mgrwt>
<rscale>  0 0.10210383E+03</rscale>
<asrwt>0</asrwt>
<pdfrwt beam="1">  1        2 0.37125724E-01 0.10239801E+03</pdfrwt>
<pdfrwt beam="2">  1       -2 0.66254758E-02 0.10239801E+03</pdfrwt>
<totfact> 0.16042514E+04</totfact>
</mgrwt>
</event>
<event>
 8    1  0.5224537E-004  0.9656760E+02  0.7546771E-02  0.1287990E+00
          1   -1    0    0  501    0  0.00000000000E+00  0.00000000000E+00  0.19930959329E+03  0.19930959329E+03  0.00000000000E+00 0. -1.
         -1   -1    0    0    0  501 -0.00000000000E+00 -0.00000000000E+00 -0.76682996312E+02  0.76682996312E+02  0.00000000000E+00 0.  1.
         23    2    1    2    0    0  0.23441463919E+02 -0.17929007526E+02 -0.25340209685E+02  0.99302249273E+02  0.91366618315E+02 0.  0.
         23    2    1    2    0    0 -0.23441463919E+02  0.17929007526E+02  0.14796680666E+03  0.17669034033E+03  0.91947533678E+02 0.  0.
          5    1    3    3  502    0  0.49495873983E+02  0.16626905919E+02 -0.12130625325E+02  0.53810199893E+02  0.47000000000E+01 0. -1.
         -5    1    3    3    0  502 -0.26054410064E+02 -0.34555913446E+02 -0.13209584360E+02  0.45492049380E+02  0.47000000000E+01 0.  1.
          5    1    4    4  503    0 -0.56142785927E+02  0.15312512046E+02  0.11951073079E+03  0.13300898545E+03  0.47000000000E+01 0. -1.
         -5    1    4    4    0  503  0.32701322007E+02  0.26164954807E+01  0.28456075867E+02  0.43681354871E+02  0.47000000000E+01 0.  1.
<mgrwt>
<rscale>  0 0.96429058E+02</rscale>
<asrwt>0</asrwt>
<pdfrwt beam="1">  1        1 0.30663014E-01 0.96567595E+02</pdfrwt>
<pdfrwt beam="2">  1       -1 0.11797384E-01 0.96567595E+02</pdfrwt>
<totfact> 0.64316685E+03</totfact>
</mgrwt>
</event>
<event>
 8    1  0.5224537E-004  0.8947181E+02  0.7546771E-02  0.1307223E+00
          4   -1    0    0  501    0  0.00000000000E+00  0.00000000000E+00  0.33712057870E+02  0.33712057870E+02  0.00000000000E+00 0. -1.
         -4   -1    0    0    0  501 -0.00000000000E+00 -0.00000000000E+00 -0.29266443703E+03  0.29266443703E+03  0.00000000000E+00 0.  1.
         23    2    1    2    0    0  0.40313517037E+01  0.24079054273E+02 -0.48007678892E+02  0.97241442621E+02  0.80963623185E+02 0.  0.
         23    2    1    2    0    0 -0.40313517037E+01 -0.24079054273E+02 -0.21094470027E+03  0.22913505228E+03  0.86076436731E+02 0.  0.
          5    1    4    4  502    0  0.31780205957E+02 -0.38593550294E+02 -0.10896380252E+03  0.11997768074E+03  0.47000000000E+01 0. -1.
         -5    1    4    4    0  502 -0.35811557660E+02  0.14514496021E+02 -0.10198089775E+03  0.10915737154E+03  0.47000000000E+01 0.  1.
          5    1    3    3  503    0  0.33564946891E+01 -0.24328098721E+02  0.47850066735E+01  0.25457979748E+02  0.47000000000E+01 0. -1.
         -5    1    3    3    0  503  0.67485701462E+00  0.48407152993E+02 -0.52792685565E+02  0.71783462873E+02  0.47000000000E+01 0.  1.
<mgrwt>
<rscale>  0 0.88218923E+02</rscale>
<asrwt>0</asrwt>
<pdfrwt beam="1">  1        4 0.51864706E-02 0.89471815E+02</pdfrwt>
<pdfrwt beam="2">  1       -4 0.45025297E-01 0.89471815E+02</pdfrwt>
<totfact> 0.16093839E+03</totfact>
</mgrwt>
</event>
<event>
 8    1  0.5224537E-004  0.1017477E+03  0.7546771E-02  0.1276675E+00
         -1   -1    0    0    0  501 -0.00000000000E+00  0.00000000000E+00  0.17015434681E+03  0.17015434681E+03  0.00000000000E+00 0.  1.
          1   -1    0    0  501    0  0.00000000000E+00 -0.00000000000E+00 -0.76852668686E+02  0.76852668686E+02  0.00000000000E+00 0. -1.
         23    2    1    2    0    0 -0.30299228504E+02  0.33336694420E+02 -0.97394355798E+01  0.10221276002E+03  0.91231646174E+02 0.  0.
         23    2    1    2    0    0  0.30299228504E+02 -0.33336694420E+02  0.10304111370E+03  0.14479425547E+03  0.91205958475E+02 0.  0.
          5    1    3    3  502    0 -0.10435089118E+02  0.58160756094E+02 -0.27663598125E+02  0.65413525326E+02  0.47000000000E+01 0. -1.
         -5    1    4    4    0  503  0.41315755143E+02 -0.53664562867E+02  0.43197117702E+02  0.80467123153E+02  0.47000000000E+01 0.  1.
          5    1    4    4  503    0 -0.11016526640E+02  0.20327868447E+02  0.59843996001E+02  0.64327132318E+02  0.47000000000E+01 0. -1.
         -5    1    3    3    0  502 -0.19864139386E+02 -0.24824061673E+02  0.17924162545E+02  0.36799234699E+02  0.47000000000E+01 0.  1.
<mgrwt>
<rscale>  0 0.10174193E+03</rscale>
<asrwt>0</asrwt>
<pdfrwt beam="1">  1        1 0.11823487E-01 0.10174769E+03</pdfrwt>
<pdfrwt beam="2">  1       -1 0.26177592E-01 0.10174769E+03</pdfrwt>
<totfact> 0.61276141E+03</totfact>
</mgrwt>
</event>
<event>
 8    1  0.5224537E-004  0.1400914E+03  0.7546771E-02  0.1214545E+00
          1   -1    0    0  501    0  0.00000000000E+00  0.00000000000E+00  0.27611227306E+03  0.27611227306E+03  0.00000000000E+00 0. -1.
         -1   -1    0    0    0  501 -0.00000000000E+00 -0.00000000000E+00 -0.16712425046E+03  0.16712425046E+03  0.00000000000E+00 0.  1.
         23    2    1    2    0    0  0.81533381071E+02  0.65268401337E+02  0.22389348747E+03  0.26204917753E+03  0.87371741806E+02 0.  0.
         23    2    1    2    0    0 -0.81533381071E+02 -0.65268401337E+02 -0.11490546488E+03  0.18118734600E+03  0.93369866931E+02 0.  0.
          5    1    3    3  502    0  0.86643996972E+01  0.62224297072E+02  0.99098191325E+02  0.11742860168E+03  0.47000000000E+01 0. -1.
         -5    1    4    4    0  503 -0.69494436098E+02 -0.13640664628E+02 -0.22333512781E+02  0.74407124478E+02  0.47000000000E+01 0.  1.
          5    1    4    4  503    0 -0.12038944974E+02 -0.51627736709E+02 -0.92571952096E+02  0.10678022152E+03  0.47000000000E+01 0. -1.
         -5    1    3    3    0  502  0.72868981374E+02  0.30441042646E+01  0.12479529615E+03  0.14462057585E+03  0.47000000000E+01 0.  1.
<mgrwt>
<rscale>  0 0.13909981E+03</rscale>
<asrwt>0</asrwt>
<pdfrwt beam="1">  1        1 0.42478811E-01 0.14009136E+03</pdfrwt>
<pdfrwt beam="2">  1       -1 0.25711423E-01 0.14009136E+03</pdfrwt>
<totfact> 0.12777114E+03</totfact>
</mgrwt>
</event>
<event>
 8    1  0.5224537E-004  0.1100647E+03  0.7546771E-02  0.1262227E+00
          2   -1    0    0  501    0  0.00000000000E+00  0.00000000000E+00  0.10415006605E+04  0.10415006605E+04  0.00000000000E+00 0. -1.
         -2   -1    0    0    0  501 -0.00000000000E+00 -0.00000000000E+00 -0.12830500168E+02  0.12830500168E+02  0.00000000000E+00 0.  1.
         23    2    1    2    0    0 -0.10383903104E+02  0.54627864478E+02  0.32070072983E+03  0.33785718785E+03  0.90589691720E+02 0.  0.
         23    2    1    2    0    0  0.10383903104E+02 -0.54627864478E+02  0.70796943055E+03  0.71647397286E+03  0.94985315616E+02 0.  0.
          5    1    4    4  502    0  0.41471923110E+02  0.55247250155E+01  0.25714631757E+03  0.26057007049E+03  0.47000000000E+01 0. -1.
         -5    1    3    3    0  503 -0.41057778819E+02  0.61620963095E+02  0.21270254260E+03  0.22527171577E+03  0.47000000000E+01 0.  1.
          5    1    3    3  503    0  0.30673875715E+02 -0.69930986169E+01  0.10799818723E+03  0.11258547208E+03  0.47000000000E+01 0. -1.
         -5    1    4    4    0  502 -0.31088020006E+02 -0.60152589493E+02  0.45082311297E+03  0.45590390237E+03  0.47000000000E+01 0.  1.
<mgrwt>
<rscale>  0 0.10910980E+03</rscale>
<asrwt>0</asrwt>
<pdfrwt beam="1">  1        2 0.16023080E+00 0.11006470E+03</pdfrwt>
<pdfrwt beam="2">  1       -2 0.19739239E-02 0.11006470E+03</pdfrwt>
<totfact> 0.18372411E+04</totfact>
</mgrwt>
</event>
<event>
 8    1  0.5224537E-004  0.1043098E+03  0.7546771E-02  0.1272833E+00
         -1   -1    0    0    0  501 -0.00000000000E+00  0.00000000000E+00  0.79156937501E+02  0.79156937501E+02  0.00000000000E+00 0.  1.
          1   -1    0    0  501    0  0.00000000000E+00 -0.00000000000E+00 -0.13513856444E+03  0.13513856444E+03  0.00000000000E+00 0. -1.
         23    2    1    2    0    0  0.15779160976E+02  0.42693972738E+02 -0.18320020990E+02  0.10590637994E+03  0.93855105952E+02 0.  0.
         23    2    1    2    0    0 -0.15779160976E+02 -0.42693972738E+02 -0.37661605945E+02  0.10838912200E+03  0.90873802473E+02 0.  0.
          5    1    4    4  502    0  0.19052632845E+02  0.10911656352E+02  0.13653277542E+02  0.26278680529E+02  0.47000000000E+01 0.  1.
         -5    1    3    3    0  503 -0.11216372646E+02  0.51617338917E+02  0.21101522047E+02  0.57074696013E+02  0.47000000000E+01 0.  1.
          5    1    3    3  503    0  0.26995533622E+02 -0.89233661793E+01 -0.39421543037E+02  0.48831683925E+02  0.47000000000E+01 0. -1.
         -5    1    4    4    0  502 -0.34831793821E+02 -0.53605629090E+02 -0.51314883488E+02  0.82110441469E+02  0.47000000000E+01 0. -1.
<mgrwt>
<rscale>  0 0.10363475E+03</rscale>
<asrwt>0</asrwt>
<pdfrwt beam="1">  1        1 0.20790548E-01 0.10430982E+03</pdfrwt>
<pdfrwt beam="2">  1       -1 0.12177991E-01 0.10430982E+03</pdfrwt>
<totfact> 0.99935482E+03</totfact>
</mgrwt>
</event>
<event>
 8    1  0.5224537E-004  0.1047829E+03  0.7546771E-02  0.1273833E+00
         -2   -1    0    0    0  501 -0.00000000000E+00  0.00000000000E+00  0.27803351776E+02  0.27803351776E+02  0.00000000000E+00 0.  1.
          2   -1    0    0  501    0  0.00000000000E+00 -0.00000000000E+00 -0.43552431850E+03  0.43552431850E+03  0.00000000000E+00 0. -1.
         23    2    1    2    0    0  0.13771685490E+02 -0.34643449237E+02 -0.29845721290E+03  0.31631656321E+03  0.97926668137E+02 0.  0.
         23    2    1    2    0    0 -0.13771685490E+02  0.34643449237E+02 -0.10926375382E+03  0.14701110707E+03  0.91015766795E+02 0.  0.
          5    1    3    3  502    0  0.50196120897E+02 -0.31941171379E+02 -0.11909102708E+03  0.13320905267E+03  0.47000000000E+01 0. -1.
         -5    1    3    3    0  502 -0.36424435408E+02 -0.27022778574E+01 -0.17936618582E+03  0.18310751054E+03  0.47000000000E+01 0.  1.
          5    1    4    4  503    0  0.16102780134E+02  0.57526911539E+02 -0.74062087679E+02  0.95267664560E+02  0.47000000000E+01 0. -1.
         -5    1    4    4    0  503 -0.29874465623E+02 -0.22883462302E+02 -0.35201666145E+02  0.51743442508E+02  0.47000000000E+01 0.  1.
<mgrwt>
<rscale>  0 0.10313758E+03</rscale>
<asrwt>0</asrwt>
<pdfrwt beam="1">  1        2 0.67003734E-01 0.10478292E+03</pdfrwt>
<pdfrwt beam="2">  1       -2 0.42774392E-02 0.10478292E+03</pdfrwt>
<totfact> 0.16608446E+04</totfact>
</mgrwt>
</event>
<event>
 8    1  0.5224537E-004  0.1059909E+03  0.7546771E-02  0.1271626E+00
          1   -1    0    0  501    0  0.00000000000E+00  0.00000000000E+00  0.77949132472E+03  0.77949132472E+03  0.00000000000E+00 0. -1.
         -1   -1    0    0    0  501 -0.00000000000E+00 -0.00000000000E+00 -0.15087915715E+02  0.15087915715E+02  0.00000000000E+00 0.  1.
         23    2    1    2    0    0 -0.35632827547E+02 -0.14011915846E+02  0.24188559566E+03  0.26141984875E+03  0.91464002472E+02 0.  0.
         23    2    1    2    0    0  0.35632827547E+02  0.14011915846E+02  0.52251781335E+03  0.53315939169E+03  0.98833392605E+02 0.  0.
          5    1    4    4  502    0  0.17826769275E+02  0.54199508770E+02  0.36859462472E+03  0.37301403167E+03  0.47000000000E+01 0. -1.
         -5    1    3    3    0  503  0.23911306661E+02 -0.11694150737E+01  0.20837791314E+02  0.32084601676E+02  0.47000000000E+01 0.  1.
          5    1    3    3  503    0 -0.59544134208E+02 -0.12842500773E+02  0.22104780434E+03  0.22933524707E+03  0.47000000000E+01 0. -1.
         -5    1    4    4    0  502  0.17806058272E+02 -0.40187592924E+02  0.15392318863E+03  0.16014536001E+03  0.47000000000E+01 0.  1.
<mgrwt>
<rscale>  0 0.10423894E+03</rscale>
<asrwt>0</asrwt>
<pdfrwt beam="1">  1        1 0.11992171E+00 0.10599090E+03</pdfrwt>
<pdfrwt beam="2">  1       -1 0.23212184E-02 0.10599090E+03</pdfrwt>
<totfact> 0.12408524E+04</totfact>
</mgrwt>
</event>
<event>
 8    1  0.5224537E-004  0.1021685E+03  0.7546771E-02  0.1275872E+00
          1   -1    0    0  501    0  0.00000000000E+00  0.00000000000E+00  0.42437718321E+03  0.42437718321E+03  0.00000000000E+00 0. -1.
         -1   -1    0    0    0  501 -0.00000000000E+00 -0.00000000000E+00 -0.66020770807E+02  0.66020770807E+02  0.00000000000E+00 0.  1.
         23    2    1    2    0    0  0.30310073140E+02 -0.33054341860E+02 -0.15170222713E+02  0.10315056513E+03  0.91643948955E+02 0.  0.
         23    2    1    2    0    0 -0.30310073140E+02  0.33054341860E+02  0.37352663511E+03  0.38724738888E+03  0.91799253854E+02 0.  0.
          5    1    4    4  502    0 -0.66251604984E+01 -0.27545495214E+02  0.19643400668E+03  0.19852218022E+03  0.47000000000E+01 0. -1.
         -5    1    3    3    0  503 -0.19844687275E+02 -0.45673693272E+02 -0.94587171404E+01  0.50906337524E+02  0.47000000000E+01 0.  1.
          5    1    3    3  503    0  0.50154760415E+02  0.12619351413E+02 -0.57115055727E+01  0.52244227607E+02  0.47000000000E+01 0. -1.
         -5    1    4    4    0  502 -0.23684912642E+02  0.60599837074E+02  0.17709262843E+03  0.18872520866E+03  0.47000000000E+01 0.  1.
<mgrwt>
<rscale>  0 0.10213356E+03</rscale>
<asrwt>0</asrwt>
<pdfrwt beam="1">  1        1 0.65288796E-01 0.10216845E+03</pdfrwt>
<pdfrwt beam="2">  1       -1 0.10157042E-01 0.10216845E+03</pdfrwt>
<totfact> 0.31978736E+03</totfact>
</mgrwt>
</event>
<event>
 8    1  0.5224537E-004  0.1130410E+03  0.7546771E-02  0.1255161E+00
          2   -1    0    0  501    0  0.00000000000E+00  0.00000000000E+00  0.84421550503E+03  0.84421550503E+03  0.00000000000E+00 0. -1.
         -2   -1    0    0    0  501 -0.00000000000E+00 -0.00000000000E+00 -0.15554330138E+02  0.15554330138E+02  0.00000000000E+00 0.  1.
         23    2    1    2    0    0  0.35025927473E+02 -0.55598186060E+02  0.48731832718E+03  0.50019618571E+03  0.91646594643E+02 0.  0.
         23    2    1    2    0    0 -0.35025927473E+02  0.55598186060E+02  0.34134284771E+03  0.35957364945E+03  0.91979866322E+02 0.  0.
          5    1    4    4  502    0 -0.47490283472E+02 -0.77044109464E+01  0.14855965853E+03  0.15622658902E+03  0.47000000000E+01 0. -1.
         -5    1    3    3    0  503  0.36889537286E+02  0.51098789244E+01  0.31885232760E+03  0.32105427211E+03  0.47000000000E+01 0.  1.
          5    1    3    3  503    0 -0.18636098132E+01 -0.60708064984E+02  0.16846599958E+03  0.17914191360E+03  0.47000000000E+01 0. -1.
         -5    1    4    4    0  502  0.12464356000E+02  0.63302597006E+02  0.19278318918E+03  0.20334706044E+03  0.47000000000E+01 0.  1.
<mgrwt>
<rscale>  0 0.11297319E+03</rscale>
<asrwt>0</asrwt>
<pdfrwt beam="1">  1        2 0.12987927E+00 0.11304101E+03</pdfrwt>
<pdfrwt beam="2">  1       -2 0.23929745E-02 0.11304101E+03</pdfrwt>
<totfact> 0.18391346E+04</totfact>
</mgrwt>
</event>
<event>
 8    1  0.5224537E-004  0.1226259E+03  0.7546771E-02  0.1240000E+00
          1   -1    0    0  501    0  0.00000000000E+00  0.00000000000E+00  0.24856212368E+02  0.24856212368E+02  0.00000000000E+00 0. -1.
         -1   -1    0    0    0  501 -0.00000000000E+00 -0.00000000000E+00 -0.63956432932E+03  0.63956432932E+03  0.00000000000E+00 0.  1.
         23    2    1    2    0    0 -0.24262826895E+02 -0.77462143493E+02 -0.39570126652E+03  0.41342030191E+03  0.88021504547E+02 0.  0.
         23    2    1    2    0    0  0.24262826895E+02  0.77462143493E+02 -0.21900685042E+03  0.25100023977E+03  0.91913281895E+02 0.  0.
          5    1    3    3  502    0  0.24207357494E+02 -0.58219009498E+01 -0.40209728429E+02  0.47526865538E+02  0.47000000000E+01 0. -1.
         -5    1    3    3    0  502 -0.48470184389E+02 -0.71640242543E+02 -0.35549153809E+03  0.36589343637E+03  0.47000000000E+01 0.  1.
          5    1    4    4  503    0  0.58632779532E+01  0.60533519299E+02 -0.46691765615E+02  0.76817289482E+02  0.47000000000E+01 0. -1.
         -5    1    4    4    0  503  0.18399548942E+02  0.16928624194E+02 -0.17231508481E+03  0.17418295029E+03  0.47000000000E+01 0.  1.
<mgrwt>
<rscale>  0 0.12189713E+03</rscale>
<asrwt>0</asrwt>
<pdfrwt beam="1">  1        1 0.38240330E-02 0.12262593E+03</pdfrwt>
<pdfrwt beam="2">  1       -1 0.98394505E-01 0.12262593E+03</pdfrwt>
<totfact> 0.24344910E+03</totfact>
</mgrwt>
</event>
<event>
 8    1  0.5224537E-004  0.1038673E+03  0.7546771E-02  0.1274200E+00
          1   -1    0    0  501    0  0.00000000000E+00  0.00000000000E+00  0.51770600295E+03  0.51770600295E+03  0.00000000000E+00 0. -1.
         -1   -1    0    0    0  501 -0.00000000000E+00 -0.00000000000E+00 -0.29517329199E+02  0.29517329199E+02  0.00000000000E+00 0.  1.
         23    2    1    2    0    0 -0.56660453264E-02  0.32692044452E+02  0.92688855264E+02  0.13921079805E+03  0.98588298506E+02 0.  0.
         23    2    1    2    0    0  0.56660453264E-02 -0.32692044452E+02  0.39549981849E+03  0.40801253410E+03  0.94791095322E+02 0.  0.
          5    1    4    4  502    0  0.25299016965E+02 -0.51585513197E+02  0.33171831564E+03  0.33669011919E+03  0.47000000000E+01 0. -1.
         -5    1    3    3    0  503 -0.35810559469E+02  0.45655084389E+02  0.79715002828E+02  0.98708432142E+02  0.47000000000E+01 0.  1.
          5    1    3    3  503    0  0.35804893424E+02 -0.12963039937E+02  0.12973852435E+02  0.40502365913E+02  0.47000000000E+01 0. -1.
         -5    1    4    4    0  502 -0.25293350920E+02  0.18893468745E+02  0.63781502849E+02  0.71322414903E+02  0.47000000000E+01 0.  1.
<mgrwt>
<rscale>  0 0.10295614E+03</rscale>
<asrwt>0</asrwt>
<pdfrwt beam="1">  1        1 0.79647070E-01 0.10386733E+03</pdfrwt>
<pdfrwt beam="2">  1       -1 0.45411280E-02 0.10386733E+03</pdfrwt>
<totfact> 0.82246177E+03</totfact>
</mgrwt>
</event>
<event>
 8    1  0.5224537E-004  0.9713138E+02  0.7546771E-02  0.1286509E+00
         -1   -1    0    0    0  501 -0.00000000000E+00  0.00000000000E+00  0.42246200283E+03  0.42246200283E+03  0.00000000000E+00 0.  1.
          1   -1    0    0  501    0  0.00000000000E+00 -0.00000000000E+00 -0.16039057156E+03  0.16039057156E+03  0.00000000000E+00 0. -1.
         23    2    1    2    0    0  0.40361218197E+01 -0.31496348393E+02  0.40142815368E+03  0.41298556494E+03  0.91674445994E+02 0.  0.
         23    2    1    2    0    0 -0.40361218197E+01  0.31496348393E+02 -0.13935672241E+03  0.16986700945E+03  0.91794305805E+02 0.  0.
          5    1    4    4  502    0 -0.44007953754E+02  0.31514060611E+02 -0.60377699459E+02  0.81224335034E+02  0.47000000000E+01 0. -1.
         -5    1    3    3    0  503 -0.39274743838E+02 -0.35657345961E+02  0.22078207834E+03  0.22711399768E+03  0.47000000000E+01 0.  1.
          5    1    3    3  503    0  0.43310865658E+02  0.41609975674E+01  0.18064607533E+03  0.18587156726E+03  0.47000000000E+01 0. -1.
         -5    1    4    4    0  502  0.39971831934E+02 -0.17712217885E-01 -0.78979022946E+02  0.88642674415E+02  0.47000000000E+01 0.  1.
<mgrwt>
<rscale>  0 0.97103050E+02</rscale>
<asrwt>0</asrwt>
<pdfrwt beam="1">  1        1 0.24675473E-01 0.97131379E+02</pdfrwt>
<pdfrwt beam="2">  1       -1 0.64994154E-01 0.97131379E+02</pdfrwt>
<totfact> 0.48497492E+02</totfact>
</mgrwt>
</event>
<event>
 8    1  0.5224537E-004  0.9907051E+02  0.7546771E-02  0.1283394E+00
         -1   -1    0    0    0  501 -0.00000000000E+00  0.00000000000E+00  0.55748054773E+03  0.55748054773E+03  0.00000000000E+00 0.  1.
          1   -1    0    0  501    0  0.00000000000E+00 -0.00000000000E+00 -0.35512675912E+02  0.35512675912E+02  0.00000000000E+00 0. -1.
         23    2    1    2    0    0  0.37198603222E+02 -0.15388716471E+02  0.47233328581E+03  0.48218456829E+03  0.88219478192E+02 0.  0.
         23    2    1    2    0    0 -0.37198603222E+02  0.15388716471E+02  0.49634586004E+02  0.11080865535E+03  0.90523020812E+02 0.  0.
          5    1    3    3  502    0  0.21569616460E+02 -0.44840308017E+02  0.15022144966E+03  0.15831764120E+03  0.47000000000E+01 0. -1.
         -5    1    4    4    0  503  0.35832364468E+00 -0.34149757152E+02  0.29270777552E+02  0.45223917652E+02  0.47000000000E+01 0.  1.
          5    1    4    4  503    0 -0.37556926866E+02  0.49538473623E+02  0.20363808452E+02  0.65584737700E+02  0.47000000000E+01 0. -1.
         -5    1    3    3    0  502  0.15628986762E+02  0.29451591546E+02  0.32211183615E+03  0.32386692709E+03  0.47000000000E+01 0.  1.
<mgrwt>
<rscale>  0 0.98541213E+02</rscale>
<asrwt>0</asrwt>
<pdfrwt beam="1">  1        1 0.54634890E-02 0.99070510E+02</pdfrwt>
<pdfrwt beam="2">  1       -1 0.85766232E-01 0.99070510E+02</pdfrwt>
<totfact> 0.19818450E+03</totfact>
</mgrwt>
</event>
<event>
 8    1  0.7069687E-004  0.9404588E+02  0.7546771E-02  0.1298438E+00
         -1   -1    0    0    0  501 -0.00000000000E+00  0.00000000000E+00  0.29410343841E+03  0.29410343841E+03  0.00000000000E+00 0.  1.
          1   -1    0    0  501    0  0.00000000000E+00 -0.00000000000E+00 -0.64642523754E+02  0.64642523754E+02  0.00000000000E+00 0. -1.
         23    2    1    2    0    0 -0.20057260604E+02  0.12668461388E+02 -0.23618486059E+02  0.88757423320E+02  0.82202577173E+02 0.  0.
         23    2    1    2    0    0  0.20057260604E+02 -0.12668461388E+02  0.25307940072E+03  0.26998853885E+03  0.91004639571E+02 0.  0.
          5    1    4    4  502    0  0.38512838589E+02  0.84097208233E+01  0.45123977132E+02  0.60101792426E+02  0.47000000000E+01 0. -1.
         -5    1    3    3    0  503 -0.29153856028E+02 -0.28109477249E+02 -0.22786320413E+02  0.46705421853E+02  0.47000000000E+01 0.  1.
          5    1    3    3  503    0  0.90965954239E+01  0.40777938637E+02 -0.83216564634E+00  0.42052001468E+02  0.47000000000E+01 0. -1.
         -5    1    4    4    0  502 -0.18455577985E+02 -0.21078182211E+02  0.20795542359E+03  0.20988674642E+03  0.47000000000E+01 0.  1.
<mgrwt>
<rscale>  0 0.91847867E+02</rscale>
<asrwt>0</asrwt>
<pdfrwt beam="1">  1        1 0.99450038E-02 0.94045883E+02</pdfrwt>
<pdfrwt beam="2">  1       -1 0.45246682E-01 0.94045883E+02</pdfrwt>
<totfact> 0.30130663E+03</totfact>
</mgrwt>
</event>
<event>
 8    1  0.5224537E-004  0.9669765E+02  0.7546771E-02  0.1287708E+00
         -2   -1    0    0    0  501 -0.00000000000E+00  0.00000000000E+00  0.26728114927E+03  0.26728114927E+03  0.00000000000E+00 0.  1.
          2   -1    0    0  501    0  0.00000000000E+00 -0.00000000000E+00 -0.43655322410E+02  0.43655322410E+02  0.00000000000E+00 0. -1.
         23    2    1    2    0    0 -0.22176404040E+02  0.23028201960E+02  0.18165170927E+03  0.20552175497E+03  0.90662877209E+02 0.  0.
         23    2    1    2    0    0  0.22176404040E+02 -0.23028201960E+02  0.41974117593E+02  0.10541471671E+03  0.91259766436E+02 0.  0.
          5    1    3    3  502    0  0.62659212603E+01 -0.21648089126E+02  0.87481234855E+01  0.24627651057E+02  0.47000000000E+01 0. -1.
         -5    1    4    4    0  503  0.49889444011E+02  0.11976455865E+02  0.26437627621E+02  0.57908809978E+02  0.47000000000E+01 0.  1.
          5    1    4    4  503    0 -0.27713039971E+02 -0.35004657825E+02  0.15536489972E+02  0.47505906733E+02  0.47000000000E+01 0. -1.
         -5    1    3    3    0  502 -0.28442325301E+02  0.44676291086E+02  0.17290358578E+03  0.18089410391E+03  0.47000000000E+01 0.  1.
<mgrwt>
<rscale>  0 0.96556564E+02</rscale>
<asrwt>0</asrwt>
<pdfrwt beam="1">  1        2 0.67162036E-02 0.96697652E+02</pdfrwt>
<pdfrwt beam="2">  1       -2 0.41120176E-01 0.96697652E+02</pdfrwt>
<totfact> 0.55469825E+03</totfact>
</mgrwt>
</event>
<event>
 8    1  0.5224537E-004  0.1015786E+03  0.7546771E-02  0.1278153E+00
         -1   -1    0    0    0  501 -0.00000000000E+00  0.00000000000E+00  0.38882131184E+02  0.38882131184E+02  0.00000000000E+00 0.  1.
          1   -1    0    0  501    0  0.00000000000E+00 -0.00000000000E+00 -0.27391855055E+03  0.27391855055E+03  0.00000000000E+00 0. -1.
         23    2    1    2    0    0  0.55149042011E+01 -0.38340871750E+02 -0.83069054722E+02  0.13121996012E+03  0.93903000308E+02 0.  0.
         23    2    1    2    0    0 -0.55149042011E+01  0.38340871750E+02 -0.15196736465E+03  0.18158072162E+03  0.91526181666E+02 0.  0.
          5    1    3    3  502    0  0.95296231803E+01 -0.58472540065E+02 -0.16908565677E+02  0.61788682239E+02  0.47000000000E+01 0. -1.
         -5    1    4    4    0  503 -0.20428931910E+02  0.64466123761E+02 -0.91443453387E+02  0.11382977440E+03  0.47000000000E+01 0.  1.
          5    1    4    4  503    0  0.14914027708E+02 -0.26125252011E+02 -0.60523911261E+02  0.67750947222E+02  0.47000000000E+01 0. -1.
         -5    1    3    3    0  502 -0.40147189793E+01  0.20131668315E+02 -0.66160489046E+02  0.69431277882E+02  0.47000000000E+01 0.  1.
<mgrwt>
<rscale>  0 0.10102582E+03</rscale>
<asrwt>0</asrwt>
<pdfrwt beam="1">  1        1 0.42141314E-01 0.10157859E+03</pdfrwt>
<pdfrwt beam="2">  1       -1 0.59818665E-02 0.10157859E+03</pdfrwt>
<totfact> 0.12118975E+04</totfact>
</mgrwt>
</event>
<event>
 8    1  0.5224537E-004  0.1038514E+03  0.7546771E-02  0.1276746E+00
          1   -1    0    0  501    0  0.00000000000E+00  0.00000000000E+00  0.19122186221E+03  0.19122186221E+03  0.00000000000E+00 0. -1.
         -1   -1    0    0    0  501 -0.00000000000E+00 -0.00000000000E+00 -0.61529276962E+02  0.61529276962E+02  0.00000000000E+00 0.  1.
         23    2    1    2    0    0  0.35908461738E+01 -0.48674025424E+02  0.17370208118E+02  0.10529405051E+03  0.91668195224E+02 0.  0.
         23    2    1    2    0    0 -0.35908461738E+01  0.48674025424E+02  0.11232237713E+03  0.14745708866E+03  0.82129298460E+02 0.  0.
          5    1    4    4  502    0  0.76405995349E+01  0.24337512566E+02  0.11700451750E+03  0.11984506829E+03  0.47000000000E+01 0. -1.
         -5    1    4    4    0  502 -0.11231445709E+02  0.24336512858E+02 -0.46821403628E+01  0.27612020375E+02  0.47000000000E+01 0.  1.
          5    1    3    3  503    0  0.40557397574E+02 -0.26317234878E+02  0.33427632871E+02  0.58966057940E+02  0.47000000000E+01 0. -1.
         -5    1    3    3    0  503 -0.36966551400E+02 -0.22356790546E+02 -0.16057424753E+02  0.46327992571E+02  0.47000000000E+01 0.  1.
<mgrwt>
<rscale>  0 0.10170725E+03</rscale>
<asrwt>0</asrwt>
<pdfrwt beam="1">  1        1 0.29418748E-01 0.10385140E+03</pdfrwt>
<pdfrwt beam="2">  1       -1 0.94660427E-02 0.10385140E+03</pdfrwt>
<totfact> 0.95114740E+03</totfact>
</mgrwt>
</event>
<event>
 8    1  0.5224537E-004  0.1109671E+03  0.7546771E-02  0.1258821E+00
          2   -1    0    0  501    0  0.00000000000E+00  0.00000000000E+00  0.69709444121E+03  0.69709444121E+03  0.00000000000E+00 0. -1.
         -2   -1    0    0    0  501 -0.00000000000E+00 -0.00000000000E+00 -0.29822493904E+02  0.29822493904E+02  0.00000000000E+00 0.  1.
         23    2    1    2    0    0 -0.96624906702E+01  0.60915893836E+02  0.56574898876E+03  0.57651546228E+03  0.92163171141E+02 0.  0.
         23    2    1    2    0    0  0.96624906702E+01 -0.60915893836E+02  0.10152295854E+03  0.15040147283E+03  0.92247396012E+02 0.  0.
          5    1    3    3  502    0 -0.31021142495E+02  0.76633157783E+02  0.45980395796E+03  0.46720094383E+03  0.47000000000E+01 0. -1.
         -5    1    4    4    0  503 -0.11086153279E+02 -0.78057131633E+02  0.54302879248E+02  0.95847333233E+02  0.47000000000E+01 0.  1.
          5    1    4    4  503    0  0.20748643949E+02  0.17141237797E+02  0.47220079290E+02  0.54554139596E+02  0.47000000000E+01 0. -1.
         -5    1    3    3    0  502  0.21358651825E+02 -0.15717263948E+02  0.10594503080E+03  0.10931451845E+03  0.47000000000E+01 0.  1.
<mgrwt>
<rscale>  0 0.11094957E+03</rscale>
<asrwt>0</asrwt>
<pdfrwt beam="1">  1        2 0.10724529E+00 0.11096708E+03</pdfrwt>
<pdfrwt beam="2">  1       -2 0.45880765E-02 0.11096708E+03</pdfrwt>
<totfact> 0.89132610E+03</totfact>
</mgrwt>
</event>
<event>
 8    1  0.5224537E-004  0.1076596E+03  0.7546771E-02  0.1265279E+00
         -1   -1    0    0    0  501 -0.00000000000E+00  0.00000000000E+00  0.50795962714E+03  0.50795962714E+03  0.00000000000E+00 0.  1.
          1   -1    0    0  501    0  0.00000000000E+00 -0.00000000000E+00 -0.34745056190E+02  0.34745056190E+02  0.00000000000E+00 0. -1.
         23    2    1    2    0    0 -0.87535210462E+01 -0.50075924673E+02  0.39698004195E+03  0.41131952208E+03  0.94901913453E+02 0.  0.
         23    2    1    2    0    0  0.87535210462E+01  0.50075924673E+02  0.76234529006E+02  0.13138516125E+03  0.94160155173E+02 0.  0.
          5    1    4    4  502    0 -0.35123024084E+02  0.47914820424E+02  0.27588230415E+02  0.65670825292E+02  0.47000000000E+01 0. -1.
         -5    1    4    4    0  502  0.43876545130E+02  0.21611042482E+01  0.48646298591E+02  0.65714335961E+02  0.47000000000E+01 0.  1.
          5    1    3    3  503    0 -0.31707833978E+02  0.65314138172E+01  0.55796569399E+02  0.64679156293E+02  0.47000000000E+01 0. -1.
         -5    1    3    3    0  503  0.22954312932E+02 -0.56607338490E+02  0.34118347255E+03  0.34664036579E+03  0.47000000000E+01 0.  1.
<mgrwt>
<rscale>  0 0.10749593E+03</rscale>
<asrwt>0</asrwt>
<pdfrwt beam="1">  1        1 0.53453936E-02 0.10765963E+03</pdfrwt>
<pdfrwt beam="2">  1       -1 0.78147630E-01 0.10765963E+03</pdfrwt>
<totfact> 0.24808587E+03</totfact>
</mgrwt>
</event>
<event>
 8    1  0.5224537E-004  0.2023089E+03  0.7546771E-02  0.1147829E+00
         -1   -1    0    0    0  501 -0.00000000000E+00  0.00000000000E+00  0.12973110564E+03  0.12973110564E+03  0.00000000000E+00 0.  1.
          1   -1    0    0  501    0  0.00000000000E+00 -0.00000000000E+00 -0.39416511150E+03  0.39416511150E+03  0.00000000000E+00 0. -1.
         23    2    1    2    0    0 -0.17859715859E+03  0.24596242358E+02 -0.24934648268E+03  0.32102551963E+03  0.91552147070E+02 0.  0.
         23    2    1    2    0    0  0.17859715859E+03 -0.24596242358E+02 -0.15087523171E+02  0.20287069751E+03  0.91798509569E+02 0.  0.
          5    1    3    3  502    0 -0.86785592948E+02 -0.99413387225E+01 -0.18204181323E+03  0.20197000056E+03  0.47000000000E+01 0. -1.
         -5    1    3    3    0  502 -0.91811565642E+02  0.34537581080E+02 -0.67304669449E+02  0.11905551907E+03  0.47000000000E+01 0.  1.
          5    1    4    4  503    0  0.61236947097E+02  0.43184976934E+01  0.36270784186E+02  0.71458189856E+02  0.47000000000E+01 0. -1.
         -5    1    4    4    0  503  0.11736021149E+03 -0.28914740051E+02 -0.51358307356E+02  0.13141250766E+03  0.47000000000E+01 0.  1.
<mgrwt>
<rscale>  0 0.20228097E+03</rscale>
<asrwt>0</asrwt>
<pdfrwt beam="1">  1        1 0.60640786E-01 0.20230889E+03</pdfrwt>
<pdfrwt beam="2">  1       -1 0.19958632E-01 0.20230889E+03</pdfrwt>
<totfact> 0.12456658E+03</totfact>
</mgrwt>
</event>
<event>
 8    1  0.5224537E-004  0.1050146E+03  0.7546771E-02  0.1270580E+00
         -3   -1    0    0    0  501 -0.00000000000E+00  0.00000000000E+00  0.13836379138E+03  0.13836379138E+03  0.00000000000E+00 0.  1.
          3   -1    0    0  501    0  0.00000000000E+00 -0.00000000000E+00 -0.82986477497E+02  0.82986477497E+02  0.00000000000E+00 0. -1.
         23    2    1    2    0    0  0.49310573749E+02 -0.83050482734E+01  0.34204966766E+01  0.10507024723E+03  0.92344737511E+02 0.  0.
         23    2    1    2    0    0 -0.49310573749E+02  0.83050482734E+01  0.51956817210E+02  0.11628002165E+03  0.91219658350E+02 0.  0.
          5    1    4    4  502    0 -0.23932427496E+02 -0.41109831116E+02  0.18456726574E+02  0.51239828806E+02  0.47000000000E+01 0. -1.
         -5    1    3    3    0  503  0.52696689278E+02 -0.38439427726E+02  0.22238498314E+02  0.69073666994E+02  0.47000000000E+01 0.  1.
          5    1    3    3  503    0 -0.33861155282E+01  0.30134379452E+02 -0.18818001637E+02  0.35996580240E+02  0.47000000000E+01 0. -1.
         -5    1    4    4    0  502 -0.25378146254E+02  0.49414879389E+02  0.33500090636E+02  0.65040192842E+02  0.47000000000E+01 0.  1.
<mgrwt>
<rscale>  0 0.10476669E+03</rscale>
<asrwt>0</asrwt>
<pdfrwt beam="1">  1        3 0.12767150E-01 0.10501456E+03</pdfrwt>
<pdfrwt beam="2">  1       -3 0.21286737E-01 0.10501456E+03</pdfrwt>
<totfact> 0.21456583E+03</totfact>
</mgrwt>
</event>
<event>
 8    1  0.5224537E-004  0.9722235E+02  0.7546771E-02  0.1286297E+00
         -2   -1    0    0    0  501 -0.00000000000E+00  0.00000000000E+00  0.79024048684E+02  0.79024048684E+02  0.00000000000E+00 0.  1.
          2   -1    0    0  501    0  0.00000000000E+00 -0.00000000000E+00 -0.20392100352E+03  0.20392100352E+03  0.00000000000E+00 0. -1.
         23    2    1    2    0    0  0.13278644100E+02 -0.29825864465E+02  0.28593963180E+02  0.10125397417E+03  0.91481407814E+02 0.  0.
         23    2    1    2    0    0 -0.13278644100E+02  0.29825864465E+02 -0.15349091802E+03  0.18169107803E+03  0.91576641900E+02 0.  0.
          5    1    3    3  502    0 -0.32407812043E+02 -0.82212223022E+00  0.33325508457E+02  0.46729237960E+02  0.47000000000E+01 0. -1.
         -5    1    4    4    0  503  0.38444997441E+02  0.86945661633E+01 -0.79453006772E+02  0.88817135701E+02  0.47000000000E+01 0.  1.
          5    1    4    4  503    0 -0.51723641541E+02  0.21131298301E+02 -0.74037911244E+02  0.92873942328E+02  0.47000000000E+01 0. -1.
         -5    1    3    3    0  502  0.45686456144E+02 -0.29003742234E+02 -0.47315452765E+01  0.54524736215E+02  0.47000000000E+01 0.  1.
<mgrwt>
<rscale>  0 0.97199921E+02</rscale>
<asrwt>0</asrwt>
<pdfrwt beam="1">  1        2 0.31372462E-01 0.97222353E+02</pdfrwt>
<pdfrwt beam="2">  1       -2 0.12157546E-01 0.97222353E+02</pdfrwt>
<totfact> 0.74675957E+03</totfact>
</mgrwt>
</event>
<event>
 8    1  0.5224537E-004  0.2056701E+03  0.7546771E-02  0.1145203E+00
         -1   -1    0    0    0  501 -0.00000000000E+00  0.00000000000E+00  0.33397237787E+03  0.33397237787E+03  0.00000000000E+00 0.  1.
          1   -1    0    0  501    0  0.00000000000E+00 -0.00000000000E+00 -0.12916872817E+03  0.12916872817E+03  0.00000000000E+00 0. -1.
         23    2    1    2    0    0 -0.43231299734E+02 -0.17885860449E+03  0.66930331613E+02  0.21553409969E+03  0.90088474079E+02 0.  0.
         23    2    1    2    0    0  0.43231299734E+02  0.17885860449E+03  0.13787331808E+03  0.24760700635E+03  0.91874001086E+02 0.  0.
          5    1    3    3  502    0  0.26332652544E+02 -0.56341027835E+02  0.32914627307E+02  0.70520796211E+02  0.47000000000E+01 0. -1.
         -5    1    4    4    0  503  0.20142986868E+02  0.26301478145E+02 -0.88766717365E+01  0.34617812954E+02  0.47000000000E+01 0.  1.
          5    1    4    4  503    0  0.23088312865E+02  0.15255712635E+03  0.14674998982E+03  0.21298919339E+03  0.47000000000E+01 0. -1.
         -5    1    3    3    0  502 -0.69563952278E+02 -0.12251757666E+03  0.34015704306E+02  0.14501330348E+03  0.47000000000E+01 0.  1.
<mgrwt>
<rscale>  0 0.20547194E+03</rscale>
<asrwt>0</asrwt>
<pdfrwt beam="1">  1        1 0.19872112E-01 0.20567007E+03</pdfrwt>
<pdfrwt beam="2">  1       -1 0.51380365E-01 0.20567007E+03</pdfrwt>
<totfact> 0.10018494E+03</totfact>
</mgrwt>
</event>
<event>
 8    1  0.5224537E-004  0.1334278E+03  0.7546771E-02  0.1223116E+00
         -3   -1    0    0    0  501 -0.00000000000E+00  0.00000000000E+00  0.82284298075E+02  0.82284298075E+02  0.00000000000E+00 0.  1.
          3   -1    0    0  501    0  0.00000000000E+00 -0.00000000000E+00 -0.25668596180E+03  0.25668596180E+03  0.00000000000E+00 0. -1.
         23    2    1    2    0    0 -0.56360200863E+02  0.75248914499E+02 -0.17110587788E+02  0.13270960367E+03  0.92087975959E+02 0.  0.
         23    2    1    2    0    0  0.56360200863E+02 -0.75248914499E+02 -0.15729107594E+03  0.20626065621E+03  0.94678954131E+02 0.  0.
          5    1    4    4  502    0  0.23442408963E+02 -0.19619991455E+02 -0.13379555477E+03  0.13732381833E+03  0.47000000000E+01 0. -1.
         -5    1    4    4    0  502  0.32917791900E+02 -0.55628923044E+02 -0.23495521168E+02  0.68936837885E+02  0.47000000000E+01 0.  1.
          5    1    3    3  503    0 -0.32724280131E+02 -0.16327686961E+02 -0.34161818438E+01  0.37030152174E+02  0.47000000000E+01 0. -1.
         -5    1    3    3    0  503 -0.23635920732E+02  0.91576601460E+02 -0.13694405944E+02  0.95679451493E+02  0.47000000000E+01 0.  1.
<mgrwt>
<rscale>  0 0.13296896E+03</rscale>
<asrwt>0</asrwt>
<pdfrwt beam="1">  1        3 0.39490148E-01 0.13342779E+03</pdfrwt>
<pdfrwt beam="2">  1       -3 0.12659123E-01 0.13342779E+03</pdfrwt>
<totfact> 0.72892701E+02</totfact>
</mgrwt>
</event>
<event>
 7    1  0.5224537E-004  0.1395527E+03  0.7546771E-02  0.1228869E+00
          1   -1    0    0  501    0  0.00000000000E+00  0.00000000000E+00  0.31661315848E+03  0.31661315848E+03  0.00000000000E+00 0. -1.
         -1   -1    0    0    0  501 -0.00000000000E+00 -0.00000000000E+00 -0.56029343048E+02  0.56029343048E+02  0.00000000000E+00 0.  1.
         23    2    1    2    0    0  0.18526869845E+02 -0.39268201384E+02  0.35978970214E+02  0.10821426844E+03  0.92361274625E+02 0.  0.
          5    1    3    3  502    0  0.76585288678E+01  0.26103823528E+02  0.31120704020E+02  0.41601092364E+02  0.47000000000E+01 0. -1.
         -5    1    1    2    0  503 -0.40715757351E+02 -0.79817382186E+01  0.92249484268E+01  0.42762959616E+02  0.47000000000E+01 0.  1.
          5    1    1    2  503    0  0.22188887506E+02  0.47249939603E+02  0.21537989679E+03  0.22166527347E+03  0.47000000000E+01 0. -1.
         -5    1    3    3    0  502  0.10868340977E+02 -0.65372024912E+02  0.48582661940E+01  0.66613176077E+02  0.47000000000E+01 0.  1.
<mgrwt>
<rscale>  0 0.12905221E+03</rscale>
<asrwt>0</asrwt>
<pdfrwt beam="1">  1        1 0.48709716E-01 0.13955269E+03</pdfrwt>
<pdfrwt beam="2">  1       -1 0.86198991E-02 0.13955269E+03</pdfrwt>
<totfact> 0.60110404E+03</totfact>
</mgrwt>
</event>
<event>
 8    1  0.5224537E-004  0.1328986E+03  0.7546771E-02  0.1223561E+00
         -1   -1    0    0    0  501 -0.00000000000E+00  0.00000000000E+00  0.36482800245E+02  0.36482800245E+02  0.00000000000E+00 0.  1.
          1   -1    0    0  501    0  0.00000000000E+00 -0.00000000000E+00 -0.49160961068E+03  0.49160961068E+03  0.00000000000E+00 0. -1.
         23    2    1    2    0    0 -0.87863987177E+02 -0.36827156104E+02 -0.26776470328E+03  0.29893137637E+03  0.92659116032E+02 0.  0.
         23    2    1    2    0    0  0.87863987177E+02  0.36827156104E+02 -0.18736210715E+03  0.22916103456E+03  0.91290201520E+02 0.  0.
          5    1    3    3  502    0 -0.44495432133E+02 -0.56702708594E+02 -0.21877333935E+03  0.23038859489E+03  0.47000000000E+01 0. -1.
         -5    1    4    4    0  503  0.31547301323E+02  0.39265806468E+02 -0.23441218956E+02  0.55754968608E+02  0.47000000000E+01 0.  1.
          5    1    4    4  503    0  0.56316685854E+02 -0.24386503638E+01 -0.16392088820E+03  0.17340606595E+03  0.47000000000E+01 0. -1.
         -5    1    3    3    0  502 -0.43368555044E+02  0.19875552490E+02 -0.48991363930E+02  0.68542781481E+02  0.47000000000E+01 0.  1.
<mgrwt>
<rscale>  0 0.13266024E+03</rscale>
<asrwt>0</asrwt>
<pdfrwt beam="1">  1        1 0.75632244E-01 0.13289858E+03</pdfrwt>
<pdfrwt beam="2">  1       -1 0.56127388E-02 0.13289858E+03</pdfrwt>
<totfact> 0.65417820E+03</totfact>
</mgrwt>
</event>
<event>
 8    1  0.5224537E-004  0.1012020E+03  0.7546771E-02  0.1278204E+00
          1   -1    0    0  501    0  0.00000000000E+00  0.00000000000E+00  0.14231880949E+03  0.14231880949E+03  0.00000000000E+00 0. -1.
         -1   -1    0    0    0  501 -0.00000000000E+00 -0.00000000000E+00 -0.42682273838E+03  0.42682273838E+03  0.00000000000E+00 0.  1.
         23    2    1    2    0    0 -0.26891830570E+01 -0.40296182365E+02 -0.40183883404E+03  0.41419214431E+03  0.91922085727E+02 0.  0.
         23    2    1    2    0    0  0.26891830570E+01  0.40296182365E+02  0.11733490515E+03  0.15494940356E+03  0.92794523970E+02 0.  0.
          5    1    3    3  502    0  0.31904366609E+01 -0.69312229225E+02 -0.25423943830E+03  0.26357948705E+03  0.47000000000E+01 0. -1.
         -5    1    4    4    0  503  0.17344375567E+02 -0.19666261409E+02  0.75943934586E+02  0.80480807663E+02  0.47000000000E+01 0.  1.
          5    1    4    4  503    0 -0.14655192510E+02  0.59962443774E+02  0.41390970562E+02  0.74468595898E+02  0.47000000000E+01 0. -1.
         -5    1    3    3    0  502 -0.58796197179E+01  0.29016046860E+02 -0.14759939574E+03  0.15061265726E+03  0.47000000000E+01 0.  1.
<mgrwt>
<rscale>  0 0.10100153E+03</rscale>
<asrwt>0</asrwt>
<pdfrwt beam="1">  1        1 0.21895202E-01 0.10120196E+03</pdfrwt>
<pdfrwt beam="2">  1       -1 0.65665035E-01 0.10120196E+03</pdfrwt>
<totfact> 0.55218255E+02</totfact>
</mgrwt>
</event>
<event>
 8    1  0.5224537E-004  0.1048806E+03  0.7546771E-02  0.1277202E+00
         -1   -1    0    0    0  501 -0.00000000000E+00  0.00000000000E+00  0.77693089927E+02  0.77693089927E+02  0.00000000000E+00 0.  1.
          1   -1    0    0  501    0  0.00000000000E+00 -0.00000000000E+00 -0.13574530396E+03  0.13574530396E+03  0.00000000000E+00 0. -1.
         23    2    1    2    0    0 -0.23304065168E+02  0.25695137054E+02  0.31592919861E+01  0.92002074733E+02  0.85153280076E+02 0.  0.
         23    2    1    2    0    0  0.23304065168E+02 -0.25695137054E+02 -0.61211506017E+02  0.12143631915E+03  0.98977833976E+02 0.  0.
          5    1    4    4  502    0 -0.34643349621E+02  0.10281247421E+02 -0.23417222643E+02  0.43316533077E+02  0.47000000000E+01 0. -1.
         -5    1    4    4    0  502  0.57947414789E+02 -0.35976384475E+02 -0.37794283374E+02  0.78119786075E+02  0.47000000000E+01 0.  1.
          5    1    3    3  503    0 -0.48534227881E+02 -0.80450713989E+01  0.41909123017E+01  0.49597864831E+02  0.47000000000E+01 0. -1.
         -5    1    3    3    0  503  0.25230162713E+02  0.33740208453E+02 -0.10316203155E+01  0.42404209903E+02  0.47000000000E+01 0.  1.
<mgrwt>
<rscale>  0 0.10148611E+03</rscale>
<asrwt>0</asrwt>
<pdfrwt beam="1">  1        1 0.20883893E-01 0.10488056E+03</pdfrwt>
<pdfrwt beam="2">  1       -1 0.11952783E-01 0.10488056E+03</pdfrwt>
<totfact> 0.10230794E+04</totfact>
</mgrwt>
</event>
<event>
 8    1  0.5224537E-004  0.8903596E+02  0.7546771E-02  0.1327287E+00
          3   -1    0    0  501    0  0.00000000000E+00  0.00000000000E+00  0.26449406158E+02  0.26449406158E+02  0.00000000000E+00 0. -1.
         -3   -1    0    0    0  501 -0.00000000000E+00 -0.00000000000E+00 -0.23846531916E+03  0.23846531916E+03  0.00000000000E+00 0.  1.
         23    2    1    2    0    0 -0.53281389777E+01 -0.62927698435E+01 -0.78933914956E+02  0.11898724645E+03  0.88653335364E+02 0.  0.
         23    2    1    2    0    0  0.53281389777E+01  0.62927698435E+01 -0.13308199805E+03  0.14592747887E+03  0.59296061140E+02 0.  0.
          5    1    4    4  502    0 -0.19234211038E+02  0.20194986353E+02 -0.88895488181E+02  0.93286066307E+02  0.47000000000E+01 0. -1.
         -5    1    4    4    0  502  0.24562350015E+02 -0.13902216509E+02 -0.44186509869E+02  0.52641412562E+02  0.47000000000E+01 0.  1.
          5    1    3    3  503    0 -0.13178323390E+02 -0.45410679039E+02 -0.32406076821E+02  0.57515578699E+02  0.47000000000E+01 0. -1.
         -5    1    3    3    0  503  0.78501844125E+01  0.39117909195E+02 -0.46527838135E+02  0.61471667755E+02  0.47000000000E+01 0.  1.
<mgrwt>
<rscale>  0 0.80625096E+02</rscale>
<asrwt>0</asrwt>
<pdfrwt beam="1">  1        3 0.40691392E-02 0.89035958E+02</pdfrwt>
<pdfrwt beam="2">  1       -3 0.36686974E-01 0.89035958E+02</pdfrwt>
<totfact> 0.48314507E+03</totfact>
</mgrwt>
</event>
<event>
 8    1  0.5224537E-004  0.9464718E+02  0.7546771E-02  0.1294926E+00
         -2   -1    0    0    0  501 -0.00000000000E+00  0.00000000000E+00  0.93370319872E+01  0.93370319872E+01  0.00000000000E+00 0.  1.
          2   -1    0    0  501    0  0.00000000000E+00 -0.00000000000E+00 -0.93922980731E+03  0.93922980731E+03  0.00000000000E+00 0. -1.
         23    2    1    2    0    0  0.11908410626E+02  0.11937372141E+02 -0.56272730074E+03  0.57063132002E+03  0.93133115955E+02 0.  0.
         23    2    1    2    0    0 -0.11908410626E+02 -0.11937372141E+02 -0.36716547458E+03  0.37793551928E+03  0.87979883563E+02 0.  0.
          5    1    3    3  502    0 -0.40462906762E+02  0.94961615831E+01 -0.23173784692E+03  0.23548236368E+03  0.47000000000E+01 0. -1.
         -5    1    3    3    0  502  0.52371317388E+02  0.24412105576E+01 -0.33098945382E+03  0.33514895634E+03  0.47000000000E+01 0.  1.
          5    1    4    4  503    0 -0.17103503149E+02  0.31076559015E+02 -0.25673645707E+03  0.25921801775E+03  0.47000000000E+01 0. -1.
         -5    1    4    4    0  503  0.51950925236E+01 -0.43013931156E+02 -0.11042901752E+03  0.11871750153E+03  0.47000000000E+01 0.  1.
<mgrwt>
<rscale>  0 0.93354409E+02</rscale>
<asrwt>0</asrwt>
<pdfrwt beam="1">  1        2 0.14449690E+00 0.94647178E+02</pdfrwt>
<pdfrwt beam="2">  1       -2 0.14364664E-02 0.94647178E+02</pdfrwt>
<totfact> 0.32894435E+04</totfact>
</mgrwt>
</event>
<event>
 8    1  0.5224537E-004  0.1235922E+03  0.7546771E-02  0.1238368E+00
          1   -1    0    0  501    0  0.00000000000E+00  0.00000000000E+00  0.15162333189E+03  0.15162333189E+03  0.00000000000E+00 0. -1.
         -1   -1    0    0    0  501 -0.00000000000E+00 -0.00000000000E+00 -0.12834961022E+03  0.12834961022E+03  0.00000000000E+00 0.  1.
         23    2    1    2    0    0 -0.30368184175E+02 -0.77678183936E+02 -0.55902190531E+02  0.13319466981E+03  0.87519359512E+02 0.  0.
         23    2    1    2    0    0  0.30368184175E+02  0.77678183936E+02  0.79175912192E+02  0.14677827230E+03  0.91208054900E+02 0.  0.
          5    1    4    4  502    0  0.55302671053E+02  0.54812602800E+02  0.81153718005E+02  0.11256474936E+03  0.47000000000E+01 0. -1.
         -5    1    3    3    0  503 -0.59858019582E+02 -0.37381098379E+02 -0.33638612907E+02  0.78319699327E+02  0.47000000000E+01 0.  1.
          5    1    3    3  503    0  0.29489835407E+02 -0.40297085557E+02 -0.22263577623E+02  0.54874970481E+02  0.47000000000E+01 0. -1.
         -5    1    4    4    0  502 -0.24934486878E+02  0.22865581136E+02 -0.19778058131E+01  0.34213522946E+02  0.47000000000E+01 0.  1.
<mgrwt>
<rscale>  0 0.12291250E+03</rscale>
<asrwt>0</asrwt>
<pdfrwt beam="1">  1        1 0.23326667E-01 0.12359222E+03</pdfrwt>
<pdfrwt beam="2">  1       -1 0.19746094E-01 0.12359222E+03</pdfrwt>
<totfact> 0.41100760E+03</totfact>
</mgrwt>
</event>
<event>
 8    1  0.5224537E-004  0.1132339E+03  0.7546771E-02  0.1255067E+00
         -2   -1    0    0    0  501 -0.00000000000E+00  0.00000000000E+00  0.45866037674E+03  0.45866037674E+03  0.00000000000E+00 0.  1.
          2   -1    0    0  501    0  0.00000000000E+00 -0.00000000000E+00 -0.37383475938E+02  0.37383475938E+02  0.00000000000E+00 0. -1.
         23    2    1    2    0    0  0.26765664744E+02 -0.62050105305E+02  0.33711142031E+03  0.35562061813E+03  0.90858670264E+02 0.  0.
         23    2    1    2    0    0 -0.26765664744E+02  0.62050105305E+02  0.84165480495E+02  0.14042323454E+03  0.89823384012E+02 0.  0.
          5    1    3    3  502    0  0.51935121611E+02 -0.26140397935E+02  0.11253804101E+03  0.12675755573E+03  0.47000000000E+01 0. -1.
         -5    1    3    3    0  502 -0.25169456866E+02 -0.35909707370E+02  0.22457337930E+03  0.22886306240E+03  0.47000000000E+01 0.  1.
          5    1    4    4  503    0 -0.10363319745E+02  0.83369666324E+02  0.71062275279E+02  0.11013553753E+03  0.47000000000E+01 0. -1.
         -5    1    4    4    0  503 -0.16402344999E+02 -0.21319561019E+02  0.13103205216E+02  0.30287697015E+02  0.47000000000E+01 0.  1.
<mgrwt>
<rscale>  0 0.11302607E+03</rscale>
<asrwt>0</asrwt>
<pdfrwt beam="1">  1        2 0.57513043E-02 0.11323389E+03</pdfrwt>
<pdfrwt beam="2">  1       -2 0.70563131E-01 0.11323389E+03</pdfrwt>
<totfact> 0.23230347E+03</totfact>
</mgrwt>
</event>
<event>
 8    1  0.5224537E-004  0.2624304E+03  0.7546771E-02  0.1108623E+00
         -2   -1    0    0    0  501 -0.00000000000E+00  0.00000000000E+00  0.37139836365E+02  0.37139836365E+02  0.00000000000E+00 0.  1.
          2   -1    0    0  501    0  0.00000000000E+00 -0.00000000000E+00 -0.18955692079E+04  0.18955692079E+04  0.00000000000E+00 0. -1.
         23    2    1    2    0    0  0.21477405351E+03  0.83008542414E+02 -0.60586626304E+03  0.65294966890E+03  0.79063450737E+02 0.  0.
         23    2    1    2    0    0 -0.21477405351E+03 -0.83008542414E+02 -0.12525631085E+04  0.12797593754E+04  0.12590236660E+03 0.  0.
          5    1    4    4  502    0 -0.20103962600E+03 -0.25680551203E+02 -0.10033562039E+04  0.10236318595E+04  0.47000000000E+01 0.  1.
         -5    1    4    4    0  502 -0.13734427507E+02 -0.57327991211E+02 -0.24920690461E+03  0.25612751586E+03  0.47000000000E+01 0.  1.
          5    1    3    3  503    0  0.13869678029E+03  0.55777564912E+02 -0.48457025776E+03  0.50712755626E+03  0.47000000000E+01 0. -1.
         -5    1    3    3    0  503  0.76077273223E+02  0.27230977502E+02 -0.12129600528E+03  0.14582211264E+03  0.47000000000E+01 0.  1.
<mgrwt>
<rscale>  0 0.25755167E+03</rscale>
<asrwt>0</asrwt>
<pdfrwt beam="1">  1        2 0.29162601E+00 0.26243041E+03</pdfrwt>
<pdfrwt beam="2">  1       -2 0.57138213E-02 0.26243041E+03</pdfrwt>
<totfact> 0.13464719E+03</totfact>
</mgrwt>
</event>
<event>
 8    1  0.5224537E-004  0.9186605E+02  0.7546771E-02  0.1304211E+00
         -3   -1    0    0    0  501 -0.00000000000E+00  0.00000000000E+00  0.55654717896E+03  0.55654717896E+03  0.00000000000E+00 0.  1.
          3   -1    0    0  501    0  0.00000000000E+00 -0.00000000000E+00 -0.34079480595E+02  0.34079480595E+02  0.00000000000E+00 0. -1.
         23    2    1    2    0    0 -0.12553869792E+02  0.69278671355E+01  0.38394966506E+02  0.99566780384E+02  0.90740152707E+02 0.  0.
         23    2    1    2    0    0  0.12553869792E+02 -0.69278671355E+01  0.48407273186E+03  0.49105987917E+03  0.81288376855E+02 0.  0.
          5    1    3    3  502    0  0.28229497267E+02  0.11351941912E+02 -0.13187934631E+02  0.33493024959E+02  0.47000000000E+01 0. -1.
         -5    1    3    3    0  502 -0.40783367059E+02 -0.44240747763E+01  0.51582901137E+02  0.66073755425E+02  0.47000000000E+01 0.  1.
          5    1    4    4  503    0 -0.30591967951E+02  0.11004760157E+02  0.14028121622E+03  0.14407596217E+03  0.47000000000E+01 0. -1.
         -5    1    4    4    0  503  0.43145837743E+02 -0.17932627292E+02  0.34379151564E+03  0.34698391701E+03  0.47000000000E+01 0.  1.
<mgrwt>
<rscale>  0 0.89441014E+02</rscale>
<asrwt>0</asrwt>
<pdfrwt beam="1">  1        3 0.52429974E-02 0.91866045E+02</pdfrwt>
<pdfrwt beam="2">  1       -3 0.85622636E-01 0.91866045E+02</pdfrwt>
<totfact> 0.59020215E+02</totfact>
</mgrwt>
</event>
<event>
 8    1  0.5224537E-004  0.9928412E+02  0.7546771E-02  0.1282847E+00
         -1   -1    0    0    0  501 -0.00000000000E+00  0.00000000000E+00  0.19526388909E+02  0.19526388909E+02  0.00000000000E+00 0.  1.
          1   -1    0    0  501    0  0.00000000000E+00 -0.00000000000E+00 -0.56523295230E+03  0.56523295230E+03  0.00000000000E+00 0. -1.
         23    2    1    2    0    0 -0.31845381179E+02 -0.10108200898E+02 -0.37353912957E+03  0.38601588400E+03  0.91435645950E+02 0.  0.
         23    2    1    2    0    0  0.31845381179E+02  0.10108200898E+02 -0.17216743382E+03  0.19874345721E+03  0.93493489015E+02 0.  0.
          5    1    4    4  502    0  0.26989262951E+02 -0.12510005570E+02 -0.17252558758E+03  0.17513448810E+03  0.47000000000E+01 0. -1.
         -5    1    4    4    0  502  0.48561182277E+01  0.22618206468E+02  0.35815376168E+00  0.23608969105E+02  0.47000000000E+01 0.  1.
          5    1    3    3  503    0  0.19153704358E+02 -0.18930012090E+02 -0.25655934159E+03  0.25801161894E+03  0.47000000000E+01 0. -1.
         -5    1    3    3    0  503 -0.50999085536E+02  0.88218111913E+01 -0.11697978798E+03  0.12800426506E+03  0.47000000000E+01 0.  1.
<mgrwt>
<rscale>  0 0.98796703E+02</rscale>
<asrwt>0</asrwt>
<pdfrwt beam="1">  1        1 0.86958909E-01 0.99284120E+02</pdfrwt>
<pdfrwt beam="2">  1       -1 0.30040601E-02 0.99284120E+02</pdfrwt>
<totfact> 0.13316223E+04</totfact>
</mgrwt>
</event>
<event>
 8    1  0.5224537E-004  0.1052123E+03  0.7546771E-02  0.1269913E+00
          2   -1    0    0  501    0  0.00000000000E+00  0.00000000000E+00  0.18089077992E+03  0.18089077992E+03  0.00000000000E+00 0. -1.
         -2   -1    0    0    0  501 -0.00000000000E+00 -0.00000000000E+00 -0.16271624923E+03  0.16271624923E+03  0.00000000000E+00 0.  1.
         23    2    1    2    0    0  0.17761953016E+02  0.47281528934E+02 -0.12679070100E+03  0.16448545283E+03  0.91807147767E+02 0.  0.
         23    2    1    2    0    0 -0.17761953016E+02 -0.47281528934E+02  0.14496523168E+03  0.17912157632E+03  0.92296212017E+02 0.  0.
          5    1    3    3  502    0  0.12626000035E+02  0.71824490112E+02 -0.65648083290E+02  0.98234078081E+02  0.47000000000E+01 0. -1.
         -5    1    3    3    0  502  0.51359529806E+01 -0.24542961179E+02 -0.61142617706E+02  0.66251374751E+02  0.47000000000E+01 0.  1.
          5    1    4    4  503    0  0.22436750947E+01 -0.27310554935E+02  0.14773856968E+03  0.15033188437E+03  0.47000000000E+01 0. -1.
         -5    1    4    4    0  503 -0.20005628111E+02 -0.19970973998E+02 -0.27733379971E+01  0.28789691943E+02  0.47000000000E+01 0.  1.
<mgrwt>
<rscale>  0 0.10510491E+03</rscale>
<asrwt>0</asrwt>
<pdfrwt beam="1">  1        2 0.27829351E-01 0.10521226E+03</pdfrwt>
<pdfrwt beam="2">  1       -2 0.25033269E-01 0.10521226E+03</pdfrwt>
<totfact> 0.25848075E+03</totfact>
</mgrwt>
</event>
<event>
 7    1  0.5224537E-004  0.1424218E+03  0.7546771E-02  0.1224882E+00
         -1   -1    0    0    0  501 -0.00000000000E+00  0.00000000000E+00  0.22120288017E+03  0.22120288017E+03  0.00000000000E+00 0.  1.
          1   -1    0    0  501    0  0.00000000000E+00 -0.00000000000E+00 -0.14424028916E+03  0.14424028916E+03  0.00000000000E+00 0. -1.
         23    2    1    2    0    0 -0.26802093359E+02 -0.36382519251E+02  0.16703914534E+03  0.19692681846E+03  0.94000297020E+02 0.  0.
          5    1    3    3  502    0 -0.24686434952E+02  0.83667964757E+01  0.28130357344E+01  0.26635061929E+02  0.47000000000E+01 0. -1.
         -5    1    1    2    0  503 -0.15318849840E+02 -0.45879834754E+02 -0.20522390346E+02  0.52753055864E+02  0.47000000000E+01 0.  1.
          5    1    1    2  503    0  0.42120943199E+02  0.82262354006E+02 -0.69554163986E+02  0.11576329500E+03  0.47000000000E+01 0. -1.
         -5    1    3    3    0  502 -0.21156584073E+01 -0.44749315727E+02  0.16422610960E+03  0.17029175653E+03  0.47000000000E+01 0.  1.
<mgrwt>
<rscale>  0 0.13175027E+03</rscale>
<asrwt>0</asrwt>
<pdfrwt beam="1">  1        1 0.22190814E-01 0.14242182E+03</pdfrwt>
<pdfrwt beam="2">  1       -1 0.34031212E-01 0.14242182E+03</pdfrwt>
<totfact> 0.17938898E+03</totfact>
</mgrwt>
</event>
<event>
 8    1  0.5224537E-004  0.1115878E+03  0.7546771E-02  0.1258917E+00
          3   -1    0    0  501    0  0.00000000000E+00  0.00000000000E+00  0.30646508530E+03  0.30646508530E+03  0.00000000000E+00 0. -1.
         -3   -1    0    0    0  501 -0.00000000000E+00 -0.00000000000E+00 -0.40552235632E+02  0.40552235632E+02  0.00000000000E+00 0.  1.
         23    2    1    2    0    0  0.59395388693E+02  0.21453956858E+02  0.16058911173E+03  0.19555227749E+03  0.91998619348E+02 0.  0.
         23    2    1    2    0    0 -0.59395388693E+02 -0.21453956858E+02  0.10532373794E+03  0.15146504344E+03  0.88659377105E+02 0.  0.
          5    1    4    4  502    0 -0.39695566340E+02 -0.54529319275E+02  0.50866744075E+02  0.84609102940E+02  0.47000000000E+01 0. -1.
         -5    1    3    3    0  503  0.39912458594E+02  0.41380780438E+02  0.36447124795E+02  0.68233835056E+02  0.47000000000E+01 0.  1.
          5    1    3    3  503    0  0.19482930099E+02 -0.19926823580E+02  0.12414198693E+03  0.12731844243E+03  0.47000000000E+01 0. -1.
         -5    1    4    4    0  502 -0.19699822353E+02  0.33075362416E+02  0.54456993861E+02  0.66855940500E+02  0.47000000000E+01 0.  1.
<mgrwt>
<rscale>  0 0.11089723E+03</rscale>
<asrwt>0</asrwt>
<pdfrwt beam="1">  1        3 0.47148473E-01 0.11158777E+03</pdfrwt>
<pdfrwt beam="2">  1       -3 0.62388057E-02 0.11158777E+03</pdfrwt>
<totfact> 0.15951075E+03</totfact>
</mgrwt>
</event>
<event>
 8    1  0.5224537E-004  0.9729105E+02  0.7546771E-02  0.1289070E+00
         -3   -1    0    0    0  501 -0.00000000000E+00  0.00000000000E+00  0.62777863881E+02  0.62777863881E+02  0.00000000000E+00 0.  1.
          3   -1    0    0  501    0  0.00000000000E+00 -0.00000000000E+00 -0.32505899143E+03  0.32505899143E+03  0.00000000000E+00 0. -1.
         23    2    1    2    0    0 -0.47499753731E+01 -0.12495215507E+02  0.12473785419E+02  0.98087433483E+02  0.96368338203E+02 0.  0.
         23    2    1    2    0    0  0.47499753731E+01  0.12495215507E+02 -0.27475491296E+03  0.28974942182E+03  0.91026219150E+02 0.  0.
          5    1    3    3  502    0 -0.26051101667E+02  0.26702031881E+02 -0.20114038717E+02  0.42641798252E+02  0.47000000000E+01 0. -1.
         -5    1    4    4    0  503 -0.37053568605E+02 -0.11856191332E+02 -0.16704471905E+03  0.17157961528E+03  0.47000000000E+01 0.  1.
          5    1    4    4  503    0  0.41803543979E+02  0.24351406839E+02 -0.10771019392E+03  0.11816980654E+03  0.47000000000E+01 0. -1.
         -5    1    3    3    0  502  0.21301126294E+02 -0.39197247388E+02  0.32587824136E+02  0.55445635231E+02  0.47000000000E+01 0.  1.
<mgrwt>
<rscale>  0 0.95941085E+02</rscale>
<asrwt>0</asrwt>
<pdfrwt beam="1">  1        3 0.50009075E-01 0.97291054E+02</pdfrwt>
<pdfrwt beam="2">  1       -3 0.96581330E-02 0.97291054E+02</pdfrwt>
<totfact> 0.68458282E+02</totfact>
</mgrwt>
</event>
<event>
 8    1  0.5224537E-004  0.1540510E+03  0.7546771E-02  0.1196124E+00
         -1   -1    0    0    0  501 -0.00000000000E+00  0.00000000000E+00  0.10032485948E+04  0.10032485948E+04  0.00000000000E+00 0.  1.
          1   -1    0    0  501    0  0.00000000000E+00 -0.00000000000E+00 -0.85874979277E+02  0.85874979277E+02  0.00000000000E+00 0. -1.
         23    2    1    2    0    0  0.11850514361E+03 -0.32324740577E+02  0.92251044304E+03  0.93498693920E+03  0.89926086614E+02 0.  0.
         23    2    1    2    0    0 -0.11850514361E+03  0.32324740577E+02 -0.51368274917E+01  0.15413663490E+03  0.92969657987E+02 0.  0.
          5    1    4    4  502    0 -0.12160351880E+03  0.59487479357E+01 -0.19800414696E+02  0.12343804036E+03  0.47000000000E+01 0. -1.
         -5    1    3    3    0  503  0.48888544626E+02  0.27583776010E+02  0.25335926193E+03  0.25954568018E+03  0.47000000000E+01 0.  1.
          5    1    3    3  503    0  0.69616598980E+02 -0.59908516587E+02  0.66915118111E+03  0.67544125903E+03  0.47000000000E+01 0. -1.
         -5    1    4    4    0  502  0.30983751937E+01  0.26375992642E+02  0.14663587204E+02  0.30698594534E+02  0.47000000000E+01 0.  1.
<mgrwt>
<rscale>  0 0.15359463E+03</rscale>
<asrwt>0</asrwt>
<pdfrwt beam="1">  1        1 0.13211536E-01 0.15405101E+03</pdfrwt>
<pdfrwt beam="2">  1       -1 0.15434593E+00 0.15405101E+03</pdfrwt>
<totfact> 0.15724084E+02</totfact>
</mgrwt>
</event>
<event>
 8    1  0.5224537E-004  0.1051480E+03  0.7546771E-02  0.1275470E+00
         -2   -1    0    0    0  501 -0.00000000000E+00  0.00000000000E+00  0.38367423547E+02  0.38367423547E+02  0.00000000000E+00 0.  1.
          2   -1    0    0  501    0  0.00000000000E+00 -0.00000000000E+00 -0.26130613033E+03  0.26130613033E+03  0.00000000000E+00 0. -1.
         23    2    1    2    0    0 -0.24540507202E+02  0.11303280205E+01 -0.92237986203E+02  0.13192739740E+03  0.91068534358E+02 0.  0.
         23    2    1    2    0    0  0.24540507202E+02 -0.11303280205E+01 -0.13070072058E+03  0.16774615648E+03  0.10223786245E+03 0.  0.
          5    1    3    3  502    0 -0.26374336570E+02  0.43749288665E+02 -0.47080690156E+02  0.69629643643E+02  0.47000000000E+01 0.  1.
         -5    1    4    4    0  503  0.57798067125E+02 -0.19963870389E+02 -0.53125978951E+02  0.81139585430E+02  0.47000000000E+01 0.  1.
          5    1    4    4  503    0 -0.33257559923E+02  0.18833542368E+02 -0.77574741633E+02  0.86606571053E+02  0.47000000000E+01 0. -1.
         -5    1    3    3    0  502  0.18338293684E+01 -0.42618960645E+02 -0.45157296047E+02  0.62297753755E+02  0.47000000000E+01 0. -1.
<mgrwt>
<rscale>  0 0.10233073E+03</rscale>
<asrwt>0</asrwt>
<pdfrwt beam="1">  1        2 0.40200943E-01 0.10514797E+03</pdfrwt>
<pdfrwt beam="2">  1       -2 0.59026806E-02 0.10514797E+03</pdfrwt>
<totfact> 0.17604978E+04</totfact>
</mgrwt>
</event>
<event>
 8    1  0.5224537E-004  0.9751376E+02  0.7546771E-02  0.1285907E+00
         -1   -1    0    0    0  501 -0.00000000000E+00  0.00000000000E+00  0.81214851470E+02  0.81214851470E+02  0.00000000000E+00 0.  1.
          1   -1    0    0  501    0  0.00000000000E+00 -0.00000000000E+00 -0.13761074429E+03  0.13761074429E+03  0.00000000000E+00 0. -1.
         23    2    1    2    0    0 -0.25622298083E+02  0.88661853235E+01 -0.71182256057E+02  0.12073047287E+03  0.93668682604E+02 0.  0.
         23    2    1    2    0    0  0.25622298083E+02 -0.88661853235E+01  0.14786363241E+02  0.98095122886E+02  0.93106955674E+02 0.  0.
          5    1    4    4  502    0  0.10653853815E+02 -0.32791175422E+02 -0.29332924012E+02  0.45511275721E+02  0.47000000000E+01 0. -1.
         -5    1    3    3    0  503 -0.56866609319E+02  0.21925375657E+02 -0.32954920277E+02  0.69445303106E+02  0.47000000000E+01 0.  1.
          5    1    3    3  503    0  0.31244311236E+02 -0.13059190334E+02 -0.38227335781E+02  0.51285169764E+02  0.47000000000E+01 0. -1.
         -5    1    4    4    0  502  0.14968444267E+02  0.23924990098E+02  0.44119287252E+02  0.52583847165E+02  0.47000000000E+01 0.  1.
<mgrwt>
<rscale>  0 0.97378617E+02</rscale>
<asrwt>0</asrwt>
<pdfrwt beam="1">  1        1 0.21170884E-01 0.97513761E+02</pdfrwt>
<pdfrwt beam="2">  1       -1 0.12494593E-01 0.97513761E+02</pdfrwt>
<totfact> 0.93359761E+03</totfact>
</mgrwt>
</event>
<event>
 8    1  0.5224537E-004  0.1435171E+03  0.7546771E-02  0.1209872E+00
          1   -1    0    0  501    0  0.00000000000E+00  0.00000000000E+00  0.12834758991E+04  0.12834758991E+04  0.00000000000E+00 0. -1.
         -1   -1    0    0    0  501 -0.00000000000E+00 -0.00000000000E+00 -0.19831685916E+02  0.19831685916E+02  0.00000000000E+00 0.  1.
         23    2    1    2    0    0  0.81852344908E+02 -0.74593676655E+02  0.93761997204E+03  0.94854011837E+03  0.91285931140E+02 0.  0.
         23    2    1    2    0    0 -0.81852344908E+02  0.74593676655E+02  0.32602424112E+03  0.35476746663E+03  0.85464183216E+02 0.  0.
          5    1    3    3  502    0  0.51288881699E+02 -0.38373541323E+01  0.18837918851E+03  0.19533070249E+03  0.47000000000E+01 0. -1.
         -5    1    3    3    0  502  0.30563463208E+02 -0.70756322523E+02  0.74924078353E+03  0.75320941588E+03  0.47000000000E+01 0.  1.
          5    1    4    4  503    0 -0.38138537304E+02  0.25061287436E+01  0.19589580509E+03  0.19964489765E+03  0.47000000000E+01 0. -1.
         -5    1    4    4    0  503 -0.43713807604E+02  0.72087547912E+02  0.13012843604E+03  0.15512256897E+03  0.47000000000E+01 0.  1.
<mgrwt>
<rscale>  0 0.14260060E+03</rscale>
<asrwt>0</asrwt>
<pdfrwt beam="1">  1        1 0.19745777E+00 0.14351705E+03</pdfrwt>
<pdfrwt beam="2">  1       -1 0.30510296E-02 0.14351705E+03</pdfrwt>
<totfact> 0.36394901E+03</totfact>
</mgrwt>
</event>
<event>
 8    1  0.5224537E-004  0.1077919E+03  0.7546771E-02  0.1266777E+00
         -1   -1    0    0    0  501 -0.00000000000E+00  0.00000000000E+00  0.43829882400E+03  0.43829882400E+03  0.00000000000E+00 0.  1.
          1   -1    0    0  501    0  0.00000000000E+00 -0.00000000000E+00 -0.25939149685E+02  0.25939149685E+02  0.00000000000E+00 0. -1.
         23    2    1    2    0    0 -0.13850866968E+01 -0.50925175762E+02  0.17110777349E+03  0.20000024499E+03  0.90149519438E+02 0.  0.
         23    2    1    2    0    0  0.13850866968E+01  0.50925175762E+02  0.24125190082E+03  0.26423772869E+03  0.94993713601E+02 0.  0.
          5    1    3    3  502    0 -0.25828335802E+02 -0.24231998327E+02  0.15676653174E+03  0.16078596999E+03  0.47000000000E+01 0. -1.
         -5    1    4    4    0  503  0.26245858073E+02  0.53186483002E+02  0.22790485529E+03  0.23554269274E+03  0.47000000000E+01 0.  1.
          5    1    4    4  503    0 -0.24860771376E+02 -0.22613072399E+01  0.13347045533E+02  0.28695035952E+02  0.47000000000E+01 0. -1.
         -5    1    3    3    0  502  0.24443249105E+02 -0.26693177435E+02  0.14341241752E+02  0.39214274995E+02  0.47000000000E+01 0.  1.
<mgrwt>
<rscale>  0 0.10671495E+03</rscale>
<asrwt>0</asrwt>
<pdfrwt beam="1">  1        1 0.39906387E-02 0.10779192E+03</pdfrwt>
<pdfrwt beam="2">  1       -1 0.67430583E-01 0.10779192E+03</pdfrwt>
<totfact> 0.49463497E+03</totfact>
</mgrwt>
</event>
<event>
 8    1  0.5224537E-004  0.9478016E+02  0.7546771E-02  0.1292418E+00
          2   -1    0    0  501    0  0.00000000000E+00  0.00000000000E+00  0.15538718628E+02  0.15538718628E+02  0.00000000000E+00 0. -1.
         -2   -1    0    0    0  501 -0.00000000000E+00 -0.00000000000E+00 -0.59114680864E+03  0.59114680864E+03  0.00000000000E+00 0.  1.
         23    2    1    2    0    0  0.22307836208E+02  0.81310394706E+01 -0.22870348638E+03  0.24706616988E+03  0.90402733660E+02 0.  0.
         23    2    1    2    0    0 -0.22307836208E+02 -0.81310394706E+01 -0.34690460362E+03  0.35961935739E+03  0.91757968780E+02 0.  0.
          5    1    3    3  502    0 -0.33177634356E+02  0.16127580788E+02 -0.88212752676E+02  0.95731050439E+02  0.47000000000E+01 0. -1.
         -5    1    3    3    0  502  0.55485470564E+02 -0.79965413175E+01 -0.14049073371E+03  0.15133511944E+03  0.47000000000E+01 0.  1.
          5    1    4    4  503    0 -0.54108776289E+02 -0.11689006584E+02 -0.14763519558E+03  0.15774230098E+03  0.47000000000E+01 0. -1.
         -5    1    4    4    0  503  0.31800940080E+02  0.35579671137E+01 -0.19926940805E+03  0.20187705641E+03  0.47000000000E+01 0.  1.
<mgrwt>
<rscale>  0 0.94450591E+02</rscale>
<asrwt>0</asrwt>
<pdfrwt beam="1">  1        2 0.23905720E-02 0.94780157E+02</pdfrwt>
<pdfrwt beam="2">  1       -2 0.90945667E-01 0.94780157E+02</pdfrwt>
<totfact> 0.41878023E+03</totfact>
</mgrwt>
</event>
<event>
 8    1  0.5224537E-004  0.1007225E+03  0.7546771E-02  0.1284114E+00
         -1   -1    0    0    0  501 -0.00000000000E+00  0.00000000000E+00  0.83872677770E+02  0.83872677770E+02  0.00000000000E+00 0.  1.
          1   -1    0    0  501    0  0.00000000000E+00 -0.00000000000E+00 -0.13316363056E+03  0.13316363056E+03  0.00000000000E+00 0. -1.
         23    2    1    2    0    0 -0.86979504496E+00 -0.34744059815E+01  0.21986023562E+02  0.93644981690E+02  0.90956964128E+02 0.  0.
         23    2    1    2    0    0  0.86979504496E+00  0.34744059815E+01 -0.71276976356E+02  0.12339132664E+03  0.10065875070E+03 0.  0.
          5    1    3    3  502    0 -0.35943215148E+02  0.30851980317E+01 -0.17370043457E+02  0.40314284960E+02  0.47000000000E+01 0. -1.
         -5    1    3    3    0  502  0.35073420103E+02 -0.65596040132E+01  0.39356067019E+02  0.53330696731E+02  0.47000000000E+01 0.  1.
          5    1    4    4  503    0 -0.40536065586E+02  0.84055146477E+01 -0.69937535879E+02  0.81407457978E+02  0.47000000000E+01 0. -1.
         -5    1    4    4    0  503  0.41405860631E+02 -0.49311086662E+01 -0.13394404774E+01  0.41983868665E+02  0.47000000000E+01 0.  1.
<mgrwt>
<rscale>  0 0.98205953E+02</rscale>
<asrwt>0</asrwt>
<pdfrwt beam="1">  1        1 0.20486712E-01 0.10072245E+03</pdfrwt>
<pdfrwt beam="2">  1       -1 0.12903489E-01 0.10072245E+03</pdfrwt>
<totfact> 0.92859851E+03</totfact>
</mgrwt>
</event>
<event>
 8    1  0.5224537E-004  0.9805235E+02  0.7546771E-02  0.1285885E+00
         -2   -1    0    0    0  501 -0.00000000000E+00  0.00000000000E+00  0.37404014905E+02  0.37404014905E+02  0.00000000000E+00 0.  1.
          2   -1    0    0  501    0  0.00000000000E+00 -0.00000000000E+00 -0.40490645561E+03  0.40490645561E+03  0.00000000000E+00 0. -1.
         23    2    1    2    0    0  0.35813765697E+02 -0.23367857769E+02 -0.45514043644E+02  0.10572349622E+03  0.85306781059E+02 0.  0.
         23    2    1    2    0    0 -0.35813765697E+02  0.23367857769E+02 -0.32198839706E+03  0.33658697430E+03  0.88235938435E+02 0.  0.
          5    1    3    3  502    0  0.48544110235E+02  0.15452188211E+02 -0.38448238307E+02  0.63997326412E+02  0.47000000000E+01 0. -1.
         -5    1    3    3    0  502 -0.12730344538E+02 -0.38820045981E+02 -0.70658053372E+01  0.41726169811E+02  0.47000000000E+01 0.  1.
          5    1    4    4  503    0  0.18705706610E+02  0.23357071498E+02 -0.20742888751E+03  0.20962893317E+03  0.47000000000E+01 0. -1.
         -5    1    4    4    0  503 -0.54519472307E+02  0.10786271825E-01 -0.11455950955E+03  0.12695804112E+03  0.47000000000E+01 0.  1.
<mgrwt>
<rscale>  0 0.97388806E+02</rscale>
<asrwt>0</asrwt>
<pdfrwt beam="1">  1        2 0.62293300E-01 0.98052350E+02</pdfrwt>
<pdfrwt beam="2">  1       -2 0.57544639E-02 0.98052350E+02</pdfrwt>
<totfact> 0.11468426E+04</totfact>
</mgrwt>
</event>
<event>
 8    1  0.5224537E-004  0.9726133E+02  0.7546771E-02  0.1286478E+00
          1   -1    0    0  501    0  0.00000000000E+00  0.00000000000E+00  0.46576433622E+03  0.46576433622E+03  0.00000000000E+00 0. -1.
         -1   -1    0    0    0  501 -0.00000000000E+00 -0.00000000000E+00 -0.56477919973E+02  0.56477919973E+02  0.00000000000E+00 0.  1.
         23    2    1    2    0    0 -0.32622708374E+02 -0.10542388963E+02 -0.48805260109E+01  0.96808332613E+02  0.90402713800E+02 0.  0.
         23    2    1    2    0    0  0.32622708374E+02  0.10542388963E+02  0.41416694226E+03  0.42543392358E+03  0.91018592648E+02 0.  0.
          5    1    3    3  502    0  0.75803796164E+00  0.35470234230E+02  0.11279406034E+02  0.37523687697E+02  0.47000000000E+01 0. -1.
         -5    1    3    3    0  502 -0.33380746336E+02 -0.46012623193E+02 -0.16159932045E+02  0.59284644916E+02  0.47000000000E+01 0.  1.
          5    1    4    4  503    0 -0.10779425765E+02 -0.32686577256E+02  0.12038647633E+03  0.12529805280E+03  0.47000000000E+01 0. -1.
         -5    1    4    4    0  503  0.43402134140E+02  0.43228966219E+02  0.29378046592E+03  0.30013587078E+03  0.47000000000E+01 0.  1.
<mgrwt>
<rscale>  0 0.97116988E+02</rscale>
<asrwt>0</asrwt>
<pdfrwt beam="1">  1        1 0.71656049E-01 0.97261335E+02</pdfrwt>
<pdfrwt beam="2">  1       -1 0.86889111E-02 0.97261335E+02</pdfrwt>
<totfact> 0.35891620E+03</totfact>
</mgrwt>
</event>
<event>
 8    1  0.5224537E-004  0.9620206E+02  0.7546771E-02  0.1288873E+00
         -2   -1    0    0    0  501 -0.00000000000E+00  0.00000000000E+00  0.21465921901E+02  0.21465921901E+02  0.00000000000E+00 0.  1.
          2   -1    0    0  501    0  0.00000000000E+00 -0.00000000000E+00 -0.56020498440E+03  0.56020498440E+03  0.00000000000E+00 0. -1.
         23    2    1    2    0    0 -0.19113190069E+01  0.29005215832E+02 -0.41135121118E+03  0.42245077189E+03  0.91705398120E+02 0.  0.
         23    2    1    2    0    0  0.19113190069E+01 -0.29005215832E+02 -0.12738785132E+03  0.15922013441E+03  0.90985882712E+02 0.  0.
          5    1    4    4  502    0 -0.40192131831E+02  0.25297580428E+00 -0.35221676957E+02  0.53648187160E+02  0.47000000000E+01 0. -1.
         -5    1    3    3    0  503 -0.35579787262E+02  0.44304387263E+01 -0.72549119050E+02  0.81061795711E+02  0.47000000000E+01 0.  1.
          5    1    3    3  503    0  0.33668468255E+02  0.24574777106E+02 -0.33880209213E+03  0.34138897618E+03  0.47000000000E+01 0. -1.
         -5    1    4    4    0  502  0.42103450838E+02 -0.29258191636E+02 -0.92166174360E+02  0.10557194725E+03  0.47000000000E+01 0.  1.
<mgrwt>
<rscale>  0 0.96030188E+02</rscale>
<asrwt>0</asrwt>
<pdfrwt beam="1">  1        2 0.86185376E-01 0.96202057E+02</pdfrwt>
<pdfrwt beam="2">  1       -2 0.33024498E-02 0.96202057E+02</pdfrwt>
<totfact> 0.18348093E+04</totfact>
</mgrwt>
</event>
<event>
 8    1  0.5224537E-004  0.9540000E+02  0.7546771E-02  0.1302616E+00
          2   -1    0    0  501    0  0.00000000000E+00  0.00000000000E+00  0.34699551874E+03  0.34699551874E+03  0.00000000000E+00 0. -1.
         -2   -1    0    0    0  501 -0.00000000000E+00 -0.00000000000E+00 -0.22236206260E+02  0.22236206260E+02  0.00000000000E+00 0.  1.
         23    2    1    2    0    0  0.55992971219E+01  0.28210029712E+02  0.10405892921E+03  0.12879499849E+03  0.70233417837E+02 0.  0.
         23    2    1    2    0    0 -0.55992971219E+01 -0.28210029712E+02  0.22070038327E+03  0.24043672652E+03  0.90961543408E+02 0.  0.
          5    1    4    4  502    0 -0.41985653120E+02 -0.21990250473E+02  0.17571220094E+03  0.18205283229E+03  0.47000000000E+01 0. -1.
         -5    1    3    3    0  503  0.23380535676E+02  0.43713668180E+02  0.83164528463E+02  0.96932775823E+02  0.47000000000E+01 0.  1.
          5    1    3    3  503    0 -0.17781238554E+02 -0.15503638468E+02  0.20894400751E+02  0.31862222663E+02  0.47000000000E+01 0. -1.
         -5    1    4    4    0  502  0.36386355998E+02 -0.62197792389E+01  0.44988182330E+02  0.58383894234E+02  0.47000000000E+01 0.  1.
<mgrwt>
<rscale>  0 0.90097568E+02</rscale>
<asrwt>0</asrwt>
<pdfrwt beam="1">  1        2 0.53383922E-01 0.95400001E+02</pdfrwt>
<pdfrwt beam="2">  1       -2 0.34209551E-02 0.95400001E+02</pdfrwt>
<totfact> 0.29052076E+04</totfact>
</mgrwt>
</event>
<event>
 8    1  0.5224537E-004  0.1148365E+03  0.7546771E-02  0.1253198E+00
          2   -1    0    0  501    0  0.00000000000E+00  0.00000000000E+00  0.11610845388E+04  0.11610845388E+04  0.00000000000E+00 0. -1.
         -2   -1    0    0    0  501 -0.00000000000E+00 -0.00000000000E+00 -0.17994204537E+02  0.17994204537E+02  0.00000000000E+00 0.  1.
         23    2    1    2    0    0 -0.94670854023E+01 -0.65409547456E+02  0.20102406444E+03  0.23003908623E+03  0.90217914559E+02 0.  0.
         23    2    1    2    0    0  0.94670854023E+01  0.65409547456E+02  0.94206626983E+03  0.94903965711E+03  0.93911550980E+02 0.  0.
          5    1    3    3  502    0  0.31771548859E+02 -0.23433205906E+02  0.13831785150E+03  0.14391825631E+03  0.47000000000E+01 0. -1.
         -5    1    3    3    0  502 -0.41238634261E+02 -0.41976341550E+02  0.62706212940E+02  0.86120829925E+02  0.47000000000E+01 0.  1.
          5    1    4    4  503    0  0.22246386633E+01  0.85983395163E+02  0.84798027638E+03  0.85234425697E+03  0.47000000000E+01 0. -1.
         -5    1    4    4    0  503  0.72424467389E+01 -0.20573847707E+02  0.94085993448E+02  0.96695400135E+02  0.47000000000E+01 0.  1.
<mgrwt>
<rscale>  0 0.11407890E+03</rscale>
<asrwt>0</asrwt>
<pdfrwt beam="1">  1        2 0.17862833E+00 0.11483647E+03</pdfrwt>
<pdfrwt beam="2">  1       -2 0.27683401E-02 0.11483647E+03</pdfrwt>
<totfact> 0.96458342E+03</totfact>
</mgrwt>
</event>
<event>
 8    1  0.5224537E-004  0.1261340E+03  0.7546771E-02  0.1233420E+00
          2   -1    0    0  501    0  0.00000000000E+00  0.00000000000E+00  0.12626892644E+03  0.12626892644E+03  0.00000000000E+00 0.  1.
         -2   -1    0    0    0  501 -0.00000000000E+00 -0.00000000000E+00 -0.16655697903E+03  0.16655697903E+03  0.00000000000E+00 0. -1.
         23    2    1    2    0    0 -0.49942519761E+02  0.71255647378E+02  0.52346156199E+02  0.13656462097E+03  0.91313487874E+02 0.  0.
         23    2    1    2    0    0  0.49942519761E+02 -0.71255647378E+02 -0.92634208785E+02  0.15626128450E+03  0.90911329515E+02 0.  0.
          5    1    4    4  502    0  0.72218936775E+02 -0.33464411649E+02 -0.45945011063E+02  0.92024321337E+02  0.47000000000E+01 0. -1.
         -5    1    3    3    0  503 -0.12780449736E+02  0.85080315933E+02  0.34105447174E+02  0.92667532511E+02  0.47000000000E+01 0.  1.
          5    1    3    3  503    0 -0.37162070025E+02 -0.13824668555E+02  0.18240709025E+02  0.43897088456E+02  0.47000000000E+01 0. -1.
         -5    1    4    4    0  502 -0.22276417015E+02 -0.37791235730E+02 -0.46689197722E+02  0.64236963167E+02  0.47000000000E+01 0.  1.
<mgrwt>
<rscale>  0 0.12606119E+03</rscale>
<asrwt>0</asrwt>
<pdfrwt beam="1">  1        2 0.19425989E-01 0.12613396E+03</pdfrwt>
<pdfrwt beam="2">  1       -2 0.25624151E-01 0.12613396E+03</pdfrwt>
<totfact> 0.37317749E+03</totfact>
</mgrwt>
</event>
<event>
 8    1  0.5224537E-004  0.9707073E+02  0.7546771E-02  0.1288489E+00
          3   -1    0    0  501    0  0.00000000000E+00  0.00000000000E+00  0.53665433636E+02  0.53665433636E+02  0.00000000000E+00 0. -1.
         -3   -1    0    0    0  501 -0.00000000000E+00 -0.00000000000E+00 -0.22814192343E+03  0.22814192343E+03  0.00000000000E+00 0.  1.
         23    2    1    2    0    0  0.16939338207E+02  0.27484133982E+02 -0.16938264316E+02  0.98537464004E+02  0.91544569553E+02 0.  0.
         23    2    1    2    0    0 -0.16939338207E+02 -0.27484133982E+02 -0.15753822548E+03  0.18326989306E+03  0.87904734891E+02 0.  0.
          5    1    3    3  502    0  0.34328801152E+02  0.43622891114E+01  0.28084635621E+02  0.44814427507E+02  0.47000000000E+01 0. -1.
         -5    1    4    4    0  503 -0.47936126576E+02  0.34986433371E+01 -0.67208772364E+02  0.82760025489E+02  0.47000000000E+01 0.  1.
          5    1    4    4  503    0  0.30996788368E+02 -0.30982777319E+02 -0.90329453111E+02  0.10050986757E+03  0.47000000000E+01 0. -1.
         -5    1    3    3    0  502 -0.17389462944E+02  0.23121844870E+02 -0.45022899937E+02  0.53723036497E+02  0.47000000000E+01 0.  1.
<mgrwt>
<rscale>  0 0.96202966E+02</rscale>
<asrwt>0</asrwt>
<pdfrwt beam="1">  1        3 0.82562205E-02 0.97070732E+02</pdfrwt>
<pdfrwt beam="2">  1       -3 0.35098758E-01 0.97070732E+02</pdfrwt>
<totfact> 0.17457076E+03</totfact>
</mgrwt>
</event>
<event>
 8    1  0.5224537E-004  0.9529936E+02  0.7546771E-02  0.1290760E+00
         -2   -1    0    0    0  501 -0.00000000000E+00  0.00000000000E+00  0.30916494258E+02  0.30916494258E+02  0.00000000000E+00 0.  1.
          2   -1    0    0  501    0  0.00000000000E+00 -0.00000000000E+00 -0.29402787379E+03  0.29402787379E+03  0.00000000000E+00 0. -1.
         23    2    1    2    0    0 -0.19514108604E+01 -0.30273574682E+02 -0.11897755891E+03  0.15215395410E+03  0.89860274282E+02 0.  0.
         23    2    1    2    0    0  0.19514108604E+01  0.30273574682E+02 -0.14413382062E+03  0.17279041395E+03  0.90341970195E+02 0.  0.
          5    1    3    3  502    0  0.98980144053E+01  0.30650499933E+02 -0.43202408672E+02  0.54092161635E+02  0.47000000000E+01 0. -1.
         -5    1    3    3    0  502 -0.11849425266E+02 -0.60924074615E+02 -0.75775150242E+02  0.98061792463E+02  0.47000000000E+01 0.  1.
          5    1    4    4  503    0  0.45278259673E+02  0.17996386366E+02 -0.87726949715E+02  0.10045943673E+03  0.47000000000E+01 0. -1.
         -5    1    4    4    0  503 -0.43326848813E+02  0.12277188316E+02 -0.56406870901E+02  0.72330977222E+02  0.47000000000E+01 0.  1.
<mgrwt>
<rscale>  0 0.95185030E+02</rscale>
<asrwt>0</asrwt>
<pdfrwt beam="1">  1        2 0.45235056E-01 0.95299365E+02</pdfrwt>
<pdfrwt beam="2">  1       -2 0.47563839E-02 0.95299365E+02</pdfrwt>
<totfact> 0.21263006E+04</totfact>
</mgrwt>
</event>
<event>
 8    1  0.5224537E-004  0.9813198E+02  0.7546771E-02  0.1287829E+00
          1   -1    0    0  501    0  0.00000000000E+00  0.00000000000E+00  0.15379486925E+02  0.15379486925E+02  0.00000000000E+00 0. -1.
         -1   -1    0    0    0  501 -0.00000000000E+00 -0.00000000000E+00 -0.58648657023E+03  0.58648657023E+03  0.00000000000E+00 0.  1.
         23    2    1    2    0    0 -0.30772153319E+02 -0.59841614662E+01 -0.28880121507E+03  0.30501807714E+03  0.92990052961E+02 0.  0.
         23    2    1    2    0    0  0.30772153319E+02  0.59841614662E+01 -0.28230586824E+03  0.29684798002E+03  0.86251866006E+02 0.  0.
          5    1    4    4  502    0 -0.18213292781E+02  0.89410320881E+01 -0.19870749659E+03  0.19979595914E+03  0.47000000000E+01 0. -1.
         -5    1    3    3    0  503 -0.55080685210E+02 -0.18447592497E+02 -0.25361807437E+03  0.26022761805E+03  0.47000000000E+01 0.  1.
          5    1    3    3  503    0  0.24308531890E+02  0.12463431031E+02 -0.35183140704E+02  0.44790459090E+02  0.47000000000E+01 0. -1.
         -5    1    4    4    0  502  0.48985446100E+02 -0.29568706218E+01 -0.83598371652E+02  0.97052020877E+02  0.47000000000E+01 0.  1.
<mgrwt>
<rscale>  0 0.96501841E+02</rscale>
<asrwt>0</asrwt>
<pdfrwt beam="1">  1        1 0.23660748E-02 0.98131980E+02</pdfrwt>
<pdfrwt beam="2">  1       -1 0.90228708E-01 0.98131980E+02</pdfrwt>
<totfact> 0.55873201E+03</totfact>
</mgrwt>
</event>
<event>
 8    1  0.5224537E-004  0.9273702E+02  0.7546771E-02  0.1298355E+00
          1   -1    0    0  501    0  0.00000000000E+00  0.00000000000E+00  0.29226606823E+03  0.29226606823E+03  0.00000000000E+00 0. -1.
         -1   -1    0    0    0  501 -0.00000000000E+00 -0.00000000000E+00 -0.32693592062E+02  0.32693592062E+02  0.00000000000E+00 0.  1.
         23    2    1    2    0    0 -0.33335590816E+01 -0.96037400659E+01  0.68597898903E+02  0.11265929559E+03  0.88786827344E+02 0.  0.
         23    2    1    2    0    0  0.33335590816E+01  0.96037400659E+01  0.19097457726E+03  0.21230036470E+03  0.92178149528E+02 0.  0.
          5    1    3    3  502    0 -0.34881147389E+02  0.17015093649E+02  0.57723175526E+02  0.69715585401E+02  0.47000000000E+01 0. -1.
         -5    1    3    3    0  502  0.31547588308E+02 -0.26618833715E+02  0.10874723377E+02  0.42943710190E+02  0.47000000000E+01 0.  1.
          5    1    4    4  503    0  0.12437687947E+02  0.43833238807E+02  0.15488238259E+03  0.16151374970E+03  0.47000000000E+01 0. -1.
         -5    1    4    4    0  503 -0.91041288650E+01 -0.34229498741E+02  0.36092194671E+02  0.50786614994E+02  0.47000000000E+01 0.  1.
<mgrwt>
<rscale>  0 0.91882765E+02</rscale>
<asrwt>0</asrwt>
<pdfrwt beam="1">  1        1 0.44964009E-01 0.92737024E+02</pdfrwt>
<pdfrwt beam="2">  1       -1 0.50297836E-02 0.92737024E+02</pdfrwt>
<totfact> 0.14326473E+04</totfact>
</mgrwt>
</event>
<event>
 8    1  0.5224537E-004  0.1684950E+03  0.7546771E-02  0.1180104E+00
         -2   -1    0    0    0  501 -0.00000000000E+00  0.00000000000E+00  0.96614446164E+02  0.96614446164E+02  0.00000000000E+00 0.  1.
          2   -1    0    0  501    0  0.00000000000E+00 -0.00000000000E+00 -0.51870113976E+03  0.51870113976E+03  0.00000000000E+00 0. -1.
         23    2    1    2    0    0  0.13978917884E+03 -0.22471028030E+02 -0.56051122335E+01  0.16604121618E+03  0.86558110914E+02 0.  0.
         23    2    1    2    0    0 -0.13978917884E+03  0.22471028030E+02 -0.41648158136E+03  0.44927436975E+03  0.91348727831E+02 0.  0.
          5    1    3    3  502    0  0.18504762922E+02 -0.11168741289E+02 -0.34295620898E+02  0.40809884165E+02  0.47000000000E+01 0. -1.
         -5    1    4    4    0  503 -0.21876111492E+02  0.39494945799E+02 -0.16213529065E+03  0.16836970474E+03  0.47000000000E+01 0.  1.
          5    1    4    4  503    0 -0.11791306735E+03 -0.17023917770E+02 -0.25434629071E+03  0.28090466501E+03  0.47000000000E+01 0. -1.
         -5    1    3    3    0  502  0.12128441592E+03 -0.11302286741E+02  0.28690508665E+02  0.12523133201E+03  0.47000000000E+01 0.  1.
<mgrwt>
<rscale>  0 0.16785422E+03</rscale>
<asrwt>0</asrwt>
<pdfrwt beam="1">  1        2 0.79800175E-01 0.16849496E+03</pdfrwt>
<pdfrwt beam="2">  1       -2 0.14863761E-01 0.16849496E+03</pdfrwt>
<totfact> 0.20496224E+03</totfact>
</mgrwt>
</event>
<event>
 8    1  0.5224537E-004  0.9214793E+02  0.7546771E-02  0.1298607E+00
         -3   -1    0    0    0  501 -0.00000000000E+00  0.00000000000E+00  0.36264849046E+02  0.36264849046E+02  0.00000000000E+00 0.  1.
          3   -1    0    0  501    0  0.00000000000E+00 -0.00000000000E+00 -0.23121616123E+03  0.23121616123E+03  0.00000000000E+00 0. -1.
         23    2    1    2    0    0 -0.11881556224E+02  0.12818391966E+02 -0.10618477540E+03  0.14059319884E+03  0.90475181574E+02 0.  0.
         23    2    1    2    0    0  0.11881556224E+02 -0.12818391966E+02 -0.88766536780E+02  0.12688781144E+03  0.88969298573E+02 0.  0.
          5    1    3    3  502    0  0.19179318224E+02 -0.25189479414E+02 -0.76773295797E+02  0.83178032366E+02  0.47000000000E+01 0. -1.
         -5    1    3    3    0  502 -0.31060874448E+02  0.38007871380E+02 -0.29411479607E+02  0.57415166472E+02  0.47000000000E+01 0.  1.
          5    1    4    4  503    0  0.31348402831E+02  0.53641487352E+01 -0.93992342947E+02  0.99338547324E+02  0.47000000000E+01 0. -1.
         -5    1    4    4    0  503 -0.19466846606E+02 -0.18182540701E+02  0.52258061666E+01  0.27549264114E+02  0.47000000000E+01 0.  1.
<mgrwt>
<rscale>  0 0.91776162E+02</rscale>
<asrwt>0</asrwt>
<pdfrwt beam="1">  1        3 0.35571717E-01 0.92147930E+02</pdfrwt>
<pdfrwt beam="2">  1       -3 0.55792075E-02 0.92147930E+02</pdfrwt>
<totfact> 0.31502315E+03</totfact>
</mgrwt>
</event>
<event>
 8    1  0.5224537E-004  0.1008381E+03  0.7546771E-02  0.1278991E+00
          4   -1    0    0  501    0  0.00000000000E+00  0.00000000000E+00  0.74481902614E+02  0.74481902614E+02  0.00000000000E+00 0. -1.
         -4   -1    0    0    0  501 -0.00000000000E+00 -0.00000000000E+00 -0.13825047160E+03  0.13825047160E+03  0.00000000000E+00 0.  1.
         23    2    1    2    0    0 -0.14837263370E+02 -0.36670612593E+02 -0.47120204034E+02  0.11052918454E+03  0.91823247576E+02 0.  0.
         23    2    1    2    0    0  0.14837263370E+02  0.36670612593E+02 -0.16648364956E+02  0.10220318967E+03  0.92754761125E+02 0.  0.
          5    1    4    4  502    0  0.38556945356E+02  0.34614118391E+02  0.22064275098E+02  0.56512807953E+02  0.47000000000E+01 0. -1.
         -5    1    4    4    0  502 -0.23719681985E+02  0.20564942026E+01 -0.38712640053E+02  0.45690381721E+02  0.47000000000E+01 0.  1.
          5    1    3    3  503    0 -0.38657086652E+02  0.10830789871E+02 -0.16828967839E+01  0.40454894626E+02  0.47000000000E+01 0. -1.
         -5    1    3    3    0  503  0.23819823281E+02 -0.47501402465E+02 -0.45437307250E+02  0.70074289918E+02  0.47000000000E+01 0.  1.
<mgrwt>
<rscale>  0 0.10062338E+03</rscale>
<asrwt>0</asrwt>
<pdfrwt beam="1">  1        4 0.11458754E-01 0.10083811E+03</pdfrwt>
<pdfrwt beam="2">  1       -4 0.21269303E-01 0.10083811E+03</pdfrwt>
<totfact> 0.18583392E+03</totfact>
</mgrwt>
</event>
<event>
 8    1  0.5224537E-004  0.9490626E+02  0.7546771E-02  0.1291631E+00
         -1   -1    0    0    0  501 -0.00000000000E+00  0.00000000000E+00  0.13883337316E+03  0.13883337316E+03  0.00000000000E+00 0.  1.
          1   -1    0    0  501    0  0.00000000000E+00 -0.00000000000E+00 -0.18017736241E+03  0.18017736241E+03  0.00000000000E+00 0. -1.
         23    2    1    2    0    0  0.24071914230E+02  0.10332392146E+02  0.10710421464E+03  0.14281746905E+03  0.90770597059E+02 0.  0.
         23    2    1    2    0    0 -0.24071914230E+02 -0.10332392146E+02 -0.14844820390E+03  0.17619326652E+03  0.91219419773E+02 0.  0.
          5    1    3    3  502    0 -0.24120012016E+02  0.26940242311E+02  0.19492370705E+02  0.41347238736E+02  0.47000000000E+01 0. -1.
         -5    1    4    4    0  503  0.11314103272E+02  0.24522299328E+02 -0.10251504530E+02  0.29266626767E+02  0.47000000000E+01 0.  1.
          5    1    4    4  503    0 -0.35386017502E+02 -0.34854691474E+02 -0.13819669937E+03  0.14692663975E+03  0.47000000000E+01 0. -1.
         -5    1    3    3    0  502  0.48191926245E+02 -0.16607850165E+02  0.87611843937E+02  0.10147023032E+03  0.47000000000E+01 0.  1.
<mgrwt>
<rscale>  0 0.94798248E+02</rscale>
<asrwt>0</asrwt>
<pdfrwt beam="1">  1        1 0.27719594E-01 0.94906259E+02</pdfrwt>
<pdfrwt beam="2">  1       -1 0.21358980E-01 0.94906259E+02</pdfrwt>
<totfact> 0.28803412E+03</totfact>
</mgrwt>
</event>
<event>
 8    1  0.5224537E-004  0.9651960E+02  0.7546771E-02  0.1289894E+00
         -1   -1    0    0    0  501 -0.00000000000E+00  0.00000000000E+00  0.48040738276E+03  0.48040738276E+03  0.00000000000E+00 0.  1.
          1   -1    0    0  501    0  0.00000000000E+00 -0.00000000000E+00 -0.18873427292E+02  0.18873427292E+02  0.00000000000E+00 0. -1.
         23    2    1    2    0    0 -0.62809898809E+01 -0.84469299759E+01  0.25351562450E+03  0.26996081589E+03  0.92183885739E+02 0.  0.
         23    2    1    2    0    0  0.62809898809E+01  0.84469299759E+01  0.20801833096E+03  0.22931999416E+03  0.95943901546E+02 0.  0.
          5    1    4    4  502    0  0.19885024643E+02  0.41312792461E+02  0.53152601443E+02  0.70352328079E+02  0.47000000000E+01 0. -1.
         -5    1    3    3    0  503 -0.44879378833E+02  0.14259945257E+02  0.14286393695E+03  0.15049816997E+03  0.47000000000E+01 0.  1.
          5    1    3    3  503    0  0.38598388952E+02 -0.22706875233E+02  0.11065168755E+03  0.11946264592E+03  0.47000000000E+01 0. -1.
         -5    1    4    4    0  502 -0.13604034762E+02 -0.32865862485E+02  0.15486572952E+03  0.15896766608E+03  0.47000000000E+01 0.  1.
<mgrwt>
<rscale>  0 0.95571555E+02</rscale>
<asrwt>0</asrwt>
<pdfrwt beam="1">  1        1 0.29036046E-02 0.96519603E+02</pdfrwt>
<pdfrwt beam="2">  1       -1 0.73908819E-01 0.96519603E+02</pdfrwt>
<totfact> 0.63287161E+03</totfact>
</mgrwt>
</event>
<event>
 8    1  0.5224537E-004  0.1005995E+03  0.7546771E-02  0.1280627E+00
          2   -1    0    0  501    0  0.00000000000E+00  0.00000000000E+00  0.23737751031E+02  0.23737751031E+02  0.00000000000E+00 0. -1.
         -2   -1    0    0    0  501 -0.00000000000E+00 -0.00000000000E+00 -0.49359794427E+03  0.49359794427E+03  0.00000000000E+00 0.  1.
         23    2    1    2    0    0 -0.27678442078E+02 -0.81382676425E+01 -0.33598547730E+03  0.34987612737E+03  0.93245568192E+02 0.  0.
         23    2    1    2    0    0  0.27678442078E+02  0.81382676425E+01 -0.13387471594E+03  0.16745956794E+03  0.96373957944E+02 0.  0.
          5    1    4    4  502    0  0.60643150823E+00 -0.35872693062E+02 -0.17818547204E+02  0.40333714076E+02  0.47000000000E+01 0. -1.
         -5    1    3    3    0  503 -0.57426481893E+02 -0.25084902811E+02 -0.22746720469E+03  0.23598828865E+03  0.47000000000E+01 0.  1.
          5    1    3    3  503    0  0.29748039815E+02  0.16946635168E+02 -0.10851827261E+03  0.11388783872E+03  0.47000000000E+01 0. -1.
         -5    1    4    4    0  502  0.27072010570E+02  0.44010960704E+02 -0.11605616874E+03  0.12712585386E+03  0.47000000000E+01 0.  1.
<mgrwt>
<rscale>  0 0.99842829E+02</rscale>
<asrwt>0</asrwt>
<pdfrwt beam="1">  1        2 0.36519619E-02 0.10059954E+03</pdfrwt>
<pdfrwt beam="2">  1       -2 0.75938140E-01 0.10059954E+03</pdfrwt>
<totfact> 0.35568159E+03</totfact>
</mgrwt>
</event>
<event>
 8    1  0.5224537E-004  0.9541804E+02  0.7546771E-02  0.1290404E+00
          1   -1    0    0  501    0  0.00000000000E+00  0.00000000000E+00  0.17365414880E+03  0.17365414880E+03  0.00000000000E+00 0. -1.
         -1   -1    0    0    0  501 -0.00000000000E+00 -0.00000000000E+00 -0.70046746150E+02  0.70046746150E+02  0.00000000000E+00 0.  1.
         23    2    1    2    0    0 -0.10222850486E+02  0.24181821591E+02 -0.95267808642E+01  0.95892447645E+02  0.91735133914E+02 0.  0.
         23    2    1    2    0    0  0.10222850486E+02 -0.24181821591E+02  0.11313418351E+03  0.14780844730E+03  0.91426070941E+02 0.  0.
          5    1    4    4  502    0  0.25225154411E+02 -0.54766930018E+02  0.77211641223E+02  0.98078808002E+02  0.47000000000E+01 0. -1.
         -5    1    3    3    0  503  0.31909008228E+02  0.77593510742E+01  0.22673083410E+02  0.40181476411E+02  0.47000000000E+01 0. -1.
          5    1    3    3  503    0 -0.42131858715E+02  0.16422470517E+02 -0.32199864274E+02  0.55710971235E+02  0.47000000000E+01 0.  1.
         -5    1    4    4    0  502 -0.15002303925E+02  0.30585108427E+02  0.35922542291E+02  0.49729639303E+02  0.47000000000E+01 0.  1.
<mgrwt>
<rscale>  0 0.95343677E+02</rscale>
<asrwt>0</asrwt>
<pdfrwt beam="1">  1        1 0.26716023E-01 0.95418038E+02</pdfrwt>
<pdfrwt beam="2">  1       -1 0.10776423E-01 0.95418038E+02</pdfrwt>
<totfact> 0.87406915E+03</totfact>
</mgrwt>
</event>
<event>
 8    1  0.5224537E-004  0.1048228E+03  0.7546771E-02  0.1271083E+00
          3   -1    0    0  501    0  0.00000000000E+00  0.00000000000E+00  0.46546570869E+03  0.46546570869E+03  0.00000000000E+00 0. -1.
         -3   -1    0    0    0  501 -0.00000000000E+00 -0.00000000000E+00 -0.23377117476E+02  0.23377117476E+02  0.00000000000E+00 0.  1.
         23    2    1    2    0    0 -0.47342708841E+02  0.15268747728E+02  0.23349812774E+03  0.25594765677E+03  0.92267874203E+02 0.  0.
         23    2    1    2    0    0  0.47342708841E+02 -0.15268747728E+02  0.20859046348E+03  0.23289516940E+03  0.90860947267E+02 0.  0.
          5    1    3    3  502    0 -0.55321621543E+02 -0.25206194156E+02  0.11158432682E+03  0.12715732785E+03  0.47000000000E+01 0. -1.
         -5    1    3    3    0  502  0.79789127024E+01  0.40474941884E+02  0.12191380092E+03  0.12879032892E+03  0.47000000000E+01 0.  1.
          5    1    4    4  503    0  0.41986824942E+02 -0.51427226674E+02  0.14065658510E+03  0.15560854103E+03  0.47000000000E+01 0. -1.
         -5    1    4    4    0  503  0.53558838986E+01  0.36158478946E+02  0.67933878382E+02  0.77286628365E+02  0.47000000000E+01 0.  1.
<mgrwt>
<rscale>  0 0.10451240E+03</rscale>
<asrwt>0</asrwt>
<pdfrwt beam="1">  1        3 0.71610102E-01 0.10482284E+03</pdfrwt>
<pdfrwt beam="2">  1       -3 0.35964800E-02 0.10482284E+03</pdfrwt>
<totfact> 0.15981017E+03</totfact>
</mgrwt>
</event>
<event>
 7    1  0.5224537E-004  0.1907726E+03  0.7546771E-02  0.1188868E+00
         -2   -1    0    0    0  501 -0.00000000000E+00  0.00000000000E+00  0.18740401634E+02  0.18740401634E+02  0.00000000000E+00 0.  1.
          2   -1    0    0  501    0  0.00000000000E+00 -0.00000000000E+00 -0.11720216833E+04  0.11720216833E+04  0.00000000000E+00 0. -1.
         23    2    1    2    0    0  0.20077603995E+02  0.11718607346E+02 -0.23991353981E+03  0.25768394351E+03  0.91115707852E+02 0.  0.
          5    1    3    3  502    0 -0.14197241147E+01 -0.36625234564E+02 -0.13667646106E+03  0.14158378590E+03  0.47000000000E+01 0. -1.
         -5    1    1    2    0  503  0.43661895740E+02 -0.56438980577E+02 -0.15490443261E+03  0.17061416386E+03  0.47000000000E+01 0.  1.
          5    1    1    2  503    0 -0.63739499735E+02  0.44720373231E+02 -0.75846330924E+03  0.76246397756E+03  0.47000000000E+01 0. -1.
         -5    1    3    3    0  502  0.21497328110E+02  0.48343841910E+02 -0.10323707875E+03  0.11610015760E+03  0.47000000000E+01 0.  1.
<mgrwt>
<rscale>  0 0.15984864E+03</rscale>
<asrwt>0</asrwt>
<pdfrwt beam="1">  1        2 0.18031098E+00 0.19077260E+03</pdfrwt>
<pdfrwt beam="2">  1       -2 0.28831396E-02 0.19077260E+03</pdfrwt>
<totfact> 0.91775009E+03</totfact>
</mgrwt>
</event>
<event>
 8    1  0.5224537E-004  0.9559350E+02  0.7546771E-02  0.1291332E+00
          2   -1    0    0  501    0  0.00000000000E+00  0.00000000000E+00  0.81570825706E+03  0.81570825706E+03  0.00000000000E+00 0. -1.
         -2   -1    0    0    0  501 -0.00000000000E+00 -0.00000000000E+00 -0.10897428046E+02  0.10897428046E+02  0.00000000000E+00 0.  1.
         23    2    1    2    0    0 -0.28431352354E+02  0.12503989418E+01  0.39608654871E+03  0.40685140720E+03  0.88507673024E+02 0.  0.
         23    2    1    2    0    0  0.28431352354E+02 -0.12503989418E+01  0.40872428031E+03  0.41975427790E+03  0.91259033573E+02 0.  0.
          5    1    3    3  502    0  0.25810197359E+02  0.14729169074E+02  0.22000035163E+03  0.22204810160E+03  0.47000000000E+01 0. -1.
         -5    1    4    4    0  503 -0.22184567198E+02 -0.24340141679E+02  0.23329068878E+03  0.23565065880E+03  0.47000000000E+01 0.  1.
          5    1    4    4  503    0  0.50615919552E+02  0.23089742738E+02  0.17543359153E+03  0.18410361911E+03  0.47000000000E+01 0. -1.
         -5    1    3    3    0  502 -0.54241549713E+02 -0.13478770132E+02  0.17608619708E+03  0.18480330560E+03  0.47000000000E+01 0.  1.
<mgrwt>
<rscale>  0 0.94930889E+02</rscale>
<asrwt>0</asrwt>
<pdfrwt beam="1">  1        2 0.12549353E+00 0.95593496E+02</pdfrwt>
<pdfrwt beam="2">  1       -2 0.16765280E-02 0.95593496E+02</pdfrwt>
<totfact> 0.31581139E+04</totfact>
</mgrwt>
</event>
<event>
 8    1  0.5224537E-004  0.9425531E+02  0.7546771E-02  0.1297232E+00
          4   -1    0    0  501    0  0.00000000000E+00  0.00000000000E+00  0.35127841610E+02  0.35127841610E+02  0.00000000000E+00 0. -1.
         -4   -1    0    0    0  501 -0.00000000000E+00 -0.00000000000E+00 -0.23402092370E+03  0.23402092370E+03  0.00000000000E+00 0.  1.
         23    2    1    2    0    0 -0.15183397911E+02 -0.65278030072E+01 -0.10938673592E+03  0.14439363222E+03  0.92795017358E+02 0.  0.
         23    2    1    2    0    0  0.15183397911E+02  0.65278030072E+01 -0.89506346165E+02  0.12475513308E+03  0.85318869208E+02 0.  0.
          5    1    3    3  502    0 -0.41975707905E+02 -0.34428232914E+02 -0.54382408214E+02  0.76985710355E+02  0.47000000000E+01 0. -1.
         -5    1    3    3    0  502  0.26792309994E+02  0.27900429907E+02 -0.55004327709E+02  0.67407921868E+02  0.47000000000E+01 0.  1.
          5    1    4    4  503    0  0.46807134467E+02 -0.93225407446E+01 -0.34073398397E+02  0.58829449099E+02  0.47000000000E+01 0. -1.
         -5    1    4    4    0  503 -0.31623736556E+02  0.15850343752E+02 -0.55432947767E+02  0.65925683986E+02  0.47000000000E+01 0.  1.
<mgrwt>
<rscale>  0 0.92361376E+02</rscale>
<asrwt>0</asrwt>
<pdfrwt beam="1">  1        4 0.54042833E-02 0.94255308E+02</pdfrwt>
<pdfrwt beam="2">  1       -4 0.36003219E-01 0.94255308E+02</pdfrwt>
<totfact> 0.23639824E+03</totfact>
</mgrwt>
</event>
<event>
 8    1  0.5224537E-004  0.1053409E+03  0.7546771E-02  0.1269507E+00
         -2   -1    0    0    0  501 -0.00000000000E+00  0.00000000000E+00  0.13167770384E+03  0.13167770384E+03  0.00000000000E+00 0.  1.
          2   -1    0    0  501    0  0.00000000000E+00 -0.00000000000E+00 -0.33314222323E+03  0.33314222323E+03  0.00000000000E+00 0. -1.
         23    2    1    2    0    0  0.27807455539E+02 -0.42876736757E+02  0.10019479248E+03  0.14529675981E+03  0.91980882977E+02 0.  0.
         23    2    1    2    0    0 -0.27807455539E+02  0.42876736757E+02 -0.30165931188E+03  0.31952316726E+03  0.92114303087E+02 0.  0.
          5    1    4    4  502    0 -0.60679882882E+02  0.30278171927E+02 -0.16815374145E+03  0.18137416201E+03  0.47000000000E+01 0.  1.
         -5    1    3    3    0  503  0.19510634661E+01 -0.52271712127E+02  0.10459801273E+03  0.11704261106E+03  0.47000000000E+01 0.  1.
          5    1    3    3  503    0  0.25856392073E+02  0.93949753701E+01 -0.44032202452E+01  0.28254148753E+02  0.47000000000E+01 0. -1.
         -5    1    4    4    0  502  0.32872427343E+02  0.12598564830E+02 -0.13350557043E+03  0.13814900524E+03  0.47000000000E+01 0. -1.
<mgrwt>
<rscale>  0 0.10531177E+03</rscale>
<asrwt>0</asrwt>
<pdfrwt beam="1">  1        2 0.51252650E-01 0.10534094E+03</pdfrwt>
<pdfrwt beam="2">  1       -2 0.20258108E-01 0.10534094E+03</pdfrwt>
<totfact> 0.19429800E+03</totfact>
</mgrwt>
</event>
<event>
 8    1  0.5224537E-004  0.1008600E+03  0.7546771E-02  0.1280796E+00
         -2   -1    0    0    0  501 -0.00000000000E+00  0.00000000000E+00  0.29025348500E+02  0.29025348500E+02  0.00000000000E+00 0.  1.
          2   -1    0    0  501    0  0.00000000000E+00 -0.00000000000E+00 -0.38651521828E+03  0.38651521828E+03  0.00000000000E+00 0. -1.
         23    2    1    2    0    0 -0.49751116891E+01 -0.40088632338E+02 -0.99980220295E+02  0.13898324954E+03  0.87683801366E+02 0.  0.
         23    2    1    2    0    0  0.49751116891E+01  0.40088632338E+02 -0.25750964948E+03  0.27655731724E+03  0.92416881380E+02 0.  0.
          5    1    3    3  502    0 -0.34619208098E+02 -0.39820365372E+02 -0.94695983855E+02  0.10850608474E+03  0.47000000000E+01 0. -1.
         -5    1    3    3    0  502  0.29644096409E+02 -0.26826696583E+00 -0.52842364398E+01  0.30477164793E+02  0.47000000000E+01 0.  1.
          5    1    4    4  503    0  0.20679040207E+01  0.69137151077E+02 -0.20347031078E+03  0.21495692418E+03  0.47000000000E+01 0. -1.
         -5    1    4    4    0  503  0.29072076685E+01 -0.29048518739E+02 -0.54039338704E+02  0.61600393058E+02  0.47000000000E+01 0.  1.
<mgrwt>
<rscale>  0 0.99762610E+02</rscale>
<asrwt>0</asrwt>
<pdfrwt beam="1">  1        2 0.59463884E-01 0.10085995E+03</pdfrwt>
<pdfrwt beam="2">  1       -2 0.44654379E-02 0.10085995E+03</pdfrwt>
<totfact> 0.17622881E+04</totfact>
</mgrwt>
</event>
<event>
 8    1  0.5224537E-004  0.1635714E+03  0.7546771E-02  0.1185856E+00
         -2   -1    0    0    0  501 -0.00000000000E+00  0.00000000000E+00  0.18880559502E+02  0.18880559502E+02  0.00000000000E+00 0.  1.
          2   -1    0    0  501    0  0.00000000000E+00 -0.00000000000E+00 -0.14283087634E+04  0.14283087634E+04  0.00000000000E+00 0. -1.
         23    2    1    2    0    0  0.13245332607E+03  0.11746890112E+02 -0.84363451674E+03  0.85934556789E+03  0.95256150469E+02 0.  0.
         23    2    1    2    0    0 -0.13245332607E+03 -0.11746890112E+02 -0.56579368715E+03  0.58784375501E+03  0.88067649366E+02 0.  0.
          5    1    3    3  502    0  0.50207411146E+01 -0.28400994936E+02 -0.18316438140E+03  0.18548074015E+03  0.47000000000E+01 0. -1.
         -5    1    3    3    0  502  0.12743258496E+03  0.40147885048E+02 -0.66047013534E+03  0.67386482773E+03  0.47000000000E+01 0.  1.
          5    1    4    4  503    0 -0.76197073235E+02 -0.48666348810E+02 -0.28359517848E+03  0.29769568813E+03  0.47000000000E+01 0. -1.
         -5    1    4    4    0  503 -0.56256252836E+02  0.36919458698E+02 -0.28219850867E+03  0.29014806687E+03  0.47000000000E+01 0.  1.
<mgrwt>
<rscale>  0 0.16254195E+03</rscale>
<asrwt>0</asrwt>
<pdfrwt beam="1">  1        2 0.21973984E+00 0.16357141E+03</pdfrwt>
<pdfrwt beam="2">  1       -2 0.29047010E-02 0.16357141E+03</pdfrwt>
<totfact> 0.65390149E+03</totfact>
</mgrwt>
</event>
<event>
 8    1  0.5224537E-004  0.1062834E+03  0.7546771E-02  0.1268985E+00
          2   -1    0    0  501    0  0.00000000000E+00  0.00000000000E+00  0.19196073489E+03  0.19196073489E+03  0.00000000000E+00 0. -1.
         -2   -1    0    0    0  501 -0.00000000000E+00 -0.00000000000E+00 -0.58410550528E+02  0.58410550528E+02  0.00000000000E+00 0.  1.
         23    2    1    2    0    0  0.49485066077E+02 -0.61608435563E+01  0.50462437252E+02  0.11765463998E+03  0.93858558361E+02 0.  0.
         23    2    1    2    0    0 -0.49485066077E+02  0.61608435563E+01  0.83087747114E+02  0.13271664544E+03  0.90683000052E+02 0.  0.
          5    1    4    4  502    0 -0.30677674115E+02 -0.40200757096E+02  0.56111248453E+02  0.75682116535E+02  0.47000000000E+01 0. -1.
         -5    1    3    3    0  503  0.77509451506E+02 -0.38750461107E+01  0.38100853892E+02  0.86582308369E+02  0.47000000000E+01 0.  1.
          5    1    3    3  503    0 -0.28024385429E+02 -0.22857974457E+01  0.12361583360E+02  0.31072331612E+02  0.47000000000E+01 0. -1.
         -5    1    4    4    0  502 -0.18807391962E+02  0.46361600653E+02  0.26976498661E+02  0.57034528905E+02  0.47000000000E+01 0.  1.
<mgrwt>
<rscale>  0 0.10557799E+03</rscale>
<asrwt>0</asrwt>
<pdfrwt beam="1">  1        2 0.29532420E-01 0.10628338E+03</pdfrwt>
<pdfrwt beam="2">  1       -2 0.89862387E-02 0.10628338E+03</pdfrwt>
<totfact> 0.12888715E+04</totfact>
</mgrwt>
</event>
<event>
 8    1  0.5224537E-004  0.9980182E+02  0.7546771E-02  0.1282243E+00
          2   -1    0    0  501    0  0.00000000000E+00  0.00000000000E+00  0.43628502433E+03  0.43628502433E+03  0.00000000000E+00 0. -1.
         -2   -1    0    0    0  501 -0.00000000000E+00 -0.00000000000E+00 -0.42491304544E+02  0.42491304544E+02  0.00000000000E+00 0.  1.
         23    2    1    2    0    0  0.20304565268E+02 -0.19513609952E+02  0.32894017080E+02  0.10508291343E+03  0.95746258364E+02 0.  0.
         23    2    1    2    0    0 -0.20304565268E+02  0.19513609952E+02  0.36089970271E+03  0.37369341545E+03  0.92763769817E+02 0.  0.
          5    1    3    3  502    0 -0.10335653377E+02  0.23161866274E+02  0.44165202538E+02  0.51146386923E+02  0.47000000000E+01 0. -1.
         -5    1    3    3    0  502  0.30640218645E+02 -0.42675476227E+02 -0.11271185457E+02  0.53936526505E+02  0.47000000000E+01 0.  1.
          5    1    4    4  503    0 -0.42249165165E+02  0.45083357255E+02  0.25704091505E+03  0.26440427960E+03  0.47000000000E+01 0. -1.
         -5    1    4    4    0  503  0.21944599897E+02 -0.25569747302E+02  0.10385878766E+03  0.10928913585E+03  0.47000000000E+01 0.  1.
<mgrwt>
<rscale>  0 0.99079604E+02</rscale>
<asrwt>0</asrwt>
<pdfrwt beam="1">  1        2 0.67120770E-01 0.99801815E+02</pdfrwt>
<pdfrwt beam="2">  1       -2 0.65371241E-02 0.99801815E+02</pdfrwt>
<totfact> 0.87565558E+03</totfact>
</mgrwt>
</event>
<event>
 8    1  0.5224537E-004  0.9939797E+02  0.7546771E-02  0.1281815E+00
          1   -1    0    0  501    0  0.00000000000E+00  0.00000000000E+00  0.93376324290E+02  0.93376324290E+02  0.00000000000E+00 0. -1.
         -1   -1    0    0    0  501 -0.00000000000E+00 -0.00000000000E+00 -0.10791529231E+03  0.10791529231E+03  0.00000000000E+00 0.  1.
         23    2    1    2    0    0  0.35953751172E+02  0.53228584616E+01  0.83817770788E+01  0.99285157533E+02  0.92012408260E+02 0.  0.
         23    2    1    2    0    0 -0.35953751172E+02 -0.53228584616E+01 -0.22920745101E+02  0.10200645907E+03  0.92514604740E+02 0.  0.
          5    1    3    3  502    0 -0.13522019104E+02  0.29202948429E+02 -0.19059175600E+02  0.37696145322E+02  0.47000000000E+01 0. -1.
         -5    1    3    3    0  502  0.49475770276E+02 -0.23880089967E+02  0.27440952679E+02  0.61589012211E+02  0.47000000000E+01 0.  1.
          5    1    4    4  503    0  0.65527428038E+01  0.32929921797E+02  0.10641735510E+02  0.35533853189E+02  0.47000000000E+01 0. -1.
         -5    1    4    4    0  503 -0.42506493976E+02 -0.38252780258E+02 -0.33562480611E+02  0.66472605879E+02  0.47000000000E+01 0.  1.
<mgrwt>
<rscale>  0 0.99280955E+02</rscale>
<asrwt>0</asrwt>
<pdfrwt beam="1">  1        1 0.14365588E-01 0.99397973E+02</pdfrwt>
<pdfrwt beam="2">  1       -1 0.16602353E-01 0.99397973E+02</pdfrwt>
<totfact> 0.98510156E+03</totfact>
</mgrwt>
</event>
<event>
 8    1  0.5224537E-004  0.1002911E+03  0.7546771E-02  0.1282476E+00
          1   -1    0    0  501    0  0.00000000000E+00  0.00000000000E+00  0.18001245219E+03  0.18001245219E+03  0.00000000000E+00 0. -1.
         -1   -1    0    0    0  501 -0.00000000000E+00 -0.00000000000E+00 -0.68083668954E+02  0.68083668954E+02  0.00000000000E+00 0.  1.
         23    2    1    2    0    0 -0.16272631206E+02  0.24845347278E+02 -0.11990600314E+01  0.10029831610E+03  0.95792612764E+02 0.  0.
         23    2    1    2    0    0  0.16272631206E+02 -0.24845347278E+02  0.11312784327E+03  0.14779780504E+03  0.90355920920E+02 0.  0.
          5    1    4    4  502    0 -0.14673769007E+02 -0.41492848425E+02  0.10109304300E+03  0.11035791458E+03  0.47000000000E+01 0. -1.
         -5    1    4    4    0  502  0.30946400213E+02  0.16647501148E+02  0.12034800272E+02  0.37439890467E+02  0.47000000000E+01 0.  1.
          5    1    3    3  503    0  0.24061715024E+02 -0.23855602125E+02 -0.11435312037E+02  0.36068161084E+02  0.47000000000E+01 0. -1.
         -5    1    3    3    0  503 -0.40334346230E+02  0.48700949403E+02  0.10236252005E+02  0.64230155018E+02  0.47000000000E+01 0.  1.
<mgrwt>
<rscale>  0 0.98970490E+02</rscale>
<asrwt>0</asrwt>
<pdfrwt beam="1">  1        1 0.27694223E-01 0.10029115E+03</pdfrwt>
<pdfrwt beam="2">  1       -1 0.10474411E-01 0.10029115E+03</pdfrwt>
<totfact> 0.87658755E+03</totfact>
</mgrwt>
</event>
<event>
 8    1  0.5224537E-004  0.1160525E+03  0.7546771E-02  0.1250932E+00
         -1   -1    0    0    0  501 -0.00000000000E+00  0.00000000000E+00  0.16877135174E+02  0.16877135174E+02  0.00000000000E+00 0.  1.
          1   -1    0    0  501    0  0.00000000000E+00 -0.00000000000E+00 -0.78723354616E+03  0.78723354616E+03  0.00000000000E+00 0. -1.
         23    2    1    2    0    0  0.64887292420E+02 -0.74018445197E+01 -0.34108206033E+03  0.35942579743E+03  0.92654109222E+02 0.  0.
         23    2    1    2    0    0 -0.64887292420E+02  0.74018445197E+01 -0.42927435065E+03  0.44468488391E+03  0.95932423223E+02 0.  0.
          5    1    4    4  502    0 -0.30748580868E+02 -0.42508254304E+02 -0.15242073337E+03  0.16126560969E+03  0.47000000000E+01 0. -1.
         -5    1    4    4    0  502 -0.34138711552E+02  0.49910098824E+02 -0.27685361729E+03  0.28341927421E+03  0.47000000000E+01 0.  1.
          5    1    3    3  503    0  0.28720462399E+02  0.23590166441E+02 -0.27658598755E+03  0.27911155373E+03  0.47000000000E+01 0. -1.
         -5    1    3    3    0  503  0.36166830021E+02 -0.30992010961E+02 -0.64496072779E+02  0.80314243700E+02  0.47000000000E+01 0.  1.
<mgrwt>
<rscale>  0 0.11537280E+03</rscale>
<asrwt>0</asrwt>
<pdfrwt beam="1">  1        1 0.12111284E+00 0.11605248E+03</pdfrwt>
<pdfrwt beam="2">  1       -1 0.25964826E-02 0.11605248E+03</pdfrwt>
<totfact> 0.10472194E+04</totfact>
</mgrwt>
</event>
<event>
 8    1  0.5224537E-004  0.1000778E+03  0.7546771E-02  0.1281146E+00
         -1   -1    0    0    0  501 -0.00000000000E+00  0.00000000000E+00  0.44873051349E+03  0.44873051349E+03  0.00000000000E+00 0.  1.
          1   -1    0    0  501    0  0.00000000000E+00 -0.00000000000E+00 -0.23509993615E+02  0.23509993615E+02  0.00000000000E+00 0. -1.
         23    2    1    2    0    0 -0.31969952626E+02  0.95314845999E+01  0.27256962244E+03  0.28970869058E+03  0.92325507034E+02 0.  0.
         23    2    1    2    0    0  0.31969952626E+02 -0.95314845999E+01  0.15265089744E+03  0.18253181653E+03  0.94353804841E+02 0.  0.
          5    1    4    4  502    0 -0.27251099896E+02  0.16065076327E+02  0.29909038105E+02  0.43787551693E+02  0.47000000000E+01 0. -1.
         -5    1    3    3    0  503 -0.21342433112E+02 -0.40654313413E+02  0.14344113541E+03  0.15068417959E+03  0.47000000000E+01 0.  1.
          5    1    3    3  503    0 -0.10627519514E+02  0.50185798013E+02  0.12912848703E+03  0.13902451099E+03  0.47000000000E+01 0. -1.
         -5    1    4    4    0  502  0.59221052521E+02 -0.25596560927E+02  0.12274185933E+03  0.13874426484E+03  0.47000000000E+01 0.  1.
<mgrwt>
<rscale>  0 0.99596862E+02</rscale>
<asrwt>0</asrwt>
<pdfrwt beam="1">  1        1 0.36169224E-02 0.10007781E+03</pdfrwt>
<pdfrwt beam="2">  1       -1 0.69035457E-01 0.10007781E+03</pdfrwt>
<totfact> 0.53729374E+03</totfact>
</mgrwt>
</event>
<event>
 8    1  0.5224537E-004  0.9143676E+02  0.7546771E-02  0.1300218E+00
          3   -1    0    0  501    0  0.00000000000E+00  0.00000000000E+00  0.16117243184E+03  0.16117243184E+03  0.00000000000E+00 0. -1.
         -3   -1    0    0    0  501 -0.00000000000E+00 -0.00000000000E+00 -0.85367463385E+02  0.85367463385E+02  0.00000000000E+00 0.  1.
         23    2    1    2    0    0  0.14688999200E+01 -0.13786120795E+02  0.11616051978E+03  0.14783080786E+03  0.90379569615E+02 0.  0.
         23    2    1    2    0    0 -0.14688999200E+01  0.13786120795E+02 -0.40355551326E+02  0.98709087363E+02  0.89009542250E+02 0.  0.
          5    1    3    3  502    0 -0.76228522393E+01  0.35216878641E+02  0.73768003370E+02  0.82232260936E+02  0.47000000000E+01 0. -1.
         -5    1    3    3    0  502  0.90917521593E+01 -0.49002999436E+02  0.42392516409E+02  0.65598546924E+02  0.47000000000E+01 0.  1.
          5    1    4    4  503    0  0.26686141375E+02  0.41506991206E+02 -0.28558337947E+02  0.57207072349E+02  0.47000000000E+01 0. -1.
         -5    1    4    4    0  503 -0.28155041295E+02 -0.27720870412E+02 -0.11797213380E+02  0.41502015014E+02  0.47000000000E+01 0.  1.
<mgrwt>
<rscale>  0 0.91096379E+02</rscale>
<asrwt>0</asrwt>
<pdfrwt beam="1">  1        3 0.24795759E-01 0.91436762E+02</pdfrwt>
<pdfrwt beam="2">  1       -3 0.13133456E-01 0.91436762E+02</pdfrwt>
<totfact> 0.15198205E+03</totfact>
</mgrwt>
</event>
<event>
 8    1  0.8189525E-004  0.3357120E+03  0.7546771E-02  0.1069794E+00
          1   -1    0    0  501    0  0.00000000000E+00  0.00000000000E+00  0.12469680885E+03  0.12469680885E+03  0.00000000000E+00 0. -1.
         -1   -1    0    0    0  501 -0.00000000000E+00 -0.00000000000E+00 -0.14590868032E+04  0.14590868032E+04  0.00000000000E+00 0.  1.
         23    2    1    2    0    0 -0.16945432101E+03 -0.26147015334E+03 -0.11615039713E+04  0.12061699268E+04  0.93128991112E+02 0.  0.
         23    2    1    2    0    0  0.16945432101E+03  0.26147015334E+03 -0.17288602304E+03  0.37761368524E+03  0.12498444031E+03 0.  0.
          5    1    3    3  502    0 -0.60393754076E+02 -0.10344823853E+03 -0.29090189998E+03  0.31463462778E+03  0.47000000000E+01 0. -1.
         -5    1    3    3    0  502 -0.10906056694E+03 -0.15802191481E+03 -0.87060207135E+03  0.89153529905E+03  0.47000000000E+01 0.  1.
          5    1    4    4  503    0  0.93318414484E+02  0.23738191258E+03 -0.12175211316E+03  0.28267324946E+03  0.47000000000E+01 0.  1.
         -5    1    4    4    0  503  0.76135906530E+02  0.24088240756E+02 -0.51133909877E+02  0.94940435775E+02  0.47000000000E+01 0.  1.
<mgrwt>
<rscale>  0 0.33305229E+03</rscale>
<asrwt>0</asrwt>
<pdfrwt beam="1">  1        1 0.19184123E-01 0.33571196E+03</pdfrwt>
<pdfrwt beam="2">  1       -1 0.22447490E+00 0.33571196E+03</pdfrwt>
<totfact> 0.30843351E+01</totfact>
</mgrwt>
</event>
<event>
 8    1  0.5224537E-004  0.1056721E+03  0.7546771E-02  0.1268842E+00
         -1   -1    0    0    0  501 -0.00000000000E+00  0.00000000000E+00  0.14544637739E+04  0.14544637739E+04  0.00000000000E+00 0.  1.
          1   -1    0    0  501    0  0.00000000000E+00 -0.00000000000E+00 -0.77050561916E+01  0.77050561916E+01  0.00000000000E+00 0. -1.
         23    2    1    2    0    0 -0.41605769357E+02  0.38640152693E+02  0.67530504012E+03  0.68352285676E+03  0.89120688119E+02 0.  0.
         23    2    1    2    0    0  0.41605769357E+02 -0.38640152693E+02  0.77145367764E+03  0.77864597339E+03  0.89020636293E+02 0.  0.
          5    1    4    4  502    0  0.59773527983E+02  0.17725602981E+01  0.49561188248E+03  0.49922864969E+03  0.47000000000E+01 0. -1.
         -5    1    3    3    0  503 -0.63879934615E+02  0.20191779146E+02  0.57836447888E+03  0.58225073158E+03  0.47000000000E+01 0.  1.
          5    1    3    3  503    0  0.22274165259E+02  0.18448373547E+02  0.96940561237E+02  0.10127212517E+03  0.47000000000E+01 0. -1.
         -5    1    4    4    0  502 -0.18167758627E+02 -0.40412712991E+02  0.27584179516E+03  0.27941732369E+03  0.47000000000E+01 0.  1.
<mgrwt>
<rscale>  0 0.10565103E+03</rscale>
<asrwt>0</asrwt>
<pdfrwt beam="1">  1        1 0.11853944E-02 0.10567213E+03</pdfrwt>
<pdfrwt beam="2">  1       -1 0.22376344E+00 0.10567213E+03</pdfrwt>
<totfact> 0.14288277E+03</totfact>
</mgrwt>
</event>
<event>
 8    1  0.5224537E-004  0.1226743E+03  0.7546771E-02  0.1251660E+00
         -2   -1    0    0    0  501 -0.00000000000E+00  0.00000000000E+00  0.48699358731E+02  0.48699358731E+02  0.00000000000E+00 0.  1.
          2   -1    0    0  501    0  0.00000000000E+00 -0.00000000000E+00 -0.26973635080E+03  0.26973635080E+03  0.00000000000E+00 0. -1.
         23    2    1    2    0    0 -0.22411548004E+02  0.93708460566E+01 -0.14805895306E+03  0.17569543719E+03  0.91418503759E+02 0.  0.
         23    2    1    2    0    0  0.22411548004E+02 -0.93708460566E+01 -0.72978039013E+02  0.14274027234E+03  0.12024517009E+03 0.  0.
          5    1    3    3  502    0 -0.25630684927E+02 -0.34694490168E+02 -0.10590328473E+03  0.11444752236E+03  0.47000000000E+01 0. -1.
         -5    1    3    3    0  502  0.32191369229E+01  0.44065336224E+02 -0.42155668332E+02  0.61247914835E+02  0.47000000000E+01 0.  1.
          5    1    4    4  503    0  0.12431780391E+02 -0.48951806366E+02 -0.85821174586E+02  0.99690483586E+02  0.47000000000E+01 0. -1.
         -5    1    4    4    0  503  0.99797676135E+01  0.39580960309E+02  0.12843135573E+02  0.43049788756E+02  0.47000000000E+01 0.  1.
<mgrwt>
<rscale>  0 0.11495492E+03</rscale>
<asrwt>0</asrwt>
<pdfrwt beam="1">  1        2 0.41497900E-01 0.12267433E+03</pdfrwt>
<pdfrwt beam="2">  1       -2 0.74922090E-02 0.12267433E+03</pdfrwt>
<totfact> 0.12017853E+04</totfact>
</mgrwt>
</event>
<event>
 8    1  0.5224537E-004  0.1083964E+03  0.7546771E-02  0.1265098E+00
          1   -1    0    0  501    0  0.00000000000E+00  0.00000000000E+00  0.46827106950E+02  0.46827106950E+02  0.00000000000E+00 0. -1.
         -1   -1    0    0    0  501 -0.00000000000E+00 -0.00000000000E+00 -0.24408651230E+03  0.24408651230E+03  0.00000000000E+00 0.  1.
         23    2    1    2    0    0 -0.29972795891E+02  0.43801610949E+02 -0.93575619770E+02  0.14319978119E+03  0.94513655639E+02 0.  0.
         23    2    1    2    0    0  0.29972795891E+02 -0.43801610949E+02 -0.10368378558E+03  0.14771383806E+03  0.90841075220E+02 0.  0.
          5    1    3    3  502    0 -0.47024046071E+02  0.21689064743E+02 -0.74376178874E+01  0.52526989236E+02  0.47000000000E+01 0. -1.
         -5    1    3    3    0  502  0.17051250180E+02  0.22112546206E+02 -0.86138001883E+02  0.90672791954E+02  0.47000000000E+01 0.  1.
          5    1    4    4  503    0 -0.10654322415E+02 -0.58628585292E+02 -0.73634842440E+02  0.94842003462E+02  0.47000000000E+01 0.  1.
         -5    1    4    4    0  503  0.40627118306E+02  0.14826974343E+02 -0.30048943140E+02  0.52871834599E+02  0.47000000000E+01 0. -1.
<mgrwt>
<rscale>  0 0.10759076E+03</rscale>
<asrwt>0</asrwt>
<pdfrwt beam="1">  1        1 0.72041703E-02 0.10839641E+03</pdfrwt>
<pdfrwt beam="2">  1       -1 0.37551771E-01 0.10839641E+03</pdfrwt>
<totfact> 0.64648269E+03</totfact>
</mgrwt>
</event>
<event>
 8    1  0.5224537E-004  0.1114448E+03  0.7546771E-02  0.1268148E+00
          1   -1    0    0  501    0  0.00000000000E+00  0.00000000000E+00  0.11711729214E+03  0.11711729214E+03  0.00000000000E+00 0. -1.
         -1   -1    0    0    0  501 -0.00000000000E+00 -0.00000000000E+00 -0.89704617399E+02  0.89704617399E+02  0.00000000000E+00 0.  1.
         23    2    1    2    0    0  0.14409395520E+01 -0.12811905771E+02  0.27802388586E+02  0.95376468406E+02  0.90318750425E+02 0.  0.
         23    2    1    2    0    0 -0.14409395520E+01  0.12811905771E+02 -0.38971384060E+00  0.11144544114E+03  0.11069649153E+03 0.  0.
          5    1    3    3  502    0  0.29665652628E+02  0.27452164232E+02  0.20097539297E+02  0.45383624278E+02  0.47000000000E+01 0. -1.
         -5    1    4    4    0  503  0.52885473096E+01  0.40344783846E+02 -0.43428958347E+02  0.59697862100E+02  0.47000000000E+01 0.  1.
          5    1    4    4  503    0 -0.67294868616E+01 -0.27532878075E+02  0.43039244506E+02  0.51747579037E+02  0.47000000000E+01 0. -1.
         -5    1    3    3    0  502 -0.28224713076E+02 -0.40264070003E+02  0.77048492888E+01  0.49992844128E+02  0.47000000000E+01 0.  1.
<mgrwt>
<rscale>  0 0.10600694E+03</rscale>
<asrwt>0</asrwt>
<pdfrwt beam="1">  1        1 0.18018045E-01 0.11144476E+03</pdfrwt>
<pdfrwt beam="2">  1       -1 0.13800710E-01 0.11144476E+03</pdfrwt>
<totfact> 0.99341488E+03</totfact>
</mgrwt>
</event>
<event>
 8    1  0.5224537E-004  0.9266005E+02  0.7546771E-02  0.1297798E+00
         -4   -1    0    0    0  501 -0.00000000000E+00  0.00000000000E+00  0.99272930139E+02  0.99272930139E+02  0.00000000000E+00 0.  1.
          4   -1    0    0  501    0  0.00000000000E+00 -0.00000000000E+00 -0.84502259458E+02  0.84502259458E+02  0.00000000000E+00 0. -1.
         23    2    1    2    0    0  0.10094622356E+02  0.68756354407E+01  0.69222165356E+01  0.92918254914E+02  0.91851560963E+02 0.  0.
         23    2    1    2    0    0 -0.10094622356E+02 -0.68756354407E+01  0.78484541458E+01  0.90856934683E+02  0.89689512119E+02 0.  0.
          5    1    3    3  502    0  0.57860890360E+01 -0.41755243479E+02 -0.42095110406E+01  0.42623809866E+02  0.47000000000E+01 0. -1.
         -5    1    4    4    0  503  0.30243104889E+02  0.23743345661E+02 -0.30025136331E+01  0.38852245040E+02  0.47000000000E+01 0.  1.
          5    1    4    4  503    0 -0.40337727246E+02 -0.30618981102E+02  0.10850967779E+02  0.52004689642E+02  0.47000000000E+01 0. -1.
         -5    1    3    3    0  502  0.43085333202E+01  0.48630878919E+02  0.11131727576E+02  0.50294445048E+02  0.47000000000E+01 0.  1.
<mgrwt>
<rscale>  0 0.92119658E+02</rscale>
<asrwt>0</asrwt>
<pdfrwt beam="1">  1        4 0.13000348E-01 0.92660051E+02</pdfrwt>
<pdfrwt beam="2">  1       -4 0.15272758E-01 0.92660051E+02</pdfrwt>
<totfact> 0.26334180E+03</totfact>
</mgrwt>
</event>
<event>
 8    1  0.5224537E-004  0.1255690E+03  0.7546771E-02  0.1234882E+00
          3   -1    0    0  501    0  0.00000000000E+00  0.00000000000E+00  0.16923561848E+03  0.16923561848E+03  0.00000000000E+00 0. -1.
         -3   -1    0    0    0  501 -0.00000000000E+00 -0.00000000000E+00 -0.12160646054E+03  0.12160646054E+03  0.00000000000E+00 0.  1.
         23    2    1    2    0    0  0.59700486939E+02 -0.58345395830E+02 -0.47991317220E+02  0.13442745019E+03  0.93804261528E+02 0.  0.
         23    2    1    2    0    0 -0.59700486939E+02  0.58345395830E+02  0.95620475159E+02  0.15641462883E+03  0.91399822142E+02 0.  0.
          5    1    3    3  502    0  0.26666036975E+02 -0.76952325318E+00  0.24143431985E+02  0.36285878823E+02  0.47000000000E+01 0. -1.
         -5    1    3    3    0  502  0.33034449964E+02 -0.57575872577E+02 -0.72134749205E+02  0.98141571367E+02  0.47000000000E+01 0.  1.
          5    1    4    4  503    0 -0.49974658822E+02  0.78045954822E+02  0.96569694300E+02  0.13392697057E+03  0.47000000000E+01 0. -1.
         -5    1    4    4    0  503 -0.97258281168E+01 -0.19700558992E+02 -0.94921914091E+00  0.22487658263E+02  0.47000000000E+01 0.  1.
<mgrwt>
<rscale>  0 0.12512013E+03</rscale>
<asrwt>0</asrwt>
<pdfrwt beam="1">  1        3 0.26036249E-01 0.12556900E+03</pdfrwt>
<pdfrwt beam="2">  1       -3 0.18708686E-01 0.12556900E+03</pdfrwt>
<totfact> 0.80398402E+02</totfact>
</mgrwt>
</event>
<event>
 8    1  0.5224537E-004  0.9141427E+02  0.7546771E-02  0.1301707E+00
         -4   -1    0    0    0  501 -0.00000000000E+00  0.00000000000E+00  0.44886163259E+02  0.44886163259E+02  0.00000000000E+00 0.  1.
          4   -1    0    0  501    0  0.00000000000E+00 -0.00000000000E+00 -0.29943733956E+03  0.29943733956E+03  0.00000000000E+00 0. -1.
         23    2    1    2    0    0 -0.70810206958E+01  0.39979599754E+01 -0.23814908758E+03  0.25509127053E+03  0.91051874475E+02 0.  0.
         23    2    1    2    0    0  0.70810206958E+01 -0.39979599754E+01 -0.16402088718E+02  0.89232232290E+02  0.87334061094E+02 0.  0.
          5    1    4    4  502    0 -0.10434370206E+02  0.20822964688E+02 -0.42642522034E+02  0.48815434295E+02  0.47000000000E+01 0. -1.
         -5    1    4    4    0  502  0.17515390901E+02 -0.24820924663E+02  0.26240433316E+02  0.40416797995E+02  0.47000000000E+01 0.  1.
          5    1    3    3  503    0 -0.71014623925E+01 -0.32576048526E+02 -0.34788235255E+02  0.48414264611E+02  0.47000000000E+01 0.  1.
         -5    1    3    3    0  503  0.20441696707E-01  0.36574008502E+02 -0.20336085232E+03  0.20667700591E+03  0.47000000000E+01 0. -1.
<mgrwt>
<rscale>  0 0.90474255E+02</rscale>
<asrwt>0</asrwt>
<pdfrwt beam="1">  1        4 0.46067284E-01 0.91414268E+02</pdfrwt>
<pdfrwt beam="2">  1       -4 0.69055635E-02 0.91414268E+02</pdfrwt>
<totfact> 0.97506404E+02</totfact>
</mgrwt>
</event>
<event>
 8    1  0.5224537E-004  0.1036999E+03  0.7546771E-02  0.1273030E+00
         -2   -1    0    0    0  501 -0.00000000000E+00  0.00000000000E+00  0.33299207466E+02  0.33299207466E+02  0.00000000000E+00 0.  1.
          2   -1    0    0  501    0  0.00000000000E+00 -0.00000000000E+00 -0.66594557231E+03  0.66594557231E+03  0.00000000000E+00 0. -1.
         23    2    1    2    0    0 -0.55381554075E+01  0.48126036229E+02 -0.56749923686E+03  0.57677923489E+03  0.90951170585E+02 0.  0.
         23    2    1    2    0    0  0.55381554075E+01 -0.48126036229E+02 -0.65147127980E+02  0.12246554489E+03  0.91689011729E+02 0.  0.
          5    1    3    3  502    0  0.13267225395E+02 -0.22765931289E+02 -0.99173599400E+02  0.10272195342E+03  0.47000000000E+01 0.  1.
         -5    1    4    4    0  503  0.21771508733E+02  0.92827024998E+01  0.10239922841E+02  0.26212843760E+02  0.47000000000E+01 0.  1.
          5    1    4    4  503    0 -0.16233353326E+02 -0.57408738729E+02 -0.75387050821E+02  0.96252701126E+02  0.47000000000E+01 0. -1.
         -5    1    3    3    0  502 -0.18805380802E+02  0.70891967518E+02 -0.46832563746E+03  0.47405728146E+03  0.47000000000E+01 0. -1.
<mgrwt>
<rscale>  0 0.10353653E+03</rscale>
<asrwt>0</asrwt>
<pdfrwt beam="1">  1        2 0.10245317E+00 0.10369986E+03</pdfrwt>
<pdfrwt beam="2">  1       -2 0.51229550E-02 0.10369986E+03</pdfrwt>
<totfact> 0.79411286E+03</totfact>
</mgrwt>
</event>
<event>
 8    1  0.5224537E-004  0.1158580E+03  0.7546771E-02  0.1250156E+00
         -1   -1    0    0    0  501 -0.00000000000E+00  0.00000000000E+00  0.13512195072E+02  0.13512195072E+02  0.00000000000E+00 0.  1.
          1   -1    0    0  501    0  0.00000000000E+00 -0.00000000000E+00 -0.99484697790E+03  0.99484697790E+03  0.00000000000E+00 0. -1.
         23    2    1    2    0    0  0.51494091247E+02 -0.49900831563E+02 -0.46388251711E+03  0.47809515561E+03  0.90808885649E+02 0.  0.
         23    2    1    2    0    0 -0.51494091247E+02  0.49900831563E+02 -0.51745226571E+03  0.53026401736E+03  0.91001903213E+02 0.  0.
          5    1    4    4  502    0 -0.57103579825E+01  0.65976000889E+02 -0.26874539019E+03  0.27682416012E+03  0.47000000000E+01 0. -1.
         -5    1    4    4    0  502 -0.45783733264E+02 -0.16075169327E+02 -0.24870687553E+03  0.25343985723E+03  0.47000000000E+01 0.  1.
          5    1    3    3  503    0  0.64850277634E+02 -0.29443062134E+02 -0.43095131807E+03  0.43682213882E+03  0.47000000000E+01 0. -1.
         -5    1    3    3    0  503 -0.13356186387E+02 -0.20457769428E+02 -0.32931199047E+02  0.41273016796E+02  0.47000000000E+01 0.  1.
<mgrwt>
<rscale>  0 0.11582011E+03</rscale>
<asrwt>0</asrwt>
<pdfrwt beam="1">  1        1 0.15305342E+00 0.11585802E+03</pdfrwt>
<pdfrwt beam="2">  1       -1 0.20787987E-02 0.11585802E+03</pdfrwt>
<totfact> 0.99850060E+03</totfact>
</mgrwt>
</event>
<event>
 8    1  0.5224537E-004  0.1147482E+03  0.7546771E-02  0.1252678E+00
         -1   -1    0    0    0  501 -0.00000000000E+00  0.00000000000E+00  0.22512598017E+02  0.22512598017E+02  0.00000000000E+00 0.  1.
          1   -1    0    0  501    0  0.00000000000E+00 -0.00000000000E+00 -0.98428321894E+03  0.98428321894E+03  0.00000000000E+00 0. -1.
         23    2    1    2    0    0 -0.64316383037E+02  0.21856087184E+02 -0.80641947036E+03  0.81454251908E+03  0.92481714543E+02 0.  0.
         23    2    1    2    0    0  0.64316383037E+02 -0.21856087184E+02 -0.15535115056E+03  0.19225329789E+03  0.90625961474E+02 0.  0.
          5    1    4    4  502    0  0.12543820746E+02  0.30087364910E+02 -0.20834245859E+02  0.38971178666E+02  0.47000000000E+01 0. -1.
         -5    1    3    3    0  503  0.14308943125E+02  0.31531864388E+02 -0.28084190371E+03  0.28300754267E+03  0.47000000000E+01 0.  1.
          5    1    3    3  503    0 -0.78625326161E+02 -0.96757772041E+01 -0.52557756665E+03  0.53153497641E+03  0.47000000000E+01 0. -1.
         -5    1    4    4    0  502  0.51772562290E+02 -0.51943452094E+02 -0.13451690470E+03  0.15328211922E+03  0.47000000000E+01 0.  1.
<mgrwt>
<rscale>  0 0.11437381E+03</rscale>
<asrwt>0</asrwt>
<pdfrwt beam="1">  1        1 0.15142822E+00 0.11474822E+03</pdfrwt>
<pdfrwt beam="2">  1       -1 0.34634759E-02 0.11474822E+03</pdfrwt>
<totfact> 0.48558407E+03</totfact>
</mgrwt>
</event>
<event>
 8    1  0.8140550E-004  0.1118186E+03  0.7546771E-02  0.1257387E+00
         -3   -1    0    0    0  501 -0.00000000000E+00  0.00000000000E+00  0.42256048193E+03  0.42256048193E+03  0.00000000000E+00 0.  1.
          3   -1    0    0  501    0  0.00000000000E+00 -0.00000000000E+00 -0.10531260851E+03  0.10531260851E+03  0.00000000000E+00 0. -1.
         23    2    1    2    0    0 -0.57789514917E+02  0.27745002710E+02 -0.65375919851E+02  0.12924499165E+03  0.91218659053E+02 0.  0.
         23    2    1    2    0    0  0.57789514917E+02 -0.27745002710E+02  0.38262379327E+03  0.39862809880E+03  0.91618670397E+02 0.  0.
          5    1    4    4  502    0 -0.77386077985E+00 -0.44806184278E+02  0.10357526838E+03  0.11295184474E+03  0.47000000000E+01 0. -1.
         -5    1    3    3    0  503  0.10736231577E+02  0.19170901057E+02  0.11961104976E+02  0.25454825634E+02  0.47000000000E+01 0.  1.
          5    1    3    3  503    0 -0.68525746494E+02  0.85741016531E+01 -0.77337024826E+02  0.10379016601E+03  0.47000000000E+01 0. -1.
         -5    1    4    4    0  502  0.58563375697E+02  0.17061181569E+02  0.27904852489E+03  0.28567625406E+03  0.47000000000E+01 0.  1.
<mgrwt>
<rscale>  0 0.11173661E+03</rscale>
<asrwt>0</asrwt>
<pdfrwt beam="1">  1        3 0.16201940E-01 0.11181858E+03</pdfrwt>
<pdfrwt beam="2">  1       -3 0.65009304E-01 0.11181858E+03</pdfrwt>
<totfact> 0.17266954E+02</totfact>
</mgrwt>
</event>
<event>
 8    1  0.5224537E-004  0.9695008E+02  0.7546771E-02  0.1287185E+00
          1   -1    0    0  501    0  0.00000000000E+00  0.00000000000E+00  0.44609378082E+03  0.44609378082E+03  0.00000000000E+00 0. -1.
         -1   -1    0    0    0  501 -0.00000000000E+00 -0.00000000000E+00 -0.21084161171E+02  0.21084161171E+02  0.00000000000E+00 0.  1.
         23    2    1    2    0    0 -0.27903335084E+02 -0.17966972333E+02  0.19356321947E+03  0.21648565468E+03  0.91092867704E+02 0.  0.
         23    2    1    2    0    0  0.27903335084E+02  0.17966972333E+02  0.23144640017E+03  0.25069228730E+03  0.90431070758E+02 0.  0.
          5    1    4    4  502    0  0.20561854078E+02  0.41580155550E+02  0.21640322899E+03  0.22136880245E+03  0.47000000000E+01 0. -1.
         -5    1    3    3    0  503 -0.91262414012E+01 -0.41996635170E+02  0.17546705494E+03  0.18071464527E+03  0.47000000000E+01 0.  1.
          5    1    3    3  503    0 -0.18777093683E+02  0.24029662837E+02  0.18096164536E+02  0.35771009409E+02  0.47000000000E+01 0. -1.
         -5    1    4    4    0  502  0.73414810059E+01 -0.23613183217E+02  0.15043171177E+02  0.29323484856E+02  0.47000000000E+01 0.  1.
<mgrwt>
<rscale>  0 0.96794322E+02</rscale>
<asrwt>0</asrwt>
<pdfrwt beam="1">  1        1 0.68629805E-01 0.96950084E+02</pdfrwt>
<pdfrwt beam="2">  1       -1 0.32437174E-02 0.96950084E+02</pdfrwt>
<totfact> 0.16142970E+04</totfact>
</mgrwt>
</event>
<event>
 8    1  0.5224537E-004  0.9257456E+02  0.7546771E-02  0.1303454E+00
         -1   -1    0    0    0  501 -0.00000000000E+00  0.00000000000E+00  0.52624232778E+03  0.52624232778E+03  0.00000000000E+00 0.  1.
          1   -1    0    0  501    0  0.00000000000E+00 -0.00000000000E+00 -0.14506039099E+02  0.14506039099E+02  0.00000000000E+00 0. -1.
         23    2    1    2    0    0  0.57618065897E+01 -0.13489920174E+02  0.22236413816E+03  0.23692886402E+03  0.80463036870E+02 0.  0.
         23    2    1    2    0    0 -0.57618065897E+01  0.13489920174E+02  0.28937215051E+03  0.30381950286E+03  0.91404991450E+02 0.  0.
          5    1    4    4  502    0  0.25105283117E+02  0.52004937028E+01  0.20897561741E+02  0.33408359161E+02  0.47000000000E+01 0. -1.
         -5    1    3    3    0  503  0.43216348769E+01 -0.44241111906E+02  0.17200922712E+03  0.17772230228E+03  0.47000000000E+01 0.  1.
          5    1    3    3  503    0  0.14401717127E+01  0.30751191732E+02  0.50354911041E+02  0.59206561743E+02  0.47000000000E+01 0. -1.
         -5    1    4    4    0  502 -0.30867089707E+02  0.82894264712E+01  0.26847458877E+03  0.27041114369E+03  0.47000000000E+01 0.  1.
<mgrwt>
<rscale>  0 0.89751715E+02</rscale>
<asrwt>0</asrwt>
<pdfrwt beam="1">  1        1 0.22316987E-02 0.92574558E+02</pdfrwt>
<pdfrwt beam="2">  1       -1 0.80960344E-01 0.92574558E+02</pdfrwt>
<totfact> 0.75391429E+03</totfact>
</mgrwt>
</event>
<event>
 8    1  0.5224537E-004  0.1140159E+03  0.7546771E-02  0.1255880E+00
         -1   -1    0    0    0  501 -0.00000000000E+00  0.00000000000E+00  0.13233813669E+02  0.13233813669E+02  0.00000000000E+00 0.  1.
          1   -1    0    0  501    0  0.00000000000E+00 -0.00000000000E+00 -0.93897441870E+03  0.93897441870E+03  0.00000000000E+00 0. -1.
         23    2    1    2    0    0 -0.42677553932E+02 -0.43162977839E+02 -0.44026338120E+03  0.45478728223E+03  0.96515340647E+02 0.  0.
         23    2    1    2    0    0  0.42677553932E+02  0.43162977839E+02 -0.48547722382E+03  0.49742095014E+03  0.89749933263E+02 0.  0.
          5    1    4    4  502    0 -0.27352594522E+02  0.19556551513E+02 -0.13473791019E+03  0.13894969441E+03  0.47000000000E+01 0. -1.
         -5    1    4    4    0  502  0.70030148454E+02  0.23606426326E+02 -0.35073931364E+03  0.35847125573E+03  0.47000000000E+01 0.  1.
          5    1    3    3  503    0 -0.70417901039E+02 -0.12020454165E+02 -0.25749395214E+03  0.26726091651E+03  0.47000000000E+01 0. -1.
         -5    1    3    3    0  503  0.27740347108E+02 -0.31142523674E+02 -0.18276942906E+03  0.18752636571E+03  0.47000000000E+01 0.  1.
<mgrwt>
<rscale>  0 0.11257194E+03</rscale>
<asrwt>0</asrwt>
<pdfrwt beam="1">  1        1 0.14445759E+00 0.11401591E+03</pdfrwt>
<pdfrwt beam="2">  1       -1 0.20359715E-02 0.11401591E+03</pdfrwt>
<totfact> 0.11301291E+04</totfact>
</mgrwt>
</event>
<event>
 8    1  0.5224537E-004  0.1146173E+03  0.7546771E-02  0.1253369E+00
          1   -1    0    0  501    0  0.00000000000E+00  0.00000000000E+00  0.22276696617E+03  0.22276696617E+03  0.00000000000E+00 0. -1.
         -1   -1    0    0    0  501 -0.00000000000E+00 -0.00000000000E+00 -0.24065694105E+03  0.24065694105E+03  0.00000000000E+00 0.  1.
         23    2    1    2    0    0 -0.61770201108E+02 -0.28155827422E+02 -0.21100932818E+03  0.24012925719E+03  0.92351584805E+02 0.  0.
         23    2    1    2    0    0  0.61770201108E+02  0.28155827422E+02  0.19311935331E+03  0.22329465003E+03  0.89202621846E+02 0.  0.
          5    1    3    3  502    0 -0.22382647436E+02 -0.64908294493E+01  0.56534250385E+00  0.23780735593E+02  0.47000000000E+01 0. -1.
         -5    1    4    4    0  503  0.18694201856E+02  0.92624196159E+01 -0.29670660011E+01  0.21590717469E+02  0.47000000000E+01 0.  1.
          5    1    4    4  503    0  0.43075999251E+02  0.18893407806E+02  0.19608641931E+03  0.20170393256E+03  0.47000000000E+01 0. -1.
         -5    1    3    3    0  502 -0.39387553672E+02 -0.21664997972E+02 -0.21157467069E+03  0.21634852160E+03  0.47000000000E+01 0.  1.
<mgrwt>
<rscale>  0 0.11398159E+03</rscale>
<asrwt>0</asrwt>
<pdfrwt beam="1">  1        1 0.34271841E-01 0.11461729E+03</pdfrwt>
<pdfrwt beam="2">  1       -1 0.37024145E-01 0.11461729E+03</pdfrwt>
<totfact> 0.89747121E+02</totfact>
</mgrwt>
</event>
<event>
 8    1  0.5224537E-004  0.9266576E+02  0.7546771E-02  0.1297440E+00
          1   -1    0    0  501    0  0.00000000000E+00  0.00000000000E+00  0.29935756877E+03  0.29935756877E+03  0.00000000000E+00 0. -1.
         -1   -1    0    0    0  501 -0.00000000000E+00 -0.00000000000E+00 -0.48437462008E+02  0.48437462008E+02  0.00000000000E+00 0.  1.
         23    2    1    2    0    0  0.10475847256E+02 -0.64375964496E+01  0.23847533206E+03  0.25584649265E+03  0.91846381400E+02 0.  0.
         23    2    1    2    0    0 -0.10475847256E+02  0.64375964496E+01  0.12444774705E+02  0.91948538131E+02  0.90268905074E+02 0.  0.
          5    1    4    4  502    0  0.19326531514E+02  0.21941317151E+02 -0.26894452664E+02  0.40004222312E+02  0.47000000000E+01 0. -1.
         -5    1    4    4    0  502 -0.29802378770E+02 -0.15503720702E+02  0.39339227369E+02  0.51944315819E+02  0.47000000000E+01 0.  1.
          5    1    3    3  503    0 -0.14309258855E+02  0.38268948617E+02  0.11462193465E+03  0.12177662017E+03  0.47000000000E+01 0. -1.
         -5    1    3    3    0  503  0.24785106110E+02 -0.44706545066E+02  0.12385339741E+03  0.13406987248E+03  0.47000000000E+01 0.  1.
<mgrwt>
<rscale>  0 0.92272445E+02</rscale>
<asrwt>0</asrwt>
<pdfrwt beam="1">  1        1 0.46055009E-01 0.92665764E+02</pdfrwt>
<pdfrwt beam="2">  1       -1 0.74519174E-02 0.92665764E+02</pdfrwt>
<totfact> 0.77884268E+03</totfact>
</mgrwt>
</event>
<event>
 8    1  0.5224537E-004  0.3023224E+03  0.7546771E-02  0.1084646E+00
          1   -1    0    0  501    0  0.00000000000E+00  0.00000000000E+00  0.10538587048E+04  0.10538587048E+04  0.00000000000E+00 0. -1.
         -1   -1    0    0    0  501 -0.00000000000E+00 -0.00000000000E+00 -0.34933616410E+03  0.34933616410E+03  0.00000000000E+00 0.  1.
         23    2    1    2    0    0  0.17669195509E+02 -0.28259034719E+03 -0.25687846612E+03  0.39671823228E+03  0.10596841354E+03 0.  0.
         23    2    1    2    0    0 -0.17669195509E+02  0.28259034719E+03  0.96140100678E+03  0.10064766366E+04  0.92378673645E+02 0.  0.
          5    1    3    3  502    0  0.95691366984E+00 -0.18881671622E+03 -0.10154067320E+03  0.21444175508E+03  0.47000000000E+01 0. -1.
         -5    1    3    3    0  502  0.16712281839E+02 -0.93773630972E+02 -0.15533779292E+03  0.18227647720E+03  0.47000000000E+01 0.  1.
          5    1    4    4  503    0 -0.41018888184E+02  0.15647982628E+03  0.42072188624E+03  0.45077431247E+03  0.47000000000E+01 0. -1.
         -5    1    4    4    0  503  0.23349692675E+02  0.12611052091E+03  0.54067912054E+03  0.55570232411E+03  0.47000000000E+01 0.  1.
<mgrwt>
<rscale>  0 0.30119322E+03</rscale>
<asrwt>0</asrwt>
<pdfrwt beam="1">  1        1 0.16213211E+00 0.30232236E+03</pdfrwt>
<pdfrwt beam="2">  1       -1 0.53744026E-01 0.30232236E+03</pdfrwt>
<totfact> 0.52696934E+01</totfact>
</mgrwt>
</event>
<event>
 8    1  0.5224537E-004  0.1090185E+03  0.7546771E-02  0.1263182E+00
          1   -1    0    0  501    0  0.00000000000E+00  0.00000000000E+00  0.90693648745E+02  0.90693648745E+02  0.00000000000E+00 0. -1.
         -1   -1    0    0    0  501 -0.00000000000E+00 -0.00000000000E+00 -0.13027803477E+03  0.13027803477E+03  0.00000000000E+00 0.  1.
         23    2    1    2    0    0  0.37929826870E+02  0.43712842655E+02 -0.92626843825E+01  0.10941128234E+03  0.92388024128E+02 0.  0.
         23    2    1    2    0    0 -0.37929826870E+02 -0.43712842655E+02 -0.30321701642E+02  0.11156040117E+03  0.90425843320E+02 0.  0.
          5    1    4    4  502    0 -0.56098098933E+02  0.12960758352E+01 -0.47809444702E+01  0.56512157511E+02  0.47000000000E+01 0. -1.
         -5    1    3    3    0  503  0.65206823612E+02  0.30241647344E+02 -0.23122419688E+02  0.75651988552E+02  0.47000000000E+01 0.  1.
          5    1    3    3  503    0 -0.27276996742E+02  0.13471195312E+02  0.13859735306E+02  0.33759293789E+02  0.47000000000E+01 0. -1.
         -5    1    4    4    0  502  0.18168272063E+02 -0.45008918491E+02 -0.25540757172E+02  0.55048243663E+02  0.47000000000E+01 0.  1.
<mgrwt>
<rscale>  0 0.10860166E+03</rscale>
<asrwt>0</asrwt>
<pdfrwt beam="1">  1        1 0.13952869E-01 0.10901849E+03</pdfrwt>
<pdfrwt beam="2">  1       -1 0.20042774E-01 0.10901849E+03</pdfrwt>
<totfact> 0.76553839E+03</totfact>
</mgrwt>
</event>
<event>
 8    1  0.5224537E-004  0.1072533E+03  0.7546771E-02  0.1265838E+00
          2   -1    0    0  501    0  0.00000000000E+00  0.00000000000E+00  0.48242107144E+03  0.48242107144E+03  0.00000000000E+00 0. -1.
         -2   -1    0    0    0  501 -0.00000000000E+00 -0.00000000000E+00 -0.23937034748E+02  0.23937034748E+02  0.00000000000E+00 0.  1.
         23    2    1    2    0    0 -0.54539008598E+02  0.35072059047E+01  0.24813226031E+03  0.27024130495E+03  0.92054007726E+02 0.  0.
         23    2    1    2    0    0  0.54539008598E+02 -0.35072059047E+01  0.21035177638E+03  0.23611680125E+03  0.92284722740E+02 0.  0.
          5    1    3    3  502    0 -0.47138528542E+02 -0.33333372611E+02  0.20411946162E+03  0.21217916772E+03  0.47000000000E+01 0. -1.
         -5    1    3    3    0  502 -0.74004800559E+01  0.36840578515E+02  0.44012798697E+02  0.58062137229E+02  0.47000000000E+01 0.  1.
          5    1    4    4  503    0  0.39621550986E+02  0.19361704831E+02  0.20252903600E+03  0.20732786436E+03  0.47000000000E+01 0. -1.
         -5    1    4    4    0  503  0.14917457612E+02 -0.22868910736E+02  0.78227403788E+01  0.28788936883E+02  0.47000000000E+01 0.  1.
<mgrwt>
<rscale>  0 0.10720367E+03</rscale>
<asrwt>0</asrwt>
<pdfrwt beam="1">  1        2 0.74218619E-01 0.10725332E+03</pdfrwt>
<pdfrwt beam="2">  1       -2 0.36826211E-02 0.10725332E+03</pdfrwt>
<totfact> 0.18600831E+04</totfact>
</mgrwt>
</event>
<event>
 8    1  0.5224537E-004  0.1005790E+03  0.7546771E-02  0.1286147E+00
         -2   -1    0    0    0  501 -0.00000000000E+00  0.00000000000E+00  0.44168585959E+02  0.44168585959E+02  0.00000000000E+00 0.  1.
          2   -1    0    0  501    0  0.00000000000E+00 -0.00000000000E+00 -0.29639692752E+03  0.29639692752E+03  0.00000000000E+00 0. -1.
         23    2    1    2    0    0 -0.22257873735E+02  0.30898853081E+02 -0.21673090222E+03  0.23390621681E+03  0.79307516774E+02 0.  0.
         23    2    1    2    0    0  0.22257873735E+02 -0.30898853081E+02 -0.35497439334E+02  0.10665929667E+03  0.93091274037E+02 0.  0.
          5    1    4    4  502    0  0.56017317188E+02 -0.18610295161E+02 -0.52250393941E+01  0.59444713370E+02  0.47000000000E+01 0. -1.
         -5    1    3    3    0  503 -0.23734939479E+02  0.51521392666E+02 -0.98284146154E+02  0.11357669056E+03  0.47000000000E+01 0.  1.
          5    1    3    3  503    0  0.14770657442E+01 -0.20622539585E+02 -0.11844675607E+03  0.12032952624E+03  0.47000000000E+01 0. -1.
         -5    1    4    4    0  502 -0.33759443453E+02 -0.12288557920E+02 -0.30272399940E+02  0.47214583300E+02  0.47000000000E+01 0.  1.
<mgrwt>
<rscale>  0 0.97268446E+02</rscale>
<asrwt>0</asrwt>
<pdfrwt beam="1">  1        2 0.45599528E-01 0.10057901E+03</pdfrwt>
<pdfrwt beam="2">  1       -2 0.67951670E-02 0.10057901E+03</pdfrwt>
<totfact> 0.12416101E+04</totfact>
</mgrwt>
</event>
<event>
 8    1  0.5224537E-004  0.2021596E+03  0.7546771E-02  0.1148110E+00
         -3   -1    0    0    0  501 -0.00000000000E+00  0.00000000000E+00  0.11828071731E+03  0.11828071731E+03  0.00000000000E+00 0.  1.
          3   -1    0    0  501    0  0.00000000000E+00 -0.00000000000E+00 -0.34795939902E+03  0.34795939902E+03  0.00000000000E+00 0. -1.
         23    2    1    2    0    0  0.15167925832E+03 -0.97708050709E+02 -0.13932965951E+03  0.24480960921E+03  0.89249818827E+02 0.  0.
         23    2    1    2    0    0 -0.15167925832E+03  0.97708050709E+02 -0.90349022200E+02  0.22143050712E+03  0.91186967776E+02 0.  0.
          5    1    3    3  502    0  0.46728119513E+02  0.97790250529E+01 -0.16587000521E+02  0.50757906483E+02  0.47000000000E+01 0. -1.
         -5    1    3    3    0  502  0.10495113881E+03 -0.10748707576E+03 -0.12274265899E+03  0.19405170272E+03  0.47000000000E+01 0.  1.
          5    1    4    4  503    0 -0.75813041944E+02  0.76751848328E+02 -0.93039066883E+02  0.14253708822E+03  0.47000000000E+01 0. -1.
         -5    1    4    4    0  503 -0.75866216381E+02  0.20956202381E+02  0.26900446836E+01  0.78893418905E+02  0.47000000000E+01 0.  1.
<mgrwt>
<rscale>  0 0.20194271E+03</rscale>
<asrwt>0</asrwt>
<pdfrwt beam="1">  1        3 0.53532215E-01 0.20215965E+03</pdfrwt>
<pdfrwt beam="2">  1       -3 0.18197034E-01 0.20215965E+03</pdfrwt>
<totfact> 0.22572328E+02</totfact>
</mgrwt>
</event>
<event>
 8    1  0.5224537E-004  0.9940819E+02  0.7546771E-02  0.1282262E+00
          2   -1    0    0  501    0  0.00000000000E+00  0.00000000000E+00  0.74030820264E+03  0.74030820264E+03  0.00000000000E+00 0. -1.
         -2   -1    0    0    0  501 -0.00000000000E+00 -0.00000000000E+00 -0.13197870934E+02  0.13197870934E+02  0.00000000000E+00 0.  1.
         23    2    1    2    0    0 -0.32157117675E+02  0.10137805286E+02  0.34834392481E+03  0.36225057375E+03  0.93515415429E+02 0.  0.
         23    2    1    2    0    0  0.32157117675E+02 -0.10137805286E+02  0.37876640690E+03  0.39125549982E+03  0.92087023136E+02 0.  0.
          5    1    3    3  502    0  0.32526921585E+02 -0.28059701676E+01  0.10322137595E+03  0.10836335428E+03  0.47000000000E+01 0. -1.
         -5    1    4    4    0  503 -0.19405787984E+02 -0.34938648751E+02  0.17404993472E+03  0.17864143853E+03  0.47000000000E+01 0.  1.
          5    1    4    4  503    0  0.51562905659E+02  0.24800843465E+02  0.20471647218E+03  0.21261406129E+03  0.47000000000E+01 0. -1.
         -5    1    3    3    0  502 -0.64684039260E+02  0.12943775454E+02  0.24512254885E+03  0.25388721948E+03  0.47000000000E+01 0.  1.
<mgrwt>
<rscale>  0 0.99070846E+02</rscale>
<asrwt>0</asrwt>
<pdfrwt beam="1">  1        2 0.11389354E+00 0.99408190E+02</pdfrwt>
<pdfrwt beam="2">  1       -2 0.20304423E-02 0.99408190E+02</pdfrwt>
<totfact> 0.27084865E+04</totfact>
</mgrwt>
</event>
<event>
 8    1  0.5224537E-004  0.1185432E+03  0.7546771E-02  0.1245900E+00
          4   -1    0    0  501    0  0.00000000000E+00  0.00000000000E+00  0.12022297702E+03  0.12022297702E+03  0.00000000000E+00 0. -1.
         -4   -1    0    0    0  501 -0.00000000000E+00 -0.00000000000E+00 -0.11642899240E+03  0.11642899240E+03  0.00000000000E+00 0.  1.
         23    2    1    2    0    0 -0.62734531770E+02  0.39420789465E+02 -0.53122162179E+01  0.11775955191E+03  0.91375446951E+02 0.  0.
         23    2    1    2    0    0  0.62734531770E+02 -0.39420789465E+02  0.91062008370E+01  0.11889241752E+03  0.92535744072E+02 0.  0.
          5    1    3    3  502    0 -0.26379906357E+02  0.47327886683E+02  0.33431048651E+02  0.63840060551E+02  0.47000000000E+01 0. -1.
         -5    1    4    4    0  503 -0.23046582422E+02 -0.18690783924E+02 -0.58437765575E-01  0.30043032137E+02  0.47000000000E+01 0.  1.
          5    1    4    4  503    0  0.85781114192E+02 -0.20730005541E+02  0.91646386026E+01  0.88849385381E+02  0.47000000000E+01 0. -1.
         -5    1    3    3    0  502 -0.36354625413E+02 -0.79070972180E+01 -0.38743264869E+02  0.53919491355E+02  0.47000000000E+01 0.  1.
<mgrwt>
<rscale>  0 0.11831665E+03</rscale>
<asrwt>0</asrwt>
<pdfrwt beam="1">  1        4 0.18495843E-01 0.11854317E+03</pdfrwt>
<pdfrwt beam="2">  1       -4 0.17912153E-01 0.11854317E+03</pdfrwt>
<totfact> 0.11442220E+03</totfact>
</mgrwt>
</event>
<event>
 8    1  0.5224537E-004  0.1075437E+03  0.7546771E-02  0.1265866E+00
          2   -1    0    0  501    0  0.00000000000E+00  0.00000000000E+00  0.35475159815E+03  0.35475159815E+03  0.00000000000E+00 0. -1.
         -2   -1    0    0    0  501 -0.00000000000E+00 -0.00000000000E+00 -0.48174657678E+02  0.48174657678E+02  0.00000000000E+00 0.  1.
         23    2    1    2    0    0  0.43894096876E+02  0.39734879814E+02  0.37866034712E+02  0.11401527666E+03  0.89778028007E+02 0.  0.
         23    2    1    2    0    0 -0.43894096876E+02 -0.39734879814E+02  0.26871090576E+03  0.28891097917E+03  0.88082067386E+02 0.  0.
          5    1    4    4  502    0 -0.27009602855E+02 -0.23449153861E+02  0.26142331877E+03  0.26390078260E+03  0.47000000000E+01 0. -1.
         -5    1    4    4    0  502 -0.16884494021E+02 -0.16285725953E+02  0.72875869969E+01  0.25010196569E+02  0.47000000000E+01 0.  1.
          5    1    3    3  503    0 -0.18183457247E+02  0.31521999275E+02  0.35683444040E+02  0.51182738636E+02  0.47000000000E+01 0. -1.
         -5    1    3    3    0  503  0.62077554123E+02  0.82128805394E+01  0.21825906719E+01  0.62832538025E+02  0.47000000000E+01 0.  1.
<mgrwt>
<rscale>  0 0.10718902E+03</rscale>
<asrwt>0</asrwt>
<pdfrwt beam="1">  1        2 0.54577167E-01 0.10754370E+03</pdfrwt>
<pdfrwt beam="2">  1       -2 0.74114860E-02 0.10754370E+03</pdfrwt>
<totfact> 0.90582420E+03</totfact>
</mgrwt>
</event>
<event>
 8    1  0.5224537E-004  0.1185450E+03  0.7546771E-02  0.1246281E+00
          1   -1    0    0  501    0  0.00000000000E+00  0.00000000000E+00  0.75973018612E+02  0.75973018612E+02  0.00000000000E+00 0. -1.
         -1   -1    0    0    0  501 -0.00000000000E+00 -0.00000000000E+00 -0.20249596505E+03  0.20249596505E+03  0.00000000000E+00 0.  1.
         23    2    1    2    0    0 -0.44425164232E+02  0.61078976090E+02 -0.10694417434E+03  0.15831800806E+03  0.89012913187E+02 0.  0.
         23    2    1    2    0    0  0.44425164232E+02 -0.61078976090E+02 -0.19578772107E+02  0.12015097561E+03  0.91371177541E+02 0.  0.
          5    1    4    4  502    0 -0.26247878579E+02 -0.16212979751E+02 -0.18543721903E+02  0.36301122081E+02  0.47000000000E+01 0. -1.
         -5    1    4    4    0  502  0.70673042811E+02 -0.44865996339E+02 -0.10350502046E+01  0.83849853528E+02  0.47000000000E+01 0.  1.
          5    1    3    3  503    0 -0.24434284677E+02  0.75189818195E+02 -0.43954893767E+02  0.90579609813E+02  0.47000000000E+01 0. -1.
         -5    1    3    3    0  503 -0.19990879555E+02 -0.14110842105E+02 -0.62989280568E+02  0.67738398245E+02  0.47000000000E+01 0.  1.
<mgrwt>
<rscale>  0 0.11809044E+03</rscale>
<asrwt>0</asrwt>
<pdfrwt beam="1">  1        1 0.11688157E-01 0.11854505E+03</pdfrwt>
<pdfrwt beam="2">  1       -1 0.31153224E-01 0.11854505E+03</pdfrwt>
<totfact> 0.47115763E+03</totfact>
</mgrwt>
</event>
<event>
 8    1  0.5224537E-004  0.1233155E+03  0.7546771E-02  0.1239435E+00
          1   -1    0    0  501    0  0.00000000000E+00  0.00000000000E+00  0.30732289060E+02  0.30732289060E+02  0.00000000000E+00 0. -1.
         -1   -1    0    0    0  501 -0.00000000000E+00 -0.00000000000E+00 -0.52451314231E+03  0.52451314231E+03  0.00000000000E+00 0.  1.
         23    2    1    2    0    0  0.25308728304E+02  0.78157027957E+02 -0.33343902396E+03  0.35551132395E+03  0.91965569697E+02 0.  0.
         23    2    1    2    0    0 -0.25308728304E+02 -0.78157027957E+02 -0.16034182930E+03  0.19973410743E+03  0.86227366305E+02 0.  0.
          5    1    4    4  502    0 -0.51988388514E+02 -0.44639044268E+02 -0.12999545629E+03  0.14702498246E+03  0.47000000000E+01 0. -1.
         -5    1    4    4    0  502  0.26679660210E+02 -0.33517983689E+02 -0.30346373012E+02  0.52709124964E+02  0.47000000000E+01 0.  1.
          5    1    3    3  503    0  0.33622700844E+02  0.96586433871E+02 -0.26972958127E+03  0.28850574038E+03  0.47000000000E+01 0.  1.
         -5    1    3    3    0  503 -0.83139725398E+01 -0.18429405914E+02 -0.63709442687E+02  0.67005583568E+02  0.47000000000E+01 0. -1.
<mgrwt>
<rscale>  0 0.12224721E+03</rscale>
<asrwt>0</asrwt>
<pdfrwt beam="1">  1        1 0.47280449E-02 0.12331553E+03</pdfrwt>
<pdfrwt beam="2">  1       -1 0.80694322E-01 0.12331553E+03</pdfrwt>
<totfact> 0.27676627E+03</totfact>
</mgrwt>
</event>
<event>
 8    1  0.5224537E-004  0.9978910E+02  0.7546771E-02  0.1281503E+00
          2   -1    0    0  501    0  0.00000000000E+00  0.00000000000E+00  0.70068351825E+03  0.70068351825E+03  0.00000000000E+00 0. -1.
         -2   -1    0    0    0  501 -0.00000000000E+00 -0.00000000000E+00 -0.20822155938E+02  0.20822155938E+02  0.00000000000E+00 0.  1.
         23    2    1    2    0    0  0.29357228038E+02  0.29349426117E+02  0.13190246658E+03  0.16453456601E+03  0.89163485075E+02 0.  0.
         23    2    1    2    0    0 -0.29357228038E+02 -0.29349426117E+02  0.54795889573E+03  0.55697110818E+03  0.90744852641E+02 0.  0.
          5    1    3    3  502    0  0.10316479010E+01 -0.29956638056E+02  0.58472650801E+02  0.65875681042E+02  0.47000000000E+01 0. -1.
         -5    1    3    3    0  502  0.28325580137E+02  0.59306064173E+02  0.73429815776E+02  0.98658884966E+02  0.47000000000E+01 0.  1.
          5    1    4    4  503    0 -0.61822070710E+02 -0.17568709881E+02  0.32840876976E+03  0.33467153755E+03  0.47000000000E+01 0. -1.
         -5    1    4    4    0  503  0.32464842672E+02 -0.11780716236E+02  0.21955012598E+03  0.22229957063E+03  0.47000000000E+01 0.  1.
<mgrwt>
<rscale>  0 0.99428183E+02</rscale>
<asrwt>0</asrwt>
<pdfrwt beam="1">  1        2 0.10779745E+00 0.99789097E+02</pdfrwt>
<pdfrwt beam="2">  1       -2 0.32034091E-02 0.99789097E+02</pdfrwt>
<totfact> 0.14925579E+04</totfact>
</mgrwt>
</event>
<event>
 8    1  0.5224537E-004  0.9857753E+02  0.7546771E-02  0.1289145E+00
         -1   -1    0    0    0  501 -0.00000000000E+00  0.00000000000E+00  0.18789699479E+02  0.18789699479E+02  0.00000000000E+00 0.  1.
          1   -1    0    0  501    0  0.00000000000E+00 -0.00000000000E+00 -0.46738256827E+03  0.46738256827E+03  0.00000000000E+00 0. -1.
         23    2    1    2    0    0 -0.26778640047E+01  0.24131141375E+02 -0.23016968378E+03  0.24653458925E+03  0.84921949007E+02 0.  0.
         23    2    1    2    0    0  0.26778640047E+01 -0.24131141375E+02 -0.21842318501E+03  0.23963767851E+03  0.95540809444E+02 0.  0.
          5    1    4    4  502    0 -0.73195879382E+00  0.31104993371E+02 -0.14028971246E+03  0.14377534489E+03  0.47000000000E+01 0. -1.
         -5    1    3    3    0  503  0.27470307133E+02 -0.18379549885E+02 -0.12020002992E+03  0.12475000129E+03  0.47000000000E+01 0.  1.
          5    1    3    3  503    0 -0.30148171138E+02  0.42510691260E+02 -0.10996965386E+03  0.12178458796E+03  0.47000000000E+01 0. -1.
         -5    1    4    4    0  502  0.34098227985E+01 -0.55236134747E+02 -0.78133472556E+02  0.95862333619E+02  0.47000000000E+01 0.  1.
<mgrwt>
<rscale>  0 0.95907764E+02</rscale>
<asrwt>0</asrwt>
<pdfrwt beam="1">  1        1 0.71905010E-01 0.98577529E+02</pdfrwt>
<pdfrwt beam="2">  1       -1 0.28907230E-02 0.98577529E+02</pdfrwt>
<totfact> 0.17999415E+04</totfact>
</mgrwt>
</event>
<event>
 8    1  0.5224537E-004  0.1241967E+03  0.7546771E-02  0.1239657E+00
         -1   -1    0    0    0  501 -0.00000000000E+00  0.00000000000E+00  0.39058761957E+03  0.39058761957E+03  0.00000000000E+00 0.  1.
          1   -1    0    0  501    0  0.00000000000E+00 -0.00000000000E+00 -0.74132636712E+02  0.74132636712E+02  0.00000000000E+00 0. -1.
         23    2    1    2    0    0  0.65794323275E+02 -0.24417427263E+02 -0.36251287899E+01  0.12424956616E+03  0.10246808968E+03 0.  0.
         23    2    1    2    0    0 -0.65794323275E+02  0.24417427263E+02  0.32008011165E+03  0.34047069013E+03  0.92433269077E+02 0.  0.
          5    1    4    4  502    0 -0.96169713328E+01  0.24320164373E+02  0.15592897964E+02  0.30808846127E+02  0.47000000000E+01 0. -1.
         -5    1    4    4    0  502 -0.56177351942E+02  0.97262889625E-01  0.30448721369E+03  0.30966184400E+03  0.47000000000E+01 0.  1.
          5    1    3    3  503    0  0.51235829643E+02 -0.58393191696E+02  0.19711312790E+02  0.80283877133E+02  0.47000000000E+01 0. -1.
         -5    1    3    3    0  503  0.14558493632E+02  0.33975764434E+02 -0.23336441580E+02  0.43965689023E+02  0.47000000000E+01 0.  1.
<mgrwt>
<rscale>  0 0.12210950E+03</rscale>
<asrwt>0</asrwt>
<pdfrwt beam="1">  1        1 0.11405021E-01 0.12419667E+03</pdfrwt>
<pdfrwt beam="2">  1       -1 0.60090402E-01 0.12419667E+03</pdfrwt>
<totfact> 0.15176822E+03</totfact>
</mgrwt>
</event>
<event>
 8    1  0.5224537E-004  0.1120645E+03  0.7546771E-02  0.1257873E+00
         -1   -1    0    0    0  501 -0.00000000000E+00  0.00000000000E+00  0.20222580710E+03  0.20222580710E+03  0.00000000000E+00 0.  1.
          1   -1    0    0  501    0  0.00000000000E+00 -0.00000000000E+00 -0.61368111763E+02  0.61368111763E+02  0.00000000000E+00 0. -1.
         23    2    1    2    0    0 -0.63174418391E+02  0.16720218903E+02  0.58479418417E+02  0.12640531865E+03  0.91037845677E+02 0.  0.
         23    2    1    2    0    0  0.63174418391E+02 -0.16720218903E+02  0.82378276917E+02  0.13718860021E+03  0.88113328505E+02 0.  0.
          5    1    4    4  502    0  0.70775392211E+02 -0.38503872677E+02  0.79806982960E+02  0.11350307874E+03  0.47000000000E+01 0. -1.
         -5    1    3    3    0  503 -0.69248957427E+01  0.40974349634E+02  0.48706416926E+02  0.64197013628E+02  0.47000000000E+01 0.  1.
          5    1    3    3  503    0 -0.56249522648E+02 -0.24254130731E+02  0.97730014908E+01  0.62208305023E+02  0.47000000000E+01 0. -1.
         -5    1    4    4    0  502 -0.76009738198E+01  0.21783653774E+02  0.25712939565E+01  0.23685521471E+02  0.47000000000E+01 0.  1.
<mgrwt>
<rscale>  0 0.11146918E+03</rscale>
<asrwt>0</asrwt>
<pdfrwt beam="1">  1        1 0.94412481E-02 0.11206454E+03</pdfrwt>
<pdfrwt beam="2">  1       -1 0.31111662E-01 0.11206454E+03</pdfrwt>
<totfact> 0.62287619E+03</totfact>
</mgrwt>
</event>
<event>
 8    1  0.5224537E-004  0.1201339E+03  0.7546771E-02  0.1242907E+00
         -2   -1    0    0    0  501 -0.00000000000E+00  0.00000000000E+00  0.35096474792E+02  0.35096474792E+02  0.00000000000E+00 0.  1.
          2   -1    0    0  501    0  0.00000000000E+00 -0.00000000000E+00 -0.41703550060E+03  0.41703550060E+03  0.00000000000E+00 0. -1.
         23    2    1    2    0    0 -0.21452716936E+02  0.73850674703E+02 -0.21820563585E+03  0.24905373861E+03  0.92195032278E+02 0.  0.
         23    2    1    2    0    0  0.21452716936E+02 -0.73850674703E+02 -0.16373338995E+03  0.20307823679E+03  0.92293044444E+02 0.  0.
          5    1    3    3  502    0 -0.21633101580E+02 -0.17514908478E+02 -0.43782031012E+02  0.52093371387E+02  0.47000000000E+01 0. -1.
         -5    1    3    3    0  502  0.18038464330E+00  0.91365583181E+02 -0.17442360484E+03  0.19696036722E+03  0.47000000000E+01 0.  1.
          5    1    4    4  503    0  0.48094543925E+02 -0.75845487683E+02 -0.14303056713E+03  0.16895400644E+03  0.47000000000E+01 0. -1.
         -5    1    4    4    0  503 -0.26641826989E+02  0.19948129805E+01 -0.20702822820E+02  0.34124230348E+02  0.47000000000E+01 0.  1.
<mgrwt>
<rscale>  0 0.12011505E+03</rscale>
<asrwt>0</asrwt>
<pdfrwt beam="1">  1        2 0.64159306E-01 0.12013387E+03</pdfrwt>
<pdfrwt beam="2">  1       -2 0.53994578E-02 0.12013387E+03</pdfrwt>
<totfact> 0.12434924E+04</totfact>
</mgrwt>
</event>
<event>
 8    1  0.5224537E-004  0.1151478E+03  0.7546771E-02  0.1252670E+00
          1   -1    0    0  501    0  0.00000000000E+00  0.00000000000E+00  0.34380832182E+02  0.34380832182E+02  0.00000000000E+00 0. -1.
         -1   -1    0    0    0  501 -0.00000000000E+00 -0.00000000000E+00 -0.40742730370E+03  0.40742730370E+03  0.00000000000E+00 0.  1.
         23    2    1    2    0    0 -0.32714476598E+02  0.64813371420E+02 -0.24603737800E+03  0.27037206564E+03  0.85414591324E+02 0.  0.
         23    2    1    2    0    0  0.32714476598E+02 -0.64813371420E+02 -0.12700909351E+03  0.17143607024E+03  0.89375646849E+02 0.  0.
          5    1    3    3  502    0 -0.38885306252E+02 -0.37427957096E+01 -0.12506194447E+03  0.13110551291E+03  0.47000000000E+01 0. -1.
         -5    1    3    3    0  502  0.61708296541E+01  0.68556167129E+02 -0.12097543354E+03  0.13926655273E+03  0.47000000000E+01 0.  1.
          5    1    4    4  503    0  0.44738607678E+02 -0.47366680728E+01 -0.23280707865E+02  0.50872983007E+02  0.47000000000E+01 0. -1.
         -5    1    4    4    0  503 -0.12024131080E+02 -0.60076703347E+02 -0.10372838565E+03  0.12056308723E+03  0.47000000000E+01 0.  1.
<mgrwt>
<rscale>  0 0.11437846E+03</rscale>
<asrwt>0</asrwt>
<pdfrwt beam="1">  1        1 0.52893591E-02 0.11514780E+03</pdfrwt>
<pdfrwt beam="2">  1       -1 0.62681120E-01 0.11514780E+03</pdfrwt>
<totfact> 0.38969611E+03</totfact>
</mgrwt>
</event>
<event>
 8    1  0.5224537E-004  0.2857931E+03  0.7546771E-02  0.1092700E+00
          2   -1    0    0  501    0  0.00000000000E+00  0.00000000000E+00  0.41544157982E+04  0.41544157982E+04  0.00000000000E+00 0.  1.
         -2   -1    0    0    0  501 -0.00000000000E+00 -0.00000000000E+00 -0.19591453416E+02  0.19591453416E+02  0.00000000000E+00 0. -1.
         23    2    1    2    0    0 -0.40839190424E+02 -0.26646570610E+03  0.20674962530E+04  0.20871555929E+04  0.94899426140E+02 0.  0.
         23    2    1    2    0    0  0.40839190424E+02  0.26646570610E+03  0.20673280918E+04  0.20868516587E+04  0.91829157294E+02 0.  0.
          5    1    3    3  502    0 -0.48587486505E+02 -0.10987689332E+03  0.65176054269E+03  0.66275755034E+03  0.47000000000E+01 0. -1.
         -5    1    3    3    0  502  0.77482960811E+01 -0.15658881277E+03  0.14157357103E+04  0.14243980426E+04  0.47000000000E+01 0.  1.
          5    1    4    4  503    0  0.51308546922E+02  0.74959729468E+02  0.78486339608E+03  0.79011655377E+03  0.47000000000E+01 0. -1.
         -5    1    4    4    0  503 -0.10469356498E+02  0.19150597663E+03  0.12824646958E+04  0.12967351049E+04  0.47000000000E+01 0.  1.
<mgrwt>
<rscale>  0 0.28554160E+03</rscale>
<asrwt>0</asrwt>
<pdfrwt beam="1">  1        2 0.63914019E+00 0.28579313E+03</pdfrwt>
<pdfrwt beam="2">  1       -2 0.30140731E-02 0.28579313E+03</pdfrwt>
<totfact> 0.14138124E+02</totfact>
</mgrwt>
</event>
<event>
 8    1  0.5224537E-004  0.1087297E+03  0.7546771E-02  0.1263257E+00
          1   -1    0    0  501    0  0.00000000000E+00  0.00000000000E+00  0.26141860139E+03  0.26141860139E+03  0.00000000000E+00 0. -1.
         -1   -1    0    0    0  501 -0.00000000000E+00 -0.00000000000E+00 -0.56101553877E+02  0.56101553877E+02  0.00000000000E+00 0.  1.
         23    2    1    2    0    0 -0.48444717083E+02 -0.31086563575E+02  0.31606081889E+02  0.11258689550E+03  0.91452717713E+02 0.  0.
         23    2    1    2    0    0  0.48444717083E+02  0.31086563575E+02  0.17371096563E+03  0.20493325977E+03  0.92243570692E+02 0.  0.
          5    1    4    4  502    0  0.75052120948E+02  0.13450882144E+02  0.12547859217E+03  0.14690375823E+03  0.47000000000E+01 0. -1.
         -5    1    4    4    0  502 -0.26607403865E+02  0.17635681430E+02  0.48232373451E+02  0.58029501538E+02  0.47000000000E+01 0.  1.
          5    1    3    3  503    0 -0.25292143941E+02 -0.43448707275E+02  0.56733387170E+02  0.75948995575E+02  0.47000000000E+01 0. -1.
         -5    1    3    3    0  503 -0.23152573142E+02  0.12362143700E+02 -0.25127305282E+02  0.36637899922E+02  0.47000000000E+01 0.  1.
<mgrwt>
<rscale>  0 0.10856175E+03</rscale>
<asrwt>0</asrwt>
<pdfrwt beam="1">  1        1 0.40218246E-01 0.10872967E+03</pdfrwt>
<pdfrwt beam="2">  1       -1 0.86310084E-02 0.10872967E+03</pdfrwt>
<totfact> 0.74705350E+03</totfact>
</mgrwt>
</event>
<event>
 8    1  0.5224537E-004  0.1224301E+03  0.7546771E-02  0.1240379E+00
         -2   -1    0    0    0  501 -0.00000000000E+00  0.00000000000E+00  0.28552199394E+02  0.28552199394E+02  0.00000000000E+00 0.  1.
          2   -1    0    0  501    0  0.00000000000E+00 -0.00000000000E+00 -0.82368030331E+03  0.82368030331E+03  0.00000000000E+00 0. -1.
         23    2    1    2    0    0  0.60190614379E+02  0.49442624416E+02 -0.65655860687E+03  0.66732538580E+03  0.90479186063E+02 0.  0.
         23    2    1    2    0    0 -0.60190614379E+02 -0.49442624416E+02 -0.13856949705E+03  0.18490711691E+03  0.94454503344E+02 0.  0.
          5    1    3    3  502    0  0.28203904044E+02  0.71287290991E+02 -0.50584108773E+03  0.51163916396E+03  0.47000000000E+01 0. -1.
         -5    1    3    3    0  502  0.31986710335E+02 -0.21844666576E+02 -0.15071751914E+03  0.15568622184E+03  0.47000000000E+01 0.  1.
          5    1    4    4  503    0 -0.49759496750E+02 -0.28454278654E+02 -0.14832797182E+03  0.15908780819E+03  0.47000000000E+01 0. -1.
         -5    1    4    4    0  503 -0.10431117629E+02 -0.20988345761E+02  0.97584747707E+01  0.25819308717E+02  0.47000000000E+01 0.  1.
<mgrwt>
<rscale>  0 0.12166291E+03</rscale>
<asrwt>0</asrwt>
<pdfrwt beam="1">  1        2 0.12672003E+00 0.12243013E+03</pdfrwt>
<pdfrwt beam="2">  1       -2 0.43926467E-02 0.12243013E+03</pdfrwt>
<totfact> 0.78147107E+03</totfact>
</mgrwt>
</event>
<event>
 8    1  0.5224537E-004  0.9424543E+02  0.7546771E-02  0.1295418E+00
         -1   -1    0    0    0  501 -0.00000000000E+00  0.00000000000E+00  0.28157735525E+02  0.28157735525E+02  0.00000000000E+00 0.  1.
          1   -1    0    0  501    0  0.00000000000E+00 -0.00000000000E+00 -0.30159718519E+03  0.30159718519E+03  0.00000000000E+00 0. -1.
         23    2    1    2    0    0 -0.16283866881E+02  0.11528735279E+02 -0.13316014921E+03  0.16313744834E+03  0.92109313614E+02 0.  0.
         23    2    1    2    0    0  0.16283866881E+02 -0.11528735279E+02 -0.14027930046E+03  0.16661747238E+03  0.87664268135E+02 0.  0.
          5    1    4    4  502    0  0.22961388237E+02  0.25630901805E+02 -0.19165340323E+02  0.39668233473E+02  0.47000000000E+01 0.  1.
         -5    1    3    3    0  503  0.14597168878E+02 -0.20755540388E+02 -0.10923384485E+03  0.11224077983E+03  0.47000000000E+01 0.  1.
          5    1    3    3  503    0 -0.30881035759E+02  0.32284275667E+02 -0.23926304361E+02  0.50896668508E+02  0.47000000000E+01 0. -1.
         -5    1    4    4    0  502 -0.66775213562E+01 -0.37159637084E+02 -0.12111396013E+03  0.12694923891E+03  0.47000000000E+01 0. -1.
<mgrwt>
<rscale>  0 0.93141340E+02</rscale>
<asrwt>0</asrwt>
<pdfrwt beam="1">  1        1 0.46399564E-01 0.94245433E+02</pdfrwt>
<pdfrwt beam="2">  1       -1 0.43319596E-02 0.94245433E+02</pdfrwt>
<totfact> 0.17175575E+04</totfact>
</mgrwt>
</event>
<event>
 8    1  0.5224537E-004  0.9907543E+02  0.7546771E-02  0.1284391E+00
          2   -1    0    0  501    0  0.00000000000E+00  0.00000000000E+00  0.29906061886E+03  0.29906061886E+03  0.00000000000E+00 0. -1.
         -2   -1    0    0    0  501 -0.00000000000E+00 -0.00000000000E+00 -0.37384121162E+02  0.37384121162E+02  0.00000000000E+00 0.  1.
         23    2    1    2    0    0 -0.12097660099E+01  0.21874023084E+02  0.62065366268E+02  0.11359828239E+03  0.92587923899E+02 0.  0.
         23    2    1    2    0    0  0.12097660099E+01 -0.21874023084E+02  0.19961113143E+03  0.22284645763E+03  0.96622996584E+02 0.  0.
          5    1    3    3  502    0 -0.22451043415E+02 -0.29913539359E+02  0.34186749446E+02  0.50889026569E+02  0.47000000000E+01 0. -1.
         -5    1    3    3    0  502  0.21241277405E+02  0.51787562443E+02  0.27878616822E+02  0.62709255820E+02  0.47000000000E+01 0.  1.
          5    1    4    4  503    0 -0.26353109888E+02 -0.45794989955E+02  0.16098305494E+03  0.16949720200E+03  0.47000000000E+01 0. -1.
         -5    1    4    4    0  503  0.27562875898E+02  0.23920966872E+02  0.38628076488E+02  0.53349255637E+02  0.47000000000E+01 0.  1.
<mgrwt>
<rscale>  0 0.98077703E+02</rscale>
<asrwt>0</asrwt>
<pdfrwt beam="1">  1        2 0.46009325E-01 0.99075425E+02</pdfrwt>
<pdfrwt beam="2">  1       -2 0.57514034E-02 0.99075425E+02</pdfrwt>
<totfact> 0.15794961E+04</totfact>
</mgrwt>
</event>
<event>
 8    1  0.5224537E-004  0.9130107E+02  0.7546771E-02  0.1300729E+00
          1   -1    0    0  501    0  0.00000000000E+00  0.00000000000E+00  0.19990442948E+03  0.19990442948E+03  0.00000000000E+00 0. -1.
         -1   -1    0    0    0  501 -0.00000000000E+00 -0.00000000000E+00 -0.41110020391E+02  0.41110020391E+02  0.00000000000E+00 0.  1.
         23    2    1    2    0    0  0.38975345669E+01  0.11482220705E+02  0.70998175127E+02  0.11434928582E+03  0.88814335147E+02 0.  0.
         23    2    1    2    0    0 -0.38975345669E+01 -0.11482220705E+02  0.87796233965E+02  0.12666516406E+03  0.90492280991E+02 0.  0.
          5    1    3    3  502    0 -0.18738732376E+02 -0.32999116936E+02  0.40358920895E+02  0.55596891149E+02  0.47000000000E+01 0. -1.
         -5    1    3    3    0  502  0.22636266943E+02  0.44481337640E+02  0.30639254231E+02  0.58752394668E+02  0.47000000000E+01 0.  1.
          5    1    4    4  503    0 -0.18213083944E+02 -0.29821361504E+02  0.95428242269E+02  0.10173332518E+03  0.47000000000E+01 0. -1.
         -5    1    4    4    0  503  0.14315549377E+02  0.18339140799E+02 -0.76320083045E+01  0.24931838881E+02  0.47000000000E+01 0.  1.
<mgrwt>
<rscale>  0 0.90882498E+02</rscale>
<asrwt>0</asrwt>
<pdfrwt beam="1">  1        1 0.30754527E-01 0.91301068E+02</pdfrwt>
<pdfrwt beam="2">  1       -1 0.63246186E-02 0.91301068E+02</pdfrwt>
<totfact> 0.16247606E+04</totfact>
</mgrwt>
</event>
<event>
 8    1  0.5224537E-004  0.9143474E+02  0.7546771E-02  0.1299512E+00
          2   -1    0    0  501    0  0.00000000000E+00  0.00000000000E+00  0.12521484879E+03  0.12521484879E+03  0.00000000000E+00 0. -1.
         -2   -1    0    0    0  501 -0.00000000000E+00 -0.00000000000E+00 -0.10204964839E+03  0.10204964839E+03  0.00000000000E+00 0.  1.
         23    2    1    2    0    0  0.38876363093E+00  0.66505393163E+01 -0.55353127700E+02  0.10674296687E+03  0.91025883238E+02 0.  0.
         23    2    1    2    0    0 -0.38876363093E+00 -0.66505393163E+01  0.78518328107E+02  0.12052153032E+03  0.91191724463E+02 0.  0.
          5    1    4    4  502    0 -0.28681021464E+02 -0.31444601599E+02  0.69371515881E+02  0.81522151453E+02  0.47000000000E+01 0. -1.
         -5    1    4    4    0  502  0.28292257833E+02  0.24794062282E+02  0.91468122257E+01  0.38999378862E+02  0.47000000000E+01 0.  1.
          5    1    3    3  503    0  0.12258074311E+02 -0.24985762358E+02  0.12444168961E+02  0.30846329563E+02  0.47000000000E+01 0. -1.
         -5    1    3    3    0  503 -0.11869310681E+02  0.31636301674E+02 -0.67797296661E+02  0.75896637305E+02  0.47000000000E+01 0.  1.
<mgrwt>
<rscale>  0 0.91393361E+02</rscale>
<asrwt>0</asrwt>
<pdfrwt beam="1">  1        2 0.19263823E-01 0.91434739E+02</pdfrwt>
<pdfrwt beam="2">  1       -2 0.15699946E-01 0.91434739E+02</pdfrwt>
<totfact> 0.83992071E+03</totfact>
</mgrwt>
</event>
<event>
 8    1  0.5224537E-004  0.9752713E+02  0.7546771E-02  0.1285626E+00
          1   -1    0    0  501    0  0.00000000000E+00  0.00000000000E+00  0.33696226243E+03  0.33696226243E+03  0.00000000000E+00 0. -1.
         -1   -1    0    0    0  501 -0.00000000000E+00 -0.00000000000E+00 -0.28296071221E+02  0.28296071221E+02  0.00000000000E+00 0.  1.
         23    2    1    2    0    0 -0.13986911599E+01  0.32457585614E+02  0.14389841207E+03  0.17379041801E+03  0.91874399024E+02 0.  0.
         23    2    1    2    0    0  0.13986911599E+01 -0.32457585614E+02  0.16476777914E+03  0.19146791564E+03  0.91957003405E+02 0.  0.
          5    1    4    4  502    0  0.24832466467E+02  0.12627201990E+01  0.14208614893E+03  0.14432189568E+03  0.47000000000E+01 0. -1.
         -5    1    3    3    0  503 -0.37901830842E+02  0.20412824777E+02  0.12165233969E+03  0.12913022089E+03  0.47000000000E+01 0.  1.
          5    1    3    3  503    0  0.36503139682E+02  0.12044760837E+02  0.22246072382E+02  0.44660197119E+02  0.47000000000E+01 0. -1.
         -5    1    4    4    0  502 -0.23433775307E+02 -0.33720305813E+02  0.22681630205E+02  0.47146019959E+02  0.47000000000E+01 0.  1.
<mgrwt>
<rscale>  0 0.97507657E+02</rscale>
<asrwt>0</asrwt>
<pdfrwt beam="1">  1        1 0.51840345E-01 0.97527133E+02</pdfrwt>
<pdfrwt beam="2">  1       -1 0.43532420E-02 0.97527133E+02</pdfrwt>
<totfact> 0.14934824E+04</totfact>
</mgrwt>
</event>
<event>
 8    1  0.5224537E-004  0.2453624E+03  0.7546771E-02  0.1116455E+00
          2   -1    0    0  501    0  0.00000000000E+00  0.00000000000E+00  0.18146334441E+04  0.18146334441E+04  0.00000000000E+00 0. -1.
         -2   -1    0    0    0  501 -0.00000000000E+00 -0.00000000000E+00 -0.54501085909E+02  0.54501085909E+02  0.00000000000E+00 0.  1.
         23    2    1    2    0    0  0.18023292758E+03  0.13796573629E+03  0.14655119086E+04  0.14857236522E+04  0.90172966469E+02 0.  0.
         23    2    1    2    0    0 -0.18023292758E+03 -0.13796573629E+03  0.29462044968E+03  0.38341087790E+03  0.93189266267E+02 0.  0.
          5    1    4    4  502    0 -0.20525592476E+02  0.13224559555E+02  0.22812377214E+02  0.33744384363E+02  0.47000000000E+01 0. -1.
         -5    1    3    3    0  503  0.77766588034E+02  0.46430772785E+02  0.34159774630E+03  0.35343255248E+03  0.47000000000E+01 0.  1.
          5    1    3    3  503    0  0.10246633954E+03  0.91534963505E+02  0.11239141623E+04  0.11322910997E+04  0.47000000000E+01 0. -1.
         -5    1    4    4    0  502 -0.15970733510E+03 -0.15119029584E+03  0.27180807247E+03  0.34966649354E+03  0.47000000000E+01 0.  1.
<mgrwt>
<rscale>  0 0.24507946E+03</rscale>
<asrwt>0</asrwt>
<pdfrwt beam="1">  1        2 0.27917433E+00 0.24536237E+03</pdfrwt>
<pdfrwt beam="2">  1       -2 0.83847838E-02 0.24536237E+03</pdfrwt>
<totfact> 0.82003269E+02</totfact>
</mgrwt>
</event>
<event>
 8    1  0.5224537E-004  0.9625087E+02  0.7546771E-02  0.1289314E+00
          1   -1    0    0  501    0  0.00000000000E+00  0.00000000000E+00  0.73577858399E+03  0.73577858399E+03  0.00000000000E+00 0. -1.
         -1   -1    0    0    0  501 -0.00000000000E+00 -0.00000000000E+00 -0.23789335435E+02  0.23789335435E+02  0.00000000000E+00 0.  1.
         23    2    1    2    0    0 -0.23358358633E+02 -0.10338238281E+02  0.94536248466E+02  0.13491231082E+03  0.92799446384E+02 0.  0.
         23    2    1    2    0    0  0.23358358633E+02  0.10338238281E+02  0.61745300009E+03  0.62465560860E+03  0.91071015962E+02 0.  0.
          5    1    4    4  502    0  0.52519243594E+02  0.26616204168E+02  0.33154030128E+03  0.33676067859E+03  0.47000000000E+01 0. -1.
         -5    1    3    3    0  503 -0.38015316203E+01 -0.42592517245E+02  0.12983454417E+02  0.44935890516E+02  0.47000000000E+01 0.  1.
          5    1    3    3  503    0 -0.19556827013E+02  0.32254278963E+02  0.81552794049E+02  0.89976420308E+02  0.47000000000E+01 0. -1.
         -5    1    4    4    0  502 -0.29160884961E+02 -0.16277965887E+02  0.28591269881E+03  0.28789493001E+03  0.47000000000E+01 0.  1.
<mgrwt>
<rscale>  0 0.95831803E+02</rscale>
<asrwt>0</asrwt>
<pdfrwt beam="1">  1        1 0.11319669E+00 0.96250867E+02</pdfrwt>
<pdfrwt beam="2">  1       -1 0.36598983E-02 0.96250867E+02</pdfrwt>
<totfact> 0.69467717E+03</totfact>
</mgrwt>
</event>
<event>
 8    1  0.5224537E-004  0.1052234E+03  0.7546771E-02  0.1270827E+00
          1   -1    0    0  501    0  0.00000000000E+00  0.00000000000E+00  0.69149134325E+02  0.69149134325E+02  0.00000000000E+00 0. -1.
         -1   -1    0    0    0  501 -0.00000000000E+00 -0.00000000000E+00 -0.15913779703E+03  0.15913779703E+03  0.00000000000E+00 0.  1.
         23    2    1    2    0    0  0.40022178076E+02 -0.29337723524E+02 -0.30159144664E+02  0.10724344490E+03  0.90161553384E+02 0.  0.
         23    2    1    2    0    0 -0.40022178076E+02  0.29337723524E+02 -0.59829518040E+02  0.12104348645E+03  0.92787270806E+02 0.  0.
          5    1    4    4  502    0  0.15268963056E+02  0.18399226176E+02  0.13951427870E+02  0.28078552247E+02  0.47000000000E+01 0. -1.
         -5    1    4    4    0  502 -0.55291141132E+02  0.10938497348E+02 -0.73780945911E+02  0.92964934203E+02  0.47000000000E+01 0.  1.
          5    1    3    3  503    0  0.52079331591E+01 -0.54967043452E+02 -0.31494163646E+02  0.63737514679E+02  0.47000000000E+01 0. -1.
         -5    1    3    3    0  503  0.34814244917E+02  0.25629319929E+02  0.13350189821E+01  0.43505930226E+02  0.47000000000E+01 0.  1.
<mgrwt>
<rscale>  0 0.10464156E+03</rscale>
<asrwt>0</asrwt>
<pdfrwt beam="1">  1        1 0.10638329E-01 0.10522335E+03</pdfrwt>
<pdfrwt beam="2">  1       -1 0.24482738E-01 0.10522335E+03</pdfrwt>
<totfact> 0.78688156E+03</totfact>
</mgrwt>
</event>
<event>
 8    1  0.5224537E-004  0.1266716E+03  0.7546771E-02  0.1232556E+00
          3   -1    0    0  501    0  0.00000000000E+00  0.00000000000E+00  0.17206083741E+03  0.17206083741E+03  0.00000000000E+00 0. -1.
         -3   -1    0    0    0  501 -0.00000000000E+00 -0.00000000000E+00 -0.13744689269E+03  0.13744689269E+03  0.00000000000E+00 0.  1.
         23    2    1    2    0    0  0.60966982301E+02  0.60954976842E+02 -0.70594866094E+02  0.14484263672E+03  0.92537949845E+02 0.  0.
         23    2    1    2    0    0 -0.60966982301E+02 -0.60954976842E+02  0.10520881081E+03  0.16466509338E+03  0.92807418741E+02 0.  0.
          5    1    3    3  502    0  0.42043107535E+02 -0.31780586022E+01  0.62367265125E+01  0.42880178466E+02  0.47000000000E+01 0. -1.
         -5    1    4    4    0  503 -0.30822279551E+02  0.25413131571E+01  0.86199087759E+02  0.91699748744E+02  0.47000000000E+01 0.  1.
          5    1    4    4  503    0 -0.30144702750E+02 -0.63496289999E+02  0.19009723052E+02  0.72965344637E+02  0.47000000000E+01 0. -1.
         -5    1    3    3    0  502  0.18923874765E+02  0.64133035444E+02 -0.76831592606E+02  0.10196245826E+03  0.47000000000E+01 0.  1.
<mgrwt>
<rscale>  0 0.12662227E+03</rscale>
<asrwt>0</asrwt>
<pdfrwt beam="1">  1        3 0.26470898E-01 0.12667162E+03</pdfrwt>
<pdfrwt beam="2">  1       -3 0.21145676E-01 0.12667162E+03</pdfrwt>
<totfact> 0.63003070E+02</totfact>
</mgrwt>
</event>
<event>
 8    1  0.5224537E-004  0.9642889E+02  0.7546771E-02  0.1289144E+00
          1   -1    0    0  501    0  0.00000000000E+00  0.00000000000E+00  0.60176903428E+02  0.60176903428E+02  0.00000000000E+00 0. -1.
         -1   -1    0    0    0  501 -0.00000000000E+00 -0.00000000000E+00 -0.42743313681E+03  0.42743313681E+03  0.00000000000E+00 0.  1.
         23    2    1    2    0    0  0.24002163069E+01  0.29783613961E+02  0.11650536474E+02  0.97130151939E+02  0.91682641305E+02 0.  0.
         23    2    1    2    0    0 -0.24002163069E+01 -0.29783613961E+02 -0.37890676985E+03  0.39047988830E+03  0.89506302708E+02 0.  0.
          5    1    3    3  502    0 -0.40766143158E+02  0.25605099360E+02 -0.84464969003E+01  0.49101251013E+02  0.47000000000E+01 0. -1.
         -5    1    4    4    0  503  0.40624133663E+02 -0.21519419608E+01 -0.12869329961E+03  0.13505186579E+03  0.47000000000E+01 0.  1.
          5    1    4    4  503    0 -0.43024349970E+02 -0.27631672000E+02 -0.25021347024E+03  0.25542802250E+03  0.47000000000E+01 0. -1.
         -5    1    3    3    0  502  0.43166359464E+02  0.41785146011E+01  0.20097033374E+02  0.48028900926E+02  0.47000000000E+01 0.  1.
<mgrwt>
<rscale>  0 0.95907985E+02</rscale>
<asrwt>0</asrwt>
<pdfrwt beam="1">  1        1 0.92579854E-02 0.96428893E+02</pdfrwt>
<pdfrwt beam="2">  1       -1 0.65758943E-01 0.96428893E+02</pdfrwt>
<totfact> 0.16633818E+03</totfact>
</mgrwt>
</event>
<event>
 8    1  0.5224537E-004  0.1092233E+03  0.7546771E-02  0.1264814E+00
         -2   -1    0    0    0  501 -0.00000000000E+00  0.00000000000E+00  0.26677205788E+02  0.26677205788E+02  0.00000000000E+00 0.  1.
          2   -1    0    0  501    0  0.00000000000E+00 -0.00000000000E+00 -0.45770012233E+03  0.45770012233E+03  0.00000000000E+00 0. -1.
         23    2    1    2    0    0  0.60124944588E+01  0.48807841022E+02 -0.28695608970E+03  0.30703994510E+03  0.97526278708E+02 0.  0.
         23    2    1    2    0    0 -0.60124944588E+01 -0.48807841022E+02 -0.14406682685E+03  0.17733738302E+03  0.90966704807E+02 0.  0.
          5    1    3    3  502    0  0.11444558515E+02 -0.28690747479E+02 -0.75140558378E+02  0.81377702252E+02  0.47000000000E+01 0. -1.
         -5    1    3    3    0  502 -0.54320640561E+01  0.77498588501E+02 -0.21181553132E+03  0.22566224285E+03  0.47000000000E+01 0.  1.
          5    1    4    4  503    0 -0.69928549999E+01 -0.75556165236E+02 -0.10103690425E+03  0.12644437570E+03  0.47000000000E+01 0. -1.
         -5    1    4    4    0  503  0.98036054106E+00  0.26748324214E+02 -0.43029922596E+02  0.50893007316E+02  0.47000000000E+01 0.  1.
<mgrwt>
<rscale>  0 0.10773962E+03</rscale>
<asrwt>0</asrwt>
<pdfrwt beam="1">  1        2 0.70415401E-01 0.10922331E+03</pdfrwt>
<pdfrwt beam="2">  1       -2 0.41041856E-02 0.10922331E+03</pdfrwt>
<totfact> 0.16805560E+04</totfact>
</mgrwt>
</event>
<event>
 8    1  0.5224537E-004  0.9371656E+02  0.7546771E-02  0.1294463E+00
         -1   -1    0    0    0  501 -0.00000000000E+00  0.00000000000E+00  0.58896983384E+03  0.58896983384E+03  0.00000000000E+00 0.  1.
          1   -1    0    0  501    0  0.00000000000E+00 -0.00000000000E+00 -0.32498307195E+02  0.32498307195E+02  0.00000000000E+00 0. -1.
         23    2    1    2    0    0  0.17251478514E+02  0.46629426164E+01  0.50791689875E+03  0.51649043448E+03  0.91996936516E+02 0.  0.
         23    2    1    2    0    0 -0.17251478514E+02 -0.46629426164E+01  0.48554627895E+02  0.10497770656E+03  0.91342270821E+02 0.  0.
          5    1    3    3  502    0 -0.17820638049E+02 -0.35451234806E+02  0.19800683025E+03  0.20199792082E+03  0.47000000000E+01 0. -1.
         -5    1    4    4    0  503  0.48833713441E+00 -0.27843809273E+02  0.65195998047E+02  0.71050153760E+02  0.47000000000E+01 0.  1.
          5    1    4    4  503    0 -0.17739815649E+02  0.23180866656E+02 -0.16641370152E+02  0.33927552796E+02  0.47000000000E+01 0. -1.
         -5    1    3    3    0  502  0.35072116564E+02  0.40114177423E+02  0.30991006850E+03  0.31449251366E+03  0.47000000000E+01 0.  1.
<mgrwt>
<rscale>  0 0.93555499E+02</rscale>
<asrwt>0</asrwt>
<pdfrwt beam="1">  1        1 0.49997400E-02 0.93716556E+02</pdfrwt>
<pdfrwt beam="2">  1       -1 0.90610736E-01 0.93716556E+02</pdfrwt>
<totfact> 0.19858336E+03</totfact>
</mgrwt>
</event>
<event>
 8    1  0.5224537E-004  0.1318645E+03  0.7546771E-02  0.1224766E+00
         -4   -1    0    0    0  501 -0.00000000000E+00  0.00000000000E+00  0.69378061990E+03  0.69378061990E+03  0.00000000000E+00 0.  1.
          4   -1    0    0  501    0  0.00000000000E+00 -0.00000000000E+00 -0.26520262658E+02  0.26520262658E+02  0.00000000000E+00 0. -1.
         23    2    1    2    0    0  0.16741756463E+02 -0.94466997241E+02  0.24826716175E+03  0.28104747718E+03  0.90259630206E+02 0.  0.
         23    2    1    2    0    0 -0.16741756463E+02  0.94466997241E+02  0.41899319549E+03  0.43925340538E+03  0.90465221471E+02 0.  0.
          5    1    4    4  502    0 -0.23397166707E+02 -0.10859549391E+02  0.84704912698E+02  0.88670003146E+02  0.47000000000E+01 0. -1.
         -5    1    4    4    0  502  0.66554102439E+01  0.10532654663E+03  0.33428828279E+03  0.35058340223E+03  0.47000000000E+01 0.  1.
          5    1    3    3  503    0 -0.27974429573E+02 -0.78697660060E+02  0.14714531232E+03  0.16926229156E+03  0.47000000000E+01 0. -1.
         -5    1    3    3    0  503  0.44716186036E+02 -0.15769337181E+02  0.10112184944E+03  0.11178518561E+03  0.47000000000E+01 0.  1.
<mgrwt>
<rscale>  0 0.13182928E+03</rscale>
<asrwt>0</asrwt>
<pdfrwt beam="1">  1        4 0.40800409E-02 0.13186454E+03</pdfrwt>
<pdfrwt beam="2">  1       -4 0.10673547E+00 0.13186454E+03</pdfrwt>
<totfact> 0.40253748E+02</totfact>
</mgrwt>
</event>
<event>
 8    1  0.5224537E-004  0.1062044E+03  0.7546771E-02  0.1270642E+00
         -1   -1    0    0    0  501 -0.00000000000E+00  0.00000000000E+00  0.27926404650E+02  0.27926404650E+02  0.00000000000E+00 0.  1.
          1   -1    0    0  501    0  0.00000000000E+00 -0.00000000000E+00 -0.38268927569E+03  0.38268927569E+03  0.00000000000E+00 0. -1.
         23    2    1    2    0    0  0.50502756357E+02 -0.14550850880E+02 -0.17581690060E+03  0.20540437147E+03  0.92288231211E+02 0.  0.
         23    2    1    2    0    0 -0.50502756357E+02  0.14550850880E+02 -0.17894597044E+03  0.20521130887E+03  0.85602367328E+02 0.  0.
          5    1    3    3  502    0  0.60122077160E+02  0.24055194143E+02 -0.93191727585E+02  0.11357862747E+03  0.47000000000E+01 0.  1.
         -5    1    4    4    0  503  0.10574307890E+02 -0.24401881454E+02 -0.37348394431E+02  0.46089699201E+02  0.47000000000E+01 0.  1.
          5    1    4    4  503    0 -0.61077064247E+02  0.38952732334E+02 -0.14159757600E+03  0.15912160967E+03  0.47000000000E+01 0. -1.
         -5    1    3    3    0  502 -0.96193208029E+01 -0.38606045023E+02 -0.82625173020E+02  0.91825744003E+02  0.47000000000E+01 0. -1.
<mgrwt>
<rscale>  0 0.10473537E+03</rscale>
<asrwt>0</asrwt>
<pdfrwt beam="1">  1        1 0.58875275E-01 0.10620439E+03</pdfrwt>
<pdfrwt beam="2">  1       -1 0.42963698E-02 0.10620439E+03</pdfrwt>
<totfact> 0.13108515E+04</totfact>
</mgrwt>
</event>
<event>
 8    1  0.5224537E-004  0.9384045E+02  0.7546771E-02  0.1300987E+00
         -1   -1    0    0    0  501 -0.00000000000E+00  0.00000000000E+00  0.10121060244E+03  0.10121060244E+03  0.00000000000E+00 0.  1.
          1   -1    0    0  501    0  0.00000000000E+00 -0.00000000000E+00 -0.40965879121E+03  0.40965879121E+03  0.00000000000E+00 0. -1.
         23    2    1    2    0    0  0.76362199894E+01  0.17783264177E+02  0.74117323552E+02  0.11958013391E+03  0.91823060480E+02 0.  0.
         23    2    1    2    0    0 -0.76362199894E+01 -0.17783264177E+02 -0.38256551233E+03  0.39128925974E+03  0.79852095932E+02 0.  0.
          5    1    4    4  502    0  0.44602934019E+01 -0.47482229526E+02 -0.26692537039E+03  0.27119310407E+03  0.47000000000E+01 0. -1.
         -5    1    3    3    0  503  0.96604896675E+01  0.51116209303E+02  0.67271421340E+02  0.85168809098E+02  0.47000000000E+01 0.  1.
          5    1    3    3  503    0 -0.20242696781E+01 -0.33332945126E+02  0.68459022119E+01  0.34411324816E+02  0.47000000000E+01 0. -1.
         -5    1    4    4    0  502 -0.12096513391E+02  0.29698965349E+02 -0.11564014194E+03  0.12009615567E+03  0.47000000000E+01 0.  1.
<mgrwt>
<rscale>  0 0.90774297E+02</rscale>
<asrwt>0</asrwt>
<pdfrwt beam="1">  1        1 0.63024429E-01 0.93840454E+02</pdfrwt>
<pdfrwt beam="2">  1       -1 0.15570862E-01 0.93840454E+02</pdfrwt>
<totfact> 0.17288584E+03</totfact>
</mgrwt>
</event>
<event>
 8    1  0.5224537E-004  0.9253916E+02  0.7546771E-02  0.1301236E+00
          1   -1    0    0  501    0  0.00000000000E+00  0.00000000000E+00  0.89664816218E+02  0.89664816218E+02  0.00000000000E+00 0. -1.
         -1   -1    0    0    0  501 -0.00000000000E+00 -0.00000000000E+00 -0.47904075935E+03  0.47904075935E+03  0.00000000000E+00 0.  1.
         23    2    1    2    0    0  0.56801705124E+00 -0.14331616996E+02 -0.45296538272E+03  0.46232146270E+03  0.91420889477E+02 0.  0.
         23    2    1    2    0    0 -0.56801705124E+00  0.14331616996E+02  0.63589439595E+02  0.10638411287E+03  0.84072853847E+02 0.  0.
          5    1    4    4  502    0 -0.17423939417E+02  0.43431144991E+02  0.52903695191E+02  0.70786644114E+02  0.47000000000E+01 0. -1.
         -5    1    3    3    0  503  0.34172304436E+02  0.23178333300E+02 -0.22589552146E+03  0.22968643439E+03  0.47000000000E+01 0.  1.
          5    1    3    3  503    0 -0.33604287385E+02 -0.37509950296E+02 -0.22706986126E+03  0.23263502831E+03  0.47000000000E+01 0. -1.
         -5    1    4    4    0  502  0.16855922366E+02 -0.29099527996E+02  0.10685744404E+02  0.35597468756E+02  0.47000000000E+01 0.  1.
<mgrwt>
<rscale>  0 0.90670407E+02</rscale>
<asrwt>0</asrwt>
<pdfrwt beam="1">  1        1 0.13794587E-01 0.92539164E+02</pdfrwt>
<pdfrwt beam="2">  1       -1 0.73698578E-01 0.92539164E+02</pdfrwt>
<totfact> 0.79105542E+02</totfact>
</mgrwt>
</event>
<event>
 8    1  0.5224537E-004  0.9912906E+02  0.7546771E-02  0.1282144E+00
         -1   -1    0    0    0  501 -0.00000000000E+00  0.00000000000E+00  0.13970228970E+03  0.13970228970E+03  0.00000000000E+00 0.  1.
          1   -1    0    0  501    0  0.00000000000E+00 -0.00000000000E+00 -0.77181751037E+02  0.77181751037E+02  0.00000000000E+00 0. -1.
         23    2    1    2    0    0 -0.26301137788E+02  0.30457774885E+02 -0.10440536155E+01  0.99134562075E+02  0.90593296937E+02 0.  0.
         23    2    1    2    0    0  0.26301137788E+02 -0.30457774885E+02  0.63564592281E+02  0.11774947867E+03  0.90581766567E+02 0.  0.
          5    1    3    3  502    0 -0.92402002471E+01 -0.20555195902E+02 -0.30039497639E+02  0.37846516320E+02  0.47000000000E+01 0. -1.
         -5    1    3    3    0  502 -0.17060937541E+02  0.51012970787E+02  0.28995444023E+02  0.61288045755E+02  0.47000000000E+01 0.  1.
          5    1    4    4  503    0  0.65381212319E+01 -0.49901551654E+02  0.26018800161E+01  0.50613947349E+02  0.47000000000E+01 0. -1.
         -5    1    4    4    0  503  0.19763016556E+02  0.19443776769E+02  0.60962712265E+02  0.67135531316E+02  0.47000000000E+01 0.  1.
<mgrwt>
<rscale>  0 0.99126430E+02</rscale>
<asrwt>0</asrwt>
<pdfrwt beam="1">  1        1 0.11874116E-01 0.99129064E+02</pdfrwt>
<pdfrwt beam="2">  1       -1 0.21492660E-01 0.99129064E+02</pdfrwt>
<totfact> 0.83699644E+03</totfact>
</mgrwt>
</event>
<event>
 8    1  0.5224537E-004  0.1895382E+03  0.7546771E-02  0.1160826E+00
         -1   -1    0    0    0  501 -0.00000000000E+00  0.00000000000E+00  0.56545735273E+03  0.56545735273E+03  0.00000000000E+00 0.  1.
          1   -1    0    0  501    0  0.00000000000E+00 -0.00000000000E+00 -0.91328536575E+02  0.91328536575E+02  0.00000000000E+00 0. -1.
         23    2    1    2    0    0 -0.16052594224E+03 -0.27177605065E+02  0.43063426748E+03  0.47050038042E+03  0.97043986417E+02 0.  0.
         23    2    1    2    0    0  0.16052594224E+03  0.27177605065E+02  0.43494548676E+02  0.18628550889E+03  0.79393417287E+02 0.  0.
          5    1    4    4  502    0  0.42293022947E+02  0.28159266177E+02 -0.16482825967E+02  0.53622920598E+02  0.47000000000E+01 0. -1.
         -5    1    3    3    0  503 -0.12858427175E+02 -0.38124578474E+02  0.11227389040E+03  0.11935802905E+03  0.47000000000E+01 0.  1.
          5    1    3    3  503    0 -0.14766751506E+03  0.10946973408E+02  0.31836037708E+03  0.35114235137E+03  0.47000000000E+01 0. -1.
         -5    1    4    4    0  502  0.11823291929E+03 -0.98166111110E+00  0.59977374643E+02  0.13266258829E+03  0.47000000000E+01 0.  1.
<mgrwt>
<rscale>  0 0.18740200E+03</rscale>
<asrwt>0</asrwt>
<pdfrwt beam="1">  1        1 0.14050544E-01 0.18953822E+03</pdfrwt>
<pdfrwt beam="2">  1       -1 0.86993437E-01 0.18953822E+03</pdfrwt>
<totfact> 0.55570332E+02</totfact>
</mgrwt>
</event>
<event>
 8    1  0.5224537E-004  0.1422574E+03  0.7546771E-02  0.1211239E+00
         -2   -1    0    0    0  501 -0.00000000000E+00  0.00000000000E+00  0.36792452794E+02  0.36792452794E+02  0.00000000000E+00 0.  1.
          2   -1    0    0  501    0  0.00000000000E+00 -0.00000000000E+00 -0.10397648386E+04  0.10397648386E+04  0.00000000000E+00 0. -1.
         23    2    1    2    0    0  0.10474436480E+03  0.25009698576E+02 -0.87232511588E+03  0.88340999322E+03  0.88686195826E+02 0.  0.
         23    2    1    2    0    0 -0.10474436480E+03 -0.25009698576E+02 -0.13064726988E+03  0.19314729814E+03  0.92953228396E+02 0.  0.
          5    1    3    3  502    0  0.53638134186E+02 -0.22088826737E+02 -0.57943933353E+03  0.58235470029E+03  0.47000000000E+01 0. -1.
         -5    1    3    3    0  502  0.51106230618E+02  0.47098525314E+02 -0.29288578235E+03  0.30105529293E+03  0.47000000000E+01 0.  1.
          5    1    4    4  503    0 -0.85294760259E+02 -0.54139522381E+02 -0.70145657785E+02  0.12308040997E+03  0.47000000000E+01 0. -1.
         -5    1    4    4    0  503 -0.19449604545E+02  0.29129823804E+02 -0.60501612096E+02  0.70066888171E+02  0.47000000000E+01 0.  1.
<mgrwt>
<rscale>  0 0.14156468E+03</rscale>
<asrwt>0</asrwt>
<pdfrwt beam="1">  1        2 0.15996383E+00 0.14225741E+03</pdfrwt>
<pdfrwt beam="2">  1       -2 0.56603771E-02 0.14225741E+03</pdfrwt>
<totfact> 0.39489182E+03</totfact>
</mgrwt>
</event>
<event>
 8    1  0.5224537E-004  0.1032244E+03  0.7546771E-02  0.1273757E+00
          2   -1    0    0  501    0  0.00000000000E+00  0.00000000000E+00  0.19098739497E+03  0.19098739497E+03  0.00000000000E+00 0. -1.
         -2   -1    0    0    0  501 -0.00000000000E+00 -0.00000000000E+00 -0.24091443421E+03  0.24091443421E+03  0.00000000000E+00 0.  1.
         23    2    1    2    0    0  0.42880621199E+02 -0.24854894929E+02 -0.21431404703E+03  0.23779266492E+03  0.90323459075E+02 0.  0.
         23    2    1    2    0    0 -0.42880621199E+02  0.24854894929E+02  0.16438700780E+03  0.19410916426E+03  0.90547036623E+02 0.  0.
          5    1    3    3  502    0  0.28322703128E+00  0.31406441318E+02 -0.78162987032E+02  0.84368165297E+02  0.47000000000E+01 0. -1.
         -5    1    3    3    0  502  0.42597394168E+02 -0.56261336247E+02 -0.13615106000E+03  0.15342449962E+03  0.47000000000E+01 0.  1.
          5    1    4    4  503    0 -0.59036221360E+02  0.37135378918E+02  0.15725506121E+03  0.17209170833E+03  0.47000000000E+01 0. -1.
         -5    1    4    4    0  503  0.16155600161E+02 -0.12280483989E+02  0.71319465881E+01  0.22017455932E+02  0.47000000000E+01 0.  1.
<mgrwt>
<rscale>  0 0.10317536E+03</rscale>
<asrwt>0</asrwt>
<pdfrwt beam="1">  1        2 0.29382676E-01 0.10322441E+03</pdfrwt>
<pdfrwt beam="2">  1       -2 0.37063759E-01 0.10322441E+03</pdfrwt>
<totfact> 0.12049609E+03</totfact>
</mgrwt>
</event>
<event>
 8    1  0.5224537E-004  0.1047318E+03  0.7546771E-02  0.1273410E+00
         -1   -1    0    0    0  501 -0.00000000000E+00  0.00000000000E+00  0.95656393828E+02  0.95656393828E+02  0.00000000000E+00 0.  1.
          1   -1    0    0  501    0  0.00000000000E+00 -0.00000000000E+00 -0.11019185344E+03  0.11019185344E+03  0.00000000000E+00 0. -1.
         23    2    1    2    0    0  0.42771733797E+02  0.19152194994E+02  0.44754305490E+01  0.99404962733E+02  0.87550496014E+02 0.  0.
         23    2    1    2    0    0 -0.42771733797E+02 -0.19152194994E+02 -0.19010890166E+02  0.10644328454E+03  0.93661791001E+02 0.  0.
          5    1    3    3  502    0 -0.46703535568E+01  0.41965352335E+02 -0.11819152064E+02  0.44098586763E+02  0.47000000000E+01 0. -1.
         -5    1    4    4    0  503 -0.16730505819E+02 -0.41337812299E+02  0.24338393545E+02  0.51021289194E+02  0.47000000000E+01 0.  1.
          5    1    4    4  503    0 -0.26041227978E+02  0.22185617305E+02 -0.43349283711E+02  0.55421995346E+02  0.47000000000E+01 0. -1.
         -5    1    3    3    0  502  0.47442087354E+02 -0.22813157342E+02  0.16294582613E+02  0.55306375970E+02  0.47000000000E+01 0.  1.
<mgrwt>
<rscale>  0 0.10334773E+03</rscale>
<asrwt>0</asrwt>
<pdfrwt beam="1">  1        1 0.16952593E-01 0.10473184E+03</pdfrwt>
<pdfrwt beam="2">  1       -1 0.14716368E-01 0.10473184E+03</pdfrwt>
<totfact> 0.96642966E+03</totfact>
</mgrwt>
</event>
<event>
 8    1  0.5224537E-004  0.1001260E+03  0.7546771E-02  0.1280249E+00
         -1   -1    0    0    0  501 -0.00000000000E+00  0.00000000000E+00  0.61605567550E+02  0.61605567550E+02  0.00000000000E+00 0.  1.
          1   -1    0    0  501    0  0.00000000000E+00 -0.00000000000E+00 -0.18919874124E+03  0.18919874124E+03  0.00000000000E+00 0. -1.
         23    2    1    2    0    0 -0.35237708424E+02 -0.18008396677E+02 -0.11140426041E+03  0.14978690174E+03  0.91973954188E+02 0.  0.
         23    2    1    2    0    0  0.35237708424E+02  0.18008396677E+02 -0.16188913276E+02  0.10101740705E+03  0.91522877837E+02 0.  0.
          5    1    4    4  502    0  0.61640562427E+02 -0.74334777513E+01 -0.53457637195E+01  0.62493861439E+02  0.47000000000E+01 0. -1.
         -5    1    3    3    0  503 -0.24648550528E+02  0.83297177134E+01  0.74746511905E+01  0.27475364433E+02  0.47000000000E+01 0.  1.
          5    1    3    3  503    0 -0.10589157896E+02 -0.26338114390E+02 -0.11887891160E+03  0.12231153731E+03  0.47000000000E+01 0. -1.
         -5    1    4    4    0  502 -0.26402854003E+02  0.25441874428E+02 -0.10843149556E+02  0.38523545608E+02  0.47000000000E+01 0.  1.
<mgrwt>
<rscale>  0 0.10002225E+03</rscale>
<asrwt>0</asrwt>
<pdfrwt beam="1">  1        1 0.29107498E-01 0.10012595E+03</pdfrwt>
<pdfrwt beam="2">  1       -1 0.94777798E-02 0.10012595E+03</pdfrwt>
<totfact> 0.95889606E+03</totfact>
</mgrwt>
</event>
<event>
 8    1  0.5224537E-004  0.1655833E+03  0.7546771E-02  0.1185341E+00
          2   -1    0    0  501    0  0.00000000000E+00  0.00000000000E+00  0.11200020558E+04  0.11200020558E+04  0.00000000000E+00 0. -1.
         -2   -1    0    0    0  501 -0.00000000000E+00 -0.00000000000E+00 -0.43211932786E+02  0.43211932786E+02  0.00000000000E+00 0.  1.
         23    2    1    2    0    0  0.16542660032E+02  0.12508134597E+03  0.13189588671E+03  0.20392105369E+03  0.90930019764E+02 0.  0.
         23    2    1    2    0    0 -0.16542660032E+02 -0.12508134597E+03  0.94489423633E+03  0.95929293493E+03  0.10723252510E+03 0.  0.
          5    1    3    3  502    0  0.27780428687E+02  0.66690524777E+02  0.12422471384E+03  0.14378194547E+03  0.47000000000E+01 0. -1.
         -5    1    3    3    0  502 -0.11237768655E+02  0.58390821195E+02  0.76711728669E+01  0.60139108219E+02  0.47000000000E+01 0.  1.
          5    1    4    4  503    0  0.25780686500E+01 -0.10662095939E+03  0.90408258195E+03  0.91036370776E+03  0.47000000000E+01 0. -1.
         -5    1    4    4    0  503 -0.19120728682E+02 -0.18460386579E+02  0.40811654384E+02  0.48929227170E+02  0.47000000000E+01 0.  1.
<mgrwt>
<rscale>  0 0.16300866E+03</rscale>
<asrwt>0</asrwt>
<pdfrwt beam="1">  1        2 0.17230799E+00 0.16558326E+03</pdfrwt>
<pdfrwt beam="2">  1       -2 0.66479905E-02 0.16558326E+03</pdfrwt>
<totfact> 0.27866300E+03</totfact>
</mgrwt>
</event>
<event>
 8    1  0.1009921E-003  0.1376116E+03  0.7546771E-02  0.1217618E+00
          1   -1    0    0  501    0  0.00000000000E+00  0.00000000000E+00  0.70254488708E+03  0.70254488708E+03  0.00000000000E+00 0. -1.
         -1   -1    0    0    0  501 -0.00000000000E+00 -0.00000000000E+00 -0.78986293921E+02  0.78986293921E+02  0.00000000000E+00 0.  1.
         23    2    1    2    0    0 -0.37198727991E+02  0.92913625087E+02  0.62955515628E+03  0.64378900315E+03  0.90043870904E+02 0.  0.
         23    2    1    2    0    0  0.37198727991E+02 -0.92913625087E+02 -0.59965631124E+01  0.13774217786E+03  0.94447137074E+02 0.  0.
          5    1    3    3  502    0  0.11293445884E+02  0.79460132400E+02  0.45563674689E+03  0.46267525293E+03  0.47000000000E+01 0. -1.
         -5    1    4    4    0  503 -0.58694644474E+01 -0.87258893769E+02 -0.23491932807E+02  0.90678145447E+02  0.47000000000E+01 0.  1.
          5    1    4    4  503    0  0.43068192438E+02 -0.56547313176E+01  0.17495369695E+02  0.47064032412E+02  0.47000000000E+01 0. -1.
         -5    1    3    3    0  502 -0.48492173875E+02  0.13453492687E+02  0.17391840939E+03  0.18111375021E+03  0.47000000000E+01 0.  1.
<mgrwt>
<rscale>  0 0.13685944E+03</rscale>
<asrwt>0</asrwt>
<pdfrwt beam="1">  1        1 0.10808382E+00 0.13761159E+03</pdfrwt>
<pdfrwt beam="2">  1       -1 0.12151738E-01 0.13761159E+03</pdfrwt>
<totfact> 0.12545888E+03</totfact>
</mgrwt>
</event>
<event>
 8    1  0.5224537E-004  0.1134597E+03  0.7546771E-02  0.1254536E+00
          1   -1    0    0  501    0  0.00000000000E+00  0.00000000000E+00  0.40354842133E+03  0.40354842133E+03  0.00000000000E+00 0. -1.
         -1   -1    0    0    0  501 -0.00000000000E+00 -0.00000000000E+00 -0.32116805565E+02  0.32116805565E+02  0.00000000000E+00 0.  1.
         23    2    1    2    0    0  0.20299940855E+02 -0.62736725668E+02  0.20863964524E+03  0.23723558158E+03  0.91663707410E+02 0.  0.
         23    2    1    2    0    0 -0.20299940855E+02  0.62736725668E+02  0.16279197053E+03  0.19842964532E+03  0.92331544588E+02 0.  0.
          5    1    3    3  502    0  0.47700763921E+02 -0.44834274111E+01  0.96658738285E+02  0.10798363620E+03  0.47000000000E+01 0. -1.
         -5    1    3    3    0  502 -0.27400823067E+02 -0.58253298257E+02  0.11198090695E+03  0.12925194538E+03  0.47000000000E+01 0.  1.
          5    1    4    4  503    0 -0.86678017555E+01  0.41046803836E+02  0.16766980344E+03  0.17290235359E+03  0.47000000000E+01 0. -1.
         -5    1    4    4    0  503 -0.11632139099E+02  0.21689921832E+02 -0.48778329070E+01  0.25527291728E+02  0.47000000000E+01 0.  1.
<mgrwt>
<rscale>  0 0.11332373E+03</rscale>
<asrwt>0</asrwt>
<pdfrwt beam="1">  1        1 0.62084369E-01 0.11345968E+03</pdfrwt>
<pdfrwt beam="2">  1       -1 0.49410473E-02 0.11345968E+03</pdfrwt>
<totfact> 0.10047754E+04</totfact>
</mgrwt>
</event>
<event>
 8    1  0.5224537E-004  0.9826714E+02  0.7546771E-02  0.1287840E+00
         -1   -1    0    0    0  501 -0.00000000000E+00  0.00000000000E+00  0.10474125122E+03  0.10474125122E+03  0.00000000000E+00 0.  1.
          1   -1    0    0  501    0  0.00000000000E+00 -0.00000000000E+00 -0.10836048603E+03  0.10836048603E+03  0.00000000000E+00 0. -1.
         23    2    1    2    0    0  0.69644562008E+00  0.14654024545E+02  0.46791185066E+02  0.10265880423E+03  0.90189742293E+02 0.  0.
         23    2    1    2    0    0 -0.69644562008E+00 -0.14654024545E+02 -0.50410419881E+02  0.11044293301E+03  0.97165866168E+02 0.  0.
          5    1    4    4  502    0 -0.28337090381E+02  0.15332735507E+02 -0.60017978577E+02  0.68281265526E+02  0.47000000000E+01 0. -1.
         -5    1    4    4    0  502  0.27640644761E+02 -0.29986760053E+02  0.96075586959E+01  0.42161667488E+02  0.47000000000E+01 0.  1.
          5    1    3    3  503    0 -0.28100121630E+02  0.37533291130E+02  0.59477272655E+01  0.47495581250E+02  0.47000000000E+01 0. -1.
         -5    1    3    3    0  503  0.28796567250E+02 -0.22879266584E+02  0.40843457800E+02  0.55163222983E+02  0.47000000000E+01 0.  1.
<mgrwt>
<rscale>  0 0.96496875E+02</rscale>
<asrwt>0</asrwt>
<pdfrwt beam="1">  1        1 0.16670844E-01 0.98267141E+02</pdfrwt>
<pdfrwt beam="2">  1       -1 0.16114039E-01 0.98267141E+02</pdfrwt>
<totfact> 0.85236211E+03</totfact>
</mgrwt>
</event>
<event>
 7    1  0.5224537E-004  0.1696536E+03  0.7546771E-02  0.1204573E+00
         -1   -1    0    0    0  501 -0.00000000000E+00  0.00000000000E+00  0.22389057210E+02  0.22389057210E+02  0.00000000000E+00 0.  1.
          1   -1    0    0  501    0  0.00000000000E+00 -0.00000000000E+00 -0.93785725633E+03  0.93785725633E+03  0.00000000000E+00 0. -1.
         23    2    1    2    0    0 -0.19005788575E+02  0.18005304150E+02 -0.16046140502E+03  0.18641325945E+03  0.91195558122E+02 0.  0.
          5    1    3    3  502    0 -0.23670010728E+02 -0.10216734928E+02 -0.15464172437E+03  0.15684643444E+03  0.47000000000E+01 0. -1.
         -5    1    1    2    0  503  0.63090774602E+02 -0.51814848839E+02 -0.64830607931E+03  0.65344325451E+03  0.47000000000E+01 0.  1.
          5    1    1    2  503    0 -0.44084986026E+02  0.33809544689E+02 -0.10670071480E+03  0.12038979958E+03  0.47000000000E+01 0. -1.
         -5    1    3    3    0  502  0.46642221532E+01  0.28222039078E+02 -0.58196806425E+01  0.29566825004E+02  0.47000000000E+01 0.  1.
<mgrwt>
<rscale>  0 0.14671175E+03</rscale>
<asrwt>0</asrwt>
<pdfrwt beam="1">  1        1 0.14428570E+00 0.16965358E+03</pdfrwt>
<pdfrwt beam="2">  1       -1 0.34444711E-02 0.16965358E+03</pdfrwt>
<totfact> 0.53860394E+03</totfact>
</mgrwt>
</event>
<event>
 8    1  0.5224537E-004  0.1028796E+03  0.7546771E-02  0.1275390E+00
         -4   -1    0    0    0  501 -0.00000000000E+00  0.00000000000E+00  0.31433615525E+03  0.31433615525E+03  0.00000000000E+00 0.  1.
          4   -1    0    0  501    0  0.00000000000E+00 -0.00000000000E+00 -0.33921588805E+02  0.33921588805E+02  0.00000000000E+00 0. -1.
         23    2    1    2    0    0  0.91732232964E+01 -0.44079259512E+02  0.11034493774E+03  0.14949181436E+03  0.90247815092E+02 0.  0.
         23    2    1    2    0    0 -0.91732232964E+01  0.44079259512E+02  0.17006962870E+03  0.19876592970E+03  0.92504524527E+02 0.  0.
          5    1    3    3  502    0 -0.28046971290E+02 -0.39831264791E+02  0.98387727779E+02  0.10988811233E+03  0.47000000000E+01 0. -1.
         -5    1    3    3    0  502  0.37220194586E+02 -0.42479947209E+01  0.11957209965E+02  0.39603702028E+02  0.47000000000E+01 0.  1.
          5    1    4    4  503    0  0.34023437826E+02  0.18777122705E+02  0.28185583883E+02  0.48235793737E+02  0.47000000000E+01 0. -1.
         -5    1    4    4    0  503 -0.43196661123E+02  0.25302136808E+02  0.14188404481E+03  0.15053013596E+03  0.47000000000E+01 0.  1.
<mgrwt>
<rscale>  0 0.10236977E+03</rscale>
<asrwt>0</asrwt>
<pdfrwt beam="1">  1        4 0.52187062E-02 0.10287962E+03</pdfrwt>
<pdfrwt beam="2">  1       -4 0.48359406E-01 0.10287962E+03</pdfrwt>
<totfact> 0.14304422E+03</totfact>
</mgrwt>
</event>
<event>
 8    1  0.5224537E-004  0.9990979E+02  0.7546771E-02  0.1286673E+00
         -3   -1    0    0    0  501 -0.00000000000E+00  0.00000000000E+00  0.11201431853E+03  0.11201431853E+03  0.00000000000E+00 0.  1.
          3   -1    0    0  501    0  0.00000000000E+00 -0.00000000000E+00 -0.82460195364E+02  0.82460195364E+02  0.00000000000E+00 0. -1.
         23    2    1    2    0    0  0.85292322057E+01 -0.10671123145E+01  0.33878700653E+02  0.10549754758E+03  0.99539337231E+02 0.  0.
         23    2    1    2    0    0 -0.85292322057E+01  0.10671123145E+01 -0.43245774846E+01  0.88976966317E+02  0.88455141365E+02 0.  0.
          5    1    3    3  502    0 -0.16714805674E+02  0.33460850554E+02 -0.14825565157E+02  0.40508031682E+02  0.47000000000E+01 0. -1.
         -5    1    3    3    0  502  0.25244037880E+02 -0.34527962868E+02  0.48704265810E+02  0.64989515896E+02  0.47000000000E+01 0.  1.
          5    1    4    4  503    0  0.64193948882E+01  0.35934984125E+02 -0.25971735868E+02  0.45046118355E+02  0.47000000000E+01 0. -1.
         -5    1    4    4    0  503 -0.14948627094E+02 -0.34867871811E+02  0.21647158383E+02  0.43930847962E+02  0.47000000000E+01 0.  1.
<mgrwt>
<rscale>  0 0.97027991E+02</rscale>
<asrwt>0</asrwt>
<pdfrwt beam="1">  1        3 0.12686184E-01 0.99909790E+02</pdfrwt>
<pdfrwt beam="2">  1       -3 0.17232972E-01 0.99909790E+02</pdfrwt>
<totfact> 0.31019029E+03</totfact>
</mgrwt>
</event>
<event>
 8    1  0.5224537E-004  0.1075649E+03  0.7546771E-02  0.1265800E+00
         -2   -1    0    0    0  501 -0.00000000000E+00  0.00000000000E+00  0.40347784020E+02  0.40347784020E+02  0.00000000000E+00 0.  1.
          2   -1    0    0  501    0  0.00000000000E+00 -0.00000000000E+00 -0.31895852289E+03  0.31895852289E+03  0.00000000000E+00 0. -1.
         23    2    1    2    0    0  0.53493165370E+02 -0.14984665747E+02 -0.79898151049E+02  0.13399221480E+03  0.92109392224E+02 0.  0.
         23    2    1    2    0    0 -0.53493165370E+02  0.14984665747E+02 -0.19871258782E+03  0.22531409211E+03  0.90518995785E+02 0.  0.
          5    1    3    3  502    0  0.99937323499E+00 -0.39423149959E+02 -0.61211652642E+02  0.72966704178E+02  0.47000000000E+01 0. -1.
         -5    1    3    3    0  502  0.52493792135E+02  0.24438484212E+02 -0.18686498408E+02  0.61025510617E+02  0.47000000000E+01 0.  1.
          5    1    4    4  503    0 -0.76289670929E+02  0.25259865095E+02 -0.14395948003E+03  0.16493815982E+03  0.47000000000E+01 0. -1.
         -5    1    4    4    0  503  0.22796505559E+02 -0.10275199348E+02 -0.54753107790E+02  0.60375932291E+02  0.47000000000E+01 0.  1.
<mgrwt>
<rscale>  0 0.10722356E+03</rscale>
<asrwt>0</asrwt>
<pdfrwt beam="1">  1        2 0.49070543E-01 0.10756486E+03</pdfrwt>
<pdfrwt beam="2">  1       -2 0.62073513E-02 0.10756486E+03</pdfrwt>
<totfact> 0.13261511E+04</totfact>
</mgrwt>
</event>
<event>
 8    1  0.5224537E-004  0.9509928E+02  0.7546771E-02  0.1291357E+00
         -1   -1    0    0    0  501 -0.00000000000E+00  0.00000000000E+00  0.78448125046E+02  0.78448125046E+02  0.00000000000E+00 0.  1.
          1   -1    0    0  501    0  0.00000000000E+00 -0.00000000000E+00 -0.11732712724E+03  0.11732712724E+03  0.00000000000E+00 0. -1.
         23    2    1    2    0    0  0.16634871248E+02 -0.16652221850E+02 -0.39526658486E+01  0.94465219574E+02  0.91400430567E+02 0.  0.
         23    2    1    2    0    0 -0.16634871248E+02  0.16652221850E+02 -0.34926336343E+02  0.10131003271E+03  0.92140427193E+02 0.  0.
          5    1    4    4  502    0  0.23727911397E+02 -0.23205108325E+02 -0.28557122201E+02  0.44035100319E+02  0.47000000000E+01 0. -1.
         -5    1    4    4    0  502 -0.40362782645E+02  0.39857330175E+02 -0.63692141416E+01  0.57274932391E+02  0.47000000000E+01 0.  1.
          5    1    3    3  503    0  0.42218124283E+02  0.12362043540E+02  0.20184689667E+02  0.48628200002E+02  0.47000000000E+01 0. -1.
         -5    1    3    3    0  503 -0.25583253035E+02 -0.29014265390E+02 -0.24137355516E+02  0.45837019572E+02  0.47000000000E+01 0.  1.
<mgrwt>
<rscale>  0 0.94919576E+02</rscale>
<asrwt>0</asrwt>
<pdfrwt beam="1">  1        1 0.18050327E-01 0.95099284E+02</pdfrwt>
<pdfrwt beam="2">  1       -1 0.12068942E-01 0.95099284E+02</pdfrwt>
<totfact> 0.12007294E+04</totfact>
</mgrwt>
</event>
<event>
 8    1  0.5224537E-004  0.9521706E+02  0.7546771E-02  0.1292001E+00
          1   -1    0    0  501    0  0.00000000000E+00  0.00000000000E+00  0.71720058391E+02  0.71720058391E+02  0.00000000000E+00 0. -1.
         -1   -1    0    0    0  501 -0.00000000000E+00 -0.00000000000E+00 -0.22188746948E+03  0.22188746948E+03  0.00000000000E+00 0.  1.
         23    2    1    2    0    0  0.27714123281E+02  0.56313695714E+01  0.23246377087E+02  0.95772670481E+02  0.88499861078E+02 0.  0.
         23    2    1    2    0    0 -0.27714123281E+02 -0.56313695714E+01 -0.17341378817E+03  0.19783485739E+03  0.90920316304E+02 0.  0.
          5    1    3    3  502    0 -0.23769646138E+02 -0.19436797107E+02  0.22425804976E+02  0.38311772187E+02  0.47000000000E+01 0. -1.
         -5    1    3    3    0  502  0.51483769418E+02  0.25068166678E+02  0.82057211051E+00  0.57460898294E+02  0.47000000000E+01 0.  1.
          5    1    4    4  503    0  0.19090277786E+02 -0.26357023991E+02 -0.11691764623E+03  0.12145351958E+03  0.47000000000E+01 0. -1.
         -5    1    4    4    0  503 -0.46804401066E+02  0.20725654419E+02 -0.56496141945E+02  0.76381337805E+02  0.47000000000E+01 0.  1.
<mgrwt>
<rscale>  0 0.94634627E+02</rscale>
<asrwt>0</asrwt>
<pdfrwt beam="1">  1        1 0.11033855E-01 0.95217062E+02</pdfrwt>
<pdfrwt beam="2">  1       -1 0.34136533E-01 0.95217062E+02</pdfrwt>
<totfact> 0.42882187E+03</totfact>
</mgrwt>
</event>
<event>
 8    1  0.5224537E-004  0.9820312E+02  0.7546771E-02  0.1284921E+00
          2   -1    0    0  501    0  0.00000000000E+00  0.00000000000E+00  0.35632646119E+03  0.35632646119E+03  0.00000000000E+00 0. -1.
         -2   -1    0    0    0  501 -0.00000000000E+00 -0.00000000000E+00 -0.34292601647E+02  0.34292601647E+02  0.00000000000E+00 0.  1.
         23    2    1    2    0    0  0.27907896242E+02  0.81705216513E+01  0.25221045220E+03  0.27012357951E+03  0.92255232424E+02 0.  0.
         23    2    1    2    0    0 -0.27907896242E+02 -0.81705216513E+01  0.69823407337E+02  0.12049548333E+03  0.93798961578E+02 0.  0.
          5    1    4    4  502    0 -0.53097568415E+02 -0.84450343103E+01  0.76864671137E+02  0.93919849047E+02  0.47000000000E+01 0. -1.
         -5    1    4    4    0  502  0.25189672173E+02  0.27451265902E+00 -0.70412638002E+01  0.26575634278E+02  0.47000000000E+01 0.  1.
          5    1    3    3  503    0 -0.18308678765E+02 -0.26659479783E+02  0.49924322987E+02  0.59669620462E+02  0.47000000000E+01 0. -1.
         -5    1    3    3    0  503  0.46216575006E+02  0.34830001434E+02  0.20228612922E+03  0.21045395905E+03  0.47000000000E+01 0.  1.
<mgrwt>
<rscale>  0 0.97832678E+02</rscale>
<asrwt>0</asrwt>
<pdfrwt beam="1">  1        2 0.54819453E-01 0.98203123E+02</pdfrwt>
<pdfrwt beam="2">  1       -2 0.52757851E-02 0.98203123E+02</pdfrwt>
<totfact> 0.14943587E+04</totfact>
</mgrwt>
</event>
<event>
 8    1  0.5224537E-004  0.9456741E+02  0.7546771E-02  0.1294231E+00
          1   -1    0    0  501    0  0.00000000000E+00  0.00000000000E+00  0.16686255153E+03  0.16686255153E+03  0.00000000000E+00 0. -1.
         -1   -1    0    0    0  501 -0.00000000000E+00 -0.00000000000E+00 -0.79033589404E+02  0.79033589404E+02  0.00000000000E+00 0.  1.
         23    2    1    2    0    0 -0.79315087284E+01 -0.17159731494E+02 -0.27986072450E+02  0.98621579281E+02  0.92658677052E+02 0.  0.
         23    2    1    2    0    0  0.79315087284E+01  0.17159731494E+02  0.11581503457E+03  0.14727456165E+03  0.88990499833E+02 0.  0.
          5    1    3    3  502    0 -0.27238666452E+02  0.26324247308E+02  0.77287487213E+01  0.38945275750E+02  0.47000000000E+01 0. -1.
         -5    1    3    3    0  502  0.19307157724E+02 -0.43483978802E+02 -0.35714821172E+02  0.59676303531E+02  0.47000000000E+01 0.  1.
          5    1    4    4  503    0 -0.24870007010E+02 -0.12345092541E+01  0.10478073832E+03  0.10780136541E+03  0.47000000000E+01 0. -1.
         -5    1    4    4    0  503  0.32801515739E+02  0.18394240748E+02  0.11034296253E+02  0.39473196238E+02  0.47000000000E+01 0.  1.
<mgrwt>
<rscale>  0 0.93656541E+02</rscale>
<asrwt>0</asrwt>
<pdfrwt beam="1">  1        1 0.25671162E-01 0.94567413E+02</pdfrwt>
<pdfrwt beam="2">  1       -1 0.12159014E-01 0.94567413E+02</pdfrwt>
<totfact> 0.76348556E+03</totfact>
</mgrwt>
</event>
<event>
 8    1  0.5224537E-004  0.2373566E+03  0.7546771E-02  0.1122272E+00
          1   -1    0    0  501    0  0.00000000000E+00  0.00000000000E+00  0.66853902611E+03  0.66853902611E+03  0.00000000000E+00 0. -1.
         -1   -1    0    0    0  501 -0.00000000000E+00 -0.00000000000E+00 -0.95381479379E+02  0.95381479379E+02  0.00000000000E+00 0.  1.
         23    2    1    2    0    0 -0.20915761292E+03 -0.65299674853E+02  0.15008924977E+03  0.28082901953E+03  0.91253497139E+02 0.  0.
         23    2    1    2    0    0  0.20915761292E+03  0.65299674853E+02  0.42306829696E+03  0.48309148595E+03  0.79872681993E+02 0.  0.
          5    1    3    3  502    0 -0.19047028539E+03 -0.55805202834E+02  0.16202318806E+03  0.25625525116E+03  0.47000000000E+01 0. -1.
         -5    1    3    3    0  502 -0.18687327523E+02 -0.94944720191E+01 -0.11933938288E+02  0.24573768371E+02  0.47000000000E+01 0.  1.
          5    1    4    4  503    0  0.12683301655E+03 -0.98730110574E-01  0.25393865902E+03  0.28389004276E+03  0.47000000000E+01 0. -1.
         -5    1    4    4    0  503  0.82324596367E+02  0.65398404964E+02  0.16912963794E+03  0.19920144319E+03  0.47000000000E+01 0.  1.
<mgrwt>
<rscale>  0 0.23631510E+03</rscale>
<asrwt>0</asrwt>
<pdfrwt beam="1">  1        1 0.10285215E+00 0.23735660E+03</pdfrwt>
<pdfrwt beam="2">  1       -1 0.14674074E-01 0.23735660E+03</pdfrwt>
<totfact> 0.10055438E+03</totfact>
</mgrwt>
</event>
<event>
 8    1  0.5224537E-004  0.1057145E+03  0.7546771E-02  0.1269900E+00
         -1   -1    0    0    0  501 -0.00000000000E+00  0.00000000000E+00  0.21495447237E+03  0.21495447237E+03  0.00000000000E+00 0.  1.
          1   -1    0    0  501    0  0.00000000000E+00 -0.00000000000E+00 -0.58704975178E+02  0.58704975178E+02  0.00000000000E+00 0. -1.
         23    2    1    2    0    0 -0.34208937698E+01 -0.51830834018E+02  0.12903962691E+03  0.16681362592E+03  0.92072920074E+02 0.  0.
         23    2    1    2    0    0  0.34208937698E+01  0.51830834018E+02  0.27209870282E+02  0.10684582163E+03  0.89316933945E+02 0.  0.
          5    1    3    3  502    0  0.11284283586E+02  0.24739537821E+02  0.32755638290E+02  0.42829915100E+02  0.47000000000E+01 0. -1.
         -5    1    3    3    0  502 -0.14705177356E+02 -0.76570371839E+02  0.96283988623E+02  0.12398371082E+03  0.47000000000E+01 0.  1.
          5    1    4    4  503    0  0.25706010508E+02  0.65556060210E+02  0.26100011658E+01  0.70620805097E+02  0.47000000000E+01 0. -1.
         -5    1    4    4    0  503 -0.22285116738E+02 -0.13725226192E+02  0.24599869116E+02  0.36225016530E+02  0.47000000000E+01 0.  1.
<mgrwt>
<rscale>  0 0.10511152E+03</rscale>
<asrwt>0</asrwt>
<pdfrwt beam="1">  1        1 0.90315347E-02 0.10571452E+03</pdfrwt>
<pdfrwt beam="2">  1       -1 0.33069919E-01 0.10571452E+03</pdfrwt>
<totfact> 0.59325846E+03</totfact>
</mgrwt>
</event>
<event>
 8    1  0.5224537E-004  0.9536677E+02  0.7546771E-02  0.1291468E+00
         -1   -1    0    0    0  501 -0.00000000000E+00  0.00000000000E+00  0.10971315642E+03  0.10971315642E+03  0.00000000000E+00 0.  1.
          1   -1    0    0  501    0  0.00000000000E+00 -0.00000000000E+00 -0.36489458271E+03  0.36489458271E+03  0.00000000000E+00 0. -1.
         23    2    1    2    0    0  0.19107718284E+02 -0.14921777391E+02  0.81353835949E+02  0.12535257483E+03  0.92233708884E+02 0.  0.
         23    2    1    2    0    0 -0.19107718284E+02  0.14921777391E+02 -0.33653526224E+03  0.34925516429E+03  0.90196578200E+02 0.  0.
          5    1    3    3  502    0 -0.33328226284E+02 -0.24466751394E+02  0.40128483744E+02  0.57808111875E+02  0.47000000000E+01 0. -1.
         -5    1    3    3    0  502  0.52435944568E+02  0.95449740035E+01  0.41225352205E+02  0.67544462955E+02  0.47000000000E+01 0.  1.
          5    1    4    4  503    0 -0.49130842463E+02  0.13198897044E+02 -0.28383727849E+03  0.28839858048E+03  0.47000000000E+01 0. -1.
         -5    1    4    4    0  503  0.30023124179E+02  0.17228803470E+01 -0.52697983749E+02  0.60856583813E+02  0.47000000000E+01 0.  1.
<mgrwt>
<rscale>  0 0.94870724E+02</rscale>
<asrwt>0</asrwt>
<pdfrwt beam="1">  1        1 0.56137627E-01 0.95366773E+02</pdfrwt>
<pdfrwt beam="2">  1       -1 0.16878947E-01 0.95366773E+02</pdfrwt>
<totfact> 0.17605490E+03</totfact>
</mgrwt>
</event>
<event>
 8    1  0.5224537E-004  0.1005982E+03  0.7546771E-02  0.1279200E+00
          3   -1    0    0  501    0  0.00000000000E+00  0.00000000000E+00  0.16634327704E+03  0.16634327704E+03  0.00000000000E+00 0. -1.
         -3   -1    0    0    0  501 -0.00000000000E+00 -0.00000000000E+00 -0.12570237108E+03  0.12570237108E+03  0.00000000000E+00 0.  1.
         23    2    1    2    0    0  0.40711638997E+02 -0.48522710475E+01  0.12534684742E+03  0.16053485213E+03  0.91534826746E+02 0.  0.
         23    2    1    2    0    0 -0.40711638997E+02  0.48522710475E+01 -0.84705941461E+02  0.13151079598E+03  0.91864089049E+02 0.  0.
          5    1    3    3  502    0  0.40429231831E+02  0.22066537122E+02  0.12489866322E+03  0.13320368209E+03  0.47000000000E+01 0. -1.
         -5    1    3    3    0  502  0.28240716604E+00 -0.26918808169E+02  0.44818419844E+00  0.27331170047E+02  0.47000000000E+01 0.  1.
          5    1    4    4  503    0 -0.34596393725E+01 -0.33141254539E+02 -0.67446482275E+02  0.75375260054E+02  0.47000000000E+01 0. -1.
         -5    1    4    4    0  503 -0.37251999624E+02  0.37993525586E+02 -0.17259459186E+02  0.56135535928E+02  0.47000000000E+01 0.  1.
<mgrwt>
<rscale>  0 0.10052294E+03</rscale>
<asrwt>0</asrwt>
<pdfrwt beam="1">  1        3 0.25591273E-01 0.10059818E+03</pdfrwt>
<pdfrwt beam="2">  1       -3 0.19338826E-01 0.10059818E+03</pdfrwt>
<totfact> 0.75483205E+02</totfact>
</mgrwt>
</event>
<event>
 8    1  0.5224537E-004  0.9675188E+02  0.7546771E-02  0.1287761E+00
         -1   -1    0    0    0  501 -0.00000000000E+00  0.00000000000E+00  0.43152287070E+02  0.43152287070E+02  0.00000000000E+00 0.  1.
          1   -1    0    0  501    0  0.00000000000E+00 -0.00000000000E+00 -0.21498311412E+03  0.21498311412E+03  0.00000000000E+00 0. -1.
         23    2    1    2    0    0  0.99479561027E+01 -0.27076773828E+02 -0.84607907151E+02  0.12787119616E+03  0.91435394364E+02 0.  0.
         23    2    1    2    0    0 -0.99479561027E+01  0.27076773828E+02 -0.87222919901E+02  0.13026420504E+03  0.92351566560E+02 0.  0.
          5    1    3    3  502    0 -0.10231119409E+02 -0.38815987509E+02 -0.93962599781E+02  0.10228595626E+03  0.47000000000E+01 0. -1.
         -5    1    3    3    0  502  0.20179075512E+02  0.11739213681E+02  0.93546926292E+01  0.25585239896E+02  0.47000000000E+01 0.  1.
          5    1    4    4  503    0  0.37378407376E+02  0.31307156287E+02 -0.42794792697E+02  0.65044351443E+02  0.47000000000E+01 0. -1.
         -5    1    4    4    0  503 -0.47326363478E+02 -0.42303824587E+01 -0.44428127205E+02  0.65219853593E+02  0.47000000000E+01 0.  1.
<mgrwt>
<rscale>  0 0.96532602E+02</rscale>
<asrwt>0</asrwt>
<pdfrwt beam="1">  1        1 0.33074326E-01 0.96751875E+02</pdfrwt>
<pdfrwt beam="2">  1       -1 0.66388133E-02 0.96751875E+02</pdfrwt>
<totfact> 0.13911508E+04</totfact>
</mgrwt>
</event>
<event>
 8    1  0.5224537E-004  0.1132204E+03  0.7546771E-02  0.1256919E+00
         -3   -1    0    0    0  501 -0.00000000000E+00  0.00000000000E+00  0.21139430406E+03  0.21139430406E+03  0.00000000000E+00 0.  1.
          3   -1    0    0  501    0  0.00000000000E+00 -0.00000000000E+00 -0.12846445055E+03  0.12846445055E+03  0.00000000000E+00 0. -1.
         23    2    1    2    0    0 -0.26052004751E+02  0.46549709851E+02 -0.84706260088E+02  0.13757002653E+03  0.94365137963E+02 0.  0.
         23    2    1    2    0    0  0.26052004751E+02 -0.46549709851E+02  0.16763611359E+03  0.20228872808E+03  0.99866313080E+02 0.  0.
          5    1    4    4  502    0  0.39594883119E+02 -0.53729790736E+00  0.15637964425E+02  0.42833157595E+02  0.47000000000E+01 0. -1.
         -5    1    4    4    0  502 -0.13542878368E+02 -0.46012411943E+02  0.15199814917E+03  0.15945557048E+03  0.47000000000E+01 0.  1.
          5    1    3    3  503    0 -0.54120874253E+02  0.53066603600E+02 -0.44961227198E+02  0.88253812374E+02  0.47000000000E+01 0. -1.
         -5    1    3    3    0  503  0.28068869502E+02 -0.65168937489E+01 -0.39745032891E+02  0.49316214156E+02  0.47000000000E+01 0.  1.
<mgrwt>
<rscale>  0 0.11199534E+03</rscale>
<asrwt>0</asrwt>
<pdfrwt beam="1">  1        3 0.19763762E-01 0.11322042E+03</pdfrwt>
<pdfrwt beam="2">  1       -3 0.32522201E-01 0.11322042E+03</pdfrwt>
<totfact> 0.47773376E+02</totfact>
</mgrwt>
</event>
<event>
 8    1  0.5224537E-004  0.9809314E+02  0.7546771E-02  0.1287545E+00
          1   -1    0    0  501    0  0.00000000000E+00  0.00000000000E+00  0.12087419629E+03  0.12087419629E+03  0.00000000000E+00 0. -1.
         -1   -1    0    0    0  501 -0.00000000000E+00 -0.00000000000E+00 -0.83171146525E+02  0.83171146525E+02  0.00000000000E+00 0.  1.
         23    2    1    2    0    0 -0.19093293031E+02  0.28089641551E-01 -0.13564659271E+02  0.93362723032E+02  0.90377228565E+02 0.  0.
         23    2    1    2    0    0  0.19093293031E+02 -0.28089641551E-01  0.51267709031E+02  0.11068261978E+03  0.96216992802E+02 0.  0.
          5    1    4    4  502    0  0.55970281390E+01  0.45278285879E+02  0.82643140780E+01  0.46602991141E+02  0.47000000000E+01 0. -1.
         -5    1    4    4    0  502  0.13496264892E+02 -0.45306375520E+02  0.43003394953E+02  0.64079628637E+02  0.47000000000E+01 0.  1.
          5    1    3    3  503    0 -0.21975913261E+02 -0.22344009279E+02 -0.44597966421E+02  0.54710731335E+02  0.47000000000E+01 0. -1.
         -5    1    3    3    0  503  0.28826202301E+01  0.22372098921E+02  0.31033307150E+02  0.38651991697E+02  0.47000000000E+01 0.  1.
<mgrwt>
<rscale>  0 0.96630481E+02</rscale>
<asrwt>0</asrwt>
<pdfrwt beam="1">  1        1 0.18596030E-01 0.98093141E+02</pdfrwt>
<pdfrwt beam="2">  1       -1 0.12795561E-01 0.98093141E+02</pdfrwt>
<totfact> 0.10603047E+04</totfact>
</mgrwt>
</event>
<event>
 8    1  0.5224537E-004  0.1042684E+03  0.7546771E-02  0.1271653E+00
          2   -1    0    0  501    0  0.00000000000E+00  0.00000000000E+00  0.52265312984E+02  0.52265312984E+02  0.00000000000E+00 0. -1.
         -2   -1    0    0    0  501 -0.00000000000E+00 -0.00000000000E+00 -0.20845644397E+03  0.20845644397E+03  0.00000000000E+00 0.  1.
         23    2    1    2    0    0 -0.43855240600E+02 -0.23465210348E+02 -0.70158373692E+02  0.12567454432E+03  0.91640577615E+02 0.  0.
         23    2    1    2    0    0  0.43855240600E+02  0.23465210348E+02 -0.86032757293E+02  0.13504721264E+03  0.91445153444E+02 0.  0.
          5    1    4    4  502    0  0.51285186571E+02  0.43304642236E+02 -0.27622400941E+02  0.72736163183E+02  0.47000000000E+01 0. -1.
         -5    1    4    4    0  502 -0.74299459707E+01 -0.19839431888E+02 -0.58410356352E+02  0.62311049452E+02  0.47000000000E+01 0.  1.
          5    1    3    3  503    0 -0.87850278078E+01  0.34380519031E+02 -0.17640167918E+02  0.39905667851E+02  0.47000000000E+01 0. -1.
         -5    1    3    3    0  503 -0.35070212792E+02 -0.57845729380E+02 -0.52518205774E+02  0.85768876467E+02  0.47000000000E+01 0.  1.
<mgrwt>
<rscale>  0 0.10422542E+03</rscale>
<asrwt>0</asrwt>
<pdfrwt beam="1">  1        2 0.80408176E-02 0.10426837E+03</pdfrwt>
<pdfrwt beam="2">  1       -2 0.32070221E-01 0.10426837E+03</pdfrwt>
<totfact> 0.70522038E+03</totfact>
</mgrwt>
</event>
<event>
 8    1  0.5224537E-004  0.9729478E+02  0.7546771E-02  0.1286624E+00
         -3   -1    0    0    0  501 -0.00000000000E+00  0.00000000000E+00  0.63526628290E+03  0.63526628290E+03  0.00000000000E+00 0.  1.
          3   -1    0    0  501    0  0.00000000000E+00 -0.00000000000E+00 -0.25656506738E+02  0.25656506738E+02  0.00000000000E+00 0. -1.
         23    2    1    2    0    0 -0.23636313061E+02 -0.17920531076E+02  0.88489597050E+02  0.13079778954E+03  0.91639687005E+02 0.  0.
         23    2    1    2    0    0  0.23636313061E+02  0.17920531076E+02  0.52112017911E+03  0.53012500009E+03  0.92663120586E+02 0.  0.
          5    1    3    3  502    0 -0.19432096905E+02 -0.45122116589E+02  0.14080755535E+02  0.51322212267E+02  0.47000000000E+01 0. -1.
         -5    1    3    3    0  502 -0.42042161563E+01  0.27201585513E+02  0.74408841515E+02  0.79475577277E+02  0.47000000000E+01 0.  1.
          5    1    4    4  503    0  0.53437154878E+02 -0.13143672573E+01  0.20201088000E+03  0.20901613029E+03  0.47000000000E+01 0. -1.
         -5    1    4    4    0  503 -0.29800841817E+02  0.19234898333E+02  0.31910929911E+03  0.32110886980E+03  0.47000000000E+01 0.  1.
<mgrwt>
<rscale>  0 0.97050310E+02</rscale>
<asrwt>0</asrwt>
<pdfrwt beam="1">  1        3 0.39471554E-02 0.97294782E+02</pdfrwt>
<pdfrwt beam="2">  1       -3 0.97733263E-01 0.97294782E+02</pdfrwt>
<totfact> 0.69325039E+02</totfact>
</mgrwt>
</event>
<event>
 8    1  0.5224537E-004  0.1293533E+03  0.7546771E-02  0.1228861E+00
         -1   -1    0    0    0  501 -0.00000000000E+00  0.00000000000E+00  0.84813043955E+02  0.84813043955E+02  0.00000000000E+00 0.  1.
          1   -1    0    0  501    0  0.00000000000E+00 -0.00000000000E+00 -0.20465840505E+03  0.20465840505E+03  0.00000000000E+00 0. -1.
         23    2    1    2    0    0 -0.18324070877E+02 -0.85897364108E+02 -0.90296604896E+02  0.15678612311E+03  0.93350323025E+02 0.  0.
         23    2    1    2    0    0  0.18324070877E+02  0.85897364108E+02 -0.29548756202E+02  0.13268532590E+03  0.94963877250E+02 0.  0.
          5    1    3    3  502    0 -0.15990796996E+02 -0.56469808968E+02  0.28636603191E+01  0.58947735019E+02  0.47000000000E+01 0. -1.
         -5    1    4    4    0  503  0.92033516854E+01  0.10576214001E+03 -0.29658134149E+02  0.11032690906E+03  0.47000000000E+01 0.  1.
          5    1    4    4  503    0  0.91207191914E+01 -0.19864775901E+02  0.10937794759E+00  0.22358416842E+02  0.47000000000E+01 0. -1.
         -5    1    3    3    0  502 -0.23332738805E+01 -0.29427555139E+02 -0.93160265215E+02  0.97838388087E+02  0.47000000000E+01 0.  1.
<mgrwt>
<rscale>  0 0.12905727E+03</rscale>
<asrwt>0</asrwt>
<pdfrwt beam="1">  1        1 0.31485908E-01 0.12935326E+03</pdfrwt>
<pdfrwt beam="2">  1       -1 0.13048161E-01 0.12935326E+03</pdfrwt>
<totfact> 0.54406205E+03</totfact>
</mgrwt>
</event>
<event>
 8    1  0.8058221E-004  0.1209642E+03  0.7546771E-02  0.1241776E+00
         -1   -1    0    0    0  501 -0.00000000000E+00  0.00000000000E+00  0.10665238450E+03  0.10665238450E+03  0.00000000000E+00 0.  1.
          1   -1    0    0  501    0  0.00000000000E+00 -0.00000000000E+00 -0.48865400642E+03  0.48865400642E+03  0.00000000000E+00 0. -1.
         23    2    1    2    0    0 -0.24314211128E+02  0.72867154319E+02 -0.44355181895E+03  0.45958327590E+03  0.92616242385E+02 0.  0.
         23    2    1    2    0    0  0.24314211128E+02 -0.72867154319E+02  0.61550197027E+02  0.13572311502E+03  0.93442678446E+02 0.  0.
          5    1    4    4  502    0  0.50533048191E+02 -0.95635439099E+01  0.19559904169E+02  0.55224362221E+02  0.47000000000E+01 0. -1.
         -5    1    3    3    0  503 -0.16766187249E+02  0.25384342862E+02 -0.29212662480E+02  0.42437478090E+02  0.47000000000E+01 0.  1.
          5    1    3    3  503    0 -0.75480238791E+01  0.47482811457E+02 -0.41433915647E+03  0.41714579781E+03  0.47000000000E+01 0. -1.
         -5    1    4    4    0  502 -0.26218837063E+02 -0.63303610409E+02  0.41990292859E+02  0.80498752799E+02  0.47000000000E+01 0.  1.
<mgrwt>
<rscale>  0 0.12080457E+03</rscale>
<asrwt>0</asrwt>
<pdfrwt beam="1">  1        1 0.75177540E-01 0.12096420E+03</pdfrwt>
<pdfrwt beam="2">  1       -1 0.16408059E-01 0.12096420E+03</pdfrwt>
<totfact> 0.12820624E+03</totfact>
</mgrwt>
</event>
<event>
 8    1  0.5224537E-004  0.2300653E+03  0.7546771E-02  0.1126693E+00
          1   -1    0    0  501    0  0.00000000000E+00  0.00000000000E+00  0.15051798165E+03  0.15051798165E+03  0.00000000000E+00 0. -1.
         -1   -1    0    0    0  501 -0.00000000000E+00 -0.00000000000E+00 -0.39038165308E+03  0.39038165308E+03  0.00000000000E+00 0.  1.
         23    2    1    2    0    0 -0.21016183945E+03 -0.14845222528E+02 -0.20592828002E+03  0.30834502147E+03  0.91004485406E+02 0.  0.
         23    2    1    2    0    0  0.21016183945E+03  0.14845222528E+02 -0.33935391405E+02  0.23255461326E+03  0.92421090471E+02 0.  0.
          5    1    4    4  502    0  0.12210436523E+03 -0.34024211568E+02 -0.35522135694E+02  0.13172332787E+03  0.47000000000E+01 0. -1.
         -5    1    3    3    0  503 -0.11047861748E+03 -0.49916381957E+02 -0.13205140025E+03  0.17932326234E+03  0.47000000000E+01 0.  1.
          5    1    3    3  503    0 -0.99683221973E+02  0.35071159428E+02 -0.73876879767E+02  0.12902175914E+03  0.47000000000E+01 0. -1.
         -5    1    4    4    0  502  0.88057474217E+02  0.48869434097E+02  0.15867442891E+01  0.10083128538E+03  0.47000000000E+01 0.  1.
<mgrwt>
<rscale>  0 0.22992381E+03</rscale>
<asrwt>0</asrwt>
<pdfrwt beam="1">  1        1 0.23156613E-01 0.23006529E+03</pdfrwt>
<pdfrwt beam="2">  1       -1 0.60058715E-01 0.23006529E+03</pdfrwt>
<totfact> 0.61389171E+02</totfact>
</mgrwt>
</event>
<event>
 8    1  0.5224537E-004  0.9875175E+02  0.7546771E-02  0.1284317E+00
         -1   -1    0    0    0  501 -0.00000000000E+00  0.00000000000E+00  0.24383749931E+03  0.24383749931E+03  0.00000000000E+00 0.  1.
          1   -1    0    0  501    0  0.00000000000E+00 -0.00000000000E+00 -0.48409019129E+02  0.48409019129E+02  0.00000000000E+00 0. -1.
         23    2    1    2    0    0  0.31148456878E+02  0.14313458059E+02  0.32183794380E+02  0.10145674914E+03  0.89903136088E+02 0.  0.
         23    2    1    2    0    0 -0.31148456878E+02 -0.14313458059E+02  0.16324468581E+03  0.19078976930E+03  0.92611053220E+02 0.  0.
          5    1    3    3  502    0  0.55993654607E+02  0.52632247127E+01 -0.37899627228E+01  0.56563634148E+02  0.47000000000E+01 0. -1.
         -5    1    3    3    0  502 -0.24845197729E+02  0.90502333463E+01  0.35973757103E+02  0.44893114994E+02  0.47000000000E+01 0.  1.
          5    1    4    4  503    0 -0.61950584700E+02 -0.17404907490E+02  0.86575443033E+02  0.10797315910E+03  0.47000000000E+01 0.  1.
         -5    1    4    4    0  503  0.30802127822E+02  0.30914494313E+01  0.76669242773E+02  0.82816610202E+02  0.47000000000E+01 0. -1.
<mgrwt>
<rscale>  0 0.98111824E+02</rscale>
<asrwt>0</asrwt>
<pdfrwt beam="1">  1        1 0.74475415E-02 0.98751753E+02</pdfrwt>
<pdfrwt beam="2">  1       -1 0.37513461E-01 0.98751753E+02</pdfrwt>
<totfact> 0.61481159E+03</totfact>
</mgrwt>
</event>
<event>
 8    1  0.5224537E-004  0.9793268E+02  0.7546771E-02  0.1289242E+00
          1   -1    0    0  501    0  0.00000000000E+00  0.00000000000E+00  0.50695900518E+02  0.50695900518E+02  0.00000000000E+00 0. -1.
         -1   -1    0    0    0  501 -0.00000000000E+00 -0.00000000000E+00 -0.17412560187E+03  0.17412560187E+03  0.00000000000E+00 0.  1.
         23    2    1    2    0    0 -0.29469414852E+02  0.16381370476E+01 -0.61927387173E+02  0.10917832626E+03  0.84933949271E+02 0.  0.
         23    2    1    2    0    0  0.29469414852E+02 -0.16381370476E+01 -0.61502314181E+02  0.11564317613E+03  0.93379224834E+02 0.  0.
          5    1    4    4  502    0 -0.83827499673E+01 -0.38922797574E+02 -0.43953755160E+02  0.59491825158E+02  0.47000000000E+01 0. -1.
         -5    1    3    3    0  503 -0.10408582823E+02 -0.39315035278E+02 -0.14293135826E+02  0.43363513777E+02  0.47000000000E+01 0. -1.
          5    1    3    3  503    0 -0.19060832029E+02  0.40953172326E+02 -0.47634251347E+02  0.65814812486E+02  0.47000000000E+01 0.  1.
         -5    1    4    4    0  502  0.37852164819E+02  0.37284660526E+02 -0.17548559021E+02  0.56151350970E+02  0.47000000000E+01 0.  1.
<mgrwt>
<rscale>  0 0.95863900E+02</rscale>
<asrwt>0</asrwt>
<pdfrwt beam="1">  1        1 0.77993693E-02 0.97932679E+02</pdfrwt>
<pdfrwt beam="2">  1       -1 0.26788554E-01 0.97932679E+02</pdfrwt>
<totfact> 0.10168264E+04</totfact>
</mgrwt>
</event>
<event>
 8    1  0.5224537E-004  0.9799768E+02  0.7546771E-02  0.1287159E+00
         -1   -1    0    0    0  501 -0.00000000000E+00  0.00000000000E+00  0.28949844393E+02  0.28949844393E+02  0.00000000000E+00 0.  1.
          1   -1    0    0  501    0  0.00000000000E+00 -0.00000000000E+00 -0.31823582970E+03  0.31823582970E+03  0.00000000000E+00 0. -1.
         23    2    1    2    0    0 -0.34159747687E+02  0.24282362292E+01 -0.12684538059E+03  0.15747406488E+03  0.86807521795E+02 0.  0.
         23    2    1    2    0    0  0.34159747687E+02 -0.24282362292E+01 -0.16244060472E+03  0.18971160921E+03  0.91819169651E+02 0.  0.
          5    1    4    4  502    0  0.44704778481E+02 -0.29477551608E+02 -0.49739311186E+02  0.73236140976E+02  0.47000000000E+01 0.  1.
         -5    1    3    3    0  503 -0.43686520769E+01 -0.38778781660E+02 -0.75159679876E+02  0.84817135692E+02  0.47000000000E+01 0.  1.
          5    1    3    3  503    0 -0.29791095610E+02  0.41207017889E+02 -0.51685700714E+02  0.72656929189E+02  0.47000000000E+01 0. -1.
         -5    1    4    4    0  502 -0.10545030794E+02  0.27049315379E+02 -0.11270129353E+03  0.11647546823E+03  0.47000000000E+01 0. -1.
<mgrwt>
<rscale>  0 0.96806317E+02</rscale>
<asrwt>0</asrwt>
<pdfrwt beam="1">  1        1 0.48959361E-01 0.97997677E+02</pdfrwt>
<pdfrwt beam="2">  1       -1 0.44538220E-02 0.97997677E+02</pdfrwt>
<totfact> 0.15503318E+04</totfact>
</mgrwt>
</event>
<event>
 8    1  0.5224537E-004  0.9205710E+02  0.7546771E-02  0.1298928E+00
          3   -1    0    0  501    0  0.00000000000E+00  0.00000000000E+00  0.25418880243E+02  0.25418880243E+02  0.00000000000E+00 0. -1.
         -3   -1    0    0    0  501 -0.00000000000E+00 -0.00000000000E+00 -0.54031569933E+03  0.54031569933E+03  0.00000000000E+00 0.  1.
         23    2    1    2    0    0  0.13234342064E+02 -0.34633692456E+01 -0.43358541672E+03  0.44290928409E+03  0.89359820958E+02 0.  0.
         23    2    1    2    0    0 -0.13234342064E+02  0.34633692456E+01 -0.81311402364E+02  0.12282529548E+03  0.91034973059E+02 0.  0.
          5    1    3    3  502    0 -0.28128533200E+02  0.24862411875E+02 -0.13926293130E+03  0.14431080326E+03  0.47000000000E+01 0. -1.
         -5    1    3    3    0  502  0.41362875264E+02 -0.28325781120E+02 -0.29432248542E+03  0.29859848083E+03  0.47000000000E+01 0.  1.
          5    1    4    4  503    0  0.11898677936E+01  0.41635269245E+02 -0.14417779409E+02  0.44326896954E+02  0.47000000000E+01 0. -1.
         -5    1    4    4    0  503 -0.14424209857E+02 -0.38171900000E+02 -0.66893622955E+02  0.78498398529E+02  0.47000000000E+01 0.  1.
<mgrwt>
<rscale>  0 0.91640221E+02</rscale>
<asrwt>0</asrwt>
<pdfrwt beam="1">  1        3 0.39105973E-02 0.92057097E+02</pdfrwt>
<pdfrwt beam="2">  1       -3 0.83125485E-01 0.92057097E+02</pdfrwt>
<totfact> 0.99480971E+02</totfact>
</mgrwt>
</event>
<event>
 8    1  0.5224537E-004  0.9274040E+02  0.7546771E-02  0.1297355E+00
          1   -1    0    0  501    0  0.00000000000E+00  0.00000000000E+00  0.15298120069E+03  0.15298120069E+03  0.00000000000E+00 0. -1.
         -1   -1    0    0    0  501 -0.00000000000E+00 -0.00000000000E+00 -0.70431536349E+02  0.70431536349E+02  0.00000000000E+00 0.  1.
         23    2    1    2    0    0 -0.89250445113E+01  0.69983768460E+01 -0.10392400631E+02  0.93320869365E+02  0.92044277226E+02 0.  0.
         23    2    1    2    0    0  0.89250445113E+01 -0.69983768460E+01  0.92942064967E+02  0.13009186767E+03  0.90316293634E+02 0.  0.
          5    1    4    4  502    0  0.24981021685E+02  0.29713014708E+02  0.77663845169E+02  0.86952156580E+02  0.47000000000E+01 0. -1.
         -5    1    4    4    0  502 -0.16055977174E+02 -0.36711391554E+02  0.15278219798E+02  0.43139711091E+02  0.47000000000E+01 0.  1.
          5    1    3    3  503    0  0.28919512488E+02 -0.40901316072E+01  0.26051672191E+02  0.39418866080E+02  0.47000000000E+01 0. -1.
         -5    1    3    3    0  503 -0.37844556999E+02  0.11088508453E+02 -0.36444072822E+02  0.53902003284E+02  0.47000000000E+01 0.  1.
<mgrwt>
<rscale>  0 0.92308708E+02</rscale>
<asrwt>0</asrwt>
<pdfrwt beam="1">  1        1 0.23535569E-01 0.92740405E+02</pdfrwt>
<pdfrwt beam="2">  1       -1 0.10835621E-01 0.92740405E+02</pdfrwt>
<totfact> 0.10119565E+04</totfact>
</mgrwt>
</event>
<event>
 8    1  0.5224537E-004  0.1566190E+03  0.7546771E-02  0.1192633E+00
         -1   -1    0    0    0  501 -0.00000000000E+00  0.00000000000E+00  0.56294555151E+02  0.56294555151E+02  0.00000000000E+00 0.  1.
          1   -1    0    0  501    0  0.00000000000E+00 -0.00000000000E+00 -0.80982844201E+03  0.80982844201E+03  0.00000000000E+00 0. -1.
         23    2    1    2    0    0  0.96306870363E+02 -0.84160811849E+02 -0.67149465965E+03  0.68951765481E+03  0.90396143876E+02 0.  0.
         23    2    1    2    0    0 -0.96306870363E+02  0.84160811849E+02 -0.82039227209E+02  0.17660534235E+03  0.90005314374E+02 0.  0.
          5    1    3    3  502    0  0.10540729547E+03 -0.59246016445E+02 -0.61669486958E+03  0.62845480392E+03  0.47000000000E+01 0. -1.
         -5    1    4    4    0  503 -0.10544026529E+03  0.43322452470E+02 -0.55979678388E+02  0.12708382597E+03  0.47000000000E+01 0.  1.
          5    1    4    4  503    0  0.91333949230E+01  0.40838359379E+02 -0.26059548821E+02  0.49521516378E+02  0.47000000000E+01 0. -1.
         -5    1    3    3    0  502 -0.91004251109E+01 -0.24914795404E+02 -0.54799790067E+02  0.61062850889E+02  0.47000000000E+01 0.  1.
<mgrwt>
<rscale>  0 0.15656268E+03</rscale>
<asrwt>0</asrwt>
<pdfrwt beam="1">  1        1 0.12458898E+00 0.15661902E+03</pdfrwt>
<pdfrwt beam="2">  1       -1 0.86607013E-02 0.15661902E+03</pdfrwt>
<totfact> 0.17117952E+03</totfact>
</mgrwt>
</event>
<event>
 8    1  0.5224537E-004  0.1161482E+03  0.7546771E-02  0.1249685E+00
          2   -1    0    0  501    0  0.00000000000E+00  0.00000000000E+00  0.29250473513E+02  0.29250473513E+02  0.00000000000E+00 0. -1.
         -2   -1    0    0    0  501 -0.00000000000E+00 -0.00000000000E+00 -0.46362122738E+03  0.46362122738E+03  0.00000000000E+00 0.  1.
         23    2    1    2    0    0  0.11460062003E+02 -0.69847933848E+02 -0.23773634029E+03  0.26449590369E+03  0.91812029128E+02 0.  0.
         23    2    1    2    0    0 -0.11460062003E+02  0.69847933848E+02 -0.19663441358E+03  0.22837579720E+03  0.92088790083E+02 0.  0.
          5    1    4    4  502    0  0.17683326469E+02  0.80729143224E+02 -0.12253913059E+03  0.14787773033E+03  0.47000000000E+01 0. -1.
         -5    1    4    4    0  502 -0.29143388472E+02 -0.10881209376E+02 -0.74095282988E+02  0.80498066872E+02  0.47000000000E+01 0.  1.
          5    1    3    3  503    0 -0.35970160885E+02 -0.11141379205E+02 -0.55911184184E+02  0.67573170131E+02  0.47000000000E+01 0. -1.
         -5    1    3    3    0  503  0.47430222887E+02 -0.58706554643E+02 -0.18182515610E+03  0.19692273356E+03  0.47000000000E+01 0.  1.
<mgrwt>
<rscale>  0 0.11609337E+03</rscale>
<asrwt>0</asrwt>
<pdfrwt beam="1">  1        2 0.45000727E-02 0.11614823E+03</pdfrwt>
<pdfrwt beam="2">  1       -2 0.71326345E-01 0.11614823E+03</pdfrwt>
<totfact> 0.31269348E+03</totfact>
</mgrwt>
</event>
<event>
 8    1  0.5224537E-004  0.1045668E+03  0.7546771E-02  0.1271314E+00
          1   -1    0    0  501    0  0.00000000000E+00  0.00000000000E+00  0.37942893393E+03  0.37942893393E+03  0.00000000000E+00 0. -1.
         -1   -1    0    0    0  501 -0.00000000000E+00 -0.00000000000E+00 -0.29278579367E+02  0.29278579367E+02  0.00000000000E+00 0.  1.
         23    2    1    2    0    0 -0.13901461434E+01 -0.51001123259E+02  0.14410534809E+03  0.17764743993E+03  0.90494278757E+02 0.  0.
         23    2    1    2    0    0  0.13901461434E+01  0.51001123259E+02  0.20604500647E+03  0.23106007336E+03  0.91275219686E+02 0.  0.
          5    1    4    4  502    0  0.20978359292E+02  0.68735145411E+02  0.17906350824E+03  0.19300373509E+03  0.47000000000E+01 0. -1.
         -5    1    3    3    0  503  0.11345203004E+02 -0.75076321493E+02  0.10105541005E+03  0.12648894647E+03  0.47000000000E+01 0.  1.
          5    1    3    3  503    0 -0.12735349148E+02  0.24075198234E+02  0.43049938043E+02  0.51158493463E+02  0.47000000000E+01 0. -1.
         -5    1    4    4    0  502 -0.19588213149E+02 -0.17734022152E+02  0.26981498231E+02  0.38056338274E+02  0.47000000000E+01 0.  1.
<mgrwt>
<rscale>  0 0.10439612E+03</rscale>
<asrwt>0</asrwt>
<pdfrwt beam="1">  1        1 0.58373678E-01 0.10456679E+03</pdfrwt>
<pdfrwt beam="2">  1       -1 0.45043971E-02 0.10456679E+03</pdfrwt>
<totfact> 0.12346369E+04</totfact>
</mgrwt>
</event>
<event>
 8    1  0.5224537E-004  0.9553614E+02  0.7546771E-02  0.1290052E+00
          1   -1    0    0  501    0  0.00000000000E+00  0.00000000000E+00  0.88468809901E+02  0.88468809901E+02  0.00000000000E+00 0. -1.
         -1   -1    0    0    0  501 -0.00000000000E+00 -0.00000000000E+00 -0.10573450253E+03  0.10573450253E+03  0.00000000000E+00 0.  1.
         23    2    1    2    0    0  0.33274482430E+01 -0.31054483312E+02  0.69457473010E+01  0.95646997136E+02  0.90136850455E+02 0.  0.
         23    2    1    2    0    0 -0.33274482430E+01  0.31054483312E+02 -0.24211439927E+02  0.98556315293E+02  0.90286768771E+02 0.  0.
          5    1    4    4  502    0 -0.46011038897E+02  0.10714060207E+02 -0.17359307299E+02  0.50549404907E+02  0.47000000000E+01 0. -1.
         -5    1    4    4    0  502  0.42683590654E+02  0.20340423106E+02 -0.68521326279E+01  0.48006910386E+02  0.47000000000E+01 0.  1.
          5    1    3    3  503    0 -0.13450024747E+01 -0.60611070663E+02  0.17978228998E+02  0.63409917493E+02  0.47000000000E+01 0. -1.
         -5    1    3    3    0  503  0.46724507176E+01  0.29556587350E+02 -0.11032481697E+02  0.32237079643E+02  0.47000000000E+01 0.  1.
<mgrwt>
<rscale>  0 0.95500700E+02</rscale>
<asrwt>0</asrwt>
<pdfrwt beam="1">  1        1 0.13610586E-01 0.95536137E+02</pdfrwt>
<pdfrwt beam="2">  1       -1 0.16266847E-01 0.95536137E+02</pdfrwt>
<totfact> 0.10862676E+04</totfact>
</mgrwt>
</event>
<event>
 8    1  0.5224537E-004  0.1059781E+03  0.7546771E-02  0.1268671E+00
         -2   -1    0    0    0  501 -0.00000000000E+00  0.00000000000E+00  0.11608488096E+03  0.11608488096E+03  0.00000000000E+00 0. -1.
          2   -1    0    0  501    0  0.00000000000E+00 -0.00000000000E+00 -0.10219384660E+03  0.10219384660E+03  0.00000000000E+00 0.  1.
         23    2    1    2    0    0 -0.35061907253E+02 -0.40057173805E+02 -0.20208803216E+02  0.10694968237E+03  0.90531344399E+02 0.  0.
         23    2    1    2    0    0  0.35061907253E+02  0.40057173805E+02  0.34099837577E+02  0.11132904519E+03  0.91637562531E+02 0.  0.
          5    1    4    4  502    0 -0.35719331418E+01  0.33030640107E+02  0.56622254088E+02  0.65817562628E+02  0.47000000000E+01 0. -1.
         -5    1    4    4    0  502  0.38633840395E+02  0.70265336973E+01 -0.22522416511E+02  0.45511482562E+02  0.47000000000E+01 0.  1.
          5    1    3    3  503    0 -0.12543467498E+02  0.18155996139E+02  0.21953431790E+02  0.31480500950E+02  0.47000000000E+01 0. -1.
         -5    1    3    3    0  503 -0.22518439755E+02 -0.58213169944E+02 -0.42162235006E+02  0.75469181423E+02  0.47000000000E+01 0.  1.
<mgrwt>
<rscale>  0 0.10573852E+03</rscale>
<asrwt>0</asrwt>
<pdfrwt beam="1">  1        2 0.15722130E-01 0.10597810E+03</pdfrwt>
<pdfrwt beam="2">  1       -2 0.17859212E-01 0.10597810E+03</pdfrwt>
<totfact> 0.86774499E+03</totfact>
</mgrwt>
</event>
<event>
 8    1  0.5224537E-004  0.1055008E+03  0.7546771E-02  0.1269796E+00
          3   -1    0    0  501    0  0.00000000000E+00  0.00000000000E+00  0.58027504168E+02  0.58027504168E+02  0.00000000000E+00 0. -1.
         -3   -1    0    0    0  501 -0.00000000000E+00 -0.00000000000E+00 -0.20062825083E+03  0.20062825083E+03  0.00000000000E+00 0.  1.
         23    2    1    2    0    0 -0.37423038365E+02  0.34593954266E+02 -0.10234298751E+03  0.14698468073E+03  0.92375233717E+02 0.  0.
         23    2    1    2    0    0  0.37423038365E+02 -0.34593954266E+02 -0.40257759156E+02  0.11167107427E+03  0.90843360706E+02 0.  0.
          5    1    3    3  502    0  0.15868283510E+02  0.25894514256E+02  0.49745433830E+00  0.30735415256E+02  0.47000000000E+01 0. -1.
         -5    1    3    3    0  502 -0.53291321875E+02  0.86994400095E+01 -0.10284044184E+03  0.11624926547E+03  0.47000000000E+01 0.  1.
          5    1    4    4  503    0  0.38744413390E+02  0.21954513395E+02 -0.55021372198E+01  0.45116446462E+02  0.47000000000E+01 0. -1.
         -5    1    4    4    0  503 -0.13213750246E+01 -0.56548467661E+02 -0.34755621936E+02  0.66554627810E+02  0.47000000000E+01 0.  1.
<mgrwt>
<rscale>  0 0.10516449E+03</rscale>
<asrwt>0</asrwt>
<pdfrwt beam="1">  1        3 0.89273083E-02 0.10550075E+03</pdfrwt>
<pdfrwt beam="2">  1       -3 0.30865885E-01 0.10550075E+03</pdfrwt>
<totfact> 0.19846805E+03</totfact>
</mgrwt>
</event>
<event>
 8    1  0.5224537E-004  0.1268817E+03  0.7546771E-02  0.1233035E+00
          1   -1    0    0  501    0  0.00000000000E+00  0.00000000000E+00  0.52160187034E+03  0.52160187034E+03  0.00000000000E+00 0. -1.
         -1   -1    0    0    0  501 -0.00000000000E+00 -0.00000000000E+00 -0.44253383558E+02  0.44253383558E+02  0.00000000000E+00 0.  1.
         23    2    1    2    0    0 -0.76745626370E+02 -0.37892916920E+02  0.81369126371E+02  0.15073117975E+03  0.93665305754E+02 0.  0.
         23    2    1    2    0    0  0.76745626370E+02  0.37892916920E+02  0.39597936041E+03  0.41512407415E+03  0.90568089019E+02 0.  0.
          5    1    3    3  502    0  0.13470083905E+02  0.15125727592E+02  0.58514559017E+01  0.21600007680E+02  0.47000000000E+01 0. -1.
         -5    1    3    3    0  502 -0.90215710275E+02 -0.53018644512E+02  0.75517670469E+02  0.12913117207E+03  0.47000000000E+01 0.  1.
          5    1    4    4  503    0  0.36238360498E+02  0.26039849081E+02  0.34869068210E+03  0.35156588898E+03  0.47000000000E+01 0. -1.
         -5    1    4    4    0  503  0.40507265872E+02  0.11853067839E+02  0.47288678310E+02  0.63558185168E+02  0.47000000000E+01 0.  1.
<mgrwt>
<rscale>  0 0.12631059E+03</rscale>
<asrwt>0</asrwt>
<pdfrwt beam="1">  1        1 0.80246437E-01 0.12688165E+03</pdfrwt>
<pdfrwt beam="2">  1       -1 0.68082132E-02 0.12688165E+03</pdfrwt>
<totfact> 0.45297355E+03</totfact>
</mgrwt>
</event>
<event>
 8    1  0.5224537E-004  0.9531879E+02  0.7546771E-02  0.1291028E+00
          1   -1    0    0  501    0  0.00000000000E+00  0.00000000000E+00  0.98691109587E+03  0.98691109587E+03  0.00000000000E+00 0. -1.
         -1   -1    0    0    0  501 -0.00000000000E+00 -0.00000000000E+00 -0.10078625936E+02  0.10078625936E+02  0.00000000000E+00 0.  1.
         23    2    1    2    0    0  0.36684211809E+01  0.15072749870E+02  0.64067895839E+03  0.64758328973E+03  0.93026578501E+02 0.  0.
         23    2    1    2    0    0 -0.36684211809E+01 -0.15072749870E+02  0.33615351154E+03  0.34940643208E+03  0.94048000259E+02 0.  0.
          5    1    4    4  502    0 -0.48060036493E+02 -0.14273713889E+02  0.16389264915E+03  0.17145377354E+03  0.47000000000E+01 0.  1.
         -5    1    4    4    0  502  0.44391615312E+02 -0.79903598174E+00  0.17226086240E+03  0.17795265854E+03  0.47000000000E+01 0. -1.
          5    1    3    3  503    0  0.47838843814E+02  0.94789351638E+01  0.36935042688E+03  0.37258587336E+03  0.47000000000E+01 0. -1.
         -5    1    3    3    0  503 -0.44170422633E+02  0.55938147066E+01  0.27132853151E+03  0.27499741637E+03  0.47000000000E+01 0.  1.
<mgrwt>
<rscale>  0 0.95065869E+02</rscale>
<asrwt>0</asrwt>
<pdfrwt beam="1">  1        1 0.15183240E+00 0.95318789E+02</pdfrwt>
<pdfrwt beam="2">  1       -1 0.15505586E-02 0.95318789E+02</pdfrwt>
<totfact> 0.15177074E+04</totfact>
</mgrwt>
</event>
<event>
 8    1  0.5224537E-004  0.1062773E+03  0.7546771E-02  0.1267920E+00
         -4   -1    0    0    0  501 -0.00000000000E+00  0.00000000000E+00  0.32474802631E+03  0.32474802631E+03  0.00000000000E+00 0.  1.
          4   -1    0    0  501    0  0.00000000000E+00 -0.00000000000E+00 -0.55438684701E+02  0.55438684701E+02  0.00000000000E+00 0. -1.
         23    2    1    2    0    0  0.52664474566E+02  0.11449364678E+02  0.25101095762E+03  0.27234561159E+03  0.90890024047E+02 0.  0.
         23    2    1    2    0    0 -0.52664474566E+02 -0.11449364678E+02  0.18298383985E+02  0.10784109942E+03  0.91598237075E+02 0.  0.
          5    1    4    4  502    0 -0.53991003495E+02 -0.45842417329E+02  0.70756951634E+01  0.71335202719E+02  0.47000000000E+01 0. -1.
         -5    1    3    3    0  503  0.12949051095E+02  0.28867475673E+02  0.21016858118E+03  0.21258864408E+03  0.47000000000E+01 0.  1.
          5    1    3    3  503    0  0.39715423471E+02 -0.17418110995E+02  0.40842376438E+02  0.59756967504E+02  0.47000000000E+01 0. -1.
         -5    1    4    4    0  502  0.13265289289E+01  0.34393052652E+02  0.11222688822E+02  0.36505896703E+02  0.47000000000E+01 0.  1.
<mgrwt>
<rscale>  0 0.10612456E+03</rscale>
<asrwt>0</asrwt>
<pdfrwt beam="1">  1        4 0.85290286E-02 0.10627733E+03</pdfrwt>
<pdfrwt beam="2">  1       -4 0.49961233E-01 0.10627733E+03</pdfrwt>
<totfact> 0.60667741E+02</totfact>
</mgrwt>
</event>
<event>
 8    1  0.5224537E-004  0.9161891E+02  0.7546771E-02  0.1301015E+00
          1   -1    0    0  501    0  0.00000000000E+00  0.00000000000E+00  0.17506122111E+02  0.17506122111E+02  0.00000000000E+00 0. -1.
         -1   -1    0    0    0  501 -0.00000000000E+00 -0.00000000000E+00 -0.67732213134E+03  0.67732213134E+03  0.00000000000E+00 0.  1.
         23    2    1    2    0    0 -0.10090272004E+02  0.13096872814E+02 -0.52999887376E+03  0.53785948966E+03  0.90114830998E+02 0.  0.
         23    2    1    2    0    0  0.10090272004E+02 -0.13096872814E+02 -0.12981713546E+03  0.15696876378E+03  0.86679654344E+02 0.  0.
          5    1    4    4  502    0 -0.20159957466E+02  0.23906984465E+02 -0.20824638671E+02  0.37864539704E+02  0.47000000000E+01 0. -1.
         -5    1    4    4    0  502  0.30250229469E+02 -0.37003857279E+02 -0.10899249679E+03  0.11910422408E+03  0.47000000000E+01 0.  1.
          5    1    3    3  503    0 -0.31737670977E+02 -0.29377132786E+02 -0.23395261808E+03  0.23796262984E+03  0.47000000000E+01 0. -1.
         -5    1    3    3    0  503  0.21647398973E+02  0.42474005601E+02 -0.29604625568E+03  0.29989685983E+03  0.47000000000E+01 0.  1.
<mgrwt>
<rscale>  0 0.90762833E+02</rscale>
<asrwt>0</asrwt>
<pdfrwt beam="1">  1        1 0.26932491E-02 0.91618909E+02</pdfrwt>
<pdfrwt beam="2">  1       -1 0.10420342E+00 0.91618909E+02</pdfrwt>
<totfact> 0.34089238E+03</totfact>
</mgrwt>
</event>
<event>
 8    1  0.5224537E-004  0.9590383E+02  0.7546771E-02  0.1289330E+00
         -1   -1    0    0    0  501 -0.00000000000E+00  0.00000000000E+00  0.31456711101E+02  0.31456711101E+02  0.00000000000E+00 0.  1.
          1   -1    0    0  501    0  0.00000000000E+00 -0.00000000000E+00 -0.36704972552E+03  0.36704972552E+03  0.00000000000E+00 0. -1.
         23    2    1    2    0    0  0.19360851868E+02 -0.22824491193E+02 -0.77572219235E+02  0.12334907383E+03  0.91113911308E+02 0.  0.
         23    2    1    2    0    0 -0.19360851868E+02  0.22824491193E+02 -0.25802079518E+03  0.27515736279E+03  0.90780193703E+02 0.  0.
          5    1    3    3  502    0  0.45370114252E+02 -0.18412380131E+02 -0.82550399249E+02  0.96094336074E+02  0.47000000000E+01 0. -1.
         -5    1    3    3    0  502 -0.26009262384E+02 -0.44121110621E+01  0.49781800140E+01  0.27254737754E+02  0.47000000000E+01 0.  1.
          5    1    4    4  503    0 -0.50166587813E+02  0.28194920668E+02 -0.11497807899E+03  0.12866113917E+03  0.47000000000E+01 0.  1.
         -5    1    4    4    0  503  0.30805735945E+02 -0.53704294748E+01 -0.14304271619E+03  0.14649622362E+03  0.47000000000E+01 0. -1.
<mgrwt>
<rscale>  0 0.95824484E+02</rscale>
<asrwt>0</asrwt>
<pdfrwt beam="1">  1        1 0.56469184E-01 0.95903831E+02</pdfrwt>
<pdfrwt beam="2">  1       -1 0.48394944E-02 0.95903831E+02</pdfrwt>
<totfact> 0.11495151E+04</totfact>
</mgrwt>
</event>
<event>
 8    1  0.5224537E-004  0.1179421E+03  0.7546771E-02  0.1256329E+00
          3   -1    0    0  501    0  0.00000000000E+00  0.00000000000E+00  0.30749167602E+02  0.30749167602E+02  0.00000000000E+00 0. -1.
         -3   -1    0    0    0  501 -0.00000000000E+00 -0.00000000000E+00 -0.44339544623E+03  0.44339544623E+03  0.00000000000E+00 0.  1.
         23    2    1    2    0    0  0.26208673440E+02  0.21496491832E+02 -0.31560695057E+03  0.33692445213E+03  0.11296612534E+03 0.  0.
         23    2    1    2    0    0 -0.26208673440E+02 -0.21496491832E+02 -0.97039328063E+02  0.13722016170E+03  0.90905158609E+02 0.  0.
          5    1    3    3  502    0 -0.10623195943E+02  0.44885561926E+02 -0.51909980941E+02  0.69601020702E+02  0.47000000000E+01 0. -1.
         -5    1    4    4    0  503 -0.84136022073E+01 -0.44056907268E+02 -0.98221620641E+02  0.10808041701E+03  0.47000000000E+01 0.  1.
          5    1    4    4  503    0 -0.17795071233E+02  0.22560415436E+02  0.11822925777E+01  0.29139744690E+02  0.47000000000E+01 0. -1.
         -5    1    3    3    0  502  0.36831869384E+02 -0.23389070094E+02 -0.26369696963E+03  0.26732343143E+03  0.47000000000E+01 0.  1.
<mgrwt>
<rscale>  0 0.11232235E+03</rscale>
<asrwt>0</asrwt>
<pdfrwt beam="1">  1        3 0.47306416E-02 0.11794210E+03</pdfrwt>
<pdfrwt beam="2">  1       -3 0.68214678E-01 0.11794210E+03</pdfrwt>
<totfact> 0.11776956E+03</totfact>
</mgrwt>
</event>
<event>
 8    1  0.5433225E-004  0.1131725E+03  0.7546771E-02  0.1263247E+00
          2   -1    0    0  501    0  0.00000000000E+00  0.00000000000E+00  0.85490547718E+03  0.85490547718E+03  0.00000000000E+00 0. -1.
         -2   -1    0    0    0  501 -0.00000000000E+00 -0.00000000000E+00 -0.29270658201E+02  0.29270658201E+02  0.00000000000E+00 0.  1.
         23    2    1    2    0    0  0.25898331743E+02 -0.84663242411E+01  0.75912605943E+03  0.76751572065E+03  0.10984354830E+03 0.  0.
         23    2    1    2    0    0 -0.25898331743E+02  0.84663242411E+01  0.66508759550E+02  0.11666041473E+03  0.91890342450E+02 0.  0.
          5    1    4    4  502    0  0.21078319102E+01 -0.39594193455E+02  0.30286779989E+02  0.50115089073E+02  0.47000000000E+01 0. -1.
         -5    1    3    3    0  503  0.59954564910E+02  0.22495222218E+02  0.35605434763E+03  0.36179742030E+03  0.47000000000E+01 0.  1.
          5    1    3    3  503    0 -0.34056233167E+02 -0.30961546459E+02  0.40307171180E+03  0.40571830034E+03  0.47000000000E+01 0. -1.
         -5    1    4    4    0  502 -0.28006163653E+02  0.48060517696E+02  0.36221979562E+02  0.66545325660E+02  0.47000000000E+01 0.  1.
<mgrwt>
<rscale>  0 0.10856699E+03</rscale>
<asrwt>0</asrwt>
<pdfrwt beam="1">  1        2 0.13152390E+00 0.11317247E+03</pdfrwt>
<pdfrwt beam="2">  1       -2 0.45031788E-02 0.11317247E+03</pdfrwt>
<totfact> 0.71551795E+03</totfact>
</mgrwt>
</event>
<event>
 8    1  0.5224537E-004  0.1019167E+03  0.7546771E-02  0.1277652E+00
          2   -1    0    0  501    0  0.00000000000E+00  0.00000000000E+00  0.26238976129E+02  0.26238976129E+02  0.00000000000E+00 0. -1.
         -2   -1    0    0    0  501 -0.00000000000E+00 -0.00000000000E+00 -0.45146006886E+03  0.45146006886E+03  0.00000000000E+00 0.  1.
         23    2    1    2    0    0  0.32041987174E+02  0.12727008405E+02 -0.30127509437E+03  0.31723217537E+03  0.93171373909E+02 0.  0.
         23    2    1    2    0    0 -0.32041987174E+02 -0.12727008405E+02 -0.12394599836E+03  0.16046686962E+03  0.95907976995E+02 0.  0.
          5    1    3    3  502    0 -0.28023983455E+02  0.18842941729E+02 -0.65979525666E+02  0.74268350654E+02  0.47000000000E+01 0. -1.
         -5    1    4    4    0  503 -0.78548048332E+01  0.19681524287E+02 -0.11720878340E+03  0.11920171669E+03  0.47000000000E+01 0.  1.
          5    1    4    4  503    0 -0.24187182340E+02 -0.32408532692E+02 -0.67372149674E+01  0.41265152930E+02  0.47000000000E+01 0. -1.
         -5    1    3    3    0  502  0.60065970629E+02 -0.61159333242E+01 -0.23529556870E+03  0.24296382471E+03  0.47000000000E+01 0.  1.
<mgrwt>
<rscale>  0 0.10126775E+03</rscale>
<asrwt>0</asrwt>
<pdfrwt beam="1">  1        2 0.40367660E-02 0.10191666E+03</pdfrwt>
<pdfrwt beam="2">  1       -2 0.69455388E-01 0.10191666E+03</pdfrwt>
<totfact> 0.37744051E+03</totfact>
</mgrwt>
</event>
<event>
 8    1  0.5224537E-004  0.1824393E+03  0.7546771E-02  0.1165483E+00
         -2   -1    0    0    0  501 -0.00000000000E+00  0.00000000000E+00  0.25244990089E+02  0.25244990089E+02  0.00000000000E+00 0.  1.
          2   -1    0    0  501    0  0.00000000000E+00 -0.00000000000E+00 -0.14018762080E+04  0.14018762080E+04  0.00000000000E+00 0. -1.
         23    2    1    2    0    0  0.11929281207E+03 -0.10307322249E+03 -0.86317235084E+03  0.88224180672E+03  0.91810860273E+02 0.  0.
         23    2    1    2    0    0 -0.11929281207E+03  0.10307322249E+03 -0.51345886712E+03  0.54487939141E+03  0.91644305677E+02 0.  0.
          5    1    3    3  502    0  0.11483816869E+03 -0.79425476324E+02 -0.82586752396E+03  0.83760101982E+03  0.47000000000E+01 0. -1.
         -5    1    3    3    0  502  0.44546433847E+01 -0.23647746162E+02 -0.37304826880E+02  0.44640786896E+02  0.47000000000E+01 0.  1.
          5    1    4    4  503    0 -0.64089276855E+02  0.10480616131E+03 -0.40232403913E+03  0.42068811407E+03  0.47000000000E+01 0. -1.
         -5    1    4    4    0  503 -0.55203535216E+02 -0.17329388262E+01 -0.11113482798E+03  0.12419127734E+03  0.47000000000E+01 0.  1.
<mgrwt>
<rscale>  0 0.18241836E+03</rscale>
<asrwt>0</asrwt>
<pdfrwt beam="1">  1        2 0.21567328E+00 0.18243930E+03</pdfrwt>
<pdfrwt beam="2">  1       -2 0.38838443E-02 0.18243930E+03</pdfrwt>
<totfact> 0.43998039E+03</totfact>
</mgrwt>
</event>
<event>
 8    1  0.5224537E-004  0.9152369E+02  0.7546771E-02  0.1299555E+00
          1   -1    0    0  501    0  0.00000000000E+00  0.00000000000E+00  0.23284699187E+03  0.23284699187E+03  0.00000000000E+00 0. -1.
         -1   -1    0    0    0  501 -0.00000000000E+00 -0.00000000000E+00 -0.10499328682E+03  0.10499328682E+03  0.00000000000E+00 0.  1.
         23    2    1    2    0    0  0.12363830689E+02 -0.33120897786E+01 -0.73189360214E+02  0.11718903098E+03  0.90624236740E+02 0.  0.
         23    2    1    2    0    0 -0.12363830689E+02  0.33120897786E+01  0.20104306526E+03  0.22065124771E+03  0.90026800343E+02 0.  0.
          5    1    4    4  502    0 -0.15838366153E+02 -0.38090649182E+02  0.14437660337E+03  0.15022797675E+03  0.47000000000E+01 0. -1.
         -5    1    3    3    0  503  0.51180568161E+02  0.39164378481E+01 -0.45283949120E+02  0.68611333544E+02  0.47000000000E+01 0.  1.
          5    1    3    3  503    0 -0.38816737472E+02 -0.72285276268E+01 -0.27905411094E+02  0.48577697433E+02  0.47000000000E+01 0. -1.
         -5    1    4    4    0  502  0.34745354631E+01  0.41402738960E+02  0.56666461892E+02  0.70423270966E+02  0.47000000000E+01 0.  1.
<mgrwt>
<rscale>  0 0.91375452E+02</rscale>
<asrwt>0</asrwt>
<pdfrwt beam="1">  1        1 0.35822614E-01 0.91523694E+02</pdfrwt>
<pdfrwt beam="2">  1       -1 0.16152813E-01 0.91523694E+02</pdfrwt>
<totfact> 0.32621576E+03</totfact>
</mgrwt>
</event>
<event>
 8    1  0.5224537E-004  0.9642793E+02  0.7546771E-02  0.1289687E+00
         -1   -1    0    0    0  501 -0.00000000000E+00  0.00000000000E+00  0.47869125832E+02  0.47869125832E+02  0.00000000000E+00 0.  1.
          1   -1    0    0  501    0  0.00000000000E+00 -0.00000000000E+00 -0.33659903160E+03  0.33659903160E+03  0.00000000000E+00 0. -1.
         23    2    1    2    0    0  0.32297348912E+02 -0.41272555043E+01 -0.27327580236E+03  0.28978959650E+03  0.90764492514E+02 0.  0.
         23    2    1    2    0    0 -0.32297348912E+02  0.41272555043E+01 -0.15454103416E+02  0.94678560936E+02  0.87550257589E+02 0.  0.
          5    1    4    4  502    0 -0.29176887745E+02  0.42013595342E+02  0.43634781886E+01  0.51551555883E+02  0.47000000000E+01 0.  1.
         -5    1    4    4    0  502 -0.31204611670E+01 -0.37886339838E+02 -0.19817581605E+02  0.43127005054E+02  0.47000000000E+01 0. -1.
          5    1    3    3  503    0  0.27963406781E+02  0.35225845776E+02 -0.21139276635E+03  0.21617540099E+03  0.47000000000E+01 0. -1.
         -5    1    3    3    0  503  0.43339421302E+01 -0.39353101280E+02 -0.61883036008E+02  0.73614195508E+02  0.47000000000E+01 0.  1.
<mgrwt>
<rscale>  0 0.95664117E+02</rscale>
<asrwt>0</asrwt>
<pdfrwt beam="1">  1        1 0.51784469E-01 0.96427932E+02</pdfrwt>
<pdfrwt beam="2">  1       -1 0.73644805E-02 0.96427932E+02</pdfrwt>
<totfact> 0.68861904E+03</totfact>
</mgrwt>
</event>
<event>
 8    1  0.5224537E-004  0.9542591E+02  0.7546771E-02  0.1290735E+00
          1   -1    0    0  501    0  0.00000000000E+00  0.00000000000E+00  0.28167778035E+02  0.28167778035E+02  0.00000000000E+00 0. -1.
         -1   -1    0    0    0  501 -0.00000000000E+00 -0.00000000000E+00 -0.53042323089E+03  0.53042323089E+03  0.00000000000E+00 0.  1.
         23    2    1    2    0    0  0.12370281308E+02  0.21385654366E+02 -0.42623113517E+03  0.43658362951E+03  0.91224530096E+02 0.  0.
         23    2    1    2    0    0 -0.12370281308E+02 -0.21385654366E+02 -0.76024317676E+02  0.12200737941E+03  0.92172304302E+02 0.  0.
          5    1    4    4  502    0  0.17029518227E+02 -0.29436501337E+02  0.55688612539E+01  0.34779510026E+02  0.47000000000E+01 0. -1.
         -5    1    4    4    0  502 -0.29399799534E+02  0.80508469708E+01 -0.81593178930E+02  0.87227869385E+02  0.47000000000E+01 0.  1.
          5    1    3    3  503    0 -0.23841336438E+02 -0.21119242791E+02 -0.23864006394E+03  0.24080199721E+03  0.47000000000E+01 0. -1.
         -5    1    3    3    0  503  0.36211617746E+02  0.42504897157E+02 -0.18759107123E+03  0.19578163230E+03  0.47000000000E+01 0.  1.
<mgrwt>
<rscale>  0 0.95196295E+02</rscale>
<asrwt>0</asrwt>
<pdfrwt beam="1">  1        1 0.43335045E-02 0.95425907E+02</pdfrwt>
<pdfrwt beam="2">  1       -1 0.81603570E-01 0.95425907E+02</pdfrwt>
<totfact> 0.29981083E+03</totfact>
</mgrwt>
</event>
<event>
 8    1  0.5224537E-004  0.9261696E+02  0.7546771E-02  0.1297669E+00
          2   -1    0    0  501    0  0.00000000000E+00  0.00000000000E+00  0.63006458839E+03  0.63006458839E+03  0.00000000000E+00 0. -1.
         -2   -1    0    0    0  501 -0.00000000000E+00 -0.00000000000E+00 -0.14319368958E+02  0.14319368958E+02  0.00000000000E+00 0.  1.
         23    2    1    2    0    0 -0.30665571404E+01  0.57649365808E+01  0.38863116103E+03  0.39911125880E+03  0.90625489307E+02 0.  0.
         23    2    1    2    0    0  0.30665571404E+01 -0.57649365808E+01  0.22711405840E+03  0.24527269855E+03  0.92386486360E+02 0.  0.
          5    1    3    3  502    0  0.19854627852E+02  0.39275342573E+02  0.27080542637E+03  0.27439830126E+03  0.47000000000E+01 0. -1.
         -5    1    4    4    0  503  0.65533893052E+01 -0.42305464857E+02  0.18147706333E+03  0.18651732837E+03  0.47000000000E+01 0.  1.
          5    1    4    4  503    0 -0.34868321649E+01  0.36540528276E+02  0.45636995076E+02  0.58755370178E+02  0.47000000000E+01 0. -1.
         -5    1    3    3    0  502 -0.22921184992E+02 -0.33510405992E+02  0.11782573466E+03  0.12471295754E+03  0.47000000000E+01 0.  1.
<mgrwt>
<rscale>  0 0.92174669E+02</rscale>
<asrwt>0</asrwt>
<pdfrwt beam="1">  1        2 0.96932992E-01 0.92616959E+02</pdfrwt>
<pdfrwt beam="2">  1       -2 0.22029803E-02 0.92616959E+02</pdfrwt>
<totfact> 0.28836675E+04</totfact>
</mgrwt>
</event>
<event>
 8    1  0.5224537E-004  0.1092304E+03  0.7546771E-02  0.1262055E+00
         -1   -1    0    0    0  501 -0.00000000000E+00  0.00000000000E+00  0.14234678321E+02  0.14234678321E+02  0.00000000000E+00 0.  1.
          1   -1    0    0  501    0  0.00000000000E+00 -0.00000000000E+00 -0.99581012571E+03  0.99581012571E+03  0.00000000000E+00 0. -1.
         23    2    1    2    0    0 -0.53155154483E+02  0.27560348106E+02 -0.69205404142E+03  0.70060349910E+03  0.91221836584E+02 0.  0.
         23    2    1    2    0    0  0.53155154483E+02 -0.27560348106E+02 -0.28952140598E+03  0.30944130494E+03  0.91357722431E+02 0.  0.
          5    1    4    4  502    0 -0.25830557477E+01  0.26359893571E+02 -0.11979054083E+03  0.12277369359E+03  0.47000000000E+01 0. -1.
         -5    1    3    3    0  503 -0.49168883016E+01  0.50784857580E+02 -0.43387329447E+03  0.43688831892E+03  0.47000000000E+01 0.  1.
          5    1    3    3  503    0 -0.48238266181E+02 -0.23224509473E+02 -0.25818074694E+03  0.26371518018E+03  0.47000000000E+01 0. -1.
         -5    1    4    4    0  502  0.55738210230E+02 -0.53920241678E+02 -0.16973086515E+03  0.18666761135E+03  0.47000000000E+01 0.  1.
<mgrwt>
<rscale>  0 0.10920197E+03</rscale>
<asrwt>0</asrwt>
<pdfrwt beam="1">  1        1 0.15320160E+00 0.10923038E+03</pdfrwt>
<pdfrwt beam="2">  1       -1 0.21899500E-02 0.10923038E+03</pdfrwt>
<totfact> 0.92165175E+03</totfact>
</mgrwt>
</event>
<event>
 8    1  0.5224537E-004  0.1010257E+03  0.7546771E-02  0.1278881E+00
          2   -1    0    0  501    0  0.00000000000E+00  0.00000000000E+00  0.58453750009E+03  0.58453750009E+03  0.00000000000E+00 0. -1.
         -2   -1    0    0    0  501 -0.00000000000E+00 -0.00000000000E+00 -0.27759677476E+02  0.27759677476E+02  0.00000000000E+00 0.  1.
         23    2    1    2    0    0 -0.58071119018E+01  0.40980233981E+02  0.46822051446E+03  0.47899544488E+03  0.92157929302E+02 0.  0.
         23    2    1    2    0    0  0.58071119018E+01 -0.40980233981E+02  0.88557308155E+02  0.13330173268E+03  0.90630309405E+02 0.  0.
          5    1    4    4  502    0  0.30607771768E+02 -0.55526465593E+02  0.81428458391E+02  0.10330879880E+03  0.47000000000E+01 0. -1.
         -5    1    3    3    0  503 -0.43103119587E+02  0.12723943594E+02  0.32802934828E+03  0.33112704660E+03  0.47000000000E+01 0.  1.
          5    1    3    3  503    0  0.37296007685E+02  0.28256290387E+02  0.14019116618E+03  0.14786839828E+03  0.47000000000E+01 0. -1.
         -5    1    4    4    0  502 -0.24800659866E+02  0.14546231611E+02  0.71288497642E+01  0.29992933882E+02  0.47000000000E+01 0.  1.
<mgrwt>
<rscale>  0 0.10067597E+03</rscale>
<asrwt>0</asrwt>
<pdfrwt beam="1">  1        2 0.89928837E-01 0.10102567E+03</pdfrwt>
<pdfrwt beam="2">  1       -2 0.42707201E-02 0.10102567E+03</pdfrwt>
<totfact> 0.12044327E+04</totfact>
</mgrwt>
</event>
<event>
 8    1  0.5224537E-004  0.9284936E+02  0.7546771E-02  0.1296476E+00
          1   -1    0    0  501    0  0.00000000000E+00  0.00000000000E+00  0.15831884722E+03  0.15831884722E+03  0.00000000000E+00 0. -1.
         -1   -1    0    0    0  501 -0.00000000000E+00 -0.00000000000E+00 -0.68097645288E+02  0.68097645288E+02  0.00000000000E+00 0.  1.
         23    2    1    2    0    0 -0.84762166628E+01  0.92797570418E+01 -0.63955119773E+01  0.92417265890E+02  0.91335033374E+02 0.  0.
         23    2    1    2    0    0  0.84762166628E+01 -0.92797570418E+01  0.96616713908E+02  0.13399922662E+03  0.91994799785E+02 0.  0.
          5    1    4    4  502    0  0.33943220535E+02 -0.39096827954E+02  0.66066956415E+02  0.84069238763E+02  0.47000000000E+01 0. -1.
         -5    1    3    3    0  503  0.25822142902E+02  0.13116417095E+02 -0.36184172750E+02  0.46585489361E+02  0.47000000000E+01 0.  1.
          5    1    3    3  503    0 -0.34298359564E+02 -0.38366600529E+01  0.29788660773E+02  0.45831776529E+02  0.47000000000E+01 0. -1.
         -5    1    4    4    0  502 -0.25467003872E+02  0.29817070912E+02  0.30549757493E+02  0.49929987852E+02  0.47000000000E+01 0.  1.
<mgrwt>
<rscale>  0 0.92685512E+02</rscale>
<asrwt>0</asrwt>
<pdfrwt beam="1">  1        1 0.24356746E-01 0.92849358E+02</pdfrwt>
<pdfrwt beam="2">  1       -1 0.10476561E-01 0.92849358E+02</pdfrwt>
<totfact> 0.10206555E+04</totfact>
</mgrwt>
</event>
<event>
 8    1  0.5224537E-004  0.2964522E+03  0.7546771E-02  0.1087203E+00
         -1   -1    0    0    0  501 -0.00000000000E+00  0.00000000000E+00  0.10801333386E+04  0.10801333386E+04  0.00000000000E+00 0.  1.
          1   -1    0    0  501    0  0.00000000000E+00 -0.00000000000E+00 -0.85527808875E+02  0.85527808875E+02  0.00000000000E+00 0. -1.
         23    2    1    2    0    0  0.98913424702E+01  0.28110305747E+03  0.36410581512E+03  0.46952843995E+03  0.93633026992E+02 0.  0.
         23    2    1    2    0    0 -0.98913424702E+01 -0.28110305747E+03  0.63049971461E+03  0.69613270753E+03  0.89185698397E+02 0.  0.
          5    1    3    3  502    0 -0.17457095179E+02  0.74293451763E+02  0.46438058357E+02  0.89458651962E+02  0.47000000000E+01 0. -1.
         -5    1    3    3    0  502  0.27348437649E+02  0.20680960570E+03  0.31766775677E+03  0.38006978799E+03  0.47000000000E+01 0.  1.
          5    1    4    4  503    0  0.27209718529E+02 -0.21618288890E+03  0.50414830929E+03  0.54923858022E+03  0.47000000000E+01 0. -1.
         -5    1    4    4    0  503 -0.37101060999E+02 -0.64920168562E+02  0.12635140532E+03  0.14689412731E+03  0.47000000000E+01 0.  1.
<mgrwt>
<rscale>  0 0.29610798E+03</rscale>
<asrwt>0</asrwt>
<pdfrwt beam="1">  1        1 0.13158125E-01 0.29645221E+03</pdfrwt>
<pdfrwt beam="2">  1       -1 0.16617435E+00 0.29645221E+03</pdfrwt>
<totfact> 0.12720356E+02</totfact>
</mgrwt>
</event>
<event>
 8    1  0.5224537E-004  0.1078900E+03  0.7546771E-02  0.1266060E+00
         -2   -1    0    0    0  501 -0.00000000000E+00  0.00000000000E+00  0.80104496747E+02  0.80104496747E+02  0.00000000000E+00 0.  1.
          2   -1    0    0  501    0  0.00000000000E+00 -0.00000000000E+00 -0.14161803551E+03  0.14161803551E+03  0.00000000000E+00 0. -1.
         23    2    1    2    0    0 -0.34423065648E+02 -0.42013169857E+02 -0.23406251348E+02  0.10730040022E+03  0.89529153883E+02 0.  0.
         23    2    1    2    0    0  0.34423065648E+02  0.42013169857E+02 -0.38107287418E+02  0.11442213204E+03  0.93221269336E+02 0.  0.
          5    1    4    4  502    0  0.63781912732E+02  0.33240558107E+02 -0.10360306602E+02  0.72818219203E+02  0.47000000000E+01 0. -1.
         -5    1    4    4    0  502 -0.29358847084E+02  0.87726117502E+01 -0.27746980817E+02  0.41603912839E+02  0.47000000000E+01 0.  1.
          5    1    3    3  503    0  0.16537846904E+02 -0.50001111280E+02 -0.10247967083E+02  0.53858354401E+02  0.47000000000E+01 0. -1.
         -5    1    3    3    0  503 -0.50960912552E+02  0.79879414235E+01 -0.13158284265E+02  0.53442045817E+02  0.47000000000E+01 0.  1.
<mgrwt>
<rscale>  0 0.10708772E+03</rscale>
<asrwt>0</asrwt>
<pdfrwt beam="1">  1        2 0.21787390E-01 0.10789003E+03</pdfrwt>
<pdfrwt beam="2">  1       -2 0.12323769E-01 0.10789003E+03</pdfrwt>
<totfact> 0.10965502E+04</totfact>
</mgrwt>
</event>
<event>
 8    1  0.5224537E-004  0.9291943E+02  0.7546771E-02  0.1296117E+00
          2   -1    0    0  501    0  0.00000000000E+00  0.00000000000E+00  0.11528313813E+03  0.11528313813E+03  0.00000000000E+00 0. -1.
         -2   -1    0    0    0  501 -0.00000000000E+00 -0.00000000000E+00 -0.90881334701E+02  0.90881334701E+02  0.00000000000E+00 0.  1.
         23    2    1    2    0    0 -0.27339392581E+02  0.11966814036E+02 -0.31362388556E+02  0.98069462095E+02  0.87996437171E+02 0.  0.
         23    2    1    2    0    0  0.27339392581E+02 -0.11966814036E+02  0.55764191985E+02  0.10809501074E+03  0.87659792456E+02 0.  0.
          5    1    4    4  502    0  0.11400478728E+02  0.35404200749E+02  0.41457817242E+02  0.55895160402E+02  0.47000000000E+01 0. -1.
         -5    1    4    4    0  502  0.15938913853E+02 -0.47371014785E+02  0.14306374744E+02  0.52199850334E+02  0.47000000000E+01 0.  1.
          5    1    3    3  503    0 -0.48222032396E+02 -0.19813753405E+02 -0.73719599899E+01  0.52861943083E+02  0.47000000000E+01 0. -1.
         -5    1    3    3    0  503  0.20882639815E+02  0.31780567441E+02 -0.23990428566E+02  0.45207519013E+02  0.47000000000E+01 0.  1.
<mgrwt>
<rscale>  0 0.92839638E+02</rscale>
<asrwt>0</asrwt>
<pdfrwt beam="1">  1        2 0.17735867E-01 0.92919427E+02</pdfrwt>
<pdfrwt beam="2">  1       -2 0.13981744E-01 0.92919427E+02</pdfrwt>
<totfact> 0.11135518E+04</totfact>
</mgrwt>
</event>
<event>
 8    1  0.5224537E-004  0.9914629E+02  0.7546771E-02  0.1283750E+00
          4   -1    0    0  501    0  0.00000000000E+00  0.00000000000E+00  0.12550638594E+03  0.12550638594E+03  0.00000000000E+00 0. -1.
         -4   -1    0    0    0  501 -0.00000000000E+00 -0.00000000000E+00 -0.78168946824E+02  0.78168946824E+02  0.00000000000E+00 0.  1.
         23    2    1    2    0    0 -0.21230515391E+02  0.31441577418E+02  0.60895266541E+01  0.96291082117E+02  0.88292596440E+02 0.  0.
         23    2    1    2    0    0  0.21230515391E+02 -0.31441577418E+02  0.41247912459E+02  0.10738425064E+03  0.91600651908E+02 0.  0.
          5    1    3    3  502    0  0.19888034049E+02 -0.10740282928E+02  0.25206970440E+02  0.34181412119E+02  0.47000000000E+01 0. -1.
         -5    1    4    4    0  503  0.94991237846E+01  0.30970296631E+02  0.24675270110E+01  0.32826381397E+02  0.47000000000E+01 0.  1.
          5    1    4    4  503    0  0.11731391607E+02 -0.62411874048E+02  0.38780385448E+02  0.74557869247E+02  0.47000000000E+01 0. -1.
         -5    1    3    3    0  502 -0.41118549440E+02  0.42181860346E+02 -0.19117443786E+02  0.62109669997E+02  0.47000000000E+01 0.  1.
<mgrwt>
<rscale>  0 0.98375357E+02</rscale>
<asrwt>0</asrwt>
<pdfrwt beam="1">  1        4 0.19308675E-01 0.99146291E+02</pdfrwt>
<pdfrwt beam="2">  1       -4 0.12025992E-01 0.99146291E+02</pdfrwt>
<totfact> 0.20270258E+03</totfact>
</mgrwt>
</event>
<event>
 8    1  0.5224537E-004  0.9528992E+02  0.7546771E-02  0.1292438E+00
          2   -1    0    0  501    0  0.00000000000E+00  0.00000000000E+00  0.63178695461E+02  0.63178695461E+02  0.00000000000E+00 0. -1.
         -2   -1    0    0    0  501 -0.00000000000E+00 -0.00000000000E+00 -0.14230812013E+03  0.14230812013E+03  0.00000000000E+00 0.  1.
         23    2    1    2    0    0 -0.39918566000E+01 -0.83640380798E+01 -0.55190552309E+02  0.10723591572E+03  0.91474873616E+02 0.  0.
         23    2    1    2    0    0  0.39918566000E+01  0.83640380798E+01 -0.23938872362E+02  0.98250899877E+02  0.94838165653E+02 0.  0.
          5    1    4    4  502    0 -0.24315594312E+02 -0.34824192062E+01 -0.51170808926E+02  0.56955395323E+02  0.47000000000E+01 0. -1.
         -5    1    3    3    0  503  0.43238849444E+02 -0.12360300974E+01 -0.21047277712E+02  0.48334291872E+02  0.47000000000E+01 0.  1.
          5    1    3    3  503    0 -0.47230706044E+02 -0.71280079824E+01 -0.34143274596E+02  0.58901623844E+02  0.47000000000E+01 0. -1.
         -5    1    4    4    0  502  0.28307450912E+02  0.11846457286E+02  0.27231936564E+02  0.41295504554E+02  0.47000000000E+01 0.  1.
<mgrwt>
<rscale>  0 0.94441982E+02</rscale>
<asrwt>0</asrwt>
<pdfrwt beam="1">  1        2 0.97197993E-02 0.95289925E+02</pdfrwt>
<pdfrwt beam="2">  1       -2 0.21893557E-01 0.95289925E+02</pdfrwt>
<totfact> 0.10804470E+04</totfact>
</mgrwt>
</event>
<event>
 8    1  0.5224537E-004  0.1418589E+03  0.7546771E-02  0.1211272E+00
          2   -1    0    0  501    0  0.00000000000E+00  0.00000000000E+00  0.48105618741E+03  0.48105618741E+03  0.00000000000E+00 0. -1.
         -2   -1    0    0    0  501 -0.00000000000E+00 -0.00000000000E+00 -0.52879856269E+02  0.52879856269E+02  0.00000000000E+00 0.  1.
         23    2    1    2    0    0  0.10633169673E+03 -0.15164031145E+02  0.89263575909E+02  0.16653189930E+03  0.90711134538E+02 0.  0.
         23    2    1    2    0    0 -0.10633169673E+03  0.15164031145E+02  0.33891275524E+03  0.36740414439E+03  0.92669153885E+02 0.  0.
          5    1    4    4  502    0 -0.11056983397E+03  0.36362441218E+02  0.30877509025E+03  0.33001827476E+03  0.47000000000E+01 0. -1.
         -5    1    3    3    0  503  0.64662002128E+02  0.75287538146E+01 -0.72302744914E-01  0.65268306864E+02  0.47000000000E+01 0.  1.
          5    1    3    3  503    0  0.41669694601E+02 -0.22692784959E+02  0.89335878654E+02  0.10126359243E+03  0.47000000000E+01 0. -1.
         -5    1    4    4    0  502  0.42381372465E+01 -0.21198410074E+02  0.30137664985E+02  0.37385869626E+02  0.47000000000E+01 0.  1.
<mgrwt>
<rscale>  0 0.14154002E+03</rscale>
<asrwt>0</asrwt>
<pdfrwt beam="1">  1        2 0.74008642E-01 0.14185891E+03</pdfrwt>
<pdfrwt beam="2">  1       -2 0.81353628E-02 0.14185891E+03</pdfrwt>
<totfact> 0.57698382E+03</totfact>
</mgrwt>
</event>
<event>
 8    1  0.5224537E-004  0.9022194E+02  0.7546771E-02  0.1303577E+00
         -1   -1    0    0    0  501 -0.00000000000E+00  0.00000000000E+00  0.22139667468E+02  0.22139667468E+02  0.00000000000E+00 0.  1.
          1   -1    0    0  501    0  0.00000000000E+00 -0.00000000000E+00 -0.46328697585E+03  0.46328697585E+03  0.00000000000E+00 0. -1.
         23    2    1    2    0    0  0.10213751561E+01 -0.13244809360E+02 -0.10756927538E+03  0.14039639359E+03  0.89238613538E+02 0.  0.
         23    2    1    2    0    0 -0.10213751561E+01  0.13244809360E+02 -0.33357803301E+03  0.34503024973E+03  0.87149876307E+02 0.  0.
          5    1    3    3  502    0 -0.40529525547E+02  0.99597163696E+01 -0.43739072995E+02  0.60638559495E+02  0.47000000000E+01 0. -1.
         -5    1    4    4    0  503 -0.33243827005E+02 -0.19899062229E+02 -0.19508802293E+03  0.19895364134E+03  0.47000000000E+01 0.  1.
          5    1    4    4  503    0  0.32222451849E+02  0.33143871589E+02 -0.13849001007E+03  0.14607660838E+03  0.47000000000E+01 0. -1.
         -5    1    3    3    0  502  0.41550900703E+02 -0.23204525730E+02 -0.63830202383E+02  0.79757834097E+02  0.47000000000E+01 0.  1.
<mgrwt>
<rscale>  0 0.89701087E+02</rscale>
<asrwt>0</asrwt>
<pdfrwt beam="1">  1        1 0.71274914E-01 0.90221939E+02</pdfrwt>
<pdfrwt beam="2">  1       -1 0.34061030E-02 0.90221939E+02</pdfrwt>
<totfact> 0.14244332E+04</totfact>
</mgrwt>
</event>
<event>
 8    1  0.5224537E-004  0.1306695E+03  0.7546771E-02  0.1226553E+00
         -1   -1    0    0    0  501 -0.00000000000E+00  0.00000000000E+00  0.13150380070E+03  0.13150380070E+03  0.00000000000E+00 0.  1.
          1   -1    0    0  501    0  0.00000000000E+00 -0.00000000000E+00 -0.18499192628E+03  0.18499192628E+03  0.00000000000E+00 0. -1.
         23    2    1    2    0    0  0.17827953275E+02  0.91686162207E+02 -0.11331552369E+03  0.17278126831E+03  0.91042685116E+02 0.  0.
         23    2    1    2    0    0 -0.17827953275E+02 -0.91686162207E+02  0.59827398107E+02  0.14371445866E+03  0.91380193728E+02 0.  0.
          5    1    3    3  502    0  0.42133439785E+01  0.10825425594E+03 -0.92566595146E+02  0.14257419378E+03  0.47000000000E+01 0. -1.
         -5    1    4    4    0  503  0.22349066748E+02 -0.82587739613E+02  0.55355408337E+02  0.10201238528E+03  0.47000000000E+01 0.  1.
          5    1    4    4  503    0 -0.40177020022E+02 -0.90984225942E+01  0.44719897699E+01  0.41702073379E+02  0.47000000000E+01 0. -1.
         -5    1    3    3    0  502  0.13614609296E+02 -0.16568093729E+02 -0.20748928540E+02  0.30207074530E+02  0.47000000000E+01 0.  1.
<mgrwt>
<rscale>  0 0.13061055E+03</rscale>
<asrwt>0</asrwt>
<pdfrwt beam="1">  1        1 0.28460296E-01 0.13066954E+03</pdfrwt>
<pdfrwt beam="2">  1       -1 0.20231354E-01 0.13066954E+03</pdfrwt>
<totfact> 0.30920298E+03</totfact>
</mgrwt>
</event>
<event>
 8    1  0.5224537E-004  0.1065989E+03  0.7546771E-02  0.1267113E+00
          4   -1    0    0  501    0  0.00000000000E+00  0.00000000000E+00  0.26150575356E+02  0.26150575356E+02  0.00000000000E+00 0. -1.
         -4   -1    0    0    0  501 -0.00000000000E+00 -0.00000000000E+00 -0.53558787958E+03  0.53558787958E+03  0.00000000000E+00 0.  1.
         23    2    1    2    0    0 -0.38681203943E+02 -0.42022565884E+02 -0.37706404604E+03  0.39177960992E+03  0.89732025200E+02 0.  0.
         23    2    1    2    0    0  0.38681203943E+02  0.42022565884E+02 -0.13237325818E+03  0.16995884501E+03  0.90006654956E+02 0.  0.
          5    1    4    4  502    0  0.59739585424E+02  0.54623637637E+02 -0.10802834555E+03  0.13507321458E+03  0.47000000000E+01 0. -1.
         -5    1    3    3    0  503 -0.64161246222E+02 -0.21231221239E+02 -0.30490907214E+03  0.31234446136E+03  0.47000000000E+01 0.  1.
          5    1    3    3  503    0  0.25480042278E+02 -0.20791344645E+02 -0.72154973908E+02  0.79435148557E+02  0.47000000000E+01 0. -1.
         -5    1    4    4    0  502 -0.21058381481E+02 -0.12601071752E+02 -0.24344912631E+02  0.34885630435E+02  0.47000000000E+01 0.  1.
<mgrwt>
<rscale>  0 0.10654093E+03</rscale>
<asrwt>0</asrwt>
<pdfrwt beam="1">  1        4 0.40231657E-02 0.10659892E+03</pdfrwt>
<pdfrwt beam="2">  1       -4 0.82398131E-01 0.10659892E+03</pdfrwt>
<totfact> 0.70949909E+02</totfact>
</mgrwt>
</event>
<event>
 8    1  0.5224537E-004  0.1169959E+03  0.7546771E-02  0.1248363E+00
          1   -1    0    0  501    0  0.00000000000E+00  0.00000000000E+00  0.37822802038E+02  0.37822802038E+02  0.00000000000E+00 0. -1.
         -1   -1    0    0    0  501 -0.00000000000E+00 -0.00000000000E+00 -0.78791440908E+03  0.78791440908E+03  0.00000000000E+00 0.  1.
         23    2    1    2    0    0  0.20425052403E+02 -0.69562644416E+02 -0.67882709442E+03  0.68874573238E+03  0.91149961540E+02 0.  0.
         23    2    1    2    0    0 -0.20425052403E+02  0.69562644416E+02 -0.71264512622E+02  0.13699147874E+03  0.91825324522E+02 0.  0.
          5    1    3    3  502    0 -0.64819052469E+01  0.19774125168E+02 -0.86197187313E+02  0.88797951679E+02  0.47000000000E+01 0.  1.
         -5    1    3    3    0  502  0.26906957650E+02 -0.89336769584E+02 -0.59262990711E+03  0.59994778070E+03  0.47000000000E+01 0.  1.
          5    1    4    4  503    0  0.15362663044E+02  0.48250949830E+02  0.38204158940E+01  0.50998540694E+02  0.47000000000E+01 0. -1.
         -5    1    4    4    0  503 -0.35787715447E+02  0.21311694586E+02 -0.75084928516E+02  0.85992938043E+02  0.47000000000E+01 0.  1.
<mgrwt>
<rscale>  0 0.11686332E+03</rscale>
<asrwt>0</asrwt>
<pdfrwt beam="1">  1        1 0.58188934E-02 0.11699587E+03</pdfrwt>
<pdfrwt beam="2">  1       -1 0.12121758E+00 0.11699587E+03</pdfrwt>
<totfact> 0.85474970E+02</totfact>
</mgrwt>
</event>
<event>
 8    1  0.5224537E-004  0.9866582E+02  0.7546771E-02  0.1283510E+00
          1   -1    0    0  501    0  0.00000000000E+00  0.00000000000E+00  0.78403674856E+03  0.78403674856E+03  0.00000000000E+00 0. -1.
         -1   -1    0    0    0  501 -0.00000000000E+00 -0.00000000000E+00 -0.12610164380E+02  0.12610164380E+02  0.00000000000E+00 0.  1.
         23    2    1    2    0    0 -0.29123216034E+02  0.22779562370E+02  0.32465632768E+03  0.33911155171E+03  0.90707459585E+02 0.  0.
         23    2    1    2    0    0  0.29123216034E+02 -0.22779562370E+02  0.44677025650E+03  0.45753536123E+03  0.91476087105E+02 0.  0.
          5    1    4    4  502    0  0.49682936781E+02 -0.44803488089E+02  0.33699066588E+03  0.34359939703E+03  0.47000000000E+01 0. -1.
         -5    1    3    3    0  503 -0.43900870252E+02  0.19912992708E+01  0.67698231993E+02  0.80847957900E+02  0.47000000000E+01 0.  1.
          5    1    3    3  503    0  0.14777654218E+02  0.20788263100E+02  0.25695809569E+03  0.25826359381E+03  0.47000000000E+01 0. -1.
         -5    1    4    4    0  502 -0.20559720747E+02  0.22023925719E+02  0.10977959062E+03  0.11393596420E+03  0.47000000000E+01 0.  1.
<mgrwt>
<rscale>  0 0.98487291E+02</rscale>
<asrwt>0</asrwt>
<pdfrwt beam="1">  1        1 0.12062100E+00 0.98665823E+02</pdfrwt>
<pdfrwt beam="2">  1       -1 0.19400259E-02 0.98665823E+02</pdfrwt>
<totfact> 0.15819091E+04</totfact>
</mgrwt>
</event>
<event>
 8    1  0.5224537E-004  0.1060533E+03  0.7546771E-02  0.1268397E+00
          1   -1    0    0  501    0  0.00000000000E+00  0.00000000000E+00  0.31133124076E+03  0.31133124076E+03  0.00000000000E+00 0. -1.
         -1   -1    0    0    0  501 -0.00000000000E+00 -0.00000000000E+00 -0.54704334804E+02  0.54704334804E+02  0.00000000000E+00 0.  1.
         23    2    1    2    0    0  0.23358921107E+02 -0.46624397599E+02  0.23591911484E+03  0.25866026385E+03  0.92346248978E+02 0.  0.
         23    2    1    2    0    0 -0.23358921107E+02  0.46624397599E+02  0.20707791118E+02  0.10737531172E+03  0.91548737329E+02 0.  0.
          5    1    3    3  502    0  0.59091461500E+00  0.25072760638E+02  0.30018812615E+02  0.39398116921E+02  0.47000000000E+01 0. -1.
         -5    1    3    3    0  502  0.22768006492E+02 -0.71697158237E+02  0.20590030222E+03  0.21926214693E+03  0.47000000000E+01 0.  1.
          5    1    4    4  503    0 -0.39718649328E+02  0.64624627517E+02  0.28859332933E+02  0.81294924094E+02  0.47000000000E+01 0. -1.
         -5    1    4    4    0  503  0.16359728221E+02 -0.18000229917E+02 -0.81515418153E+01  0.26080387622E+02  0.47000000000E+01 0.  1.
<mgrwt>
<rscale>  0 0.10587945E+03</rscale>
<asrwt>0</asrwt>
<pdfrwt beam="1">  1        1 0.47897113E-01 0.10605330E+03</pdfrwt>
<pdfrwt beam="2">  1       -1 0.84160517E-02 0.10605330E+03</pdfrwt>
<totfact> 0.62504370E+03</totfact>
</mgrwt>
</event>
<event>
 8    1  0.5224537E-004  0.9956872E+02  0.7546771E-02  0.1282989E+00
          2   -1    0    0  501    0  0.00000000000E+00  0.00000000000E+00  0.15891318491E+03  0.15891318491E+03  0.00000000000E+00 0.  1.
         -2   -1    0    0    0  501 -0.00000000000E+00 -0.00000000000E+00 -0.60335412536E+02  0.60335412536E+02  0.00000000000E+00 0. -1.
         23    2    1    2    0    0  0.30647946749E+02 -0.32634269269E+01  0.48891007072E+02  0.11092457537E+03  0.94678319870E+02 0.  0.
         23    2    1    2    0    0 -0.30647946749E+02  0.32634269269E+01  0.49686765305E+02  0.10832402208E+03  0.91188664415E+02 0.  0.
          5    1    3    3  502    0  0.10903778808E+02 -0.48384360840E+02  0.28636366002E+02  0.57463642627E+02  0.47000000000E+01 0. -1.
         -5    1    4    4    0  503  0.29794185746E+02 -0.13891062316E+02  0.15599006623E+02  0.36688882841E+02  0.47000000000E+01 0.  1.
          5    1    4    4  503    0 -0.60442132495E+02  0.17154489243E+02  0.34087758682E+02  0.71635139238E+02  0.47000000000E+01 0. -1.
         -5    1    3    3    0  502  0.19744167941E+02  0.45120933913E+02  0.20254641070E+02  0.53460932743E+02  0.47000000000E+01 0.  1.
<mgrwt>
<rscale>  0 0.98730140E+02</rscale>
<asrwt>0</asrwt>
<pdfrwt beam="1">  1        2 0.24448182E-01 0.99568724E+02</pdfrwt>
<pdfrwt beam="2">  1       -2 0.92823712E-02 0.99568724E+02</pdfrwt>
<totfact> 0.14953506E+04</totfact>
</mgrwt>
</event>
<event>
 8    1  0.5224537E-004  0.1071888E+03  0.7546771E-02  0.1269968E+00
         -2   -1    0    0    0  501 -0.00000000000E+00  0.00000000000E+00  0.82561550578E+02  0.82561550578E+02  0.00000000000E+00 0.  1.
          2   -1    0    0  501    0  0.00000000000E+00 -0.00000000000E+00 -0.14428998409E+03  0.14428998409E+03  0.00000000000E+00 0. -1.
         23    2    1    2    0    0 -0.47145338961E+02 -0.30509857352E+02 -0.69193678752E+02  0.12758212239E+03  0.91301141249E+02 0.  0.
         23    2    1    2    0    0  0.47145338961E+02  0.30509857352E+02  0.74652452441E+01  0.99269412272E+02  0.81517801399E+02 0.  0.
          5    1    3    3  502    0 -0.66867993271E+02 -0.12281351145E+02 -0.73214153266E+02  0.10002280914E+03  0.47000000000E+01 0. -1.
         -5    1    3    3    0  502  0.19722654309E+02 -0.18228506207E+02  0.40204745144E+01  0.27559313251E+02  0.47000000000E+01 0.  1.
          5    1    4    4  503    0  0.34124019209E+02  0.53587284717E+02 -0.13545378804E+02  0.65127667372E+02  0.47000000000E+01 0. -1.
         -5    1    4    4    0  503  0.13021319753E+02 -0.23077427366E+02  0.21010624048E+02  0.34141744900E+02  0.47000000000E+01 0.  1.
<mgrwt>
<rscale>  0 0.10507707E+03</rscale>
<asrwt>0</asrwt>
<pdfrwt beam="1">  1        2 0.22198459E-01 0.10718877E+03</pdfrwt>
<pdfrwt beam="2">  1       -2 0.12701777E-01 0.10718877E+03</pdfrwt>
<totfact> 0.10229339E+04</totfact>
</mgrwt>
</event>
<event>
 8    1  0.5224537E-004  0.1040835E+03  0.7546771E-02  0.1280200E+00
         -1   -1    0    0    0  501 -0.00000000000E+00  0.00000000000E+00  0.30177072417E+03  0.30177072417E+03  0.00000000000E+00 0.  1.
          1   -1    0    0  501    0  0.00000000000E+00 -0.00000000000E+00 -0.43253742357E+02  0.43253742357E+02  0.00000000000E+00 0. -1.
         23    2    1    2    0    0  0.25083988407E+01  0.13786326933E+02  0.21420637045E+03  0.23190148308E+03  0.87735818441E+02 0.  0.
         23    2    1    2    0    0 -0.25083988407E+01 -0.13786326933E+02  0.44310611369E+02  0.11312298345E+03  0.10313595023E+03 0.  0.
          5    1    3    3  502    0  0.13168631140E+01 -0.36171992739E+02  0.65917845664E+02  0.75348520650E+02  0.47000000000E+01 0. -1.
         -5    1    4    4    0  503  0.46659999616E+01  0.44560794017E+02  0.21082218768E+02  0.49739178393E+02  0.47000000000E+01 0.  1.
          5    1    4    4  503    0 -0.71743988023E+01 -0.58347120949E+02  0.23228392601E+02  0.63383805061E+02  0.47000000000E+01 0. -1.
         -5    1    3    3    0  502  0.11915357267E+01  0.49958319672E+02  0.14828852478E+03  0.15655296243E+03  0.47000000000E+01 0.  1.
<mgrwt>
<rscale>  0 0.10004563E+03</rscale>
<asrwt>0</asrwt>
<pdfrwt beam="1">  1        1 0.66544221E-02 0.10408352E+03</pdfrwt>
<pdfrwt beam="2">  1       -1 0.46426264E-01 0.10408352E+03</pdfrwt>
<totfact> 0.49394095E+03</totfact>
</mgrwt>
</event>
<event>
 8    1  0.5224537E-004  0.9276808E+02  0.7546771E-02  0.1296293E+00
          1   -1    0    0  501    0  0.00000000000E+00  0.00000000000E+00  0.67034797537E+03  0.67034797537E+03  0.00000000000E+00 0. -1.
         -1   -1    0    0    0  501 -0.00000000000E+00 -0.00000000000E+00 -0.17795430335E+02  0.17795430335E+02  0.00000000000E+00 0.  1.
         23    2    1    2    0    0 -0.15021873418E+01 -0.20114618593E+02  0.14465228047E+03  0.17184353031E+03  0.90548673184E+02 0.  0.
         23    2    1    2    0    0  0.15021873418E+01  0.20114618593E+02  0.50790026456E+03  0.51629987539E+03  0.90531917812E+02 0.  0.
          5    1    4    4  502    0  0.42674783483E+02  0.27037999340E+02  0.27775849343E+03  0.28235449568E+03  0.47000000000E+01 0. -1.
         -5    1    3    3    0  503 -0.37829334744E+02 -0.20942609146E+02  0.12011406634E+03  0.12774635172E+03  0.47000000000E+01 0.  1.
          5    1    3    3  503    0  0.36327147402E+02  0.82799055256E+00  0.24538214132E+02  0.44097178590E+02  0.47000000000E+01 0. -1.
         -5    1    4    4    0  502 -0.41172596141E+02 -0.69233807464E+01  0.23014177112E+03  0.23394537971E+03  0.47000000000E+01 0.  1.
<mgrwt>
<rscale>  0 0.92763991E+02</rscale>
<asrwt>0</asrwt>
<pdfrwt beam="1">  1        1 0.10313044E+00 0.92768080E+02</pdfrwt>
<pdfrwt beam="2">  1       -1 0.27377590E-02 0.92768080E+02</pdfrwt>
<totfact> 0.12016029E+04</totfact>
</mgrwt>
</event>
<event>
 8    1  0.5224537E-004  0.1233587E+03  0.7546771E-02  0.1237858E+00
         -2   -1    0    0    0  501 -0.00000000000E+00  0.00000000000E+00  0.50941241473E+02  0.50941241473E+02  0.00000000000E+00 0.  1.
          2   -1    0    0  501    0  0.00000000000E+00 -0.00000000000E+00 -0.41207687824E+03  0.41207687824E+03  0.00000000000E+00 0. -1.
         23    2    1    2    0    0  0.31863640226E+02  0.75851182969E+02 -0.30237347495E+03  0.32637860301E+03  0.91239139746E+02 0.  0.
         23    2    1    2    0    0 -0.31863640226E+02 -0.75851182969E+02 -0.58762161815E+02  0.13663951670E+03  0.91916659739E+02 0.  0.
          5    1    3    3  502    0  0.32728298143E+02  0.96300177805E+02 -0.25360757468E+03  0.27328329198E+03  0.47000000000E+01 0. -1.
         -5    1    4    4    0  503 -0.45529740514E+01 -0.90082441460E+02 -0.53700981933E+02  0.10507835787E+03  0.47000000000E+01 0.  1.
          5    1    4    4  503    0 -0.27310666175E+02  0.14231258491E+02 -0.50611798820E+01  0.31561158834E+02  0.47000000000E+01 0. -1.
         -5    1    3    3    0  502 -0.86465791695E+00 -0.20448994836E+02 -0.48765900274E+02  0.53095311023E+02  0.47000000000E+01 0.  1.
<mgrwt>
<rscale>  0 0.12323249E+03</rscale>
<asrwt>0</asrwt>
<pdfrwt beam="1">  1        2 0.63396441E-01 0.12335869E+03</pdfrwt>
<pdfrwt beam="2">  1       -2 0.78371143E-02 0.12335869E+03</pdfrwt>
<totfact> 0.71635819E+03</totfact>
</mgrwt>
</event>
<event>
 8    1  0.5224537E-004  0.1135264E+03  0.7546771E-02  0.1254628E+00
         -3   -1    0    0    0  501 -0.00000000000E+00  0.00000000000E+00  0.13141878633E+03  0.13141878633E+03  0.00000000000E+00 0.  1.
          3   -1    0    0  501    0  0.00000000000E+00 -0.00000000000E+00 -0.12481218397E+03  0.12481218397E+03  0.00000000000E+00 0. -1.
         23    2    1    2    0    0  0.57676766083E+02 -0.32906986365E+02 -0.56971294209E+02  0.12611414051E+03  0.90827137872E+02 0.  0.
         23    2    1    2    0    0 -0.57676766083E+02  0.32906986365E+02  0.63577896567E+02  0.13011682980E+03  0.92080189879E+02 0.  0.
          5    1    4    4  502    0 -0.65579086560E+01 -0.28665621273E+02  0.35961206944E+01  0.29995767917E+02  0.47000000000E+01 0. -1.
         -5    1    3    3    0  503 -0.18688096052E+02 -0.25709396760E+02 -0.31911670624E+02  0.45284243814E+02  0.47000000000E+01 0. -1.
          5    1    3    3  503    0  0.76364862134E+02 -0.71975896050E+01 -0.25059623585E+02  0.80829896691E+02  0.47000000000E+01 0. -1.
         -5    1    4    4    0  502 -0.51118857427E+02  0.61572607637E+02  0.59981775873E+02  0.10012106188E+03  0.47000000000E+01 0.  1.
<mgrwt>
<rscale>  0 0.11327205E+03</rscale>
<asrwt>0</asrwt>
<pdfrwt beam="1">  1        3 0.19201874E-01 0.11352639E+03</pdfrwt>
<pdfrwt beam="2">  1       -3 0.20218275E-01 0.11352639E+03</pdfrwt>
<totfact> 0.11861926E+03</totfact>
</mgrwt>
</event>
<event>
 8    1  0.5224537E-004  0.1021987E+03  0.7546771E-02  0.1277203E+00
          3   -1    0    0  501    0  0.00000000000E+00  0.00000000000E+00  0.44044446225E+02  0.44044446225E+02  0.00000000000E+00 0. -1.
         -3   -1    0    0    0  501 -0.00000000000E+00 -0.00000000000E+00 -0.30750056848E+03  0.30750056848E+03  0.00000000000E+00 0.  1.
         23    2    1    2    0    0  0.29695335376E+02 -0.31427560086E+02 -0.22098894550E+03  0.24347626795E+03  0.92601698413E+02 0.  0.
         23    2    1    2    0    0 -0.29695335376E+02  0.31427560086E+02 -0.42467176761E+02  0.10806874675E+03  0.89475630463E+02 0.  0.
          5    1    4    4  502    0 -0.28334079596E+02 -0.19087986794E+02  0.91513798260E+01  0.35679252502E+02  0.47000000000E+01 0. -1.
         -5    1    4    4    0  502 -0.13612557805E+01  0.50515546879E+02 -0.51618556587E+02  0.72389494251E+02  0.47000000000E+01 0.  1.
          5    1    3    3  503    0 -0.31319166462E+02 -0.24735468443E+02 -0.76280974863E+02  0.86218389645E+02  0.47000000000E+01 0. -1.
         -5    1    3    3    0  503  0.61014501839E+02 -0.66920916422E+01 -0.14470797063E+03  0.15725787831E+03  0.47000000000E+01 0.  1.
<mgrwt>
<rscale>  0 0.10148536E+03</rscale>
<asrwt>0</asrwt>
<pdfrwt beam="1">  1        3 0.67760685E-02 0.10219872E+03</pdfrwt>
<pdfrwt beam="2">  1       -3 0.47307781E-01 0.10219872E+03</pdfrwt>
<totfact> 0.13657720E+03</totfact>
</mgrwt>
</event>
<event>
 8    1  0.5224537E-004  0.1146750E+03  0.7546771E-02  0.1255302E+00
          3   -1    0    0  501    0  0.00000000000E+00  0.00000000000E+00  0.11600816430E+03  0.11600816430E+03  0.00000000000E+00 0. -1.
         -3   -1    0    0    0  501 -0.00000000000E+00 -0.00000000000E+00 -0.12305377862E+03  0.12305377862E+03  0.00000000000E+00 0.  1.
         23    2    1    2    0    0  0.24641593663E+02  0.53955827179E+02  0.40285543200E+02  0.11500307498E+03  0.89912973698E+02 0.  0.
         23    2    1    2    0    0 -0.24641593663E+02 -0.53955827179E+02 -0.47331157512E+02  0.12405886794E+03  0.98142370147E+02 0.  0.
          5    1    3    3  502    0 -0.20132669810E+02 -0.10071327165E+02  0.27245822209E+02  0.35653623272E+02  0.47000000000E+01 0. -1.
         -5    1    3    3    0  502  0.44774263473E+02  0.64027154344E+02  0.13039720991E+02  0.79349451708E+02  0.47000000000E+01 0.  1.
          5    1    4    4  503    0 -0.50193106324E+02 -0.58166561961E+02 -0.89086445101E+01  0.77486455590E+02  0.47000000000E+01 0. -1.
         -5    1    4    4    0  503  0.25551512661E+02  0.42107347827E+01 -0.38422513002E+02  0.46572412349E+02  0.47000000000E+01 0.  1.
<mgrwt>
<rscale>  0 0.11289428E+03</rscale>
<asrwt>0</asrwt>
<pdfrwt beam="1">  1        3 0.17847410E-01 0.11467504E+03</pdfrwt>
<pdfrwt beam="2">  1       -3 0.18931351E-01 0.11467504E+03</pdfrwt>
<totfact> 0.15140535E+03</totfact>
</mgrwt>
</event>
<event>
 8    1  0.5224537E-004  0.1155861E+03  0.7546771E-02  0.1250637E+00
         -1   -1    0    0    0  501 -0.00000000000E+00  0.00000000000E+00  0.83457537902E+03  0.83457537902E+03  0.00000000000E+00 0.  1.
          1   -1    0    0  501    0  0.00000000000E+00 -0.00000000000E+00 -0.22324523382E+02  0.22324523382E+02  0.00000000000E+00 0. -1.
         23    2    1    2    0    0  0.59484982281E+02 -0.38548967990E+02  0.63423679203E+03  0.64465202150E+03  0.91079275413E+02 0.  0.
         23    2    1    2    0    0 -0.59484982281E+02  0.38548967990E+02  0.17801406360E+03  0.21224788090E+03  0.91299890772E+02 0.  0.
          5    1    3    3  502    0 -0.10386075772E+02 -0.41374841225E+02  0.18034724384E+03  0.18538329595E+03  0.47000000000E+01 0. -1.
         -5    1    4    4    0  503 -0.63169378765E+01  0.56879490860E+02  0.10804182687E+03  0.12235320404E+03  0.47000000000E+01 0.  1.
          5    1    4    4  503    0 -0.53168044405E+02 -0.18330522870E+02  0.69972236734E+02  0.89894676861E+02  0.47000000000E+01 0. -1.
         -5    1    3    3    0  502  0.69871058053E+02  0.28258732350E+01  0.45388954819E+03  0.45926872555E+03  0.47000000000E+01 0.  1.
<mgrwt>
<rscale>  0 0.11554257E+03</rscale>
<asrwt>0</asrwt>
<pdfrwt beam="1">  1        1 0.34345427E-02 0.11558614E+03</pdfrwt>
<pdfrwt beam="2">  1       -1 0.12839619E+00 0.11558614E+03</pdfrwt>
<totfact> 0.15301714E+03</totfact>
</mgrwt>
</event>
<event>
 8    1  0.5224537E-004  0.9310176E+02  0.7546771E-02  0.1297182E+00
          2   -1    0    0  501    0  0.00000000000E+00  0.00000000000E+00  0.20750800617E+03  0.20750800617E+03  0.00000000000E+00 0. -1.
         -2   -1    0    0    0  501 -0.00000000000E+00 -0.00000000000E+00 -0.40552516492E+02  0.40552516492E+02  0.00000000000E+00 0.  1.
         23    2    1    2    0    0  0.17544059457E+01  0.99684117461E+01  0.80577471299E+02  0.12312865581E+03  0.92549931541E+02 0.  0.
         23    2    1    2    0    0 -0.17544059457E+01 -0.99684117461E+01  0.86378018383E+02  0.12493186685E+03  0.89690368060E+02 0.  0.
          5    1    3    3  502    0 -0.36653701812E+02  0.17996615297E+02  0.10097018687E+02  0.42325073007E+02  0.47000000000E+01 0. -1.
         -5    1    4    4    0  503 -0.24300398312E+02 -0.55708566524E+01 -0.88427542125E+01  0.26866858842E+02  0.47000000000E+01 0.  1.
          5    1    4    4  503    0  0.22545992367E+02 -0.43975550936E+01  0.95220772596E+02  0.98065008011E+02  0.47000000000E+01 0. -1.
         -5    1    3    3    0  502  0.38408107758E+02 -0.80282035504E+01  0.70480452612E+02  0.80803582806E+02  0.47000000000E+01 0.  1.
<mgrwt>
<rscale>  0 0.92382955E+02</rscale>
<asrwt>0</asrwt>
<pdfrwt beam="1">  1        2 0.31924308E-01 0.93101756E+02</pdfrwt>
<pdfrwt beam="2">  1       -2 0.62388488E-02 0.93101756E+02</pdfrwt>
<totfact> 0.20419246E+04</totfact>
</mgrwt>
</event>
<event>
 8    1  0.5224537E-004  0.9824604E+02  0.7546771E-02  0.1286358E+00
          2   -1    0    0  501    0  0.00000000000E+00  0.00000000000E+00  0.10748349355E+02  0.10748349355E+02  0.00000000000E+00 0. -1.
         -2   -1    0    0    0  501 -0.00000000000E+00 -0.00000000000E+00 -0.11006454439E+04  0.11006454439E+04  0.00000000000E+00 0.  1.
         23    2    1    2    0    0  0.21418936435E+02 -0.69641728006E+01 -0.81420414396E+03  0.82011015845E+03  0.95629563473E+02 0.  0.
         23    2    1    2    0    0 -0.21418936435E+02  0.69641728006E+01 -0.27569295060E+03  0.29128363482E+03  0.91281336335E+02 0.  0.
          5    1    4    4  502    0 -0.33344264392E+02  0.42892705726E+02 -0.13739591782E+03  0.14782202950E+03  0.47000000000E+01 0. -1.
         -5    1    3    3    0  503 -0.31680759788E+02 -0.26314165745E+02 -0.36070595730E+03  0.36307985828E+03  0.47000000000E+01 0.  1.
          5    1    3    3  503    0  0.53099696223E+02  0.19349992944E+02 -0.45349818666E+03  0.45703030016E+03  0.47000000000E+01 0. -1.
         -5    1    4    4    0  502  0.11925327957E+02 -0.35928532925E+02 -0.13829703278E+03  0.14346160532E+03  0.47000000000E+01 0.  1.
<mgrwt>
<rscale>  0 0.97171760E+02</rscale>
<asrwt>0</asrwt>
<pdfrwt beam="1">  1        2 0.16535919E-02 0.98246038E+02</pdfrwt>
<pdfrwt beam="2">  1       -2 0.16933010E+00 0.98246038E+02</pdfrwt>
<totfact> 0.15387654E+03</totfact>
</mgrwt>
</event>
<event>
 8    1  0.5224537E-004  0.1012770E+03  0.7546771E-02  0.1277636E+00
         -2   -1    0    0    0  501 -0.00000000000E+00  0.00000000000E+00  0.24058139258E+02  0.24058139258E+02  0.00000000000E+00 0.  1.
          2   -1    0    0  501    0  0.00000000000E+00 -0.00000000000E+00 -0.44707099557E+03  0.44707099557E+03  0.00000000000E+00 0. -1.
         23    2    1    2    0    0  0.37954778521E+02 -0.26701257077E+02 -0.26226567174E+03  0.28114109467E+03  0.90019498978E+02 0.  0.
         23    2    1    2    0    0 -0.37954778521E+02  0.26701257077E+02 -0.16074718457E+03  0.18998804015E+03  0.90012641965E+02 0.  0.
          5    1    3    3  502    0  0.25750830124E+02  0.18337760197E+02 -0.20330839829E+03  0.20580518340E+03  0.47000000000E+01 0. -1.
         -5    1    4    4    0  503  0.17597929370E+02  0.25648573399E+02 -0.11062568609E+03  0.11501160314E+03  0.47000000000E+01 0.  1.
          5    1    4    4  503    0 -0.55552707891E+02  0.10526836780E+01 -0.50121498479E+02  0.74976437010E+02  0.47000000000E+01 0. -1.
         -5    1    3    3    0  502  0.12203948396E+02 -0.45039017273E+02 -0.58957273454E+02  0.75335911268E+02  0.47000000000E+01 0.  1.
<mgrwt>
<rscale>  0 0.10127549E+03</rscale>
<asrwt>0</asrwt>
<pdfrwt beam="1">  1        2 0.68780158E-01 0.10127701E+03</pdfrwt>
<pdfrwt beam="2">  1       -2 0.37012519E-02 0.10127701E+03</pdfrwt>
<totfact> 0.19928417E+04</totfact>
</mgrwt>
</event>
<event>
 8    1  0.5224537E-004  0.1147719E+03  0.7546771E-02  0.1252047E+00
         -1   -1    0    0    0  501 -0.00000000000E+00  0.00000000000E+00  0.37733062996E+02  0.37733062996E+02  0.00000000000E+00 0.  1.
          1   -1    0    0  501    0  0.00000000000E+00 -0.00000000000E+00 -0.36128135099E+03  0.36128135099E+03  0.00000000000E+00 0. -1.
         23    2    1    2    0    0  0.12678580064E+02 -0.66875545830E+02 -0.19899906518E+03  0.22964767073E+03  0.92218976928E+02 0.  0.
         23    2    1    2    0    0 -0.12678580064E+02  0.66875545830E+02 -0.12454922282E+03  0.16936674326E+03  0.92409414002E+02 0.  0.
          5    1    4    4  502    0 -0.40761257887E+02  0.21647621913E+01 -0.65166129319E+02  0.77038177226E+02  0.47000000000E+01 0. -1.
         -5    1    4    4    0  502  0.28082677823E+02  0.64710783639E+02 -0.59383093498E+02  0.92328566036E+02  0.47000000000E+01 0.  1.
          5    1    3    3  503    0 -0.17205498238E+02  0.17204939020E+02 -0.52349433522E+02  0.57918842240E+02  0.47000000000E+01 0. -1.
         -5    1    3    3    0  503  0.29884078302E+02 -0.84080484850E+02 -0.14664963166E+03  0.17172882849E+03  0.47000000000E+01 0.  1.
<mgrwt>
<rscale>  0 0.11473354E+03</rscale>
<asrwt>0</asrwt>
<pdfrwt beam="1">  1        1 0.55581746E-01 0.11477188E+03</pdfrwt>
<pdfrwt beam="2">  1       -1 0.58050866E-02 0.11477188E+03</pdfrwt>
<totfact> 0.91008397E+03</totfact>
</mgrwt>
</event>
<event>
 8    1  0.5224537E-004  0.9769809E+02  0.7546771E-02  0.1285830E+00
          1   -1    0    0  501    0  0.00000000000E+00  0.00000000000E+00  0.26535218449E+03  0.26535218449E+03  0.00000000000E+00 0. -1.
         -1   -1    0    0    0  501 -0.00000000000E+00 -0.00000000000E+00 -0.89267504825E+02  0.89267504825E+02  0.00000000000E+00 0.  1.
         23    2    1    2    0    0 -0.14297580571E+02  0.19048769848E+02  0.22537528112E+03  0.24519172300E+03  0.93582515698E+02 0.  0.
         23    2    1    2    0    0  0.14297580571E+02 -0.19048769848E+02 -0.49290601454E+02  0.10942796632E+03  0.94750408850E+02 0.  0.
          5    1    3    3  502    0  0.25913935431E+02  0.39034764391E+02  0.78566758833E+02  0.91597327876E+02  0.47000000000E+01 0. -1.
         -5    1    4    4    0  503  0.30307594899E+02  0.29424546777E+02 -0.37826192609E+02  0.56896969242E+02  0.47000000000E+01 0.  1.
          5    1    4    4  503    0 -0.16010014328E+02 -0.48473316625E+02 -0.11464408845E+02  0.52530997074E+02  0.47000000000E+01 0. -1.
         -5    1    3    3    0  502 -0.40211516002E+02 -0.19985994543E+02  0.14680852228E+03  0.15359439512E+03  0.47000000000E+01 0.  1.
<mgrwt>
<rscale>  0 0.97413790E+02</rscale>
<asrwt>0</asrwt>
<pdfrwt beam="1">  1        1 0.40823413E-01 0.97698088E+02</pdfrwt>
<pdfrwt beam="2">  1       -1 0.13733462E-01 0.97698088E+02</pdfrwt>
<totfact> 0.35897030E+03</totfact>
</mgrwt>
</event>
<event>
 8    1  0.5224537E-004  0.9356594E+02  0.7546771E-02  0.1295797E+00
          2   -1    0    0  501    0  0.00000000000E+00  0.00000000000E+00  0.40332375411E+03  0.40332375411E+03  0.00000000000E+00 0. -1.
         -2   -1    0    0    0  501 -0.00000000000E+00 -0.00000000000E+00 -0.28719965369E+02  0.28719965369E+02  0.00000000000E+00 0.  1.
         23    2    1    2    0    0  0.13386342417E+02 -0.37624718569E+01  0.29632270191E+03  0.31004980890E+03  0.90168675130E+02 0.  0.
         23    2    1    2    0    0 -0.13386342417E+02  0.37624718569E+01  0.78281086825E+02  0.12199391057E+03  0.92526943667E+02 0.  0.
          5    1    3    3  502    0 -0.17779474908E+02  0.29762873391E+02  0.20307535322E+03  0.20606704600E+03  0.47000000000E+01 0. -1.
         -5    1    3    3    0  502  0.31165817325E+02 -0.33525345248E+02  0.93247348694E+02  0.10398276291E+03  0.47000000000E+01 0.  1.
          5    1    4    4  503    0 -0.41485672131E+02  0.15562059353E+02  0.79498174130E+02  0.91133354890E+02  0.47000000000E+01 0. -1.
         -5    1    4    4    0  503  0.28099329714E+02 -0.11799587496E+02 -0.12170873048E+01  0.30860555682E+02  0.47000000000E+01 0.  1.
<mgrwt>
<rscale>  0 0.92977564E+02</rscale>
<asrwt>0</asrwt>
<pdfrwt beam="1">  1        2 0.62049804E-01 0.93565943E+02</pdfrwt>
<pdfrwt beam="2">  1       -2 0.44184565E-02 0.93565943E+02</pdfrwt>
<totfact> 0.16992946E+04</totfact>
</mgrwt>
</event>
<event>
 8    1  0.5224537E-004  0.1293345E+03  0.7546771E-02  0.1230789E+00
          1   -1    0    0  501    0  0.00000000000E+00  0.00000000000E+00  0.57230525523E+02  0.57230525523E+02  0.00000000000E+00 0. -1.
         -1   -1    0    0    0  501 -0.00000000000E+00 -0.00000000000E+00 -0.30711618879E+03  0.30711618879E+03  0.00000000000E+00 0.  1.
         23    2    1    2    0    0  0.61507473066E+02 -0.11858757350E+02 -0.18314654636E+03  0.22420985382E+03  0.11315300145E+03 0.  0.
         23    2    1    2    0    0 -0.61507473066E+02  0.11858757350E+02 -0.66739116912E+02  0.14013686050E+03  0.10611517599E+03 0.  0.
          5    1    3    3  502    0  0.49868826745E+02  0.46155047363E+02 -0.78752263387E+02  0.10412107023E+03  0.47000000000E+01 0. -1.
         -5    1    4    4    0  503 -0.36142906296E+02 -0.44100993188E+02 -0.50747605997E+02  0.76476249843E+02  0.47000000000E+01 0. -1.
          5    1    4    4  503    0 -0.25364566770E+02  0.55959750538E+02 -0.15991510915E+02  0.63660610656E+02  0.47000000000E+01 0. -1.
         -5    1    3    3    0  502  0.11638646322E+02 -0.58013804713E+02 -0.10439428297E+03  0.12008878358E+03  0.47000000000E+01 0.  1.
<mgrwt>
<rscale>  0 0.12777908E+03</rscale>
<asrwt>0</asrwt>
<pdfrwt beam="1">  1        1 0.88046963E-02 0.12933445E+03</pdfrwt>
<pdfrwt beam="2">  1       -1 0.47248644E-01 0.12933445E+03</pdfrwt>
<totfact> 0.33386389E+03</totfact>
</mgrwt>
</event>
<event>
 8    1  0.5224537E-004  0.9391409E+02  0.7546771E-02  0.1294609E+00
         -1   -1    0    0    0  501 -0.00000000000E+00  0.00000000000E+00  0.27919776168E+03  0.27919776168E+03  0.00000000000E+00 0.  1.
          1   -1    0    0  501    0  0.00000000000E+00 -0.00000000000E+00 -0.43246237884E+02  0.43246237884E+02  0.00000000000E+00 0. -1.
         23    2    1    2    0    0  0.84204640401E+01  0.17577301127E+02  0.33047639660E+02  0.99559041295E+02  0.91869420848E+02 0.  0.
         23    2    1    2    0    0 -0.84204640401E+01 -0.17577301127E+02  0.20290388414E+03  0.22288495827E+03  0.90154604408E+02 0.  0.
          5    1    4    4  502    0 -0.16228568644E+02 -0.48787324675E+02  0.75973765623E+02  0.91856804604E+02  0.47000000000E+01 0. -1.
         -5    1    4    4    0  502  0.78081046040E+01  0.31210023548E+02  0.12693011852E+03  0.13102815367E+03  0.47000000000E+01 0.  1.
          5    1    3    3  503    0  0.44679560876E+02  0.24570286996E+02  0.22668437513E+01  0.51256128841E+02  0.47000000000E+01 0. -1.
         -5    1    3    3    0  503 -0.36259096836E+02 -0.69929858689E+01  0.30780795908E+02  0.48302912454E+02  0.47000000000E+01 0.  1.
<mgrwt>
<rscale>  0 0.93492054E+02</rscale>
<asrwt>0</asrwt>
<pdfrwt beam="1">  1        1 0.66532675E-02 0.93914090E+02</pdfrwt>
<pdfrwt beam="2">  1       -1 0.42953501E-01 0.93914090E+02</pdfrwt>
<totfact> 0.56252777E+03</totfact>
</mgrwt>
</event>
<event>
 8    1  0.5224537E-004  0.1155503E+03  0.7546771E-02  0.1251779E+00
         -2   -1    0    0    0  501 -0.00000000000E+00  0.00000000000E+00  0.19265381572E+02  0.19265381572E+02  0.00000000000E+00 0.  1.
          2   -1    0    0  501    0  0.00000000000E+00 -0.00000000000E+00 -0.11673941177E+04  0.11673941177E+04  0.00000000000E+00 0. -1.
         23    2    1    2    0    0 -0.45791900371E+02  0.52908098940E+02 -0.19349988252E+03  0.22537541080E+03  0.91954913867E+02 0.  0.
         23    2    1    2    0    0  0.45791900371E+02 -0.52908098940E+02 -0.95462885362E+03  0.96128408849E+03  0.88626663824E+02 0.  0.
          5    1    4    4  502    0  0.49296865720E+02  0.78606779149E+01 -0.34852230314E+03  0.35211057498E+03  0.47000000000E+01 0. -1.
         -5    1    4    4    0  502 -0.35049653488E+01 -0.60768776855E+02 -0.60610655048E+03  0.60917351351E+03  0.47000000000E+01 0.  1.
          5    1    3    3  503    0 -0.21981179892E+02  0.52548682848E+01 -0.16131768854E+03  0.16296095405E+03  0.47000000000E+01 0. -1.
         -5    1    3    3    0  503 -0.23810720478E+02  0.47653230655E+02 -0.32182193984E+02  0.62414456748E+02  0.47000000000E+01 0.  1.
<mgrwt>
<rscale>  0 0.11488695E+03</rscale>
<asrwt>0</asrwt>
<pdfrwt beam="1">  1        2 0.17959911E+00 0.11555030E+03</pdfrwt>
<pdfrwt beam="2">  1       -2 0.29639046E-02 0.11555030E+03</pdfrwt>
<totfact> 0.86628777E+03</totfact>
</mgrwt>
</event>
<event>
 8    1  0.5224537E-004  0.9382093E+02  0.7546771E-02  0.1294923E+00
         -1   -1    0    0    0  501 -0.00000000000E+00  0.00000000000E+00  0.19323819512E+03  0.19323819512E+03  0.00000000000E+00 0.  1.
          1   -1    0    0  501    0  0.00000000000E+00 -0.00000000000E+00 -0.24383872864E+03  0.24383872864E+03  0.00000000000E+00 0. -1.
         23    2    1    2    0    0 -0.14503849623E+01 -0.15728754308E+02  0.17225817644E+03  0.19527458401E+03  0.90607872080E+02 0.  0.
         23    2    1    2    0    0  0.14503849623E+01  0.15728754308E+02 -0.22285870996E+03  0.24180233974E+03  0.92481725611E+02 0.  0.
          5    1    4    4  502    0  0.30023381151E+02 -0.84134014475E+00 -0.19768195379E+03  0.20000589022E+03  0.47000000000E+01 0. -1.
         -5    1    3    3    0  503  0.42899740130E+02 -0.13374284113E+02  0.10750810445E+03  0.11661621543E+03  0.47000000000E+01 0.  1.
          5    1    3    3  503    0 -0.44350125092E+02 -0.23544701947E+01  0.64750071986E+02  0.78658368581E+02  0.47000000000E+01 0. -1.
         -5    1    4    4    0  502 -0.28572996188E+02  0.16570094452E+02 -0.25176756166E+02  0.41796449519E+02  0.47000000000E+01 0. -1.
<mgrwt>
<rscale>  0 0.93355842E+02</rscale>
<asrwt>0</asrwt>
<pdfrwt beam="1">  1        1 0.37513650E-01 0.93820930E+02</pdfrwt>
<pdfrwt beam="2">  1       -1 0.29728953E-01 0.93820930E+02</pdfrwt>
<totfact> 0.11588838E+03</totfact>
</mgrwt>
</event>
<event>
 8    1  0.5224537E-004  0.1260389E+03  0.7546771E-02  0.1235396E+00
         -1   -1    0    0    0  501 -0.00000000000E+00  0.00000000000E+00  0.93174731053E+03  0.93174731053E+03  0.00000000000E+00 0.  1.
          1   -1    0    0  501    0  0.00000000000E+00 -0.00000000000E+00 -0.25907864465E+02  0.25907864465E+02  0.00000000000E+00 0. -1.
         23    2    1    2    0    0  0.74847363989E+02  0.54985124730E+01  0.74879889447E+03  0.75933233551E+03  0.10125931989E+03 0.  0.
         23    2    1    2    0    0 -0.74847363989E+02 -0.54985124730E+01  0.15704055160E+03  0.19832283948E+03  0.95067619507E+02 0.  0.
          5    1    3    3  502    0  0.55027853701E+01 -0.33043925880E+02  0.97478985413E+02  0.10318151134E+03  0.47000000000E+01 0. -1.
         -5    1    4    4    0  503 -0.95279139906E+02 -0.29281372361E+01  0.10360671355E+03  0.14086564372E+03  0.47000000000E+01 0.  1.
          5    1    4    4  503    0  0.20431775917E+02 -0.25703752369E+01  0.53433838051E+02  0.57457195762E+02  0.47000000000E+01 0. -1.
         -5    1    3    3    0  502  0.69344578619E+02  0.38542438353E+02  0.65131990905E+03  0.65615082418E+03  0.47000000000E+01 0.  1.
<mgrwt>
<rscale>  0 0.12479095E+03</rscale>
<asrwt>0</asrwt>
<pdfrwt beam="1">  1        1 0.39858260E-02 0.12603893E+03</pdfrwt>
<pdfrwt beam="2">  1       -1 0.14334571E+00 0.12603893E+03</pdfrwt>
<totfact> 0.95365739E+02</totfact>
</mgrwt>
</event>
<event>
 8    1  0.5224537E-004  0.9911518E+02  0.7546771E-02  0.1283068E+00
         -1   -1    0    0    0  501 -0.00000000000E+00  0.00000000000E+00  0.56557440616E+02  0.56557440616E+02  0.00000000000E+00 0.  1.
          1   -1    0    0  501    0  0.00000000000E+00 -0.00000000000E+00 -0.18534399732E+03  0.18534399732E+03  0.00000000000E+00 0. -1.
         23    2    1    2    0    0  0.95009011604E+01 -0.35771703920E+02 -0.97802475373E+02  0.13805620935E+03  0.90134958968E+02 0.  0.
         23    2    1    2    0    0 -0.95009011604E+01  0.35771703920E+02 -0.30984081328E+02  0.10384522858E+03  0.91945289593E+02 0.  0.
          5    1    3    3  502    0 -0.30002702472E+02  0.34017191061E+01 -0.68488788028E+02  0.74996919497E+02  0.47000000000E+01 0. -1.
         -5    1    4    4    0  503  0.35540033672E+02  0.29901667168E+02 -0.34496946545E+02  0.58045956050E+02  0.47000000000E+01 0.  1.
          5    1    4    4  503    0 -0.45040934832E+02  0.58700367523E+01  0.35128652165E+01  0.45799272528E+02  0.47000000000E+01 0. -1.
         -5    1    3    3    0  502  0.39503603633E+02 -0.39173423027E+02 -0.29313687345E+02  0.63059289858E+02  0.47000000000E+01 0.  1.
<mgrwt>
<rscale>  0 0.98693233E+02</rscale>
<asrwt>0</asrwt>
<pdfrwt beam="1">  1        1 0.28514461E-01 0.99115176E+02</pdfrwt>
<pdfrwt beam="2">  1       -1 0.87011447E-02 0.99115176E+02</pdfrwt>
<totfact> 0.11176894E+04</totfact>
</mgrwt>
</event>
<event>
 8    1  0.5224537E-004  0.1176107E+03  0.7546771E-02  0.1248340E+00
          2   -1    0    0  501    0  0.00000000000E+00  0.00000000000E+00  0.12463979873E+04  0.12463979873E+04  0.00000000000E+00 0. -1.
         -2   -1    0    0    0  501 -0.00000000000E+00 -0.00000000000E+00 -0.10897293867E+02  0.10897293867E+02  0.00000000000E+00 0.  1.
         23    2    1    2    0    0  0.49168895928E+02 -0.49840205077E+02  0.57425820602E+03  0.58617810097E+03  0.94502129676E+02 0.  0.
         23    2    1    2    0    0 -0.49168895928E+02  0.49840205077E+02  0.66124248741E+03  0.67111718019E+03  0.90857118709E+02 0.  0.
          5    1    4    4  502    0 -0.75387392670E+02  0.30830654575E+02  0.49613783897E+03  0.50280078907E+03  0.47000000000E+01 0. -1.
         -5    1    4    4    0  502  0.26218496742E+02  0.19009550502E+02  0.16510464844E+03  0.16831639112E+03  0.47000000000E+01 0.  1.
          5    1    3    3  503    0 -0.29560632171E+00  0.25543735317E+02  0.94844233157E+02  0.98336607427E+02  0.47000000000E+01 0. -1.
         -5    1    3    3    0  503  0.49464502249E+02 -0.75383940393E+02  0.47941397286E+03  0.48784149355E+03  0.47000000000E+01 0.  1.
<mgrwt>
<rscale>  0 0.11687679E+03</rscale>
<asrwt>0</asrwt>
<pdfrwt beam="1">  1        2 0.19175342E+00 0.11761071E+03</pdfrwt>
<pdfrwt beam="2">  1       -2 0.16765077E-02 0.11761071E+03</pdfrwt>
<totfact> 0.17938072E+04</totfact>
</mgrwt>
</event>
<event>
 8    1  0.5224537E-004  0.1035729E+03  0.7546771E-02  0.1274620E+00
         -2   -1    0    0    0  501 -0.00000000000E+00  0.00000000000E+00  0.40485099055E+02  0.40485099055E+02  0.00000000000E+00 0.  1.
          2   -1    0    0  501    0  0.00000000000E+00 -0.00000000000E+00 -0.38198767504E+03  0.38198767504E+03  0.00000000000E+00 0. -1.
         23    2    1    2    0    0 -0.15377114839E+02  0.47173520678E+02 -0.28988276824E+03  0.30674918473E+03  0.87185126569E+02 0.  0.
         23    2    1    2    0    0  0.15377114839E+02 -0.47173520678E+02 -0.51619807745E+02  0.11572358937E+03  0.90915058546E+02 0.  0.
          5    1    3    3  502    0 -0.20850820414E+02 -0.19372643845E+02 -0.13455831073E+03  0.13761571505E+03  0.47000000000E+01 0. -1.
         -5    1    3    3    0  502  0.54737055743E+01  0.66546164523E+02 -0.15532445751E+03  0.16913346968E+03  0.47000000000E+01 0.  1.
          5    1    4    4  503    0 -0.96895419108E+01 -0.22462424835E+02 -0.71017413246E+02  0.75259622216E+02  0.47000000000E+01 0. -1.
         -5    1    4    4    0  503  0.25066656750E+02 -0.24711095844E+02  0.19397605501E+02  0.40463967151E+02  0.47000000000E+01 0.  1.
<mgrwt>
<rscale>  0 0.10274856E+03</rscale>
<asrwt>0</asrwt>
<pdfrwt beam="1">  1        2 0.58767331E-01 0.10357290E+03</pdfrwt>
<pdfrwt beam="2">  1       -2 0.62284772E-02 0.10357290E+03</pdfrwt>
<totfact> 0.10876431E+04</totfact>
</mgrwt>
</event>
<event>
 8    1  0.5224537E-004  0.1090112E+03  0.7546771E-02  0.1264211E+00
         -2   -1    0    0    0  501 -0.00000000000E+00  0.00000000000E+00  0.29638837765E+03  0.29638837765E+03  0.00000000000E+00 0.  1.
          2   -1    0    0  501    0  0.00000000000E+00 -0.00000000000E+00 -0.42307536222E+02  0.42307536222E+02  0.00000000000E+00 0. -1.
         23    2    1    2    0    0 -0.47838069643E+02  0.20282260367E+02  0.79780345410E+02  0.13508645264E+03  0.95831076283E+02 0.  0.
         23    2    1    2    0    0  0.47838069643E+02 -0.20282260367E+02  0.17430049602E+03  0.20360946123E+03  0.91522121900E+02 0.  0.
          5    1    4    4  502    0  0.51274406381E+01 -0.23966621666E+02  0.94848688793E+00  0.24973570609E+02  0.47000000000E+01 0. -1.
         -5    1    4    4    0  502  0.42710629005E+02  0.36843612983E+01  0.17335200913E+03  0.17863589062E+03  0.47000000000E+01 0.  1.
          5    1    3    3  503    0 -0.25268391632E+02  0.53930625037E+02  0.72008026944E+02  0.93564148460E+02  0.47000000000E+01 0. -1.
         -5    1    3    3    0  503 -0.22569678011E+02 -0.33648364670E+02  0.77723184659E+01  0.41522304185E+02  0.47000000000E+01 0.  1.
<mgrwt>
<rscale>  0 0.10805678E+03</rscale>
<asrwt>0</asrwt>
<pdfrwt beam="1">  1        2 0.65088519E-02 0.10901122E+03</pdfrwt>
<pdfrwt beam="2">  1       -2 0.45598211E-01 0.10901122E+03</pdfrwt>
<totfact> 0.47853362E+03</totfact>
</mgrwt>
</event>
<event>
 8    1  0.5224537E-004  0.1025263E+03  0.7546771E-02  0.1275898E+00
         -2   -1    0    0    0  501 -0.00000000000E+00  0.00000000000E+00  0.39437643079E+03  0.39437643079E+03  0.00000000000E+00 0.  1.
          2   -1    0    0  501    0  0.00000000000E+00 -0.00000000000E+00 -0.26521359660E+02  0.26521359660E+02  0.00000000000E+00 0. -1.
         23    2    1    2    0    0 -0.28977139720E+02 -0.11305224583E+02  0.20429515445E+03  0.22786027498E+03  0.96001625247E+02 0.  0.
         23    2    1    2    0    0  0.28977139720E+02  0.11305224583E+02  0.16355991668E+03  0.19303751548E+03  0.97694182569E+02 0.  0.
          5    1    4    4  502    0 -0.34971251851E+02  0.68347706125E+01  0.79259494675E+02  0.87027926790E+02  0.47000000000E+01 0. -1.
         -5    1    3    3    0  503  0.21796628561E+02  0.28014464151E+02  0.60394083789E+02  0.70209960654E+02  0.47000000000E+01 0.  1.
          5    1    3    3  503    0 -0.50773768281E+02 -0.39319688735E+02  0.14390107066E+03  0.15765031432E+03  0.47000000000E+01 0. -1.
         -5    1    4    4    0  502  0.63948391571E+02  0.44704539710E+01  0.84300422005E+02  0.10600958869E+03  0.47000000000E+01 0.  1.
<mgrwt>
<rscale>  0 0.10212100E+03</rscale>
<asrwt>0</asrwt>
<pdfrwt beam="1">  1        2 0.40802095E-02 0.10252627E+03</pdfrwt>
<pdfrwt beam="2">  1       -2 0.60673293E-01 0.10252627E+03</pdfrwt>
<totfact> 0.49314899E+03</totfact>
</mgrwt>
</event>
<event>
 8    1  0.5224537E-004  0.9452161E+02  0.7546771E-02  0.1295063E+00
          2   -1    0    0  501    0  0.00000000000E+00  0.00000000000E+00  0.12452329009E+03  0.12452329009E+03  0.00000000000E+00 0. -1.
         -2   -1    0    0    0  501 -0.00000000000E+00 -0.00000000000E+00 -0.80938497590E+02  0.80938497590E+02  0.00000000000E+00 0.  1.
         23    2    1    2    0    0 -0.13570101801E+02  0.12435051090E+02  0.62149030248E+02  0.10913440177E+03  0.87801124886E+02 0.  0.
         23    2    1    2    0    0  0.13570101801E+02 -0.12435051090E+02 -0.18564237745E+02  0.96327385908E+02  0.92712222465E+02 0.  0.
          5    1    3    3  502    0 -0.34343653785E+01 -0.36980860819E+02  0.36755010544E+02  0.52463317971E+02  0.47000000000E+01 0. -1.
         -5    1    3    3    0  502 -0.10135736423E+02  0.49415911909E+02  0.25394019705E+02  0.56671083803E+02  0.47000000000E+01 0.  1.
          5    1    4    4  503    0 -0.85327812574E+01  0.24125940503E+02 -0.40450079947E+02  0.48095408604E+02  0.47000000000E+01 0. -1.
         -5    1    4    4    0  503  0.22102883059E+02 -0.36560991593E+02  0.21885842202E+02  0.48231977304E+02  0.47000000000E+01 0.  1.
<mgrwt>
<rscale>  0 0.93294938E+02</rscale>
<asrwt>0</asrwt>
<pdfrwt beam="1">  1        2 0.19157429E-01 0.94521608E+02</pdfrwt>
<pdfrwt beam="2">  1       -2 0.12452077E-01 0.94521608E+02</pdfrwt>
<totfact> 0.12301837E+04</totfact>
</mgrwt>
</event>
<event>
 8    1  0.5224537E-004  0.1060658E+03  0.7546771E-02  0.1269499E+00
         -1   -1    0    0    0  501 -0.00000000000E+00  0.00000000000E+00  0.44218998671E+02  0.44218998671E+02  0.00000000000E+00 0.  1.
          1   -1    0    0  501    0  0.00000000000E+00 -0.00000000000E+00 -0.29540856303E+03  0.29540856303E+03  0.00000000000E+00 0. -1.
         23    2    1    2    0    0  0.16800154592E+02  0.47210295225E+02 -0.55607999513E+02  0.11713686015E+03  0.90098486259E+02 0.  0.
         23    2    1    2    0    0 -0.16800154592E+02 -0.47210295225E+02 -0.19558156485E+03  0.22249070155E+03  0.93482119146E+02 0.  0.
          5    1    4    4  502    0 -0.53428708774E+02 -0.38044487010E+02 -0.10075130579E+03  0.12031178468E+03  0.47000000000E+01 0. -1.
         -5    1    3    3    0  503  0.49862564069E+02  0.43784713637E+02 -0.23138440381E+02  0.70433329234E+02  0.47000000000E+01 0.  1.
          5    1    3    3  503    0 -0.33062409477E+02  0.34255815880E+01 -0.32469559132E+02  0.46703530914E+02  0.47000000000E+01 0. -1.
         -5    1    4    4    0  502  0.36628554182E+02 -0.91658082153E+01 -0.94830259056E+02  0.10217891688E+03  0.47000000000E+01 0.  1.
<mgrwt>
<rscale>  0 0.10531547E+03</rscale>
<asrwt>0</asrwt>
<pdfrwt beam="1">  1        1 0.45447469E-01 0.10606585E+03</pdfrwt>
<pdfrwt beam="2">  1       -1 0.68029231E-02 0.10606585E+03</pdfrwt>
<totfact> 0.91634229E+03</totfact>
</mgrwt>
</event>
<event>
 8    1  0.5224537E-004  0.9770545E+02  0.7546771E-02  0.1286727E+00
          1   -1    0    0  501    0  0.00000000000E+00  0.00000000000E+00  0.68051493914E+03  0.68051493914E+03  0.00000000000E+00 0. -1.
         -1   -1    0    0    0  501 -0.00000000000E+00 -0.00000000000E+00 -0.14420629782E+02  0.14420629782E+02  0.00000000000E+00 0.  1.
         23    2    1    2    0    0 -0.33540061233E+02  0.47452231865E+01  0.24725533759E+03  0.26485134494E+03  0.88676829539E+02 0.  0.
         23    2    1    2    0    0  0.33540061233E+02 -0.47452231865E+01  0.41883897177E+03  0.43008422399E+03  0.91645526894E+02 0.  0.
          5    1    4    4  502    0 -0.25859945951E+02  0.15191769880E+02  0.20397032055E+03  0.20621713882E+03  0.47000000000E+01 0. -1.
         -5    1    3    3    0  503 -0.43208234373E+02  0.29644064461E+02  0.22073976417E+03  0.22692257614E+03  0.47000000000E+01 0.  1.
          5    1    3    3  503    0  0.96681731408E+01 -0.24898841275E+02  0.26515573420E+02  0.37928768797E+02  0.47000000000E+01 0. -1.
         -5    1    4    4    0  502  0.59400007184E+02 -0.19936993067E+02  0.21486865122E+03  0.22386708517E+03  0.47000000000E+01 0.  1.
<mgrwt>
<rscale>  0 0.97003169E+02</rscale>
<asrwt>0</asrwt>
<pdfrwt beam="1">  1        1 0.10469458E+00 0.97705453E+02</pdfrwt>
<pdfrwt beam="2">  1       -1 0.22185590E-02 0.97705453E+02</pdfrwt>
<totfact> 0.15981535E+04</totfact>
</mgrwt>
</event>
<event>
 8    1  0.5224537E-004  0.9421676E+02  0.7546771E-02  0.1296309E+00
         -2   -1    0    0    0  501 -0.00000000000E+00  0.00000000000E+00  0.14239999834E+03  0.14239999834E+03  0.00000000000E+00 0.  1.
          2   -1    0    0  501    0  0.00000000000E+00 -0.00000000000E+00 -0.58909205254E+02  0.58909205254E+02  0.00000000000E+00 0. -1.
         23    2    1    2    0    0  0.17476643695E+02 -0.19179707332E+02  0.33398748176E+02  0.94603951184E+02  0.84623501179E+02 0.  0.
         23    2    1    2    0    0 -0.17476643695E+02  0.19179707332E+02  0.50092044915E+02  0.10670525241E+03  0.90573195156E+02 0.  0.
          5    1    4    4  502    0  0.36524392877E+02  0.14232453632E+02  0.16841833480E+02  0.42922387706E+02  0.47000000000E+01 0. -1.
         -5    1    3    3    0  503 -0.21715368562E+02  0.30099866810E+01  0.42835685463E+02  0.48348766280E+02  0.47000000000E+01 0.  1.
          5    1    3    3  503    0  0.39192012257E+02 -0.22189694013E+02 -0.94369372880E+01  0.46255184905E+02  0.47000000000E+01 0. -1.
         -5    1    4    4    0  502 -0.54001036571E+02  0.49472537001E+01  0.33250211435E+02  0.63782864709E+02  0.47000000000E+01 0.  1.
<mgrwt>
<rscale>  0 0.92757078E+02</rscale>
<asrwt>0</asrwt>
<pdfrwt beam="1">  1        2 0.90629547E-02 0.94216760E+02</pdfrwt>
<pdfrwt beam="2">  1       -2 0.21907692E-01 0.94216760E+02</pdfrwt>
<totfact> 0.11742618E+04</totfact>
</mgrwt>
</event>
<event>
 8    1  0.5224537E-004  0.1048626E+03  0.7546771E-02  0.1285280E+00
         -1   -1    0    0    0  501 -0.00000000000E+00  0.00000000000E+00  0.47613824482E+02  0.47613824482E+02  0.00000000000E+00 0.  1.
          1   -1    0    0  501    0  0.00000000000E+00 -0.00000000000E+00 -0.19873311538E+03  0.19873311538E+03  0.00000000000E+00 0. -1.
         23    2    1    2    0    0 -0.20649109489E+01 -0.53052694416E+02 -0.25970588439E+02  0.83073029138E+02  0.58376403317E+02 0.  0.
         23    2    1    2    0    0  0.20649109489E+01  0.53052694416E+02 -0.12514870246E+03  0.16327391072E+03  0.90428535066E+02 0.  0.
          5    1    3    3  502    0  0.27791791596E+02 -0.25861285019E+02 -0.12756317137E+02  0.40323732092E+02  0.47000000000E+01 0. -1.
         -5    1    3    3    0  502 -0.29856702545E+02 -0.27191409397E+02 -0.13214271302E+02  0.42749297045E+02  0.47000000000E+01 0.  1.
          5    1    4    4  503    0 -0.28464933319E+02  0.42846104257E+00 -0.86155959967E+02  0.90859096658E+02  0.47000000000E+01 0. -1.
         -5    1    4    4    0  503  0.30529844268E+02  0.52624233373E+02 -0.38992742490E+02  0.72414814065E+02  0.47000000000E+01 0.  1.
<mgrwt>
<rscale>  0 0.97666908E+02</rscale>
<asrwt>0</asrwt>
<pdfrwt beam="1">  1        1 0.30574326E-01 0.10486263E+03</pdfrwt>
<pdfrwt beam="2">  1       -1 0.73252037E-02 0.10486263E+03</pdfrwt>
<totfact> 0.13339302E+04</totfact>
</mgrwt>
</event>
<event>
 8    1  0.5224537E-004  0.1085494E+03  0.7546771E-02  0.1263863E+00
         -1   -1    0    0    0  501 -0.00000000000E+00  0.00000000000E+00  0.71935637921E+02  0.71935637921E+02  0.00000000000E+00 0.  1.
          1   -1    0    0  501    0  0.00000000000E+00 -0.00000000000E+00 -0.27900967365E+03  0.27900967365E+03  0.00000000000E+00 0. -1.
         23    2    1    2    0    0 -0.44207512190E+02  0.37094996491E+02  0.97791777517E+01  0.10898896460E+03  0.91938126958E+02 0.  0.
         23    2    1    2    0    0  0.44207512190E+02 -0.37094996491E+02 -0.21685321348E+03  0.24195634697E+03  0.90483229074E+02 0.  0.
          5    1    4    4  502    0  0.70689254986E+02 -0.35658767968E+02 -0.17570865633E+03  0.19278003116E+03  0.47000000000E+01 0. -1.
         -5    1    4    4    0  502 -0.26481742796E+02 -0.14362285236E+01 -0.41144557146E+02  0.49176315809E+02  0.47000000000E+01 0.  1.
          5    1    3    3  503    0 -0.19753001829E+02 -0.30411594503E+02  0.44939990957E+01  0.36841989487E+02  0.47000000000E+01 0. -1.
         -5    1    3    3    0  503 -0.24454510360E+02  0.67506590994E+02  0.52851786560E+01  0.72146975114E+02  0.47000000000E+01 0.  1.
<mgrwt>
<rscale>  0 0.10824067E+03</rscale>
<asrwt>0</asrwt>
<pdfrwt beam="1">  1        1 0.42924566E-01 0.10854935E+03</pdfrwt>
<pdfrwt beam="2">  1       -1 0.11067021E-01 0.10854935E+03</pdfrwt>
<totfact> 0.47314017E+03</totfact>
</mgrwt>
</event>
<event>
 8    1  0.5224537E-004  0.1035261E+03  0.7546771E-02  0.1275309E+00
         -2   -1    0    0    0  501 -0.00000000000E+00  0.00000000000E+00  0.13968656786E+02  0.13968656786E+02  0.00000000000E+00 0.  1.
          2   -1    0    0  501    0  0.00000000000E+00 -0.00000000000E+00 -0.73523289514E+03  0.73523289514E+03  0.00000000000E+00 0. -1.
         23    2    1    2    0    0 -0.78462900308E+01 -0.30994068850E+02 -0.37447126644E+03  0.38851819221E+03  0.98465525530E+02 0.  0.
         23    2    1    2    0    0  0.78462900308E+01  0.30994068850E+02 -0.34679297192E+03  0.36068335972E+03  0.93834556729E+02 0.  0.
          5    1    3    3  502    0  0.44971627591E+02 -0.11275826895E+02 -0.18516154958E+03  0.19093580335E+03  0.47000000000E+01 0. -1.
         -5    1    4    4    0  503  0.17917176674E+01 -0.33549735011E+02 -0.13029736351E+03  0.13464133061E+03  0.47000000000E+01 0.  1.
          5    1    4    4  503    0  0.60545723635E+01  0.64543803860E+02 -0.21649560841E+03  0.22604202911E+03  0.47000000000E+01 0. -1.
         -5    1    3    3    0  502 -0.52817917621E+02 -0.19718241954E+02 -0.18930971686E+03  0.19758238885E+03  0.47000000000E+01 0.  1.
<mgrwt>
<rscale>  0 0.10240961E+03</rscale>
<asrwt>0</asrwt>
<pdfrwt beam="1">  1        2 0.11311279E+00 0.10352611E+03</pdfrwt>
<pdfrwt beam="2">  1       -2 0.21490235E-02 0.10352611E+03</pdfrwt>
<totfact> 0.25259688E+04</totfact>
</mgrwt>
</event>
<event>
 8    1  0.5224537E-004  0.1082378E+03  0.7546771E-02  0.1273554E+00
          1   -1    0    0  501    0  0.00000000000E+00  0.00000000000E+00  0.58543183660E+03  0.58543183660E+03  0.00000000000E+00 0. -1.
         -1   -1    0    0    0  501 -0.00000000000E+00 -0.00000000000E+00 -0.16866378538E+02  0.16866378538E+02  0.00000000000E+00 0.  1.
         23    2    1    2    0    0  0.11547673223E+02 -0.10459666172E+02  0.28404449214E+03  0.30396823895E+03  0.10711051956E+03 0.  0.
         23    2    1    2    0    0 -0.11547673223E+02  0.10459666172E+02  0.28452096592E+03  0.29832997619E+03  0.88350672160E+02 0.  0.
          5    1    4    4  502    0  0.21603194361E+02 -0.27167336543E+02  0.16416357803E+03  0.16785866833E+03  0.47000000000E+01 0. -1.
         -5    1    3    3    0  503  0.83187032677E+01  0.44801709700E+02  0.76964918284E+02  0.89566079866E+02  0.47000000000E+01 0.  1.
          5    1    3    3  503    0  0.32289699550E+01 -0.55261375872E+02  0.20707957386E+03  0.21440215908E+03  0.47000000000E+01 0. -1.
         -5    1    4    4    0  502 -0.33150867584E+02  0.37627002715E+02  0.12035738789E+03  0.13047130786E+03  0.47000000000E+01 0.  1.
<mgrwt>
<rscale>  0 0.10327594E+03</rscale>
<asrwt>0</asrwt>
<pdfrwt beam="1">  1        1 0.90066421E-01 0.10823778E+03</pdfrwt>
<pdfrwt beam="2">  1       -1 0.25948279E-02 0.10823778E+03</pdfrwt>
<totfact> 0.15815064E+04</totfact>
</mgrwt>
</event>
<event>
 8    1  0.5224537E-004  0.1120954E+03  0.7546771E-02  0.1257631E+00
         -1   -1    0    0    0  501 -0.00000000000E+00  0.00000000000E+00  0.21453572408E+02  0.21453572408E+02  0.00000000000E+00 0.  1.
          1   -1    0    0  501    0  0.00000000000E+00 -0.00000000000E+00 -0.57589765355E+03  0.57589765355E+03  0.00000000000E+00 0. -1.
         23    2    1    2    0    0  0.60787828698E+02  0.22139824007E+02 -0.26702265069E+03  0.28884441641E+03  0.89132872639E+02 0.  0.
         23    2    1    2    0    0 -0.60787828698E+02 -0.22139824007E+02 -0.28742143045E+03  0.30850680955E+03  0.91542563487E+02 0.  0.
          5    1    4    4  502    0  0.12707556026E+02  0.21966341967E+02 -0.78627250584E+02  0.82754677777E+02  0.47000000000E+01 0. -1.
         -5    1    3    3    0  503  0.26153048953E+02  0.97871795915E+01 -0.11364365971E+02  0.30512451030E+02  0.47000000000E+01 0.  1.
          5    1    3    3  503    0  0.34634779745E+02  0.12352644415E+02 -0.25565828472E+03  0.25833196538E+03  0.47000000000E+01 0. -1.
         -5    1    4    4    0  502 -0.73495384724E+02 -0.44106165974E+02 -0.20879417987E+03  0.22575213177E+03  0.47000000000E+01 0.  1.
<mgrwt>
<rscale>  0 0.11160236E+03</rscale>
<asrwt>0</asrwt>
<pdfrwt beam="1">  1        1 0.88599640E-01 0.11209537E+03</pdfrwt>
<pdfrwt beam="2">  1       -1 0.33005496E-02 0.11209537E+03</pdfrwt>
<totfact> 0.11446088E+04</totfact>
</mgrwt>
</event>
<event>
 8    1  0.5224537E-004  0.1213514E+03  0.7546771E-02  0.1241531E+00
         -1   -1    0    0    0  501 -0.00000000000E+00  0.00000000000E+00  0.60383226259E+02  0.60383226259E+02  0.00000000000E+00 0.  1.
          1   -1    0    0  501    0  0.00000000000E+00 -0.00000000000E+00 -0.24089575324E+03  0.24089575324E+03  0.00000000000E+00 0. -1.
         23    2    1    2    0    0 -0.67558621659E+02 -0.38016630245E+02 -0.85503409156E+02  0.14715924129E+03  0.91299385452E+02 0.  0.
         23    2    1    2    0    0  0.67558621659E+02  0.38016630245E+02 -0.95009117826E+02  0.15411973821E+03  0.93363428065E+02 0.  0.
          5    1    4    4  502    0  0.49085713185E+02 -0.25136171269E+02 -0.45252359362E+02  0.71491960197E+02  0.47000000000E+01 0. -1.
         -5    1    4    4    0  502  0.18472908474E+02  0.63152801514E+02 -0.49756758463E+02  0.82627778013E+02  0.47000000000E+01 0.  1.
          5    1    3    3  503    0 -0.52654566677E+02 -0.22889594250E+02  0.13515181398E+01  0.57622508780E+02  0.47000000000E+01 0. -1.
         -5    1    3    3    0  503 -0.14904054983E+02 -0.15127035995E+02 -0.86854927296E+02  0.89536732509E+02  0.47000000000E+01 0.  1.
<mgrwt>
<rscale>  0 0.12095426E+03</rscale>
<asrwt>0</asrwt>
<pdfrwt beam="1">  1        1 0.37060885E-01 0.12135140E+03</pdfrwt>
<pdfrwt beam="2">  1       -1 0.92897271E-02 0.12135140E+03</pdfrwt>
<totfact> 0.74516395E+03</totfact>
</mgrwt>
</event>
<event>
 8    1  0.5224537E-004  0.9328830E+02  0.7546771E-02  0.1295383E+00
         -1   -1    0    0    0  501 -0.00000000000E+00  0.00000000000E+00  0.22456226010E+02  0.22456226010E+02  0.00000000000E+00 0.  1.
          1   -1    0    0  501    0  0.00000000000E+00 -0.00000000000E+00 -0.38550702846E+03  0.38550702846E+03  0.00000000000E+00 0. -1.
         23    2    1    2    0    0 -0.30239405786E+01 -0.12369147227E+02 -0.18607590314E+03  0.20815126550E+03  0.92415191289E+02 0.  0.
         23    2    1    2    0    0  0.30239405786E+01  0.12369147227E+02 -0.17697489931E+03  0.19981198897E+03  0.91883491062E+02 0.  0.
          5    1    4    4  502    0  0.59791576572E+01  0.46630905196E+02 -0.52686815186E+02  0.70768510937E+02  0.47000000000E+01 0. -1.
         -5    1    4    4    0  502 -0.29552170786E+01 -0.34261757969E+02 -0.12428808413E+03  0.12904347803E+03  0.47000000000E+01 0.  1.
          5    1    3    3  503    0  0.28323984031E+02 -0.19629988006E+02 -0.16671623155E+03  0.17030553827E+03  0.47000000000E+01 0. -1.
         -5    1    3    3    0  503 -0.31347924610E+02  0.72608407788E+01 -0.19359671587E+02  0.37845727237E+02  0.47000000000E+01 0.  1.
<mgrwt>
<rscale>  0 0.93156350E+02</rscale>
<asrwt>0</asrwt>
<pdfrwt beam="1">  1        1 0.59308770E-01 0.93288304E+02</pdfrwt>
<pdfrwt beam="2">  1       -1 0.34548042E-02 0.93288304E+02</pdfrwt>
<totfact> 0.17620955E+04</totfact>
</mgrwt>
</event>
<event>
 8    1  0.5224537E-004  0.9583377E+02  0.7546771E-02  0.1291650E+00
         -2   -1    0    0    0  501 -0.00000000000E+00  0.00000000000E+00  0.37469645537E+02  0.37469645537E+02  0.00000000000E+00 0.  1.
          2   -1    0    0  501    0  0.00000000000E+00 -0.00000000000E+00 -0.24126551945E+03  0.24126551945E+03  0.00000000000E+00 0. -1.
         23    2    1    2    0    0  0.23646034646E+02 -0.37140348978E+01 -0.12268400440E+03  0.15318339538E+03  0.88548623238E+02 0.  0.
         23    2    1    2    0    0 -0.23646034646E+02  0.37140348978E+01 -0.81111869523E+02  0.12555176961E+03  0.92796457176E+02 0.  0.
          5    1    3    3  502    0 -0.32695413461E+02 -0.79240376016E+01 -0.57592355985E+02  0.66863666525E+02  0.47000000000E+01 0. -1.
         -5    1    4    4    0  503  0.25173530993E+02 -0.19722882432E+02 -0.58178273201E+02  0.66554490658E+02  0.47000000000E+01 0.  1.
          5    1    4    4  503    0 -0.48819565640E+02  0.23436917330E+02 -0.22933596322E+02  0.58997278949E+02  0.47000000000E+01 0. -1.
         -5    1    3    3    0  502  0.56341448107E+02  0.42100027038E+01 -0.65091648410E+02  0.86319728859E+02  0.47000000000E+01 0.  1.
<mgrwt>
<rscale>  0 0.94790076E+02</rscale>
<asrwt>0</asrwt>
<pdfrwt beam="1">  1        2 0.37117771E-01 0.95833770E+02</pdfrwt>
<pdfrwt beam="2">  1       -2 0.57645610E-02 0.95833770E+02</pdfrwt>
<totfact> 0.19658476E+04</totfact>
</mgrwt>
</event>
<event>
 8    1  0.5224537E-004  0.1022022E+03  0.7546771E-02  0.1276073E+00
          2   -1    0    0  501    0  0.00000000000E+00  0.00000000000E+00  0.30631541260E+03  0.30631541260E+03  0.00000000000E+00 0. -1.
         -2   -1    0    0    0  501 -0.00000000000E+00 -0.00000000000E+00 -0.41912939566E+02  0.41912939566E+02  0.00000000000E+00 0.  1.
         23    2    1    2    0    0 -0.17237264307E+02 -0.41331801235E+02  0.20808520433E+03  0.23153677977E+03  0.91128409688E+02 0.  0.
         23    2    1    2    0    0  0.17237264307E+02  0.41331801235E+02  0.56317268707E+02  0.11669157240E+03  0.91868641220E+02 0.  0.
          5    1    3    3  502    0  0.79660907983E+01  0.25987383968E+02  0.79484797265E+02  0.84135163424E+02  0.47000000000E+01 0. -1.
         -5    1    4    4    0  503  0.25926296089E+02 -0.22527872042E+02  0.33372743192E+02  0.48119723979E+02  0.47000000000E+01 0.  1.
          5    1    4    4  503    0 -0.86890317819E+01  0.63859673277E+02  0.22944525515E+02  0.68571848418E+02  0.47000000000E+01 0. -1.
         -5    1    3    3    0  502 -0.25203355105E+02 -0.67319185203E+02  0.12860040706E+03  0.14740161635E+03  0.47000000000E+01 0.  1.
<mgrwt>
<rscale>  0 0.10203557E+03</rscale>
<asrwt>0</asrwt>
<pdfrwt beam="1">  1        2 0.47125447E-01 0.10220219E+03</pdfrwt>
<pdfrwt beam="2">  1       -2 0.64481447E-02 0.10220219E+03</pdfrwt>
<totfact> 0.13003961E+04</totfact>
</mgrwt>
</event>
<event>
 7    1  0.5224537E-004  0.1465508E+03  0.7546771E-02  0.1219521E+00
          2   -1    0    0  501    0  0.00000000000E+00  0.00000000000E+00  0.79007283204E+03  0.79007283204E+03  0.00000000000E+00 0. -1.
         -2   -1    0    0    0  501 -0.00000000000E+00 -0.00000000000E+00 -0.33852268195E+02  0.33852268195E+02  0.00000000000E+00 0.  1.
         23    2    1    2    0    0  0.47195410339E+02  0.36489672746E+02  0.84524195177E+02  0.13642735821E+03  0.88933579283E+02 0.  0.
          5    1    1    2  502    0  0.38058840765E+02  0.10111941123E+02  0.99859097750E+02  0.10744606143E+03  0.47000000000E+01 0. -1.
         -5    1    1    2    0  502 -0.85254251104E+02 -0.46601613870E+02  0.57183727092E+03  0.58005168059E+03  0.47000000000E+01 0.  1.
          5    1    3    3  503    0  0.62281685403E+02  0.51671919697E+02  0.80317803664E+02  0.11411413237E+03  0.47000000000E+01 0. -1.
         -5    1    3    3    0  503 -0.15086275064E+02 -0.15182246951E+02  0.42063915130E+01  0.22313225839E+02  0.47000000000E+01 0.  1.
<mgrwt>
<rscale>  0 0.13549631E+03</rscale>
<asrwt>0</asrwt>
<pdfrwt beam="1">  1        2 0.12154965E+00 0.14655079E+03</pdfrwt>
<pdfrwt beam="2">  1       -2 0.52080419E-02 0.14655079E+03</pdfrwt>
<totfact> 0.64382631E+03</totfact>
</mgrwt>
</event>
<event>
 8    1  0.5224537E-004  0.1138103E+03  0.7546771E-02  0.1253936E+00
          1   -1    0    0  501    0  0.00000000000E+00  0.00000000000E+00  0.17467038859E+03  0.17467038859E+03  0.00000000000E+00 0. -1.
         -1   -1    0    0    0  501 -0.00000000000E+00 -0.00000000000E+00 -0.74831180867E+02  0.74831180867E+02  0.00000000000E+00 0.  1.
         23    2    1    2    0    0  0.25853812949E+01 -0.66884664994E+02  0.34925587364E+02  0.11848037043E+03  0.91310234461E+02 0.  0.
         23    2    1    2    0    0 -0.25853812949E+01  0.66884664994E+02  0.64913620356E+02  0.13102119902E+03  0.92046368085E+02 0.  0.
          5    1    3    3  502    0  0.45353375913E+02 -0.29189422922E+02  0.62676437409E+01  0.54500683256E+02  0.47000000000E+01 0. -1.
         -5    1    4    4    0  503 -0.33295878546E+02  0.24307782814E+01  0.45965565159E+02  0.57003924353E+02  0.47000000000E+01 0.  1.
          5    1    4    4  503    0  0.30710497251E+02  0.64453886712E+02  0.18948055197E+02  0.74017274669E+02  0.47000000000E+01 0. -1.
         -5    1    3    3    0  502 -0.42767994618E+02 -0.37695242071E+02  0.28657943623E+02  0.63979687176E+02  0.47000000000E+01 0.  1.
<mgrwt>
<rscale>  0 0.11366134E+03</rscale>
<asrwt>0</asrwt>
<pdfrwt beam="1">  1        1 0.26872367E-01 0.11381027E+03</pdfrwt>
<pdfrwt beam="2">  1       -1 0.11512489E-01 0.11381027E+03</pdfrwt>
<totfact> 0.79597316E+03</totfact>
</mgrwt>
</event>
<event>
 7    1  0.6794176E-004  0.2038852E+03  0.7546771E-02  0.1171716E+00
          2   -1    0    0  501    0  0.00000000000E+00  0.00000000000E+00  0.10199597730E+04  0.10199597730E+04  0.00000000000E+00 0. -1.
         -2   -1    0    0    0  501 -0.00000000000E+00 -0.00000000000E+00 -0.25024677346E+02  0.25024677346E+02  0.00000000000E+00 0.  1.
         23    2    1    2    0    0  0.50046452433E+02  0.43364219086E+02  0.29626985017E+03  0.31717794848E+03  0.91874501282E+02 0.  0.
          5    1    3    3  502    0  0.70121755904E+02  0.84125314184E+01  0.21479541419E+03  0.22615700584E+03  0.47000000000E+01 0. -1.
         -5    1    1    2    0  503 -0.98883333268E+02 -0.53896379966E+02  0.22664079515E+03  0.25312224990E+03  0.47000000000E+01 0.  1.
          5    1    1    2  503    0  0.48836880835E+02  0.10532160880E+02  0.47202445036E+03  0.47468425198E+03  0.47000000000E+01 0. -1.
         -5    1    3    3    0  502 -0.20075303472E+02  0.34951687668E+02  0.81474435982E+02  0.91020942639E+02  0.47000000000E+01 0.  1.
<mgrwt>
<rscale>  0 0.17601546E+03</rscale>
<asrwt>0</asrwt>
<pdfrwt beam="1">  1        2 0.15691686E+00 0.20388521E+03</pdfrwt>
<pdfrwt beam="2">  1       -2 0.38499512E-02 0.20388521E+03</pdfrwt>
<totfact> 0.73374609E+03</totfact>
</mgrwt>
</event>
<event>
 8    1  0.5224537E-004  0.9533056E+02  0.7546771E-02  0.1292795E+00
         -1   -1    0    0    0  501 -0.00000000000E+00  0.00000000000E+00  0.40707985263E+02  0.40707985263E+02  0.00000000000E+00 0.  1.
          1   -1    0    0  501    0  0.00000000000E+00 -0.00000000000E+00 -0.21749430255E+03  0.21749430255E+03  0.00000000000E+00 0. -1.
         23    2    1    2    0    0 -0.10333979463E+02 -0.16355425410E+02 -0.73294109746E+02  0.12024950214E+03  0.93346800527E+02 0.  0.
         23    2    1    2    0    0  0.10333979463E+02  0.16355425410E+02 -0.10349220754E+03  0.13795278568E+03  0.89140579888E+02 0.  0.
          5    1    3    3  502    0 -0.23412740702E+02  0.18334505926E+02 -0.77018900697E+02  0.82694084427E+02  0.47000000000E+01 0. -1.
         -5    1    3    3    0  502  0.13078761238E+02 -0.34689931336E+02  0.37247909508E+01  0.37555417709E+02  0.47000000000E+01 0.  1.
          5    1    4    4  503    0  0.34672190520E+01  0.51123247370E+02 -0.80189783311E+02  0.95279060539E+02  0.47000000000E+01 0. -1.
         -5    1    4    4    0  503  0.68667604113E+01 -0.34767821960E+02 -0.23302424233E+02  0.42673725142E+02  0.47000000000E+01 0.  1.
<mgrwt>
<rscale>  0 0.94284806E+02</rscale>
<asrwt>0</asrwt>
<pdfrwt beam="1">  1        1 0.33460661E-01 0.95330563E+02</pdfrwt>
<pdfrwt beam="2">  1       -1 0.62627671E-02 0.95330563E+02</pdfrwt>
<totfact> 0.14929749E+04</totfact>
</mgrwt>
</event>
<event>
 8    1  0.5224537E-004  0.1202872E+03  0.7546771E-02  0.1247275E+00
          2   -1    0    0  501    0  0.00000000000E+00  0.00000000000E+00  0.85273971472E+03  0.85273971472E+03  0.00000000000E+00 0. -1.
         -2   -1    0    0    0  501 -0.00000000000E+00 -0.00000000000E+00 -0.25139708703E+02  0.25139708703E+02  0.00000000000E+00 0.  1.
         23    2    1    2    0    0  0.59894291468E+02 -0.95533232307E+01  0.15388612802E+03  0.19532012279E+03  0.10387693600E+03 0.  0.
         23    2    1    2    0    0 -0.59894291468E+02  0.95533232307E+01  0.67371387799E+03  0.68255930063E+03  0.91204261638E+02 0.  0.
          5    1    4    4  502    0 -0.16157749852E+02 -0.39313876818E+02  0.22146081733E+03  0.22555185080E+03  0.47000000000E+01 0. -1.
         -5    1    3    3    0  503  0.83511858234E+02  0.21236914476E+01  0.76258056686E+02  0.11320831127E+03  0.47000000000E+01 0.  1.
          5    1    3    3  503    0 -0.23617566766E+02 -0.11677014678E+02  0.77628071334E+02  0.82111811518E+02  0.47000000000E+01 0. -1.
         -5    1    4    4    0  502 -0.43736541616E+02  0.48867200049E+02  0.45225306067E+03  0.45700744983E+03  0.47000000000E+01 0.  1.
<mgrwt>
<rscale>  0 0.11750268E+03</rscale>
<asrwt>0</asrwt>
<pdfrwt beam="1">  1        2 0.13119070E+00 0.12028720E+03</pdfrwt>
<pdfrwt beam="2">  1       -2 0.38676481E-02 0.12028720E+03</pdfrwt>
<totfact> 0.90261470E+03</totfact>
</mgrwt>
</event>
<event>
 8    1  0.5224537E-004  0.1153055E+03  0.7546771E-02  0.1251234E+00
         -1   -1    0    0    0  501 -0.00000000000E+00  0.00000000000E+00  0.36396705767E+03  0.36396705767E+03  0.00000000000E+00 0.  1.
          1   -1    0    0  501    0  0.00000000000E+00 -0.00000000000E+00 -0.36493405121E+02  0.36493405121E+02  0.00000000000E+00 0. -1.
         23    2    1    2    0    0  0.67395449622E+02 -0.21630205043E+02  0.17384994813E+03  0.20837818469E+03  0.90485639695E+02 0.  0.
         23    2    1    2    0    0 -0.67395449622E+02  0.21630205043E+02  0.15362370442E+03  0.19208227810E+03  0.91023879286E+02 0.  0.
          5    1    3    3  502    0  0.42821261446E+02  0.10681133933E+02  0.19090963842E+02  0.48314614293E+02  0.47000000000E+01 0. -1.
         -5    1    3    3    0  502  0.24574188176E+02 -0.32311338976E+02  0.15475898429E+03  0.16006357040E+03  0.47000000000E+01 0.  1.
          5    1    4    4  503    0 -0.73433392283E+02 -0.13288819256E+02  0.12749260545E+03  0.14780226745E+03  0.47000000000E+01 0. -1.
         -5    1    4    4    0  503  0.60379426606E+01  0.34919024300E+02  0.26131098969E+02  0.44280010648E+02  0.47000000000E+01 0.  1.
<mgrwt>
<rscale>  0 0.11519925E+03</rscale>
<asrwt>0</asrwt>
<pdfrwt beam="1">  1        1 0.56143703E-02 0.11530550E+03</pdfrwt>
<pdfrwt beam="2">  1       -1 0.55994929E-01 0.11530550E+03</pdfrwt>
<totfact> 0.44467983E+03</totfact>
</mgrwt>
</event>
<event>
 8    1  0.5224537E-004  0.1305464E+03  0.7546771E-02  0.1227352E+00
          1   -1    0    0  501    0  0.00000000000E+00  0.00000000000E+00  0.73490632945E+02  0.73490632945E+02  0.00000000000E+00 0. -1.
         -1   -1    0    0    0  501 -0.00000000000E+00 -0.00000000000E+00 -0.27321439234E+03  0.27321439234E+03  0.00000000000E+00 0.  1.
         23    2    1    2    0    0  0.28031478665E+02 -0.87585591722E+02 -0.17056710386E+03  0.21479177427E+03  0.92657270095E+02 0.  0.
         23    2    1    2    0    0 -0.28031478665E+02  0.87585591722E+02 -0.29156655535E+02  0.13191325102E+03  0.89966635805E+02 0.  0.
          5    1    3    3  502    0  0.12033568609E+02 -0.10260735910E+03 -0.11391580508E+03  0.15385700361E+03  0.47000000000E+01 0. -1.
         -5    1    3    3    0  502  0.15997910056E+02  0.15021767375E+02 -0.56651298783E+02  0.60934770657E+02  0.47000000000E+01 0.  1.
          5    1    4    4  503    0  0.24825478645E+02  0.17243998993E+02  0.14183488784E+02  0.33718262786E+02  0.47000000000E+01 0. -1.
         -5    1    4    4    0  503 -0.52856957310E+02  0.70341592728E+02 -0.43340144320E+02  0.98194988229E+02  0.47000000000E+01 0.  1.
<mgrwt>
<rscale>  0 0.13006988E+03</rscale>
<asrwt>0</asrwt>
<pdfrwt beam="1">  1        1 0.11306251E-01 0.13054643E+03</pdfrwt>
<pdfrwt beam="2">  1       -1 0.42032984E-01 0.13054643E+03</pdfrwt>
<totfact> 0.29555172E+03</totfact>
</mgrwt>
</event>
<event>
 8    1  0.5224537E-004  0.1041853E+03  0.7546771E-02  0.1271911E+00
         -1   -1    0    0    0  501 -0.00000000000E+00  0.00000000000E+00  0.26898668503E+02  0.26898668503E+02  0.00000000000E+00 0.  1.
          1   -1    0    0  501    0  0.00000000000E+00 -0.00000000000E+00 -0.46407694902E+03  0.46407694902E+03  0.00000000000E+00 0. -1.
         23    2    1    2    0    0 -0.42715829595E+02  0.20032824496E+02 -0.12859195553E+03  0.16527621001E+03  0.92489882759E+02 0.  0.
         23    2    1    2    0    0  0.42715829595E+02 -0.20032824496E+02 -0.30858632498E+03  0.32569940751E+03  0.92890408173E+02 0.  0.
          5    1    3    3  502    0 -0.64737212852E+02  0.33671753461E+02 -0.70849708599E+02  0.10181583825E+03  0.47000000000E+01 0. -1.
         -5    1    4    4    0  503  0.21023352606E+02 -0.54004940511E+02 -0.12764695129E+03  0.14026528127E+03  0.47000000000E+01 0.  1.
          5    1    4    4  503    0  0.21692476989E+02  0.33972116015E+02 -0.18093937369E+03  0.18543412624E+03  0.47000000000E+01 0. -1.
         -5    1    3    3    0  502  0.22021383257E+02 -0.13638928965E+02 -0.57742246930E+02  0.63460371764E+02  0.47000000000E+01 0.  1.
<mgrwt>
<rscale>  0 0.10409598E+03</rscale>
<asrwt>0</asrwt>
<pdfrwt beam="1">  1        1 0.71396445E-01 0.10418534E+03</pdfrwt>
<pdfrwt beam="2">  1       -1 0.41382572E-02 0.10418534E+03</pdfrwt>
<totfact> 0.10846758E+04</totfact>
</mgrwt>
</event>
<event>
 8    1  0.5224537E-004  0.1164976E+03  0.7546771E-02  0.1249958E+00
         -1   -1    0    0    0  501 -0.00000000000E+00  0.00000000000E+00  0.65783065552E+02  0.65783065552E+02  0.00000000000E+00 0.  1.
          1   -1    0    0  501    0  0.00000000000E+00 -0.00000000000E+00 -0.20840516876E+03  0.20840516876E+03  0.00000000000E+00 0. -1.
         23    2    1    2    0    0 -0.70770177563E+02 -0.16765391319E+02 -0.48656366225E+02  0.12625024476E+03  0.91006515968E+02 0.  0.
         23    2    1    2    0    0  0.70770177563E+02  0.16765391319E+02 -0.93965736983E+02  0.14793798955E+03  0.88128273830E+02 0.  0.
          5    1    4    4  502    0  0.30770722791E+02  0.38977335988E+02 -0.88541508653E+02  0.10162558170E+03  0.47000000000E+01 0. -1.
         -5    1    3    3    0  503 -0.80473323374E+02 -0.40415835792E+02 -0.33726181039E+02  0.96275338717E+02  0.47000000000E+01 0.  1.
          5    1    3    3  503    0  0.97031458109E+01  0.23650444473E+02 -0.14930185186E+02  0.29974906040E+02  0.47000000000E+01 0. -1.
         -5    1    4    4    0  502  0.39999454772E+02 -0.22211944670E+02 -0.54242283299E+01  0.46312407852E+02  0.47000000000E+01 0.  1.
<mgrwt>
<rscale>  0 0.11593492E+03</rscale>
<asrwt>0</asrwt>
<pdfrwt beam="1">  1        1 0.32062334E-01 0.11649756E+03</pdfrwt>
<pdfrwt beam="2">  1       -1 0.10120472E-01 0.11649756E+03</pdfrwt>
<totfact> 0.77999934E+03</totfact>
</mgrwt>
</event>
<event>
 8    1  0.5224537E-004  0.1481335E+03  0.7546771E-02  0.1202840E+00
          1   -1    0    0  501    0  0.00000000000E+00  0.00000000000E+00  0.25399396420E+03  0.25399396420E+03  0.00000000000E+00 0. -1.
         -1   -1    0    0    0  501 -0.00000000000E+00 -0.00000000000E+00 -0.19374458622E+03  0.19374458622E+03  0.00000000000E+00 0.  1.
         23    2    1    2    0    0  0.48476640671E+02  0.10519459244E+03 -0.13658746944E+03  0.20149361861E+03  0.92345300708E+02 0.  0.
         23    2    1    2    0    0 -0.48476640671E+02 -0.10519459244E+03  0.19683684742E+03  0.24624493181E+03  0.92064841121E+02 0.  0.
          5    1    4    4  502    0  0.12206410922E+02 -0.57835919219E+02  0.13481742980E+03  0.14728142924E+03  0.47000000000E+01 0. -1.
         -5    1    3    3    0  503  0.26546232253E+02  0.93741692839E+02 -0.14516297748E+03  0.17489021543E+03  0.47000000000E+01 0.  1.
          5    1    3    3  503    0  0.21930408418E+02  0.11452899600E+02  0.85755080364E+01  0.26603403180E+02  0.47000000000E+01 0. -1.
         -5    1    4    4    0  502 -0.60683051593E+02 -0.47358673220E+02  0.62019417616E+02  0.98963502571E+02  0.47000000000E+01 0.  1.
<mgrwt>
<rscale>  0 0.14808984E+03</rscale>
<asrwt>0</asrwt>
<pdfrwt beam="1">  1        1 0.39075995E-01 0.14813353E+03</pdfrwt>
<pdfrwt beam="2">  1       -1 0.29806859E-01 0.14813353E+03</pdfrwt>
<totfact> 0.11089547E+03</totfact>
</mgrwt>
</event>
<event>
 8    1  0.5224537E-004  0.1164005E+03  0.7546771E-02  0.1249231E+00
          1   -1    0    0  501    0  0.00000000000E+00  0.00000000000E+00  0.15426065496E+02  0.15426065496E+02  0.00000000000E+00 0. -1.
         -1   -1    0    0    0  501 -0.00000000000E+00 -0.00000000000E+00 -0.88018852307E+03  0.88018852307E+03  0.00000000000E+00 0.  1.
         23    2    1    2    0    0  0.70237068627E+02  0.16765254155E+02 -0.45895175179E+03  0.47343998026E+03  0.91073513570E+02 0.  0.
         23    2    1    2    0    0 -0.70237068627E+02 -0.16765254155E+02 -0.40581070578E+03  0.42217460830E+03  0.91294859762E+02 0.  0.
          5    1    3    3  502    0  0.39763413102E+02 -0.23859402350E+02 -0.35060648514E+03  0.35369110467E+03  0.47000000000E+01 0. -1.
         -5    1    3    3    0  502  0.30473655525E+02  0.40624656506E+02 -0.10834526665E+03  0.11974887558E+03  0.47000000000E+01 0.  1.
          5    1    4    4  503    0 -0.18569023004E+02  0.25683177215E+02 -0.25666571117E+03  0.25865771107E+03  0.47000000000E+01 0.  1.
         -5    1    4    4    0  503 -0.51668045623E+02 -0.42448431370E+02 -0.14914499461E+03  0.16351689723E+03  0.47000000000E+01 0. -1.
<mgrwt>
<rscale>  0 0.11635707E+03</rscale>
<asrwt>0</asrwt>
<pdfrwt beam="1">  1        1 0.23732401E-02 0.11640048E+03</pdfrwt>
<pdfrwt beam="2">  1       -1 0.13541366E+00 0.11640048E+03</pdfrwt>
<totfact> 0.22401842E+03</totfact>
</mgrwt>
</event>
<event>
 8    1  0.5224537E-004  0.9916001E+02  0.7546771E-02  0.1283688E+00
          4   -1    0    0  501    0  0.00000000000E+00  0.00000000000E+00  0.17263248911E+03  0.17263248911E+03  0.00000000000E+00 0. -1.
         -4   -1    0    0    0  501 -0.00000000000E+00 -0.00000000000E+00 -0.82598218313E+02  0.82598218313E+02  0.00000000000E+00 0.  1.
         23    2    1    2    0    0 -0.27050612375E+02  0.11716877022E+02  0.11797783980E+03  0.15220862009E+03  0.91540551161E+02 0.  0.
         23    2    1    2    0    0  0.27050612375E+02 -0.11716877022E+02 -0.27943569004E+02  0.10302208734E+03  0.94676747907E+02 0.  0.
          5    1    4    4  502    0  0.53681249222E+02  0.76642456372E+01  0.68775783001E+01  0.54861719463E+02  0.47000000000E+01 0. -1.
         -5    1    3    3    0  503 -0.29239675534E+02  0.48371278809E+02  0.54113272070E+02  0.78390531655E+02  0.47000000000E+01 0.  1.
          5    1    3    3  503    0  0.21890631592E+01 -0.36654401788E+02  0.63864567734E+02  0.73818088432E+02  0.47000000000E+01 0. -1.
         -5    1    4    4    0  502 -0.26630636847E+02 -0.19381122659E+02 -0.34821147304E+02  0.48160367877E+02  0.47000000000E+01 0.  1.
<mgrwt>
<rscale>  0 0.98403935E+02</rscale>
<asrwt>0</asrwt>
<pdfrwt beam="1">  1        4 0.26558844E-01 0.99160009E+02</pdfrwt>
<pdfrwt beam="2">  1       -4 0.12707418E-01 0.99160009E+02</pdfrwt>
<totfact> 0.10354862E+03</totfact>
</mgrwt>
</event>
<event>
 8    1  0.5224537E-004  0.1023504E+03  0.7546771E-02  0.1275450E+00
         -1   -1    0    0    0  501 -0.00000000000E+00  0.00000000000E+00  0.71191353081E+03  0.71191353081E+03  0.00000000000E+00 0.  1.
          1   -1    0    0  501    0  0.00000000000E+00 -0.00000000000E+00 -0.14729292330E+02  0.14729292330E+02  0.00000000000E+00 0. -1.
         23    2    1    2    0    0  0.10150795097E+02 -0.47081931205E+02  0.33512779143E+03  0.35040868374E+03  0.90309812116E+02 0.  0.
         23    2    1    2    0    0 -0.10150795097E+02  0.47081931205E+02  0.36205644705E+03  0.37623413940E+03  0.90263558052E+02 0.  0.
          5    1    3    3  502    0  0.42083287371E+02 -0.36164042517E+01  0.92231964870E+02  0.10155248298E+03  0.47000000000E+01 0. -1.
         -5    1    4    4    0  503  0.21386795052E+02 -0.16558699613E+02  0.15160405775E+03  0.15406967859E+03  0.47000000000E+01 0.  1.
          5    1    4    4  503    0 -0.31537590149E+02  0.63640630819E+02  0.21045238930E+03  0.22216446081E+03  0.47000000000E+01 0. -1.
         -5    1    3    3    0  502 -0.31932492274E+02 -0.43465526954E+02  0.24289582656E+03  0.24885620076E+03  0.47000000000E+01 0.  1.
<mgrwt>
<rscale>  0 0.10234022E+03</rscale>
<asrwt>0</asrwt>
<pdfrwt beam="1">  1        1 0.22660455E-02 0.10235042E+03</pdfrwt>
<pdfrwt beam="2">  1       -1 0.10952513E+00 0.10235042E+03</pdfrwt>
<totfact> 0.39007975E+03</totfact>
</mgrwt>
</event>
<event>
 8    1  0.5224537E-004  0.2448959E+03  0.7546771E-02  0.1118160E+00
         -1   -1    0    0    0  501 -0.00000000000E+00  0.00000000000E+00  0.45680403688E+02  0.45680403688E+02  0.00000000000E+00 0.  1.
          1   -1    0    0  501    0  0.00000000000E+00 -0.00000000000E+00 -0.15911998366E+04  0.15911998366E+04  0.00000000000E+00 0. -1.
         23    2    1    2    0    0 -0.15968283773E+03  0.15032163011E+03 -0.11571269692E+04  0.11827581423E+04  0.10898990451E+03 0.  0.
         23    2    1    2    0    0  0.15968283773E+03 -0.15032163011E+03 -0.38839246374E+03  0.45412209797E+03  0.85340335327E+02 0.  0.
          5    1    4    4  502    0 -0.27364391529E+00 -0.36411282744E+02 -0.86286350531E+02  0.93772494261E+02  0.47000000000E+01 0. -1.
         -5    1    3    3    0  503 -0.10232443431E+02  0.65798780692E+02 -0.21579697199E+03  0.22588626687E+03  0.47000000000E+01 0.  1.
          5    1    3    3  503    0 -0.14945039430E+03  0.84522849414E+02 -0.94132999716E+03  0.95687187543E+03  0.47000000000E+01 0. -1.
         -5    1    4    4    0  502  0.15995648165E+03 -0.11391034736E+03 -0.30210611320E+03  0.36034960371E+03  0.47000000000E+01 0.  1.
<mgrwt>
<rscale>  0 0.24246746E+03</rscale>
<asrwt>0</asrwt>
<pdfrwt beam="1">  1        1 0.24479993E+00 0.24489590E+03</pdfrwt>
<pdfrwt beam="2">  1       -1 0.70277556E-02 0.24489590E+03</pdfrwt>
<totfact> 0.65674261E+02</totfact>
</mgrwt>
</event>
<event>
 8    1  0.5224537E-004  0.1157265E+03  0.7546771E-02  0.1250960E+00
         -4   -1    0    0    0  501 -0.00000000000E+00  0.00000000000E+00  0.33562298944E+02  0.33562298944E+02  0.00000000000E+00 0.  1.
          4   -1    0    0  501    0  0.00000000000E+00 -0.00000000000E+00 -0.39453764622E+03  0.39453764622E+03  0.00000000000E+00 0. -1.
         23    2    1    2    0    0  0.68391673203E+02 -0.22143625923E+02 -0.18739625524E+03  0.21947990686E+03  0.88804909244E+02 0.  0.
         23    2    1    2    0    0 -0.68391673203E+02  0.22143625923E+02 -0.17357909203E+03  0.20862003830E+03  0.90691003173E+02 0.  0.
          5    1    3    3  502    0  0.61708938215E+02  0.17343728400E+02 -0.68498760386E+02  0.93930656044E+02  0.47000000000E+01 0. -1.
         -5    1    4    4    0  503 -0.56098562471E+02 -0.14345591993E+01 -0.32580496230E+02  0.65059091648E+02  0.47000000000E+01 0.  1.
          5    1    4    4  503    0 -0.12293110732E+02  0.23578185122E+02 -0.14099859580E+03  0.14356094665E+03  0.47000000000E+01 0. -1.
         -5    1    3    3    0  502  0.66827349875E+01 -0.39487354323E+02 -0.11889749486E+03  0.12554925082E+03  0.47000000000E+01 0.  1.
<mgrwt>
<rscale>  0 0.11535670E+03</rscale>
<asrwt>0</asrwt>
<pdfrwt beam="1">  1        4 0.60698106E-01 0.11572648E+03</pdfrwt>
<pdfrwt beam="2">  1       -4 0.51634300E-02 0.11572648E+03</pdfrwt>
<totfact> 0.93754102E+02</totfact>
</mgrwt>
</event>
<event>
 8    1  0.5224537E-004  0.1013243E+03  0.7546771E-02  0.1279283E+00
          1   -1    0    0  501    0  0.00000000000E+00  0.00000000000E+00  0.43377859734E+03  0.43377859734E+03  0.00000000000E+00 0. -1.
         -1   -1    0    0    0  501 -0.00000000000E+00 -0.00000000000E+00 -0.23173086823E+02  0.23173086823E+02  0.00000000000E+00 0.  1.
         23    2    1    2    0    0 -0.48156091082E+01  0.43040804573E+02  0.22681030070E+03  0.24707722924E+03  0.87912136561E+02 0.  0.
         23    2    1    2    0    0  0.48156091082E+01 -0.43040804573E+02  0.18379520982E+03  0.20987445493E+03  0.91601892608E+02 0.  0.
          5    1    3    3  502    0 -0.42862989260E+02  0.87197224766E+01  0.77059609380E+02  0.88732986010E+02  0.47000000000E+01 0. -1.
         -5    1    4    4    0  503  0.40261148289E+02 -0.24712114851E+02  0.45116320999E+02  0.65492145349E+02  0.47000000000E+01 0.  1.
          5    1    4    4  503    0 -0.35445539181E+02 -0.18328689721E+02  0.13867888882E+03  0.14438230958E+03  0.47000000000E+01 0. -1.
         -5    1    3    3    0  502  0.38047380152E+02  0.34321082096E+02  0.14975069132E+03  0.15834424323E+03  0.47000000000E+01 0.  1.
<mgrwt>
<rscale>  0 0.10048310E+03</rscale>
<asrwt>0</asrwt>
<pdfrwt beam="1">  1        1 0.66735163E-01 0.10132427E+03</pdfrwt>
<pdfrwt beam="2">  1       -1 0.35650906E-02 0.10132427E+03</pdfrwt>
<totfact> 0.14643573E+04</totfact>
</mgrwt>
</event>
<event>
 8    1  0.5224537E-004  0.2267182E+03  0.7546771E-02  0.1129228E+00
          3   -1    0    0  501    0  0.00000000000E+00  0.00000000000E+00  0.13784941995E+03  0.13784941995E+03  0.00000000000E+00 0. -1.
         -3   -1    0    0    0  501 -0.00000000000E+00 -0.00000000000E+00 -0.37884011648E+03  0.37884011648E+03  0.00000000000E+00 0.  1.
         23    2    1    2    0    0 -0.52856950167E+02  0.19831893466E+03 -0.81870296208E+02  0.23970499445E+03  0.92905769107E+02 0.  0.
         23    2    1    2    0    0  0.52856950167E+02 -0.19831893466E+03 -0.15912040032E+03  0.27698454198E+03  0.96316549316E+02 0.  0.
          5    1    4    4  502    0  0.47926839628E+02 -0.14854980124E+03 -0.62727661295E+02  0.16828807116E+03  0.47000000000E+01 0. -1.
         -5    1    4    4    0  502  0.49301105391E+01 -0.49769133429E+02 -0.96392739025E+02  0.10869647082E+03  0.47000000000E+01 0.  1.
          5    1    3    3  503    0  0.18071904407E+01  0.27281047628E+02  0.19069220172E+02  0.33663729070E+02  0.47000000000E+01 0. -1.
         -5    1    3    3    0  503 -0.54664140608E+02  0.17103788704E+03 -0.10093951638E+03  0.20604126538E+03  0.47000000000E+01 0.  1.
<mgrwt>
<rscale>  0 0.22636038E+03</rscale>
<asrwt>0</asrwt>
<pdfrwt beam="1">  1        3 0.21207603E-01 0.22671818E+03</pdfrwt>
<pdfrwt beam="2">  1       -3 0.58283094E-01 0.22671818E+03</pdfrwt>
<totfact> 0.14602472E+02</totfact>
</mgrwt>
</event>
<event>
 8    1  0.5224537E-004  0.9406770E+02  0.7546771E-02  0.1293732E+00
          1   -1    0    0  501    0  0.00000000000E+00  0.00000000000E+00  0.98505032613E+02  0.98505032613E+02  0.00000000000E+00 0. -1.
         -1   -1    0    0    0  501 -0.00000000000E+00 -0.00000000000E+00 -0.92209498172E+02  0.92209498172E+02  0.00000000000E+00 0.  1.
         23    2    1    2    0    0  0.66262830092E+01 -0.18798145000E+02  0.20683632275E+02  0.96314818330E+02  0.91931788321E+02 0.  0.
         23    2    1    2    0    0 -0.66262830092E+01  0.18798145000E+02 -0.14388097834E+02  0.94399712455E+02  0.91142802625E+02 0.  0.
          5    1    4    4  502    0 -0.22975824509E+01  0.54139604994E+02 -0.20193033632E+02  0.58019172015E+02  0.47000000000E+01 0. -1.
         -5    1    4    4    0  502 -0.43287005584E+01 -0.35341459994E+02  0.58049357987E+01  0.36380540439E+02  0.47000000000E+01 0.  1.
          5    1    3    3  503    0 -0.49127074069E+01  0.31939071193E+02  0.28680760250E+02  0.43461649431E+02  0.47000000000E+01 0. -1.
         -5    1    3    3    0  503  0.11538990416E+02 -0.50737216193E+02 -0.79971279751E+01  0.52853168899E+02  0.47000000000E+01 0.  1.
<mgrwt>
<rscale>  0 0.93874371E+02</rscale>
<asrwt>0</asrwt>
<pdfrwt beam="1">  1        1 0.15154620E-01 0.94067697E+02</pdfrwt>
<pdfrwt beam="2">  1       -1 0.14186077E-01 0.94067697E+02</pdfrwt>
<totfact> 0.11688011E+04</totfact>
</mgrwt>
</event>
<event>
 8    1  0.5224537E-004  0.9740109E+02  0.7546771E-02  0.1286740E+00
         -2   -1    0    0    0  501 -0.00000000000E+00  0.00000000000E+00  0.13879498670E+02  0.13879498670E+02  0.00000000000E+00 0.  1.
          2   -1    0    0  501    0  0.00000000000E+00 -0.00000000000E+00 -0.90827728666E+03  0.90827728666E+03  0.00000000000E+00 0. -1.
         23    2    1    2    0    0 -0.19968812740E+02 -0.25918181811E+02 -0.20944145851E+03  0.23030987683E+03  0.90035599583E+02 0.  0.
         23    2    1    2    0    0  0.19968812740E+02  0.25918181811E+02 -0.68495632948E+03  0.69184690850E+03  0.91741298630E+02 0.  0.
          5    1    3    3  502    0  0.31872855927E+02  0.67470626233E+01 -0.55096934492E+02  0.64180713531E+02  0.47000000000E+01 0. -1.
         -5    1    3    3    0  502 -0.51841668667E+02 -0.32665244434E+02 -0.15434452402E+03  0.16612916330E+03  0.47000000000E+01 0.  1.
          5    1    4    4  503    0  0.46319548608E+02 -0.13405136903E+02 -0.28743151418E+03  0.29148612938E+03  0.47000000000E+01 0. -1.
         -5    1    4    4    0  503 -0.26350735868E+02  0.39323318714E+02 -0.39752481530E+03  0.40036077912E+03  0.47000000000E+01 0.  1.
<mgrwt>
<rscale>  0 0.96997365E+02</rscale>
<asrwt>0</asrwt>
<pdfrwt beam="1">  1        2 0.13973493E+00 0.97401086E+02</pdfrwt>
<pdfrwt beam="2">  1       -2 0.21353080E-02 0.97401086E+02</pdfrwt>
<totfact> 0.19513510E+04</totfact>
</mgrwt>
</event>
<event>
 7    1  0.5224537E-004  0.3032867E+03  0.7546771E-02  0.1083609E+00
         -2   -1    0    0    0  501 -0.00000000000E+00  0.00000000000E+00  0.18632492028E+03  0.18632492028E+03  0.00000000000E+00 0.  1.
          2   -1    0    0  501    0  0.00000000000E+00 -0.00000000000E+00 -0.12341725241E+03  0.12341725241E+03  0.00000000000E+00 0. -1.
         23    2    1    2    0    0  0.20450411040E+02  0.20975508409E+01  0.60683856652E+02  0.11154810203E+03  0.91311716544E+02 0.  0.
          5    1    3    3  502    0 -0.12312284404E+02 -0.37904427296E+02  0.16563383097E+02  0.43413979494E+02  0.47000000000E+01 0. -1.
         -5    1    3    3    0  502  0.32762695444E+02  0.40001978137E+02  0.44120473555E+02  0.68134122541E+02  0.47000000000E+01 0.  1.
          5    1    1    2  503    0 -0.80516184703E+02 -0.40549928510E+01 -0.68052715115E+02  0.10560568640E+03  0.47000000000E+01 0. -1.
         -5    1    1    2    0  503  0.60065773663E+02  0.19574420101E+01  0.70276526338E+02  0.92588384255E+02  0.47000000000E+01 0.  1.
<mgrwt>
<rscale>  0 0.30328673E+03</rscale>
<asrwt>0</asrwt>
<pdfrwt beam="1">  1        2 0.18987269E-01 0.30328673E+03</pdfrwt>
<pdfrwt beam="2">  1       -2 0.28665373E-01 0.30328673E+03</pdfrwt>
<totfact> 0.32750744E+03</totfact>
</mgrwt>
</event>
<event>
 8    1  0.5224537E-004  0.9942586E+02  0.7546771E-02  0.1287092E+00
         -3   -1    0    0    0  501 -0.00000000000E+00  0.00000000000E+00  0.13546916493E+02  0.13546916493E+02  0.00000000000E+00 0.  1.
          3   -1    0    0  501    0  0.00000000000E+00 -0.00000000000E+00 -0.69570222357E+03  0.69570222357E+03  0.00000000000E+00 0. -1.
         23    2    1    2    0    0 -0.37441989706E+02 -0.14399735812E+01 -0.40599501769E+03  0.41573592621E+03  0.81243029431E+02 0.  0.
         23    2    1    2    0    0  0.37441989706E+02  0.14399735812E+01 -0.27616028938E+03  0.29351321385E+03  0.92095196169E+02 0.  0.
          5    1    3    3  502    0 -0.21643882617E+02 -0.34006334936E+02 -0.10556938932E+03  0.11310116901E+03  0.47000000000E+01 0. -1.
         -5    1    4    4    0  503  0.41708959238E+02  0.30624592580E+02 -0.24461407860E+03  0.25007127064E+03  0.47000000000E+01 0.  1.
          5    1    4    4  503    0 -0.42669695320E+01 -0.29184618999E+02 -0.31546210780E+02  0.43441943208E+02  0.47000000000E+01 0. -1.
         -5    1    3    3    0  502 -0.15798107089E+02  0.32566361355E+02 -0.30042562837E+03  0.30263475719E+03  0.47000000000E+01 0.  1.
<mgrwt>
<rscale>  0 0.96836849E+02</rscale>
<asrwt>0</asrwt>
<pdfrwt beam="1">  1        3 0.10703111E+00 0.99425858E+02</pdfrwt>
<pdfrwt beam="2">  1       -3 0.20841409E-02 0.99425858E+02</pdfrwt>
<totfact> 0.15104511E+03</totfact>
</mgrwt>
</event>
<event>
 8    1  0.5224537E-004  0.1016660E+03  0.7546771E-02  0.1278226E+00
         -1   -1    0    0    0  501 -0.00000000000E+00  0.00000000000E+00  0.10058485414E+03  0.10058485414E+03  0.00000000000E+00 0.  1.
          1   -1    0    0  501    0  0.00000000000E+00 -0.00000000000E+00 -0.10636893777E+03  0.10636893777E+03  0.00000000000E+00 0. -1.
         23    2    1    2    0    0  0.41635738016E+02 -0.24380476209E+00 -0.28025872090E+02  0.10288324707E+03  0.89810460969E+02 0.  0.
         23    2    1    2    0    0 -0.41635738016E+02  0.24380476209E+00  0.22241788457E+02  0.10407054484E+03  0.92749054063E+02 0.  0.
          5    1    3    3  502    0  0.59391342538E+02 -0.27898346317E+02 -0.17982801216E+02  0.68199123420E+02  0.47000000000E+01 0. -1.
         -5    1    3    3    0  502 -0.17755604522E+02  0.27654541555E+02 -0.10043070873E+02  0.34684123646E+02  0.47000000000E+01 0.  1.
          5    1    4    4  503    0 -0.99249992828E+01  0.28052094453E+02  0.46337579885E+02  0.55269222209E+02  0.47000000000E+01 0. -1.
         -5    1    4    4    0  503 -0.31710738733E+02 -0.27808289691E+02 -0.24095791427E+02  0.48801322636E+02  0.47000000000E+01 0.  1.
<mgrwt>
<rscale>  0 0.10099095E+03</rscale>
<asrwt>0</asrwt>
<pdfrwt beam="1">  1        1 0.16364452E-01 0.10166603E+03</pdfrwt>
<pdfrwt beam="2">  1       -1 0.15474593E-01 0.10166603E+03</pdfrwt>
<totfact> 0.93244615E+03</totfact>
</mgrwt>
</event>
<event>
 8    1  0.7189520E-004  0.1081334E+03  0.7546771E-02  0.1266219E+00
          1   -1    0    0  501    0  0.00000000000E+00  0.00000000000E+00  0.31253275081E+03  0.31253275081E+03  0.00000000000E+00 0. -1.
         -1   -1    0    0    0  501 -0.00000000000E+00 -0.00000000000E+00 -0.78018277581E+02  0.78018277581E+02  0.00000000000E+00 0.  1.
         23    2    1    2    0    0 -0.39688175038E+02  0.33162006143E+02  0.25960354570E+03  0.27954522628E+03  0.89870254863E+02 0.  0.
         23    2    1    2    0    0  0.39688175038E+02 -0.33162006143E+02 -0.25089072467E+02  0.11100580211E+03  0.94962922530E+02 0.  0.
          5    1    3    3  502    0 -0.33616166755E+02  0.59705328250E+02  0.22508279248E+03  0.23532769994E+03  0.47000000000E+01 0. -1.
         -5    1    4    4    0  503 -0.92618288773E-01 -0.59723054256E+02 -0.10896014683E+02  0.60890597991E+02  0.47000000000E+01 0.  1.
          5    1    4    4  503    0  0.39780793327E+02  0.26561048113E+02 -0.14193057784E+02  0.50115204118E+02  0.47000000000E+01 0. -1.
         -5    1    3    3    0  502 -0.60720082833E+01 -0.26543322107E+02  0.34520753218E+02  0.44217526342E+02  0.47000000000E+01 0.  1.
<mgrwt>
<rscale>  0 0.10700489E+03</rscale>
<asrwt>0</asrwt>
<pdfrwt beam="1">  1        1 0.48081961E-01 0.10813337E+03</pdfrwt>
<pdfrwt beam="2">  1       -1 0.12002812E-01 0.10813337E+03</pdfrwt>
<totfact> 0.36344476E+03</totfact>
</mgrwt>
</event>
<event>
 8    1  0.5224537E-004  0.9768293E+02  0.7546771E-02  0.1287367E+00
         -2   -1    0    0    0  501 -0.00000000000E+00  0.00000000000E+00  0.14405039524E+02  0.14405039524E+02  0.00000000000E+00 0.  1.
          2   -1    0    0  501    0  0.00000000000E+00 -0.00000000000E+00 -0.84534635046E+03  0.84534635046E+03  0.00000000000E+00 0. -1.
         23    2    1    2    0    0  0.14461073510E+02 -0.33180355651E+02 -0.62275035476E+03  0.62978306719E+03  0.86594738373E+02 0.  0.
         23    2    1    2    0    0 -0.14461073510E+02  0.33180355651E+02 -0.20819095618E+03  0.22996832280E+03  0.90729800000E+02 0.  0.
          5    1    3    3  502    0  0.62219039973E+01 -0.61195525356E+02 -0.34598592827E+03  0.35144267950E+03  0.47000000000E+01 0. -1.
         -5    1    3    3    0  502  0.82391695123E+01  0.28015169705E+02 -0.27676442649E+03  0.27834038768E+03  0.47000000000E+01 0.  1.
          5    1    4    4  503    0 -0.39873122372E+01  0.51655397663E+02 -0.20011494013E+03  0.20676619169E+03  0.47000000000E+01 0. -1.
         -5    1    4    4    0  503 -0.10473761272E+02 -0.18475042012E+02 -0.80760160556E+01  0.23202131106E+02  0.47000000000E+01 0.  1.
<mgrwt>
<rscale>  0 0.96711482E+02</rscale>
<asrwt>0</asrwt>
<pdfrwt beam="1">  1        2 0.13005329E+00 0.97682932E+02</pdfrwt>
<pdfrwt beam="2">  1       -2 0.22161598E-02 0.97682932E+02</pdfrwt>
<totfact> 0.20268928E+04</totfact>
</mgrwt>
</event>
<event>
 8    1  0.5224537E-004  0.9246813E+02  0.7546771E-02  0.1303802E+00
         -1   -1    0    0    0  501 -0.00000000000E+00  0.00000000000E+00  0.76822532722E+02  0.76822532722E+02  0.00000000000E+00 0.  1.
          1   -1    0    0  501    0  0.00000000000E+00 -0.00000000000E+00 -0.14098475786E+03  0.14098475786E+03  0.00000000000E+00 0. -1.
         23    2    1    2    0    0  0.60014067519E+01  0.20117991384E+02 -0.90341992515E+02  0.12170455638E+03  0.78800843719E+02 0.  0.
         23    2    1    2    0    0 -0.60014067519E+01 -0.20117991384E+02  0.26179767382E+02  0.96102734202E+02  0.90053344416E+02 0.  0.
          5    1    3    3  502    0 -0.30469129488E+02  0.22956310598E+01 -0.68987668782E+02  0.75597792412E+02  0.47000000000E+01 0. -1.
         -5    1    4    4    0  503  0.16718664030E+02 -0.36066927524E+02  0.46518180280E+02  0.61370742903E+02  0.47000000000E+01 0.  1.
          5    1    4    4  503    0 -0.22720070782E+02  0.15948936139E+02 -0.20338412898E+02  0.34731991298E+02  0.47000000000E+01 0. -1.
         -5    1    3    3    0  502  0.36470536239E+02  0.17822360325E+02 -0.21354323733E+02  0.46106763964E+02  0.47000000000E+01 0.  1.
<mgrwt>
<rscale>  0 0.89608541E+02</rscale>
<asrwt>0</asrwt>
<pdfrwt beam="1">  1        1 0.21689963E-01 0.92468131E+02</pdfrwt>
<pdfrwt beam="2">  1       -1 0.11818851E-01 0.92468131E+02</pdfrwt>
<totfact> 0.98148653E+03</totfact>
</mgrwt>
</event>
<event>
 8    1  0.5224537E-004  0.1157163E+03  0.7546771E-02  0.1252863E+00
          2   -1    0    0  501    0  0.00000000000E+00  0.00000000000E+00  0.34270993494E+03  0.34270993494E+03  0.00000000000E+00 0.  1.
         -2   -1    0    0    0  501 -0.00000000000E+00 -0.00000000000E+00 -0.63502233482E+02  0.63502233482E+02  0.00000000000E+00 0. -1.
         23    2    1    2    0    0 -0.47943921444E+01 -0.66155223168E+02  0.26829579840E+03  0.28998254447E+03  0.87793740747E+02 0.  0.
         23    2    1    2    0    0  0.47943921444E+01  0.66155223168E+02  0.10911903066E+02  0.11622962395E+03  0.94819597695E+02 0.  0.
          5    1    4    4  502    0  0.24362871105E+02  0.81331187703E+02 -0.69823800605E+01  0.85317965359E+02  0.47000000000E+01 0. -1.
         -5    1    3    3    0  503  0.23683777251E+02  0.67274338921E+01  0.11621589884E+03  0.11888820301E+03  0.47000000000E+01 0.  1.
          5    1    3    3  503    0 -0.28478169395E+02 -0.72882657060E+02  0.15207989956E+03  0.17109434146E+03  0.47000000000E+01 0. -1.
         -5    1    4    4    0  502 -0.19568478961E+02 -0.15175964534E+02  0.17894283127E+02  0.30911658594E+02  0.47000000000E+01 0.  1.
<mgrwt>
<rscale>  0 0.11426849E+03</rscale>
<asrwt>0</asrwt>
<pdfrwt beam="1">  1        2 0.52724604E-01 0.11571627E+03</pdfrwt>
<pdfrwt beam="2">  1       -2 0.97695746E-02 0.11571627E+03</pdfrwt>
<totfact> 0.61643698E+03</totfact>
</mgrwt>
</event>
<event>
 7    1  0.5224537E-004  0.1315716E+03  0.7546771E-02  0.1239396E+00
          1   -1    0    0  501    0  0.00000000000E+00  0.00000000000E+00  0.14335857818E+04  0.14335857818E+04  0.00000000000E+00 0. -1.
         -1   -1    0    0    0  501 -0.00000000000E+00 -0.00000000000E+00 -0.13171036981E+02  0.13171036981E+02  0.00000000000E+00 0.  1.
         23    2    1    2    0    0 -0.82680140835E+02 -0.36004677875E+02  0.11766143091E+04  0.11839477693E+04  0.95805769385E+02 0.  0.
          5    1    3    3  502    0 -0.18947181129E+02  0.32362570499E+02  0.36821379637E+03  0.37014837765E+03  0.47000000000E+01 0. -1.
         -5    1    3    3    0  502 -0.63732959706E+02 -0.68367248374E+02  0.80840051277E+03  0.81379939165E+03  0.47000000000E+01 0.  1.
          5    1    1    2  503    0  0.42417057080E+02  0.28467628582E+02  0.17722156049E+03  0.18449711139E+03  0.47000000000E+01 0. -1.
         -5    1    1    2    0  503  0.40263083755E+02  0.75370492937E+01  0.66578875170E+02  0.78311938071E+02  0.47000000000E+01 0.  1.
<mgrwt>
<rscale>  0 0.12227132E+03</rscale>
<asrwt>0</asrwt>
<pdfrwt beam="1">  1        1 0.22055154E+00 0.13157161E+03</pdfrwt>
<pdfrwt beam="2">  1       -1 0.20263145E-02 0.13157161E+03</pdfrwt>
<totfact> 0.52280530E+03</totfact>
</mgrwt>
</event>
<event>
 8    1  0.5224537E-004  0.1131585E+03  0.7546771E-02  0.1254885E+00
         -1   -1    0    0    0  501 -0.00000000000E+00  0.00000000000E+00  0.21983120498E+03  0.21983120498E+03  0.00000000000E+00 0.  1.
          1   -1    0    0  501    0  0.00000000000E+00 -0.00000000000E+00 -0.62323289204E+02  0.62323289204E+02  0.00000000000E+00 0. -1.
         23    2    1    2    0    0 -0.33736657168E+02 -0.58228074736E+02  0.11514683253E+03  0.16144239704E+03  0.90973533490E+02 0.  0.
         23    2    1    2    0    0  0.33736657168E+02  0.58228074736E+02  0.42361083243E+02  0.12071209714E+03  0.90820032477E+02 0.  0.
          5    1    3    3  502    0  0.77849463337E+01  0.21310509122E+02  0.26953865008E+02  0.35543551135E+02  0.47000000000E+01 0. -1.
         -5    1    3    3    0  502 -0.41521603501E+02 -0.79538583858E+02  0.88192967526E+02  0.12589884591E+03  0.47000000000E+01 0.  1.
          5    1    4    4  503    0  0.96877972447E+01  0.72653336420E+02  0.48021864055E+01  0.73603747885E+02  0.47000000000E+01 0. -1.
         -5    1    4    4    0  503  0.24048859923E+02 -0.14425261685E+02  0.37558896837E+02  0.47108349259E+02  0.47000000000E+01 0.  1.
<mgrwt>
<rscale>  0 0.11312768E+03</rscale>
<asrwt>0</asrwt>
<pdfrwt beam="1">  1        1 0.95881984E-02 0.11315854E+03</pdfrwt>
<pdfrwt beam="2">  1       -1 0.33820185E-01 0.11315854E+03</pdfrwt>
<totfact> 0.53039538E+03</totfact>
</mgrwt>
</event>
<event>
 8    1  0.5224537E-004  0.1290301E+03  0.7546771E-02  0.1232295E+00
         -1   -1    0    0    0  501 -0.00000000000E+00  0.00000000000E+00  0.50229605670E+02  0.50229605670E+02  0.00000000000E+00 0.  1.
          1   -1    0    0  501    0  0.00000000000E+00 -0.00000000000E+00 -0.58258209199E+03  0.58258209199E+03  0.00000000000E+00 0. -1.
         23    2    1    2    0    0  0.83614852747E+02  0.18133572794E+02 -0.47781651678E+03  0.49272978844E+03  0.84579847747E+02 0.  0.
         23    2    1    2    0    0 -0.83614852747E+02 -0.18133572794E+02 -0.54535969541E+02  0.14008190922E+03  0.96584156339E+02 0.  0.
          5    1    4    4  502    0  0.10696626204E+02 -0.29421803356E+02 -0.25492530620E+02  0.40645042038E+02  0.47000000000E+01 0. -1.
         -5    1    4    4    0  502 -0.94311478951E+02  0.11288230563E+02 -0.29043438922E+02  0.99436867185E+02  0.47000000000E+01 0.  1.
          5    1    3    3  503    0  0.15560805770E+02 -0.31798877807E+02 -0.14893931863E+03  0.15316108494E+03  0.47000000000E+01 0. -1.
         -5    1    3    3    0  503  0.68054046977E+02  0.49932450600E+02 -0.32887719815E+03  0.33956870350E+03  0.47000000000E+01 0.  1.
<mgrwt>
<rscale>  0 0.12679203E+03</rscale>
<asrwt>0</asrwt>
<pdfrwt beam="1">  1        1 0.89628012E-01 0.12903011E+03</pdfrwt>
<pdfrwt beam="2">  1       -1 0.77276318E-02 0.12903011E+03</pdfrwt>
<totfact> 0.32365932E+03</totfact>
</mgrwt>
</event>
<event>
 8    1  0.6825849E-004  0.1285363E+03  0.7546771E-02  0.1230074E+00
         -1   -1    0    0    0  501 -0.00000000000E+00  0.00000000000E+00  0.14039131491E+03  0.14039131491E+03  0.00000000000E+00 0.  1.
          1   -1    0    0  501    0  0.00000000000E+00 -0.00000000000E+00 -0.36227910656E+03  0.36227910656E+03  0.00000000000E+00 0. -1.
         23    2    1    2    0    0 -0.76387867512E+02  0.45052242584E+02 -0.31805791306E+03  0.34304871273E+03  0.93041777633E+02 0.  0.
         23    2    1    2    0    0  0.76387867512E+02 -0.45052242584E+02  0.96170121410E+02  0.15962170874E+03  0.91463581729E+02 0.  0.
          5    1    4    4  502    0  0.42217422712E+02  0.24592014096E+02  0.29803948755E+02  0.57423368928E+02  0.47000000000E+01 0. -1.
         -5    1    4    4    0  502  0.34170444801E+02 -0.69644256680E+02  0.66366172655E+02  0.10219833981E+03  0.47000000000E+01 0.  1.
          5    1    3    3  503    0 -0.18531145558E+02  0.56391386533E+02 -0.22532929354E+03  0.23306388042E+03  0.47000000000E+01 0. -1.
         -5    1    3    3    0  503 -0.57856721954E+02 -0.11339143949E+02 -0.92728619517E+02  0.10998483231E+03  0.47000000000E+01 0.  1.
<mgrwt>
<rscale>  0 0.12825093E+03</rscale>
<asrwt>0</asrwt>
<pdfrwt beam="1">  1        1 0.55735246E-01 0.12853631E+03</pdfrwt>
<pdfrwt beam="2">  1       -1 0.21598664E-01 0.12853631E+03</pdfrwt>
<totfact> 0.12100784E+03</totfact>
</mgrwt>
</event>
<event>
 8    1  0.5224537E-004  0.9961071E+02  0.7546771E-02  0.1281156E+00
         -2   -1    0    0    0  501 -0.00000000000E+00  0.00000000000E+00  0.98790508027E+02  0.98790508027E+02  0.00000000000E+00 0.  1.
          2   -1    0    0  501    0  0.00000000000E+00 -0.00000000000E+00 -0.10169585350E+03  0.10169585350E+03  0.00000000000E+00 0. -1.
         23    2    1    2    0    0 -0.83705563433E+01 -0.38214109099E+02  0.10022403739E+02  0.10011364359E+03  0.91607361647E+02 0.  0.
         23    2    1    2    0    0  0.83705563433E+01  0.38214109099E+02 -0.12927749213E+02  0.10037271794E+03  0.91526889268E+02 0.  0.
          5    1    4    4  502    0 -0.11919309485E+02  0.64617467725E+02 -0.73479153702E+01  0.66284002097E+02  0.47000000000E+01 0. -1.
         -5    1    4    4    0  502  0.20289865828E+02 -0.26403358626E+02 -0.55798338424E+01  0.34088715842E+02  0.47000000000E+01 0.  1.
          5    1    3    3  503    0  0.20512987300E+02  0.58471107198E+01 -0.27605641666E+02  0.35201318207E+02  0.47000000000E+01 0. -1.
         -5    1    3    3    0  503 -0.28883543643E+02 -0.44061219819E+02  0.37628045405E+02  0.64912325381E+02  0.47000000000E+01 0.  1.
<mgrwt>
<rscale>  0 0.99592202E+02</rscale>
<asrwt>0</asrwt>
<pdfrwt beam="1">  1        2 0.15645516E-01 0.99610708E+02</pdfrwt>
<pdfrwt beam="2">  1       -2 0.15198540E-01 0.99610708E+02</pdfrwt>
<totfact> 0.11306301E+04</totfact>
</mgrwt>
</event>
<event>
 8    1  0.5224537E-004  0.1060356E+03  0.7546771E-02  0.1271089E+00
          1   -1    0    0  501    0  0.00000000000E+00  0.00000000000E+00  0.29685483586E+02  0.29685483586E+02  0.00000000000E+00 0. -1.
         -1   -1    0    0    0  501 -0.00000000000E+00 -0.00000000000E+00 -0.39650239794E+03  0.39650239794E+03  0.00000000000E+00 0.  1.
         23    2    1    2    0    0 -0.36612390894E+02 -0.40629184997E+02 -0.12158208805E+03  0.16132498186E+03  0.90842433907E+02 0.  0.
         23    2    1    2    0    0  0.36612390894E+02  0.40629184997E+02 -0.24523482630E+03  0.26486289966E+03  0.83791632907E+02 0.  0.
          5    1    4    4  502    0 -0.25790238994E+02  0.17959407406E+01 -0.58574734927E+02  0.64198531154E+02  0.47000000000E+01 0. -1.
         -5    1    4    4    0  502  0.62402629888E+02  0.38833244256E+02 -0.18666009138E+03  0.20066436851E+03  0.47000000000E+01 0.  1.
          5    1    3    3  503    0 -0.26293502057E+02 -0.69800115469E+02 -0.86174298834E+02  0.11406798039E+03  0.47000000000E+01 0. -1.
         -5    1    3    3    0  503 -0.10318888837E+02  0.29170930472E+02 -0.35407789218E+02  0.47257001478E+02  0.47000000000E+01 0.  1.
<mgrwt>
<rscale>  0 0.10450934E+03</rscale>
<asrwt>0</asrwt>
<pdfrwt beam="1">  1        1 0.45669977E-02 0.10603559E+03</pdfrwt>
<pdfrwt beam="2">  1       -1 0.61000366E-01 0.10603559E+03</pdfrwt>
<totfact> 0.49810575E+03</totfact>
</mgrwt>
</event>
<event>
 8    1  0.5224537E-004  0.9838856E+02  0.7546771E-02  0.1285866E+00
          1   -1    0    0  501    0  0.00000000000E+00  0.00000000000E+00  0.69473310506E+02  0.69473310506E+02  0.00000000000E+00 0. -1.
         -1   -1    0    0    0  501 -0.00000000000E+00 -0.00000000000E+00 -0.14018266444E+03  0.14018266444E+03  0.00000000000E+00 0.  1.
         23    2    1    2    0    0  0.13104572346E+02 -0.18788504676E+02 -0.12417098835E+02  0.95295599180E+02  0.91664219602E+02 0.  0.
         23    2    1    2    0    0 -0.13104572346E+02  0.18788504676E+02 -0.58292255098E+02  0.11436037576E+03  0.95684747040E+02 0.  0.
          5    1    3    3  502    0  0.18159343298E+02 -0.48345301843E+02 -0.30307018388E+02  0.60063593989E+02  0.47000000000E+01 0. -1.
         -5    1    4    4    0  503  0.57366581732E+01  0.55866344442E+02 -0.36825443888E+02  0.67321326531E+02  0.47000000000E+01 0.  1.
          5    1    4    4  503    0 -0.18841230520E+02 -0.37077839766E+02 -0.21466811210E+02  0.47039049233E+02  0.47000000000E+01 0. -1.
         -5    1    3    3    0  502 -0.50547709520E+01  0.29556797167E+02  0.17889919553E+02  0.35232005191E+02  0.47000000000E+01 0.  1.
<mgrwt>
<rscale>  0 0.97397329E+02</rscale>
<asrwt>0</asrwt>
<pdfrwt beam="1">  1        1 0.10688202E-01 0.98388559E+02</pdfrwt>
<pdfrwt beam="2">  1       -1 0.21566563E-01 0.98388559E+02</pdfrwt>
<totfact> 0.95422421E+03</totfact>
</mgrwt>
</event>
<event>
 8    1  0.5224537E-004  0.1112415E+03  0.7546771E-02  0.1265966E+00
          1   -1    0    0  501    0  0.00000000000E+00  0.00000000000E+00  0.48437848051E+03  0.48437848051E+03  0.00000000000E+00 0. -1.
         -1   -1    0    0    0  501 -0.00000000000E+00 -0.00000000000E+00 -0.60444688487E+02  0.60444688487E+02  0.00000000000E+00 0.  1.
         23    2    1    2    0    0  0.18590572445E+02  0.17749890729E+02 -0.10582838870E+02  0.96292929094E+02  0.92193620767E+02 0.  0.
         23    2    1    2    0    0 -0.18590572445E+02 -0.17749890729E+02  0.43451663089E+03  0.44853023990E+03  0.10823125972E+03 0.  0.
          5    1    4    4  502    0  0.32567046153E+02 -0.38826935272E+02  0.27383235516E+03  0.27852179830E+03  0.47000000000E+01 0. -1.
         -5    1    4    4    0  502 -0.51157618598E+02  0.21077044544E+02  0.16068427574E+03  0.17000844160E+03  0.47000000000E+01 0.  1.
          5    1    3    3  503    0 -0.33022017059E+02  0.10730046315E+02  0.14949176886E+02  0.38094033576E+02  0.47000000000E+01 0. -1.
         -5    1    3    3    0  503  0.51612589504E+02  0.70198444138E+01 -0.25532015756E+02  0.58198895518E+02  0.47000000000E+01 0.  1.
<mgrwt>
<rscale>  0 0.10713690E+03</rscale>
<asrwt>0</asrwt>
<pdfrwt beam="1">  1        1 0.74519764E-01 0.11124151E+03</pdfrwt>
<pdfrwt beam="2">  1       -1 0.92991832E-02 0.11124151E+03</pdfrwt>
<totfact> 0.31018614E+03</totfact>
</mgrwt>
</event>
<event>
 8    1  0.5224537E-004  0.9760705E+02  0.7546771E-02  0.1286337E+00
          1   -1    0    0  501    0  0.00000000000E+00  0.00000000000E+00  0.70545369561E+02  0.70545369561E+02  0.00000000000E+00 0. -1.
         -1   -1    0    0    0  501 -0.00000000000E+00 -0.00000000000E+00 -0.13315627493E+03  0.13315627493E+03  0.00000000000E+00 0.  1.
         23    2    1    2    0    0  0.19684857121E+02 -0.17570391428E+02 -0.25199164151E+02  0.99170431152E+02  0.92214772602E+02 0.  0.
         23    2    1    2    0    0 -0.19684857121E+02  0.17570391428E+02 -0.37411741215E+02  0.10453121334E+03  0.93972995728E+02 0.  0.
          5    1    4    4  502    0 -0.18208595414E+02 -0.85936004086E+01  0.27480358122E+02  0.34389867657E+02  0.47000000000E+01 0. -1.
         -5    1    4    4    0  502 -0.14762617065E+01  0.26163991837E+02 -0.64892099337E+02  0.70141345680E+02  0.47000000000E+01 0.  1.
          5    1    3    3  503    0  0.22791474752E+02 -0.54086030449E+02 -0.17543893619E+02  0.61438003015E+02  0.47000000000E+01 0. -1.
         -5    1    3    3    0  503 -0.31066176308E+01  0.36515639021E+02 -0.76552705320E+01  0.37732428137E+02  0.47000000000E+01 0.  1.
<mgrwt>
<rscale>  0 0.97181377E+02</rscale>
<asrwt>0</asrwt>
<pdfrwt beam="1">  1        1 0.10853134E-01 0.97607050E+02</pdfrwt>
<pdfrwt beam="2">  1       -1 0.20485581E-01 0.97607050E+02</pdfrwt>
<totfact> 0.10147401E+04</totfact>
</mgrwt>
</event>
<event>
 8    1  0.5224537E-004  0.9176739E+02  0.7546771E-02  0.1298744E+00
         -3   -1    0    0    0  501 -0.00000000000E+00  0.00000000000E+00  0.38440099321E+02  0.38440099321E+02  0.00000000000E+00 0.  1.
          3   -1    0    0  501    0  0.00000000000E+00 -0.00000000000E+00 -0.23614488986E+03  0.23614488986E+03  0.00000000000E+00 0. -1.
         23    2    1    2    0    0 -0.63090436033E+01  0.85103480530E+01 -0.61336670788E+02  0.11021492483E+03  0.90955551879E+02 0.  0.
         23    2    1    2    0    0  0.63090436033E+01 -0.85103480530E+01 -0.13636811975E+03  0.16437006435E+03  0.91153847500E+02 0.  0.
          5    1    3    3  502    0  0.35687937907E+02  0.26488299388E+02 -0.38194648221E+02  0.58789285327E+02  0.47000000000E+01 0. -1.
         -5    1    4    4    0  503  0.43239634010E+02 -0.22799433664E+02 -0.54849933911E+02  0.73621229104E+02  0.47000000000E+01 0.  1.
          5    1    4    4  503    0 -0.36930590407E+02  0.14289085611E+02 -0.81518185841E+02  0.90748835244E+02  0.47000000000E+01 0. -1.
         -5    1    3    3    0  502 -0.41996981510E+02 -0.17977951335E+02 -0.23142022567E+02  0.51425639507E+02  0.47000000000E+01 0.  1.
<mgrwt>
<rscale>  0 0.91718109E+02</rscale>
<asrwt>0</asrwt>
<pdfrwt beam="1">  1        3 0.36329983E-01 0.91767391E+02</pdfrwt>
<pdfrwt beam="2">  1       -3 0.59138615E-02 0.91767391E+02</pdfrwt>
<totfact> 0.27593654E+03</totfact>
</mgrwt>
</event>
<event>
 8    1  0.5224537E-004  0.1141591E+03  0.7546771E-02  0.1253942E+00
         -3   -1    0    0    0  501 -0.00000000000E+00  0.00000000000E+00  0.43097117444E+03  0.43097117444E+03  0.00000000000E+00 0.  1.
          3   -1    0    0  501    0  0.00000000000E+00 -0.00000000000E+00 -0.49136926760E+02  0.49136926760E+02  0.00000000000E+00 0. -1.
         23    2    1    2    0    0 -0.64278937866E+02 -0.13777059057E+02  0.41011583589E+02  0.12130234955E+03  0.93331242399E+02 0.  0.
         23    2    1    2    0    0  0.64278937866E+02  0.13777059057E+02  0.34082266410E+03  0.35880575166E+03  0.90883936162E+02 0.  0.
          5    1    4    4  502    0  0.51524626097E+02 -0.26037372761E+02  0.11140315497E+03  0.12556068179E+03  0.47000000000E+01 0. -1.
         -5    1    3    3    0  503 -0.32065571068E+02  0.39580022845E+02  0.24116438132E+02  0.56555032000E+02  0.47000000000E+01 0.  1.
          5    1    3    3  503    0 -0.32213366798E+02 -0.53357081902E+02  0.16895145457E+02  0.64747317547E+02  0.47000000000E+01 0. -1.
         -5    1    4    4    0  502  0.12754311769E+02  0.39814431818E+02  0.22941950912E+03  0.23324506986E+03  0.47000000000E+01 0.  1.
<mgrwt>
<rscale>  0 0.11365786E+03</rscale>
<asrwt>0</asrwt>
<pdfrwt beam="1">  1        3 0.75595275E-02 0.11415914E+03</pdfrwt>
<pdfrwt beam="2">  1       -3 0.66303255E-01 0.11415914E+03</pdfrwt>
<totfact> 0.58942922E+02</totfact>
</mgrwt>
</event>
<event>
 8    1  0.5224537E-004  0.9429955E+02  0.7546771E-02  0.1294018E+00
          3   -1    0    0  501    0  0.00000000000E+00  0.00000000000E+00  0.87391455622E+03  0.87391455622E+03  0.00000000000E+00 0. -1.
         -3   -1    0    0    0  501 -0.00000000000E+00 -0.00000000000E+00 -0.10067896438E+02  0.10067896438E+02  0.00000000000E+00 0.  1.
         23    2    1    2    0    0 -0.21870815153E+02 -0.99189014707E+01  0.47648777310E+03  0.48531051651E+03  0.88932459541E+02 0.  0.
         23    2    1    2    0    0  0.21870815153E+02  0.99189014707E+01  0.38735888668E+03  0.39867193615E+03  0.91190396524E+02 0.  0.
          5    1    4    4  502    0  0.21428777454E+02  0.40206786259E+02  0.33407241416E+03  0.33719763651E+03  0.47000000000E+01 0. -1.
         -5    1    3    3    0  503 -0.23794805336E+02 -0.44229536103E+02  0.18455534070E+03  0.19132487660E+03  0.47000000000E+01 0.  1.
          5    1    3    3  503    0  0.19239901823E+01  0.34310634632E+02  0.29193243240E+03  0.29398563991E+03  0.47000000000E+01 0. -1.
         -5    1    4    4    0  502  0.44203769960E+00 -0.30287884788E+02  0.53286472525E+02  0.61474299642E+02  0.47000000000E+01 0.  1.
<mgrwt>
<rscale>  0 0.93749332E+02</rscale>
<asrwt>0</asrwt>
<pdfrwt beam="1">  1        3 0.13444833E+00 0.94299552E+02</pdfrwt>
<pdfrwt beam="2">  1       -3 0.15489078E-02 0.94299552E+02</pdfrwt>
<totfact> 0.13737014E+03</totfact>
</mgrwt>
</event>
<event>
 8    1  0.5224537E-004  0.9837368E+02  0.7546771E-02  0.1285009E+00
         -2   -1    0    0    0  501 -0.00000000000E+00  0.00000000000E+00  0.11242775916E+03  0.11242775916E+03  0.00000000000E+00 0.  1.
          2   -1    0    0  501    0  0.00000000000E+00 -0.00000000000E+00 -0.10106105714E+03  0.10106105714E+03  0.00000000000E+00 0. -1.
         23    2    1    2    0    0  0.32072863879E+02 -0.89971133710E+01 -0.38138247585E+02  0.10336106898E+03  0.90107535783E+02 0.  0.
         23    2    1    2    0    0 -0.32072863879E+02  0.89971133710E+01  0.49504949604E+02  0.11012774732E+03  0.92562217170E+02 0.  0.
          5    1    4    4  502    0 -0.27472499637E+01 -0.39177282482E+02  0.32033903528E+02  0.50898603323E+02  0.47000000000E+01 0. -1.
         -5    1    3    3    0  503  0.12216848449E+02  0.38293539158E+02 -0.31798802244E+02  0.51467468865E+02  0.47000000000E+01 0.  1.
          5    1    3    3  503    0  0.19856015430E+02 -0.47290652529E+02 -0.63394453413E+01  0.51893600112E+02  0.47000000000E+01 0. -1.
         -5    1    4    4    0  502 -0.29325613915E+02  0.48174395853E+02  0.17471046076E+02  0.59229143994E+02  0.47000000000E+01 0.  1.
<mgrwt>
<rscale>  0 0.97792022E+02</rscale>
<asrwt>0</asrwt>
<pdfrwt beam="1">  1        2 0.15547855E-01 0.98373679E+02</pdfrwt>
<pdfrwt beam="2">  1       -2 0.17296578E-01 0.98373679E+02</pdfrwt>
<totfact> 0.92066817E+03</totfact>
</mgrwt>
</event>
<event>
 8    1  0.5224537E-004  0.1150723E+03  0.7546771E-02  0.1252409E+00
          2   -1    0    0  501    0  0.00000000000E+00  0.00000000000E+00  0.79036722761E+02  0.79036722761E+02  0.00000000000E+00 0. -1.
         -2   -1    0    0    0  501 -0.00000000000E+00 -0.00000000000E+00 -0.40790189964E+03  0.40790189964E+03  0.00000000000E+00 0.  1.
         23    2    1    2    0    0  0.89251329729E+01 -0.63849395148E+02 -0.35191250310E+03  0.36958101908E+03  0.92689355165E+02 0.  0.
         23    2    1    2    0    0 -0.89251329729E+01  0.63849395148E+02  0.23047326225E+02  0.11735760332E+03  0.95316444292E+02 0.  0.
          5    1    4    4  502    0 -0.50362371597E+02  0.24222204480E+02  0.20705876051E+02  0.59782162606E+02  0.47000000000E+01 0. -1.
         -5    1    3    3    0  503  0.22308502618E+02 -0.84679995053E+02 -0.27140080311E+03  0.28521720983E+03  0.47000000000E+01 0.  1.
          5    1    3    3  503    0 -0.13383369645E+02  0.20830599906E+02 -0.80511699993E+02  0.84363809251E+02  0.47000000000E+01 0. -1.
         -5    1    4    4    0  502  0.41437238624E+02  0.39627190668E+02  0.23414501743E+01  0.57575440718E+02  0.47000000000E+01 0.  1.
<mgrwt>
<rscale>  0 0.11452679E+03</rscale>
<asrwt>0</asrwt>
<pdfrwt beam="1">  1        2 0.12159496E-01 0.11507227E+03</pdfrwt>
<pdfrwt beam="2">  1       -2 0.62754139E-01 0.11507227E+03</pdfrwt>
<totfact> 0.11727487E+03</totfact>
</mgrwt>
</event>
<event>
 8    1  0.5224537E-004  0.9611789E+02  0.7546771E-02  0.1288855E+00
          1   -1    0    0  501    0  0.00000000000E+00  0.00000000000E+00  0.64328051690E+03  0.64328051690E+03  0.00000000000E+00 0. -1.
         -1   -1    0    0    0  501 -0.00000000000E+00 -0.00000000000E+00 -0.17592806592E+02  0.17592806592E+02  0.00000000000E+00 0.  1.
         23    2    1    2    0    0  0.10540335402E+02  0.55891874704E+01  0.16977145492E+03  0.19493525795E+03  0.95052986279E+02 0.  0.
         23    2    1    2    0    0 -0.10540335402E+02 -0.55891874704E+01  0.45591625540E+03  0.46593806555E+03  0.95374584164E+02 0.  0.
          5    1    3    3  502    0 -0.40754634571E+01  0.38643389942E+02  0.14662791899E+03  0.15176217452E+03  0.47000000000E+01 0.  1.
         -5    1    3    3    0  502  0.14615798859E+02 -0.33054202472E+02  0.23143535925E+02  0.43173083425E+02  0.47000000000E+01 0.  1.
          5    1    4    4  503    0 -0.46660066220E+02 -0.19573305101E+02  0.17188502818E+03  0.17923958537E+03  0.47000000000E+01 0. -1.
         -5    1    4    4    0  503  0.36119730818E+02  0.13984117631E+02  0.28403122722E+03  0.28669848018E+03  0.47000000000E+01 0.  1.
<mgrwt>
<rscale>  0 0.96038016E+02</rscale>
<asrwt>0</asrwt>
<pdfrwt beam="1">  1        1 0.98966216E-01 0.96117891E+02</pdfrwt>
<pdfrwt beam="2">  1       -1 0.27065861E-02 0.96117891E+02</pdfrwt>
<totfact> 0.12967390E+04</totfact>
</mgrwt>
</event>
<event>
 8    1  0.5224537E-004  0.1005657E+03  0.7546771E-02  0.1279515E+00
         -3   -1    0    0    0  501 -0.00000000000E+00  0.00000000000E+00  0.17503999709E+03  0.17503999709E+03  0.00000000000E+00 0.  1.
          3   -1    0    0  501    0  0.00000000000E+00 -0.00000000000E+00 -0.61031045830E+02  0.61031045830E+02  0.00000000000E+00 0. -1.
         23    2    1    2    0    0  0.43014547591E+01  0.43096294594E+02  0.86254887000E+02  0.13248908616E+03  0.90761551874E+02 0.  0.
         23    2    1    2    0    0 -0.43014547591E+01 -0.43096294594E+02  0.27754064258E+02  0.10358195676E+03  0.89906287671E+02 0.  0.
          5    1    3    3  502    0  0.35441858598E+02 -0.73567185064E+01  0.14464753912E+02  0.39262778223E+02  0.47000000000E+01 0. -1.
         -5    1    3    3    0  502 -0.31140403839E+02  0.50453013101E+02  0.71790133088E+02  0.93226307934E+02  0.47000000000E+01 0.  1.
          5    1    4    4  503    0 -0.39402224716E+02 -0.38536558092E+02  0.37184575468E+02  0.66651213604E+02  0.47000000000E+01 0. -1.
         -5    1    4    4    0  503  0.35100769957E+02 -0.45597365020E+01 -0.94305112093E+01  0.36930743158E+02  0.47000000000E+01 0.  1.
<mgrwt>
<rscale>  0 0.10037230E+03</rscale>
<asrwt>0</asrwt>
<pdfrwt beam="1">  1        3 0.93893918E-02 0.10056566E+03</pdfrwt>
<pdfrwt beam="2">  1       -3 0.26929230E-01 0.10056566E+03</pdfrwt>
<totfact> 0.23237588E+03</totfact>
</mgrwt>
</event>
<event>
 8    1  0.5224537E-004  0.9320702E+02  0.7546771E-02  0.1298358E+00
         -1   -1    0    0    0  501 -0.00000000000E+00  0.00000000000E+00  0.21293263383E+02  0.21293263383E+02  0.00000000000E+00 0.  1.
          1   -1    0    0  501    0  0.00000000000E+00 -0.00000000000E+00 -0.42028965177E+03  0.42028965177E+03  0.00000000000E+00 0. -1.
         23    2    1    2    0    0  0.11489579682E+02 -0.81787250447E+01 -0.26815358062E+03  0.28389063260E+03  0.92133850960E+02 0.  0.
         23    2    1    2    0    0 -0.11489579682E+02  0.81787250447E+01 -0.13084280776E+03  0.15769228255E+03  0.86879880574E+02 0.  0.
          5    1    4    4  502    0 -0.25688416440E+02  0.22586584093E+02 -0.13243702789E+03  0.13686381872E+03  0.47000000000E+01 0. -1.
         -5    1    4    4    0  502  0.14198836758E+02 -0.14407859048E+02  0.15942201239E+01  0.20828463828E+02  0.47000000000E+01 0.  1.
          5    1    3    3  503    0 -0.13502364658E+02  0.31047124287E+02 -0.48605141747E+02  0.59420430679E+02  0.47000000000E+01 0. -1.
         -5    1    3    3    0  503  0.24991944340E+02 -0.39225849332E+02 -0.21954843888E+03  0.22447020192E+03  0.47000000000E+01 0.  1.
<mgrwt>
<rscale>  0 0.91881541E+02</rscale>
<asrwt>0</asrwt>
<pdfrwt beam="1">  1        1 0.64659951E-01 0.93207019E+02</pdfrwt>
<pdfrwt beam="2">  1       -1 0.32758864E-02 0.93207019E+02</pdfrwt>
<totfact> 0.17087736E+04</totfact>
</mgrwt>
</event>
<event>
 8    1  0.5224537E-004  0.1208752E+03  0.7546771E-02  0.1242932E+00
         -2   -1    0    0    0  501 -0.00000000000E+00  0.00000000000E+00  0.52632425934E+02  0.52632425934E+02  0.00000000000E+00 0.  1.
          2   -1    0    0  501    0  0.00000000000E+00 -0.00000000000E+00 -0.27848769141E+03  0.27848769141E+03  0.00000000000E+00 0. -1.
         23    2    1    2    0    0  0.52742161750E+02  0.56640797392E+02 -0.83639789264E+02  0.14447592674E+03  0.88813081833E+02 0.  0.
         23    2    1    2    0    0 -0.52742161750E+02 -0.56640797392E+02 -0.14221547621E+03  0.18664419060E+03  0.92848783817E+02 0.  0.
          5    1    3    3  502    0  0.18744844723E+02  0.46329999727E+02 -0.94521251680E+02  0.10702427340E+03  0.47000000000E+01 0. -1.
         -5    1    3    3    0  502  0.33997317026E+02  0.10310797665E+02  0.10881462416E+02  0.37451653338E+02  0.47000000000E+01 0.  1.
          5    1    4    4  503    0  0.73890887667E+00 -0.64740357178E+02 -0.61890475438E+02  0.89690472090E+02  0.47000000000E+01 0. -1.
         -5    1    4    4    0  503 -0.53481070626E+02  0.80995597855E+01 -0.80325000774E+02  0.96953718512E+02  0.47000000000E+01 0.  1.
<mgrwt>
<rscale>  0 0.12009986E+03</rscale>
<asrwt>0</asrwt>
<pdfrwt beam="1">  1        2 0.42844260E-01 0.12087519E+03</pdfrwt>
<pdfrwt beam="2">  1       -2 0.80972964E-02 0.12087519E+03</pdfrwt>
<totfact> 0.10299188E+04</totfact>
</mgrwt>
</event>
<event>
 8    1  0.5224537E-004  0.2187543E+03  0.7546771E-02  0.1134883E+00
          2   -1    0    0  501    0  0.00000000000E+00  0.00000000000E+00  0.13204295070E+04  0.13204295070E+04  0.00000000000E+00 0. -1.
         -2   -1    0    0    0  501 -0.00000000000E+00 -0.00000000000E+00 -0.39849135384E+02  0.39849135384E+02  0.00000000000E+00 0.  1.
         23    2    1    2    0    0  0.18321355142E+03  0.73733259873E+02  0.84710845577E+03  0.87489781082E+03  0.94072549126E+02 0.  0.
         23    2    1    2    0    0 -0.18321355142E+03 -0.73733259873E+02  0.43347191585E+03  0.48538083157E+03  0.93235458882E+02 0.  0.
          5    1    4    4  502    0 -0.53011971092E+02 -0.70118771430E+02  0.17076293546E+03  0.19211710313E+03  0.47000000000E+01 0. -1.
         -5    1    4    4    0  502 -0.13020158033E+03 -0.36144884428E+01  0.26270898039E+03  0.29326372845E+03  0.47000000000E+01 0.  1.
          5    1    3    3  503    0  0.12500371830E+03  0.45189737255E+02  0.36599192712E+03  0.38941009573E+03  0.47000000000E+01 0. -1.
         -5    1    3    3    0  503  0.58209833114E+02  0.28543522618E+02  0.48111652866E+03  0.48548771509E+03  0.47000000000E+01 0.  1.
<mgrwt>
<rscale>  0 0.21866458E+03</rscale>
<asrwt>0</asrwt>
<pdfrwt beam="1">  1        2 0.20314297E+00 0.21875430E+03</pdfrwt>
<pdfrwt beam="2">  1       -2 0.61306372E-02 0.21875430E+03</pdfrwt>
<totfact> 0.24448132E+03</totfact>
</mgrwt>
</event>
<event>
 8    1  0.6463016E-004  0.9068022E+02  0.7546771E-02  0.1305070E+00
         -2   -1    0    0    0  501 -0.00000000000E+00  0.00000000000E+00  0.20700790249E+02  0.20700790249E+02  0.00000000000E+00 0.  1.
          2   -1    0    0  501    0  0.00000000000E+00 -0.00000000000E+00 -0.55177925545E+03  0.55177925545E+03  0.00000000000E+00 0. -1.
         23    2    1    2    0    0  0.11041774213E+02  0.10977491208E+02 -0.42320629046E+03  0.43155698965E+03  0.83038815869E+02 0.  0.
         23    2    1    2    0    0 -0.11041774213E+02 -0.10977491208E+02 -0.10787217474E+03  0.14092305604E+03  0.89333507439E+02 0.  0.
          5    1    4    4  502    0 -0.41759893881E+02 -0.31420065543E+02 -0.73270332222E+02  0.90120701504E+02  0.47000000000E+01 0. -1.
         -5    1    3    3    0  503  0.44413427692E+02  0.18977595015E+02 -0.28335217901E+03  0.28747738871E+03  0.47000000000E+01 0.  1.
          5    1    3    3  503    0 -0.33371653479E+02 -0.80001038071E+01 -0.13985411146E+03  0.14407960094E+03  0.47000000000E+01 0. -1.
         -5    1    4    4    0  502  0.30718119668E+02  0.20442574335E+02 -0.34601842514E+02  0.50802354539E+02  0.47000000000E+01 0.  1.
<mgrwt>
<rscale>  0 0.89090316E+02</rscale>
<asrwt>0</asrwt>
<pdfrwt beam="1">  1        2 0.84889112E-01 0.90680216E+02</pdfrwt>
<pdfrwt beam="2">  1       -2 0.31847371E-02 0.90680216E+02</pdfrwt>
<totfact> 0.19562556E+04</totfact>
</mgrwt>
</event>
<event>
 8    1  0.5224537E-004  0.1010074E+03  0.7546771E-02  0.1282133E+00
          1   -1    0    0  501    0  0.00000000000E+00  0.00000000000E+00  0.12871190663E+03  0.12871190663E+03  0.00000000000E+00 0. -1.
         -1   -1    0    0    0  501 -0.00000000000E+00 -0.00000000000E+00 -0.13477514090E+03  0.13477514090E+03  0.00000000000E+00 0.  1.
         23    2    1    2    0    0  0.10906742374E+02 -0.44027943702E+02 -0.91787428146E+02  0.13648233265E+03  0.90250087553E+02 0.  0.
         23    2    1    2    0    0 -0.10906742374E+02  0.44027943702E+02  0.85724193873E+02  0.12700471489E+03  0.82000873974E+02 0.  0.
          5    1    3    3  502    0  0.46270272917E+02 -0.66851516216E+01 -0.29126788786E+02  0.55281906922E+02  0.47000000000E+01 0.  1.
         -5    1    3    3    0  502 -0.35363530543E+02 -0.37342792081E+02 -0.62660639360E+02  0.81200425725E+02  0.47000000000E+01 0. -1.
          5    1    4    4  503    0 -0.33709951584E+02  0.15852444216E+02  0.82096036428E+02  0.90274636641E+02  0.47000000000E+01 0. -1.
         -5    1    4    4    0  503  0.22803209210E+02  0.28175499486E+02  0.36281574451E+01  0.36730078246E+02  0.47000000000E+01 0.  1.
<mgrwt>
<rscale>  0 0.99131427E+02</rscale>
<asrwt>0</asrwt>
<pdfrwt beam="1">  1        1 0.19801832E-01 0.10100740E+03</pdfrwt>
<pdfrwt beam="2">  1       -1 0.20734637E-01 0.10100740E+03</pdfrwt>
<totfact> 0.46118789E+03</totfact>
</mgrwt>
</event>
<event>
 8    1  0.5224537E-004  0.1607569E+03  0.7546771E-02  0.1188030E+00
         -1   -1    0    0    0  501 -0.00000000000E+00  0.00000000000E+00  0.56430291060E+03  0.56430291060E+03  0.00000000000E+00 0.  1.
          1   -1    0    0  501    0  0.00000000000E+00 -0.00000000000E+00 -0.53681815021E+02  0.53681815021E+02  0.00000000000E+00 0. -1.
         23    2    1    2    0    0  0.49649688462E+02  0.12227189327E+03  0.13503740940E+03  0.20944355557E+03  0.90642118168E+02 0.  0.
         23    2    1    2    0    0 -0.49649688462E+02 -0.12227189327E+03  0.37558368618E+03  0.40854117005E+03  0.91800189810E+02 0.  0.
          5    1    3    3  502    0  0.11104057575E+02  0.11889248388E+03  0.88299048336E+02  0.14858510946E+03  0.47000000000E+01 0. -1.
         -5    1    3    3    0  502  0.38545630887E+02  0.33794093955E+01  0.46738361063E+02  0.60858446112E+02  0.47000000000E+01 0.  1.
          5    1    4    4  503    0 -0.22941775119E+02  0.85097297427E+01  0.37421440346E+02  0.44957699490E+02  0.47000000000E+01 0. -1.
         -5    1    4    4    0  503 -0.26707913343E+02 -0.13078162302E+03  0.33816224584E+03  0.36358347056E+03  0.47000000000E+01 0.  1.
<mgrwt>
<rscale>  0 0.16059203E+03</rscale>
<asrwt>0</asrwt>
<pdfrwt beam="1">  1        1 0.82587412E-02 0.16075690E+03</pdfrwt>
<pdfrwt beam="2">  1       -1 0.86815828E-01 0.16075690E+03</pdfrwt>
<totfact> 0.11282169E+03</totfact>
</mgrwt>
</event>
<event>
 8    1  0.5224537E-004  0.9785352E+02  0.7546771E-02  0.1287917E+00
         -1   -1    0    0    0  501 -0.00000000000E+00  0.00000000000E+00  0.13083058813E+03  0.13083058813E+03  0.00000000000E+00 0.  1.
          1   -1    0    0  501    0  0.00000000000E+00 -0.00000000000E+00 -0.85140044273E+02  0.85140044273E+02  0.00000000000E+00 0. -1.
         23    2    1    2    0    0  0.10645841225E+02  0.60489785497E+01  0.70129958126E+02  0.12038904958E+03  0.97084438270E+02 0.  0.
         23    2    1    2    0    0 -0.10645841225E+02 -0.60489785497E+01 -0.24439414273E+02  0.95581582822E+02  0.91589464066E+02 0.  0.
          5    1    4    4  502    0  0.52376466317E+01  0.30509288651E+02 -0.41486415280E+02  0.51975593205E+02  0.47000000000E+01 0. -1.
         -5    1    3    3    0  503  0.40363259254E+02  0.16024043625E+02  0.76467563395E+02  0.88064413490E+02  0.47000000000E+01 0.  1.
          5    1    3    3  503    0 -0.29717418029E+02 -0.99750650757E+01 -0.63376052693E+01  0.32324636087E+02  0.47000000000E+01 0. -1.
         -5    1    4    4    0  502 -0.15883487856E+02 -0.36558267201E+02  0.17047001007E+02  0.43605989618E+02  0.47000000000E+01 0.  1.
<mgrwt>
<rscale>  0 0.96461807E+02</rscale>
<asrwt>0</asrwt>
<pdfrwt beam="1">  1        1 0.13098468E-01 0.97853524E+02</pdfrwt>
<pdfrwt beam="2">  1       -1 0.20127783E-01 0.97853524E+02</pdfrwt>
<totfact> 0.81754508E+03</totfact>
</mgrwt>
</event>
<event>
 8    1  0.5224537E-004  0.1088386E+03  0.7546771E-02  0.1265278E+00
         -1   -1    0    0    0  501 -0.00000000000E+00  0.00000000000E+00  0.32823453441E+02  0.32823453441E+02  0.00000000000E+00 0.  1.
          1   -1    0    0  501    0  0.00000000000E+00 -0.00000000000E+00 -0.42102019762E+03  0.42102019762E+03  0.00000000000E+00 0. -1.
         23    2    1    2    0    0  0.75917201170E+00  0.53758358430E+02 -0.10076418409E+03  0.14832148714E+03  0.94632474922E+02 0.  0.
         23    2    1    2    0    0 -0.75917201170E+00 -0.53758358430E+02 -0.28743256010E+03  0.30552216392E+03  0.88519933361E+02 0.  0.
          5    1    3    3  502    0 -0.31301201986E+02  0.63437449639E+02 -0.85909633040E+02  0.11138505426E+03  0.47000000000E+01 0. -1.
         -5    1    3    3    0  502  0.32060373998E+02 -0.96790912087E+01 -0.14854551047E+02  0.36936432886E+02  0.47000000000E+01 0.  1.
          5    1    4    4  503    0  0.32303249194E+02  0.77742671228E+01 -0.92497135461E+02  0.98395880027E+02  0.47000000000E+01 0. -1.
         -5    1    4    4    0  503 -0.33062421206E+02 -0.61532625553E+02 -0.19493542464E+03  0.20712628390E+03  0.47000000000E+01 0.  1.
<mgrwt>
<rscale>  0 0.10749631E+03</rscale>
<asrwt>0</asrwt>
<pdfrwt beam="1">  1        1 0.64772341E-01 0.10883861E+03</pdfrwt>
<pdfrwt beam="2">  1       -1 0.50497618E-02 0.10883861E+03</pdfrwt>
<totfact> 0.91973939E+03</totfact>
</mgrwt>
</event>
<event>
 8    1  0.5224537E-004  0.9562246E+02  0.7546771E-02  0.1290554E+00
          2   -1    0    0  501    0  0.00000000000E+00  0.00000000000E+00  0.53595378050E+03  0.53595378050E+03  0.00000000000E+00 0. -1.
         -2   -1    0    0    0  501 -0.00000000000E+00 -0.00000000000E+00 -0.22776142934E+02  0.22776142934E+02  0.00000000000E+00 0.  1.
         23    2    1    2    0    0  0.20303072048E+02 -0.14828490955E+02  0.11231064094E+03  0.14661585597E+03  0.90831879181E+02 0.  0.
         23    2    1    2    0    0 -0.20303072048E+02  0.14828490955E+02  0.40086699663E+03  0.41211406746E+03  0.92258098499E+02 0.  0.
          5    1    4    4  502    0 -0.35491279550E+02  0.44359132112E+02  0.31124861751E+03  0.31642559224E+03  0.47000000000E+01 0. -1.
         -5    1    3    3    0  503  0.55490492652E+02 -0.16631013115E+02  0.77420142687E+02  0.96807819239E+02  0.47000000000E+01 0.  1.
          5    1    3    3  503    0 -0.35187420604E+02  0.18025221605E+01  0.34890498255E+02  0.49808036735E+02  0.47000000000E+01 0. -1.
         -5    1    4    4    0  502  0.15188207501E+02 -0.29530641157E+02  0.89618379117E+02  0.95688475220E+02  0.47000000000E+01 0.  1.
<mgrwt>
<rscale>  0 0.95276771E+02</rscale>
<asrwt>0</asrwt>
<pdfrwt beam="1">  1        2 0.82454419E-01 0.95622464E+02</pdfrwt>
<pdfrwt beam="2">  1       -2 0.35040224E-02 0.95622464E+02</pdfrwt>
<totfact> 0.17654131E+04</totfact>
</mgrwt>
</event>
<event>
 8    1  0.5224537E-004  0.9276337E+02  0.7546771E-02  0.1298691E+00
          2   -1    0    0  501    0  0.00000000000E+00  0.00000000000E+00  0.13283565692E+03  0.13283565692E+03  0.00000000000E+00 0. -1.
         -2   -1    0    0    0  501 -0.00000000000E+00 -0.00000000000E+00 -0.81732557205E+02  0.81732557205E+02  0.00000000000E+00 0.  1.
         23    2    1    2    0    0  0.53465589479E+01 -0.17924186654E+02  0.78687084919E+02  0.12164168964E+03  0.90858027519E+02 0.  0.
         23    2    1    2    0    0 -0.53465589479E+01  0.17924186654E+02 -0.27583985208E+02  0.92926524484E+02  0.86744455459E+02 0.  0.
          5    1    4    4  502    0  0.20804137417E+02  0.27499667540E+02  0.18092849365E+02  0.39223526698E+02  0.47000000000E+01 0. -1.
         -5    1    4    4    0  502 -0.26150696365E+02 -0.95754808862E+01 -0.45676834573E+02  0.53702997786E+02  0.47000000000E+01 0.  1.
          5    1    3    3  503    0  0.17426449843E+02  0.31305068186E+02  0.54224807525E+02  0.65162168467E+02  0.47000000000E+01 0. -1.
         -5    1    3    3    0  503 -0.12079890895E+02 -0.49229254840E+02  0.24462277394E+02  0.56479521169E+02  0.47000000000E+01 0.  1.
<mgrwt>
<rscale>  0 0.91740270E+02</rscale>
<asrwt>0</asrwt>
<pdfrwt beam="1">  1        2 0.20436255E-01 0.92763373E+02</pdfrwt>
<pdfrwt beam="2">  1       -2 0.12574240E-01 0.92763373E+02</pdfrwt>
<totfact> 0.11247673E+04</totfact>
</mgrwt>
</event>
<event>
 8    1  0.5224537E-004  0.9332989E+02  0.7546771E-02  0.1295680E+00
          1   -1    0    0  501    0  0.00000000000E+00  0.00000000000E+00  0.27907661511E+03  0.27907661511E+03  0.00000000000E+00 0. -1.
         -1   -1    0    0    0  501 -0.00000000000E+00 -0.00000000000E+00 -0.34737095396E+02  0.34737095396E+02  0.00000000000E+00 0.  1.
         23    2    1    2    0    0 -0.72232440180E+01 -0.13283952350E+02  0.70123295736E+02  0.11673792911E+03  0.92096844914E+02 0.  0.
         23    2    1    2    0    0  0.72232440180E+01  0.13283952350E+02  0.17421622398E+03  0.19707578140E+03  0.90878667867E+02 0.  0.
          5    1    4    4  502    0  0.19512421780E+02 -0.18785639143E+02  0.15504610378E+03  0.15746434243E+03  0.47000000000E+01 0. -1.
         -5    1    3    3    0  503  0.12890660003E+02  0.35231378923E+02  0.43610760949E+02  0.57718347574E+02  0.47000000000E+01 0.  1.
          5    1    3    3  503    0 -0.20113904021E+02 -0.48515331273E+02  0.26512534788E+02  0.59019581534E+02  0.47000000000E+01 0. -1.
         -5    1    4    4    0  502 -0.12289177762E+02  0.32069591493E+02  0.19170120205E+02  0.39611438970E+02  0.47000000000E+01 0.  1.
<mgrwt>
<rscale>  0 0.93027955E+02</rscale>
<asrwt>0</asrwt>
<pdfrwt beam="1">  1        1 0.42934862E-01 0.93329885E+02</pdfrwt>
<pdfrwt beam="2">  1       -1 0.53441687E-02 0.93329885E+02</pdfrwt>
<totfact> 0.13876415E+04</totfact>
</mgrwt>
</event>
<event>
 8    1  0.5224537E-004  0.1049537E+03  0.7546771E-02  0.1270292E+00
         -2   -1    0    0    0  501 -0.00000000000E+00  0.00000000000E+00  0.16209228207E+03  0.16209228207E+03  0.00000000000E+00 0.  1.
          2   -1    0    0  501    0  0.00000000000E+00 -0.00000000000E+00 -0.12132428074E+03  0.12132428074E+03  0.00000000000E+00 0. -1.
         23    2    1    2    0    0 -0.51367868022E+02 -0.42165394518E-02  0.11447139888E+03  0.15530283771E+03  0.91523834904E+02 0.  0.
         23    2    1    2    0    0  0.51367868022E+02  0.42165394518E-02 -0.73703397545E+02  0.12811372510E+03  0.91336071005E+02 0.  0.
          5    1    3    3  502    0  0.22897744414E+02 -0.16639996815E+02  0.30363578774E+02  0.41775987232E+02  0.47000000000E+01 0. -1.
         -5    1    3    3    0  502 -0.74265612436E+02  0.16635780276E+02  0.84107820103E+02  0.11352685047E+03  0.47000000000E+01 0.  1.
          5    1    4    4  503    0  0.30005752736E+02 -0.72136117331E+01 -0.92978850248E+02  0.98079243395E+02  0.47000000000E+01 0. -1.
         -5    1    4    4    0  503  0.21362115286E+02  0.72178282725E+01  0.19275452703E+02  0.30034481706E+02  0.47000000000E+01 0.  1.
<mgrwt>
<rscale>  0 0.10491271E+03</rscale>
<asrwt>0</asrwt>
<pdfrwt beam="1">  1        2 0.18665274E-01 0.10495366E+03</pdfrwt>
<pdfrwt beam="2">  1       -2 0.24937274E-01 0.10495366E+03</pdfrwt>
<totfact> 0.40464638E+03</totfact>
</mgrwt>
</event>
<event>
 8    1  0.5224537E-004  0.1023389E+03  0.7546771E-02  0.1276492E+00
          3   -1    0    0  501    0  0.00000000000E+00  0.00000000000E+00  0.79461938848E+02  0.79461938848E+02  0.00000000000E+00 0. -1.
         -3   -1    0    0    0  501 -0.00000000000E+00 -0.00000000000E+00 -0.18981978936E+03  0.18981978936E+03  0.00000000000E+00 0.  1.
         23    2    1    2    0    0 -0.37839517431E+02 -0.23170340865E+02  0.21268115063E+02  0.10255250094E+03  0.89977713661E+02 0.  0.
         23    2    1    2    0    0  0.37839517431E+02  0.23170340865E+02 -0.13162596558E+03  0.16672922727E+03  0.92220098874E+02 0.  0.
          5    1    3    3  502    0 -0.66480019987E+02 -0.15933917372E+02  0.55151260097E+01  0.68745831839E+02  0.47000000000E+01 0. -1.
         -5    1    4    4    0  503  0.88770177431E+01  0.29036436569E+02 -0.13326632610E+03  0.13676227464E+03  0.47000000000E+01 0.  1.
          5    1    4    4  503    0  0.28962499688E+02 -0.58660957040E+01  0.16403605265E+01  0.29966952625E+02  0.47000000000E+01 0. -1.
         -5    1    3    3    0  502  0.28640502556E+02 -0.72364234924E+01  0.15752989053E+02  0.33806669102E+02  0.47000000000E+01 0.  1.
<mgrwt>
<rscale>  0 0.10183109E+03</rscale>
<asrwt>0</asrwt>
<pdfrwt beam="1">  1        3 0.12224914E-01 0.10233885E+03</pdfrwt>
<pdfrwt beam="2">  1       -3 0.29203044E-01 0.10233885E+03</pdfrwt>
<totfact> 0.13013227E+03</totfact>
</mgrwt>
</event>
<event>
 8    1  0.5224537E-004  0.1601118E+03  0.7546771E-02  0.1188598E+00
          1   -1    0    0  501    0  0.00000000000E+00  0.00000000000E+00  0.84625859505E+03  0.84625859505E+03  0.00000000000E+00 0. -1.
         -1   -1    0    0    0  501 -0.00000000000E+00 -0.00000000000E+00 -0.10949056855E+03  0.10949056855E+03  0.00000000000E+00 0.  1.
         23    2    1    2    0    0  0.70603360779E+02  0.11135778795E+03 -0.38119794949E+02  0.16449261930E+03  0.90660418843E+02 0.  0.
         23    2    1    2    0    0 -0.70603360779E+02 -0.11135778795E+03  0.77488782145E+03  0.79125654430E+03  0.90831666128E+02 0.  0.
          5    1    4    4  502    0 -0.62571272970E+02 -0.81732640698E+02  0.72643929314E+03  0.73371079137E+03  0.47000000000E+01 0. -1.
         -5    1    4    4    0  502 -0.80320878091E+01 -0.29625147256E+02  0.48448528309E+02  0.57545752925E+02  0.47000000000E+01 0.  1.
          5    1    3    3  503    0  0.77445958370E+01  0.42729533492E+02  0.26505708849E+02  0.51092410383E+02  0.47000000000E+01 0. -1.
         -5    1    3    3    0  503  0.62858764942E+02  0.68628254462E+02 -0.64625503798E+02  0.11340020891E+03  0.47000000000E+01 0.  1.
<mgrwt>
<rscale>  0 0.16008751E+03</rscale>
<asrwt>0</asrwt>
<pdfrwt beam="1">  1        1 0.13019363E+00 0.16011178E+03</pdfrwt>
<pdfrwt beam="2">  1       -1 0.16844703E-01 0.16011178E+03</pdfrwt>
<totfact> 0.57006996E+02</totfact>
</mgrwt>
</event>
<event>
 8    1  0.5224537E-004  0.1022199E+03  0.7546771E-02  0.1275838E+00
          2   -1    0    0  501    0  0.00000000000E+00  0.00000000000E+00  0.11008184685E+04  0.11008184685E+04  0.00000000000E+00 0. -1.
         -2   -1    0    0    0  501 -0.00000000000E+00 -0.00000000000E+00 -0.10589101790E+02  0.10589101790E+02  0.00000000000E+00 0.  1.
         23    2    1    2    0    0  0.26230279373E+02 -0.35560710562E+02  0.72675145974E+03  0.73390502935E+03  0.92175464144E+02 0.  0.
         23    2    1    2    0    0 -0.26230279373E+02  0.35560710562E+02  0.36347790693E+03  0.37750254089E+03  0.91866141002E+02 0.  0.
          5    1    4    4  502    0  0.22130253368E+02  0.42265218913E+02  0.23797298692E+03  0.24275363921E+03  0.47000000000E+01 0. -1.
         -5    1    3    3    0  503 -0.78796143427E+01  0.24653426930E+02  0.10289433063E+03  0.10620363957E+03  0.47000000000E+01 0.  1.
          5    1    3    3  503    0  0.34109893715E+02 -0.60214137491E+02  0.62385712910E+03  0.62770138978E+03  0.47000000000E+01 0. -1.
         -5    1    4    4    0  502 -0.48360532740E+02 -0.67045083516E+01  0.12550492001E+03  0.13474890168E+03  0.47000000000E+01 0.  1.
<mgrwt>
<rscale>  0 0.10215012E+03</rscale>
<asrwt>0</asrwt>
<pdfrwt beam="1">  1        2 0.16935660E+00 0.10221990E+03</pdfrwt>
<pdfrwt beam="2">  1       -2 0.16290935E-02 0.10221990E+03</pdfrwt>
<totfact> 0.22265281E+04</totfact>
</mgrwt>
</event>
<event>
 8    1  0.6030712E-004  0.9502743E+02  0.7546771E-02  0.1291813E+00
         -2   -1    0    0    0  501 -0.00000000000E+00  0.00000000000E+00  0.28984519700E+02  0.28984519700E+02  0.00000000000E+00 0.  1.
          2   -1    0    0  501    0  0.00000000000E+00 -0.00000000000E+00 -0.66662277501E+03  0.66662277501E+03  0.00000000000E+00 0. -1.
         23    2    1    2    0    0  0.15807368069E+02 -0.15914589323E+02 -0.57504754486E+03  0.58284637020E+03  0.92342110452E+02 0.  0.
         23    2    1    2    0    0 -0.15807368069E+02  0.15914589323E+02 -0.62590710446E+02  0.11276092451E+03  0.91072948913E+02 0.  0.
          5    1    4    4  502    0 -0.38350873975E+02  0.66393880456E+01 -0.75282508610E+02  0.84878837827E+02  0.47000000000E+01 0. -1.
         -5    1    3    3    0  503  0.49501445610E+02 -0.30023893617E+02 -0.33797762997E+03  0.34293264012E+03  0.47000000000E+01 0.  1.
          5    1    3    3  503    0 -0.33694077541E+02  0.14109304294E+02 -0.23706991490E+03  0.23991373008E+03  0.47000000000E+01 0. -1.
         -5    1    4    4    0  502  0.22543505905E+02  0.92752012775E+01  0.12691798164E+02  0.27882086684E+02  0.47000000000E+01 0.  1.
<mgrwt>
<rscale>  0 0.94717714E+02</rscale>
<asrwt>0</asrwt>
<pdfrwt beam="1">  1        2 0.10255735E+00 0.95027430E+02</pdfrwt>
<pdfrwt beam="2">  1       -2 0.44591570E-02 0.95027430E+02</pdfrwt>
<totfact> 0.96898834E+03</totfact>
</mgrwt>
</event>
<event>
 8    1  0.5224537E-004  0.9878520E+02  0.7546771E-02  0.1285220E+00
         -2   -1    0    0    0  501 -0.00000000000E+00  0.00000000000E+00  0.59462277059E+02  0.59462277059E+02  0.00000000000E+00 0.  1.
          2   -1    0    0  501    0  0.00000000000E+00 -0.00000000000E+00 -0.22038639562E+03  0.22038639562E+03  0.00000000000E+00 0. -1.
         23    2    1    2    0    0  0.31228932097E+02  0.22293536560E+02 -0.15672621721E+03  0.18526095739E+03  0.91028936052E+02 0.  0.
         23    2    1    2    0    0 -0.31228932097E+02 -0.22293536560E+02 -0.41979013574E+01  0.94587715299E+02  0.86353723356E+02 0.  0.
          5    1    4    4  502    0  0.15698263823E+02 -0.30417308844E+02  0.21071844836E+02  0.40469257581E+02  0.47000000000E+01 0. -1.
         -5    1    3    3    0  503 -0.17686122509E+01  0.35824272485E+02 -0.15206084809E+02  0.39240559420E+02  0.47000000000E+01 0.  1.
          5    1    3    3  503    0  0.32997544347E+02 -0.13530735926E+02 -0.14152013240E+03  0.14602039796E+03  0.47000000000E+01 0. -1.
         -5    1    4    4    0  502 -0.46927195920E+02  0.81237722848E+01 -0.25269746193E+02  0.54118457717E+02  0.47000000000E+01 0.  1.
<mgrwt>
<rscale>  0 0.97694599E+02</rscale>
<asrwt>0</asrwt>
<pdfrwt beam="1">  1        2 0.33905599E-01 0.98785197E+02</pdfrwt>
<pdfrwt beam="2">  1       -2 0.91480427E-02 0.98785197E+02</pdfrwt>
<totfact> 0.10745719E+04</totfact>
</mgrwt>
</event>
<event>
 8    1  0.5224537E-004  0.9819773E+02  0.7546771E-02  0.1287719E+00
          2   -1    0    0  501    0  0.00000000000E+00  0.00000000000E+00  0.10878732530E+04  0.10878732530E+04  0.00000000000E+00 0. -1.
         -2   -1    0    0    0  501 -0.00000000000E+00 -0.00000000000E+00 -0.85005373718E+01  0.85005373718E+01  0.00000000000E+00 0.  1.
         23    2    1    2    0    0 -0.24902086709E+02 -0.21779055992E+02  0.43646832295E+03  0.44601323526E+03  0.85608223221E+02 0.  0.
         23    2    1    2    0    0  0.24902086709E+02  0.21779055992E+02  0.64290439262E+03  0.65036055506E+03  0.92457299991E+02 0.  0.
          5    1    3    3  502    0 -0.10600353165E+02  0.30214274622E+02  0.96995441032E+02  0.10225201934E+03  0.47000000000E+01 0. -1.
         -5    1    3    3    0  502 -0.14301733544E+02 -0.51993330614E+02  0.33947288192E+03  0.34376121592E+03  0.47000000000E+01 0.  1.
          5    1    4    4  503    0  0.54869522836E+02  0.20691889225E+02  0.53636662704E+03  0.53958323493E+03  0.47000000000E+01 0. -1.
         -5    1    4    4    0  503 -0.29967436127E+02  0.10871667671E+01  0.10653776558E+03  0.11077732013E+03  0.47000000000E+01 0.  1.
<mgrwt>
<rscale>  0 0.96551889E+02</rscale>
<asrwt>0</asrwt>
<pdfrwt beam="1">  1        2 0.16736501E+00 0.98197727E+02</pdfrwt>
<pdfrwt beam="2">  1       -2 0.13077758E-02 0.98197727E+02</pdfrwt>
<totfact> 0.30891510E+04</totfact>
</mgrwt>
</event>
<event>
 8    1  0.5224537E-004  0.9315208E+02  0.7546771E-02  0.1295901E+00
         -1   -1    0    0    0  501 -0.00000000000E+00  0.00000000000E+00  0.23499206430E+02  0.23499206430E+02  0.00000000000E+00 0.  1.
          1   -1    0    0  501    0  0.00000000000E+00 -0.00000000000E+00 -0.36971840287E+03  0.36971840287E+03  0.00000000000E+00 0. -1.
         23    2    1    2    0    0 -0.37834956691E+00 -0.14429164541E+02 -0.15206702084E+03  0.17787514400E+03  0.91141889867E+02 0.  0.
         23    2    1    2    0    0  0.37834956691E+00  0.14429164541E+02 -0.19415217560E+03  0.21534246530E+03  0.92026985893E+02 0.  0.
          5    1    3    3  502    0 -0.11820312015E+02  0.32305589574E+02 -0.10424349165E+03  0.10987341100E+03  0.47000000000E+01 0. -1.
         -5    1    4    4    0  503 -0.41923119434E+02 -0.92512921411E+01 -0.73799781801E+02  0.85508082327E+02  0.47000000000E+01 0.  1.
          5    1    4    4  503    0  0.42301469001E+02  0.23680456682E+02 -0.12035239380E+03  0.12983438297E+03  0.47000000000E+01 0. -1.
         -5    1    3    3    0  502  0.11441962448E+02 -0.46734754114E+02 -0.47823529191E+02  0.68001733000E+02  0.47000000000E+01 0.  1.
<mgrwt>
<rscale>  0 0.92932731E+02</rscale>
<asrwt>0</asrwt>
<pdfrwt beam="1">  1        1 0.56879753E-01 0.93152080E+02</pdfrwt>
<pdfrwt beam="2">  1       -1 0.36152626E-02 0.93152080E+02</pdfrwt>
<totfact> 0.17373442E+04</totfact>
</mgrwt>
</event>
<event>
 8    1  0.5224537E-004  0.9139817E+02  0.7546771E-02  0.1302263E+00
          1   -1    0    0  501    0  0.00000000000E+00  0.00000000000E+00  0.13838406887E+03  0.13838406887E+03  0.00000000000E+00 0. -1.
         -1   -1    0    0    0  501 -0.00000000000E+00 -0.00000000000E+00 -0.57758773498E+02  0.57758773498E+02  0.00000000000E+00 0.  1.
         23    2    1    2    0    0 -0.23753181333E+01 -0.14967861115E+00  0.48956594898E+02  0.10368400861E+03  0.91367176364E+02 0.  0.
         23    2    1    2    0    0  0.23753181333E+01  0.14967861115E+00  0.31668700475E+02  0.92458833763E+02  0.86833546576E+02 0.  0.
          5    1    4    4  502    0  0.22752632874E+02  0.37390431269E+02  0.18647698074E+02  0.47807460680E+02  0.47000000000E+01 0. -1.
         -5    1    4    4    0  502 -0.20377314741E+02 -0.37240752658E+02  0.13021002401E+02  0.44651373082E+02  0.47000000000E+01 0.  1.
          5    1    3    3  503    0  0.94718692720E+01  0.24186452727E+02  0.66186511823E+02  0.71256193768E+02  0.47000000000E+01 0. -1.
         -5    1    3    3    0  503 -0.11847187405E+02 -0.24336131338E+02 -0.17229916925E+02  0.32427814838E+02  0.47000000000E+01 0.  1.
<mgrwt>
<rscale>  0 0.90243468E+02</rscale>
<asrwt>0</asrwt>
<pdfrwt beam="1">  1        1 0.21289857E-01 0.91398170E+02</pdfrwt>
<pdfrwt beam="2">  1       -1 0.88859651E-02 0.91398170E+02</pdfrwt>
<totfact> 0.15448376E+04</totfact>
</mgrwt>
</event>
<event>
 8    1  0.6106144E-004  0.2498764E+03  0.7546771E-02  0.1113770E+00
         -1   -1    0    0    0  501 -0.00000000000E+00  0.00000000000E+00  0.22499046216E+03  0.22499046216E+03  0.00000000000E+00 0.  1.
          1   -1    0    0  501    0  0.00000000000E+00 -0.00000000000E+00 -0.49041141533E+03  0.49041141533E+03  0.00000000000E+00 0. -1.
         23    2    1    2    0    0 -0.18946204009E+03  0.13368745227E+03 -0.36951467327E+03  0.44471068120E+03  0.86361430488E+02 0.  0.
         23    2    1    2    0    0  0.18946204009E+03 -0.13368745227E+03  0.10409372011E+03  0.27069119629E+03  0.93112951053E+02 0.  0.
          5    1    4    4  502    0  0.32458349721E+02 -0.26739084965E+01 -0.12562986495E+02  0.35222335001E+02  0.47000000000E+01 0. -1.
         -5    1    4    4    0  502  0.15700369037E+03 -0.13101354377E+03  0.11665670661E+03  0.23546886129E+03  0.47000000000E+01 0.  1.
          5    1    3    3  503    0 -0.14209938164E+03  0.13822094139E+03 -0.31484161024E+03  0.37208143254E+03  0.47000000000E+01 0. -1.
         -5    1    3    3    0  503 -0.47362658451E+02 -0.45334891215E+01 -0.54673063034E+02  0.72629248658E+02  0.47000000000E+01 0.  1.
<mgrwt>
<rscale>  0 0.24926504E+03</rscale>
<asrwt>0</asrwt>
<pdfrwt beam="1">  1        1 0.75447909E-01 0.24987641E+03</pdfrwt>
<pdfrwt beam="2">  1       -1 0.34613918E-01 0.24987641E+03</pdfrwt>
<totfact> 0.37271488E+02</totfact>
</mgrwt>
</event>
<event>
 8    1  0.5224537E-004  0.9387691E+02  0.7546771E-02  0.1294252E+00
          3   -1    0    0  501    0  0.00000000000E+00  0.00000000000E+00  0.13452644454E+02  0.13452644454E+02  0.00000000000E+00 0. -1.
         -3   -1    0    0    0  501 -0.00000000000E+00 -0.00000000000E+00 -0.69519464891E+03  0.69519464891E+03  0.00000000000E+00 0.  1.
         23    2    1    2    0    0  0.31840556545E+01  0.86142918638E+01 -0.43091398150E+03  0.44082725915E+03  0.92506587461E+02 0.  0.
         23    2    1    2    0    0 -0.31840556545E+01 -0.86142918638E+01 -0.25082802296E+03  0.26782003421E+03  0.93426598950E+02 0.  0.
          5    1    4    4  502    0 -0.37690947640E+02 -0.26288442467E+02 -0.78152346205E+02  0.90783087405E+02  0.47000000000E+01 0. -1.
         -5    1    3    3    0  503  0.35970206180E+02 -0.23914119911E+02 -0.15247529038E+03  0.15854508835E+03  0.47000000000E+01 0.  1.
          5    1    3    3  503    0 -0.32786150526E+02  0.32528411775E+02 -0.27843869112E+03  0.28228217080E+03  0.47000000000E+01 0. -1.
         -5    1    4    4    0  502  0.34506891986E+02  0.17674150603E+02 -0.17267567675E+03  0.17703694681E+03  0.47000000000E+01 0.  1.
<mgrwt>
<rscale>  0 0.93647176E+02</rscale>
<asrwt>0</asrwt>
<pdfrwt beam="1">  1        3 0.20696371E-02 0.93876907E+02</pdfrwt>
<pdfrwt beam="2">  1       -3 0.10695305E+00 0.93876907E+02</pdfrwt>
<totfact> 0.15090644E+03</totfact>
</mgrwt>
</event>
<event>
 8    1  0.5224537E-004  0.9727016E+02  0.7546771E-02  0.1286163E+00
         -2   -1    0    0    0  501 -0.00000000000E+00  0.00000000000E+00  0.25958146321E+02  0.25958146321E+02  0.00000000000E+00 0.  1.
          2   -1    0    0  501    0  0.00000000000E+00 -0.00000000000E+00 -0.61145292245E+03  0.61145292245E+03  0.00000000000E+00 0. -1.
         23    2    1    2    0    0  0.34031489935E+02 -0.11647419012E+01 -0.90113963253E+02  0.13257086319E+03  0.91076937048E+02 0.  0.
         23    2    1    2    0    0 -0.34031489935E+02  0.11647419012E+01 -0.49538081288E+03  0.50484020559E+03  0.91115226375E+02 0.  0.
          5    1    4    4  502    0 -0.47774531204E+02 -0.26019490522E+02 -0.41793331471E+03  0.42148518985E+03  0.47000000000E+01 0. -1.
         -5    1    3    3    0  503  0.46275616471E+02  0.34146586854E+02 -0.41522329375E+02  0.71088788921E+02  0.47000000000E+01 0.  1.
          5    1    3    3  503    0 -0.12244126536E+02 -0.35311328756E+02 -0.48591633877E+02  0.61482074265E+02  0.47000000000E+01 0. -1.
         -5    1    4    4    0  502  0.13743041270E+02  0.27184232423E+02 -0.77447498171E+02  0.83355015738E+02  0.47000000000E+01 0.  1.
<mgrwt>
<rscale>  0 0.97261189E+02</rscale>
<asrwt>0</asrwt>
<pdfrwt beam="1">  1        2 0.94069679E-01 0.97270157E+02</pdfrwt>
<pdfrwt beam="2">  1       -2 0.39935610E-02 0.97270157E+02</pdfrwt>
<totfact> 0.12604636E+04</totfact>
</mgrwt>
</event>
<event>
 8    1  0.5224537E-004  0.1008538E+03  0.7546771E-02  0.1285014E+00
          1   -1    0    0  501    0  0.00000000000E+00  0.00000000000E+00  0.11319582381E+03  0.11319582381E+03  0.00000000000E+00 0. -1.
         -1   -1    0    0    0  501 -0.00000000000E+00 -0.00000000000E+00 -0.14961681788E+03  0.14961681788E+03  0.00000000000E+00 0.  1.
         23    2    1    2    0    0 -0.24607819654E+02 -0.55493836235E+01  0.72108265041E+02  0.11465698550E+03  0.85500187071E+02 0.  0.
         23    2    1    2    0    0  0.24607819654E+02  0.55493836235E+01 -0.10852925910E+03  0.14815565619E+03  0.97648133282E+02 0.  0.
          5    1    4    4  502    0 -0.34035718253E+02 -0.39800840303E+01 -0.16038376938E+02  0.38125984849E+02  0.47000000000E+01 0. -1.
         -5    1    3    3    0  503 -0.25536039630E+02 -0.31463610429E+02  0.77662605021E+02  0.87724673382E+02  0.47000000000E+01 0.  1.
          5    1    3    3  503    0  0.92821997558E+00  0.25914226805E+02 -0.55543399801E+01  0.26932312115E+02  0.47000000000E+01 0. -1.
         -5    1    4    4    0  502  0.58643537908E+02  0.95294676538E+01 -0.92490882167E+02  0.11002967134E+03  0.47000000000E+01 0.  1.
<mgrwt>
<rscale>  0 0.97789488E+02</rscale>
<asrwt>0</asrwt>
<pdfrwt beam="1">  1        1 0.17414742E-01 0.10085385E+03</pdfrwt>
<pdfrwt beam="2">  1       -1 0.23017972E-01 0.10085385E+03</pdfrwt>
<totfact> 0.45870933E+03</totfact>
</mgrwt>
</event>
<event>
 8    1  0.5224537E-004  0.9471659E+02  0.7546771E-02  0.1293054E+00
          1   -1    0    0  501    0  0.00000000000E+00  0.00000000000E+00  0.66574908763E+03  0.66574908763E+03  0.00000000000E+00 0. -1.
         -1   -1    0    0    0  501 -0.00000000000E+00 -0.00000000000E+00 -0.37530156600E+02  0.37530156600E+02  0.00000000000E+00 0.  1.
         23    2    1    2    0    0  0.22268725438E+02  0.42328870179E+01  0.32085212058E+02  0.10000346832E+03  0.91964228795E+02 0.  0.
         23    2    1    2    0    0 -0.22268725438E+02 -0.42328870179E+01  0.59613371897E+03  0.60327577591E+03  0.89735374526E+02 0.  0.
          5    1    3    3  502    0  0.45785872394E+02 -0.27501288760E+02  0.26592382405E+02  0.59849075149E+02  0.47000000000E+01 0. -1.
         -5    1    3    3    0  502 -0.23517146955E+02  0.31734175778E+02  0.54928296534E+01  0.40154393169E+02  0.47000000000E+01 0.  1.
          5    1    4    4  503    0 -0.55210836158E+02  0.88817144466E+01  0.32780650385E+03  0.33257527757E+03  0.47000000000E+01 0. -1.
         -5    1    4    4    0  503  0.32942110720E+02 -0.13114601465E+02  0.26832721512E+03  0.27070049835E+03  0.47000000000E+01 0.  1.
<mgrwt>
<rscale>  0 0.94171263E+02</rscale>
<asrwt>0</asrwt>
<pdfrwt beam="1">  1        1 0.10242293E+00 0.94716592E+02</pdfrwt>
<pdfrwt beam="2">  1       -1 0.57738707E-02 0.94716592E+02</pdfrwt>
<totfact> 0.41047982E+03</totfact>
</mgrwt>
</event>
<event>
 8    1  0.5224537E-004  0.1128249E+03  0.7546771E-02  0.1256340E+00
         -4   -1    0    0    0  501 -0.00000000000E+00  0.00000000000E+00  0.18507003970E+03  0.18507003970E+03  0.00000000000E+00 0.  1.
          4   -1    0    0  501    0  0.00000000000E+00 -0.00000000000E+00 -0.67999756619E+02  0.67999756619E+02  0.00000000000E+00 0. -1.
         23    2    1    2    0    0 -0.37013207438E+02  0.53426996642E+02  0.48823891703E+02  0.12293588417E+03  0.92222761402E+02 0.  0.
         23    2    1    2    0    0  0.37013207438E+02 -0.53426996642E+02  0.68246391381E+02  0.13013391215E+03  0.89737637925E+02 0.  0.
          5    1    3    3  502    0 -0.35001441541E+02 -0.18381861916E+02  0.96040254316E+01  0.40955110327E+02  0.47000000000E+01 0. -1.
         -5    1    3    3    0  502 -0.20117658975E+01  0.71808858558E+02  0.39219866271E+02  0.81980773842E+02  0.47000000000E+01 0.  1.
          5    1    4    4  503    0 -0.22711082126E+02 -0.44495907289E+02  0.32954584841E+02  0.60031439087E+02  0.47000000000E+01 0. -1.
         -5    1    4    4    0  503  0.59724289564E+02 -0.89310893533E+01  0.35291806539E+02  0.70102473065E+02  0.47000000000E+01 0.  1.
<mgrwt>
<rscale>  0 0.11231595E+03</rscale>
<asrwt>0</asrwt>
<pdfrwt beam="1">  1        4 0.10461501E-01 0.11282491E+03</pdfrwt>
<pdfrwt beam="2">  1       -4 0.28472314E-01 0.11282491E+03</pdfrwt>
<totfact> 0.13044829E+03</totfact>
</mgrwt>
</event>
<event>
 8    1  0.5224537E-004  0.1033379E+03  0.7546771E-02  0.1275738E+00
         -2   -1    0    0    0  501 -0.00000000000E+00  0.00000000000E+00  0.10159891699E+03  0.10159891699E+03  0.00000000000E+00 0.  1.
          2   -1    0    0  501    0  0.00000000000E+00 -0.00000000000E+00 -0.14767448097E+03  0.14767448097E+03  0.00000000000E+00 0. -1.
         23    2    1    2    0    0 -0.32403589225E+01  0.38888707229E+02  0.47667620046E+02  0.10975099455E+03  0.90830872106E+02 0.  0.
         23    2    1    2    0    0  0.32403589225E+01 -0.38888707229E+02 -0.93743184026E+02  0.13952240341E+03  0.95686388926E+02 0.  0.
          5    1    4    4  502    0  0.40116562702E+02 -0.39747064834E+02 -0.83570299233E+02  0.10097154391E+03  0.47000000000E+01 0. -1.
         -5    1    4    4    0  502 -0.36876203780E+02  0.85835760510E+00 -0.10172884793E+02  0.38550859497E+02  0.47000000000E+01 0.  1.
          5    1    3    3  503    0  0.35793304004E+02 -0.48763211758E+01  0.43383857186E+01  0.36685838009E+02  0.47000000000E+01 0. -1.
         -5    1    3    3    0  503 -0.39033662927E+02  0.43765028404E+02  0.43329234327E+02  0.73065156539E+02  0.47000000000E+01 0.  1.
<mgrwt>
<rscale>  0 0.10219945E+03</rscale>
<asrwt>0</asrwt>
<pdfrwt beam="1">  1        2 0.22719151E-01 0.10333788E+03</pdfrwt>
<pdfrwt beam="2">  1       -2 0.15630603E-01 0.10333788E+03</pdfrwt>
<totfact> 0.71121843E+03</totfact>
</mgrwt>
</event>
<event>
 8    1  0.5224537E-004  0.1228216E+03  0.7546771E-02  0.1238938E+00
          2   -1    0    0  501    0  0.00000000000E+00  0.00000000000E+00  0.12882197401E+03  0.12882197401E+03  0.00000000000E+00 0. -1.
         -2   -1    0    0    0  501 -0.00000000000E+00 -0.00000000000E+00 -0.12797831314E+03  0.12797831314E+03  0.00000000000E+00 0.  1.
         23    2    1    2    0    0  0.48443929194E+02 -0.67318624941E+02 -0.38705451799E+02  0.12776821309E+03  0.89151515622E+02 0.  0.
         23    2    1    2    0    0 -0.48443929194E+02  0.67318624941E+02  0.39549112669E+02  0.12903207406E+03  0.90589912700E+02 0.  0.
          5    1    4    4  502    0 -0.45375650201E+02 -0.87265481890E+01  0.12169093027E+02  0.48013322105E+02  0.47000000000E+01 0. -1.
         -5    1    3    3    0  503  0.55961751397E+02 -0.27988536615E+01 -0.23167264744E+02  0.60814170691E+02  0.47000000000E+01 0.  1.
          5    1    3    3  503    0 -0.75178222027E+01 -0.64519771280E+02 -0.15538187055E+02  0.66954042399E+02  0.47000000000E+01 0. -1.
         -5    1    4    4    0  502 -0.30682789927E+01  0.76045173130E+02  0.27380019642E+02  0.81018751953E+02  0.47000000000E+01 0.  1.
<mgrwt>
<rscale>  0 0.12255647E+03</rscale>
<asrwt>0</asrwt>
<pdfrwt beam="1">  1        2 0.19818765E-01 0.12282159E+03</pdfrwt>
<pdfrwt beam="2">  1       -2 0.19688971E-01 0.12282159E+03</pdfrwt>
<totfact> 0.57244251E+03</totfact>
</mgrwt>
</event>
<event>
 8    1  0.5224537E-004  0.1432148E+03  0.7546771E-02  0.1210080E+00
          1   -1    0    0  501    0  0.00000000000E+00  0.00000000000E+00  0.11373770978E+04  0.11373770978E+04  0.00000000000E+00 0. -1.
         -1   -1    0    0    0  501 -0.00000000000E+00 -0.00000000000E+00 -0.18305704278E+02  0.18305704278E+02  0.00000000000E+00 0.  1.
         23    2    1    2    0    0 -0.89800243243E+02 -0.57927265464E+02  0.44429774625E+03  0.46587851515E+03  0.90678838695E+02 0.  0.
         23    2    1    2    0    0  0.89800243243E+02  0.57927265464E+02  0.67477364723E+03  0.68980428689E+03  0.95345830725E+02 0.  0.
          5    1    3    3  502    0  0.17698247520E+02 -0.16320707738E+02  0.89160813267E+02  0.92473423690E+02  0.47000000000E+01 0. -1.
         -5    1    3    3    0  502 -0.10749849076E+03 -0.41606557726E+02  0.35513693298E+03  0.37340509146E+03  0.47000000000E+01 0.  1.
          5    1    4    4  503    0  0.80248944812E+02 -0.35746224193E+01  0.35650579569E+03  0.36547386148E+03  0.47000000000E+01 0. -1.
         -5    1    4    4    0  503  0.95512984311E+01  0.61501887883E+02  0.31826785154E+03  0.32433042540E+03  0.47000000000E+01 0.  1.
<mgrwt>
<rscale>  0 0.14244263E+03</rscale>
<asrwt>0</asrwt>
<pdfrwt beam="1">  1        1 0.17498104E+00 0.14321480E+03</pdfrwt>
<pdfrwt beam="2">  1       -1 0.28162631E-02 0.14321480E+03</pdfrwt>
<totfact> 0.51477119E+03</totfact>
</mgrwt>
</event>
<event>
 8    1  0.5224537E-004  0.9415026E+02  0.7546771E-02  0.1293388E+00
          1   -1    0    0  501    0  0.00000000000E+00  0.00000000000E+00  0.55661066635E+03  0.55661066635E+03  0.00000000000E+00 0. -1.
         -1   -1    0    0    0  501 -0.00000000000E+00 -0.00000000000E+00 -0.15851872806E+02  0.15851872806E+02  0.00000000000E+00 0.  1.
         23    2    1    2    0    0 -0.19465970016E+02  0.66415734136E+01  0.27719550570E+03  0.29258778515E+03  0.91363171748E+02 0.  0.
         23    2    1    2    0    0  0.19465970016E+02 -0.66415734136E+01  0.26356328785E+03  0.27987475401E+03  0.91876203371E+02 0.  0.
          5    1    3    3  502    0 -0.28076325139E+02  0.42855445485E+02  0.20335273966E+03  0.20976009146E+03  0.47000000000E+01 0. -1.
         -5    1    3    3    0  502  0.86103551231E+01 -0.36213872072E+02  0.73842766043E+02  0.82827693694E+02  0.47000000000E+01 0.  1.
          5    1    4    4  503    0  0.41632530446E+02 -0.28064472320E+02  0.22343424328E+03  0.22905421469E+03  0.47000000000E+01 0. -1.
         -5    1    4    4    0  503 -0.22166560430E+02  0.21422898906E+02  0.40129044565E+02  0.50820539317E+02  0.47000000000E+01 0.  1.
<mgrwt>
<rscale>  0 0.94024865E+02</rscale>
<asrwt>0</asrwt>
<pdfrwt beam="1">  1        1 0.85632395E-01 0.94150259E+02</pdfrwt>
<pdfrwt beam="2">  1       -1 0.24387501E-02 0.94150259E+02</pdfrwt>
<totfact> 0.18256518E+04</totfact>
</mgrwt>
</event>
<event>
 8    1  0.5224537E-004  0.1084353E+03  0.7546771E-02  0.1263969E+00
         -1   -1    0    0    0  501 -0.00000000000E+00  0.00000000000E+00  0.10560518923E+03  0.10560518923E+03  0.00000000000E+00 0.  1.
          1   -1    0    0  501    0  0.00000000000E+00 -0.00000000000E+00 -0.11940570450E+03  0.11940570450E+03  0.00000000000E+00 0. -1.
         23    2    1    2    0    0 -0.29786585540E+02 -0.50302272164E+02 -0.37966351610E+02  0.11488973792E+03  0.91327152386E+02 0.  0.
         23    2    1    2    0    0  0.29786585540E+02  0.50302272164E+02  0.24165836337E+02  0.11012115581E+03  0.90139458884E+02 0.  0.
          5    1    3    3  502    0 -0.35936855107E+02 -0.70063653589E+02 -0.96028591128E+01  0.79464948325E+02  0.47000000000E+01 0. -1.
         -5    1    3    3    0  502  0.61502695668E+01  0.19761381425E+02 -0.28363492497E+02  0.35424789600E+02  0.47000000000E+01 0.  1.
          5    1    4    4  503    0 -0.28868330768E+02  0.49346459861E+01 -0.54073547087E+01  0.30150634111E+02  0.47000000000E+01 0. -1.
         -5    1    4    4    0  503  0.58654916308E+02  0.45367626178E+02  0.29573191046E+02  0.79970521698E+02  0.47000000000E+01 0.  1.
<mgrwt>
<rscale>  0 0.10818480E+03</rscale>
<asrwt>0</asrwt>
<pdfrwt beam="1">  1        1 0.18370108E-01 0.10843527E+03</pdfrwt>
<pdfrwt beam="2">  1       -1 0.16246952E-01 0.10843527E+03</pdfrwt>
<totfact> 0.74994123E+03</totfact>
</mgrwt>
</event>
<event>
 8    1  0.5224537E-004  0.9452830E+02  0.7546771E-02  0.1292754E+00
          1   -1    0    0  501    0  0.00000000000E+00  0.00000000000E+00  0.76721570217E+03  0.76721570217E+03  0.00000000000E+00 0. -1.
         -1   -1    0    0    0  501 -0.00000000000E+00 -0.00000000000E+00 -0.20039197315E+02  0.20039197315E+02  0.00000000000E+00 0.  1.
         23    2    1    2    0    0  0.16350499950E+02 -0.15846294191E+02  0.63102014000E+03  0.63806113868E+03  0.91745058247E+02 0.  0.
         23    2    1    2    0    0 -0.16350499950E+02  0.15846294191E+02  0.11615636485E+03  0.14919376080E+03  0.90818683538E+02 0.  0.
          5    1    4    4  502    0 -0.47445469425E+02 -0.26600175801E+01  0.96685102492E+02  0.10783435124E+03  0.47000000000E+01 0. -1.
         -5    1    3    3    0  503  0.29492313954E+02 -0.44447278044E+02  0.51429750457E+03  0.51707772173E+03  0.47000000000E+01 0.  1.
          5    1    3    3  503    0 -0.13141814003E+02  0.28600983853E+02  0.11672263544E+03  0.12098341695E+03  0.47000000000E+01 0. -1.
         -5    1    4    4    0  502  0.31094969475E+02  0.18506311771E+02  0.19471262356E+02  0.41359409567E+02  0.47000000000E+01 0.  1.
<mgrwt>
<rscale>  0 0.94302787E+02</rscale>
<asrwt>0</asrwt>
<pdfrwt beam="1">  1        1 0.11803316E+00 0.94528301E+02</pdfrwt>
<pdfrwt beam="2">  1       -1 0.30829540E-02 0.94528301E+02</pdfrwt>
<totfact> 0.83710039E+03</totfact>
</mgrwt>
</event>
<event>
 8    1  0.5224537E-004  0.1193736E+03  0.7546771E-02  0.1245146E+00
         -1   -1    0    0    0  501 -0.00000000000E+00  0.00000000000E+00  0.33388498317E+03  0.33388498317E+03  0.00000000000E+00 0.  1.
          1   -1    0    0  501    0  0.00000000000E+00 -0.00000000000E+00 -0.43205071242E+02  0.43205071242E+02  0.00000000000E+00 0. -1.
         23    2    1    2    0    0  0.43633113369E+02 -0.61093512733E+02  0.11304683579E+03  0.16440691071E+03  0.92810448378E+02 0.  0.
         23    2    1    2    0    0 -0.43633113369E+02  0.61093512733E+02  0.17763307614E+03  0.21268314370E+03  0.89690267000E+02 0.  0.
          5    1    3    3  502    0  0.48136977874E+02 -0.40807340913E+02  0.16306408187E+02  0.65348272045E+02  0.47000000000E+01 0. -1.
         -5    1    4    4    0  503  0.15019303912E+02  0.55597609872E+02  0.83752527790E+02  0.10175091953E+03  0.47000000000E+01 0.  1.
          5    1    4    4  503    0 -0.58652417281E+02  0.54959028609E+01  0.93880548349E+02  0.11093222417E+03  0.47000000000E+01 0. -1.
         -5    1    3    3    0  502 -0.45038645048E+01 -0.20286171819E+02  0.96740427598E+02  0.99058638666E+02  0.47000000000E+01 0.  1.
<mgrwt>
<rscale>  0 0.11876659E+03</rscale>
<asrwt>0</asrwt>
<pdfrwt beam="1">  1        1 0.66469342E-02 0.11937355E+03</pdfrwt>
<pdfrwt beam="2">  1       -1 0.51366919E-01 0.11937355E+03</pdfrwt>
<totfact> 0.41602736E+03</totfact>
</mgrwt>
</event>
<event>
 8    1  0.5224537E-004  0.1207045E+03  0.7546771E-02  0.1242965E+00
         -1   -1    0    0    0  501 -0.00000000000E+00  0.00000000000E+00  0.51670234664E+02  0.51670234664E+02  0.00000000000E+00 0.  1.
          1   -1    0    0  501    0  0.00000000000E+00 -0.00000000000E+00 -0.36732166614E+03  0.36732166614E+03  0.00000000000E+00 0. -1.
         23    2    1    2    0    0  0.65458601023E+02  0.38018746201E+02 -0.26338958440E+03  0.28973028857E+03  0.94017623006E+02 0.  0.
         23    2    1    2    0    0 -0.65458601023E+02 -0.38018746201E+02 -0.52261847077E+02  0.12926161223E+03  0.90813050967E+02 0.  0.
          5    1    3    3  502    0  0.23229894300E+02  0.56467661698E+02 -0.80966558251E+02  0.10151797064E+03  0.47000000000E+01 0.  1.
         -5    1    3    3    0  502  0.42228706723E+02 -0.18448915497E+02 -0.18242302614E+03  0.18821231793E+03  0.47000000000E+01 0. -1.
          5    1    4    4  503    0 -0.87615669877E+02 -0.22405765755E+02 -0.37218094664E+02  0.97907101466E+02  0.47000000000E+01 0. -1.
         -5    1    4    4    0  503  0.22157068854E+02 -0.15612980446E+02 -0.15043752414E+02  0.31354510765E+02  0.47000000000E+01 0.  1.
<mgrwt>
<rscale>  0 0.12007988E+03</rscale>
<asrwt>0</asrwt>
<pdfrwt beam="1">  1        1 0.56511025E-01 0.12070446E+03</pdfrwt>
<pdfrwt beam="2">  1       -1 0.79492669E-02 0.12070446E+03</pdfrwt>
<totfact> 0.55967240E+03</totfact>
</mgrwt>
</event>
<event>
 8    1  0.5224537E-004  0.9392315E+02  0.7546771E-02  0.1296887E+00
          4   -1    0    0  501    0  0.00000000000E+00  0.00000000000E+00  0.15573487694E+03  0.15573487694E+03  0.00000000000E+00 0. -1.
         -4   -1    0    0    0  501 -0.00000000000E+00 -0.00000000000E+00 -0.53614274493E+02  0.53614274493E+02  0.00000000000E+00 0.  1.
         23    2    1    2    0    0 -0.14513442271E+02  0.16040318960E+02  0.42293750597E+02  0.97990225359E+02  0.85705257059E+02 0.  0.
         23    2    1    2    0    0  0.14513442271E+02 -0.16040318960E+02  0.59826851846E+02  0.11135892607E+03  0.91398174898E+02 0.  0.
          5    1    4    4  502    0  0.22286141637E+02  0.19644864602E+02  0.67362648692E+02  0.73772686362E+02  0.47000000000E+01 0. -1.
         -5    1    3    3    0  503  0.50798044558E+01 -0.25643407033E+02 -0.97862352386E+01  0.28306344479E+02  0.47000000000E+01 0.  1.
          5    1    3    3  503    0 -0.19593246727E+02  0.41683725993E+02  0.52079985835E+02  0.69683880881E+02  0.47000000000E+01 0. -1.
         -5    1    4    4    0  502 -0.77726993656E+01 -0.35685183562E+02 -0.75357968459E+01  0.37586239708E+02  0.47000000000E+01 0.  1.
<mgrwt>
<rscale>  0 0.92508995E+02</rscale>
<asrwt>0</asrwt>
<pdfrwt beam="1">  1        4 0.23959212E-01 0.93923151E+02</pdfrwt>
<pdfrwt beam="2">  1       -4 0.82483500E-02 0.93923151E+02</pdfrwt>
<totfact> 0.25462599E+03</totfact>
</mgrwt>
</event>
<event>
 8    1  0.5224537E-004  0.9666578E+02  0.7546771E-02  0.1287898E+00
         -2   -1    0    0    0  501 -0.00000000000E+00  0.00000000000E+00  0.76807895280E+02  0.76807895280E+02  0.00000000000E+00 0.  1.
          2   -1    0    0  501    0  0.00000000000E+00 -0.00000000000E+00 -0.12385479371E+03  0.12385479371E+03  0.00000000000E+00 0. -1.
         23    2    1    2    0    0  0.28959351980E+02  0.13977229064E+02 -0.39678361518E+02  0.10449232461E+03  0.91160663281E+02 0.  0.
         23    2    1    2    0    0 -0.28959351980E+02 -0.13977229064E+02 -0.73685369078E+01  0.96170364377E+02  0.90335135185E+02 0.  0.
          5    1    4    4  502    0 -0.40059576204E+02 -0.46186658130E+02 -0.19133407164E+01  0.61349229070E+02  0.47000000000E+01 0. -1.
         -5    1    4    4    0  502  0.11100224224E+02  0.32209429066E+02 -0.54551961913E+01  0.34821135307E+02  0.47000000000E+01 0.  1.
          5    1    3    3  503    0 -0.25108170039E+02  0.49427900108E+01 -0.42021542252E+02  0.49424198416E+02  0.47000000000E+01 0. -1.
         -5    1    3    3    0  503  0.54067522019E+02  0.90344390533E+01  0.23431807343E+01  0.55068126192E+02  0.47000000000E+01 0.  1.
<mgrwt>
<rscale>  0 0.96470662E+02</rscale>
<asrwt>0</asrwt>
<pdfrwt beam="1">  1        2 0.19054583E-01 0.96665783E+02</pdfrwt>
<pdfrwt beam="2">  1       -2 0.11816599E-01 0.96665783E+02</pdfrwt>
<totfact> 0.13476604E+04</totfact>
</mgrwt>
</event>
<event>
 8    1  0.5224537E-004  0.1021120E+03  0.7546771E-02  0.1276455E+00
          1   -1    0    0  501    0  0.00000000000E+00  0.00000000000E+00  0.10148243590E+04  0.10148243590E+04  0.00000000000E+00 0. -1.
         -1   -1    0    0    0  501 -0.00000000000E+00 -0.00000000000E+00 -0.10444805123E+02  0.10444805123E+02  0.00000000000E+00 0.  1.
         23    2    1    2    0    0  0.65080361903E+01 -0.41699454658E+02  0.58290647278E+03  0.59160291467E+03  0.91830569969E+02 0.  0.
         23    2    1    2    0    0 -0.65080361903E+01  0.41699454658E+02  0.42147308111E+03  0.43366624947E+03  0.92982034686E+02 0.  0.
          5    1    3    3  502    0 -0.45146479104E+01 -0.66690427055E+02  0.49267254232E+03  0.49720852674E+03  0.47000000000E+01 0. -1.
         -5    1    4    4    0  503  0.17536193918E+01  0.69457644296E+02  0.34032462720E+03  0.34737642610E+03  0.47000000000E+01 0.  1.
          5    1    4    4  503    0 -0.82616555821E+01 -0.27758189637E+02  0.81148453914E+02  0.86289823372E+02  0.47000000000E+01 0. -1.
         -5    1    3    3    0  502  0.11022684101E+02  0.24990972397E+02  0.90233930462E+02  0.94394387931E+02  0.47000000000E+01 0.  1.
<mgrwt>
<rscale>  0 0.10184913E+03</rscale>
<asrwt>0</asrwt>
<pdfrwt beam="1">  1        1 0.15612675E+00 0.10211199E+03</pdfrwt>
<pdfrwt beam="2">  1       -1 0.16068939E-02 0.10211199E+03</pdfrwt>
<totfact> 0.13843462E+04</totfact>
</mgrwt>
</event>
<event>
 8    1  0.5224537E-004  0.1002701E+03  0.7546771E-02  0.1280408E+00
         -4   -1    0    0    0  501 -0.00000000000E+00  0.00000000000E+00  0.33626443252E+02  0.33626443252E+02  0.00000000000E+00 0.  1.
          4   -1    0    0  501    0  0.00000000000E+00 -0.00000000000E+00 -0.32727773310E+03  0.32727773310E+03  0.00000000000E+00 0. -1.
         23    2    1    2    0    0  0.17975865054E+02 -0.39231614622E+02 -0.20249089876E+03  0.22538917102E+03  0.89081215887E+02 0.  0.
         23    2    1    2    0    0 -0.17975865054E+02  0.39231614622E+02 -0.91160391087E+02  0.13551500533E+03  0.90508830814E+02 0.  0.
          5    1    3    3  502    0  0.20303577211E+02 -0.16272351813E+01 -0.18010243797E+03  0.18131150351E+03  0.47000000000E+01 0. -1.
         -5    1    3    3    0  502 -0.23277121569E+01 -0.37604379441E+02 -0.22388460790E+02  0.44077667515E+02  0.47000000000E+01 0.  1.
          5    1    4    4  503    0  0.21364667949E+02  0.12667981619E+01  0.70466550506E+01  0.23017366521E+02  0.47000000000E+01 0. -1.
         -5    1    4    4    0  503 -0.39340533003E+02  0.37964816461E+02 -0.98207046137E+02  0.11249763881E+03  0.47000000000E+01 0.  1.
<mgrwt>
<rscale>  0 0.99946892E+02</rscale>
<asrwt>0</asrwt>
<pdfrwt beam="1">  1        4 0.50350418E-01 0.10027013E+03</pdfrwt>
<pdfrwt beam="2">  1       -4 0.51732992E-02 0.10027013E+03</pdfrwt>
<totfact> 0.13287209E+03</totfact>
</mgrwt>
</event>
<event>
 8    1  0.5224537E-004  0.1258380E+03  0.7546771E-02  0.1233850E+00
          1   -1    0    0  501    0  0.00000000000E+00  0.00000000000E+00  0.11436684658E+04  0.11436684658E+04  0.00000000000E+00 0. -1.
         -1   -1    0    0    0  501 -0.00000000000E+00 -0.00000000000E+00 -0.13860729500E+02  0.13860729500E+02  0.00000000000E+00 0.  1.
         23    2    1    2    0    0  0.81414666328E+02 -0.31428706537E+02  0.59597675759E+03  0.60911698264E+03  0.90659205080E+02 0.  0.
         23    2    1    2    0    0 -0.81414666328E+02  0.31428706537E+02  0.53383097874E+03  0.54841221269E+03  0.90356680311E+02 0.  0.
          5    1    3    3  502    0  0.35196773375E+02 -0.55812211300E+02  0.42961410878E+03  0.43467710804E+03  0.47000000000E+01 0. -1.
         -5    1    4    4    0  503 -0.63146526072E+02  0.14921644477E+02  0.50896131653E+03  0.51310218374E+03  0.47000000000E+01 0.  1.
          5    1    4    4  503    0 -0.18268140256E+02  0.16507062061E+02  0.24869662205E+02  0.35310028951E+02  0.47000000000E+01 0. -1.
         -5    1    3    3    0  502  0.46217892953E+02  0.24383504763E+02  0.16636264881E+03  0.17443987460E+03  0.47000000000E+01 0.  1.
<mgrwt>
<rscale>  0 0.12578352E+03</rscale>
<asrwt>0</asrwt>
<pdfrwt beam="1">  1        1 0.17594892E+00 0.12583800E+03</pdfrwt>
<pdfrwt beam="2">  1       -1 0.21324208E-02 0.12583800E+03</pdfrwt>
<totfact> 0.75826610E+03</totfact>
</mgrwt>
</event>
<event>
 8    1  0.5224537E-004  0.1107636E+03  0.7546771E-02  0.1259310E+00
          1   -1    0    0  501    0  0.00000000000E+00  0.00000000000E+00  0.86533691137E+03  0.86533691137E+03  0.00000000000E+00 0. -1.
         -1   -1    0    0    0  501 -0.00000000000E+00 -0.00000000000E+00 -0.16202995936E+02  0.16202995936E+02  0.00000000000E+00 0.  1.
         23    2    1    2    0    0  0.62132388924E+02 -0.93406808836E+01  0.26662159164E+03  0.28859034662E+03  0.90827490118E+02 0.  0.
         23    2    1    2    0    0 -0.62132388924E+02  0.93406808836E+01  0.58251232380E+03  0.59294956069E+03  0.91218923875E+02 0.  0.
          5    1    4    4  502    0  0.14291564133E+02  0.16589057274E+02  0.48422790733E+02  0.53350747782E+02  0.47000000000E+01 0. -1.
         -5    1    4    4    0  502 -0.76423953057E+02 -0.72483763900E+01  0.53408953307E+03  0.53959881291E+03  0.47000000000E+01 0.  1.
          5    1    3    3  503    0  0.85655670451E+02 -0.56998731296E+01  0.20037685108E+03  0.21804209429E+03  0.47000000000E+01 0. -1.
         -5    1    3    3    0  503 -0.23523281527E+02 -0.36408077540E+01  0.66244740554E+02  0.70548252324E+02  0.47000000000E+01 0.  1.
<mgrwt>
<rscale>  0 0.11068297E+03</rscale>
<asrwt>0</asrwt>
<pdfrwt beam="1">  1        1 0.13312872E+00 0.11076360E+03</pdfrwt>
<pdfrwt beam="2">  1       -1 0.24927693E-02 0.11076360E+03</pdfrwt>
<totfact> 0.95922071E+03</totfact>
</mgrwt>
</event>
<event>
 8    1  0.5224537E-004  0.1056102E+03  0.7546771E-02  0.1269746E+00
         -1   -1    0    0    0  501 -0.00000000000E+00  0.00000000000E+00  0.14585478014E+02  0.14585478014E+02  0.00000000000E+00 0.  1.
          1   -1    0    0  501    0  0.00000000000E+00 -0.00000000000E+00 -0.95754531850E+03  0.95754531850E+03  0.00000000000E+00 0. -1.
         23    2    1    2    0    0 -0.10715129650E+02 -0.51772424459E+02 -0.69336585074E+03  0.70111295641E+03  0.89487299306E+02 0.  0.
         23    2    1    2    0    0  0.10715129650E+02  0.51772424459E+02 -0.24959398975E+03  0.27101784010E+03  0.91423804334E+02 0.  0.
          5    1    4    4  502    0 -0.33149383702E+02  0.27319964312E+02 -0.17971145015E+03  0.18483386434E+03  0.47000000000E+01 0. -1.
         -5    1    3    3    0  503  0.49540491984E+01  0.24262917587E+02 -0.21390767818E+03  0.21538759611E+03  0.47000000000E+01 0.  1.
          5    1    3    3  503    0 -0.15669178849E+02 -0.76035342046E+02 -0.47945817256E+03  0.48572536030E+03  0.47000000000E+01 0. -1.
         -5    1    4    4    0  502  0.43864513352E+02  0.24452460146E+02 -0.69882539594E+02  0.86183975767E+02  0.47000000000E+01 0.  1.
<mgrwt>
<rscale>  0 0.10518971E+03</rscale>
<asrwt>0</asrwt>
<pdfrwt beam="1">  1        1 0.14731464E+00 0.10561018E+03</pdfrwt>
<pdfrwt beam="2">  1       -1 0.22439200E-02 0.10561018E+03</pdfrwt>
<totfact> 0.94730350E+03</totfact>
</mgrwt>
</event>
<event>
 8    1  0.5224537E-004  0.1147162E+03  0.7546771E-02  0.1254698E+00
         -1   -1    0    0    0  501 -0.00000000000E+00  0.00000000000E+00  0.52334842673E+02  0.52334842673E+02  0.00000000000E+00 0.  1.
          1   -1    0    0  501    0  0.00000000000E+00 -0.00000000000E+00 -0.24371289402E+03  0.24371289402E+03  0.00000000000E+00 0. -1.
         23    2    1    2    0    0 -0.50181153663E+02 -0.42038345770E+02 -0.11901059669E+03  0.16529766473E+03  0.94204167337E+02 0.  0.
         23    2    1    2    0    0  0.50181153663E+02  0.42038345770E+02 -0.72367454655E+02  0.13075007196E+03  0.87023916975E+02 0.  0.
          5    1    3    3  502    0 -0.44852472548E+02  0.20183829447E+02 -0.35164083033E+02  0.60644323727E+02  0.47000000000E+01 0. -1.
         -5    1    3    3    0  502 -0.53286811145E+01 -0.62222175217E+02 -0.83846513656E+02  0.10465334100E+03  0.47000000000E+01 0.  1.
          5    1    4    4  503    0 -0.15891944576E+02  0.33447491254E+02 -0.45252492534E+02  0.58661457995E+02  0.47000000000E+01 0. -1.
         -5    1    4    4    0  503  0.66073098239E+02  0.85908545159E+01 -0.27114962121E+02  0.72088613963E+02  0.47000000000E+01 0.  1.
<mgrwt>
<rscale>  0 0.11323281E+03</rscale>
<asrwt>0</asrwt>
<pdfrwt beam="1">  1        1 0.37494291E-01 0.11471615E+03</pdfrwt>
<pdfrwt beam="2">  1       -1 0.80515143E-02 0.11471615E+03</pdfrwt>
<totfact> 0.90768421E+03</totfact>
</mgrwt>
</event>
<event>
 8    1  0.5224537E-004  0.1087714E+03  0.7546771E-02  0.1264189E+00
         -1   -1    0    0    0  501 -0.00000000000E+00  0.00000000000E+00  0.21078098110E+03  0.21078098110E+03  0.00000000000E+00 0.  1.
          1   -1    0    0  501    0  0.00000000000E+00 -0.00000000000E+00 -0.54911974275E+02  0.54911974275E+02  0.00000000000E+00 0. -1.
         23    2    1    2    0    0 -0.33239805683E+02  0.46909169604E+02  0.70744691808E+02  0.12975373621E+03  0.92335614830E+02 0.  0.
         23    2    1    2    0    0  0.33239805683E+02 -0.46909169604E+02  0.85124315014E+02  0.13593921917E+03  0.89039134237E+02 0.  0.
          5    1    4    4  502    0  0.60076300815E+02 -0.44389097356E+02  0.44861664869E+02  0.87259457130E+02  0.47000000000E+01 0. -1.
         -5    1    3    3    0  503  0.18385911043E+02  0.51313498281E+02  0.48716560894E+02  0.73256468219E+02  0.47000000000E+01 0.  1.
          5    1    3    3  503    0 -0.51625716726E+02 -0.44043286762E+01  0.22028130915E+02  0.56497267988E+02  0.47000000000E+01 0. -1.
         -5    1    4    4    0  502 -0.26836495132E+02 -0.25200722483E+01  0.40262650145E+02  0.48679762036E+02  0.47000000000E+01 0.  1.
<mgrwt>
<rscale>  0 0.10806862E+03</rscale>
<asrwt>0</asrwt>
<pdfrwt beam="1">  1        1 0.84479962E-02 0.10877141E+03</pdfrwt>
<pdfrwt beam="2">  1       -1 0.32427843E-01 0.10877141E+03</pdfrwt>
<totfact> 0.67156468E+03</totfact>
</mgrwt>
</event>
<event>
 8    1  0.5224537E-004  0.1002950E+03  0.7546771E-02  0.1280035E+00
          1   -1    0    0  501    0  0.00000000000E+00  0.00000000000E+00  0.13041414102E+03  0.13041414102E+03  0.00000000000E+00 0. -1.
         -1   -1    0    0    0  501 -0.00000000000E+00 -0.00000000000E+00 -0.33262659712E+03  0.33262659712E+03  0.00000000000E+00 0.  1.
         23    2    1    2    0    0 -0.10178994014E+02 -0.38238312126E+02 -0.30430248531E+03  0.32040456865E+03  0.92159126586E+02 0.  0.
         23    2    1    2    0    0  0.10178994014E+02  0.38238312126E+02  0.10209002922E+03  0.14263616949E+03  0.91416203972E+02 0.  0.
          5    1    4    4  502    0 -0.39754409568E+02  0.21958180731E+02  0.58585016855E+02  0.74275628446E+02  0.47000000000E+01 0. -1.
         -5    1    4    4    0  502  0.49933403582E+02  0.16280131395E+02  0.43505012361E+02  0.68360541046E+02  0.47000000000E+01 0.  1.
          5    1    3    3  503    0 -0.50919753846E+02 -0.16001963036E+02 -0.15703465132E+03  0.16592424738E+03  0.47000000000E+01 0. -1.
         -5    1    3    3    0  503  0.40740759832E+02 -0.22236349089E+02 -0.14726783399E+03  0.15448032128E+03  0.47000000000E+01 0.  1.
<mgrwt>
<rscale>  0 0.10012400E+03</rscale>
<asrwt>0</asrwt>
<pdfrwt beam="1">  1        1 0.20063714E-01 0.10029499E+03</pdfrwt>
<pdfrwt beam="2">  1       -1 0.51173323E-01 0.10029499E+03</pdfrwt>
<totfact> 0.98232670E+02</totfact>
</mgrwt>
</event>
<event>
 8    1  0.5224537E-004  0.1042393E+03  0.7546771E-02  0.1274001E+00
          1   -1    0    0  501    0  0.00000000000E+00  0.00000000000E+00  0.70957953423E+03  0.70957953423E+03  0.00000000000E+00 0. -1.
         -1   -1    0    0    0  501 -0.00000000000E+00 -0.00000000000E+00 -0.14727401645E+02  0.14727401645E+02  0.00000000000E+00 0.  1.
         23    2    1    2    0    0 -0.39898077962E+02  0.20956973981E+02  0.32684344042E+03  0.34306334377E+03  0.93993467376E+02 0.  0.
         23    2    1    2    0    0  0.39898077962E+02 -0.20956973981E+02  0.36800869217E+03  0.38124359211E+03  0.88798804214E+02 0.  0.
          5    1    3    3  502    0 -0.11419773417E+02  0.55940055326E+02  0.15211068532E+03  0.16254061524E+03  0.47000000000E+01 0. -1.
         -5    1    3    3    0  502 -0.28478304545E+02 -0.34983081345E+02  0.17473275511E+03  0.18052272853E+03  0.47000000000E+01 0.  1.
          5    1    4    4  503    0 -0.26154276596E+02  0.50665811485E+01  0.75302499353E+02  0.80014203974E+02  0.47000000000E+01 0. -1.
         -5    1    4    4    0  503  0.66052354557E+02 -0.26023555130E+02  0.29270619281E+03  0.30122938813E+03  0.47000000000E+01 0.  1.
<mgrwt>
<rscale>  0 0.10305453E+03</rscale>
<asrwt>0</asrwt>
<pdfrwt beam="1">  1        1 0.10916606E+00 0.10423926E+03</pdfrwt>
<pdfrwt beam="2">  1       -1 0.22657547E-02 0.10423926E+03</pdfrwt>
<totfact> 0.14699397E+04</totfact>
</mgrwt>
</event>
<event>
 8    1  0.5224537E-004  0.1158670E+03  0.7546771E-02  0.1250194E+00
         -1   -1    0    0    0  501 -0.00000000000E+00  0.00000000000E+00  0.11643928947E+03  0.11643928947E+03  0.00000000000E+00 0.  1.
          1   -1    0    0  501    0  0.00000000000E+00 -0.00000000000E+00 -0.18058082023E+03  0.18058082023E+03  0.00000000000E+00 0. -1.
         23    2    1    2    0    0 -0.59826130549E+02  0.37835752455E+02  0.57433486795E+02  0.12907471787E+03  0.91383627236E+02 0.  0.
         23    2    1    2    0    0  0.59826130549E+02 -0.37835752455E+02 -0.12157501755E+03  0.16794539184E+03  0.91730364042E+02 0.  0.
          5    1    3    3  502    0 -0.27758686315E+02  0.17091623427E+02 -0.22822661879E+02  0.40070340061E+02  0.47000000000E+01 0. -1.
         -5    1    4    4    0  503  0.51099390813E+00 -0.53071860947E+02 -0.44715893078E+02  0.69559216736E+02  0.47000000000E+01 0.  1.
          5    1    4    4  503    0  0.59315136641E+02  0.15236108492E+02 -0.76859124476E+02  0.98386175106E+02  0.47000000000E+01 0. -1.
         -5    1    3    3    0  502 -0.32067444233E+02  0.20744129027E+02  0.80256148674E+02  0.89004377806E+02  0.47000000000E+01 0.  1.
<mgrwt>
<rscale>  0 0.11579840E+03</rscale>
<asrwt>0</asrwt>
<pdfrwt beam="1">  1        1 0.27781664E-01 0.11586703E+03</pdfrwt>
<pdfrwt beam="2">  1       -1 0.17913737E-01 0.11586703E+03</pdfrwt>
<totfact> 0.38432854E+03</totfact>
</mgrwt>
</event>
<event>
 8    1  0.5224537E-004  0.1401018E+03  0.7546771E-02  0.1213378E+00
         -1   -1    0    0    0  501 -0.00000000000E+00  0.00000000000E+00  0.57946321275E+02  0.57946321275E+02  0.00000000000E+00 0.  1.
          1   -1    0    0  501    0  0.00000000000E+00 -0.00000000000E+00 -0.40222711399E+03  0.40222711399E+03  0.00000000000E+00 0. -1.
         23    2    1    2    0    0 -0.38654075804E+02 -0.99670913548E+02 -0.79486427989E+02  0.16059947611E+03  0.89697663904E+02 0.  0.
         23    2    1    2    0    0  0.38654075804E+02  0.99670913548E+02 -0.26479436472E+03  0.29957395915E+03  0.90554253500E+02 0.  0.
          5    1    4    4  502    0  0.92466517745E+01  0.89676527610E+02 -0.24807238701E+03  0.26398746063E+03  0.47000000000E+01 0. -1.
         -5    1    4    4    0  502  0.29407424029E+02  0.99943859371E+01 -0.16721977719E+02  0.35586498523E+02  0.47000000000E+01 0.  1.
          5    1    3    3  503    0 -0.58161769087E+02 -0.34135257164E+02 -0.57121527239E+02  0.88504045326E+02  0.47000000000E+01 0. -1.
         -5    1    3    3    0  503  0.19507693283E+02 -0.65535656384E+02 -0.22364900750E+02  0.72095430787E+02  0.47000000000E+01 0.  1.
<mgrwt>
<rscale>  0 0.13996352E+03</rscale>
<asrwt>0</asrwt>
<pdfrwt beam="1">  1        1 0.61881094E-01 0.14010175E+03</pdfrwt>
<pdfrwt beam="2">  1       -1 0.89148188E-02 0.14010175E+03</pdfrwt>
<totfact> 0.42353041E+03</totfact>
</mgrwt>
</event>
<event>
 8    1  0.5224537E-004  0.1173238E+03  0.7546771E-02  0.1251081E+00
         -3   -1    0    0    0  501 -0.00000000000E+00  0.00000000000E+00  0.19940205241E+03  0.19940205241E+03  0.00000000000E+00 0.  1.
          3   -1    0    0  501    0  0.00000000000E+00 -0.00000000000E+00 -0.84712172611E+02  0.84712172611E+02  0.00000000000E+00 0. -1.
         23    2    1    2    0    0 -0.58645113057E+02 -0.57569739295E+01  0.12833471159E+03  0.17388121054E+03  0.10145188587E+03 0.  0.
         23    2    1    2    0    0  0.58645113057E+02  0.57569739295E+01 -0.13644831793E+02  0.11023301448E+03  0.92156085052E+02 0.  0.
          5    1    3    3  502    0  0.82475109992E+01 -0.38195219429E+02  0.25480641668E+02  0.46885491623E+02  0.47000000000E+01 0. -1.
         -5    1    4    4    0  503 -0.45640906715E+01 -0.33441376224E+02  0.17986574380E+01  0.34124503454E+02  0.47000000000E+01 0.  1.
          5    1    4    4  503    0  0.63209203728E+02  0.39198350154E+02 -0.15443489231E+02  0.76108511024E+02  0.47000000000E+01 0. -1.
         -5    1    3    3    0  502 -0.66892624056E+02  0.32438245499E+02  0.10285406993E+03  0.12699571892E+03  0.47000000000E+01 0.  1.
<mgrwt>
<rscale>  0 0.11528673E+03</rscale>
<asrwt>0</asrwt>
<pdfrwt beam="1">  1        3 0.13032642E-01 0.11732381E+03</pdfrwt>
<pdfrwt beam="2">  1       -3 0.30677239E-01 0.11732381E+03</pdfrwt>
<totfact> 0.10937678E+03</totfact>
</mgrwt>
</event>
<event>
 8    1  0.5224537E-004  0.9234028E+02  0.7546771E-02  0.1297317E+00
         -2   -1    0    0    0  501 -0.00000000000E+00  0.00000000000E+00  0.38316375872E+02  0.38316375872E+02  0.00000000000E+00 0.  1.
          2   -1    0    0  501    0  0.00000000000E+00 -0.00000000000E+00 -0.38557826915E+03  0.38557826915E+03  0.00000000000E+00 0. -1.
         23    2    1    2    0    0  0.13607830513E+02  0.85531897324E+01 -0.35713182377E+02  0.98949532293E+02  0.90869403210E+02 0.  0.
         23    2    1    2    0    0 -0.13607830513E+02 -0.85531897324E+01 -0.31154871090E+03  0.32494511272E+03  0.90930725922E+02 0.  0.
          5    1    3    3  502    0  0.32694482557E+01 -0.36410887565E+02 -0.37443864803E+02  0.52541174678E+02  0.47000000000E+01 0. -1.
         -5    1    3    3    0  502  0.10338382257E+02  0.44964077297E+02  0.17306824257E+01  0.46408357615E+02  0.47000000000E+01 0.  1.
          5    1    4    4  503    0 -0.47110657466E+02 -0.18606858691E+02 -0.23788372895E+03  0.24326197347E+03  0.47000000000E+01 0. -1.
         -5    1    4    4    0  503  0.33502826953E+02  0.10053668958E+02 -0.73664981944E+02  0.81683139252E+02  0.47000000000E+01 0.  1.
<mgrwt>
<rscale>  0 0.92325178E+02</rscale>
<asrwt>0</asrwt>
<pdfrwt beam="1">  1        2 0.59319734E-01 0.92340278E+02</pdfrwt>
<pdfrwt beam="2">  1       -2 0.58948270E-02 0.92340278E+02</pdfrwt>
<totfact> 0.11587490E+04</totfact>
</mgrwt>
</event>
<event>
 7    1  0.5224537E-004  0.1550010E+03  0.7546771E-02  0.1210166E+00
          1   -1    0    0  501    0  0.00000000000E+00  0.00000000000E+00  0.14141793428E+03  0.14141793428E+03  0.00000000000E+00 0. -1.
         -1   -1    0    0    0  501 -0.00000000000E+00 -0.00000000000E+00 -0.12523797748E+03  0.12523797748E+03  0.00000000000E+00 0.  1.
         23    2    1    2    0    0 -0.33261502225E+02  0.69495707568E+02 -0.35630570141E+01  0.11040264634E+03  0.78994101314E+02 0.  0.
          5    1    3    3  502    0  0.23749704740E+02  0.19080143450E+02 -0.13225640775E+02  0.33542628448E+02  0.47000000000E+01 0. -1.
         -5    1    1    2    0  503  0.15126336014E+02  0.40181077794E+02  0.11432997244E+02  0.44678053672E+02  0.47000000000E+01 0.  1.
          5    1    1    2  503    0  0.18135166210E+02 -0.10967678536E+03  0.83100165755E+01  0.11157521175E+03  0.47000000000E+01 0. -1.
         -5    1    3    3    0  502 -0.57011206965E+02  0.50415564118E+02  0.96625837609E+01  0.76860017889E+02  0.47000000000E+01 0.  1.
<mgrwt>
<rscale>  0 0.14237675E+03</rscale>
<asrwt>0</asrwt>
<pdfrwt beam="1">  1        1 0.21756605E-01 0.15500096E+03</pdfrwt>
<pdfrwt beam="2">  1       -1 0.19267381E-01 0.15500096E+03</pdfrwt>
<totfact> 0.47303561E+03</totfact>
</mgrwt>
</event>
<event>
 8    1  0.5224537E-004  0.9406801E+02  0.7546771E-02  0.1309792E+00
         -1   -1    0    0    0  501 -0.00000000000E+00  0.00000000000E+00  0.98967391466E+01  0.98967391466E+01  0.00000000000E+00 0.  1.
          1   -1    0    0  501    0  0.00000000000E+00 -0.00000000000E+00 -0.68467278699E+03  0.68467278699E+03  0.00000000000E+00 0. -1.
         23    2    1    2    0    0  0.20383924078E+02  0.28676424063E+02 -0.24723175986E+03  0.25679914205E+03  0.59869980921E+02 0.  0.
         23    2    1    2    0    0 -0.20383924078E+02 -0.28676424063E+02 -0.42754428799E+03  0.43777038409E+03  0.87240755039E+02 0.  0.
          5    1    3    3  502    0  0.31768985660E+02 -0.38914808156E+01 -0.15192945425E+03  0.15533531839E+03  0.47000000000E+01 0.  1.
         -5    1    4    4    0  503  0.28101351939E+02 -0.33820546057E+02 -0.23258427492E+03  0.23675103011E+03  0.47000000000E+01 0.  1.
          5    1    4    4  503    0 -0.48485276017E+02  0.51441219944E+01 -0.19496001306E+03  0.20101935398E+03  0.47000000000E+01 0. -1.
         -5    1    3    3    0  502 -0.11385061582E+02  0.32567904879E+02 -0.95302305611E+02  0.10146382365E+03  0.47000000000E+01 0. -1.
<mgrwt>
<rscale>  0 0.87194233E+02</rscale>
<asrwt>0</asrwt>
<pdfrwt beam="1">  1        1 0.10533433E+00 0.94068013E+02</pdfrwt>
<pdfrwt beam="2">  1       -1 0.15225745E-02 0.94068013E+02</pdfrwt>
<totfact> 0.27015609E+04</totfact>
</mgrwt>
</event>
<event>
 8    1  0.5224537E-004  0.1009492E+03  0.7546771E-02  0.1279196E+00
         -1   -1    0    0    0  501 -0.00000000000E+00  0.00000000000E+00  0.25919570255E+03  0.25919570255E+03  0.00000000000E+00 0.  1.
          1   -1    0    0  501    0  0.00000000000E+00 -0.00000000000E+00 -0.46745186227E+02  0.46745186227E+02  0.00000000000E+00 0. -1.
         23    2    1    2    0    0  0.39459707674E+02  0.22209330788E+02  0.16909213242E+03  0.19607418599E+03  0.88332407775E+02 0.  0.
         23    2    1    2    0    0 -0.39459707674E+02 -0.22209330788E+02  0.43358383909E+02  0.10986670279E+03  0.90224276237E+02 0.  0.
          5    1    3    3  502    0  0.39440734497E+02 -0.23823266696E+02  0.49241126976E+02  0.67601021882E+02  0.47000000000E+01 0. -1.
         -5    1    3    3    0  502  0.18973177454E-01  0.46032597484E+02  0.11985100544E+03  0.12847316411E+03  0.47000000000E+01 0.  1.
          5    1    4    4  503    0 -0.18564398663E+01 -0.39235680970E+02 -0.11364879039E+02  0.41159877377E+02  0.47000000000E+01 0. -1.
         -5    1    4    4    0  503 -0.37603267808E+02  0.17026350182E+02  0.54723262948E+02  0.68706825411E+02  0.47000000000E+01 0.  1.
<mgrwt>
<rscale>  0 0.10052473E+03</rscale>
<asrwt>0</asrwt>
<pdfrwt beam="1">  1        1 0.71915672E-02 0.10094921E+03</pdfrwt>
<pdfrwt beam="2">  1       -1 0.39876261E-01 0.10094921E+03</pdfrwt>
<totfact> 0.58065641E+03</totfact>
</mgrwt>
</event>
<event>
 8    1  0.5224537E-004  0.9199209E+02  0.7546771E-02  0.1299937E+00
         -2   -1    0    0    0  501 -0.00000000000E+00  0.00000000000E+00  0.61826195900E+02  0.61826195900E+02  0.00000000000E+00 0.  1.
          2   -1    0    0  501    0  0.00000000000E+00 -0.00000000000E+00 -0.15711990142E+03  0.15711990142E+03  0.00000000000E+00 0. -1.
         23    2    1    2    0    0 -0.68260666651E+00 -0.16803717389E+02 -0.90431450565E+02  0.12682560091E+03  0.87315834337E+02 0.  0.
         23    2    1    2    0    0  0.68260666651E+00  0.16803717389E+02 -0.48622549550E+01  0.92120496406E+02  0.90441768364E+02 0.  0.
          5    1    4    4  502    0  0.38231491558E+01 -0.20322247933E+02 -0.37030497478E+02  0.42672684167E+02  0.47000000000E+01 0. -1.
         -5    1    3    3    0  503  0.42687805776E+02 -0.13465250084E+02 -0.42032684910E+02  0.61582451417E+02  0.47000000000E+01 0.  1.
          5    1    3    3  503    0 -0.43370412443E+02 -0.33384673054E+01 -0.48398765655E+02  0.65243149497E+02  0.47000000000E+01 0. -1.
         -5    1    4    4    0  502 -0.31405424893E+01  0.37125965322E+02  0.32168242523E+02  0.49447812239E+02  0.47000000000E+01 0.  1.
<mgrwt>
<rscale>  0 0.91214429E+02</rscale>
<asrwt>0</asrwt>
<pdfrwt beam="1">  1        2 0.24172292E-01 0.91992088E+02</pdfrwt>
<pdfrwt beam="2">  1       -2 0.95117226E-02 0.91992088E+02</pdfrwt>
<totfact> 0.14465252E+04</totfact>
</mgrwt>
</event>
<event>
 8    1  0.5224537E-004  0.9349115E+02  0.7546771E-02  0.1295981E+00
          1   -1    0    0  501    0  0.00000000000E+00  0.00000000000E+00  0.25355868223E+03  0.25355868223E+03  0.00000000000E+00 0. -1.
         -1   -1    0    0    0  501 -0.00000000000E+00 -0.00000000000E+00 -0.42776738571E+02  0.42776738571E+02  0.00000000000E+00 0.  1.
         23    2    1    2    0    0  0.12070745735E+02  0.82149785642E+01  0.17502481461E+03  0.19842953558E+03  0.92343955336E+02 0.  0.
         23    2    1    2    0    0 -0.12070745735E+02 -0.82149785642E+01  0.35757129056E+02  0.97905885224E+02  0.89965556230E+02 0.  0.
          5    1    4    4  502    0 -0.25742217747E+02 -0.38923275662E+02  0.42509608552E+02  0.63299604912E+02  0.47000000000E+01 0. -1.
         -5    1    3    3    0  503 -0.78382428423E+01  0.47725080813E+02  0.10057522487E+03  0.11169864478E+03  0.47000000000E+01 0.  1.
          5    1    3    3  503    0  0.19908988577E+02 -0.39510102249E+02  0.74449589740E+02  0.86730890797E+02  0.47000000000E+01 0. -1.
         -5    1    4    4    0  502  0.13671472012E+02  0.30708297098E+02 -0.67524794960E+01  0.34606280311E+02  0.47000000000E+01 0.  1.
<mgrwt>
<rscale>  0 0.92898421E+02</rscale>
<asrwt>0</asrwt>
<pdfrwt beam="1">  1        1 0.39009027E-01 0.93491149E+02</pdfrwt>
<pdfrwt beam="2">  1       -1 0.65810369E-02 0.93491149E+02</pdfrwt>
<totfact> 0.11478758E+04</totfact>
</mgrwt>
</event>
<event>
 8    1  0.5224537E-004  0.3476480E+03  0.7546771E-02  0.1063725E+00
          1   -1    0    0  501    0  0.00000000000E+00  0.00000000000E+00  0.14269617300E+03  0.14269617300E+03  0.00000000000E+00 0. -1.
         -1   -1    0    0    0  501 -0.00000000000E+00 -0.00000000000E+00 -0.92835446365E+03  0.92835446365E+03  0.00000000000E+00 0.  1.
         23    2    1    2    0    0  0.17382290535E+03  0.28531996725E+03 -0.55386445808E+03  0.65321394865E+03  0.91108389564E+02 0.  0.
         23    2    1    2    0    0 -0.17382290535E+03 -0.28531996725E+03 -0.23179383257E+03  0.41783668801E+03  0.96110513959E+02 0.  0.
          5    1    4    4  502    0 -0.17838316394E+03 -0.26389857397E+03 -0.19138898757E+03  0.37163805656E+03  0.47000000000E+01 0. -1.
         -5    1    4    4    0  502  0.45602585901E+01 -0.21421393284E+02 -0.40404844999E+02  0.46198631452E+02  0.47000000000E+01 0.  1.
          5    1    3    3  503    0  0.10993816101E+03  0.99459934674E+02 -0.26736404084E+03  0.30575202073E+03  0.47000000000E+01 0. -1.
         -5    1    3    3    0  503  0.63884744345E+02  0.18586003258E+03 -0.28650041724E+03  0.34746192791E+03  0.47000000000E+01 0.  1.
<mgrwt>
<rscale>  0 0.34731011E+03</rscale>
<asrwt>0</asrwt>
<pdfrwt beam="1">  1        1 0.21953257E-01 0.34764798E+03</pdfrwt>
<pdfrwt beam="2">  1       -1 0.14282377E+00 0.34764798E+03</pdfrwt>
<totfact> 0.96792380E+01</totfact>
</mgrwt>
</event>
<event>
 8    1  0.5224537E-004  0.9590802E+02  0.7546771E-02  0.1291353E+00
         -1   -1    0    0    0  501 -0.00000000000E+00  0.00000000000E+00  0.79347800592E+02  0.79347800592E+02  0.00000000000E+00 0.  1.
          1   -1    0    0  501    0  0.00000000000E+00 -0.00000000000E+00 -0.12026531295E+03  0.12026531295E+03  0.00000000000E+00 0. -1.
         23    2    1    2    0    0  0.13068456810E+02 -0.25728119565E+02  0.64332337655E+01  0.96123540668E+02  0.91463806362E+02 0.  0.
         23    2    1    2    0    0 -0.13068456810E+02  0.25728119565E+02 -0.47350746121E+02  0.10348957287E+03  0.87380076878E+02 0.  0.
          5    1    4    4  502    0 -0.26889031586E+02  0.48382261398E+02 -0.52058074328E+02  0.76131441207E+02  0.47000000000E+01 0. -1.
         -5    1    4    4    0  502  0.13820574776E+02 -0.22654141833E+02  0.47073282070E+01  0.27358131664E+02  0.47000000000E+01 0.  1.
          5    1    3    3  503    0  0.22114952942E+02  0.25434278365E+02 -0.18021872195E+02  0.38507811377E+02  0.47000000000E+01 0. -1.
         -5    1    3    3    0  503 -0.90464961322E+01 -0.51162397930E+02  0.24455105961E+02  0.57615729292E+02  0.47000000000E+01 0.  1.
<mgrwt>
<rscale>  0 0.94921326E+02</rscale>
<asrwt>0</asrwt>
<pdfrwt beam="1">  1        1 0.18502356E-01 0.95908021E+02</pdfrwt>
<pdfrwt beam="2">  1       -1 0.12207354E-01 0.95908021E+02</pdfrwt>
<totfact> 0.11445377E+04</totfact>
</mgrwt>
</event>
<event>
 8    1  0.5224537E-004  0.1191346E+03  0.7546771E-02  0.1244649E+00
         -1   -1    0    0    0  501 -0.00000000000E+00  0.00000000000E+00  0.19892763011E+02  0.19892763011E+02  0.00000000000E+00 0.  1.
          1   -1    0    0  501    0  0.00000000000E+00 -0.00000000000E+00 -0.95450991028E+03  0.95450991028E+03  0.00000000000E+00 0. -1.
         23    2    1    2    0    0 -0.19663966005E+02  0.73428238708E+02 -0.22204324805E+03  0.25198465653E+03  0.91731593942E+02 0.  0.
         23    2    1    2    0    0  0.19663966005E+02 -0.73428238708E+02 -0.71257389922E+03  0.72241801676E+03  0.91366576390E+02 0.  0.
          5    1    3    3  502    0  0.26421356665E+02  0.16828379114E+02 -0.13316753990E+03  0.13688303809E+03  0.47000000000E+01 0. -1.
         -5    1    3    3    0  502 -0.46085322670E+02  0.56599859594E+02 -0.88875708142E+02  0.11510161845E+03  0.47000000000E+01 0.  1.
          5    1    4    4  503    0 -0.32716790878E+02 -0.39547433418E+02 -0.42526627806E+03  0.42837820341E+03  0.47000000000E+01 0. -1.
         -5    1    4    4    0  503  0.52380756883E+02 -0.33880805290E+02 -0.28730762116E+03  0.29403981335E+03  0.47000000000E+01 0.  1.
<mgrwt>
<rscale>  0 0.11906437E+03</rscale>
<asrwt>0</asrwt>
<pdfrwt beam="1">  1        1 0.14684765E+00 0.11913464E+03</pdfrwt>
<pdfrwt beam="2">  1       -1 0.30604256E-02 0.11913464E+03</pdfrwt>
<totfact> 0.61245600E+03</totfact>
</mgrwt>
</event>
<event>
 8    1  0.5224537E-004  0.1298434E+03  0.7546771E-02  0.1229144E+00
         -1   -1    0    0    0  501 -0.00000000000E+00  0.00000000000E+00  0.24430709821E+03  0.24430709821E+03  0.00000000000E+00 0.  1.
          1   -1    0    0  501    0  0.00000000000E+00 -0.00000000000E+00 -0.75218066246E+02  0.75218066246E+02  0.00000000000E+00 0. -1.
         23    2    1    2    0    0  0.83930726746E+02 -0.26254142003E+02  0.32795723088E+02  0.13392110879E+03  0.95528305030E+02 0.  0.
         23    2    1    2    0    0 -0.83930726746E+02  0.26254142003E+02  0.13629330888E+03  0.18560405567E+03  0.90218360503E+02 0.  0.
          5    1    3    3  502    0 -0.15538343379E+02  0.13617386007E+02 -0.16695642110E+01  0.21254429216E+02  0.47000000000E+01 0.  1.
         -5    1    3    3    0  502  0.99469070125E+02 -0.39871528010E+02  0.34465287299E+02  0.11266667957E+03  0.47000000000E+01 0. -1.
          5    1    4    4  503    0 -0.84658051860E+02  0.27628130807E+01  0.55608971721E+02  0.10143503644E+03  0.47000000000E+01 0. -1.
         -5    1    4    4    0  503  0.72732511480E+00  0.23491328922E+02  0.80684337155E+02  0.84169019232E+02  0.47000000000E+01 0.  1.
<mgrwt>
<rscale>  0 0.12886864E+03</rscale>
<asrwt>0</asrwt>
<pdfrwt beam="1">  1        1 0.11572010E-01 0.12984338E+03</pdfrwt>
<pdfrwt beam="2">  1       -1 0.37585707E-01 0.12984338E+03</pdfrwt>
<totfact> 0.34849182E+03</totfact>
</mgrwt>
</event>
<event>
 8    1  0.5224537E-004  0.1109610E+03  0.7546771E-02  0.1259536E+00
          4   -1    0    0  501    0  0.00000000000E+00  0.00000000000E+00  0.11853235183E+03  0.11853235183E+03  0.00000000000E+00 0. -1.
         -4   -1    0    0    0  501 -0.00000000000E+00 -0.00000000000E+00 -0.10658033239E+03  0.10658033239E+03  0.00000000000E+00 0.  1.
         23    2    1    2    0    0 -0.22398392495E+02  0.58354104759E+02 -0.16308833479E+02  0.11215314511E+03  0.91681297878E+02 0.  0.
         23    2    1    2    0    0  0.22398392495E+02 -0.58354104759E+02  0.28260852918E+02  0.11295953911E+03  0.89745708202E+02 0.  0.
          5    1    4    4  502    0 -0.17616097969E+01 -0.65356582083E+02  0.47495082592E+02  0.80947260368E+02  0.47000000000E+01 0. -1.
         -5    1    4    4    0  502  0.24160002292E+02  0.70024773235E+01 -0.19234229674E+02  0.32012278747E+02  0.47000000000E+01 0.  1.
          5    1    3    3  503    0 -0.51344835899E+02  0.46281711400E+02 -0.32519532411E+02  0.76536912479E+02  0.47000000000E+01 0. -1.
         -5    1    3    3    0  503  0.28946443404E+02  0.12072393360E+02  0.16210698931E+02  0.35616232634E+02  0.47000000000E+01 0.  1.
<mgrwt>
<rscale>  0 0.11056040E+03</rscale>
<asrwt>0</asrwt>
<pdfrwt beam="1">  1        4 0.18235746E-01 0.11096103E+03</pdfrwt>
<pdfrwt beam="2">  1       -4 0.16396974E-01 0.11096103E+03</pdfrwt>
<totfact> 0.13508805E+03</totfact>
</mgrwt>
</event>
<event>
 8    1  0.5224537E-004  0.1011453E+03  0.7546771E-02  0.1280051E+00
          3   -1    0    0  501    0  0.00000000000E+00  0.00000000000E+00  0.11393656553E+03  0.11393656553E+03  0.00000000000E+00 0. -1.
         -3   -1    0    0    0  501 -0.00000000000E+00 -0.00000000000E+00 -0.95599627016E+02  0.95599627016E+02  0.00000000000E+00 0.  1.
         23    2    1    2    0    0 -0.11890390162E+02  0.31488748536E+02  0.41794033200E+02  0.10570649577E+03  0.91072495160E+02 0.  0.
         23    2    1    2    0    0  0.11890390162E+02 -0.31488748536E+02 -0.23457094685E+02  0.10382969677E+03  0.95380542977E+02 0.  0.
          5    1    4    4  502    0  0.30490285569E+02  0.26095411093E+02 -0.79013123128E+01  0.41172183940E+02  0.47000000000E+01 0. -1.
         -5    1    4    4    0  502 -0.18599895407E+02 -0.57584159629E+02 -0.15555782372E+02  0.62657512834E+02  0.47000000000E+01 0.  1.
          5    1    3    3  503    0 -0.49943477695E+02  0.30389498639E+02  0.23109076819E+02  0.63039606782E+02  0.47000000000E+01 0. -1.
         -5    1    3    3    0  503  0.38053087533E+02  0.10992498974E+01  0.18684956381E+02  0.42666888990E+02  0.47000000000E+01 0.  1.
<mgrwt>
<rscale>  0 0.10011673E+03</rscale>
<asrwt>0</asrwt>
<pdfrwt beam="1">  1        3 0.17528702E-01 0.10114529E+03</pdfrwt>
<pdfrwt beam="2">  1       -3 0.14707635E-01 0.10114529E+03</pdfrwt>
<totfact> 0.23542424E+03</totfact>
</mgrwt>
</event>
<event>
 8    1  0.5224537E-004  0.9520349E+02  0.7546771E-02  0.1292826E+00
          1   -1    0    0  501    0  0.00000000000E+00  0.00000000000E+00  0.11239677256E+03  0.11239677256E+03  0.00000000000E+00 0. -1.
         -1   -1    0    0    0  501 -0.00000000000E+00 -0.00000000000E+00 -0.83699683948E+02  0.83699683948E+02  0.00000000000E+00 0.  1.
         23    2    1    2    0    0  0.13114275908E+02 -0.11547558373E+02 -0.12469134526E+02  0.92373930232E+02  0.89845051804E+02 0.  0.
         23    2    1    2    0    0 -0.13114275908E+02  0.11547558373E+02  0.41166223137E+02  0.10372252628E+03  0.93586185908E+02 0.  0.
          5    1    3    3  502    0 -0.13281317791E+01  0.30822861860E+02  0.19829275624E+02  0.36974354883E+02  0.47000000000E+01 0. -1.
         -5    1    3    3    0  502  0.14442407687E+02 -0.42370420233E+02 -0.32298410150E+02  0.55399575348E+02  0.47000000000E+01 0.  1.
          5    1    4    4  503    0  0.70633363438E+01  0.32626353723E+02  0.59896409245E+02  0.68731648591E+02  0.47000000000E+01 0. -1.
         -5    1    4    4    0  503 -0.20177612252E+02 -0.21078795350E+02 -0.18730186107E+02  0.34990877686E+02  0.47000000000E+01 0.  1.
<mgrwt>
<rscale>  0 0.94271132E+02</rscale>
<asrwt>0</asrwt>
<pdfrwt beam="1">  1        1 0.17291811E-01 0.95203490E+02</pdfrwt>
<pdfrwt beam="2">  1       -1 0.12876874E-01 0.95203490E+02</pdfrwt>
<totfact> 0.11481758E+04</totfact>
</mgrwt>
</event>
<event>
 8    1  0.5224537E-004  0.1071908E+03  0.7546771E-02  0.1266241E+00
         -1   -1    0    0    0  501 -0.00000000000E+00  0.00000000000E+00  0.20169707209E+03  0.20169707209E+03  0.00000000000E+00 0.  1.
          1   -1    0    0  501    0  0.00000000000E+00 -0.00000000000E+00 -0.10485287350E+03  0.10485287350E+03  0.00000000000E+00 0. -1.
         23    2    1    2    0    0 -0.18040655344E+02  0.49938567255E+02  0.15255208279E+03  0.18644570807E+03  0.93115725581E+02 0.  0.
         23    2    1    2    0    0  0.18040655344E+02 -0.49938567255E+02 -0.55707884204E+02  0.12010423751E+03  0.92208100300E+02 0.  0.
          5    1    4    4  502    0  0.41031731207E+02 -0.49454580984E+02 -0.67942299063E+02  0.93635487654E+02  0.47000000000E+01 0. -1.
         -5    1    3    3    0  503 -0.25347379273E+02  0.48708998254E+01  0.13464747018E+03  0.13717961410E+03  0.47000000000E+01 0.  1.
          5    1    3    3  503    0  0.73067239289E+01  0.45067667430E+02  0.17904612616E+02  0.49266093970E+02  0.47000000000E+01 0. -1.
         -5    1    4    4    0  502 -0.22991075863E+02 -0.48398627053E+00  0.12234414859E+02  0.26468749857E+02  0.47000000000E+01 0.  1.
<mgrwt>
<rscale>  0 0.10699336E+03</rscale>
<asrwt>0</asrwt>
<pdfrwt beam="1">  1        1 0.16131211E-01 0.10719078E+03</pdfrwt>
<pdfrwt beam="2">  1       -1 0.31030319E-01 0.10719078E+03</pdfrwt>
<totfact> 0.31064793E+03</totfact>
</mgrwt>
</event>
<event>
 8    1  0.5224537E-004  0.9445752E+02  0.7546771E-02  0.1292899E+00
         -3   -1    0    0    0  501 -0.00000000000E+00  0.00000000000E+00  0.32308707735E+02  0.32308707735E+02  0.00000000000E+00 0.  1.
          3   -1    0    0  501    0  0.00000000000E+00 -0.00000000000E+00 -0.28657776947E+03  0.28657776947E+03  0.00000000000E+00 0. -1.
         23    2    1    2    0    0  0.11740443081E+02 -0.14386165172E+02 -0.16047869888E+03  0.18577428466E+03  0.91727162247E+02 0.  0.
         23    2    1    2    0    0 -0.11740443081E+02  0.14386165172E+02 -0.93790362861E+02  0.13311219255E+03  0.92614382730E+02 0.  0.
          5    1    3    3  502    0 -0.39385528714E+02 -0.37804398808E+00 -0.57465948706E+02  0.69826843334E+02  0.47000000000E+01 0. -1.
         -5    1    3    3    0  502  0.51125971795E+02 -0.14008121184E+02 -0.10301275017E+03  0.11594744132E+03  0.47000000000E+01 0.  1.
          5    1    4    4  503    0 -0.28922510702E+02  0.45568234100E+02 -0.35911845066E+02  0.64997893815E+02  0.47000000000E+01 0. -1.
         -5    1    4    4    0  503  0.17182067621E+02 -0.31182068928E+02 -0.57878517795E+02  0.68114298738E+02  0.47000000000E+01 0.  1.
<mgrwt>
<rscale>  0 0.94239332E+02</rscale>
<asrwt>0</asrwt>
<pdfrwt beam="1">  1        3 0.44088887E-01 0.94457523E+02</pdfrwt>
<pdfrwt beam="2">  1       -3 0.49705705E-02 0.94457523E+02</pdfrwt>
<totfact> 0.25216769E+03</totfact>
</mgrwt>
</event>
<event>
 8    1  0.5224537E-004  0.1061133E+03  0.7546771E-02  0.1270080E+00
         -3   -1    0    0    0  501 -0.00000000000E+00  0.00000000000E+00  0.13505362819E+03  0.13505362819E+03  0.00000000000E+00 0.  1.
          3   -1    0    0  501    0  0.00000000000E+00 -0.00000000000E+00 -0.21258263169E+03  0.21258263169E+03  0.00000000000E+00 0. -1.
         23    2    1    2    0    0 -0.39493518308E+02  0.25939348564E+02  0.98178166942E+02  0.14456478535E+03  0.95012824954E+02 0.  0.
         23    2    1    2    0    0  0.39493518308E+02 -0.25939348564E+02 -0.17570717045E+03  0.20307147454E+03  0.90179965796E+02 0.  0.
          5    1    4    4  502    0  0.18570120207E+02 -0.49924322810E+02 -0.49636126960E+02  0.72959731853E+02  0.47000000000E+01 0. -1.
         -5    1    4    4    0  502  0.20923398102E+02  0.23984974246E+02 -0.12607104349E+03  0.13011174268E+03  0.47000000000E+01 0.  1.
          5    1    3    3  503    0  0.24660780353E+02 -0.15371547276E+02  0.23147481578E+02  0.37447756364E+02  0.47000000000E+01 0. -1.
         -5    1    3    3    0  503 -0.64154298661E+02  0.41310895840E+02  0.75030685364E+02  0.10711702898E+03  0.47000000000E+01 0.  1.
<mgrwt>
<rscale>  0 0.10502036E+03</rscale>
<asrwt>0</asrwt>
<pdfrwt beam="1">  1        3 0.32705020E-01 0.10611326E+03</pdfrwt>
<pdfrwt beam="2">  1       -3 0.20777481E-01 0.10611326E+03</pdfrwt>
<totfact> 0.42882650E+02</totfact>
</mgrwt>
</event>
<event>
 8    1  0.5224537E-004  0.9389014E+02  0.7546771E-02  0.1293715E+00
          1   -1    0    0  501    0  0.00000000000E+00  0.00000000000E+00  0.88831603208E+03  0.88831603208E+03  0.00000000000E+00 0. -1.
         -1   -1    0    0    0  501 -0.00000000000E+00 -0.00000000000E+00 -0.11779784785E+02  0.11779784785E+02  0.00000000000E+00 0.  1.
         23    2    1    2    0    0  0.18577510554E+01  0.92639360455E+01  0.25937970871E+03  0.27583821633E+03  0.93378887074E+02 0.  0.
         23    2    1    2    0    0 -0.18577510554E+01 -0.92639360455E+01  0.61715653859E+03  0.62425760053E+03  0.93413526585E+02 0.  0.
          5    1    3    3  502    0  0.44268294241E+02  0.20503436527E+02  0.11938378522E+03  0.12905289984E+03  0.47000000000E+01 0. -1.
         -5    1    3    3    0  502 -0.42410543185E+02 -0.11239500482E+02  0.13999592349E+03  0.14678531649E+03  0.47000000000E+01 0.  1.
          5    1    4    4  503    0  0.36684076745E+02 -0.31905328702E+02  0.30703538349E+03  0.31089626598E+03  0.47000000000E+01 0. -1.
         -5    1    4    4    0  503 -0.38541827800E+02  0.22641392657E+02  0.31012115510E+03  0.31336133455E+03  0.47000000000E+01 0.  1.
<mgrwt>
<rscale>  0 0.93881525E+02</rscale>
<asrwt>0</asrwt>
<pdfrwt beam="1">  1        1 0.13666395E+00 0.93890142E+02</pdfrwt>
<pdfrwt beam="2">  1       -1 0.18122753E-02 0.93890142E+02</pdfrwt>
<totfact> 0.14370725E+04</totfact>
</mgrwt>
</event>
<event>
 8    1  0.5224537E-004  0.1069358E+03  0.7546771E-02  0.1266648E+00
         -3   -1    0    0    0  501 -0.00000000000E+00  0.00000000000E+00  0.99302566176E+02  0.99302566176E+02  0.00000000000E+00 0.  1.
          3   -1    0    0  501    0  0.00000000000E+00 -0.00000000000E+00 -0.12153884244E+03  0.12153884244E+03  0.00000000000E+00 0. -1.
         23    2    1    2    0    0  0.71675907008E+01  0.55035687100E+02  0.15432452378E+02  0.10804360064E+03  0.91405458489E+02 0.  0.
         23    2    1    2    0    0 -0.71675907008E+01 -0.55035687100E+02 -0.37668728640E+02  0.11279780797E+03  0.90686885245E+02 0.  0.
          5    1    3    3  502    0 -0.30904693092E+02 -0.68238023058E+01 -0.51335045667E+01  0.32405357615E+02  0.47000000000E+01 0. -1.
         -5    1    4    4    0  503  0.28720357974E+02 -0.22271916391E+02  0.16225911386E+02  0.40078266208E+02  0.47000000000E+01 0.  1.
          5    1    4    4  503    0 -0.35887948675E+02 -0.32763770709E+02 -0.53894640026E+02  0.72719541766E+02  0.47000000000E+01 0. -1.
         -5    1    3    3    0  502  0.38072283793E+02  0.61859489406E+02  0.20565956945E+02  0.75638243024E+02  0.47000000000E+01 0.  1.
<mgrwt>
<rscale>  0 0.10678205E+03</rscale>
<asrwt>0</asrwt>
<pdfrwt beam="1">  1        3 0.18698284E-01 0.10693577E+03</pdfrwt>
<pdfrwt beam="2">  1       -3 0.15277318E-01 0.10693577E+03</pdfrwt>
<totfact> 0.19951072E+03</totfact>
</mgrwt>
</event>
<event>
 8    1  0.5224537E-004  0.9328061E+02  0.7546771E-02  0.1297321E+00
          1   -1    0    0  501    0  0.00000000000E+00  0.00000000000E+00  0.25506987176E+03  0.25506987176E+03  0.00000000000E+00 0. -1.
         -1   -1    0    0    0  501 -0.00000000000E+00 -0.00000000000E+00 -0.33298327531E+02  0.33298327531E+02  0.00000000000E+00 0.  1.
         23    2    1    2    0    0 -0.90656081645E+01  0.72270165498E+01  0.12716464468E+03  0.15550835682E+03  0.88755772567E+02 0.  0.
         23    2    1    2    0    0  0.90656081645E+01 -0.72270165498E+01  0.94606899555E+02  0.13285984248E+03  0.92557318893E+02 0.  0.
          5    1    4    4  502    0 -0.33975228336E+02 -0.97960929979E+01  0.88395150721E+01  0.36749239519E+02  0.47000000000E+01 0. -1.
         -5    1    3    3    0  503  0.23843511329E+02  0.34972023505E+02  0.84993076437E+02  0.95065601049E+02  0.47000000000E+01 0.  1.
          5    1    3    3  503    0 -0.32909119494E+02 -0.27745006955E+02  0.42171568240E+02  0.60442755766E+02  0.47000000000E+01 0. -1.
         -5    1    4    4    0  502  0.43040836500E+02  0.25690764481E+01  0.85767384483E+02  0.96110602961E+02  0.47000000000E+01 0.  1.
<mgrwt>
<rscale>  0 0.92323268E+02</rscale>
<asrwt>0</asrwt>
<pdfrwt beam="1">  1        1 0.39241518E-01 0.93280611E+02</pdfrwt>
<pdfrwt beam="2">  1       -1 0.51228198E-02 0.93280611E+02</pdfrwt>
<totfact> 0.16476502E+04</totfact>
</mgrwt>
</event>
<event>
 8    1  0.5224537E-004  0.1163781E+03  0.7546771E-02  0.1250139E+00
         -1   -1    0    0    0  501 -0.00000000000E+00  0.00000000000E+00  0.83054455202E+02  0.83054455202E+02  0.00000000000E+00 0.  1.
          1   -1    0    0  501    0  0.00000000000E+00 -0.00000000000E+00 -0.28561253313E+03  0.28561253313E+03  0.00000000000E+00 0. -1.
         23    2    1    2    0    0  0.55006177270E+02  0.43028983652E+02 -0.22403973590E+03  0.25246317660E+03  0.93095001492E+02 0.  0.
         23    2    1    2    0    0 -0.55006177270E+02 -0.43028983652E+02  0.21481657970E+02  0.11620381174E+03  0.90358681162E+02 0.  0.
          5    1    3    3  502    0  0.71916390855E+02  0.18412438209E+02 -0.20138692991E+03  0.21468528290E+03  0.47000000000E+01 0. -1.
         -5    1    4    4    0  503  0.76617017898E+01  0.21804118379E+02  0.80379522397E+01  0.24916258323E+02  0.47000000000E+01 0.  1.
          5    1    4    4  503    0 -0.62667879060E+02 -0.64833102031E+02  0.13443705730E+02  0.91287553416E+02  0.47000000000E+01 0. -1.
         -5    1    3    3    0  502 -0.16910213585E+02  0.24616545443E+02 -0.22652805990E+02  0.37777893698E+02  0.47000000000E+01 0.  1.
<mgrwt>
<rscale>  0 0.11582993E+03</rscale>
<asrwt>0</asrwt>
<pdfrwt beam="1">  1        1 0.43940390E-01 0.11637806E+03</pdfrwt>
<pdfrwt beam="2">  1       -1 0.12777608E-01 0.11637806E+03</pdfrwt>
<totfact> 0.37022012E+03</totfact>
</mgrwt>
</event>
<event>
 8    1  0.5224537E-004  0.9928749E+02  0.7546771E-02  0.1284993E+00
          1   -1    0    0  501    0  0.00000000000E+00  0.00000000000E+00  0.61018072492E+03  0.61018072492E+03  0.00000000000E+00 0. -1.
         -1   -1    0    0    0  501 -0.00000000000E+00 -0.00000000000E+00 -0.15294397287E+02  0.15294397287E+02  0.00000000000E+00 0.  1.
         23    2    1    2    0    0 -0.12019144347E+02 -0.21029746245E+02  0.32778355267E+03  0.34249096814E+03  0.96287568246E+02 0.  0.
         23    2    1    2    0    0  0.12019144347E+02  0.21029746245E+02  0.26710277496E+03  0.28298415406E+03  0.90274187907E+02 0.  0.
          5    1    4    4  502    0  0.39007878156E+02  0.10041972022E+01  0.51795184545E+02  0.65018875046E+02  0.47000000000E+01 0. -1.
         -5    1    3    3    0  503 -0.48814722295E+02  0.64422205900E+01  0.12306273857E+03  0.13263071644E+03  0.47000000000E+01 0.  1.
          5    1    3    3  503    0  0.36795577948E+02 -0.27471966835E+02  0.20472081410E+03  0.20986025170E+03  0.47000000000E+01 0. -1.
         -5    1    4    4    0  502 -0.26988733809E+02  0.20025549043E+02  0.21530759041E+03  0.21796527901E+03  0.47000000000E+01 0.  1.
<mgrwt>
<rscale>  0 0.97799322E+02</rscale>
<asrwt>0</asrwt>
<pdfrwt beam="1">  1        1 0.93873938E-01 0.99287491E+02</pdfrwt>
<pdfrwt beam="2">  1       -1 0.23529847E-02 0.99287491E+02</pdfrwt>
<totfact> 0.17086950E+04</totfact>
</mgrwt>
</event>
<event>
 8    1  0.5224537E-004  0.9694144E+02  0.7546771E-02  0.1287000E+00
         -2   -1    0    0    0  501 -0.00000000000E+00  0.00000000000E+00  0.72517120520E+02  0.72517120520E+02  0.00000000000E+00 0.  1.
          2   -1    0    0  501    0  0.00000000000E+00 -0.00000000000E+00 -0.31930061074E+03  0.31930061074E+03  0.00000000000E+00 0. -1.
         23    2    1    2    0    0  0.13370413139E+02 -0.30527920952E+02 -0.27459702860E+03  0.29120640490E+03  0.91032522947E+02 0.  0.
         23    2    1    2    0    0 -0.13370413139E+02  0.30527920952E+02  0.27813538372E+02  0.10061132637E+03  0.90765214544E+02 0.  0.
          5    1    3    3  502    0  0.20521499403E+02 -0.51532596615E+02 -0.25568661986E+03  0.26167628480E+03  0.47000000000E+01 0. -1.
         -5    1    3    3    0  502 -0.71510862637E+01  0.21004675663E+02 -0.18910408741E+02  0.29530120101E+02  0.47000000000E+01 0.  1.
          5    1    4    4  503    0 -0.32808961028E+02 -0.18078160396E+02 -0.58374811341E+01  0.38202277328E+02  0.47000000000E+01 0. -1.
         -5    1    4    4    0  503  0.19438547889E+02  0.48606081348E+02  0.33651019506E+02  0.62409049038E+02  0.47000000000E+01 0.  1.
<mgrwt>
<rscale>  0 0.96878633E+02</rscale>
<asrwt>0</asrwt>
<pdfrwt beam="1">  1        2 0.49123172E-01 0.96941437E+02</pdfrwt>
<pdfrwt beam="2">  1       -2 0.11156480E-01 0.96941437E+02</pdfrwt>
<totfact> 0.53304888E+03</totfact>
</mgrwt>
</event>
<event>
 8    1  0.5224537E-004  0.9533853E+02  0.7546771E-02  0.1290674E+00
         -3   -1    0    0    0  501 -0.00000000000E+00  0.00000000000E+00  0.12272366960E+03  0.12272366960E+03  0.00000000000E+00 0.  1.
          3   -1    0    0  501    0  0.00000000000E+00 -0.00000000000E+00 -0.75823124496E+02  0.75823124496E+02  0.00000000000E+00 0. -1.
         23    2    1    2    0    0  0.18632393754E+02  0.20248945209E+02  0.68111382402E+01  0.95122441346E+02  0.90800337910E+02 0.  0.
         23    2    1    2    0    0 -0.18632393754E+02 -0.20248945209E+02  0.40089406860E+02  0.10342435275E+03  0.91281160813E+02 0.  0.
          5    1    3    3  502    0 -0.11177958338E+02  0.47004359019E+02 -0.12906057916E+02  0.50229601335E+02  0.47000000000E+01 0. -1.
         -5    1    4    4    0  503  0.14697080195E+02 -0.41248999938E+02 -0.38692661525E+01  0.44210240700E+02  0.47000000000E+01 0.  1.
          5    1    4    4  503    0 -0.33329473949E+02  0.21000054729E+02  0.43958673013E+02  0.59214112046E+02  0.47000000000E+01 0. -1.
         -5    1    3    3    0  502  0.29810352092E+02 -0.26755413810E+02  0.19717196157E+02  0.44892840011E+02  0.47000000000E+01 0.  1.
<mgrwt>
<rscale>  0 0.95223261E+02</rscale>
<asrwt>0</asrwt>
<pdfrwt beam="1">  1        3 0.11665096E-01 0.95338535E+02</pdfrwt>
<pdfrwt beam="2">  1       -3 0.18880565E-01 0.95338535E+02</pdfrwt>
<totfact> 0.30173123E+03</totfact>
</mgrwt>
</event>
<event>
 8    1  0.5224537E-004  0.1236098E+03  0.7546771E-02  0.1239639E+00
          2   -1    0    0  501    0  0.00000000000E+00  0.00000000000E+00  0.83848138993E+02  0.83848138993E+02  0.00000000000E+00 0. -1.
         -2   -1    0    0    0  501 -0.00000000000E+00 -0.00000000000E+00 -0.46774464244E+03  0.46774464244E+03  0.00000000000E+00 0.  1.
         23    2    1    2    0    0  0.66428953295E+02  0.34927513395E+02 -0.41232111206E+03  0.43045100829E+03  0.98217279834E+02 0.  0.
         23    2    1    2    0    0 -0.66428953295E+02 -0.34927513395E+02  0.28424608614E+02  0.12114177315E+03  0.90744883041E+02 0.  0.
          5    1    4    4  502    0 -0.32228928953E+02 -0.61418265998E+02  0.65736951643E+00  0.69522869577E+02  0.47000000000E+01 0. -1.
         -5    1    4    4    0  502 -0.34200024342E+02  0.26490752603E+02  0.27767239097E+02  0.51618903568E+02  0.47000000000E+01 0.  1.
          5    1    3    3  503    0  0.53575859938E+02 -0.27003498058E+02 -0.20258497315E+03  0.21133462334E+03  0.47000000000E+01 0. -1.
         -5    1    3    3    0  503  0.12853093357E+02  0.61931011453E+02 -0.20973613891E+03  0.21911638495E+03  0.47000000000E+01 0.  1.
<mgrwt>
<rscale>  0 0.12212057E+03</rscale>
<asrwt>0</asrwt>
<pdfrwt beam="1">  1        2 0.12899713E-01 0.12360975E+03</pdfrwt>
<pdfrwt beam="2">  1       -2 0.71960717E-01 0.12360975E+03</pdfrwt>
<totfact> 0.82217308E+02</totfact>
</mgrwt>
</event>
<event>
 8    1  0.5224537E-004  0.1099873E+03  0.7546771E-02  0.1260760E+00
          2   -1    0    0  501    0  0.00000000000E+00  0.00000000000E+00  0.42077195860E+03  0.42077195860E+03  0.00000000000E+00 0. -1.
         -2   -1    0    0    0  501 -0.00000000000E+00 -0.00000000000E+00 -0.28886916806E+02  0.28886916806E+02  0.00000000000E+00 0.  1.
         23    2    1    2    0    0  0.32019953423E+02  0.51523004677E+02  0.21635828076E+03  0.24270994296E+03  0.91745917221E+02 0.  0.
         23    2    1    2    0    0 -0.32019953423E+02 -0.51523004677E+02  0.17552676103E+03  0.20694893245E+03  0.91314398513E+02 0.  0.
          5    1    4    4  502    0 -0.58353720575E+02 -0.17048386612E+02  0.13156576966E+03  0.14500843403E+03  0.47000000000E+01 0. -1.
         -5    1    4    4    0  502  0.26333767152E+02 -0.34474618065E+02  0.43960991365E+02  0.61940498423E+02  0.47000000000E+01 0.  1.
          5    1    3    3  503    0  0.17354656917E+02 -0.25564272381E+02  0.56476013469E+02  0.64547240347E+02  0.47000000000E+01 0. -1.
         -5    1    3    3    0  503  0.14665296506E+02  0.77087277058E+02  0.15988226729E+03  0.17816270261E+03  0.47000000000E+01 0.  1.
<mgrwt>
<rscale>  0 0.10989729E+03</rscale>
<asrwt>0</asrwt>
<pdfrwt beam="1">  1        2 0.64734143E-01 0.10998732E+03</pdfrwt>
<pdfrwt beam="2">  1       -2 0.44441414E-02 0.10998732E+03</pdfrwt>
<totfact> 0.16353056E+04</totfact>
</mgrwt>
</event>
<event>
 8    1  0.5224537E-004  0.1135799E+03  0.7546771E-02  0.1254123E+00
          1   -1    0    0  501    0  0.00000000000E+00  0.00000000000E+00  0.38818993698E+03  0.38818993698E+03  0.00000000000E+00 0. -1.
         -1   -1    0    0    0  501 -0.00000000000E+00 -0.00000000000E+00 -0.36051302167E+02  0.36051302167E+02  0.00000000000E+00 0.  1.
         23    2    1    2    0    0 -0.58883747946E+02  0.32711991885E+02  0.23561211026E+03  0.26151807112E+03  0.91330525228E+02 0.  0.
         23    2    1    2    0    0  0.58883747946E+02 -0.32711991885E+02  0.11652652455E+03  0.16272316802E+03  0.91449594322E+02 0.  0.
          5    1    4    4  502    0  0.79561535377E+02 -0.86927301382E+01  0.71259013039E+02  0.10726387280E+03  0.47000000000E+01 0. -1.
         -5    1    3    3    0  503 -0.74869636742E+02  0.49407157745E+02  0.18276477672E+03  0.20364573001E+03  0.47000000000E+01 0.  1.
          5    1    3    3  503    0  0.15985888796E+02 -0.16695165860E+02  0.52847333537E+02  0.57872341111E+02  0.47000000000E+01 0. -1.
         -5    1    4    4    0  502 -0.20677787431E+02 -0.24019261747E+02  0.45267511515E+02  0.55459295223E+02  0.47000000000E+01 0.  1.
<mgrwt>
<rscale>  0 0.11355595E+03</rscale>
<asrwt>0</asrwt>
<pdfrwt beam="1">  1        1 0.59721526E-01 0.11357992E+03</pdfrwt>
<pdfrwt beam="2">  1       -1 0.55463545E-02 0.11357992E+03</pdfrwt>
<totfact> 0.88955704E+03</totfact>
</mgrwt>
</event>
<event>
 8    1  0.5224537E-004  0.1021043E+03  0.7546771E-02  0.1276925E+00
         -1   -1    0    0    0  501 -0.00000000000E+00  0.00000000000E+00  0.24837128201E+03  0.24837128201E+03  0.00000000000E+00 0.  1.
          1   -1    0    0  501    0  0.00000000000E+00 -0.00000000000E+00 -0.41192417145E+02  0.41192417145E+02  0.00000000000E+00 0. -1.
         23    2    1    2    0    0  0.40062396130E+02  0.20804784678E+02  0.10405595475E+03  0.14444432960E+03  0.89435384410E+02 0.  0.
         23    2    1    2    0    0 -0.40062396130E+02 -0.20804784678E+02  0.10312291011E+03  0.14511936956E+03  0.91583088948E+02 0.  0.
          5    1    4    4  502    0 -0.77470752049E+01  0.34477313960E+02  0.22914743572E+02  0.42377798729E+02  0.47000000000E+01 0. -1.
         -5    1    4    4    0  502 -0.32315320926E+02 -0.55282098638E+02  0.80208166543E+02  0.10274157083E+03  0.47000000000E+01 0.  1.
          5    1    3    3  503    0  0.14570590158E+02  0.46275463849E+02  0.19662272645E+02  0.52558687365E+02  0.47000000000E+01 0. -1.
         -5    1    3    3    0  503  0.25491805972E+02 -0.25470679171E+02  0.84393682104E+02  0.91885642231E+02  0.47000000000E+01 0.  1.
<mgrwt>
<rscale>  0 0.10162044E+03</rscale>
<asrwt>0</asrwt>
<pdfrwt beam="1">  1        1 0.63372951E-02 0.10210434E+03</pdfrwt>
<pdfrwt beam="2">  1       -1 0.38210966E-01 0.10210434E+03</pdfrwt>
<totfact> 0.74130727E+03</totfact>
</mgrwt>
</event>
<event>
 8    1  0.5224537E-004  0.9520933E+02  0.7546771E-02  0.1295250E+00
          1   -1    0    0  501    0  0.00000000000E+00  0.00000000000E+00  0.63236966096E+03  0.63236966096E+03  0.00000000000E+00 0. -1.
         -1   -1    0    0    0  501 -0.00000000000E+00 -0.00000000000E+00 -0.13284778403E+02  0.13284778403E+02  0.00000000000E+00 0.  1.
         23    2    1    2    0    0  0.26120067508E+02 -0.29892164657E+01  0.34922460389E+03  0.36197049711E+03  0.91507505020E+02 0.  0.
         23    2    1    2    0    0 -0.26120067508E+02  0.29892164657E+01  0.26986027867E+03  0.28368394226E+03  0.83431503329E+02 0.  0.
          5    1    3    3  502    0 -0.17011226173E+02 -0.27713440401E+02  0.59454125482E+02  0.67928636315E+02  0.47000000000E+01 0. -1.
         -5    1    3    3    0  502  0.43131293681E+02  0.24724223935E+02  0.28977047840E+03  0.29404186079E+03  0.47000000000E+01 0.  1.
          5    1    4    4  503    0 -0.49198605350E+02 -0.16631458398E+02  0.21065895518E+03  0.21701703522E+03  0.47000000000E+01 0. -1.
         -5    1    4    4    0  503  0.23078537843E+02  0.19620674864E+02  0.59201323496E+02  0.66666907044E+02  0.47000000000E+01 0.  1.
<mgrwt>
<rscale>  0 0.93214092E+02</rscale>
<asrwt>0</asrwt>
<pdfrwt beam="1">  1        1 0.97287617E-01 0.95209332E+02</pdfrwt>
<pdfrwt beam="2">  1       -1 0.20438125E-02 0.95209332E+02</pdfrwt>
<totfact> 0.19840663E+04</totfact>
</mgrwt>
</event>
<event>
 8    1  0.5224537E-004  0.9422677E+02  0.7546771E-02  0.1306224E+00
          1   -1    0    0  501    0  0.00000000000E+00  0.00000000000E+00  0.31403603996E+03  0.31403603996E+03  0.00000000000E+00 0. -1.
         -1   -1    0    0    0  501 -0.00000000000E+00 -0.00000000000E+00 -0.56468886361E+02  0.56468886361E+02  0.00000000000E+00 0.  1.
         23    2    1    2    0    0  0.14424346594E+02  0.17303242740E+02 -0.20812472132E+02  0.76610558342E+02  0.70203665640E+02 0.  0.
         23    2    1    2    0    0 -0.14424346594E+02 -0.17303242740E+02  0.27837962573E+03  0.29389436798E+03  0.91494368808E+02 0.  0.
          5    1    4    4  502    0  0.47341859485E+01 -0.48935646697E+02  0.21283200754E+03  0.21848721580E+03  0.47000000000E+01 0. -1.
         -5    1    3    3    0  503 -0.24572595501E+02  0.22154811852E+02 -0.14918555220E+02  0.36596467422E+02  0.47000000000E+01 0.  1.
          5    1    3    3  503    0  0.38996942095E+02 -0.48515691128E+01 -0.58939169119E+01  0.40014090920E+02  0.47000000000E+01 0. -1.
         -5    1    4    4    0  502 -0.19158532543E+02  0.31632403957E+02  0.65547618190E+02  0.75407152178E+02  0.47000000000E+01 0.  1.
<mgrwt>
<rscale>  0 0.88621854E+02</rscale>
<asrwt>0</asrwt>
<pdfrwt beam="1">  1        1 0.48313236E-01 0.94226766E+02</pdfrwt>
<pdfrwt beam="2">  1       -1 0.86875212E-02 0.94226766E+02</pdfrwt>
<totfact> 0.58481501E+03</totfact>
</mgrwt>
</event>
<event>
 8    1  0.5224537E-004  0.1026214E+03  0.7546771E-02  0.1276042E+00
         -1   -1    0    0    0  501 -0.00000000000E+00  0.00000000000E+00  0.67066156375E+02  0.67066156375E+02  0.00000000000E+00 0.  1.
          1   -1    0    0  501    0  0.00000000000E+00 -0.00000000000E+00 -0.16531715110E+03  0.16531715110E+03  0.00000000000E+00 0. -1.
         23    2    1    2    0    0  0.41131977270E+02  0.14551646874E+02 -0.79574371356E+02  0.12807626755E+03  0.90376212309E+02 0.  0.
         23    2    1    2    0    0 -0.41131977270E+02 -0.14551646874E+02 -0.18676623368E+02  0.10430703993E+03  0.92884618408E+02 0.  0.
          5    1    3    3  502    0  0.77202343163E+01  0.24249959910E+02 -0.88205747189E+02  0.91923916424E+02  0.47000000000E+01 0. -1.
         -5    1    4    4    0  503 -0.11293766520E+02 -0.44760859234E+02  0.16209770598E+02  0.49152114343E+02  0.47000000000E+01 0.  1.
          5    1    4    4  503    0 -0.29838210750E+02  0.30209212360E+02 -0.34886393965E+02  0.55154925583E+02  0.47000000000E+01 0. -1.
         -5    1    3    3    0  502  0.33411742954E+02 -0.96983130360E+01  0.86313758334E+01  0.36152351123E+02  0.47000000000E+01 0. -1.
<mgrwt>
<rscale>  0 0.10205042E+03</rscale>
<asrwt>0</asrwt>
<pdfrwt beam="1">  1        1 0.25433407E-01 0.10262135E+03</pdfrwt>
<pdfrwt beam="2">  1       -1 0.10317870E-01 0.10262135E+03</pdfrwt>
<totfact> 0.99870935E+03</totfact>
</mgrwt>
</event>
<event>
 8    1  0.5224537E-004  0.1001845E+03  0.7546771E-02  0.1281372E+00
         -1   -1    0    0    0  501 -0.00000000000E+00  0.00000000000E+00  0.21662945958E+02  0.21662945958E+02  0.00000000000E+00 0.  1.
          1   -1    0    0  501    0  0.00000000000E+00 -0.00000000000E+00 -0.46986638331E+03  0.46986638331E+03  0.00000000000E+00 0. -1.
         23    2    1    2    0    0 -0.97063708998E+01  0.32666962580E+02 -0.17147652042E+03  0.19722552691E+03  0.91281801735E+02 0.  0.
         23    2    1    2    0    0  0.97063708998E+01 -0.32666962580E+02 -0.27672691693E+03  0.29430380236E+03  0.94210389286E+02 0.  0.
          5    1    3    3  502    0  0.36461351992E+02  0.17497409970E+02 -0.40423783047E+02  0.57373877162E+02  0.47000000000E+01 0. -1.
         -5    1    4    4    0  503  0.29568923974E+02 -0.17961190958E+02 -0.26364873149E+03  0.26595050153E+03  0.47000000000E+01 0. -1.
          5    1    4    4  503    0 -0.19862553074E+02 -0.14705771623E+02 -0.13078185435E+02  0.28353300829E+02  0.47000000000E+01 0.  1.
         -5    1    3    3    0  502 -0.46167722892E+02  0.15169552611E+02 -0.13105273737E+03  0.13985164975E+03  0.47000000000E+01 0.  1.
<mgrwt>
<rscale>  0 0.99490136E+02</rscale>
<asrwt>0</asrwt>
<pdfrwt beam="1">  1        1 0.72287144E-01 0.10018454E+03</pdfrwt>
<pdfrwt beam="2">  1       -1 0.33327606E-02 0.10018454E+03</pdfrwt>
<totfact> 0.14576670E+04</totfact>
</mgrwt>
</event>
<event>
 8    1  0.5224537E-004  0.9556049E+02  0.7546771E-02  0.1292250E+00
         -1   -1    0    0    0  501 -0.00000000000E+00  0.00000000000E+00  0.21333253362E+02  0.21333253362E+02  0.00000000000E+00 0.  1.
          1   -1    0    0  501    0  0.00000000000E+00 -0.00000000000E+00 -0.41494476609E+03  0.41494476609E+03  0.00000000000E+00 0. -1.
         23    2    1    2    0    0  0.14859763863E+02 -0.52196348624E+01 -0.16874432821E+03  0.19194820595E+03  0.90118856480E+02 0.  0.
         23    2    1    2    0    0 -0.14859763863E+02  0.52196348624E+01 -0.22486718451E+03  0.24432981350E+03  0.94253646739E+02 0.  0.
          5    1    3    3  502    0  0.34895072054E+02 -0.22172587520E+02 -0.15768522233E+03  0.16308282875E+03  0.47000000000E+01 0. -1.
         -5    1    4    4    0  503 -0.30714163205E+02  0.41113402683E+02 -0.89123113076E+02  0.10294994408E+03  0.47000000000E+01 0.  1.
          5    1    4    4  503    0  0.15854399342E+02 -0.35893767821E+02 -0.13574407144E+03  0.14137986942E+03  0.47000000000E+01 0. -1.
         -5    1    3    3    0  502 -0.20035308191E+02  0.16952952658E+02 -0.11059105882E+02  0.28865377202E+02  0.47000000000E+01 0.  1.
<mgrwt>
<rscale>  0 0.94524848E+02</rscale>
<asrwt>0</asrwt>
<pdfrwt beam="1">  1        1 0.63837653E-01 0.95560489E+02</pdfrwt>
<pdfrwt beam="2">  1       -1 0.32820391E-02 0.95560489E+02</pdfrwt>
<totfact> 0.17358260E+04</totfact>
</mgrwt>
</event>
<event>
 8    1  0.5224537E-004  0.9812399E+02  0.7546771E-02  0.1287810E+00
         -1   -1    0    0    0  501 -0.00000000000E+00  0.00000000000E+00  0.70498064823E+02  0.70498064823E+02  0.00000000000E+00 0.  1.
          1   -1    0    0  501    0  0.00000000000E+00 -0.00000000000E+00 -0.15142287485E+03  0.15142287485E+03  0.00000000000E+00 0. -1.
         23    2    1    2    0    0  0.15870648368E+02  0.22278383714E+02 -0.85260876541E+02  0.12999128300E+03  0.94234350038E+02 0.  0.
         23    2    1    2    0    0 -0.15870648368E+02 -0.22278383714E+02  0.43360665123E+01  0.91929656673E+02  0.87658749950E+02 0.  0.
          5    1    4    4  502    0 -0.39616569643E+02 -0.15702126945E+02 -0.27848990599E+02  0.51124217924E+02  0.47000000000E+01 0. -1.
         -5    1    3    3    0  503  0.39872943608E+02 -0.26628024072E+01 -0.86111648570E+02  0.95048662106E+02  0.47000000000E+01 0.  1.
          5    1    3    3  503    0 -0.24002295240E+02  0.24941186122E+02  0.85077202913E+00  0.34942620895E+02  0.47000000000E+01 0. -1.
         -5    1    4    4    0  502  0.23745921275E+02 -0.65762567693E+01  0.32185057112E+02  0.40805438750E+02  0.47000000000E+01 0.  1.
<mgrwt>
<rscale>  0 0.96510460E+02</rscale>
<asrwt>0</asrwt>
<pdfrwt beam="1">  1        1 0.23295827E-01 0.98123986E+02</pdfrwt>
<pdfrwt beam="2">  1       -1 0.10845856E-01 0.98123986E+02</pdfrwt>
<totfact> 0.10286593E+04</totfact>
</mgrwt>
</event>
<event>
 8    1  0.5224537E-004  0.1043713E+03  0.7546771E-02  0.1273444E+00
          2   -1    0    0  501    0  0.00000000000E+00  0.00000000000E+00  0.50971817711E+03  0.50971817711E+03  0.00000000000E+00 0. -1.
         -2   -1    0    0    0  501 -0.00000000000E+00 -0.00000000000E+00 -0.20698058674E+02  0.20698058674E+02  0.00000000000E+00 0.  1.
         23    2    1    2    0    0  0.28795917188E+02  0.39883483287E+02  0.27255229953E+03  0.29185290194E+03  0.92051416671E+02 0.  0.
         23    2    1    2    0    0 -0.28795917188E+02 -0.39883483287E+02  0.21646781891E+03  0.23856333384E+03  0.87374198381E+02 0.  0.
          5    1    4    4  502    0 -0.47183829909E+01  0.26918496481E+02  0.44242738771E+02  0.52214734748E+02  0.47000000000E+01 0. -1.
         -5    1    3    3    0  503  0.48927569984E+02  0.58507024871E+02  0.20615143456E+03  0.21985787008E+03  0.47000000000E+01 0. -1.
          5    1    3    3  503    0 -0.20131652796E+02 -0.18623541584E+02  0.66400864965E+02  0.71995031867E+02  0.47000000000E+01 0.  1.
         -5    1    4    4    0  502 -0.24077534197E+02 -0.66801979768E+02  0.17222508014E+03  0.18634859909E+03  0.47000000000E+01 0.  1.
<mgrwt>
<rscale>  0 0.10333058E+03</rscale>
<asrwt>0</asrwt>
<pdfrwt beam="1">  1        2 0.78418172E-01 0.10437126E+03</pdfrwt>
<pdfrwt beam="2">  1       -2 0.31843171E-02 0.10437126E+03</pdfrwt>
<totfact> 0.21631327E+04</totfact>
</mgrwt>
</event>
<event>
 8    1  0.5224537E-004  0.1721053E+03  0.7546771E-02  0.1175674E+00
         -1   -1    0    0    0  501 -0.00000000000E+00  0.00000000000E+00  0.10562832726E+03  0.10562832726E+03  0.00000000000E+00 0.  1.
          1   -1    0    0  501    0  0.00000000000E+00 -0.00000000000E+00 -0.60319401367E+03  0.60319401367E+03  0.00000000000E+00 0. -1.
         23    2    1    2    0    0 -0.74601281170E+02  0.12564089058E+03 -0.50804372235E+03  0.53639838163E+03  0.90905530383E+02 0.  0.
         23    2    1    2    0    0  0.74601281170E+02 -0.12564089058E+03  0.10478035939E+02  0.17242395930E+03  0.90935405454E+02 0.  0.
          5    1    4    4  502    0 -0.82245525173E+01 -0.73345761311E+02  0.71736558554E+01  0.74302054512E+02  0.47000000000E+01 0. -1.
         -5    1    3    3    0  503 -0.52088466919E+02  0.43092287094E+02 -0.10971099549E+03  0.12895249561E+03  0.47000000000E+01 0.  1.
          5    1    3    3  503    0 -0.22512814252E+02  0.82548603491E+02 -0.39833272687E+03  0.40744588602E+03  0.47000000000E+01 0. -1.
         -5    1    4    4    0  502  0.82825833688E+02 -0.52295129273E+02  0.33043800835E+01  0.98121904789E+02  0.47000000000E+01 0.  1.
<mgrwt>
<rscale>  0 0.17210135E+03</rscale>
<asrwt>0</asrwt>
<pdfrwt beam="1">  1        1 0.92799080E-01 0.17210529E+03</pdfrwt>
<pdfrwt beam="2">  1       -1 0.16250512E-01 0.17210529E+03</pdfrwt>
<totfact> 0.98755484E+02</totfact>
</mgrwt>
</event>
<event>
 8    1  0.5224537E-004  0.1052745E+03  0.7546771E-02  0.1271927E+00
         -2   -1    0    0    0  501 -0.00000000000E+00  0.00000000000E+00  0.20551933208E+02  0.20551933208E+02  0.00000000000E+00 0. -1.
          2   -1    0    0  501    0  0.00000000000E+00 -0.00000000000E+00 -0.63904872304E+03  0.63904872304E+03  0.00000000000E+00 0.  1.
         23    2    1    2    0    0  0.16893213263E+02  0.44570871153E+02 -0.16999112791E+03  0.19994925885E+03  0.93865751677E+02 0.  0.
         23    2    1    2    0    0 -0.16893213263E+02 -0.44570871153E+02 -0.44850566193E+03  0.45965139740E+03  0.88600988383E+02 0.  0.
          5    1    4    4  502    0 -0.24554694186E+02  0.21906971095E+02 -0.16531893460E+03  0.16862766240E+03  0.47000000000E+01 0. -1.
         -5    1    3    3    0  503  0.10357768639E+02 -0.27739389516E+02 -0.71224295650E+02  0.77277081937E+02  0.47000000000E+01 0.  1.
          5    1    3    3  503    0  0.65354446241E+01  0.72310260669E+02 -0.98766832257E+02  0.12267217691E+03  0.47000000000E+01 0. -1.
         -5    1    4    4    0  502  0.76614809225E+01 -0.66477842248E+02 -0.28318672733E+03  0.29102373501E+03  0.47000000000E+01 0.  1.
<mgrwt>
<rscale>  0 0.10408811E+03</rscale>
<asrwt>0</asrwt>
<pdfrwt beam="1">  1        2 0.98315174E-01 0.10527451E+03</pdfrwt>
<pdfrwt beam="2">  1       -2 0.31618363E-02 0.10527451E+03</pdfrwt>
<totfact> 0.17001063E+04</totfact>
</mgrwt>
</event>
<event>
 8    1  0.5224537E-004  0.1216773E+03  0.7546771E-02  0.1247950E+00
         -2   -1    0    0    0  501 -0.00000000000E+00  0.00000000000E+00  0.36474430847E+03  0.36474430847E+03  0.00000000000E+00 0.  1.
          2   -1    0    0  501    0  0.00000000000E+00 -0.00000000000E+00 -0.35257569332E+02  0.35257569332E+02  0.00000000000E+00 0. -1.
         23    2    1    2    0    0 -0.39464970895E+01  0.46896097938E+02  0.16124621901E+03  0.20200424443E+03  0.11220763245E+03 0.  0.
         23    2    1    2    0    0  0.39464970895E+01 -0.46896097938E+02  0.16824052012E+03  0.19799763337E+03  0.93184609075E+02 0.  0.
          5    1    3    3  502    0 -0.24526872044E+02  0.78408342100E+02  0.12418100316E+03  0.14897129626E+03  0.47000000000E+01 0. -1.
         -5    1    3    3    0  502  0.20580374954E+02 -0.31512244162E+02  0.37065215850E+02  0.53032948168E+02  0.47000000000E+01 0.  1.
          5    1    4    4  503    0 -0.40163800685E+02 -0.43738628790E+02  0.10431051761E+03  0.12012065858E+03  0.47000000000E+01 0. -1.
         -5    1    4    4    0  503  0.44110297774E+02 -0.31574691474E+01  0.63930002513E+02  0.77876974790E+02  0.47000000000E+01 0.  1.
<mgrwt>
<rscale>  0 0.11710530E+03</rscale>
<asrwt>0</asrwt>
<pdfrwt beam="1">  1        2 0.54242417E-02 0.12167733E+03</pdfrwt>
<pdfrwt beam="2">  1       -2 0.56114506E-01 0.12167733E+03</pdfrwt>
<totfact> 0.40458463E+03</totfact>
</mgrwt>
</event>
<event>
 8    1  0.5224537E-004  0.9562203E+02  0.7546771E-02  0.1291616E+00
          1   -1    0    0  501    0  0.00000000000E+00  0.00000000000E+00  0.32156432919E+03  0.32156432919E+03  0.00000000000E+00 0. -1.
         -1   -1    0    0    0  501 -0.00000000000E+00 -0.00000000000E+00 -0.28166647807E+02  0.28166647807E+02  0.00000000000E+00 0.  1.
         23    2    1    2    0    0 -0.24417457394E+02  0.19249205722E+00  0.17147359652E+03  0.19478241977E+03  0.89110871767E+02 0.  0.
         23    2    1    2    0    0  0.24417457394E+02 -0.19249205722E+00  0.12192408486E+03  0.15494855723E+03  0.92451736812E+02 0.  0.
          5    1    4    4  502    0  0.13760286096E+02 -0.42606788095E+02  0.89895334414E+02  0.10053827637E+03  0.47000000000E+01 0. -1.
         -5    1    4    4    0  502  0.10657171298E+02  0.42414296038E+02  0.32028750446E+02  0.54410280863E+02  0.47000000000E+01 0.  1.
          5    1    3    3  503    0  0.26954663899E+02  0.14129756746E+02  0.27774516772E+02  0.41469479301E+02  0.47000000000E+01 0. -1.
         -5    1    3    3    0  503 -0.51372121293E+02 -0.13937264689E+02  0.14369907975E+03  0.15331294046E+03  0.47000000000E+01 0.  1.
<mgrwt>
<rscale>  0 0.94805081E+02</rscale>
<asrwt>0</asrwt>
<pdfrwt beam="1">  1        1 0.49471433E-01 0.95622032E+02</pdfrwt>
<pdfrwt beam="2">  1       -1 0.43333307E-02 0.95622032E+02</pdfrwt>
<totfact> 0.15894136E+04</totfact>
</mgrwt>
</event>
<event>
 8    1  0.5224537E-004  0.1063903E+03  0.7546771E-02  0.1267496E+00
          1   -1    0    0  501    0  0.00000000000E+00  0.00000000000E+00  0.13284705451E+04  0.13284705451E+04  0.00000000000E+00 0. -1.
         -1   -1    0    0    0  501 -0.00000000000E+00 -0.00000000000E+00 -0.85388748790E+01  0.85388748790E+01  0.00000000000E+00 0.  1.
         23    2    1    2    0    0 -0.54206581766E+02 -0.30480072600E+01  0.61735151773E+03  0.62641969192E+03  0.91274805533E+02 0.  0.
         23    2    1    2    0    0  0.54206581766E+02  0.30480072600E+01  0.70258015247E+03  0.71058972804E+03  0.91494519481E+02 0.  0.
          5    1    4    4  502    0 -0.76568807338E+01 -0.33100376714E+02  0.20334345275E+03  0.20621569420E+03  0.47000000000E+01 0. -1.
         -5    1    4    4    0  502  0.61863462500E+02  0.36148383974E+02  0.49923669973E+03  0.50437403384E+03  0.47000000000E+01 0.  1.
          5    1    3    3  503    0 -0.14805918929E+02 -0.38646076754E+02  0.13897896146E+03  0.14508609931E+03  0.47000000000E+01 0. -1.
         -5    1    3    3    0  503 -0.39400662837E+02  0.35598069494E+02  0.47837255627E+03  0.48133359261E+03  0.47000000000E+01 0.  1.
<mgrwt>
<rscale>  0 0.10634302E+03</rscale>
<asrwt>0</asrwt>
<pdfrwt beam="1">  1        1 0.20437992E+00 0.10639028E+03</pdfrwt>
<pdfrwt beam="2">  1       -1 0.13136741E-02 0.10639028E+03</pdfrwt>
<totfact> 0.11283127E+04</totfact>
</mgrwt>
</event>
<event>
 8    1  0.5224537E-004  0.9598756E+02  0.7546771E-02  0.1290560E+00
          1   -1    0    0  501    0  0.00000000000E+00  0.00000000000E+00  0.61272409345E+03  0.61272409345E+03  0.00000000000E+00 0. -1.
         -1   -1    0    0    0  501 -0.00000000000E+00 -0.00000000000E+00 -0.57020885856E+02  0.57020885856E+02  0.00000000000E+00 0.  1.
         23    2    1    2    0    0 -0.15851222106E+02 -0.25881824069E+02 -0.99213429142E+01  0.96498940978E+02  0.91063068833E+02 0.  0.
         23    2    1    2    0    0  0.15851222106E+02  0.25881824069E+02  0.56562455050E+03  0.57324603832E+03  0.88083813849E+02 0.  0.
          5    1    3    3  502    0 -0.19740370480E+02  0.27801305392E+02  0.14322422965E+02  0.37280244202E+02  0.47000000000E+01 0. -1.
         -5    1    4    4    0  503  0.35963787821E+02 -0.20423871229E+02  0.29367340468E+03  0.29660864311E+03  0.47000000000E+01 0.  1.
          5    1    4    4  503    0 -0.20112565715E+02  0.46305695298E+02  0.27195114583E+03  0.27663739522E+03  0.47000000000E+01 0. -1.
         -5    1    3    3    0  502  0.38891483739E+01 -0.53683129461E+02 -0.24243765879E+02  0.59218696776E+02  0.47000000000E+01 0.  1.
<mgrwt>
<rscale>  0 0.95274241E+02</rscale>
<asrwt>0</asrwt>
<pdfrwt beam="1">  1        1 0.94265241E-01 0.95987565E+02</pdfrwt>
<pdfrwt beam="2">  1       -1 0.87724444E-02 0.95987565E+02</pdfrwt>
<totfact> 0.24705974E+03</totfact>
</mgrwt>
</event>
<event>
 8    1  0.5224537E-004  0.2790526E+03  0.7546771E-02  0.1096318E+00
         -2   -1    0    0    0  501 -0.00000000000E+00  0.00000000000E+00  0.28467852813E+03  0.28467852813E+03  0.00000000000E+00 0.  1.
          2   -1    0    0  501    0  0.00000000000E+00 -0.00000000000E+00 -0.55397392720E+03  0.55397392720E+03  0.00000000000E+00 0. -1.
         23    2    1    2    0    0  0.26224214175E+03 -0.24800534245E+02  0.16421442826E+03  0.32309339444E+03  0.89649069551E+02 0.  0.
         23    2    1    2    0    0 -0.26224214175E+03  0.24800534245E+02 -0.43350982733E+03  0.51555906090E+03  0.92110626291E+02 0.  0.
          5    1    4    4  502    0 -0.16617303870E+03 -0.23259887509E+02 -0.22231536154E+03  0.27856904195E+03  0.47000000000E+01 0. -1.
         -5    1    4    4    0  502 -0.96069103049E+02  0.48060421753E+02 -0.21119446579E+03  0.23699001895E+03  0.47000000000E+01 0.  1.
          5    1    3    3  503    0  0.71932625203E+02  0.10681609670E+02  0.89783701872E+02  0.11563564535E+03  0.47000000000E+01 0. -1.
         -5    1    3    3    0  503  0.19030951655E+03 -0.35482143915E+02  0.74430726388E+02  0.20745774909E+03  0.47000000000E+01 0.  1.
<mgrwt>
<rscale>  0 0.27885172E+03</rscale>
<asrwt>0</asrwt>
<pdfrwt beam="1">  1        2 0.85226757E-01 0.27905264E+03</pdfrwt>
<pdfrwt beam="2">  1       -2 0.43796697E-01 0.27905264E+03</pdfrwt>
<totfact> 0.27870151E+02</totfact>
</mgrwt>
</event>
<event>
 8    1  0.5224537E-004  0.9090167E+02  0.7546771E-02  0.1302541E+00
          3   -1    0    0  501    0  0.00000000000E+00  0.00000000000E+00  0.27341366461E+02  0.27341366461E+02  0.00000000000E+00 0. -1.
         -3   -1    0    0    0  501 -0.00000000000E+00 -0.00000000000E+00 -0.35312280521E+03  0.35312280521E+03  0.00000000000E+00 0.  1.
         23    2    1    2    0    0 -0.31060853353E+01 -0.74111290636E+01 -0.81554070932E+02  0.11986846753E+03  0.87480343060E+02 0.  0.
         23    2    1    2    0    0  0.31060853353E+01  0.74111290636E+01 -0.24422736781E+03  0.26059570414E+03  0.90545796292E+02 0.  0.
          5    1    4    4  502    0 -0.12257538024E+02  0.43341048041E+02 -0.82121105438E+02  0.93779846674E+02  0.47000000000E+01 0. -1.
         -5    1    4    4    0  502  0.15363623359E+02 -0.35929918978E+02 -0.16210626237E+03  0.16681585746E+03  0.47000000000E+01 0.  1.
          5    1    3    3  503    0 -0.22945525172E+02  0.33144567257E+01  0.98365299768E+01  0.25618939689E+02  0.47000000000E+01 0. -1.
         -5    1    3    3    0  503  0.19839439837E+02 -0.10725585789E+02 -0.91390600909E+02  0.94249527840E+02  0.47000000000E+01 0.  1.
<mgrwt>
<rscale>  0 0.90128607E+02</rscale>
<asrwt>0</asrwt>
<pdfrwt beam="1">  1        3 0.42063640E-02 0.90901671E+02</pdfrwt>
<pdfrwt beam="2">  1       -3 0.54326587E-01 0.90901671E+02</pdfrwt>
<totfact> 0.21504579E+03</totfact>
</mgrwt>
</event>
<event>
 8    1  0.5224537E-004  0.1058957E+03  0.7546771E-02  0.1269903E+00
         -1   -1    0    0    0  501 -0.00000000000E+00  0.00000000000E+00  0.94930231334E+02  0.94930231334E+02  0.00000000000E+00 0.  1.
          1   -1    0    0  501    0  0.00000000000E+00 -0.00000000000E+00 -0.12011343702E+03  0.12011343702E+03  0.00000000000E+00 0. -1.
         23    2    1    2    0    0 -0.29077123649E+02  0.38586430441E+02  0.10439989340E+02  0.10331671608E+03  0.90724631216E+02 0.  0.
         23    2    1    2    0    0  0.29077123649E+02 -0.38586430441E+02 -0.35623195027E+02  0.11172695228E+03  0.94231141923E+02 0.  0.
          5    1    3    3  502    0 -0.31769818059E+02 -0.19574726910E+02 -0.13815533565E+02  0.40068070090E+02  0.47000000000E+01 0. -1.
         -5    1    4    4    0  503 -0.20262055914E+02 -0.13041328145E+02 -0.48626414672E+02  0.54472427461E+02  0.47000000000E+01 0.  1.
          5    1    4    4  503    0  0.49339179563E+02 -0.25545102296E+02  0.13003219644E+02  0.57254524820E+02  0.47000000000E+01 0. -1.
         -5    1    3    3    0  502  0.26926944094E+01  0.58161157351E+02  0.24255522905E+02  0.63248645985E+02  0.47000000000E+01 0.  1.
<mgrwt>
<rscale>  0 0.10511005E+03</rscale>
<asrwt>0</asrwt>
<pdfrwt beam="1">  1        1 0.18478990E-01 0.10589570E+03</pdfrwt>
<pdfrwt beam="2">  1       -1 0.14604651E-01 0.10589570E+03</pdfrwt>
<totfact> 0.87726312E+03</totfact>
</mgrwt>
</event>
<event>
 8    1  0.6680503E-004  0.1045297E+03  0.7546771E-02  0.1276946E+00
          1   -1    0    0  501    0  0.00000000000E+00  0.00000000000E+00  0.41041068097E+03  0.41041068097E+03  0.00000000000E+00 0. -1.
         -1   -1    0    0    0  501 -0.00000000000E+00 -0.00000000000E+00 -0.71897658767E+02  0.71897658767E+02  0.00000000000E+00 0.  1.
         23    2    1    2    0    0 -0.17862963869E+02  0.14253931563E+01  0.36947350138E+03  0.38397541496E+03  0.10298220161E+03 0.  0.
         23    2    1    2    0    0  0.17862963869E+02 -0.14253931563E+01 -0.30960479184E+02  0.98332924769E+02  0.91595281530E+02 0.  0.
          5    1    3    3  502    0 -0.31709031259E+02 -0.32257920823E+02  0.78716145785E+02  0.90908512948E+02  0.47000000000E+01 0. -1.
         -5    1    4    4    0  503 -0.19527263943E+02  0.14067121622E+02 -0.48209526882E+02  0.54087396221E+02  0.47000000000E+01 0.  1.
          5    1    4    4  503    0  0.37390227812E+02 -0.15492514779E+02  0.17249047698E+02  0.44245528548E+02  0.47000000000E+01 0. -1.
         -5    1    3    3    0  502  0.13846067390E+02  0.33683313979E+02  0.29075735560E+03  0.29306690202E+03  0.47000000000E+01 0.  1.
<mgrwt>
<rscale>  0 0.10161013E+03</rscale>
<asrwt>0</asrwt>
<pdfrwt beam="1">  1        1 0.63140103E-01 0.10452967E+03</pdfrwt>
<pdfrwt beam="2">  1       -1 0.11061179E-01 0.10452967E+03</pdfrwt>
<totfact> 0.29327216E+03</totfact>
</mgrwt>
</event>
<event>
 8    1  0.5224537E-004  0.1327835E+03  0.7546771E-02  0.1224602E+00
         -2   -1    0    0    0  501 -0.00000000000E+00  0.00000000000E+00  0.21959436836E+02  0.21959436836E+02  0.00000000000E+00 0.  1.
          2   -1    0    0  501    0  0.00000000000E+00 -0.00000000000E+00 -0.79385462540E+03  0.79385462540E+03  0.00000000000E+00 0. -1.
         23    2    1    2    0    0  0.32939983806E+02  0.86898509306E+02 -0.33314778811E+03  0.35741386999E+03  0.90115660610E+02 0.  0.
         23    2    1    2    0    0 -0.32939983806E+02 -0.86898509306E+02 -0.43874740045E+03  0.45840019225E+03  0.94842297485E+02 0.  0.
          5    1    3    3  502    0  0.20520519968E+01  0.82003129775E+02 -0.14529321731E+03  0.16691594654E+03  0.47000000000E+01 0. -1.
         -5    1    3    3    0  502  0.30887931809E+02  0.48953795304E+01 -0.18785457080E+03  0.19049792346E+03  0.47000000000E+01 0.  1.
          5    1    4    4  503    0 -0.40912789422E+02  0.29699530742E+01 -0.16701305553E+03  0.17204106392E+03  0.47000000000E+01 0. -1.
         -5    1    4    4    0  503  0.79728056162E+01 -0.89868462380E+02 -0.27173434493E+03  0.28635912832E+03  0.47000000000E+01 0.  1.
<mgrwt>
<rscale>  0 0.13194208E+03</rscale>
<asrwt>0</asrwt>
<pdfrwt beam="1">  1        2 0.12213147E+00 0.13278349E+03</pdfrwt>
<pdfrwt beam="2">  1       -2 0.33783752E-02 0.13278349E+03</pdfrwt>
<totfact> 0.12132474E+04</totfact>
</mgrwt>
</event>
<event>
 8    1  0.5224537E-004  0.1043686E+03  0.7546771E-02  0.1273593E+00
          1   -1    0    0  501    0  0.00000000000E+00  0.00000000000E+00  0.11174209614E+03  0.11174209614E+03  0.00000000000E+00 0. -1.
         -1   -1    0    0    0  501 -0.00000000000E+00 -0.00000000000E+00 -0.16628653249E+03  0.16628653249E+03  0.00000000000E+00 0.  1.
         23    2    1    2    0    0 -0.24502693018E+02  0.43061858008E+02 -0.11894441801E+03  0.15539026461E+03  0.86854212219E+02 0.  0.
         23    2    1    2    0    0  0.24502693018E+02 -0.43061858008E+02  0.64399981665E+02  0.12263836402E+03  0.91859159099E+02 0.  0.
          5    1    3    3  502    0  0.19290466780E+02 -0.16345880598E+02 -0.36314769774E+02  0.44499015999E+02  0.47000000000E+01 0.  1.
         -5    1    4    4    0  503  0.57737523675E+02 -0.13309273301E+02  0.34362822184E+02  0.68656040844E+02  0.47000000000E+01 0.  1.
          5    1    4    4  503    0 -0.33234830657E+02 -0.29752584707E+02  0.30037159480E+02  0.53982323174E+02  0.47000000000E+01 0. -1.
         -5    1    3    3    0  502 -0.43793159798E+02  0.59407738606E+02 -0.82629648233E+02  0.11089124861E+03  0.47000000000E+01 0.  1.
<mgrwt>
<rscale>  0 0.10325678E+03</rscale>
<asrwt>0</asrwt>
<pdfrwt beam="1">  1        1 0.17191092E-01 0.10436863E+03</pdfrwt>
<pdfrwt beam="2">  1       -1 0.25582544E-01 0.10436863E+03</pdfrwt>
<totfact> 0.39364624E+03</totfact>
</mgrwt>
</event>
<event>
 8    1  0.5224537E-004  0.1032891E+03  0.7546771E-02  0.1274131E+00
          1   -1    0    0  501    0  0.00000000000E+00  0.00000000000E+00  0.10407628494E+03  0.10407628494E+03  0.00000000000E+00 0. -1.
         -1   -1    0    0    0  501 -0.00000000000E+00 -0.00000000000E+00 -0.24027765514E+03  0.24027765514E+03  0.00000000000E+00 0.  1.
         23    2    1    2    0    0  0.31810067741E+02  0.31128630661E+02 -0.19886481705E+03  0.22354273670E+03  0.91887254920E+02 0.  0.
         23    2    1    2    0    0 -0.31810067741E+02 -0.31128630661E+02  0.62663446840E+02  0.12081120338E+03  0.93208192964E+02 0.  0.
          5    1    3    3  502    0 -0.23828715855E+02 -0.90978638726E+01 -0.22897553732E+02  0.34597207882E+02  0.47000000000E+01 0. -1.
         -5    1    4    4    0  503  0.11666988115E+02  0.26112861737E+02  0.71102791023E+01  0.29843696633E+02  0.47000000000E+01 0.  1.
          5    1    4    4  503    0 -0.43477055856E+02 -0.57241492399E+02  0.55553167738E+02  0.90967506747E+02  0.47000000000E+01 0. -1.
         -5    1    3    3    0  502  0.55638783596E+02  0.40226494534E+02 -0.17596726332E+03  0.18894552882E+03  0.47000000000E+01 0.  1.
<mgrwt>
<rscale>  0 0.10299020E+03</rscale>
<asrwt>0</asrwt>
<pdfrwt beam="1">  1        1 0.16011736E-01 0.10328911E+03</pdfrwt>
<pdfrwt beam="2">  1       -1 0.36965793E-01 0.10328911E+03</pdfrwt>
<totfact> 0.23256255E+03</totfact>
</mgrwt>
</event>
<event>
 8    1  0.5224537E-004  0.1037303E+03  0.7546771E-02  0.1275263E+00
         -2   -1    0    0    0  501 -0.00000000000E+00  0.00000000000E+00  0.73964671798E+02  0.73964671798E+02  0.00000000000E+00 0.  1.
          2   -1    0    0  501    0  0.00000000000E+00 -0.00000000000E+00 -0.14158693198E+03  0.14158693198E+03  0.00000000000E+00 0. -1.
         23    2    1    2    0    0  0.77607511099E+00 -0.33093948994E+02 -0.50766433875E+02  0.11548685516E+03  0.98306516340E+02 0.  0.
         23    2    1    2    0    0 -0.77607511099E+00  0.33093948994E+02 -0.16855826308E+02  0.10006474862E+03  0.92914063964E+02 0.  0.
          5    1    4    4  502    0 -0.11070869720E+02  0.61044507175E+02 -0.27583958359E+02  0.68058509911E+02  0.47000000000E+01 0. -1.
         -5    1    4    4    0  502  0.10294794609E+02 -0.27950558181E+02  0.10728132052E+02  0.32006238704E+02  0.47000000000E+01 0.  1.
          5    1    3    3  503    0 -0.14736787558E+01  0.30034632297E+02 -0.41507445651E+02  0.51470466394E+02  0.47000000000E+01 0. -1.
         -5    1    3    3    0  503  0.22497538668E+01 -0.63128581291E+02 -0.92589882243E+01  0.64016388771E+02  0.47000000000E+01 0.  1.
<mgrwt>
<rscale>  0 0.10243231E+03</rscale>
<asrwt>0</asrwt>
<pdfrwt beam="1">  1        2 0.21782605E-01 0.10373034E+03</pdfrwt>
<pdfrwt beam="2">  1       -2 0.11379180E-01 0.10373034E+03</pdfrwt>
<totfact> 0.12400616E+04</totfact>
</mgrwt>
</event>
<event>
 8    1  0.5224537E-004  0.1036149E+03  0.7546771E-02  0.1273112E+00
          1   -1    0    0  501    0  0.00000000000E+00  0.00000000000E+00  0.75406003587E+02  0.75406003587E+02  0.00000000000E+00 0. -1.
         -1   -1    0    0    0  501 -0.00000000000E+00 -0.00000000000E+00 -0.22819422593E+03  0.22819422593E+03  0.00000000000E+00 0.  1.
         23    2    1    2    0    0 -0.93519730727E+01  0.50660482710E+02  0.16941315282E+02  0.10499076425E+03  0.89900547859E+02 0.  0.
         23    2    1    2    0    0  0.93519730727E+01 -0.50660482710E+02 -0.16972953763E+03  0.19860946527E+03  0.89351328153E+02 0.  0.
          5    1    4    4  502    0  0.49084537322E+02 -0.33405592049E+02 -0.99214386090E+02  0.11571866656E+03  0.47000000000E+01 0. -1.
         -5    1    4    4    0  502 -0.39732564250E+02 -0.17254890661E+02 -0.70515151537E+02  0.82890798704E+02  0.47000000000E+01 0.  1.
          5    1    3    3  503    0  0.10887512539E+02  0.28345424775E+02  0.50835702187E+02  0.59399997069E+02  0.47000000000E+01 0. -1.
         -5    1    3    3    0  503 -0.20239485611E+02  0.22315057936E+02 -0.33894386904E+02  0.45590767180E+02  0.47000000000E+01 0.  1.
<mgrwt>
<rscale>  0 0.10349568E+03</rscale>
<asrwt>0</asrwt>
<pdfrwt beam="1">  1        1 0.11600924E-01 0.10361492E+03</pdfrwt>
<pdfrwt beam="2">  1       -1 0.35106804E-01 0.10361492E+03</pdfrwt>
<totfact> 0.38520794E+03</totfact>
</mgrwt>
</event>
<event>
 8    1  0.5224537E-004  0.1015511E+03  0.7546771E-02  0.1281166E+00
          1   -1    0    0  501    0  0.00000000000E+00  0.00000000000E+00  0.83315097125E+02  0.83315097125E+02  0.00000000000E+00 0. -1.
         -1   -1    0    0    0  501 -0.00000000000E+00 -0.00000000000E+00 -0.12672463990E+03  0.12672463990E+03  0.00000000000E+00 0.  1.
         23    2    1    2    0    0 -0.10465472407E+02  0.19325410267E+02  0.11453319439E+02  0.94616308795E+02  0.91313031760E+02 0.  0.
         23    2    1    2    0    0  0.10465472407E+02 -0.19325410267E+02 -0.54862862209E+02  0.11542342823E+03  0.99144523495E+02 0.  0.
          5    1    3    3  502    0 -0.38156856547E+02 -0.20380831631E+02  0.14549973644E+02  0.45881540215E+02  0.47000000000E+01 0. -1.
         -5    1    3    3    0  502  0.27691384140E+02  0.39706241898E+02 -0.30966542054E+01  0.48734768579E+02  0.47000000000E+01 0.  1.
          5    1    4    4  503    0 -0.10271747770E+02 -0.30081137688E+02  0.19329723431E+02  0.37498158018E+02  0.47000000000E+01 0. -1.
         -5    1    4    4    0  503  0.20737220177E+02  0.10755727421E+02 -0.74192585640E+02  0.77925270208E+02  0.47000000000E+01 0.  1.
<mgrwt>
<rscale>  0 0.99587251E+02</rscale>
<asrwt>0</asrwt>
<pdfrwt beam="1">  1        1 0.12817707E-01 0.10155114E+03</pdfrwt>
<pdfrwt beam="2">  1       -1 0.19496098E-01 0.10155114E+03</pdfrwt>
<totfact> 0.88741765E+03</totfact>
</mgrwt>
</event>
<event>
 8    1  0.5224537E-004  0.1138877E+03  0.7546771E-02  0.1260451E+00
          1   -1    0    0  501    0  0.00000000000E+00  0.00000000000E+00  0.37368716064E+03  0.37368716064E+03  0.00000000000E+00 0. -1.
         -1   -1    0    0    0  501 -0.00000000000E+00 -0.00000000000E+00 -0.32030469338E+02  0.32030469338E+02  0.00000000000E+00 0.  1.
         23    2    1    2    0    0 -0.47507763987E+02  0.23761401225E+01  0.20516085030E+03  0.22794945155E+03  0.87220091050E+02 0.  0.
         23    2    1    2    0    0  0.47507763987E+02 -0.23761401225E+01  0.13649584100E+03  0.17776817843E+03  0.10347838891E+03 0.  0.
          5    1    3    3  502    0 -0.69073942460E+02 -0.14661970884E+01  0.18598709895E+03  0.19846070200E+03  0.47000000000E+01 0. -1.
         -5    1    3    3    0  502  0.21566178473E+02  0.38423372109E+01  0.19173751353E+02  0.29488749552E+02  0.47000000000E+01 0.  1.
          5    1    4    4  503    0  0.49311024710E+02 -0.38086150567E+02  0.12528625090E+03  0.14000309528E+03  0.47000000000E+01 0. -1.
         -5    1    4    4    0  503 -0.18032607237E+01  0.35710010444E+02  0.11209590097E+02  0.37765083150E+02  0.47000000000E+01 0.  1.
<mgrwt>
<rscale>  0 0.11006448E+03</rscale>
<asrwt>0</asrwt>
<pdfrwt beam="1">  1        1 0.57490329E-01 0.11388771E+03</pdfrwt>
<pdfrwt beam="2">  1       -1 0.49277648E-02 0.11388771E+03</pdfrwt>
<totfact> 0.11107657E+04</totfact>
</mgrwt>
</event>
<event>
 8    1  0.5224537E-004  0.1563923E+03  0.7546771E-02  0.1193898E+00
          1   -1    0    0  501    0  0.00000000000E+00  0.00000000000E+00  0.52156413369E+03  0.52156413369E+03  0.00000000000E+00 0. -1.
         -1   -1    0    0    0  501 -0.00000000000E+00 -0.00000000000E+00 -0.55728201672E+02  0.55728201672E+02  0.00000000000E+00 0.  1.
         23    2    1    2    0    0 -0.10708274463E+03 -0.58761568368E+02  0.35689822957E+03  0.38965996129E+03  0.97667307986E+02 0.  0.
         23    2    1    2    0    0  0.10708274463E+03  0.58761568368E+02  0.10893770245E+03  0.18763237407E+03  0.91754284206E+02 0.  0.
          5    1    4    4  502    0  0.76140185906E+02  0.61254214304E+02  0.29452718239E+02  0.10217122536E+03  0.47000000000E+01 0. -1.
         -5    1    4    4    0  502  0.30942558725E+02 -0.24926459361E+01  0.79484984212E+02  0.85461148713E+02  0.47000000000E+01 0.  1.
          5    1    3    3  503    0 -0.97818959780E+02 -0.25152683000E+02  0.33066348188E+03  0.34577685666E+03  0.47000000000E+01 0. -1.
         -5    1    3    3    0  503 -0.92637848512E+01 -0.33608885368E+02  0.26234747685E+02  0.43883104625E+02  0.47000000000E+01 0.  1.
<mgrwt>
<rscale>  0 0.15547857E+03</rscale>
<asrwt>0</asrwt>
<pdfrwt beam="1">  1        1 0.80240633E-01 0.15639226E+03</pdfrwt>
<pdfrwt beam="2">  1       -1 0.85735698E-02 0.15639226E+03</pdfrwt>
<totfact> 0.32302176E+03</totfact>
</mgrwt>
</event>
<event>
 8    1  0.5224537E-004  0.1060026E+03  0.7546771E-02  0.1270242E+00
         -1   -1    0    0    0  501 -0.00000000000E+00  0.00000000000E+00  0.38755620665E+02  0.38755620665E+02  0.00000000000E+00 0.  1.
          1   -1    0    0  501    0  0.00000000000E+00 -0.00000000000E+00 -0.28379019693E+03  0.28379019693E+03  0.00000000000E+00 0. -1.
         23    2    1    2    0    0  0.18785470630E+02  0.37944665921E+02 -0.14680676821E+03  0.18107674751E+03  0.97179574581E+02 0.  0.
         23    2    1    2    0    0 -0.18785470630E+02 -0.37944665921E+02 -0.98227808053E+02  0.14146907009E+03  0.92585657303E+02 0.  0.
          5    1    3    3  502    0 -0.19035699954E+02 -0.20725545304E+02 -0.15937288660E+02  0.32680166320E+02  0.47000000000E+01 0. -1.
         -5    1    3    3    0  502  0.37821170584E+02  0.58670211224E+02 -0.13086947955E+03  0.14839658119E+03  0.47000000000E+01 0.  1.
          5    1    4    4  503    0 -0.49442281739E+02 -0.16770693021E+02 -0.88196622955E+02  0.10259887752E+03  0.47000000000E+01 0. -1.
         -5    1    4    4    0  503  0.30656811109E+02 -0.21173972900E+02 -0.10031185098E+02  0.38870192567E+02  0.47000000000E+01 0.  1.
<mgrwt>
<rscale>  0 0.10493796E+03</rscale>
<asrwt>0</asrwt>
<pdfrwt beam="1">  1        1 0.43660029E-01 0.10600265E+03</pdfrwt>
<pdfrwt beam="2">  1       -1 0.59624034E-02 0.10600265E+03</pdfrwt>
<totfact> 0.11705128E+04</totfact>
</mgrwt>
</event>
<event>
 7    1  0.5224537E-004  0.2823337E+03  0.7546771E-02  0.1094421E+00
          3   -1    0    0  501    0  0.00000000000E+00  0.00000000000E+00  0.23596672518E+02  0.23596672518E+02  0.00000000000E+00 0. -1.
         -3   -1    0    0    0  501 -0.00000000000E+00 -0.00000000000E+00 -0.84452938343E+03  0.84452938343E+03  0.00000000000E+00 0.  1.
         23    2    1    2    0    0 -0.71555860583E+01  0.85221223078E+01 -0.31914833762E+03  0.33797901467E+03  0.11068118165E+03 0.  0.
          5    1    3    3  502    0  0.50965600780E+02  0.15682959349E+01 -0.17470748968E+03  0.18205699373E+03  0.47000000000E+01 0. -1.
         -5    1    1    2    0  503 -0.58018844861E+02  0.53745721054E+02 -0.27086273761E+03  0.28221180258E+03  0.47000000000E+01 0.  1.
          5    1    1    2  503    0  0.65174430919E+02 -0.62267843361E+02 -0.23092163568E+03  0.24793523870E+03  0.47000000000E+01 0. -1.
         -5    1    3    3    0  502 -0.58121186838E+02  0.69538263729E+01 -0.14444084793E+03  0.15592202094E+03  0.47000000000E+01 0.  1.
<mgrwt>
<rscale>  0 0.28233373E+03</rscale>
<asrwt>0</asrwt>
<pdfrwt beam="1">  1        3 0.36302571E-02 0.28233373E+03</pdfrwt>
<pdfrwt beam="2">  1       -3 0.12992761E+00 0.28233373E+03</pdfrwt>
<totfact> 0.46909750E+02</totfact>
</mgrwt>
</event>
<event>
 8    1  0.5224537E-004  0.9466207E+02  0.7546771E-02  0.1305388E+00
          2   -1    0    0  501    0  0.00000000000E+00  0.00000000000E+00  0.11313489426E+04  0.11313489426E+04  0.00000000000E+00 0.  1.
         -2   -1    0    0    0  501 -0.00000000000E+00 -0.00000000000E+00 -0.64813201455E+01  0.64813201455E+01  0.00000000000E+00 0. -1.
         23    2    1    2    0    0  0.18151227573E+02 -0.49785868274E+01  0.73076036380E+03  0.73686607748E+03  0.92772051025E+02 0.  0.
         23    2    1    2    0    0 -0.18151227573E+02  0.49785868274E+01  0.39410725869E+03  0.40096418531E+03  0.71396730683E+02 0.  0.
          5    1    3    3  502    0 -0.37401837454E+02  0.41414110191E+01  0.26782405896E+03  0.27049559200E+03  0.47000000000E+01 0. -1.
         -5    1    4    4    0  503 -0.16789905305E+01 -0.32332030767E+02  0.18323963920E+03  0.18613713922E+03  0.47000000000E+01 0.  1.
          5    1    4    4  503    0 -0.16472237042E+02  0.37310617594E+02  0.21086761950E+03  0.21482704609E+03  0.47000000000E+01 0. -1.
         -5    1    3    3    0  502  0.55553065026E+02 -0.91199978465E+01  0.46293630484E+03  0.46637048548E+03  0.47000000000E+01 0.  1.
<mgrwt>
<rscale>  0 0.88960854E+02</rscale>
<asrwt>0</asrwt>
<pdfrwt beam="1">  1        2 0.17405353E+00 0.94662067E+02</pdfrwt>
<pdfrwt beam="2">  1       -2 0.99712707E-03 0.94662067E+02</pdfrwt>
<totfact> 0.42785046E+04</totfact>
</mgrwt>
</event>
<event>
 8    1  0.5224537E-004  0.9198619E+02  0.7546771E-02  0.1298173E+00
          1   -1    0    0  501    0  0.00000000000E+00  0.00000000000E+00  0.40058330190E+03  0.40058330190E+03  0.00000000000E+00 0. -1.
         -1   -1    0    0    0  501 -0.00000000000E+00 -0.00000000000E+00 -0.24136817570E+02  0.24136817570E+02  0.00000000000E+00 0.  1.
         23    2    1    2    0    0  0.19900161596E-01  0.62477847207E+00  0.11297969328E+03  0.14569100699E+03  0.91984062094E+02 0.  0.
         23    2    1    2    0    0 -0.19900161596E-01 -0.62477847207E+00  0.26346679105E+03  0.27902911248E+03  0.91880927739E+02 0.  0.
          5    1    3    3  502    0 -0.41456365900E+02 -0.14801422371E+02  0.75444814193E+02  0.87474123982E+02  0.47000000000E+01 0. -1.
         -5    1    3    3    0  502  0.41476266062E+02  0.15426200843E+02  0.37534879092E+02  0.58216883009E+02  0.47000000000E+01 0.  1.
          5    1    4    4  503    0 -0.27482136682E+02  0.27984715345E+02  0.20130993191E+03  0.20514919160E+03  0.47000000000E+01 0. -1.
         -5    1    4    4    0  503  0.27462236520E+02 -0.28609493817E+02  0.62156859144E+02  0.73879920883E+02  0.47000000000E+01 0.  1.
<mgrwt>
<rscale>  0 0.91960392E+02</rscale>
<asrwt>0</asrwt>
<pdfrwt beam="1">  1        1 0.61628195E-01 0.91986186E+02</pdfrwt>
<pdfrwt beam="2">  1       -1 0.37133568E-02 0.91986186E+02</pdfrwt>
<totfact> 0.15113682E+04</totfact>
</mgrwt>
</event>
<event>
 7    1  0.5224537E-004  0.1645117E+03  0.7546771E-02  0.1195087E+00
         -2   -1    0    0    0  501 -0.00000000000E+00  0.00000000000E+00  0.38571372604E+02  0.38571372604E+02  0.00000000000E+00 0.  1.
          2   -1    0    0  501    0  0.00000000000E+00 -0.00000000000E+00 -0.55639350496E+03  0.55639350496E+03  0.00000000000E+00 0. -1.
         23    2    1    2    0    0  0.52863171831E+02  0.68635511949E+02 -0.24562403354E+03  0.27691470736E+03  0.94049140683E+02 0.  0.
          5    1    1    2  502    0  0.24329544464E+02 -0.78208202087E+02 -0.10229436777E+03  0.13112847625E+03  0.47000000000E+01 0. -1.
         -5    1    3    3    0  503 -0.11075010867E+02  0.26265341839E+02 -0.15690064944E+03  0.15953817049E+03  0.47000000000E+01 0.  1.
          5    1    3    3  503    0  0.63938182698E+02  0.42370170110E+02 -0.88723384095E+02  0.11737653687E+03  0.47000000000E+01 0. -1.
         -5    1    1    2    0  502 -0.77192716295E+02  0.95726901379E+01 -0.16990373105E+03  0.18692169395E+03  0.47000000000E+01 0.  1.
<mgrwt>
<rscale>  0 0.15446828E+03</rscale>
<asrwt>0</asrwt>
<pdfrwt beam="1">  1        2 0.85598991E-01 0.16451172E+03</pdfrwt>
<pdfrwt beam="2">  1       -2 0.59340580E-02 0.16451172E+03</pdfrwt>
<totfact> 0.80341803E+03</totfact>
</mgrwt>
</event>
<event>
 8    1  0.5224537E-004  0.1003522E+03  0.7546771E-02  0.1280261E+00
         -3   -1    0    0    0  501 -0.00000000000E+00  0.00000000000E+00  0.71152634464E+02  0.71152634464E+02  0.00000000000E+00 0.  1.
          3   -1    0    0  501    0  0.00000000000E+00 -0.00000000000E+00 -0.14457687761E+03  0.14457687761E+03  0.00000000000E+00 0. -1.
         23    2    1    2    0    0 -0.39691871290E+02 -0.93558624401E+01 -0.17052192693E+02  0.10179069927E+03  0.91692924343E+02 0.  0.
         23    2    1    2    0    0  0.39691871290E+02  0.93558624401E+01 -0.56372050451E+02  0.11393881280E+03  0.90228976395E+02 0.  0.
          5    1    3    3  502    0 -0.31283489884E+02 -0.49217818178E+02 -0.35478300868E+01  0.58615078809E+02  0.47000000000E+01 0. -1.
         -5    1    4    4    0  503  0.18236929520E+01  0.28697164625E+02  0.13419912250E+02  0.32078609045E+02  0.47000000000E+01 0.  1.
          5    1    4    4  503    0  0.37868178338E+02 -0.19341302184E+02 -0.69791962701E+02  0.81860203753E+02  0.47000000000E+01 0. -1.
         -5    1    3    3    0  502 -0.84083814061E+01  0.39861955738E+02 -0.13504362606E+02  0.43175620465E+02  0.47000000000E+01 0.  1.
<mgrwt>
<rscale>  0 0.10001659E+03</rscale>
<asrwt>0</asrwt>
<pdfrwt beam="1">  1        3 0.22242596E-01 0.10035223E+03</pdfrwt>
<pdfrwt beam="2">  1       -3 0.10946559E-01 0.10035223E+03</pdfrwt>
<totfact> 0.25418841E+03</totfact>
</mgrwt>
</event>
<event>
 8    1  0.5224537E-004  0.9249944E+02  0.7546771E-02  0.1297700E+00
         -2   -1    0    0    0  501 -0.00000000000E+00  0.00000000000E+00  0.26485040852E+03  0.26485040852E+03  0.00000000000E+00 0.  1.
          2   -1    0    0  501    0  0.00000000000E+00 -0.00000000000E+00 -0.41281476847E+02  0.41281476847E+02  0.00000000000E+00 0. -1.
         23    2    1    2    0    0  0.27395880276E+01 -0.19305406728E+02  0.39206523482E+02  0.10046541015E+03  0.90420921706E+02 0.  0.
         23    2    1    2    0    0 -0.27395880276E+01  0.19305406728E+02  0.18436240819E+03  0.20566647521E+03  0.89044917886E+02 0.  0.
          5    1    4    4  502    0 -0.63339598888E+01 -0.34527900281E+02  0.54902277591E+02  0.65334868412E+02  0.47000000000E+01 0. -1.
         -5    1    3    3    0  503  0.21701020667E+02  0.21228373407E+02  0.45636762111E+02  0.55012563942E+02  0.47000000000E+01 0.  1.
          5    1    3    3  503    0 -0.18961432640E+02 -0.40533780135E+02 -0.64302386290E+01  0.45452846211E+02  0.47000000000E+01 0. -1.
         -5    1    4    4    0  502  0.35943718612E+01  0.53833307010E+02  0.12946013060E+03  0.14033160680E+03  0.47000000000E+01 0.  1.
<mgrwt>
<rscale>  0 0.92161440E+02</rscale>
<asrwt>0</asrwt>
<pdfrwt beam="1">  1        2 0.63509966E-02 0.92499444E+02</pdfrwt>
<pdfrwt beam="2">  1       -2 0.40746216E-01 0.92499444E+02</pdfrwt>
<totfact> 0.60334374E+03</totfact>
</mgrwt>
</event>
<event>
 8    1  0.5224537E-004  0.1086376E+03  0.7546771E-02  0.1263343E+00
          3   -1    0    0  501    0  0.00000000000E+00  0.00000000000E+00  0.30423201001E+02  0.30423201001E+02  0.00000000000E+00 0. -1.
         -3   -1    0    0    0  501 -0.00000000000E+00 -0.00000000000E+00 -0.62200257789E+03  0.62200257789E+03  0.00000000000E+00 0.  1.
         23    2    1    2    0    0 -0.56254342462E+02 -0.13525291690E+02 -0.49705440330E+03  0.50878798762E+03  0.91949181308E+02 0.  0.
         23    2    1    2    0    0  0.56254342462E+02  0.13525291690E+02 -0.94524973585E+02  0.14363779127E+03  0.91374831810E+02 0.  0.
          5    1    3    3  502    0 -0.69319944417E+01  0.31875290133E+02 -0.82795954447E+02  0.89114234221E+02  0.47000000000E+01 0. -1.
         -5    1    4    4    0  503  0.19442412371E+02 -0.28076577549E+02 -0.78336446295E+02  0.85586157898E+02  0.47000000000E+01 0.  1.
          5    1    4    4  503    0  0.36811930092E+02  0.41601869239E+02 -0.16188527290E+02  0.58051633371E+02  0.47000000000E+01 0. -1.
         -5    1    3    3    0  502 -0.49322348020E+02 -0.45400581823E+02 -0.41425844885E+03  0.41967375340E+03  0.47000000000E+01 0.  1.
<mgrwt>
<rscale>  0 0.10851601E+03</rscale>
<asrwt>0</asrwt>
<pdfrwt beam="1">  1        3 0.46804928E-02 0.10863764E+03</pdfrwt>
<pdfrwt beam="2">  1       -3 0.95692698E-01 0.10863764E+03</pdfrwt>
<totfact> 0.56748729E+02</totfact>
</mgrwt>
</event>
<event>
 8    1  0.5224537E-004  0.9896291E+02  0.7546771E-02  0.1287434E+00
         -2   -1    0    0    0  501 -0.00000000000E+00  0.00000000000E+00  0.15974090116E+03  0.15974090116E+03  0.00000000000E+00 0.  1.
          2   -1    0    0  501    0  0.00000000000E+00 -0.00000000000E+00 -0.90284499067E+02  0.90284499067E+02  0.00000000000E+00 0. -1.
         23    2    1    2    0    0  0.51779576494E+01 -0.52292197062E+01  0.11275016360E+03  0.15002085257E+03  0.98688909363E+02 0.  0.
         23    2    1    2    0    0 -0.51779576494E+01  0.52292197062E+01 -0.43293761503E+02  0.10000454766E+03  0.89846556878E+02 0.  0.
          5    1    4    4  502    0 -0.43193125268E+02  0.21558930510E+02 -0.23790622058E+02  0.54023302870E+02  0.47000000000E+01 0. -1.
         -5    1    4    4    0  502  0.38015167618E+02 -0.16329710803E+02 -0.19503139445E+02  0.45981244787E+02  0.47000000000E+01 0.  1.
          5    1    3    3  503    0 -0.36536921120E+02  0.82161180797E+01  0.11284224000E+02  0.39393843586E+02  0.47000000000E+01 0. -1.
         -5    1    3    3    0  503  0.41714878769E+02 -0.13445337786E+02  0.10146593960E+03  0.11062700899E+03  0.47000000000E+01 0.  1.
<mgrwt>
<rscale>  0 0.96681343E+02</rscale>
<asrwt>0</asrwt>
<pdfrwt beam="1">  1        2 0.13889923E-01 0.98962906E+02</pdfrwt>
<pdfrwt beam="2">  1       -2 0.24575523E-01 0.98962906E+02</pdfrwt>
<totfact> 0.58061494E+03</totfact>
</mgrwt>
</event>
<event>
 8    1  0.5224537E-004  0.1095278E+03  0.7546771E-02  0.1261666E+00
          1   -1    0    0  501    0  0.00000000000E+00  0.00000000000E+00  0.36774525399E+03  0.36774525399E+03  0.00000000000E+00 0. -1.
         -1   -1    0    0    0  501 -0.00000000000E+00 -0.00000000000E+00 -0.52267121377E+02  0.52267121377E+02  0.00000000000E+00 0.  1.
         23    2    1    2    0    0  0.36406075514E+01  0.59316158324E+02  0.28741669907E+02  0.11323609618E+03  0.92003637031E+02 0.  0.
         23    2    1    2    0    0 -0.36406075514E+01 -0.59316158324E+02  0.28673646271E+03  0.30677627919E+03  0.91445206361E+02 0.  0.
          5    1    4    4  502    0 -0.30413805468E+02 -0.68945135773E+02  0.16171471385E+03  0.17847176243E+03  0.47000000000E+01 0. -1.
         -5    1    3    3    0  503  0.34539746157E+01  0.83052320751E+02  0.12739861126E+02  0.84225957901E+02  0.47000000000E+01 0.  1.
          5    1    3    3  503    0  0.18663293562E+00 -0.23736162427E+02  0.16001808781E+02  0.29010138278E+02  0.47000000000E+01 0. -1.
         -5    1    4    4    0  502  0.26773197916E+02  0.96289774493E+01  0.12502174886E+03  0.12830451676E+03  0.47000000000E+01 0.  1.
<mgrwt>
<rscale>  0 0.10941040E+03</rscale>
<asrwt>0</asrwt>
<pdfrwt beam="1">  1        1 0.56576191E-01 0.10952776E+03</pdfrwt>
<pdfrwt beam="2">  1       -1 0.80410958E-02 0.10952776E+03</pdfrwt>
<totfact> 0.54604311E+03</totfact>
</mgrwt>
</event>
<event>
 8    1  0.5224537E-004  0.9907226E+02  0.7546771E-02  0.1282932E+00
          1   -1    0    0  501    0  0.00000000000E+00  0.00000000000E+00  0.18373555638E+02  0.18373555638E+02  0.00000000000E+00 0. -1.
         -1   -1    0    0    0  501 -0.00000000000E+00 -0.00000000000E+00 -0.62931715060E+03  0.62931715060E+03  0.00000000000E+00 0.  1.
         23    2    1    2    0    0 -0.25365957252E+02  0.29093659172E+02 -0.17355744399E+03  0.19922447883E+03  0.89879551660E+02 0.  0.
         23    2    1    2    0    0  0.25365957252E+02 -0.29093659172E+02 -0.43738615097E+03  0.44846622741E+03  0.91243845153E+02 0.  0.
          5    1    4    4  502    0 -0.15172597885E+02 -0.50318932617E+02 -0.21601140701E+03  0.22236281314E+03  0.47000000000E+01 0. -1.
         -5    1    4    4    0  502  0.40538555137E+02  0.21225273445E+02 -0.22137474395E+03  0.22610341427E+03  0.47000000000E+01 0.  1.
          5    1    3    3  503    0 -0.18164163695E+02 -0.22341899898E+02 -0.16028961356E+02  0.33288360367E+02  0.47000000000E+01 0. -1.
         -5    1    3    3    0  503 -0.72017935572E+01  0.51435559070E+02 -0.15752848264E+03  0.16593611846E+03  0.47000000000E+01 0.  1.
<mgrwt>
<rscale>  0 0.98756994E+02</rscale>
<asrwt>0</asrwt>
<pdfrwt beam="1">  1        1 0.28267006E-02 0.99072257E+02</pdfrwt>
<pdfrwt beam="2">  1       -1 0.96818033E-01 0.99072257E+02</pdfrwt>
<totfact> 0.37669666E+03</totfact>
</mgrwt>
</event>
<event>
 8    1  0.5224537E-004  0.1701457E+03  0.7546771E-02  0.1177718E+00
          1   -1    0    0  501    0  0.00000000000E+00  0.00000000000E+00  0.49621875217E+03  0.49621875217E+03  0.00000000000E+00 0. -1.
         -1   -1    0    0    0  501 -0.00000000000E+00 -0.00000000000E+00 -0.66241181754E+02  0.66241181754E+02  0.00000000000E+00 0.  1.
         23    2    1    2    0    0 -0.43214012128E+02  0.13672600236E+03  0.31224397960E+03  0.35555236063E+03  0.91431547011E+02 0.  0.
         23    2    1    2    0    0  0.43214012128E+02 -0.13672600236E+03  0.11773359082E+03  0.20690757329E+03  0.91586543301E+02 0.  0.
          5    1    3    3  502    0  0.53728265292E+01  0.11453450117E+03  0.18840015551E+03  0.22059856713E+03  0.47000000000E+01 0. -1.
         -5    1    4    4    0  503 -0.19279530279E+02 -0.77845450135E+02  0.35167994645E+02  0.87695451660E+02  0.47000000000E+01 0.  1.
          5    1    4    4  503    0  0.62493542407E+02 -0.58880552224E+02  0.82565596174E+02  0.11921212163E+03  0.47000000000E+01 0. -1.
         -5    1    3    3    0  502 -0.48586838658E+02  0.22191501191E+02  0.12384382408E+03  0.13495379350E+03  0.47000000000E+01 0.  1.
<mgrwt>
<rscale>  0 0.17012481E+03</rscale>
<asrwt>0</asrwt>
<pdfrwt beam="1">  1        1 0.76341344E-01 0.17014566E+03</pdfrwt>
<pdfrwt beam="2">  1       -1 0.10190951E-01 0.17014566E+03</pdfrwt>
<totfact> 0.26565793E+03</totfact>
</mgrwt>
</event>
<event>
 8    1  0.5224537E-004  0.9857751E+02  0.7546771E-02  0.1284889E+00
         -3   -1    0    0    0  501 -0.00000000000E+00  0.00000000000E+00  0.48653613316E+02  0.48653613316E+02  0.00000000000E+00 0.  1.
          3   -1    0    0  501    0  0.00000000000E+00 -0.00000000000E+00 -0.19405809141E+03  0.19405809141E+03  0.00000000000E+00 0. -1.
         23    2    1    2    0    0 -0.24204405779E+02  0.28060722256E+02 -0.77026947708E+02  0.12510265941E+03  0.91346961227E+02 0.  0.
         23    2    1    2    0    0  0.24204405779E+02 -0.28060722256E+02 -0.68377530391E+02  0.11760904532E+03  0.88222125831E+02 0.  0.
          5    1    4    4  502    0 -0.27890352261E+02 -0.32453570756E+02 -0.34094093604E+02  0.54914508309E+02  0.47000000000E+01 0. -1.
         -5    1    4    4    0  502  0.52094758040E+02  0.43928485002E+01 -0.34283436786E+02  0.62694537012E+02  0.47000000000E+01 0.  1.
          5    1    3    3  503    0  0.24126725322E+02 -0.13189929928E+02 -0.47027128344E+02  0.54678276551E+02  0.47000000000E+01 0. -1.
         -5    1    3    3    0  503 -0.48331131101E+02  0.41250652185E+02 -0.29999819363E+02  0.70424382858E+02  0.47000000000E+01 0.  1.
<mgrwt>
<rscale>  0 0.97847328E+02</rscale>
<asrwt>0</asrwt>
<pdfrwt beam="1">  1        3 0.29855091E-01 0.98577506E+02</pdfrwt>
<pdfrwt beam="2">  1       -3 0.74851713E-02 0.98577506E+02</pdfrwt>
<totfact> 0.27690452E+03</totfact>
</mgrwt>
</event>
<event>
 8    1  0.5224537E-004  0.1449635E+03  0.7546771E-02  0.1208744E+00
          4   -1    0    0  501    0  0.00000000000E+00  0.00000000000E+00  0.57439992866E+03  0.57439992866E+03  0.00000000000E+00 0. -1.
         -4   -1    0    0    0  501 -0.00000000000E+00 -0.00000000000E+00 -0.39928469381E+02  0.39928469381E+02  0.00000000000E+00 0.  1.
         23    2    1    2    0    0  0.77611326483E+02  0.71013147270E+02  0.36904334633E+03  0.39437186360E+03  0.90938387063E+02 0.  0.
         23    2    1    2    0    0 -0.77611326483E+02 -0.71013147270E+02  0.16542811295E+03  0.21995653445E+03  0.99739818567E+02 0.  0.
          5    1    3    3  502    0  0.44496943960E+02  0.41160443882E+02  0.32801104930E+03  0.33359780968E+03  0.47000000000E+01 0. -1.
         -5    1    3    3    0  502  0.33114382523E+02  0.29852703388E+02  0.41032297032E+02  0.60774053914E+02  0.47000000000E+01 0.  1.
          5    1    4    4  503    0 -0.74254566243E+02 -0.11296481082E+01  0.76693716953E+02  0.10685987522E+03  0.47000000000E+01 0. -1.
         -5    1    4    4    0  503 -0.33567602407E+01 -0.69883499162E+02  0.88734395999E+02  0.11309665922E+03  0.47000000000E+01 0.  1.
<mgrwt>
<rscale>  0 0.14346314E+03</rscale>
<asrwt>0</asrwt>
<pdfrwt beam="1">  1        4 0.88369214E-01 0.14496350E+03</pdfrwt>
<pdfrwt beam="2">  1       -4 0.61428419E-02 0.14496350E+03</pdfrwt>
<totfact> 0.32732746E+02</totfact>
</mgrwt>
</event>
<event>
 8    1  0.5224537E-004  0.1442855E+03  0.7546771E-02  0.1209417E+00
         -2   -1    0    0    0  501 -0.00000000000E+00  0.00000000000E+00  0.97130414110E+02  0.97130414110E+02  0.00000000000E+00 0.  1.
          2   -1    0    0  501    0  0.00000000000E+00 -0.00000000000E+00 -0.54645580983E+03  0.54645580983E+03  0.00000000000E+00 0. -1.
         23    2    1    2    0    0  0.11118557537E+03 -0.30400569755E+01  0.27525372374E+02  0.14688752979E+03  0.91906616549E+02 0.  0.
         23    2    1    2    0    0 -0.11118557537E+03  0.30400569755E+01 -0.47685076810E+03  0.49669869416E+03  0.83375437780E+02 0.  0.
          5    1    3    3  502    0  0.31595912254E+01 -0.31040537612E+02 -0.11382567278E+01  0.31573463863E+02  0.47000000000E+01 0. -1.
         -5    1    3    3    0  502  0.10802598415E+03  0.28000480636E+02  0.28663629102E+02  0.11531406592E+03  0.47000000000E+01 0.  1.
          5    1    4    4  503    0 -0.11420827560E+02  0.21291208154E+02 -0.31794917253E+02  0.40208924506E+02  0.47000000000E+01 0.  1.
         -5    1    4    4    0  503 -0.99764747811E+02 -0.18251151178E+02 -0.44505585084E+03  0.45648976965E+03  0.47000000000E+01 0. -1.
<mgrwt>
<rscale>  0 0.14294735E+03</rscale>
<asrwt>0</asrwt>
<pdfrwt beam="1">  1        2 0.84070125E-01 0.14428548E+03</pdfrwt>
<pdfrwt beam="2">  1       -2 0.14943141E-01 0.14428548E+03</pdfrwt>
<totfact> 0.19093692E+03</totfact>
</mgrwt>
</event>
<event>
 8    1  0.5224537E-004  0.9593925E+02  0.7546771E-02  0.1289971E+00
          3   -1    0    0  501    0  0.00000000000E+00  0.00000000000E+00  0.94651683254E+02  0.94651683254E+02  0.00000000000E+00 0. -1.
         -3   -1    0    0    0  501 -0.00000000000E+00 -0.00000000000E+00 -0.97386435201E+02  0.97386435201E+02  0.00000000000E+00 0.  1.
         23    2    1    2    0    0 -0.21925634173E+02  0.26038345007E+02  0.11514529416E+02  0.96627757967E+02  0.89697326479E+02 0.  0.
         23    2    1    2    0    0  0.21925634173E+02 -0.26038345007E+02 -0.14249281363E+02  0.95410360489E+02  0.87985032958E+02 0.  0.
          5    1    3    3  502    0 -0.23723377429E+02 -0.95952873852E+01  0.42038560606E+02  0.49438838523E+02  0.47000000000E+01 0. -1.
         -5    1    3    3    0  502  0.17977432557E+01  0.35633632392E+02 -0.30524031190E+02  0.47188919444E+02  0.47000000000E+01 0.  1.
          5    1    4    4  503    0 -0.15476554150E+01 -0.54324147901E+02  0.27982609612E+01  0.54620770288E+02  0.47000000000E+01 0. -1.
         -5    1    4    4    0  503  0.23473289588E+02  0.28285802894E+02 -0.17047542325E+02  0.40789590201E+02  0.47000000000E+01 0.  1.
<mgrwt>
<rscale>  0 0.95536991E+02</rscale>
<asrwt>0</asrwt>
<pdfrwt beam="1">  1        3 0.14561797E-01 0.95939248E+02</pdfrwt>
<pdfrwt beam="2">  1       -3 0.14982528E-01 0.95939248E+02</pdfrwt>
<totfact> 0.30981688E+03</totfact>
</mgrwt>
</event>
<event>
 8    1  0.5224537E-004  0.9714711E+02  0.7546771E-02  0.1287708E+00
          1   -1    0    0  501    0  0.00000000000E+00  0.00000000000E+00  0.17222616724E+03  0.17222616724E+03  0.00000000000E+00 0. -1.
         -1   -1    0    0    0  501 -0.00000000000E+00 -0.00000000000E+00 -0.25613085769E+03  0.25613085769E+03  0.00000000000E+00 0.  1.
         23    2    1    2    0    0 -0.13118817371E+02 -0.26398447181E+02 -0.23235083738E+03  0.25094840046E+03  0.90106640582E+02 0.  0.
         23    2    1    2    0    0  0.13118817371E+02  0.26398447181E+02  0.14844614693E+03  0.17740862447E+03  0.92566625289E+02 0.  0.
          5    1    4    4  502    0  0.38627746075E+02  0.26687949059E+02  0.14342485794E+03  0.15098718246E+03  0.47000000000E+01 0. -1.
         -5    1    3    3    0  503 -0.87753493974E+01  0.28223381884E+02 -0.14245356321E+03  0.14556329796E+03  0.47000000000E+01 0.  1.
          5    1    3    3  503    0 -0.43434679739E+01 -0.54621829065E+02 -0.89897274171E+02  0.10538510250E+03  0.47000000000E+01 0. -1.
         -5    1    4    4    0  502 -0.25508928704E+02 -0.28950187765E+00  0.50212889844E+01  0.26421442012E+02  0.47000000000E+01 0.  1.
<mgrwt>
<rscale>  0 0.96556484E+02</rscale>
<asrwt>0</asrwt>
<pdfrwt beam="1">  1        1 0.26496334E-01 0.97147113E+02</pdfrwt>
<pdfrwt beam="2">  1       -1 0.39404747E-01 0.97147113E+02</pdfrwt>
<totfact> 0.11028537E+03</totfact>
</mgrwt>
</event>
<event>
 8    1  0.5224537E-004  0.1383368E+03  0.7546771E-02  0.1225198E+00
          2   -1    0    0  501    0  0.00000000000E+00  0.00000000000E+00  0.51584535276E+03  0.51584535276E+03  0.00000000000E+00 0. -1.
         -2   -1    0    0    0  501 -0.00000000000E+00 -0.00000000000E+00 -0.13995471574E+03  0.13995471574E+03  0.00000000000E+00 0.  1.
         23    2    1    2    0    0  0.46350869539E+02  0.27452903446E+02 -0.97403652242E+02  0.16918785954E+03  0.12741662109E+03 0.  0.
         23    2    1    2    0    0 -0.46350869539E+02 -0.27452903446E+02  0.47329428926E+03  0.48661220896E+03  0.99407709180E+02 0.  0.
          5    1    4    4  502    0 -0.77296193859E+02 -0.12739399407E+02  0.32907427972E+03  0.33830306746E+03  0.47000000000E+01 0. -1.
         -5    1    4    4    0  502  0.30945324320E+02 -0.14713504039E+02  0.14422000954E+03  0.14830914149E+03  0.47000000000E+01 0.  1.
          5    1    3    3  503    0  0.62865936772E+01 -0.30272277151E+02  0.16433720523E+02  0.35328305850E+02  0.47000000000E+01 0. -1.
         -5    1    3    3    0  503  0.40064275862E+02  0.57725180597E+02 -0.11383737277E+03  0.13385955369E+03  0.47000000000E+01 0.  1.
<mgrwt>
<rscale>  0 0.13153350E+03</rscale>
<asrwt>0</asrwt>
<pdfrwt beam="1">  1        2 0.79360823E-01 0.13833676E+03</pdfrwt>
<pdfrwt beam="2">  1       -2 0.21531495E-01 0.13833676E+03</pdfrwt>
<totfact> 0.11048237E+03</totfact>
</mgrwt>
</event>
<event>
 8    1  0.5224537E-004  0.1187591E+03  0.7546771E-02  0.1247041E+00
         -1   -1    0    0    0  501 -0.00000000000E+00  0.00000000000E+00  0.26938889725E+03  0.26938889725E+03  0.00000000000E+00 0.  1.
          1   -1    0    0  501    0  0.00000000000E+00 -0.00000000000E+00 -0.78669453654E+02  0.78669453654E+02  0.00000000000E+00 0. -1.
         23    2    1    2    0    0  0.35255135792E+02  0.61604368789E+02 -0.77422066453E+01  0.11901115681E+03  0.95213921396E+02 0.  0.
         23    2    1    2    0    0 -0.35255135792E+02 -0.61604368789E+02  0.19846165024E+03  0.22904719409E+03  0.89652482694E+02 0.  0.
          5    1    3    3  502    0  0.33634530546E+02  0.38083939977E+02 -0.49331105295E+02  0.70974052152E+02  0.47000000000E+01 0. -1.
         -5    1    4    4    0  503 -0.58651817825E+02 -0.60621593154E+02  0.11806181233E+03  0.14517470448E+03  0.47000000000E+01 0.  1.
          5    1    4    4  503    0  0.23396682033E+02 -0.98277563561E+00  0.80399837906E+02  0.83872489610E+02  0.47000000000E+01 0. -1.
         -5    1    3    3    0  502  0.16206052454E+01  0.23520428812E+02  0.41588898650E+02  0.48037104656E+02  0.47000000000E+01 0.  1.
<mgrwt>
<rscale>  0 0.11764073E+03</rscale>
<asrwt>0</asrwt>
<pdfrwt beam="1">  1        1 0.12102993E-01 0.11875906E+03</pdfrwt>
<pdfrwt beam="2">  1       -1 0.41444445E-01 0.11875906E+03</pdfrwt>
<totfact> 0.27571739E+03</totfact>
</mgrwt>
</event>
<event>
 8    1  0.5224537E-004  0.9620530E+02  0.7546771E-02  0.1290076E+00
         -2   -1    0    0    0  501 -0.00000000000E+00  0.00000000000E+00  0.33592234458E+02  0.33592234458E+02  0.00000000000E+00 0.  1.
          2   -1    0    0  501    0  0.00000000000E+00 -0.00000000000E+00 -0.29397183029E+03  0.29397183029E+03  0.00000000000E+00 0. -1.
         23    2    1    2    0    0  0.17182851855E+02  0.17600176283E+02 -0.18111963242E+03  0.20508481213E+03  0.93007754054E+02 0.  0.
         23    2    1    2    0    0 -0.17182851855E+02 -0.17600176283E+02 -0.79259963413E+02  0.12247925262E+03  0.90077793709E+02 0.  0.
          5    1    4    4  502    0  0.88033130759E+01  0.30410894569E+02 -0.87488937560E+01  0.33180626449E+02  0.47000000000E+01 0. -1.
         -5    1    4    4    0  502 -0.25986164931E+02 -0.48011070852E+02 -0.70511069657E+02  0.89298626173E+02  0.47000000000E+01 0.  1.
          5    1    3    3  503    0  0.49214486240E+02  0.10413393629E+02 -0.15452717394E+03  0.16257687999E+03  0.47000000000E+01 0. -1.
         -5    1    3    3    0  503 -0.32031634385E+02  0.71867826544E+01 -0.26592458483E+02  0.42507932136E+02  0.47000000000E+01 0.  1.
<mgrwt>
<rscale>  0 0.95489964E+02</rscale>
<asrwt>0</asrwt>
<pdfrwt beam="1">  1        2 0.45226434E-01 0.96205296E+02</pdfrwt>
<pdfrwt beam="2">  1       -2 0.51680363E-02 0.96205296E+02</pdfrwt>
<totfact> 0.18815802E+04</totfact>
</mgrwt>
</event>
<event>
 8    1  0.5224537E-004  0.1072958E+03  0.7546771E-02  0.1266293E+00
         -2   -1    0    0    0  501 -0.00000000000E+00  0.00000000000E+00  0.22345127995E+03  0.22345127995E+03  0.00000000000E+00 0.  1.
          2   -1    0    0  501    0  0.00000000000E+00 -0.00000000000E+00 -0.69882241045E+02  0.69882241045E+02  0.00000000000E+00 0. -1.
         23    2    1    2    0    0 -0.55741516557E+02 -0.20614872328E+01  0.15358072602E+03  0.18734842081E+03  0.91657105437E+02 0.  0.
         23    2    1    2    0    0  0.55741516557E+02  0.20614872328E+01 -0.11687113461E-01  0.10598510019E+03  0.90119226182E+02 0.  0.
          5    1    4    4  502    0  0.45408426638E+02  0.41349730542E+02  0.13231150461E+02  0.62999037835E+02  0.47000000000E+01 0. -1.
         -5    1    3    3    0  503 -0.15853871640E+02 -0.33525699321E+02  0.12140386654E+03  0.12702876278E+03  0.47000000000E+01 0.  1.
          5    1    3    3  503    0 -0.39887644917E+02  0.31464212088E+02  0.32176859477E+02  0.60319658033E+02  0.47000000000E+01 0. -1.
         -5    1    4    4    0  502  0.10333089919E+02 -0.39288243309E+02 -0.13242837574E+02  0.42986062353E+02  0.47000000000E+01 0.  1.
<mgrwt>
<rscale>  0 0.10696662E+03</rscale>
<asrwt>0</asrwt>
<pdfrwt beam="1">  1        2 0.10751114E-01 0.10729581E+03</pdfrwt>
<pdfrwt beam="2">  1       -2 0.34377120E-01 0.10729581E+03</pdfrwt>
<totfact> 0.43617383E+03</totfact>
</mgrwt>
</event>
<event>
 8    1  0.5224537E-004  0.9593061E+02  0.7546771E-02  0.1290646E+00
         -1   -1    0    0    0  501 -0.00000000000E+00  0.00000000000E+00  0.51198746522E+03  0.51198746522E+03  0.00000000000E+00 0.  1.
          1   -1    0    0  501    0  0.00000000000E+00 -0.00000000000E+00 -0.17928817445E+02  0.17928817445E+02  0.00000000000E+00 0. -1.
         23    2    1    2    0    0 -0.10831149292E+02 -0.30723642030E+01  0.20081775880E+03  0.22138281353E+03  0.92497700846E+02 0.  0.
         23    2    1    2    0    0  0.10831149292E+02  0.30723642030E+01  0.29324088898E+03  0.30853346913E+03  0.95267672325E+02 0.  0.
          5    1    3    3  502    0 -0.95601825954E+01 -0.47387470743E+02  0.10743716077E+03  0.11790590736E+03  0.47000000000E+01 0. -1.
         -5    1    3    3    0  502 -0.12709666968E+01  0.44315106540E+02  0.93380598029E+02  0.10347690618E+03  0.47000000000E+01 0.  1.
          5    1    4    4  503    0  0.23613546646E+02 -0.40551018584E+02  0.11006671267E+03  0.11974454447E+03  0.47000000000E+01 0. -1.
         -5    1    4    4    0  503 -0.12782397354E+02  0.43623382787E+02  0.18317417631E+03  0.18878892466E+03  0.47000000000E+01 0.  1.
<mgrwt>
<rscale>  0 0.95235530E+02</rscale>
<asrwt>0</asrwt>
<pdfrwt beam="1">  1        1 0.27582800E-02 0.95930614E+02</pdfrwt>
<pdfrwt beam="2">  1       -1 0.78767291E-01 0.95930614E+02</pdfrwt>
<totfact> 0.59752295E+03</totfact>
</mgrwt>
</event>
<event>
 8    1  0.5224537E-004  0.9854565E+02  0.7546771E-02  0.1284791E+00
         -1   -1    0    0    0  501 -0.00000000000E+00  0.00000000000E+00  0.61012310677E+02  0.61012310677E+02  0.00000000000E+00 0.  1.
          1   -1    0    0  501    0  0.00000000000E+00 -0.00000000000E+00 -0.48841613471E+03  0.48841613471E+03  0.00000000000E+00 0. -1.
         23    2    1    2    0    0  0.21288212011E+02 -0.30314180043E+02  0.12359236174E+02  0.99317654445E+02  0.91318718143E+02 0.  0.
         23    2    1    2    0    0 -0.21288212011E+02  0.30314180043E+02 -0.43976306021E+03  0.45011079095E+03  0.88521395825E+02 0.  0.
          5    1    3    3  502    0 -0.34831035549E+02 -0.20609036510E+02  0.10800161831E+02  0.42150526911E+02  0.47000000000E+01 0. -1.
         -5    1    4    4    0  503  0.27721238239E+02 -0.15864709552E+01 -0.65786187145E+02  0.71560438502E+02  0.47000000000E+01 0.  1.
          5    1    4    4  503    0 -0.49009450250E+02  0.31900650998E+02 -0.37397687307E+03  0.37855035244E+03  0.47000000000E+01 0. -1.
         -5    1    3    3    0  502  0.56119247560E+02 -0.97051435328E+01  0.15590743422E+01  0.57167127534E+02  0.47000000000E+01 0.  1.
<mgrwt>
<rscale>  0 0.97892586E+02</rscale>
<asrwt>0</asrwt>
<pdfrwt beam="1">  1        1 0.75140945E-01 0.98545653E+02</pdfrwt>
<pdfrwt beam="2">  1       -1 0.93865092E-02 0.98545653E+02</pdfrwt>
<totfact> 0.30092991E+03</totfact>
</mgrwt>
</event>
<event>
 8    1  0.5224537E-004  0.1025313E+03  0.7546771E-02  0.1278301E+00
          2   -1    0    0  501    0  0.00000000000E+00  0.00000000000E+00  0.86171257414E+03  0.86171257414E+03  0.00000000000E+00 0. -1.
         -2   -1    0    0    0  501 -0.00000000000E+00 -0.00000000000E+00 -0.14351543384E+02  0.14351543384E+02  0.00000000000E+00 0.  1.
         23    2    1    2    0    0 -0.28668285686E+02 -0.43590055429E+02  0.60912663576E+03  0.61670280758E+03  0.81025495673E+02 0.  0.
         23    2    1    2    0    0  0.28668285686E+02  0.43590055429E+02  0.23823439500E+03  0.25936130995E+03  0.88264934146E+02 0.  0.
          5    1    4    4  502    0  0.32663062717E+02 -0.86958059711E+01  0.32964655184E+02  0.47447351864E+02  0.47000000000E+01 0. -1.
         -5    1    4    4    0  502 -0.39947770306E+01  0.52285861401E+02  0.20526973982E+03  0.21191395809E+03  0.47000000000E+01 0.  1.
          5    1    3    3  503    0  0.13835577438E+02 -0.47041271549E+02  0.23383593647E+03  0.23896786315E+03  0.47000000000E+01 0. -1.
         -5    1    3    3    0  503 -0.42503863124E+02  0.34512161195E+01  0.37529069928E+03  0.37773494443E+03  0.47000000000E+01 0.  1.
<mgrwt>
<rscale>  0 0.10095486E+03</rscale>
<asrwt>0</asrwt>
<pdfrwt beam="1">  1        2 0.13257112E+00 0.10253127E+03</pdfrwt>
<pdfrwt beam="2">  1       -2 0.22079304E-02 0.10253127E+03</pdfrwt>
<totfact> 0.19975058E+04</totfact>
</mgrwt>
</event>
<event>
 8    1  0.5224537E-004  0.9733981E+02  0.7546771E-02  0.1286299E+00
          3   -1    0    0  501    0  0.00000000000E+00  0.00000000000E+00  0.95080988721E+02  0.95080988721E+02  0.00000000000E+00 0. -1.
         -3   -1    0    0    0  501 -0.00000000000E+00 -0.00000000000E+00 -0.13693130392E+03  0.13693130392E+03  0.00000000000E+00 0.  1.
         23    2    1    2    0    0 -0.20729157553E+02 -0.27055294786E+02 -0.81874622579E+02  0.12676504150E+03  0.90577232099E+02 0.  0.
         23    2    1    2    0    0  0.20729157553E+02  0.27055294786E+02  0.40024307383E+02  0.10524725114E+03  0.91177583551E+02 0.  0.
          5    1    3    3  502    0  0.88141098741E+00  0.32650477091E+02 -0.30827066634E+02  0.45157818557E+02  0.47000000000E+01 0. -1.
         -5    1    3    3    0  502 -0.21610568540E+02 -0.59705771877E+02 -0.51047555946E+02  0.81607222941E+02  0.47000000000E+01 0.  1.
          5    1    4    4  503    0  0.40674753919E+02  0.38157762458E+02  0.54246959690E+02  0.77944038115E+02  0.47000000000E+01 0. -1.
         -5    1    4    4    0  503 -0.19945596366E+02 -0.11102467673E+02 -0.14222652307E+02  0.27303213024E+02  0.47000000000E+01 0.  1.
<mgrwt>
<rscale>  0 0.97198976E+02</rscale>
<asrwt>0</asrwt>
<pdfrwt beam="1">  1        3 0.14627845E-01 0.97339810E+02</pdfrwt>
<pdfrwt beam="2">  1       -3 0.21066354E-01 0.97339810E+02</pdfrwt>
<totfact> 0.17124884E+03</totfact>
</mgrwt>
</event>
<event>
 8    1  0.5224537E-004  0.1244856E+03  0.7546771E-02  0.1236515E+00
         -3   -1    0    0    0  501 -0.00000000000E+00  0.00000000000E+00  0.16926331940E+02  0.16926331940E+02  0.00000000000E+00 0.  1.
          3   -1    0    0  501    0  0.00000000000E+00 -0.00000000000E+00 -0.90538978622E+03  0.90538978622E+03  0.00000000000E+00 0. -1.
         23    2    1    2    0    0  0.69920547099E+02 -0.42151520158E+02 -0.42708993999E+03  0.44486232803E+03  0.93973615997E+02 0.  0.
         23    2    1    2    0    0 -0.69920547099E+02  0.42151520158E+02 -0.46137351428E+03  0.47745379012E+03  0.91820305271E+02 0.  0.
          5    1    3    3  502    0 -0.56479210278E+01  0.21068828693E+02 -0.12790545712E+03  0.12983716923E+03  0.47000000000E+01 0. -1.
         -5    1    4    4    0  503  0.20013402253E+02  0.59218367971E+01 -0.43795839395E+02  0.48741870800E+02  0.47000000000E+01 0.  1.
          5    1    4    4  503    0 -0.89933949351E+02  0.36229683361E+02 -0.41757767489E+03  0.42871191932E+03  0.47000000000E+01 0. -1.
         -5    1    3    3    0  502  0.75568468127E+02 -0.63220348851E+02 -0.29918448287E+03  0.31502515880E+03  0.47000000000E+01 0.  1.
<mgrwt>
<rscale>  0 0.12407930E+03</rscale>
<asrwt>0</asrwt>
<pdfrwt beam="1">  1        3 0.13929079E+00 0.12448564E+03</pdfrwt>
<pdfrwt beam="2">  1       -3 0.26040501E-02 0.12448564E+03</pdfrwt>
<totfact> 0.60143790E+02</totfact>
</mgrwt>
</event>
<event>
 8    1  0.5224537E-004  0.1680145E+03  0.7546771E-02  0.1186813E+00
         -2   -1    0    0    0  501 -0.00000000000E+00  0.00000000000E+00  0.12105510896E+03  0.12105510896E+03  0.00000000000E+00 0.  1.
          2   -1    0    0  501    0  0.00000000000E+00 -0.00000000000E+00 -0.21597228057E+03  0.21597228057E+03  0.00000000000E+00 0. -1.
         23    2    1    2    0    0 -0.44127247378E+02  0.10126685707E+03 -0.37187212108E-01  0.14407377996E+03  0.92493580241E+02 0.  0.
         23    2    1    2    0    0  0.44127247378E+02 -0.10126685707E+03 -0.94879984398E+02  0.19295360957E+03  0.12659657856E+03 0.  0.
          5    1    3    3  502    0 -0.33343147496E+02 -0.48852028680E+01  0.13114432403E+02  0.36465175569E+02  0.47000000000E+01 0. -1.
         -5    1    4    4    0  503 -0.37716894424E+02 -0.48477940289E+02 -0.75590707973E+01  0.62063712192E+02  0.47000000000E+01 0.  1.
          5    1    4    4  503    0  0.81844141802E+02 -0.52788916784E+02 -0.87320913601E+02  0.13088989737E+03  0.47000000000E+01 0. -1.
         -5    1    3    3    0  502 -0.10784099883E+02  0.10615205994E+03 -0.13151619616E+02  0.10760860439E+03  0.47000000000E+01 0.  1.
<mgrwt>
<rscale>  0 0.16168003E+03</rscale>
<asrwt>0</asrwt>
<pdfrwt beam="1">  1        2 0.33226505E-01 0.16801454E+03</pdfrwt>
<pdfrwt beam="2">  1       -2 0.18623863E-01 0.16801454E+03</pdfrwt>
<totfact> 0.36224436E+03</totfact>
</mgrwt>
</event>
<event>
 8    1  0.5224537E-004  0.1046790E+03  0.7546771E-02  0.1270942E+00
          1   -1    0    0  501    0  0.00000000000E+00  0.00000000000E+00  0.18552472663E+03  0.18552472663E+03  0.00000000000E+00 0. -1.
         -1   -1    0    0    0  501 -0.00000000000E+00 -0.00000000000E+00 -0.82489166101E+02  0.82489166101E+02  0.00000000000E+00 0.  1.
         23    2    1    2    0    0 -0.14636037123E+02 -0.47528213421E+02  0.12318948662E+03  0.16141239696E+03  0.91679701268E+02 0.  0.
         23    2    1    2    0    0  0.14636037123E+02  0.47528213421E+02 -0.20153926097E+02  0.10660149577E+03  0.92111636121E+02 0.  0.
          5    1    3    3  502    0 -0.34706634752E+02  0.14807964417E+02  0.36915349964E+02  0.52996786402E+02  0.47000000000E+01 0. -1.
         -5    1    3    3    0  502  0.20070597629E+02 -0.62336177837E+02  0.86274136658E+02  0.10841561056E+03  0.47000000000E+01 0.  1.
          5    1    4    4  503    0 -0.17013163951E+02  0.36987771853E+02  0.26685704799E+02  0.48905621915E+02  0.47000000000E+01 0. -1.
         -5    1    4    4    0  503  0.31649201074E+02  0.10540441567E+02 -0.46839630896E+02  0.57695873851E+02  0.47000000000E+01 0.  1.
<mgrwt>
<rscale>  0 0.10458393E+03</rscale>
<asrwt>0</asrwt>
<pdfrwt beam="1">  1        1 0.28542265E-01 0.10467902E+03</pdfrwt>
<pdfrwt beam="2">  1       -1 0.12690641E-01 0.10467902E+03</pdfrwt>
<totfact> 0.63203476E+03</totfact>
</mgrwt>
</event>
<event>
 8    1  0.5224537E-004  0.1528887E+03  0.7546771E-02  0.1197375E+00
          1   -1    0    0  501    0  0.00000000000E+00  0.00000000000E+00  0.48703503373E+03  0.48703503373E+03  0.00000000000E+00 0. -1.
         -1   -1    0    0    0  501 -0.00000000000E+00 -0.00000000000E+00 -0.49517802969E+02  0.49517802969E+02  0.00000000000E+00 0.  1.
         23    2    1    2    0    0 -0.84937635248E+02  0.87682897410E+02  0.27288511462E+03  0.31279585485E+03  0.92044927325E+02 0.  0.
         23    2    1    2    0    0  0.84937635248E+02 -0.87682897410E+02  0.16463211614E+03  0.22375698185E+03  0.89781740259E+02 0.  0.
          5    1    4    4  502    0 -0.95313979754E+01 -0.41603315591E+02  0.70680135260E+02  0.82700997189E+02  0.47000000000E+01 0. -1.
         -5    1    3    3    0  503  0.87260863352E+01  0.24673922606E+02  0.11872643468E+03  0.12166759360E+03  0.47000000000E+01 0.  1.
          5    1    3    3  503    0 -0.93663721583E+02  0.63008974804E+02  0.15415867994E+03  0.19112826125E+03  0.47000000000E+01 0. -1.
         -5    1    4    4    0  502  0.94469033223E+02 -0.46079581819E+02  0.93951980877E+02  0.14105598466E+03  0.47000000000E+01 0.  1.
<mgrwt>
<rscale>  0 0.15254966E+03</rscale>
<asrwt>0</asrwt>
<pdfrwt beam="1">  1        1 0.74928464E-01 0.15288872E+03</pdfrwt>
<pdfrwt beam="2">  1       -1 0.76181238E-02 0.15288872E+03</pdfrwt>
<totfact> 0.42223635E+03</totfact>
</mgrwt>
</event>
<event>
 8    1  0.5224537E-004  0.9228764E+02  0.7546771E-02  0.1298140E+00
         -2   -1    0    0    0  501 -0.00000000000E+00  0.00000000000E+00  0.43278239923E+03  0.43278239923E+03  0.00000000000E+00 0.  1.
          2   -1    0    0  501    0  0.00000000000E+00 -0.00000000000E+00 -0.59482083497E+02  0.59482083497E+02  0.00000000000E+00 0. -1.
         23    2    1    2    0    0 -0.93161218356E+01 -0.12716046460E+02  0.38907264445E+03  0.39986814281E+03  0.90931408275E+02 0.  0.
         23    2    1    2    0    0  0.93161218356E+01  0.12716046460E+02 -0.15772328718E+02  0.92396339916E+02  0.89665095289E+02 0.  0.
          5    1    3    3  502    0 -0.40032210220E+02 -0.28361852598E+02  0.14094998339E+03  0.14931831888E+03  0.47000000000E+01 0. -1.
         -5    1    3    3    0  502  0.30716088385E+02  0.15645806138E+02  0.24812266107E+03  0.25054982393E+03  0.47000000000E+01 0.  1.
          5    1    4    4  503    0 -0.25063630677E+02  0.38258034142E+02 -0.17699102817E+02  0.49266733194E+02  0.47000000000E+01 0. -1.
         -5    1    4    4    0  503  0.34379752513E+02 -0.25541987682E+02  0.19267740990E+01  0.43129606722E+02  0.47000000000E+01 0.  1.
<mgrwt>
<rscale>  0 0.91974188E+02</rscale>
<asrwt>0</asrwt>
<pdfrwt beam="1">  1        2 0.91510900E-02 0.92287643E+02</pdfrwt>
<pdfrwt beam="2">  1       -2 0.66581906E-01 0.92287643E+02</pdfrwt>
<totfact> 0.14466716E+03</totfact>
</mgrwt>
</event>
<event>
 8    1  0.5224537E-004  0.1370902E+03  0.7546771E-02  0.1217864E+00
          1   -1    0    0  501    0  0.00000000000E+00  0.00000000000E+00  0.69685847949E+03  0.69685847949E+03  0.00000000000E+00 0. -1.
         -1   -1    0    0    0  501 -0.00000000000E+00 -0.00000000000E+00 -0.38904812154E+02  0.38904812154E+02  0.00000000000E+00 0.  1.
         23    2    1    2    0    0 -0.18250608972E+02  0.97844620548E+02  0.53678294136E+03  0.55401232072E+03  0.94271262207E+02 0.  0.
         23    2    1    2    0    0  0.18250608972E+02 -0.97844620548E+02  0.12117072598E+03  0.18175097093E+03  0.91893504125E+02 0.  0.
          5    1    4    4  502    0  0.48703332892E+02 -0.24938775869E+02  0.37049934485E+02  0.66247602387E+02  0.47000000000E+01 0.  1.
         -5    1    4    4    0  502 -0.30452723920E+02 -0.72905844679E+02  0.84120791497E+02  0.11550336854E+03  0.47000000000E+01 0. -1.
          5    1    3    3  503    0  0.13096934006E+02  0.75255511740E+02  0.18676775875E+03  0.20183955865E+03  0.47000000000E+01 0. -1.
         -5    1    3    3    0  503 -0.31347542978E+02  0.22589108807E+02  0.35001518260E+03  0.35217276206E+03  0.47000000000E+01 0.  1.
<mgrwt>
<rscale>  0 0.13668237E+03</rscale>
<asrwt>0</asrwt>
<pdfrwt beam="1">  1        1 0.10720899E+00 0.13709021E+03</pdfrwt>
<pdfrwt beam="2">  1       -1 0.59853562E-02 0.13709021E+03</pdfrwt>
<totfact> 0.37103928E+03</totfact>
</mgrwt>
</event>
<event>
 8    1  0.5224537E-004  0.9690658E+02  0.7546771E-02  0.1286986E+00
          1   -1    0    0  501    0  0.00000000000E+00  0.00000000000E+00  0.19973940550E+03  0.19973940550E+03  0.00000000000E+00 0. -1.
         -1   -1    0    0    0  501 -0.00000000000E+00 -0.00000000000E+00 -0.78528651596E+02  0.78528651596E+02  0.00000000000E+00 0.  1.
         23    2    1    2    0    0 -0.23049566358E+02  0.98290591215E+00  0.14878581421E+03  0.17751454957E+03  0.94031633955E+02 0.  0.
         23    2    1    2    0    0  0.23049566358E+02 -0.98290591215E+00 -0.27575060302E+02  0.10075350753E+03  0.94120331046E+02 0.  0.
          5    1    4    4  502    0  0.11585889382E+02  0.37540876316E+02  0.14720020200E+02  0.42217522689E+02  0.47000000000E+01 0. -1.
         -5    1    3    3    0  503 -0.55751855187E+02 -0.16237976564E+02  0.10449000168E+03  0.11963357259E+03  0.47000000000E+01 0.  1.
          5    1    3    3  503    0  0.32702288829E+02  0.17220882476E+02  0.44295812525E+02  0.57880976971E+02  0.47000000000E+01 0. -1.
         -5    1    4    4    0  502  0.11463676975E+02 -0.38523782228E+02 -0.42295080503E+02  0.58535984844E+02  0.47000000000E+01 0.  1.
<mgrwt>
<rscale>  0 0.96885037E+02</rscale>
<asrwt>0</asrwt>
<pdfrwt beam="1">  1        1 0.30729139E-01 0.96906580E+02</pdfrwt>
<pdfrwt beam="2">  1       -1 0.12081331E-01 0.96906580E+02</pdfrwt>
<totfact> 0.61872726E+03</totfact>
</mgrwt>
</event>
<event>
 8    1  0.7014929E-004  0.1074143E+03  0.7546771E-02  0.1265918E+00
         -3   -1    0    0    0  501 -0.00000000000E+00  0.00000000000E+00  0.17423760865E+03  0.17423760865E+03  0.00000000000E+00 0.  1.
          3   -1    0    0  501    0  0.00000000000E+00 -0.00000000000E+00 -0.12529134101E+03  0.12529134101E+03  0.00000000000E+00 0. -1.
         23    2    1    2    0    0  0.13397350221E+02  0.53246248178E+02 -0.78959632025E+02  0.13250273071E+03  0.91146575466E+02 0.  0.
         23    2    1    2    0    0 -0.13397350221E+02 -0.53246248178E+02  0.12790589967E+03  0.16702621895E+03  0.92321106504E+02 0.  0.
          5    1    3    3  502    0  0.27478177329E+02  0.71249385822E+02 -0.77835066507E+02  0.10914170966E+03  0.47000000000E+01 0. -1.
         -5    1    3    3    0  502 -0.14080827108E+02 -0.18003137644E+02 -0.11245655182E+01  0.23361021054E+02  0.47000000000E+01 0.  1.
          5    1    4    4  503    0  0.34814380603E+01  0.20060065708E+02  0.66814949781E+02  0.70006100887E+02  0.47000000000E+01 0. -1.
         -5    1    4    4    0  503 -0.16878788281E+02 -0.73306313886E+02  0.61090949892E+02  0.97020118059E+02  0.47000000000E+01 0.  1.
<mgrwt>
<rscale>  0 0.10716149E+03</rscale>
<asrwt>0</asrwt>
<pdfrwt beam="1">  1        3 0.19275591E-01 0.10741433E+03</pdfrwt>
<pdfrwt beam="2">  1       -3 0.26805786E-01 0.10741433E+03</pdfrwt>
<totfact> 0.70595314E+02</totfact>
</mgrwt>
</event>
<event>
 8    1  0.5224537E-004  0.1036606E+03  0.7546771E-02  0.1275804E+00
          2   -1    0    0  501    0  0.00000000000E+00  0.00000000000E+00  0.11397901589E+04  0.11397901589E+04  0.00000000000E+00 0. -1.
         -2   -1    0    0    0  501 -0.00000000000E+00 -0.00000000000E+00 -0.98510579722E+01  0.98510579722E+01  0.00000000000E+00 0.  1.
         23    2    1    2    0    0 -0.31672571986E+02  0.19852633947E+02  0.37193017903E+03  0.38457713792E+03  0.90389369095E+02 0.  0.
         23    2    1    2    0    0  0.31672571986E+02 -0.19852633947E+02  0.75800892189E+03  0.76506407895E+03  0.96686298604E+02 0.  0.
          5    1    3    3  502    0  0.28644259534E+02  0.20222789709E+02  0.17593306304E+03  0.17945469483E+03  0.47000000000E+01 0. -1.
         -5    1    4    4    0  503 -0.24463969662E+02  0.14426699995E+02  0.10985172215E+03  0.11356102475E+03  0.47000000000E+01 0.  1.
          5    1    4    4  503    0  0.56136541648E+02 -0.34279333943E+02  0.64815719975E+03  0.65150305420E+03  0.47000000000E+01 0. -1.
         -5    1    3    3    0  502 -0.60316831521E+02 -0.37015576164E+00  0.19599711600E+03  0.20512244309E+03  0.47000000000E+01 0.  1.
<mgrwt>
<rscale>  0 0.10216689E+03</rscale>
<asrwt>0</asrwt>
<pdfrwt beam="1">  1        2 0.17535223E+00 0.10366060E+03</pdfrwt>
<pdfrwt beam="2">  1       -2 0.15155483E-02 0.10366060E+03</pdfrwt>
<totfact> 0.23508618E+04</totfact>
</mgrwt>
</event>
<event>
 8    1  0.5224537E-004  0.1038787E+03  0.7546771E-02  0.1272353E+00
         -2   -1    0    0    0  501 -0.00000000000E+00  0.00000000000E+00  0.15940462344E+02  0.15940462344E+02  0.00000000000E+00 0.  1.
          2   -1    0    0  501    0  0.00000000000E+00 -0.00000000000E+00 -0.75275783643E+03  0.75275783643E+03  0.00000000000E+00 0. -1.
         23    2    1    2    0    0  0.23475759541E+02  0.43948147270E+02 -0.49044872850E+03  0.50132533627E+03  0.91129504307E+02 0.  0.
         23    2    1    2    0    0 -0.23475759541E+02 -0.43948147270E+02 -0.24636864558E+03  0.26737296251E+03  0.91149550850E+02 0.  0.
          5    1    3    3  502    0  0.38992712754E+02 -0.12025536269E+02 -0.13430928353E+03  0.14044970208E+03  0.47000000000E+01 0. -1.
         -5    1    3    3    0  502 -0.15516953213E+02  0.55973683539E+02 -0.35613944497E+03  0.36087563419E+03  0.47000000000E+01 0.  1.
          5    1    4    4  503    0 -0.28383452252E+02 -0.18241651810E+02 -0.23660935790E+03  0.23904906707E+03  0.47000000000E+01 0. -1.
         -5    1    4    4    0  503  0.49076927108E+01 -0.25706495461E+02 -0.97592876818E+01  0.28323895436E+02  0.47000000000E+01 0.  1.
<mgrwt>
<rscale>  0 0.10387434E+03</rscale>
<asrwt>0</asrwt>
<pdfrwt beam="1">  1        2 0.11580891E+00 0.10387873E+03</pdfrwt>
<pdfrwt beam="2">  1       -2 0.24523786E-02 0.10387873E+03</pdfrwt>
<totfact> 0.20292381E+04</totfact>
</mgrwt>
</event>
<event>
 8    1  0.5224537E-004  0.1051681E+03  0.7546771E-02  0.1271721E+00
         -3   -1    0    0    0  501 -0.00000000000E+00  0.00000000000E+00  0.19262808190E+03  0.19262808190E+03  0.00000000000E+00 0.  1.
          3   -1    0    0  501    0  0.00000000000E+00 -0.00000000000E+00 -0.11272301763E+03  0.11272301763E+03  0.00000000000E+00 0. -1.
         23    2    1    2    0    0  0.30787769298E+02 -0.33794206784E+02  0.14851526837E+03  0.17978162184E+03  0.90414110959E+02 0.  0.
         23    2    1    2    0    0 -0.30787769298E+02  0.33794206784E+02 -0.68610204098E+02  0.12556947769E+03  0.94712187548E+02 0.  0.
          5    1    3    3  502    0 -0.26226869262E+02  0.79053632943E+01  0.24825653258E+02  0.37265889226E+02  0.47000000000E+01 0. -1.
         -5    1    4    4    0  503  0.17104988101E+02 -0.20521421265E+02 -0.22226392136E+01  0.27216529421E+02  0.47000000000E+01 0.  1.
          5    1    4    4  503    0 -0.47892757399E+02  0.54315628049E+02 -0.66387564885E+02  0.98352948268E+02  0.47000000000E+01 0. -1.
         -5    1    3    3    0  502  0.57014638560E+02 -0.41699570078E+02  0.12368961511E+03  0.14251573261E+03  0.47000000000E+01 0.  1.
<mgrwt>
<rscale>  0 0.10419121E+03</rscale>
<asrwt>0</asrwt>
<pdfrwt beam="1">  1        3 0.17342003E-01 0.10516812E+03</pdfrwt>
<pdfrwt beam="2">  1       -3 0.29635089E-01 0.10516812E+03</pdfrwt>
<totfact> 0.70362679E+02</totfact>
</mgrwt>
</event>
<event>
 8    1  0.5224537E-004  0.1011095E+03  0.7546771E-02  0.1279296E+00
          1   -1    0    0  501    0  0.00000000000E+00  0.00000000000E+00  0.53989235797E+03  0.53989235797E+03  0.00000000000E+00 0. -1.
         -1   -1    0    0    0  501 -0.00000000000E+00 -0.00000000000E+00 -0.18914640923E+02  0.18914640923E+02  0.00000000000E+00 0.  1.
         23    2    1    2    0    0  0.33662111319E+02 -0.17174375641E+02  0.21441090185E+03  0.23599691036E+03  0.91073651226E+02 0.  0.
         23    2    1    2    0    0 -0.33662111319E+02  0.17174375641E+02  0.30656681520E+03  0.32281008854E+03  0.93781896786E+02 0.  0.
          5    1    3    3  502    0 -0.31363019741E+02 -0.83794665828E+01  0.73344355688E+02  0.80345124175E+02  0.47000000000E+01 0. -1.
         -5    1    3    3    0  502  0.65025131060E+02 -0.87949090580E+01  0.14106654617E+03  0.15565178618E+03  0.47000000000E+01 0.  1.
          5    1    4    4  503    0 -0.50157516890E+02  0.40182216167E+02  0.26195997305E+03  0.26976935422E+03  0.47000000000E+01 0. -1.
         -5    1    4    4    0  503  0.16495405571E+02 -0.23007840526E+02  0.44606842153E+02  0.53040734323E+02  0.47000000000E+01 0.  1.
<mgrwt>
<rscale>  0 0.10047694E+03</rscale>
<asrwt>0</asrwt>
<pdfrwt beam="1">  1        1 0.83060351E-01 0.10110955E+03</pdfrwt>
<pdfrwt beam="2">  1       -1 0.29099452E-02 0.10110955E+03</pdfrwt>
<totfact> 0.14834243E+04</totfact>
</mgrwt>
</event>
<event>
 8    1  0.5224537E-004  0.9355398E+02  0.7546771E-02  0.1294546E+00
         -1   -1    0    0    0  501 -0.00000000000E+00  0.00000000000E+00  0.25211148211E+03  0.25211148211E+03  0.00000000000E+00 0.  1.
          1   -1    0    0  501    0  0.00000000000E+00 -0.00000000000E+00 -0.39490833817E+02  0.39490833817E+02  0.00000000000E+00 0. -1.
         23    2    1    2    0    0  0.20108385777E+02 -0.55677239946E+01  0.15720989937E+03  0.18287008747E+03  0.91055860339E+02 0.  0.
         23    2    1    2    0    0 -0.20108385777E+02  0.55677239946E+01  0.55410748926E+02  0.10873222846E+03  0.91197585936E+02 0.  0.
          5    1    4    4  502    0  0.75912024251E+01  0.42675172230E+02  0.41404579531E+02  0.60126748500E+02  0.47000000000E+01 0. -1.
         -5    1    4    4    0  502 -0.27699588202E+02 -0.37107448235E+02  0.14006169395E+02  0.48605479961E+02  0.47000000000E+01 0.  1.
          5    1    3    3  503    0  0.35900912131E+02  0.33855046727E+02  0.98363784104E+02  0.11014791738E+03  0.47000000000E+01 0. -1.
         -5    1    3    3    0  503 -0.15792526354E+02 -0.39422770722E+02  0.58846115265E+02  0.72722170085E+02  0.47000000000E+01 0.  1.
<mgrwt>
<rscale>  0 0.93519419E+02</rscale>
<asrwt>0</asrwt>
<pdfrwt beam="1">  1        1 0.60755131E-02 0.93553976E+02</pdfrwt>
<pdfrwt beam="2">  1       -1 0.38786381E-01 0.93553976E+02</pdfrwt>
<totfact> 0.75868953E+03</totfact>
</mgrwt>
</event>
<event>
 8    1  0.5224537E-004  0.1263953E+03  0.7546771E-02  0.1234266E+00
          3   -1    0    0  501    0  0.00000000000E+00  0.00000000000E+00  0.31525366271E+03  0.31525366271E+03  0.00000000000E+00 0. -1.
         -3   -1    0    0    0  501 -0.00000000000E+00 -0.00000000000E+00 -0.10896392245E+03  0.10896392245E+03  0.00000000000E+00 0.  1.
         23    2    1    2    0    0  0.23200662983E+01  0.84987292943E+02 -0.53165316778E+02  0.13712155289E+03  0.93528320257E+02 0.  0.
         23    2    1    2    0    0 -0.23200662983E+01 -0.84987292943E+02  0.25945505704E+03  0.28709603227E+03  0.88763632465E+02 0.  0.
          5    1    3    3  502    0  0.26448024388E+02  0.52627189611E+02  0.12029384492E+02  0.60298550328E+02  0.47000000000E+01 0. -1.
         -5    1    3    3    0  502 -0.24127958090E+02  0.32360103332E+02 -0.65194701271E+02  0.76823002564E+02  0.47000000000E+01 0.  1.
          5    1    4    4  503    0  0.26744719634E+02 -0.28573508704E+02  0.18499852267E+03  0.18915144413E+03  0.47000000000E+01 0. -1.
         -5    1    4    4    0  503 -0.29064785932E+02 -0.56413784239E+02  0.74456534372E+02  0.97944588131E+02  0.47000000000E+01 0.  1.
<mgrwt>
<rscale>  0 0.12551516E+03</rscale>
<asrwt>0</asrwt>
<pdfrwt beam="1">  1        3 0.48500563E-01 0.12639529E+03</pdfrwt>
<pdfrwt beam="2">  1       -3 0.16763680E-01 0.12639529E+03</pdfrwt>
<totfact> 0.30010326E+02</totfact>
</mgrwt>
</event>
<event>
 8    1  0.5224537E-004  0.9629486E+02  0.7546771E-02  0.1289142E+00
          1   -1    0    0  501    0  0.00000000000E+00  0.00000000000E+00  0.44592317347E+03  0.44592317347E+03  0.00000000000E+00 0. -1.
         -1   -1    0    0    0  501 -0.00000000000E+00 -0.00000000000E+00 -0.25233430011E+02  0.25233430011E+02  0.00000000000E+00 0.  1.
         23    2    1    2    0    0 -0.26152387411E+02 -0.87311338500E+01  0.31138708372E+03  0.32548652275E+03  0.90660799227E+02 0.  0.
         23    2    1    2    0    0  0.26152387411E+02  0.87311338500E+01  0.10930265974E+03  0.14567008074E+03  0.92263323861E+02 0.  0.
          5    1    3    3  502    0 -0.13795226079E+02 -0.29067797430E+02  0.29363056510E+03  0.29542553016E+03  0.47000000000E+01 0. -1.
         -5    1    4    4    0  503 -0.34461270735E+02 -0.46325120276E+00  0.37919644065E+02  0.51456614622E+02  0.47000000000E+01 0.  1.
          5    1    4    4  503    0  0.60613658146E+02  0.91943850528E+01  0.71383015676E+02  0.94213466115E+02  0.47000000000E+01 0. -1.
         -5    1    3    3    0  502 -0.12357161332E+02  0.20336663580E+02  0.17756518620E+02  0.30060992586E+02  0.47000000000E+01 0.  1.
<mgrwt>
<rscale>  0 0.95908971E+02</rscale>
<asrwt>0</asrwt>
<pdfrwt beam="1">  1        1 0.68603560E-01 0.96294865E+02</pdfrwt>
<pdfrwt beam="2">  1       -1 0.38820665E-02 0.96294865E+02</pdfrwt>
<totfact> 0.12440288E+04</totfact>
</mgrwt>
</event>
<event>
 8    1  0.5224537E-004  0.1029003E+03  0.7546771E-02  0.1279516E+00
          2   -1    0    0  501    0  0.00000000000E+00  0.00000000000E+00  0.62131838601E+02  0.62131838601E+02  0.00000000000E+00 0. -1.
         -2   -1    0    0    0  501 -0.00000000000E+00 -0.00000000000E+00 -0.16697397663E+03  0.16697397663E+03  0.00000000000E+00 0.  1.
         23    2    1    2    0    0 -0.90733895255E+01 -0.43366335410E+01 -0.23760497745E+02  0.10560787465E+03  0.10240766156E+03 0.  0.
         23    2    1    2    0    0  0.90733895255E+01  0.43366335410E+01 -0.81081640288E+02  0.12349794059E+03  0.92608726096E+02 0.  0.
          5    1    3    3  502    0  0.13501362802E+02 -0.26559830147E+02  0.30312734318E+02  0.42762872176E+02  0.47000000000E+01 0. -1.
         -5    1    3    3    0  502 -0.22574752327E+02  0.22223196606E+02 -0.54073232063E+02  0.62845002473E+02  0.47000000000E+01 0.  1.
          5    1    4    4  503    0  0.35552881606E+02 -0.30496179665E+02 -0.54787795982E+02  0.72234458212E+02  0.47000000000E+01 0. -1.
         -5    1    4    4    0  503 -0.26479492080E+02  0.34832813206E+02 -0.26293844306E+02  0.51263482374E+02  0.47000000000E+01 0.  1.
<mgrwt>
<rscale>  0 0.10037180E+03</rscale>
<asrwt>0</asrwt>
<pdfrwt beam="1">  1        2 0.95587445E-02 0.10290025E+03</pdfrwt>
<pdfrwt beam="2">  1       -2 0.25688304E-01 0.10290025E+03</pdfrwt>
<totfact> 0.84367331E+03</totfact>
</mgrwt>
</event>
<event>
 8    1  0.5224537E-004  0.1356031E+03  0.7546771E-02  0.1221469E+00
         -1   -1    0    0    0  501 -0.00000000000E+00  0.00000000000E+00  0.21715964606E+03  0.21715964606E+03  0.00000000000E+00 0.  1.
          1   -1    0    0  501    0  0.00000000000E+00 -0.00000000000E+00 -0.15784715679E+03  0.15784715679E+03  0.00000000000E+00 0. -1.
         23    2    1    2    0    0 -0.96424903940E+02  0.43426046966E+01 -0.10143340203E+03  0.16470357005E+03  0.86728949176E+02 0.  0.
         23    2    1    2    0    0  0.96424903940E+02 -0.43426046966E+01  0.16074589131E+03  0.21030323280E+03  0.95244883526E+02 0.  0.
          5    1    3    3  502    0 -0.93332856131E+02  0.31954954584E+02 -0.92032768792E+02  0.13499726548E+03  0.47000000000E+01 0. -1.
         -5    1    3    3    0  502 -0.30920478091E+01 -0.27612349888E+02 -0.94006332394E+01  0.29706304571E+02  0.47000000000E+01 0.  1.
          5    1    4    4  503    0  0.10966260285E+03  0.12090627669E+02  0.11354837334E+03  0.15839000230E+03  0.47000000000E+01 0. -1.
         -5    1    4    4    0  503 -0.13237698908E+02 -0.16433232366E+02  0.47197517970E+02  0.51913230499E+02  0.47000000000E+01 0.  1.
<mgrwt>
<rscale>  0 0.13411900E+03</rscale>
<asrwt>0</asrwt>
<pdfrwt beam="1">  1        1 0.24284178E-01 0.13560313E+03</pdfrwt>
<pdfrwt beam="2">  1       -1 0.33409176E-01 0.13560313E+03</pdfrwt>
<totfact> 0.16496788E+03</totfact>
</mgrwt>
</event>
<event>
 8    1  0.5224537E-004  0.9395498E+02  0.7546771E-02  0.1294489E+00
         -2   -1    0    0    0  501 -0.00000000000E+00  0.00000000000E+00  0.12389610864E+03  0.12389610864E+03  0.00000000000E+00 0.  1.
          2   -1    0    0  501    0  0.00000000000E+00 -0.00000000000E+00 -0.11923834094E+03  0.11923834094E+03  0.00000000000E+00 0. -1.
         23    2    1    2    0    0  0.15282563587E+02 -0.81191625387E+01  0.80421674464E+02  0.12243768733E+03  0.90685522577E+02 0.  0.
         23    2    1    2    0    0 -0.15282563587E+02  0.81191625387E+01 -0.75763906765E+02  0.12069676226E+03  0.92347502947E+02 0.  0.
          5    1    4    4  502    0 -0.48574411657E+02  0.26325614010E+02 -0.49304768216E+02  0.74199471626E+02  0.47000000000E+01 0. -1.
         -5    1    3    3    0  503  0.34567389864E+02 -0.27105460981E+02  0.83830857371E+02  0.94759237569E+02  0.47000000000E+01 0.  1.
          5    1    3    3  503    0 -0.19284826277E+02  0.18986298442E+02 -0.34091829072E+01  0.27678449761E+02  0.47000000000E+01 0. -1.
         -5    1    4    4    0  502  0.33291848070E+02 -0.18206451471E+02 -0.26459138549E+02  0.46497290629E+02  0.47000000000E+01 0.  1.
<mgrwt>
<rscale>  0 0.93544035E+02</rscale>
<asrwt>0</asrwt>
<pdfrwt beam="1">  1        2 0.18344360E-01 0.93954983E+02</pdfrwt>
<pdfrwt beam="2">  1       -2 0.19060940E-01 0.93954983E+02</pdfrwt>
<totfact> 0.64636224E+03</totfact>
</mgrwt>
</event>
<event>
 8    1  0.5224537E-004  0.2474591E+03  0.7546771E-02  0.1115031E+00
         -2   -1    0    0    0  501 -0.00000000000E+00  0.00000000000E+00  0.17434741590E+03  0.17434741590E+03  0.00000000000E+00 0.  1.
          2   -1    0    0  501    0  0.00000000000E+00 -0.00000000000E+00 -0.40108026866E+03  0.40108026866E+03  0.00000000000E+00 0. -1.
         23    2    1    2    0    0 -0.52389028586E+02  0.22344098188E+03 -0.21564439042E+03  0.32772029337E+03  0.90706145668E+02 0.  0.
         23    2    1    2    0    0  0.52389028586E+02 -0.22344098188E+03 -0.11088462338E+02  0.24770739120E+03  0.92550067283E+02 0.  0.
          5    1    3    3  502    0 -0.26765100859E+02  0.20039493247E+03 -0.14456579382E+03  0.24858772762E+03  0.47000000000E+01 0. -1.
         -5    1    3    3    0  502 -0.25623927728E+02  0.23046049417E+02 -0.71078596603E+02  0.79132565742E+02  0.47000000000E+01 0.  1.
          5    1    4    4  503    0 -0.25746215024E+01 -0.85317621826E+02  0.34441026055E+02  0.92162896795E+02  0.47000000000E+01 0. -1.
         -5    1    4    4    0  503  0.54963650089E+02 -0.13812336006E+03 -0.45529488393E+02  0.15554449440E+03  0.47000000000E+01 0.  1.
<mgrwt>
<rscale>  0 0.24728798E+03</rscale>
<asrwt>0</asrwt>
<pdfrwt beam="1">  1        2 0.61704656E-01 0.24745908E+03</pdfrwt>
<pdfrwt beam="2">  1       -2 0.26822680E-01 0.24745908E+03</pdfrwt>
<totfact> 0.99827320E+02</totfact>
</mgrwt>
</event>
<event>
 8    1  0.5224537E-004  0.1508158E+03  0.7546771E-02  0.1199762E+00
          1   -1    0    0  501    0  0.00000000000E+00  0.00000000000E+00  0.14401654627E+03  0.14401654627E+03  0.00000000000E+00 0. -1.
         -1   -1    0    0    0  501 -0.00000000000E+00 -0.00000000000E+00 -0.18617590000E+03  0.18617590000E+03  0.00000000000E+00 0.  1.
         23    2    1    2    0    0  0.11832968282E+03 -0.16144109265E+01  0.44386629729E+02  0.15630850297E+03  0.91965510072E+02 0.  0.
         23    2    1    2    0    0 -0.11832968282E+03  0.16144109265E+01 -0.86545983466E+02  0.17388394330E+03  0.93492771504E+02 0.  0.
          5    1    4    4  502    0 -0.86686394064E+02 -0.41822388306E+02 -0.48563102650E+02  0.10790786819E+03  0.47000000000E+01 0. -1.
         -5    1    4    4    0  502 -0.31643288759E+02  0.43436799232E+02 -0.37982880816E+02  0.65976075104E+02  0.47000000000E+01 0.  1.
          5    1    3    3  503    0  0.91473084524E+02 -0.19199596646E+02  0.68423805747E+02  0.11593039678E+03  0.47000000000E+01 0. -1.
         -5    1    3    3    0  503  0.26856598299E+02  0.17585185720E+02 -0.24037176018E+02  0.40378106195E+02  0.47000000000E+01 0.  1.
<mgrwt>
<rscale>  0 0.15057979E+03</rscale>
<asrwt>0</asrwt>
<pdfrwt beam="1">  1        1 0.22156392E-01 0.15081584E+03</pdfrwt>
<pdfrwt beam="2">  1       -1 0.28642446E-01 0.15081584E+03</pdfrwt>
<totfact> 0.24115147E+03</totfact>
</mgrwt>
</event>
<event>
 8    1  0.5224537E-004  0.9642485E+02  0.7546771E-02  0.1289153E+00
         -1   -1    0    0    0  501 -0.00000000000E+00  0.00000000000E+00  0.32547587553E+02  0.32547587553E+02  0.00000000000E+00 0.  1.
          1   -1    0    0  501    0  0.00000000000E+00 -0.00000000000E+00 -0.55435305155E+03  0.55435305155E+03  0.00000000000E+00 0. -1.
         23    2    1    2    0    0 -0.20731063621E+02  0.11556998481E+02 -0.55733765861E+02  0.11137326434E+03  0.93458066216E+02 0.  0.
         23    2    1    2    0    0  0.20731063621E+02 -0.11556998481E+02 -0.46607169814E+03  0.47552737476E+03  0.91324230790E+02 0.  0.
          5    1    4    4  502    0  0.44381401413E+02 -0.32293231750E+02 -0.19615489923E+03  0.20374345658E+03  0.47000000000E+01 0. -1.
         -5    1    3    3    0  503 -0.23667076958E+02  0.32097167638E+02  0.10749325931E+02  0.41569179810E+02  0.47000000000E+01 0.  1.
          5    1    3    3  503    0  0.29360133369E+01 -0.20540169157E+02 -0.66483091792E+02  0.69804084533E+02  0.47000000000E+01 0. -1.
         -5    1    4    4    0  502 -0.23650337792E+02  0.20736233270E+02 -0.26991679891E+03  0.27178391818E+03  0.47000000000E+01 0.  1.
<mgrwt>
<rscale>  0 0.95903963E+02</rscale>
<asrwt>0</asrwt>
<pdfrwt beam="1">  1        1 0.85285082E-01 0.96424848E+02</pdfrwt>
<pdfrwt beam="2">  1       -1 0.50073214E-02 0.96424848E+02</pdfrwt>
<totfact> 0.64844105E+03</totfact>
</mgrwt>
</event>
<event>
 8    1  0.5224537E-004  0.9438446E+02  0.7546771E-02  0.1292846E+00
         -2   -1    0    0    0  501 -0.00000000000E+00  0.00000000000E+00  0.14974705869E+02  0.14974705869E+02  0.00000000000E+00 0.  1.
          2   -1    0    0  501    0  0.00000000000E+00 -0.00000000000E+00 -0.65630657131E+03  0.65630657131E+03  0.00000000000E+00 0. -1.
         23    2    1    2    0    0 -0.17657484359E+02 -0.19979548323E+02 -0.21471308162E+03  0.23434648528E+03  0.90031098160E+02 0.  0.
         23    2    1    2    0    0  0.17657484359E+02  0.19979548323E+02 -0.42661878382E+03  0.43693479191E+03  0.90539806514E+02 0.  0.
          5    1    4    4  502    0  0.21673182198E+02 -0.32871610401E+02 -0.14451600826E+03  0.14985738634E+03  0.47000000000E+01 0. -1.
         -5    1    4    4    0  502 -0.40156978396E+01  0.52851158724E+02 -0.28210277556E+03  0.28707740557E+03  0.47000000000E+01 0.  1.
          5    1    3    3  503    0  0.28716424228E+02 -0.32344100835E+01 -0.15013178471E+03  0.15295992027E+03  0.47000000000E+01 0. -1.
         -5    1    3    3    0  503 -0.46373908587E+02 -0.16745138240E+02 -0.64581296914E+02  0.81386565006E+02  0.47000000000E+01 0.  1.
<mgrwt>
<rscale>  0 0.94262250E+02</rscale>
<asrwt>0</asrwt>
<pdfrwt beam="1">  1        2 0.10097023E+00 0.94384457E+02</pdfrwt>
<pdfrwt beam="2">  1       -2 0.23038012E-02 0.94384457E+02</pdfrwt>
<totfact> 0.25855174E+04</totfact>
</mgrwt>
</event>
<event>
 8    1  0.5224537E-004  0.1241581E+03  0.7546771E-02  0.1240163E+00
         -1   -1    0    0    0  501 -0.00000000000E+00  0.00000000000E+00  0.27014349154E+03  0.27014349154E+03  0.00000000000E+00 0.  1.
          1   -1    0    0  501    0  0.00000000000E+00 -0.00000000000E+00 -0.53326894040E+02  0.53326894040E+02  0.00000000000E+00 0. -1.
         23    2    1    2    0    0  0.91246710663E+01  0.83360023884E+02  0.98441403215E+02  0.15844852534E+03  0.91559118118E+02 0.  0.
         23    2    1    2    0    0 -0.91246710663E+01 -0.83360023884E+02  0.11837519429E+03  0.16502186025E+03  0.78659866083E+02 0.  0.
          5    1    3    3  502    0  0.19723676948E+02  0.10045411996E+03  0.73758838345E+02  0.12626365226E+03  0.47000000000E+01 0. -1.
         -5    1    3    3    0  502 -0.10599005882E+02 -0.17094096073E+02  0.24682564870E+02  0.32184873075E+02  0.47000000000E+01 0.  1.
          5    1    4    4  503    0 -0.35097598650E+02 -0.99331840228E+01  0.33777685077E+02  0.49935273956E+02  0.47000000000E+01 0. -1.
         -5    1    4    4    0  503  0.25972927584E+02 -0.73426839861E+02  0.84597509210E+02  0.11508658629E+03  0.47000000000E+01 0.  1.
<mgrwt>
<rscale>  0 0.12179605E+03</rscale>
<asrwt>0</asrwt>
<pdfrwt beam="1">  1        1 0.82041377E-02 0.12415807E+03</pdfrwt>
<pdfrwt beam="2">  1       -1 0.41560536E-01 0.12415807E+03</pdfrwt>
<totfact> 0.45986789E+03</totfact>
</mgrwt>
</event>
<event>
 8    1  0.5224537E-004  0.1064019E+03  0.7546771E-02  0.1267754E+00
         -1   -1    0    0    0  501 -0.00000000000E+00  0.00000000000E+00  0.55791756005E+02  0.55791756005E+02  0.00000000000E+00 0.  1.
          1   -1    0    0  501    0  0.00000000000E+00 -0.00000000000E+00 -0.70464769737E+03  0.70464769737E+03  0.00000000000E+00 0. -1.
         23    2    1    2    0    0  0.52229369882E+02 -0.80173459792E+01 -0.27924783016E+01  0.10567281082E+03  0.91469995607E+02 0.  0.
         23    2    1    2    0    0 -0.52229369882E+02  0.80173459792E+01 -0.64606346306E+03  0.65476664255E+03  0.92353521778E+02 0.  0.
          5    1    4    4  502    0 -0.63476764730E+02 -0.21736082161E+02 -0.53276911173E+03  0.53699792676E+03  0.47000000000E+01 0. -1.
         -5    1    4    4    0  502  0.11247394848E+02  0.29753428140E+02 -0.11329435133E+03  0.11776871580E+03  0.47000000000E+01 0.  1.
          5    1    3    3  503    0  0.32192319765E+02  0.29838234647E+02 -0.31204737630E+02  0.54060071673E+02  0.47000000000E+01 0. -1.
         -5    1    3    3    0  503  0.20037050118E+02 -0.37855580627E+02  0.28412259328E+02  0.51612739146E+02  0.47000000000E+01 0.  1.
<mgrwt>
<rscale>  0 0.10620986E+03</rscale>
<asrwt>0</asrwt>
<pdfrwt beam="1">  1        1 0.10840734E+00 0.10640187E+03</pdfrwt>
<pdfrwt beam="2">  1       -1 0.85833472E-02 0.10640187E+03</pdfrwt>
<totfact> 0.21111439E+03</totfact>
</mgrwt>
</event>
<event>
 8    1  0.5224537E-004  0.1090066E+03  0.7546771E-02  0.1262612E+00
         -2   -1    0    0    0  501 -0.00000000000E+00  0.00000000000E+00  0.14726618510E+02  0.14726618510E+02  0.00000000000E+00 0.  1.
          2   -1    0    0  501    0  0.00000000000E+00 -0.00000000000E+00 -0.97675917663E+03  0.97675917663E+03  0.00000000000E+00 0. -1.
         23    2    1    2    0    0 -0.21304532568E+02  0.58564182866E+02 -0.69033759635E+03  0.69889085882E+03  0.89435949018E+02 0.  0.
         23    2    1    2    0    0  0.21304532568E+02 -0.58564182866E+02 -0.27169496176E+03  0.29259493632E+03  0.88938168911E+02 0.  0.
          5    1    4    4  502    0  0.22630937863E+01 -0.27403843929E+02 -0.24628323026E+03  0.24785804761E+03  0.47000000000E+01 0. -1.
         -5    1    4    4    0  502  0.19041438781E+02 -0.31160338938E+02 -0.25411731498E+02  0.44736888708E+02  0.47000000000E+01 0.  1.
          5    1    3    3  503    0  0.22952425171E-01  0.77965478138E+02 -0.55233470108E+03  0.55783001741E+03  0.47000000000E+01 0. -1.
         -5    1    3    3    0  503 -0.21327484993E+02 -0.19401295272E+02 -0.13800289528E+03  0.14106084141E+03  0.47000000000E+01 0.  1.
<mgrwt>
<rscale>  0 0.10890443E+03</rscale>
<asrwt>0</asrwt>
<pdfrwt beam="1">  1        2 0.15027062E+00 0.10900659E+03</pdfrwt>
<pdfrwt beam="2">  1       -2 0.22656339E-02 0.10900659E+03</pdfrwt>
<totfact> 0.16422419E+04</totfact>
</mgrwt>
</event>
<event>
 8    1  0.5224537E-004  0.1024271E+03  0.7546771E-02  0.1275862E+00
          2   -1    0    0  501    0  0.00000000000E+00  0.00000000000E+00  0.31069673569E+03  0.31069673569E+03  0.00000000000E+00 0. -1.
         -2   -1    0    0    0  501 -0.00000000000E+00 -0.00000000000E+00 -0.33404786245E+02  0.33404786245E+02  0.00000000000E+00 0.  1.
         23    2    1    2    0    0 -0.18136186327E+02 -0.42330089481E+02  0.13573076374E+03  0.17004160692E+03  0.91490710621E+02 0.  0.
         23    2    1    2    0    0  0.18136186327E+02  0.42330089481E+02  0.14156118571E+03  0.17405991501E+03  0.90202699434E+02 0.  0.
          5    1    3    3  502    0 -0.50252397632E+02 -0.15777451125E+02  0.10655601557E+03  0.11895589891E+03  0.47000000000E+01 0.  1.
         -5    1    4    4    0  503 -0.31678012495E+02  0.23053176355E+02  0.95650309099E+02  0.10346988473E+03  0.47000000000E+01 0.  1.
          5    1    4    4  503    0  0.49814198822E+02  0.19276913126E+02  0.45910876607E+02  0.70590030279E+02  0.47000000000E+01 0. -1.
         -5    1    3    3    0  502  0.32116211305E+02 -0.26552638356E+02  0.29174748166E+02  0.51085708009E+02  0.47000000000E+01 0. -1.
<mgrwt>
<rscale>  0 0.10213866E+03</rscale>
<asrwt>0</asrwt>
<pdfrwt beam="1">  1        2 0.47799496E-01 0.10242709E+03</pdfrwt>
<pdfrwt beam="2">  1       -2 0.51391981E-02 0.10242709E+03</pdfrwt>
<totfact> 0.18016562E+04</totfact>
</mgrwt>
</event>
<event>
 8    1  0.5224537E-004  0.9600966E+02  0.7546771E-02  0.1289428E+00
          1   -1    0    0  501    0  0.00000000000E+00  0.00000000000E+00  0.23541079215E+03  0.23541079215E+03  0.00000000000E+00 0. -1.
         -1   -1    0    0    0  501 -0.00000000000E+00 -0.00000000000E+00 -0.38797213670E+02  0.38797213670E+02  0.00000000000E+00 0.  1.
         23    2    1    2    0    0  0.25634727094E+01  0.30164851548E+02  0.10030630926E+03  0.13821923776E+03  0.90148279784E+02 0.  0.
         23    2    1    2    0    0 -0.25634727094E+01 -0.30164851548E+02  0.96307269223E+02  0.13598876806E+03  0.91111828393E+02 0.  0.
          5    1    4    4  502    0  0.34988315664E+02 -0.36109293965E+02  0.28180610265E+02  0.57829924249E+02  0.47000000000E+01 0. -1.
         -5    1    3    3    0  503 -0.40075565997E+02  0.60466233221E+01  0.23750278525E+02  0.47209939352E+02  0.47000000000E+01 0.  1.
          5    1    3    3  503    0  0.42639038707E+02  0.24118228226E+02  0.76556030735E+02  0.91009298407E+02  0.47000000000E+01 0. -1.
         -5    1    4    4    0  502 -0.37551788374E+02  0.59444424173E+01  0.68126658959E+02  0.78158843816E+02  0.47000000000E+01 0.  1.
<mgrwt>
<rscale>  0 0.95780363E+02</rscale>
<asrwt>0</asrwt>
<pdfrwt beam="1">  1        1 0.36217044E-01 0.96009661E+02</pdfrwt>
<pdfrwt beam="2">  1       -1 0.59688022E-02 0.96009661E+02</pdfrwt>
<totfact> 0.14557357E+04</totfact>
</mgrwt>
</event>
<event>
 8    1  0.5224537E-004  0.1357360E+03  0.7546771E-02  0.1219459E+00
          1   -1    0    0  501    0  0.00000000000E+00  0.00000000000E+00  0.59417068926E+02  0.59417068926E+02  0.00000000000E+00 0. -1.
         -1   -1    0    0    0  501 -0.00000000000E+00 -0.00000000000E+00 -0.32048542775E+03  0.32048542775E+03  0.00000000000E+00 0.  1.
         23    2    1    2    0    0 -0.46764450471E+02 -0.87878904714E+02 -0.16720411320E+03  0.21487295030E+03  0.91123836488E+02 0.  0.
         23    2    1    2    0    0  0.46764450471E+02  0.87878904714E+02 -0.93864245627E+02  0.16502954638E+03  0.92274800736E+02 0.  0.
          5    1    4    4  502    0  0.65735134694E+01  0.30126973712E+02  0.15555208238E+02  0.34855417480E+02  0.47000000000E+01 0. -1.
         -5    1    4    4    0  502  0.40190937001E+02  0.57751931002E+02 -0.10941945387E+03  0.13017412890E+03  0.47000000000E+01 0.  1.
          5    1    3    3  503    0 -0.12159562197E+02 -0.78374976524E+02 -0.54106561696E+02  0.96125448850E+02  0.47000000000E+01 0. -1.
         -5    1    3    3    0  503 -0.34604888273E+02 -0.95039281899E+01 -0.11309755150E+03  0.11874750145E+03  0.47000000000E+01 0.  1.
<mgrwt>
<rscale>  0 0.13554060E+03</rscale>
<asrwt>0</asrwt>
<pdfrwt beam="1">  1        1 0.91410873E-02 0.13573597E+03</pdfrwt>
<pdfrwt beam="2">  1       -1 0.49305452E-01 0.13573597E+03</pdfrwt>
<totfact> 0.29478204E+03</totfact>
</mgrwt>
</event>
<event>
 8    1  0.5224537E-004  0.1064833E+03  0.7546771E-02  0.1269883E+00
          1   -1    0    0  501    0  0.00000000000E+00  0.00000000000E+00  0.77466585605E+02  0.77466585605E+02  0.00000000000E+00 0. -1.
         -1   -1    0    0    0  501 -0.00000000000E+00 -0.00000000000E+00 -0.14952412656E+03  0.14952412656E+03  0.00000000000E+00 0.  1.
         23    2    1    2    0    0  0.43504027108E+02 -0.29206544304E+02 -0.66835193827E+02  0.12572050638E+03  0.92698867237E+02 0.  0.
         23    2    1    2    0    0 -0.43504027108E+02  0.29206544304E+02 -0.52223471260E+01  0.10127020578E+03  0.86502942517E+02 0.  0.
          5    1    4    4  502    0 -0.62729647814E+02  0.66097965611E+01 -0.21870985030E+02  0.66926288644E+02  0.47000000000E+01 0. -1.
         -5    1    3    3    0  503  0.69359039437E+02 -0.43556742096E+01 -0.37224235676E+02  0.78977097763E+02  0.47000000000E+01 0.  1.
          5    1    3    3  503    0 -0.25855012329E+02 -0.24850870094E+02 -0.29610958150E+02  0.46743408622E+02  0.47000000000E+01 0. -1.
         -5    1    4    4    0  502  0.19225620706E+02  0.22596747743E+02  0.16648637904E+02  0.34343917135E+02  0.47000000000E+01 0.  1.
<mgrwt>
<rscale>  0 0.10512043E+03</rscale>
<asrwt>0</asrwt>
<pdfrwt beam="1">  1        1 0.11917936E-01 0.10648334E+03</pdfrwt>
<pdfrwt beam="2">  1       -1 0.23003712E-01 0.10648334E+03</pdfrwt>
<totfact> 0.75123881E+03</totfact>
</mgrwt>
</event>
<event>
 8    1  0.5224537E-004  0.1116554E+03  0.7546771E-02  0.1257668E+00
         -3   -1    0    0    0  501 -0.00000000000E+00  0.00000000000E+00  0.38206486265E+03  0.38206486265E+03  0.00000000000E+00 0.  1.
          3   -1    0    0  501    0  0.00000000000E+00 -0.00000000000E+00 -0.32630951746E+02  0.32630951746E+02  0.00000000000E+00 0. -1.
         23    2    1    2    0    0  0.42616306262E+02 -0.48872837578E+02  0.16430134832E+03  0.19865007093E+03  0.90896720544E+02 0.  0.
         23    2    1    2    0    0 -0.42616306262E+02  0.48872837578E+02  0.18513256258E+03  0.21604574347E+03  0.90537250518E+02 0.  0.
          5    1    3    3  502    0  0.15402524785E+02 -0.69382582740E+02  0.77388540096E+02  0.10517726321E+03  0.47000000000E+01 0. -1.
         -5    1    4    4    0  503 -0.25355187958E+02  0.68746059859E+02  0.17033336979E+03  0.18548437445E+03  0.47000000000E+01 0.  1.
          5    1    4    4  503    0 -0.17261118304E+02 -0.19873222280E+02  0.14799192792E+02  0.30561369017E+02  0.47000000000E+01 0. -1.
         -5    1    3    3    0  502  0.27213781477E+02  0.20509745162E+02  0.86912808228E+02  0.93472807720E+02  0.47000000000E+01 0.  1.
<mgrwt>
<rscale>  0 0.11158217E+03</rscale>
<asrwt>0</asrwt>
<pdfrwt beam="1">  1        3 0.50201467E-02 0.11165535E+03</pdfrwt>
<pdfrwt beam="2">  1       -3 0.58779206E-01 0.11165535E+03</pdfrwt>
<totfact> 0.14462117E+03</totfact>
</mgrwt>
</event>
<event>
 8    1  0.5224537E-004  0.1206682E+03  0.7546771E-02  0.1242648E+00
         -1   -1    0    0    0  501 -0.00000000000E+00  0.00000000000E+00  0.12058576086E+02  0.12058576086E+02  0.00000000000E+00 0.  1.
          1   -1    0    0  501    0  0.00000000000E+00 -0.00000000000E+00 -0.13068395080E+04  0.13068395080E+04  0.00000000000E+00 0. -1.
         23    2    1    2    0    0 -0.51936986474E+02  0.57633724574E+02 -0.45562070861E+03  0.47132902589E+03  0.92421446402E+02 0.  0.
         23    2    1    2    0    0  0.51936986474E+02 -0.57633724574E+02 -0.83916022328E+03  0.84756905817E+03  0.90356689139E+02 0.  0.
          5    1    4    4  502    0  0.48997982598E+02  0.96885501413E+01 -0.29548294021E+03  0.29971140829E+03  0.47000000000E+01 0. -1.
         -5    1    4    4    0  502  0.29390038763E+01 -0.67322274715E+02 -0.54367728307E+03  0.54785764989E+03  0.47000000000E+01 0.  1.
          5    1    3    3  503    0 -0.60635351327E+02  0.77673335319E+01 -0.33284137976E+03  0.33844120816E+03  0.47000000000E+01 0. -1.
         -5    1    3    3    0  503  0.86983648529E+01  0.49866391042E+02 -0.12277932885E+03  0.13288781773E+03  0.47000000000E+01 0.  1.
<mgrwt>
<rscale>  0 0.12027278E+03</rscale>
<asrwt>0</asrwt>
<pdfrwt beam="1">  1        1 0.20105222E+00 0.12066823E+03</pdfrwt>
<pdfrwt beam="2">  1       -1 0.18551656E-02 0.12066823E+03</pdfrwt>
<totfact> 0.71685438E+03</totfact>
</mgrwt>
</event>
<event>
 8    1  0.5224537E-004  0.1164403E+03  0.7546771E-02  0.1249668E+00
         -1   -1    0    0    0  501 -0.00000000000E+00  0.00000000000E+00  0.22999723154E+02  0.22999723154E+02  0.00000000000E+00 0.  1.
          1   -1    0    0  501    0  0.00000000000E+00 -0.00000000000E+00 -0.61946798303E+03  0.61946798303E+03  0.00000000000E+00 0. -1.
         23    2    1    2    0    0  0.16200203836E+02 -0.69699645395E+02 -0.22161897691E+03  0.25034639000E+03  0.91857807997E+02 0.  0.
         23    2    1    2    0    0 -0.16200203836E+02  0.69699645395E+02 -0.37484928296E+03  0.39212131618E+03  0.90147958873E+02 0.  0.
          5    1    4    4  502    0  0.35025714206E+02  0.37920383417E+02 -0.13088192177E+03  0.14077259527E+03  0.47000000000E+01 0. -1.
         -5    1    3    3    0  503 -0.20752499814E+02 -0.91505989826E+01 -0.69047438849E+01  0.24169509685E+02  0.47000000000E+01 0.  1.
          5    1    3    3  503    0  0.36952703650E+02 -0.60549046412E+02 -0.21471423302E+03  0.22617688032E+03  0.47000000000E+01 0. -1.
         -5    1    4    4    0  502 -0.51225918042E+02  0.31779261979E+02 -0.24396736120E+03  0.25134872091E+03  0.47000000000E+01 0.  1.
<mgrwt>
<rscale>  0 0.11610282E+03</rscale>
<asrwt>0</asrwt>
<pdfrwt beam="1">  1        1 0.95302770E-01 0.11644030E+03</pdfrwt>
<pdfrwt beam="2">  1       -1 0.35384188E-02 0.11644030E+03</pdfrwt>
<totfact> 0.93994435E+03</totfact>
</mgrwt>
</event>
<event>
 7    1  0.5224537E-004  0.1756744E+03  0.7546771E-02  0.1188952E+00
         -2   -1    0    0    0  501 -0.00000000000E+00  0.00000000000E+00  0.31352185895E+02  0.31352185895E+02  0.00000000000E+00 0.  1.
          2   -1    0    0  501    0  0.00000000000E+00 -0.00000000000E+00 -0.72765670959E+03  0.72765670959E+03  0.00000000000E+00 0. -1.
         23    2    1    2    0    0  0.27318506777E+02  0.73135073710E+02 -0.36079130910E+03  0.38028656890E+03  0.91391826458E+02 0.  0.
          5    1    3    3  502    0  0.57110646625E+02  0.58730004262E+02 -0.29876200028E+03  0.30982521229E+03  0.47000000000E+01 0. -1.
         -5    1    3    3    0  502 -0.29792139848E+02  0.14405069448E+02 -0.62029308819E+02  0.70461356608E+02  0.47000000000E+01 0.  1.
          5    1    1    2  503    0  0.59518985351E+02 -0.16236963048E+02 -0.19063939101E+03  0.20042858077E+03  0.47000000000E+01 0. -1.
         -5    1    1    2    0  503 -0.86837492128E+02 -0.56898110661E+02 -0.14487382358E+03  0.17829374581E+03  0.47000000000E+01 0.  1.
<mgrwt>
<rscale>  0 0.15977374E+03</rscale>
<asrwt>0</asrwt>
<pdfrwt beam="1">  1        2 0.11194718E+00 0.17567437E+03</pdfrwt>
<pdfrwt beam="2">  1       -2 0.48234134E-02 0.17567437E+03</pdfrwt>
<totfact> 0.80687295E+03</totfact>
</mgrwt>
</event>
<event>
 8    1  0.5224537E-004  0.1041092E+03  0.7546771E-02  0.1279474E+00
          1   -1    0    0  501    0  0.00000000000E+00  0.00000000000E+00  0.10528867005E+03  0.10528867005E+03  0.00000000000E+00 0. -1.
         -1   -1    0    0    0  501 -0.00000000000E+00 -0.00000000000E+00 -0.92067103372E+02  0.92067103372E+02  0.00000000000E+00 0.  1.
         23    2    1    2    0    0 -0.38100169790E+02 -0.36422725856E+02 -0.10354448221E+02  0.90610460786E+02  0.72971248510E+02 0.  0.
         23    2    1    2    0    0  0.38100169790E+02  0.36422725856E+02  0.23576014895E+02  0.10674531263E+03  0.89780261716E+02 0.  0.
          5    1    4    4  502    0  0.19600586672E+02 -0.99905982256E+01  0.46436621424E+02  0.51598884291E+02  0.47000000000E+01 0. -1.
         -5    1    4    4    0  502  0.18499583118E+02  0.46413324082E+02 -0.22860606530E+02  0.55146428341E+02  0.47000000000E+01 0.  1.
          5    1    3    3  503    0 -0.15465719280E+02 -0.56887642613E+02 -0.71596058901E+01  0.59571321216E+02  0.47000000000E+01 0. -1.
         -5    1    3    3    0  503 -0.22634450510E+02  0.20464916756E+02 -0.31948423310E+01  0.31039139570E+02  0.47000000000E+01 0.  1.
<mgrwt>
<rscale>  0 0.10039173E+03</rscale>
<asrwt>0</asrwt>
<pdfrwt beam="1">  1        1 0.16198257E-01 0.10410924E+03</pdfrwt>
<pdfrwt beam="2">  1       -1 0.14164170E-01 0.10410924E+03</pdfrwt>
<totfact> 0.10862744E+04</totfact>
</mgrwt>
</event>
<event>
 8    1  0.5224537E-004  0.1012856E+03  0.7546771E-02  0.1279440E+00
          2   -1    0    0  501    0  0.00000000000E+00  0.00000000000E+00  0.23106513596E+02  0.23106513596E+02  0.00000000000E+00 0. -1.
         -2   -1    0    0    0  501 -0.00000000000E+00 -0.00000000000E+00 -0.57905574379E+03  0.57905574379E+03  0.00000000000E+00 0.  1.
         23    2    1    2    0    0  0.36515265670E+02  0.13751464576E+02 -0.12110161822E+03  0.15567462032E+03  0.89702386094E+02 0.  0.
         23    2    1    2    0    0 -0.36515265670E+02 -0.13751464576E+02 -0.43484761197E+03  0.44648763706E+03  0.93468160406E+02 0.  0.
          5    1    4    4  502    0 -0.25958927656E+02  0.28317518815E+02 -0.78947353285E+02  0.87923389309E+02  0.47000000000E+01 0. -1.
         -5    1    4    4    0  502 -0.10556338014E+02 -0.42068983390E+02 -0.35590025869E+03  0.35856424776E+03  0.47000000000E+01 0.  1.
          5    1    3    3  503    0  0.31312627584E+02  0.50252013987E+02 -0.62016302317E+02  0.85871166925E+02  0.47000000000E+01 0. -1.
         -5    1    3    3    0  503  0.52026380864E+01 -0.36500549411E+02 -0.59085315907E+02  0.69803453398E+02  0.47000000000E+01 0.  1.
<mgrwt>
<rscale>  0 0.10040813E+03</rscale>
<asrwt>0</asrwt>
<pdfrwt beam="1">  1        2 0.35548478E-02 0.10128556E+03</pdfrwt>
<pdfrwt beam="2">  1       -2 0.89085509E-01 0.10128556E+03</pdfrwt>
<totfact> 0.25999833E+03</totfact>
</mgrwt>
</event>
<event>
 8    1  0.5224537E-004  0.9359882E+02  0.7546771E-02  0.1294931E+00
          2   -1    0    0  501    0  0.00000000000E+00  0.00000000000E+00  0.39405579188E+03  0.39405579188E+03  0.00000000000E+00 0. -1.
         -2   -1    0    0    0  501 -0.00000000000E+00 -0.00000000000E+00 -0.42647565209E+02  0.42647565209E+02  0.00000000000E+00 0.  1.
         23    2    1    2    0    0 -0.14578312309E+02 -0.21776600283E+02  0.24251647737E+02  0.96689614887E+02  0.89855393268E+02 0.  0.
         23    2    1    2    0    0  0.14578312309E+02  0.21776600283E+02  0.32715657893E+03  0.34001374220E+03  0.88832258992E+02 0.  0.
          5    1    4    4  502    0  0.73622794128E+01  0.45492709607E+02  0.29746170944E+03  0.30104708663E+03  0.47000000000E+01 0. -1.
         -5    1    4    4    0  502  0.72160328957E+01 -0.23716109324E+02  0.29694869490E+02  0.38966655569E+02  0.47000000000E+01 0.  1.
          5    1    3    3  503    0 -0.14352867761E+02  0.27142650982E+02  0.34568210580E+02  0.46473427870E+02  0.47000000000E+01 0. -1.
         -5    1    3    3    0  503 -0.22544454749E+00 -0.48919251265E+02 -0.10316562843E+02  0.50216187016E+02  0.47000000000E+01 0.  1.
<mgrwt>
<rscale>  0 0.93352406E+02</rscale>
<asrwt>0</asrwt>
<pdfrwt beam="1">  1        2 0.60623966E-01 0.93598821E+02</pdfrwt>
<pdfrwt beam="2">  1       -2 0.65611641E-02 0.93598821E+02</pdfrwt>
<totfact> 0.96509154E+03</totfact>
</mgrwt>
</event>
<event>
 8    1  0.5224537E-004  0.1127469E+03  0.7546771E-02  0.1262666E+00
          1   -1    0    0  501    0  0.00000000000E+00  0.00000000000E+00  0.56934574294E+03  0.56934574294E+03  0.00000000000E+00 0. -1.
         -1   -1    0    0    0  501 -0.00000000000E+00 -0.00000000000E+00 -0.21898659619E+02  0.21898659619E+02  0.00000000000E+00 0.  1.
         23    2    1    2    0    0 -0.28563627038E+02  0.21201154670E+02  0.35413278122E+03  0.36745370590E+03  0.91360984549E+02 0.  0.
         23    2    1    2    0    0  0.28563627038E+02 -0.21201154670E+02  0.19331430211E+03  0.22379069666E+03  0.10698825527E+03 0.  0.
          5    1    4    4  502    0 -0.25081267271E+01 -0.53207350985E+02  0.48510366203E+02  0.72198743255E+02  0.47000000000E+01 0. -1.
         -5    1    4    4    0  502  0.31071753765E+02  0.32006196315E+02  0.14480393590E+03  0.15159195341E+03  0.47000000000E+01 0.  1.
          5    1    3    3  503    0  0.16588891505E+02  0.26572465945E+02  0.26869131751E+03  0.27055203080E+03  0.47000000000E+01 0. -1.
         -5    1    3    3    0  503 -0.45152518544E+02 -0.53713112753E+01  0.85441463712E+02  0.96901675098E+02  0.47000000000E+01 0.  1.
<mgrwt>
<rscale>  0 0.10887576E+03</rscale>
<asrwt>0</asrwt>
<pdfrwt beam="1">  1        1 0.87591642E-01 0.11274687E+03</pdfrwt>
<pdfrwt beam="2">  1       -1 0.33690250E-02 0.11274687E+03</pdfrwt>
<totfact> 0.11285535E+04</totfact>
</mgrwt>
</event>
<event>
 8    1  0.5224537E-004  0.2083833E+03  0.7546771E-02  0.1142895E+00
          1   -1    0    0  501    0  0.00000000000E+00  0.00000000000E+00  0.31659286644E+03  0.31659286644E+03  0.00000000000E+00 0. -1.
         -1   -1    0    0    0  501 -0.00000000000E+00 -0.00000000000E+00 -0.18179812863E+03  0.18179812863E+03  0.00000000000E+00 0.  1.
         23    2    1    2    0    0  0.16202077629E+03 -0.94271684356E+02  0.19104752908E+03  0.28254855400E+03  0.90535322263E+02 0.  0.
         23    2    1    2    0    0 -0.16202077629E+03  0.94271684356E+02 -0.56252791269E+02  0.21584244107E+03  0.91025822818E+02 0.  0.
          5    1    3    3  502    0  0.12757079514E+03 -0.87817567575E+02  0.19255262555E+03  0.24715346761E+03  0.47000000000E+01 0. -1.
         -5    1    3    3    0  502  0.34449981149E+02 -0.64541167801E+01 -0.15050964710E+01  0.35395086382E+02  0.47000000000E+01 0.  1.
          5    1    4    4  503    0 -0.16012233511E+03  0.64158021014E+02 -0.64482069741E+02  0.18421574629E+03  0.47000000000E+01 0.  1.
         -5    1    4    4    0  503 -0.18984411826E+01  0.30113663342E+02  0.82292784720E+01  0.31626694784E+02  0.47000000000E+01 0. -1.
<mgrwt>
<rscale>  0 0.20832979E+03</rscale>
<asrwt>0</asrwt>
<pdfrwt beam="1">  1        1 0.48706595E-01 0.20838326E+03</pdfrwt>
<pdfrwt beam="2">  1       -1 0.27968943E-01 0.20838326E+03</pdfrwt>
<totfact> 0.94221472E+02</totfact>
</mgrwt>
</event>
<event>
 8    1  0.5224537E-004  0.1055754E+03  0.7546771E-02  0.1269289E+00
          2   -1    0    0  501    0  0.00000000000E+00  0.00000000000E+00  0.20793087700E+03  0.20793087700E+03  0.00000000000E+00 0. -1.
         -2   -1    0    0    0  501 -0.00000000000E+00 -0.00000000000E+00 -0.13693991919E+03  0.13693991919E+03  0.00000000000E+00 0.  1.
         23    2    1    2    0    0  0.54471666479E+01  0.52593448262E+02 -0.99309711654E+02  0.14449994168E+03  0.90675641117E+02 0.  0.
         23    2    1    2    0    0 -0.54471666479E+01 -0.52593448262E+02  0.17030066946E+03  0.20037085451E+03  0.91380626463E+02 0.  0.
          5    1    4    4  502    0  0.29033021992E+02 -0.42843753450E+02  0.15037791225E+03  0.15910408565E+03  0.47000000000E+01 0. -1.
         -5    1    3    3    0  503 -0.28489511985E+02  0.25889759697E+02 -0.92798779633E+02  0.10057651541E+03  0.47000000000E+01 0.  1.
          5    1    3    3  503    0  0.33936678633E+02  0.26703688564E+02 -0.65109320207E+01  0.43923426271E+02  0.47000000000E+01 0. -1.
         -5    1    4    4    0  502 -0.34480188639E+02 -0.97496948115E+01  0.19922757208E+02  0.41266768862E+02  0.47000000000E+01 0.  1.
<mgrwt>
<rscale>  0 0.10542265E+03</rscale>
<asrwt>0</asrwt>
<pdfrwt beam="1">  1        2 0.31989366E-01 0.10557538E+03</pdfrwt>
<pdfrwt beam="2">  1       -2 0.21067680E-01 0.10557538E+03</pdfrwt>
<totfact> 0.29916619E+03</totfact>
</mgrwt>
</event>
<event>
 8    1  0.5224537E-004  0.9274212E+02  0.7546771E-02  0.1297771E+00
          2   -1    0    0  501    0  0.00000000000E+00  0.00000000000E+00  0.20954193005E+03  0.20954193005E+03  0.00000000000E+00 0. -1.
         -2   -1    0    0    0  501 -0.00000000000E+00 -0.00000000000E+00 -0.50502601899E+02  0.50502601899E+02  0.00000000000E+00 0.  1.
         23    2    1    2    0    0  0.16385999626E+02  0.10623509780E+02  0.19351599443E+02  0.92372940747E+02  0.88186823491E+02 0.  0.
         23    2    1    2    0    0 -0.16385999626E+02 -0.10623509780E+02  0.13968772871E+03  0.16767159120E+03  0.90662787300E+02 0.  0.
          5    1    4    4  502    0  0.22979736972E+02 -0.63431678198E+01  0.12139038792E+03  0.12379830520E+03  0.47000000000E+01 0. -1.
         -5    1    3    3    0  503 -0.28090825594E+02  0.60704767529E-01  0.33800370524E+02  0.44200149493E+02  0.47000000000E+01 0.  1.
          5    1    3    3  503    0  0.44476825220E+02  0.10562805013E+02 -0.14448771081E+02  0.48172791254E+02  0.47000000000E+01 0. -1.
         -5    1    4    4    0  502 -0.39365736598E+02 -0.42803419606E+01  0.18297340786E+02  0.43873286007E+02  0.47000000000E+01 0.  1.
<mgrwt>
<rscale>  0 0.92131377E+02</rscale>
<asrwt>0</asrwt>
<pdfrwt beam="1">  1        2 0.32237219E-01 0.92742121E+02</pdfrwt>
<pdfrwt beam="2">  1       -2 0.77696312E-02 0.92742121E+02</pdfrwt>
<totfact> 0.14486886E+04</totfact>
</mgrwt>
</event>
<event>
 8    1  0.5224537E-004  0.1142545E+03  0.7546771E-02  0.1254658E+00
          2   -1    0    0  501    0  0.00000000000E+00  0.00000000000E+00  0.35876335447E+03  0.35876335447E+03  0.00000000000E+00 0. -1.
         -2   -1    0    0    0  501 -0.00000000000E+00 -0.00000000000E+00 -0.36299220593E+02  0.36299220593E+02  0.00000000000E+00 0.  1.
         23    2    1    2    0    0  0.12008217563E+02  0.69085596370E+02  0.12868801036E+03  0.17208922603E+03  0.90205769157E+02 0.  0.
         23    2    1    2    0    0 -0.12008217563E+02 -0.69085596370E+02  0.19377612352E+03  0.22297334904E+03  0.85152283709E+02 0.  0.
          5    1    3    3  502    0  0.10981134144E+02  0.46518163076E+02  0.13881630890E+03  0.14688969474E+03  0.47000000000E+01 0. -1.
         -5    1    3    3    0  502  0.10270834197E+01  0.22567433294E+02 -0.10128298542E+02  0.25199531289E+02  0.47000000000E+01 0.  1.
          5    1    4    4  503    0  0.32625304392E+02 -0.34029762822E+02  0.12501833880E+03  0.13369409217E+03  0.47000000000E+01 0. -1.
         -5    1    4    4    0  503 -0.44633521955E+02 -0.35055833548E+02  0.68757784719E+02  0.89279256870E+02  0.47000000000E+01 0.  1.
<mgrwt>
<rscale>  0 0.11325494E+03</rscale>
<asrwt>0</asrwt>
<pdfrwt beam="1">  1        2 0.55194360E-01 0.11425453E+03</pdfrwt>
<pdfrwt beam="2">  1       -2 0.55844957E-02 0.11425453E+03</pdfrwt>
<totfact> 0.13810902E+04</totfact>
</mgrwt>
</event>
<event>
 8    1  0.5224537E-004  0.9841881E+02  0.7546771E-02  0.1285014E+00
          2   -1    0    0  501    0  0.00000000000E+00  0.00000000000E+00  0.12256981781E+03  0.12256981781E+03  0.00000000000E+00 0. -1.
         -2   -1    0    0    0  501 -0.00000000000E+00 -0.00000000000E+00 -0.89836415206E+02  0.89836415206E+02  0.00000000000E+00 0.  1.
         23    2    1    2    0    0 -0.19552848623E+02 -0.31783103111E+02 -0.23896608405E+02  0.98857917401E+02  0.88370585643E+02 0.  0.
         23    2    1    2    0    0  0.19552848623E+02  0.31783103111E+02  0.56630011005E+02  0.11354831561E+03  0.91070205332E+02 0.  0.
          5    1    4    4  502    0 -0.22052184439E+02  0.25682946468E+02  0.62101399472E+02  0.70884316983E+02  0.47000000000E+01 0. -1.
         -5    1    3    3    0  503  0.19204271995E+02  0.56993103655E+01 -0.37748283069E+02  0.42991965251E+02  0.47000000000E+01 0.  1.
          5    1    3    3  503    0 -0.38757120618E+02 -0.37482413476E+02  0.13851674664E+02  0.55865952150E+02  0.47000000000E+01 0. -1.
         -5    1    4    4    0  502  0.41605033062E+02  0.61001566429E+01 -0.54713884671E+01  0.42663998628E+02  0.47000000000E+01 0.  1.
<mgrwt>
<rscale>  0 0.97789654E+02</rscale>
<asrwt>0</asrwt>
<pdfrwt beam="1">  1        2 0.18856895E-01 0.98418808E+02</pdfrwt>
<pdfrwt beam="2">  1       -2 0.13820987E-01 0.98418808E+02</pdfrwt>
<totfact> 0.10641051E+04</totfact>
</mgrwt>
</event>
<event>
 8    1  0.5224537E-004  0.9752881E+02  0.7546771E-02  0.1286924E+00
         -1   -1    0    0    0  501 -0.00000000000E+00  0.00000000000E+00  0.50769485675E+02  0.50769485675E+02  0.00000000000E+00 0.  1.
          1   -1    0    0  501    0  0.00000000000E+00 -0.00000000000E+00 -0.19376458583E+03  0.19376458583E+03  0.00000000000E+00 0. -1.
         23    2    1    2    0    0  0.28370173246E+02 -0.36446837265E+01 -0.10156557413E+03  0.14080992494E+03  0.93240112953E+02 0.  0.
         23    2    1    2    0    0 -0.28370173246E+02  0.36446837265E+01 -0.41429526020E+02  0.10372414656E+03  0.90687058085E+02 0.  0.
          5    1    3    3  502    0  0.58650513268E+02 -0.87461214534E+01 -0.39503118975E+02  0.71407028756E+02  0.47000000000E+01 0. -1.
         -5    1    3    3    0  502 -0.30280340021E+02  0.51014377270E+01 -0.62062455155E+02  0.69402896183E+02  0.47000000000E+01 0.  1.
          5    1    4    4  503    0 -0.25803967048E+02 -0.26824505430E+02 -0.57658554963E+02  0.68789517859E+02  0.47000000000E+01 0. -1.
         -5    1    4    4    0  503 -0.25662061989E+01  0.30469189156E+02  0.16229028943E+02  0.34934628702E+02  0.47000000000E+01 0.  1.
<mgrwt>
<rscale>  0 0.96913554E+02</rscale>
<asrwt>0</asrwt>
<pdfrwt beam="1">  1        1 0.29809936E-01 0.97528812E+02</pdfrwt>
<pdfrwt beam="2">  1       -1 0.78106902E-02 0.97528812E+02</pdfrwt>
<totfact> 0.12419881E+04</totfact>
</mgrwt>
</event>
<event>
 8    1  0.5224537E-004  0.9595349E+02  0.7546771E-02  0.1290244E+00
          2   -1    0    0  501    0  0.00000000000E+00  0.00000000000E+00  0.89987656509E+03  0.89987656509E+03  0.00000000000E+00 0. -1.
         -2   -1    0    0    0  501 -0.00000000000E+00 -0.00000000000E+00 -0.10728363209E+02  0.10728363209E+02  0.00000000000E+00 0.  1.
         23    2    1    2    0    0  0.50936661983E+00  0.27679513907E+02  0.33102316981E+03  0.34464969305E+03  0.91873048432E+02 0.  0.
         23    2    1    2    0    0 -0.50936661983E+00 -0.27679513907E+02  0.55812503208E+03  0.56595523525E+03  0.89640180336E+02 0.  0.
          5    1    4    4  502    0  0.39111657827E+02 -0.35284895150E+02  0.29244361170E+03  0.29718698092E+03  0.47000000000E+01 0. -1.
         -5    1    4    4    0  502 -0.39621024447E+02  0.76053812437E+01  0.26568142038E+03  0.26876825433E+03  0.47000000000E+01 0.  1.
          5    1    3    3  503    0  0.33847864959E+01 -0.32740418958E+02  0.85391875714E+02  0.91636533387E+02  0.47000000000E+01 0. -1.
         -5    1    3    3    0  503 -0.28754198761E+01  0.60419932865E+02  0.24563129409E+03  0.25301315967E+03  0.47000000000E+01 0.  1.
<mgrwt>
<rscale>  0 0.95415048E+02</rscale>
<asrwt>0</asrwt>
<pdfrwt beam="1">  1        2 0.13844249E+00 0.95953489E+02</pdfrwt>
<pdfrwt beam="2">  1       -2 0.16505181E-02 0.95953489E+02</pdfrwt>
<totfact> 0.28550545E+04</totfact>
</mgrwt>
</event>
<event>
 8    1  0.5224537E-004  0.9967843E+02  0.7546771E-02  0.1286382E+00
         -2   -1    0    0    0  501 -0.00000000000E+00  0.00000000000E+00  0.14013361710E+02  0.14013361710E+02  0.00000000000E+00 0.  1.
          2   -1    0    0  501    0  0.00000000000E+00 -0.00000000000E+00 -0.72587976161E+03  0.72587976161E+03  0.00000000000E+00 0. -1.
         23    2    1    2    0    0 -0.42301723182E+02  0.11989583549E+02 -0.21403680724E+03  0.23218248500E+03  0.78509652848E+02 0.  0.
         23    2    1    2    0    0  0.42301723182E+02 -0.11989583549E+02 -0.49782959266E+03  0.50771063832E+03  0.89457269331E+02 0.  0.
          5    1    4    4  502    0  0.49716127313E+02 -0.43918112019E+02 -0.34071425535E+03  0.34714375650E+03  0.47000000000E+01 0. -1.
         -5    1    3    3    0  503 -0.61361705398E+02  0.24893876668E+02 -0.15304391421E+03  0.16682174217E+03  0.47000000000E+01 0.  1.
          5    1    3    3  503    0  0.19059982216E+02 -0.12904293119E+02 -0.60992893031E+02  0.65360742830E+02  0.47000000000E+01 0. -1.
         -5    1    4    4    0  502 -0.74144041315E+01  0.31928528470E+02 -0.15711533731E+03  0.16056688182E+03  0.47000000000E+01 0.  1.
<mgrwt>
<rscale>  0 0.97160799E+02</rscale>
<asrwt>0</asrwt>
<pdfrwt beam="1">  1        2 0.11167381E+00 0.99678428E+02</pdfrwt>
<pdfrwt beam="2">  1       -2 0.21559019E-02 0.99678428E+02</pdfrwt>
<totfact> 0.25436771E+04</totfact>
</mgrwt>
</event>
<event>
 8    1  0.5224537E-004  0.9129841E+02  0.7546771E-02  0.1301568E+00
          3   -1    0    0  501    0  0.00000000000E+00  0.00000000000E+00  0.81852948452E+03  0.81852948452E+03  0.00000000000E+00 0. -1.
         -3   -1    0    0    0  501 -0.00000000000E+00 -0.00000000000E+00 -0.10118154422E+02  0.10118154422E+02  0.00000000000E+00 0.  1.
         23    2    1    2    0    0 -0.15145085046E+02 -0.56227647387E+01  0.34321750821E+03  0.35515300529E+03  0.89857721637E+02 0.  0.
         23    2    1    2    0    0  0.15145085046E+02  0.56227647387E+01  0.46519382189E+03  0.47349463366E+03  0.86780683870E+02 0.  0.
          5    1    3    3  502    0 -0.43124424383E+02 -0.56207407836E+01  0.30177861799E+03  0.30493234165E+03  0.47000000000E+01 0. -1.
         -5    1    3    3    0  502  0.27979339337E+02 -0.20239550912E-02  0.41438890218E+02  0.50220663639E+02  0.47000000000E+01 0.  1.
          5    1    4    4  503    0 -0.31793893772E+02  0.20792720638E+02  0.22644792309E+03  0.22966049026E+03  0.47000000000E+01 0. -1.
         -5    1    4    4    0  503  0.46938978818E+02 -0.15169955899E+02  0.23874589880E+03  0.24383414340E+03  0.47000000000E+01 0.  1.
<mgrwt>
<rscale>  0 0.90532113E+02</rscale>
<asrwt>0</asrwt>
<pdfrwt beam="1">  1        3 0.12592756E+00 0.91298408E+02</pdfrwt>
<pdfrwt beam="2">  1       -3 0.15566398E-02 0.91298408E+02</pdfrwt>
<totfact> 0.15827395E+03</totfact>
</mgrwt>
</event>
<event>
 8    1  0.5224537E-004  0.1555864E+03  0.7546771E-02  0.1194004E+00
         -1   -1    0    0    0  501 -0.00000000000E+00  0.00000000000E+00  0.36852363674E+03  0.36852363674E+03  0.00000000000E+00 0.  1.
          1   -1    0    0  501    0  0.00000000000E+00 -0.00000000000E+00 -0.17509470352E+03  0.17509470352E+03  0.00000000000E+00 0. -1.
         23    2    1    2    0    0 -0.10332284422E+03 -0.70552977785E+02  0.31199171039E+03  0.34863441456E+03  0.92486727999E+02 0.  0.
         23    2    1    2    0    0  0.10332284422E+03  0.70552977785E+02 -0.11856277716E+03  0.19498392569E+03  0.91149691917E+02 0.  0.
          5    1    3    3  502    0 -0.33125132715E+01 -0.35471077937E+02  0.28252658878E+02  0.45710751994E+02  0.47000000000E+01 0. -1.
         -5    1    4    4    0  503  0.32669096890E+02  0.26663880940E+02  0.82790402217E+01  0.43230370637E+02  0.47000000000E+01 0.  1.
          5    1    4    4  503    0  0.70653747333E+02  0.43889096845E+02 -0.12684181739E+03  0.15175355505E+03  0.47000000000E+01 0. -1.
         -5    1    3    3    0  502 -0.10001033095E+03 -0.35081899849E+02  0.28373905151E+03  0.30292366257E+03  0.47000000000E+01 0.  1.
<mgrwt>
<rscale>  0 0.15538826E+03</rscale>
<asrwt>0</asrwt>
<pdfrwt beam="1">  1        1 0.26937647E-01 0.15558640E+03</pdfrwt>
<pdfrwt beam="2">  1       -1 0.56695944E-01 0.15558640E+03</pdfrwt>
<totfact> 0.56486299E+02</totfact>
</mgrwt>
</event>
<event>
 8    1  0.5224537E-004  0.1592508E+03  0.7546771E-02  0.1189594E+00
          1   -1    0    0  501    0  0.00000000000E+00  0.00000000000E+00  0.34737201849E+03  0.34737201849E+03  0.00000000000E+00 0. -1.
         -1   -1    0    0    0  501 -0.00000000000E+00 -0.00000000000E+00 -0.73000940321E+02  0.73000940321E+02  0.00000000000E+00 0.  1.
         23    2    1    2    0    0  0.78414752986E+02  0.10596302800E+03  0.14369952463E+03  0.21437324403E+03  0.89046603456E+02 0.  0.
         23    2    1    2    0    0 -0.78414752986E+02 -0.10596302800E+03  0.13067155354E+03  0.20599971478E+03  0.89352060965E+02 0.  0.
          5    1    3    3  502    0  0.40831239218E+01  0.59951149713E+02  0.99425554820E+02  0.11626841017E+03  0.47000000000E+01 0. -1.
         -5    1    4    4    0  503 -0.45266890375E+02  0.24520969834E+01  0.32760481197E+02  0.56128809644E+02  0.47000000000E+01 0.  1.
          5    1    4    4  503    0 -0.33147862611E+02 -0.10841512498E+03  0.97911072342E+02  0.14987090514E+03  0.47000000000E+01 0. -1.
         -5    1    3    3    0  502  0.74331629065E+02  0.46011878284E+02  0.44273969811E+02  0.98104833854E+02  0.47000000000E+01 0.  1.
<mgrwt>
<rscale>  0 0.15920802E+03</rscale>
<asrwt>0</asrwt>
<pdfrwt beam="1">  1        1 0.53441848E-01 0.15925083E+03</pdfrwt>
<pdfrwt beam="2">  1       -1 0.11230914E-01 0.15925083E+03</pdfrwt>
<totfact> 0.35984276E+03</totfact>
</mgrwt>
</event>
<event>
 8    1  0.5224537E-004  0.9438469E+02  0.7546771E-02  0.1313910E+00
         -2   -1    0    0    0  501 -0.00000000000E+00  0.00000000000E+00  0.55289706181E+02  0.55289706181E+02  0.00000000000E+00 0.  1.
          2   -1    0    0  501    0  0.00000000000E+00 -0.00000000000E+00 -0.37948410585E+03  0.37948410585E+03  0.00000000000E+00 0. -1.
         23    2    1    2    0    0  0.92916021798E+01  0.16807192624E+02  0.28342523494E+02  0.69820730148E+02  0.60850802175E+02 0.  0.
         23    2    1    2    0    0 -0.92916021798E+01 -0.16807192624E+02 -0.35253692317E+03  0.36495308189E+03  0.92410249362E+02 0.  0.
          5    1    4    4  502    0 -0.48590173583E+02 -0.18157370750E+01 -0.23512576651E+03  0.24014686746E+03  0.47000000000E+01 0. -1.
         -5    1    4    4    0  502  0.39298571404E+02 -0.14991455549E+02 -0.11741115665E+03  0.12480621443E+03  0.47000000000E+01 0.  1.
          5    1    3    3  503    0  0.22495671307E+02 -0.10050891945E+02  0.30451861119E+02  0.39452268655E+02  0.47000000000E+01 0. -1.
         -5    1    3    3    0  503 -0.13204069127E+02  0.26858084569E+02 -0.21093376247E+01  0.30368461493E+02  0.47000000000E+01 0.  1.
<mgrwt>
<rscale>  0 0.85584926E+02</rscale>
<asrwt>0</asrwt>
<pdfrwt beam="1">  1        2 0.58382172E-01 0.94384690E+02</pdfrwt>
<pdfrwt beam="2">  1       -2 0.85061084E-02 0.94384690E+02</pdfrwt>
<totfact> 0.67665732E+03</totfact>
</mgrwt>
</event>
<event>
 8    1  0.5224537E-004  0.1037625E+03  0.7546771E-02  0.1277356E+00
         -1   -1    0    0    0  501 -0.00000000000E+00  0.00000000000E+00  0.14067334187E+02  0.14067334187E+02  0.00000000000E+00 0.  1.
          1   -1    0    0  501    0  0.00000000000E+00 -0.00000000000E+00 -0.87076172708E+03  0.87076172708E+03  0.00000000000E+00 0. -1.
         23    2    1    2    0    0 -0.25714897431E+02 -0.41524182124E+02 -0.60845656766E+03  0.61577764124E+03  0.81099907995E+02 0.  0.
         23    2    1    2    0    0  0.25714897431E+02  0.41524182124E+02 -0.24823782524E+03  0.26905142003E+03  0.91548539526E+02 0.  0.
          5    1    4    4  502    0 -0.22830413808E+02  0.87901310857E+01 -0.16250453048E+02  0.29743258453E+02  0.47000000000E+01 0. -1.
         -5    1    3    3    0  503  0.77842829186E+01  0.20976736016E+02 -0.11744706046E+03  0.11965166328E+03  0.47000000000E+01 0.  1.
          5    1    3    3  503    0 -0.33499180349E+02 -0.62500918140E+02 -0.49100950720E+03  0.49612597796E+03  0.47000000000E+01 0. -1.
         -5    1    4    4    0  502  0.48545311239E+02  0.32734051038E+02 -0.23198737219E+03  0.23930816157E+03  0.47000000000E+01 0.  1.
<mgrwt>
<rscale>  0 0.10141101E+03</rscale>
<asrwt>0</asrwt>
<pdfrwt beam="1">  1        1 0.13396337E+00 0.10376246E+03</pdfrwt>
<pdfrwt beam="2">  1       -1 0.21642048E-02 0.10376246E+03</pdfrwt>
<totfact> 0.11588785E+04</totfact>
</mgrwt>
</event>
<event>
 8    1  0.5224537E-004  0.1020560E+03  0.7546771E-02  0.1283287E+00
          2   -1    0    0  501    0  0.00000000000E+00  0.00000000000E+00  0.86292447942E+03  0.86292447942E+03  0.00000000000E+00 0. -1.
         -2   -1    0    0    0  501 -0.00000000000E+00 -0.00000000000E+00 -0.12569477024E+02  0.12569477024E+02  0.00000000000E+00 0.  1.
         23    2    1    2    0    0  0.12280471992E+01 -0.46348349779E+02  0.22597446158E+03  0.24282778971E+03  0.75836670187E+02 0.  0.
         23    2    1    2    0    0 -0.12280471992E+01  0.46348349779E+02  0.62438054082E+03  0.63266616673E+03  0.90916121473E+02 0.  0.
          5    1    4    4  502    0  0.18164356880E+02  0.62752658845E+02  0.55085125251E+03  0.55473149581E+03  0.47000000000E+01 0. -1.
         -5    1    4    4    0  502 -0.19392404079E+02 -0.16404309066E+02  0.73529288304E+02  0.77934670914E+02  0.47000000000E+01 0.  1.
          5    1    3    3  503    0  0.25294097703E+02  0.84372774332E+01  0.94458928535E+02  0.98262699989E+02  0.47000000000E+01 0. -1.
         -5    1    3    3    0  503 -0.24066050504E+02 -0.54785627212E+02  0.13151553304E+03  0.14456508972E+03  0.47000000000E+01 0.  1.
<mgrwt>
<rscale>  0 0.98591210E+02</rscale>
<asrwt>0</asrwt>
<pdfrwt beam="1">  1        2 0.13275757E+00 0.10205596E+03</pdfrwt>
<pdfrwt beam="2">  1       -2 0.19337664E-02 0.10205596E+03</pdfrwt>
<totfact> 0.24131756E+04</totfact>
</mgrwt>
</event>
<event>
 8    1  0.5224537E-004  0.1354187E+03  0.7546771E-02  0.1220373E+00
          1   -1    0    0  501    0  0.00000000000E+00  0.00000000000E+00  0.58500063318E+02  0.58500063318E+02  0.00000000000E+00 0. -1.
         -1   -1    0    0    0  501 -0.00000000000E+00 -0.00000000000E+00 -0.34179217040E+03  0.34179217040E+03  0.00000000000E+00 0.  1.
         23    2    1    2    0    0  0.33266474554E+02 -0.91074084520E+02 -0.78314235767E+02  0.15462143445E+03  0.91506946557E+02 0.  0.
         23    2    1    2    0    0 -0.33266474554E+02  0.91074084520E+02 -0.20497787132E+03  0.24567079927E+03  0.94536060222E+02 0.  0.
          5    1    3    3  502    0  0.64529656646E+02 -0.66681288770E+02 -0.60670798079E+02  0.11096624081E+03  0.47000000000E+01 0. -1.
         -5    1    3    3    0  502 -0.31263182092E+02 -0.24392795749E+02 -0.17643437687E+02  0.43655193648E+02  0.47000000000E+01 0.  1.
          5    1    4    4  503    0 -0.20459332077E+02  0.13682390422E+01  0.50797624501E+00  0.21042917739E+02  0.47000000000E+01 0. -1.
         -5    1    4    4    0  503 -0.12807142477E+02  0.89705845477E+02 -0.20548584757E+03  0.22462788153E+03  0.47000000000E+01 0.  1.
<mgrwt>
<rscale>  0 0.13489134E+03</rscale>
<asrwt>0</asrwt>
<pdfrwt beam="1">  1        1 0.90000097E-02 0.13541866E+03</pdfrwt>
<pdfrwt beam="2">  1       -1 0.52583411E-01 0.13541866E+03</pdfrwt>
<totfact> 0.26744875E+03</totfact>
</mgrwt>
</event>
<event>
 8    1  0.5224537E-004  0.9319605E+02  0.7546771E-02  0.1296465E+00
          2   -1    0    0  501    0  0.00000000000E+00  0.00000000000E+00  0.65544316205E+03  0.65544316205E+03  0.00000000000E+00 0. -1.
         -2   -1    0    0    0  501 -0.00000000000E+00 -0.00000000000E+00 -0.12979938322E+02  0.12979938322E+02  0.00000000000E+00 0.  1.
         23    2    1    2    0    0 -0.89475154678E+01  0.71851663068E+01  0.33514020096E+03  0.34785694990E+03  0.92486856606E+02 0.  0.
         23    2    1    2    0    0  0.89475154678E+01 -0.71851663068E+01  0.30732302276E+03  0.32056615047E+03  0.90462875580E+02 0.  0.
          5    1    3    3  502    0  0.69188274906E+01  0.34880167631E+02  0.29089755222E+03  0.29310061780E+03  0.47000000000E+01 0. -1.
         -5    1    4    4    0  503  0.43368875249E+02 -0.12869209126E+02  0.94779998691E+02  0.10512760834E+03  0.47000000000E+01 0.  1.
          5    1    4    4  503    0 -0.34421359781E+02  0.56840428190E+01  0.21254302407E+03  0.21543854213E+03  0.47000000000E+01 0. -1.
         -5    1    3    3    0  502 -0.15866342958E+02 -0.27695001325E+02  0.44242648744E+02  0.54756332101E+02  0.47000000000E+01 0.  1.
<mgrwt>
<rscale>  0 0.92689879E+02</rscale>
<asrwt>0</asrwt>
<pdfrwt beam="1">  1        2 0.10083738E+00 0.93196048E+02</pdfrwt>
<pdfrwt beam="2">  1       -2 0.19969141E-02 0.93196048E+02</pdfrwt>
<totfact> 0.31773406E+04</totfact>
</mgrwt>
</event>
<event>
 8    1  0.5224537E-004  0.1225130E+03  0.7546771E-02  0.1240980E+00
          2   -1    0    0  501    0  0.00000000000E+00  0.00000000000E+00  0.59230736624E+02  0.59230736624E+02  0.00000000000E+00 0. -1.
         -2   -1    0    0    0  501 -0.00000000000E+00 -0.00000000000E+00 -0.34503892466E+03  0.34503892466E+03  0.00000000000E+00 0.  1.
         23    2    1    2    0    0  0.47112957453E+02 -0.56327626114E+02 -0.25453298968E+03  0.28248269462E+03  0.98066292381E+02 0.  0.
         23    2    1    2    0    0 -0.47112957453E+02  0.56327626114E+02 -0.31275198357E+02  0.12178696666E+03  0.91986384825E+02 0.  0.
          5    1    3    3  502    0 -0.64205182737E+01 -0.25401832203E+02 -0.73116224334E+01  0.27604817637E+02  0.47000000000E+01 0. -1.
         -5    1    3    3    0  502  0.53533475727E+02 -0.30925793911E+02 -0.24722136725E+03  0.25487787699E+03  0.47000000000E+01 0.  1.
          5    1    4    4  503    0 -0.21130174575E+02  0.78997319378E+02 -0.29074322709E+02  0.86916436808E+02  0.47000000000E+01 0. -1.
         -5    1    4    4    0  503 -0.25982782879E+02 -0.22669693264E+02 -0.22008756472E+01  0.34870529856E+02  0.47000000000E+01 0.  1.
<mgrwt>
<rscale>  0 0.12129229E+03</rscale>
<asrwt>0</asrwt>
<pdfrwt beam="1">  1        2 0.91124210E-02 0.12251298E+03</pdfrwt>
<pdfrwt beam="2">  1       -2 0.53082912E-01 0.12251298E+03</pdfrwt>
<totfact> 0.23470382E+03</totfact>
</mgrwt>
</event>
<event>
 8    1  0.5224537E-004  0.1003218E+03  0.7546771E-02  0.1284519E+00
          1   -1    0    0  501    0  0.00000000000E+00  0.00000000000E+00  0.32785766362E+03  0.32785766362E+03  0.00000000000E+00 0. -1.
         -1   -1    0    0    0  501 -0.00000000000E+00 -0.00000000000E+00 -0.28279323985E+02  0.28279323985E+02  0.00000000000E+00 0.  1.
         23    2    1    2    0    0  0.30372225292E+02 -0.99444074803E+01  0.14013347546E+03  0.17234223343E+03  0.95095169021E+02 0.  0.
         23    2    1    2    0    0 -0.30372225292E+02  0.99444074803E+01  0.15944486417E+03  0.18379475417E+03  0.85653275706E+02 0.  0.
          5    1    3    3  502    0  0.19381304047E+02 -0.48776411356E+02  0.10929098209E+03  0.12133170244E+03  0.47000000000E+01 0. -1.
         -5    1    3    3    0  502  0.10990921245E+02  0.38832003876E+02  0.30842493371E+02  0.51010530993E+02  0.47000000000E+01 0.  1.
          5    1    4    4  503    0 -0.45625982024E+02  0.32576141545E+02  0.13715495601E+03  0.14824475435E+03  0.47000000000E+01 0. -1.
         -5    1    4    4    0  503  0.15253756732E+02 -0.22631734064E+02  0.22289908161E+02  0.35549999817E+02  0.47000000000E+01 0.  1.
<mgrwt>
<rscale>  0 0.98018520E+02</rscale>
<asrwt>0</asrwt>
<pdfrwt beam="1">  1        1 0.50439638E-01 0.10032175E+03</pdfrwt>
<pdfrwt beam="2">  1       -1 0.43506655E-02 0.10032175E+03</pdfrwt>
<totfact> 0.15501460E+04</totfact>
</mgrwt>
</event>
<event>
 8    1  0.5224537E-004  0.1135862E+03  0.7546771E-02  0.1255382E+00
         -2   -1    0    0    0  501 -0.00000000000E+00  0.00000000000E+00  0.57494495429E+02  0.57494495429E+02  0.00000000000E+00 0.  1.
          2   -1    0    0  501    0  0.00000000000E+00 -0.00000000000E+00 -0.26468120490E+03  0.26468120490E+03  0.00000000000E+00 0. -1.
         23    2    1    2    0    0 -0.45969195673E+02  0.42901950699E+02 -0.37551672514E+02  0.11963255340E+03  0.94594267269E+02 0.  0.
         23    2    1    2    0    0  0.45969195673E+02 -0.42901950699E+02 -0.16963503696E+03  0.20254314693E+03  0.91071050723E+02 0.  0.
          5    1    4    4  502    0  0.16949592741E+02 -0.46881874695E+02 -0.16510789153E+03  0.17253377847E+03  0.47000000000E+01 0. -1.
         -5    1    4    4    0  502  0.29019602932E+02  0.39799239964E+01 -0.45271454278E+01  0.30009368455E+02  0.47000000000E+01 0.  1.
          5    1    3    3  503    0 -0.65166787714E+02  0.33303025199E+02 -0.54924479364E+02  0.91621995949E+02  0.47000000000E+01 0. -1.
         -5    1    3    3    0  503  0.19197592041E+02  0.95989254996E+01  0.17372806849E+02  0.28010557452E+02  0.47000000000E+01 0.  1.
<mgrwt>
<rscale>  0 0.11284981E+03</rscale>
<asrwt>0</asrwt>
<pdfrwt beam="1">  1        2 0.40720185E-01 0.11358618E+03</pdfrwt>
<pdfrwt beam="2">  1       -2 0.88453071E-02 0.11358618E+03</pdfrwt>
<totfact> 0.94344872E+03</totfact>
</mgrwt>
</event>
<event>
 8    1  0.5224537E-004  0.9661362E+02  0.7546771E-02  0.1291284E+00
         -1   -1    0    0    0  501 -0.00000000000E+00  0.00000000000E+00  0.19222611084E+03  0.19222611084E+03  0.00000000000E+00 0.  1.
          1   -1    0    0  501    0  0.00000000000E+00 -0.00000000000E+00 -0.84961454093E+02  0.84961454093E+02  0.00000000000E+00 0. -1.
         23    2    1    2    0    0 -0.27032987041E+02 -0.14332185816E+02  0.14921917774E+03  0.17776545090E+03  0.91640594670E+02 0.  0.
         23    2    1    2    0    0  0.27032987041E+02  0.14332185816E+02 -0.41954520994E+02  0.99422114027E+02  0.84784320409E+02 0.  0.
          5    1    4    4  502    0  0.46769844141E+02 -0.13587818024E+02 -0.42639754060E+02  0.64902124356E+02  0.47000000000E+01 0. -1.
         -5    1    3    3    0  503 -0.44562866109E+02 -0.98615310282E-01  0.14803717201E+03  0.15467046602E+03  0.47000000000E+01 0.  1.
          5    1    3    3  503    0  0.17529879068E+02 -0.14233570505E+02  0.11820057291E+01  0.23094984889E+02  0.47000000000E+01 0. -1.
         -5    1    4    4    0  502 -0.19736857100E+02  0.27920003839E+02  0.68523306588E+00  0.34519989671E+02  0.47000000000E+01 0.  1.
<mgrwt>
<rscale>  0 0.94951945E+02</rscale>
<asrwt>0</asrwt>
<pdfrwt beam="1">  1        1 0.13070993E-01 0.96613625E+02</pdfrwt>
<pdfrwt beam="2">  1       -1 0.29573248E-01 0.96613625E+02</pdfrwt>
<totfact> 0.43824452E+03</totfact>
</mgrwt>
</event>
<event>
 8    1  0.5224537E-004  0.2403075E+03  0.7546771E-02  0.1119811E+00
          1   -1    0    0  501    0  0.00000000000E+00  0.00000000000E+00  0.23718325355E+03  0.23718325355E+03  0.00000000000E+00 0. -1.
         -1   -1    0    0    0  501 -0.00000000000E+00 -0.00000000000E+00 -0.35686700936E+03  0.35686700936E+03  0.00000000000E+00 0.  1.
         23    2    1    2    0    0 -0.41235788626E+02  0.21849628132E+03  0.10847197950E+03  0.26365486613E+03  0.91141115214E+02 0.  0.
         23    2    1    2    0    0  0.41235788626E+02 -0.21849628132E+03 -0.22815573530E+03  0.33039539679E+03  0.87550348099E+02 0.  0.
          5    1    4    4  502    0 -0.14246218887E+02 -0.41974178233E+02 -0.12695734358E+02  0.46347147288E+02  0.47000000000E+01 0. -1.
         -5    1    3    3    0  503 -0.11706489361E+02  0.41225437055E+02  0.66160975097E+02  0.78967988320E+02  0.47000000000E+01 0.  1.
          5    1    3    3  503    0 -0.29529299265E+02  0.17727084426E+03  0.42311004404E+02  0.18468687781E+03  0.47000000000E+01 0. -1.
         -5    1    4    4    0  502  0.55482007513E+02 -0.17652210308E+03 -0.21546000095E+03  0.28404824950E+03  0.47000000000E+01 0.  1.
<mgrwt>
<rscale>  0 0.23997216E+03</rscale>
<asrwt>0</asrwt>
<pdfrwt beam="1">  1        1 0.36489731E-01 0.24030755E+03</pdfrwt>
<pdfrwt beam="2">  1       -1 0.54902617E-01 0.24030755E+03</pdfrwt>
<totfact> 0.40940019E+02</totfact>
</mgrwt>
</event>
<event>
 8    1  0.5224537E-004  0.9516287E+02  0.7546771E-02  0.1291562E+00
         -1   -1    0    0    0  501 -0.00000000000E+00  0.00000000000E+00  0.13361846945E+02  0.13361846945E+02  0.00000000000E+00 0.  1.
          1   -1    0    0  501    0  0.00000000000E+00 -0.00000000000E+00 -0.75337022138E+03  0.75337022138E+03  0.00000000000E+00 0. -1.
         23    2    1    2    0    0 -0.15485240416E+02 -0.13959001430E+02 -0.50112182877E+03  0.51007750255E+03  0.92851090160E+02 0.  0.
         23    2    1    2    0    0  0.15485240416E+02  0.13959001430E+02 -0.23888654567E+03  0.25665456578E+03  0.91488458523E+02 0.  0.
          5    1    4    4  502    0  0.49272216048E+02  0.45107916907E+01 -0.18939552622E+03  0.19580820684E+03  0.47000000000E+01 0. -1.
         -5    1    3    3    0  503  0.29016422918E+02 -0.34299991977E+02 -0.20647765260E+03  0.21136119150E+03  0.47000000000E+01 0.  1.
          5    1    3    3  503    0 -0.44501663334E+02  0.20340990547E+02 -0.29464417616E+03  0.29871631104E+03  0.47000000000E+01 0. -1.
         -5    1    4    4    0  502 -0.33786975632E+02  0.94482097388E+01 -0.49491019448E+02  0.60846358934E+02  0.47000000000E+01 0.  1.
<mgrwt>
<rscale>  0 0.94828849E+02</rscale>
<asrwt>0</asrwt>
<pdfrwt beam="1">  1        1 0.11590316E+00 0.95162867E+02</pdfrwt>
<pdfrwt beam="2">  1       -1 0.20556678E-02 0.95162867E+02</pdfrwt>
<totfact> 0.15389878E+04</totfact>
</mgrwt>
</event>
<event>
 7    1  0.5224537E-004  0.2146699E+03  0.7546771E-02  0.1150664E+00
         -1   -1    0    0    0  501 -0.00000000000E+00  0.00000000000E+00  0.92781664264E+03  0.92781664264E+03  0.00000000000E+00 0.  1.
          1   -1    0    0  501    0  0.00000000000E+00 -0.00000000000E+00 -0.37646142327E+02  0.37646142327E+02  0.00000000000E+00 0. -1.
         23    2    1    2    0    0  0.41016634942E+02 -0.12185234443E+03  0.41085110952E+03  0.44026736240E+03  0.92229919290E+02 0.  0.
          5    1    3    3  502    0  0.33434388617E+02 -0.42802662373E+02  0.62441460180E+02  0.82891206999E+02  0.47000000000E+01 0. -1.
         -5    1    1    2    0  503 -0.97539939560E+02  0.12183735422E+03  0.37987309077E+03  0.41071162120E+03  0.47000000000E+01 0.  1.
          5    1    1    2  503    0  0.56523304618E+02  0.14990207996E-01  0.99446300015E+02  0.11448380137E+03  0.47000000000E+01 0. -1.
         -5    1    3    3    0  502  0.75822463249E+01 -0.79049682055E+02  0.34840964934E+03  0.35737615540E+03  0.47000000000E+01 0.  1.
<mgrwt>
<rscale>  0 0.19890719E+03</rscale>
<asrwt>0</asrwt>
<pdfrwt beam="1">  1        1 0.57917149E-02 0.21466987E+03</pdfrwt>
<pdfrwt beam="2">  1       -1 0.14274100E+00 0.21466987E+03</pdfrwt>
<totfact> 0.58265875E+02</totfact>
</mgrwt>
</event>
<event>
 8    1  0.5224537E-004  0.9606303E+02  0.7546771E-02  0.1289991E+00
         -1   -1    0    0    0  501 -0.00000000000E+00  0.00000000000E+00  0.71678456476E+03  0.71678456476E+03  0.00000000000E+00 0.  1.
          1   -1    0    0  501    0  0.00000000000E+00 -0.00000000000E+00 -0.12679402687E+02  0.12679402687E+02  0.00000000000E+00 0. -1.
         23    2    1    2    0    0  0.12782383198E+02  0.15230600146E+02  0.32561102802E+03  0.33948585628E+03  0.93982682159E+02 0.  0.
         23    2    1    2    0    0 -0.12782383198E+02 -0.15230600146E+02  0.37849413405E+03  0.38997811116E+03  0.91813709082E+02 0.  0.
          5    1    3    3  502    0 -0.31743958386E+02  0.12023667638E+02  0.24355712267E+03  0.24595611291E+03  0.47000000000E+01 0.  1.
         -5    1    3    3    0  502  0.44526341583E+02  0.32069325083E+01  0.82053905355E+02  0.93529743370E+02  0.47000000000E+01 0. -1.
          5    1    4    4  503    0 -0.11535013240E+02 -0.43639005597E+02  0.97892633252E+02  0.10790031040E+03  0.47000000000E+01 0. -1.
         -5    1    4    4    0  503 -0.12473699577E+01  0.28408405451E+02  0.28060150080E+03  0.28207780076E+03  0.47000000000E+01 0.  1.
<mgrwt>
<rscale>  0 0.95528347E+02</rscale>
<asrwt>0</asrwt>
<pdfrwt beam="1">  1        1 0.19506779E-02 0.96063026E+02</pdfrwt>
<pdfrwt beam="2">  1       -1 0.11027452E+00 0.96063026E+02</pdfrwt>
<totfact> 0.47008068E+03</totfact>
</mgrwt>
</event>
<event>
 8    1  0.5224537E-004  0.1111731E+03  0.7546771E-02  0.1259630E+00
          1   -1    0    0  501    0  0.00000000000E+00  0.00000000000E+00  0.63694574105E+03  0.63694574105E+03  0.00000000000E+00 0. -1.
         -1   -1    0    0    0  501 -0.00000000000E+00 -0.00000000000E+00 -0.20001544204E+02  0.20001544204E+02  0.00000000000E+00 0.  1.
         23    2    1    2    0    0  0.15568133914E+01 -0.60609495761E+02  0.23656967418E+03  0.26138987972E+03  0.93185427172E+02 0.  0.
         23    2    1    2    0    0 -0.15568133914E+01  0.60609495761E+02  0.38037452267E+03  0.39555740553E+03  0.90027489857E+02 0.  0.
          5    1    3    3  502    0  0.31103654245E+02 -0.49820029217E+02  0.68572994569E+02  0.90409171010E+02  0.47000000000E+01 0. -1.
         -5    1    3    3    0  502 -0.29546840854E+02 -0.10789466544E+02  0.16799667961E+03  0.17098070871E+03  0.47000000000E+01 0.  1.
          5    1    4    4  503    0 -0.42102687629E+02  0.14901646272E+02  0.20259399506E+03  0.20751171582E+03  0.47000000000E+01 0. -1.
         -5    1    4    4    0  503  0.40545874237E+02  0.45707849490E+02  0.17778052761E+03  0.18804568971E+03  0.47000000000E+01 0.  1.
<mgrwt>
<rscale>  0 0.11050884E+03</rscale>
<asrwt>0</asrwt>
<pdfrwt beam="1">  1        1 0.97991637E-01 0.11117310E+03</pdfrwt>
<pdfrwt beam="2">  1       -1 0.30771611E-02 0.11117310E+03</pdfrwt>
<totfact> 0.11047553E+04</totfact>
</mgrwt>
</event>
<event>
 8    1  0.5224537E-004  0.9233745E+02  0.7546771E-02  0.1298409E+00
          1   -1    0    0  501    0  0.00000000000E+00  0.00000000000E+00  0.15902101219E+02  0.15902101219E+02  0.00000000000E+00 0. -1.
         -1   -1    0    0    0  501 -0.00000000000E+00 -0.00000000000E+00 -0.53042315422E+03  0.53042315422E+03  0.00000000000E+00 0.  1.
         23    2    1    2    0    0  0.16712744359E+02 -0.12818639086E+02 -0.28696502076E+03  0.30145501764E+03  0.89903121115E+02 0.  0.
         23    2    1    2    0    0 -0.16712744359E+02  0.12818639086E+02 -0.22755603224E+03  0.24487023780E+03  0.87954830568E+02 0.  0.
          5    1    4    4  502    0  0.25585513165E+02  0.81001920504E+01 -0.22336822582E+02  0.35231452400E+02  0.47000000000E+01 0. -1.
         -5    1    4    4    0  502 -0.42298257524E+02  0.47184470353E+01 -0.20521920966E+03  0.20963878540E+03  0.47000000000E+01 0.  1.
          5    1    3    3  503    0 -0.61906593589E+01  0.36536536685E+02 -0.10352551455E+03  0.11005846146E+03  0.47000000000E+01 0. -1.
         -5    1    3    3    0  503  0.22903403718E+02 -0.49355175771E+02 -0.18343950621E+03  0.19139655617E+03  0.47000000000E+01 0.  1.
<mgrwt>
<rscale>  0 0.91859797E+02</rscale>
<asrwt>0</asrwt>
<pdfrwt beam="1">  1        1 0.24464768E-02 0.92337449E+02</pdfrwt>
<pdfrwt beam="2">  1       -1 0.81603571E-01 0.92337449E+02</pdfrwt>
<totfact> 0.65360286E+03</totfact>
</mgrwt>
</event>
<event>
 8    1  0.5224537E-004  0.9930135E+02  0.7546771E-02  0.1283161E+00
          1   -1    0    0  501    0  0.00000000000E+00  0.00000000000E+00  0.12891307847E+03  0.12891307847E+03  0.00000000000E+00 0. -1.
         -1   -1    0    0    0  501 -0.00000000000E+00 -0.00000000000E+00 -0.86104211310E+02  0.86104211310E+02  0.00000000000E+00 0.  1.
         23    2    1    2    0    0 -0.81542390675E+00 -0.31161175837E+02  0.61083773517E+02  0.11658466713E+03  0.94281882819E+02 0.  0.
         23    2    1    2    0    0  0.81542390675E+00  0.31161175837E+02 -0.18274906358E+02  0.98432622645E+02  0.91560500232E+02 0.  0.
          5    1    3    3  502    0  0.23687285742E+02  0.91544738769E+01  0.64070212064E+02  0.69079475763E+02  0.47000000000E+01 0. -1.
         -5    1    3    3    0  502 -0.24502709648E+02 -0.40315649714E+02 -0.29864385474E+01  0.47505191371E+02  0.47000000000E+01 0.  1.
          5    1    4    4  503    0  0.15706704664E+01  0.59682894940E+02  0.66504829281E+01  0.60256401132E+02  0.47000000000E+01 0. -1.
         -5    1    4    4    0  503 -0.75524655967E+00 -0.28521719103E+02 -0.24925389286E+02  0.38176221513E+02  0.47000000000E+01 0.  1.
<mgrwt>
<rscale>  0 0.98649952E+02</rscale>
<asrwt>0</asrwt>
<pdfrwt beam="1">  1        1 0.19832781E-01 0.99301346E+02</pdfrwt>
<pdfrwt beam="2">  1       -1 0.13246802E-01 0.99301346E+02</pdfrwt>
<totfact> 0.92782870E+03</totfact>
</mgrwt>
</event>
<event>
 8    1  0.5224537E-004  0.1671515E+03  0.7546771E-02  0.1180909E+00
         -1   -1    0    0    0  501 -0.00000000000E+00  0.00000000000E+00  0.46810538373E+02  0.46810538373E+02  0.00000000000E+00 0.  1.
          1   -1    0    0  501    0  0.00000000000E+00 -0.00000000000E+00 -0.13665119275E+04  0.13665119275E+04  0.00000000000E+00 0. -1.
         23    2    1    2    0    0 -0.94022546126E+02 -0.10554102764E+03 -0.12906613971E+03  0.21101139260E+03  0.88817744240E+02 0.  0.
         23    2    1    2    0    0  0.94022546126E+02  0.10554102764E+03 -0.11906352494E+04  0.12023110733E+04  0.89221477628E+02 0.  0.
          5    1    3    3  502    0 -0.58658829788E+02 -0.48736989450E+02 -0.12147259453E+03  0.14350551792E+03  0.47000000000E+01 0. -1.
         -5    1    3    3    0  502 -0.35363716338E+02 -0.56804038189E+02 -0.75935451869E+01  0.67505874680E+02  0.47000000000E+01 0.  1.
          5    1    4    4  503    0  0.10466774334E+03  0.65346138568E+02 -0.96020070481E+03  0.96810791642E+03  0.47000000000E+01 0. -1.
         -5    1    4    4    0  503 -0.10645197219E+02  0.40194889071E+02 -0.23043454458E+03  0.23420315683E+03  0.47000000000E+01 0.  1.
<mgrwt>
<rscale>  0 0.16709767E+03</rscale>
<asrwt>0</asrwt>
<pdfrwt beam="1">  1        1 0.21023262E+00 0.16715149E+03</pdfrwt>
<pdfrwt beam="2">  1       -1 0.72016208E-02 0.16715149E+03</pdfrwt>
<totfact> 0.89766466E+02</totfact>
</mgrwt>
</event>
<event>
 8    1  0.5224537E-004  0.1108094E+03  0.7546771E-02  0.1259456E+00
         -1   -1    0    0    0  501 -0.00000000000E+00  0.00000000000E+00  0.86376637545E+02  0.86376637545E+02  0.00000000000E+00 0.  1.
          1   -1    0    0  501    0  0.00000000000E+00 -0.00000000000E+00 -0.14892172770E+03  0.14892172770E+03  0.00000000000E+00 0. -1.
         23    2    1    2    0    0 -0.31507253648E+02  0.54033337322E+02 -0.58339586565E+02  0.12522873917E+03  0.91468142968E+02 0.  0.
         23    2    1    2    0    0  0.31507253648E+02 -0.54033337322E+02 -0.42055035921E+01  0.11006962608E+03  0.90472801164E+02 0.  0.
          5    1    3    3  502    0  0.13704099807E+02  0.23399896131E+02 -0.64445141224E+02  0.70075842613E+02  0.47000000000E+01 0. -1.
         -5    1    4    4    0  503 -0.22040437002E+02 -0.50092952581E+02  0.58582805091E+01  0.55240331390E+02  0.47000000000E+01 0.  1.
          5    1    4    4  503    0  0.53547690650E+02 -0.39403847406E+01 -0.10063784101E+02  0.54829294691E+02  0.47000000000E+01 0. -1.
         -5    1    3    3    0  502 -0.45211353456E+02  0.30633441191E+02  0.61055546593E+01  0.55152896553E+02  0.47000000000E+01 0.  1.
<mgrwt>
<rscale>  0 0.11060381E+03</rscale>
<asrwt>0</asrwt>
<pdfrwt beam="1">  1        1 0.22911035E-01 0.11080943E+03</pdfrwt>
<pdfrwt beam="2">  1       -1 0.13288714E-01 0.11080943E+03</pdfrwt>
<totfact> 0.77736643E+03</totfact>
</mgrwt>
</event>
<event>
 8    1  0.5224537E-004  0.9365268E+02  0.7546771E-02  0.1297798E+00
          3   -1    0    0  501    0  0.00000000000E+00  0.00000000000E+00  0.83474236446E+02  0.83474236446E+02  0.00000000000E+00 0. -1.
         -3   -1    0    0    0  501 -0.00000000000E+00 -0.00000000000E+00 -0.98487330375E+02  0.98487330375E+02  0.00000000000E+00 0.  1.
         23    2    1    2    0    0 -0.48681088158E+01 -0.14169861988E+01 -0.85680534248E+01  0.88087380477E+02  0.87522961138E+02 0.  0.
         23    2    1    2    0    0  0.48681088158E+01  0.14169861988E+01 -0.64450405046E+01  0.93874186345E+02  0.93515335542E+02 0.  0.
          5    1    3    3  502    0  0.38467040174E+02  0.69203010373E+01  0.89581935519E+01  0.40372552284E+02  0.47000000000E+01 0. -1.
         -5    1    4    4    0  503 -0.20218149871E+02 -0.25556191249E+02 -0.34231303373E+02  0.47494890525E+02  0.47000000000E+01 0.  1.
          5    1    4    4  503    0  0.25086258687E+02  0.26973177447E+02  0.27786262869E+02  0.46379295820E+02  0.47000000000E+01 0. -1.
         -5    1    3    3    0  502 -0.43335148990E+02 -0.83372872361E+01 -0.17526246977E+02  0.47714828193E+02  0.47000000000E+01 0.  1.
<mgrwt>
<rscale>  0 0.92119702E+02</rscale>
<asrwt>0</asrwt>
<pdfrwt beam="1">  1        3 0.12842190E-01 0.93652679E+02</pdfrwt>
<pdfrwt beam="2">  1       -3 0.15151897E-01 0.93652679E+02</pdfrwt>
<totfact> 0.37360868E+03</totfact>
</mgrwt>
</event>
<event>
 8    1  0.5224537E-004  0.1058658E+03  0.7546771E-02  0.1269467E+00
         -1   -1    0    0    0  501 -0.00000000000E+00  0.00000000000E+00  0.31062633349E+02  0.31062633349E+02  0.00000000000E+00 0.  1.
          1   -1    0    0  501    0  0.00000000000E+00 -0.00000000000E+00 -0.35445200503E+03  0.35445200503E+03  0.00000000000E+00 0. -1.
         23    2    1    2    0    0  0.21706249417E+02 -0.50169745358E+02 -0.15399063784E+03  0.18687079470E+03  0.90660977016E+02 0.  0.
         23    2    1    2    0    0 -0.21706249417E+02  0.50169745358E+02 -0.16939873384E+03  0.19864384368E+03  0.88177553804E+02 0.  0.
          5    1    3    3  502    0  0.40484828905E+02  0.67332938675E+01 -0.37517358100E+02  0.55803232671E+02  0.47000000000E+01 0. -1.
         -5    1    4    4    0  503  0.23602165107E+02  0.21819032192E+02 -0.16156150992E+02  0.36280071368E+02  0.47000000000E+01 0.  1.
          5    1    4    4  503    0 -0.45308414525E+02  0.28350713165E+02 -0.15324258284E+03  0.16236377232E+03  0.47000000000E+01 0. -1.
         -5    1    3    3    0  502 -0.18778579488E+02 -0.56903039225E+02 -0.11647327975E+03  0.13106756203E+03  0.47000000000E+01 0.  1.
<mgrwt>
<rscale>  0 0.10533212E+03</rscale>
<asrwt>0</asrwt>
<pdfrwt beam="1">  1        1 0.54531076E-01 0.10586585E+03</pdfrwt>
<pdfrwt beam="2">  1       -1 0.47788668E-02 0.10586585E+03</pdfrwt>
<totfact> 0.12332368E+04</totfact>
</mgrwt>
</event>
<event>
 8    1  0.5224537E-004  0.1129076E+03  0.7546771E-02  0.1255293E+00
         -1   -1    0    0    0  501 -0.00000000000E+00  0.00000000000E+00  0.98231407692E+02  0.98231407692E+02  0.00000000000E+00 0.  1.
          1   -1    0    0  501    0  0.00000000000E+00 -0.00000000000E+00 -0.14077437791E+03  0.14077437791E+03  0.00000000000E+00 0. -1.
         23    2    1    2    0    0  0.88261775828E+00 -0.67671056142E+02 -0.54729388422E+02  0.12544244387E+03  0.90334655107E+02 0.  0.
         23    2    1    2    0    0 -0.88261775828E+00  0.67671056142E+02  0.12186418206E+02  0.11356334173E+03  0.90376838531E+02 0.  0.
          5    1    3    3  502    0  0.39610555311E+02 -0.94565606563E+01 -0.96400695603E+01  0.42112273420E+02  0.47000000000E+01 0. -1.
         -5    1    3    3    0  502 -0.38727937552E+02 -0.58214495485E+02 -0.45089318862E+02  0.83330170449E+02  0.47000000000E+01 0.  1.
          5    1    4    4  503    0 -0.42788002684E+02  0.50687380828E+02  0.14436065032E+02  0.68047878163E+02  0.47000000000E+01 0. -1.
         -5    1    4    4    0  503  0.41905384926E+02  0.16983675314E+02 -0.22496468259E+01  0.45515463568E+02  0.47000000000E+01 0.  1.
<mgrwt>
<rscale>  0 0.11289915E+03</rscale>
<asrwt>0</asrwt>
<pdfrwt beam="1">  1        1 0.21657596E-01 0.11290759E+03</pdfrwt>
<pdfrwt beam="2">  1       -1 0.15112524E-01 0.11290759E+03</pdfrwt>
<totfact> 0.68421897E+03</totfact>
</mgrwt>
</event>
<event>
 8    1  0.5224537E-004  0.1063641E+03  0.7546771E-02  0.1269533E+00
         -4   -1    0    0    0  501 -0.00000000000E+00  0.00000000000E+00  0.88587618159E+03  0.88587618159E+03  0.00000000000E+00 0.  1.
          4   -1    0    0  501    0  0.00000000000E+00 -0.00000000000E+00 -0.14420983243E+02  0.14420983243E+02  0.00000000000E+00 0. -1.
         23    2    1    2    0    0 -0.44619052668E+02  0.31260822200E+02  0.60201852058E+03  0.61062588242E+03  0.86426675829E+02 0.  0.
         23    2    1    2    0    0  0.44619052668E+02 -0.31260822200E+02  0.26943667777E+03  0.28967128241E+03  0.91352228562E+02 0.  0.
          5    1    4    4  502    0 -0.22690007440E+02 -0.29423853006E+02  0.11974607537E+03  0.12546637849E+03  0.47000000000E+01 0. -1.
         -5    1    3    3    0  503  0.90601118691E+01  0.40550492241E+02  0.36471190935E+03  0.36710120521E+03  0.47000000000E+01 0.  1.
          5    1    3    3  503    0 -0.53679164537E+02 -0.92896700414E+01  0.23730661123E+03  0.24352467720E+03  0.47000000000E+01 0. -1.
         -5    1    4    4    0  502  0.67309060108E+02 -0.18369691941E+01  0.14969060239E+03  0.16420490393E+03  0.47000000000E+01 0.  1.
<mgrwt>
<rscale>  0 0.10529842E+03</rscale>
<asrwt>0</asrwt>
<pdfrwt beam="1">  1        4 0.22186135E-02 0.10636413E+03</pdfrwt>
<pdfrwt beam="2">  1       -4 0.13628860E+00 0.10636413E+03</pdfrwt>
<totfact> 0.55595027E+02</totfact>
</mgrwt>
</event>
<event>
 8    1  0.5224537E-004  0.1029538E+03  0.7546771E-02  0.1274866E+00
          3   -1    0    0  501    0  0.00000000000E+00  0.00000000000E+00  0.11813033520E+03  0.11813033520E+03  0.00000000000E+00 0. -1.
         -3   -1    0    0    0  501 -0.00000000000E+00 -0.00000000000E+00 -0.94523630620E+02  0.94523630620E+02  0.00000000000E+00 0.  1.
         23    2    1    2    0    0 -0.24437323311E+02  0.30695823378E+02  0.38496629025E+02  0.10991579786E+03  0.95184430609E+02 0.  0.
         23    2    1    2    0    0  0.24437323311E+02 -0.30695823378E+02 -0.14889924443E+02  0.10273816796E+03  0.93776356091E+02 0.  0.
          5    1    3    3  502    0 -0.55190191314E+02  0.41800941641E+02  0.20808785648E+02  0.72445645138E+02  0.47000000000E+01 0. -1.
         -5    1    3    3    0  502  0.30752868002E+02 -0.11105118262E+02  0.17687843376E+02  0.37470152726E+02  0.47000000000E+01 0.  1.
          5    1    4    4  503    0  0.33137746258E+01  0.33154373019E+02  0.21047533017E+00  0.33650079531E+02  0.47000000000E+01 0. -1.
         -5    1    4    4    0  503  0.21123548685E+02 -0.63850196398E+02 -0.15100399773E+02  0.69088088426E+02  0.47000000000E+01 0.  1.
<mgrwt>
<rscale>  0 0.10262718E+03</rscale>
<asrwt>0</asrwt>
<pdfrwt beam="1">  1        3 0.18173898E-01 0.10295384E+03</pdfrwt>
<pdfrwt beam="2">  1       -3 0.14542097E-01 0.10295384E+03</pdfrwt>
<totfact> 0.22624512E+03</totfact>
</mgrwt>
</event>
<event>
 8    1  0.5224537E-004  0.1019682E+03  0.7546771E-02  0.1276824E+00
          2   -1    0    0  501    0  0.00000000000E+00  0.00000000000E+00  0.35505202787E+03  0.35505202787E+03  0.00000000000E+00 0. -1.
         -2   -1    0    0    0  501 -0.00000000000E+00 -0.00000000000E+00 -0.29494853152E+02  0.29494853152E+02  0.00000000000E+00 0.  1.
         23    2    1    2    0    0 -0.43728036349E+02  0.23766208943E+02  0.13743753836E+03  0.17113326689E+03  0.88997439492E+02 0.  0.
         23    2    1    2    0    0  0.43728036349E+02 -0.23766208943E+02  0.18811963636E+03  0.21341361413E+03  0.87632181660E+02 0.  0.
          5    1    4    4  502    0  0.30758043039E+02  0.30780013059E+02  0.69605598538E+02  0.82222233997E+02  0.47000000000E+01 0. -1.
         -5    1    3    3    0  503 -0.53122804900E+01 -0.28021225228E+02  0.14743597545E+02  0.32448005422E+02  0.47000000000E+01 0.  1.
          5    1    3    3  503    0 -0.38415755859E+02  0.51787434171E+02  0.12269394082E+03  0.13868526147E+03  0.47000000000E+01 0. -1.
         -5    1    4    4    0  502  0.12969993310E+02 -0.54546222002E+02  0.11851403782E+03  0.13119138013E+03  0.47000000000E+01 0.  1.
<mgrwt>
<rscale>  0 0.10166956E+03</rscale>
<asrwt>0</asrwt>
<pdfrwt beam="1">  1        2 0.54623386E-01 0.10196822E+03</pdfrwt>
<pdfrwt beam="2">  1       -2 0.45376700E-02 0.10196822E+03</pdfrwt>
<totfact> 0.18838446E+04</totfact>
</mgrwt>
</event>
<event>
 8    1  0.5224537E-004  0.9799822E+02  0.7546771E-02  0.1286397E+00
          1   -1    0    0  501    0  0.00000000000E+00  0.00000000000E+00  0.11650756445E+03  0.11650756445E+03  0.00000000000E+00 0. -1.
         -1   -1    0    0    0  501 -0.00000000000E+00 -0.00000000000E+00 -0.50456993514E+03  0.50456993514E+03  0.00000000000E+00 0.  1.
         23    2    1    2    0    0  0.34481235753E+02  0.44912901044E+01 -0.47847088711E+03  0.48774576904E+03  0.88047817121E+02 0.  0.
         23    2    1    2    0    0 -0.34481235753E+02 -0.44912901044E+01  0.90408516432E+02  0.13333173055E+03  0.91621630750E+02 0.  0.
          5    1    3    3  502    0 -0.94381166390E+01 -0.24108784276E+02 -0.54478168511E+02  0.60500184869E+02  0.47000000000E+01 0. -1.
         -5    1    3    3    0  502  0.43919352392E+02  0.28600074380E+02 -0.42399271860E+03  0.42724558417E+03  0.47000000000E+01 0.  1.
          5    1    4    4  503    0 -0.17007872505E+02  0.14939931368E+02  0.10183447003E+03  0.10442613927E+03  0.47000000000E+01 0. -1.
         -5    1    4    4    0  503 -0.17473363248E+02 -0.19431221473E+02 -0.11425953602E+02  0.28905591273E+02  0.47000000000E+01 0.  1.
<mgrwt>
<rscale>  0 0.97154181E+02</rscale>
<asrwt>0</asrwt>
<pdfrwt beam="1">  1        1 0.17924241E-01 0.97998217E+02</pdfrwt>
<pdfrwt beam="2">  1       -1 0.77626143E-01 0.97998217E+02</pdfrwt>
<totfact> 0.51097686E+02</totfact>
</mgrwt>
</event>
<event>
 8    1  0.5224537E-004  0.1529460E+03  0.7546771E-02  0.1201711E+00
         -1   -1    0    0    0  501 -0.00000000000E+00  0.00000000000E+00  0.13923578073E+03  0.13923578073E+03  0.00000000000E+00 0.  1.
          1   -1    0    0  501    0  0.00000000000E+00 -0.00000000000E+00 -0.31562898682E+03  0.31562898682E+03  0.00000000000E+00 0. -1.
         23    2    1    2    0    0  0.20390128162E+02  0.12087471721E+03 -0.24976269776E+03  0.28523117503E+03  0.62840778390E+02 0.  0.
         23    2    1    2    0    0 -0.20390128162E+02 -0.12087471721E+03  0.73369491665E+02  0.16963359252E+03  0.91465943490E+02 0.  0.
          5    1    4    4  502    0  0.16849440231E+02 -0.30193293225E+02 -0.14609633572E+02  0.37829485656E+02  0.47000000000E+01 0. -1.
         -5    1    4    4    0  502 -0.37239568393E+02 -0.90681423981E+02  0.87979125237E+02  0.13180410687E+03  0.47000000000E+01 0.  1.
          5    1    3    3  503    0  0.90924374380E+01  0.44019882635E+02 -0.16081348482E+03  0.16704337576E+03  0.47000000000E+01 0. -1.
         -5    1    3    3    0  503  0.11297690724E+02  0.76854834571E+02 -0.88949212942E+02  0.11818779927E+03  0.47000000000E+01 0.  1.
<mgrwt>
<rscale>  0 0.14899698E+03</rscale>
<asrwt>0</asrwt>
<pdfrwt beam="1">  1        1 0.48558305E-01 0.15294598E+03</pdfrwt>
<pdfrwt beam="2">  1       -1 0.21420890E-01 0.15294598E+03</pdfrwt>
<totfact> 0.14617410E+03</totfact>
</mgrwt>
</event>
<event>
 8    1  0.5224537E-004  0.9956851E+02  0.7546771E-02  0.1283544E+00
          2   -1    0    0  501    0  0.00000000000E+00  0.00000000000E+00  0.84027210203E+02  0.84027210203E+02  0.00000000000E+00 0. -1.
         -2   -1    0    0    0  501 -0.00000000000E+00 -0.00000000000E+00 -0.14596165223E+03  0.14596165223E+03  0.00000000000E+00 0.  1.
         23    2    1    2    0    0  0.11702883830E+02 -0.40129642714E+02 -0.85134734098E+02  0.12775314906E+03  0.85589709839E+02 0.  0.
         23    2    1    2    0    0 -0.11702883830E+02  0.40129642714E+02  0.23200292071E+02  0.10223571337E+03  0.90368920668E+02 0.  0.
          5    1    3    3  502    0 -0.20703596456E+01  0.25412048137E+02 -0.36846024246E+02  0.45053058523E+02  0.47000000000E+01 0. -1.
         -5    1    4    4    0  503 -0.41460173903E+02  0.20235882192E+02 -0.15893989165E+02  0.49021891433E+02  0.47000000000E+01 0.  1.
          5    1    4    4  503    0  0.29757290073E+02  0.19893760522E+02  0.39094281236E+02  0.53213821941E+02  0.47000000000E+01 0. -1.
         -5    1    3    3    0  502  0.13773243476E+02 -0.65541690851E+02 -0.48288709853E+02  0.82700090536E+02  0.47000000000E+01 0.  1.
<mgrwt>
<rscale>  0 0.98471380E+02</rscale>
<asrwt>0</asrwt>
<pdfrwt beam="1">  1        2 0.12927263E-01 0.99568507E+02</pdfrwt>
<pdfrwt beam="2">  1       -2 0.22455639E-01 0.99568507E+02</pdfrwt>
<totfact> 0.73801882E+03</totfact>
</mgrwt>
</event>
<event>
 8    1  0.5224537E-004  0.1672594E+03  0.7546771E-02  0.1181235E+00
          2   -1    0    0  501    0  0.00000000000E+00  0.00000000000E+00  0.50086509046E+03  0.50086509046E+03  0.00000000000E+00 0. -1.
         -2   -1    0    0    0  501 -0.00000000000E+00 -0.00000000000E+00 -0.59679718101E+02  0.59679718101E+02  0.00000000000E+00 0.  1.
         23    2    1    2    0    0  0.87016297011E+02  0.10738352734E+03  0.14296136703E+03  0.21861899962E+03  0.90847436089E+02 0.  0.
         23    2    1    2    0    0 -0.87016297011E+02 -0.10738352734E+03  0.29822400533E+03  0.34192580894E+03  0.94194710970E+02 0.  0.
          5    1    4    4  502    0 -0.44929148473E+02  0.58705306188E+01  0.97087573366E+02  0.10724354719E+03  0.47000000000E+01 0. -1.
         -5    1    3    3    0  503  0.68039924789E+02  0.11579815861E+03  0.90546172814E+02  0.16204735207E+03  0.47000000000E+01 0.  1.
          5    1    3    3  503    0  0.18976372222E+02 -0.84146312690E+01  0.52415194214E+02  0.56571647551E+02  0.47000000000E+01 0. -1.
         -5    1    4    4    0  502 -0.42087148538E+02 -0.11325405795E+03  0.20113643197E+03  0.23468226175E+03  0.47000000000E+01 0.  1.
<mgrwt>
<rscale>  0 0.16679194E+03</rscale>
<asrwt>0</asrwt>
<pdfrwt beam="1">  1        2 0.77056165E-01 0.16725938E+03</pdfrwt>
<pdfrwt beam="2">  1       -2 0.91814954E-02 0.16725938E+03</pdfrwt>
<totfact> 0.46090395E+03</totfact>
</mgrwt>
</event>
<event>
 8    1  0.5224537E-004  0.1012644E+03  0.7546771E-02  0.1277683E+00
         -2   -1    0    0    0  501 -0.00000000000E+00  0.00000000000E+00  0.39266526484E+02  0.39266526484E+02  0.00000000000E+00 0.  1.
          2   -1    0    0  501    0  0.00000000000E+00 -0.00000000000E+00 -0.32716212408E+03  0.32716212408E+03  0.00000000000E+00 0. -1.
         23    2    1    2    0    0 -0.10014941075E+02 -0.44612733562E+02 -0.61549057313E+02  0.11846246730E+03  0.90302129887E+02 0.  0.
         23    2    1    2    0    0  0.10014941075E+02  0.44612733562E+02 -0.22634654028E+03  0.24796618326E+03  0.90354173694E+02 0.  0.
          5    1    4    4  502    0 -0.35772151542E+02  0.35849769992E+02 -0.15000088936E+03  0.15838942402E+03  0.47000000000E+01 0. -1.
         -5    1    3    3    0  503 -0.15770960631E+02 -0.71231815061E+02 -0.39425107133E+02  0.83060964048E+02  0.47000000000E+01 0.  1.
          5    1    3    3  503    0  0.57560195563E+01  0.26619081499E+02 -0.22123950180E+02  0.35401503253E+02  0.47000000000E+01 0. -1.
         -5    1    4    4    0  502  0.45787092616E+02  0.87629635697E+01 -0.76345650922E+02  0.89576759237E+02  0.47000000000E+01 0.  1.
<mgrwt>
<rscale>  0 0.10125276E+03</rscale>
<asrwt>0</asrwt>
<pdfrwt beam="1">  1        2 0.50332632E-01 0.10126437E+03</pdfrwt>
<pdfrwt beam="2">  1       -2 0.60410044E-02 0.10126437E+03</pdfrwt>
<totfact> 0.13379640E+04</totfact>
</mgrwt>
</event>
<event>
 8    1  0.5224537E-004  0.1294127E+03  0.7546771E-02  0.1235659E+00
         -1   -1    0    0    0  501 -0.00000000000E+00  0.00000000000E+00  0.11966158057E+03  0.11966158057E+03  0.00000000000E+00 0.  1.
          1   -1    0    0  501    0  0.00000000000E+00 -0.00000000000E+00 -0.17764438901E+03  0.17764438901E+03  0.00000000000E+00 0. -1.
         23    2    1    2    0    0 -0.61952527382E+02  0.16123751192E+02  0.53264742215E+02  0.13994563831E+03  0.11247025348E+03 0.  0.
         23    2    1    2    0    0  0.61952527382E+02 -0.16123751192E+02 -0.11124755066E+03  0.15736033126E+03  0.91039361411E+02 0.  0.
          5    1    4    4  502    0  0.34935462441E+02 -0.52178490221E+02 -0.46225934958E+02  0.78115353424E+02  0.47000000000E+01 0. -1.
         -5    1    3    3    0  503 -0.60334928214E+02  0.40889791363E+02  0.76398293462E+02  0.10569327246E+03  0.47000000000E+01 0.  1.
          5    1    3    3  503    0 -0.16175991679E+01 -0.24766040172E+02 -0.23133551247E+02  0.34252365848E+02  0.47000000000E+01 0. -1.
         -5    1    4    4    0  502  0.27017064941E+02  0.36054739030E+02 -0.65021615697E+02  0.79244977837E+02  0.47000000000E+01 0.  1.
<mgrwt>
<rscale>  0 0.12462357E+03</rscale>
<asrwt>0</asrwt>
<pdfrwt beam="1">  1        1 0.27329906E-01 0.12941271E+03</pdfrwt>
<pdfrwt beam="2">  1       -1 0.18409474E-01 0.12941271E+03</pdfrwt>
<totfact> 0.37797510E+03</totfact>
</mgrwt>
</event>
<event>
 7    1  0.5224537E-004  0.1526591E+03  0.7546771E-02  0.1217263E+00
          1   -1    0    0  501    0  0.00000000000E+00  0.00000000000E+00  0.82119523252E+03  0.82119523252E+03  0.00000000000E+00 0. -1.
         -1   -1    0    0    0  501 -0.00000000000E+00 -0.00000000000E+00 -0.19461101006E+02  0.19461101006E+02  0.00000000000E+00 0.  1.
         23    2    1    2    0    0 -0.32827605367E+02  0.26679195484E+02  0.34972136719E+03  0.36356060218E+03  0.89899085884E+02 0.  0.
          5    1    1    2  502    0 -0.22061409289E+02 -0.70291099534E+02  0.15217851110E+03  0.16913880008E+03  0.47000000000E+01 0. -1.
         -5    1    1    2    0  502  0.54889014656E+02  0.43611904050E+02  0.29983425323E+03  0.30795693127E+03  0.47000000000E+01 0.  1.
          5    1    3    3  503    0 -0.30753923935E+02  0.48400146848E+02  0.32580704729E+03  0.33084845491E+03  0.47000000000E+01 0. -1.
         -5    1    3    3    0  503 -0.20736814314E+01 -0.21720951364E+02  0.23914319902E+02  0.32712147273E+02  0.47000000000E+01 0.  1.
<mgrwt>
<rscale>  0 0.13711617E+03</rscale>
<asrwt>0</asrwt>
<pdfrwt beam="1">  1        1 0.12633770E+00 0.15265909E+03</pdfrwt>
<pdfrwt beam="2">  1       -1 0.29940162E-02 0.15265909E+03</pdfrwt>
<totfact> 0.81229964E+03</totfact>
</mgrwt>
</event>
<event>
 8    1  0.5224537E-004  0.9863328E+02  0.7546771E-02  0.1287979E+00
          2   -1    0    0  501    0  0.00000000000E+00  0.00000000000E+00  0.21350615278E+03  0.21350615278E+03  0.00000000000E+00 0. -1.
         -2   -1    0    0    0  501 -0.00000000000E+00 -0.00000000000E+00 -0.77300591312E+02  0.77300591312E+02  0.00000000000E+00 0.  1.
         23    2    1    2    0    0  0.20581089147E+02 -0.22237082119E+02 -0.28834613231E+02  0.10276165844E+03  0.93864021186E+02 0.  0.
         23    2    1    2    0    0 -0.20581089147E+02  0.22237082119E+02  0.16504017470E+03  0.18804508565E+03  0.84880067874E+02 0.  0.
          5    1    3    3  502    0  0.95762229899E+01 -0.51708280635E+02  0.87571615634E+01  0.53518484766E+02  0.47000000000E+01 0. -1.
         -5    1    4    4    0  503  0.24819946685E+02 -0.16062646359E+02  0.45269752633E+02  0.54272266076E+02  0.47000000000E+01 0.  1.
          5    1    4    4  503    0 -0.45401035832E+02  0.38299728478E+02  0.11977042206E+03  0.13377281958E+03  0.47000000000E+01 0. -1.
         -5    1    3    3    0  502  0.11004866157E+02  0.29471198516E+02 -0.37591774795E+02  0.49243173672E+02  0.47000000000E+01 0.  1.
<mgrwt>
<rscale>  0 0.96433986E+02</rscale>
<asrwt>0</asrwt>
<pdfrwt beam="1">  1        2 0.32847100E-01 0.98633278E+02</pdfrwt>
<pdfrwt beam="2">  1       -2 0.11892399E-01 0.98633278E+02</pdfrwt>
<totfact> 0.73718080E+03</totfact>
</mgrwt>
</event>
<event>
 8    1  0.5224537E-004  0.1147515E+03  0.7546771E-02  0.1254065E+00
          1   -1    0    0  501    0  0.00000000000E+00  0.00000000000E+00  0.12726009835E+03  0.12726009835E+03  0.00000000000E+00 0. -1.
         -1   -1    0    0    0  501 -0.00000000000E+00 -0.00000000000E+00 -0.19415726978E+03  0.19415726978E+03  0.00000000000E+00 0.  1.
         23    2    1    2    0    0  0.64792634454E+02 -0.24010712323E+02 -0.14536982731E+03  0.18239988025E+03  0.85806350810E+02 0.  0.
         23    2    1    2    0    0 -0.64792634454E+02  0.24010712323E+02  0.78472655879E+02  0.13901748787E+03  0.91614979278E+02 0.  0.
          5    1    3    3  502    0  0.92761258835E+01 -0.40617429406E+02 -0.10071054309E+03  0.10908953008E+03  0.47000000000E+01 0. -1.
         -5    1    4    4    0  503  0.16684710162E+02  0.22533096805E+02  0.43523152861E+01  0.28760261702E+02  0.47000000000E+01 0.  1.
          5    1    4    4  503    0 -0.81477344616E+02  0.14776155177E+01  0.74120340593E+02  0.11025722617E+03  0.47000000000E+01 0. -1.
         -5    1    3    3    0  502  0.55516508571E+02  0.16606717083E+02 -0.44659284218E+02  0.73310350177E+02  0.47000000000E+01 0.  1.
<mgrwt>
<rscale>  0 0.11358844E+03</rscale>
<asrwt>0</asrwt>
<pdfrwt beam="1">  1        1 0.19578477E-01 0.11475149E+03</pdfrwt>
<pdfrwt beam="2">  1       -1 0.29870349E-01 0.11475149E+03</pdfrwt>
<totfact> 0.25969574E+03</totfact>
</mgrwt>
</event>
<event>
 8    1  0.5224537E-004  0.2030829E+03  0.7546771E-02  0.1147288E+00
          2   -1    0    0  501    0  0.00000000000E+00  0.00000000000E+00  0.76583061955E+02  0.76583061955E+02  0.00000000000E+00 0. -1.
         -2   -1    0    0    0  501 -0.00000000000E+00 -0.00000000000E+00 -0.56064188558E+03  0.56064188558E+03  0.00000000000E+00 0.  1.
         23    2    1    2    0    0 -0.17807815546E+03 -0.32427164544E+02 -0.17619325254E+03  0.26841082691E+03  0.90757695572E+02 0.  0.
         23    2    1    2    0    0  0.17807815546E+03  0.32427164544E+02 -0.30786557108E+03  0.36881412063E+03  0.92083088916E+02 0.  0.
          5    1    3    3  502    0 -0.10987142922E+03  0.12317763136E+02 -0.58602950940E+02  0.12521922419E+03  0.47000000000E+01 0. -1.
         -5    1    3    3    0  502 -0.68206726243E+02 -0.44744927681E+02 -0.11759030160E+03  0.14319160272E+03  0.47000000000E+01 0.  1.
          5    1    4    4  503    0  0.52996275722E+02  0.40702029001E+02 -0.16839229525E+03  0.18122724824E+03  0.47000000000E+01 0. -1.
         -5    1    4    4    0  503  0.12508187974E+03 -0.82748644565E+01 -0.13947327583E+03  0.18758687239E+03  0.47000000000E+01 0.  1.
<mgrwt>
<rscale>  0 0.20293331E+03</rscale>
<asrwt>0</asrwt>
<pdfrwt beam="1">  1        2 0.11782010E-01 0.20308285E+03</pdfrwt>
<pdfrwt beam="2">  1       -2 0.86252597E-01 0.20308285E+03</pdfrwt>
<totfact> 0.62568585E+02</totfact>
</mgrwt>
</event>
<event>
 8    1  0.5224537E-004  0.1299413E+03  0.7546771E-02  0.1228799E+00
         -1   -1    0    0    0  501 -0.00000000000E+00  0.00000000000E+00  0.78279380518E+02  0.78279380518E+02  0.00000000000E+00 0.  1.
          1   -1    0    0  501    0  0.00000000000E+00 -0.00000000000E+00 -0.37577964130E+03  0.37577964130E+03  0.00000000000E+00 0. -1.
         23    2    1    2    0    0 -0.69618472494E+02  0.55076044384E+02  0.86484589776E+00  0.12994413180E+03  0.94892713378E+02 0.  0.
         23    2    1    2    0    0  0.69618472494E+02 -0.55076044384E+02 -0.29836510668E+03  0.32411489002E+03  0.90269721797E+02 0.  0.
          5    1    3    3  502    0 -0.58944106633E+02  0.78723535240E+02 -0.14356393537E+02  0.99498737393E+02  0.47000000000E+01 0. -1.
         -5    1    4    4    0  503 -0.12508465226E+02 -0.32895654074E+02 -0.48386672719E+02  0.60016213277E+02  0.47000000000E+01 0.  1.
          5    1    4    4  503    0  0.82126937720E+02 -0.22180390309E+02 -0.24997843396E+03  0.26409867674E+03  0.47000000000E+01 0. -1.
         -5    1    3    3    0  502 -0.10674365861E+02 -0.23647490857E+02  0.15221239435E+02  0.30445394402E+02  0.47000000000E+01 0.  1.
<mgrwt>
<rscale>  0 0.12909894E+03</rscale>
<asrwt>0</asrwt>
<pdfrwt beam="1">  1        1 0.57812253E-01 0.12994125E+03</pdfrwt>
<pdfrwt beam="2">  1       -1 0.12042982E-01 0.12994125E+03</pdfrwt>
<totfact> 0.29024242E+03</totfact>
</mgrwt>
</event>
<event>
 8    1  0.5224537E-004  0.1132889E+03  0.7546771E-02  0.1255007E+00
          2   -1    0    0  501    0  0.00000000000E+00  0.00000000000E+00  0.37809097861E+03  0.37809097861E+03  0.00000000000E+00 0. -1.
         -2   -1    0    0    0  501 -0.00000000000E+00 -0.00000000000E+00 -0.74871409684E+02  0.74871409684E+02  0.00000000000E+00 0.  1.
         23    2    1    2    0    0  0.12712343292E+02  0.63558501604E+02 -0.16118136030E+02  0.11442976995E+03  0.92914429141E+02 0.  0.
         23    2    1    2    0    0 -0.12712343292E+02 -0.63558501604E+02  0.31933770496E+03  0.33853261835E+03  0.91795844573E+02 0.  0.
          5    1    4    4  502    0 -0.19767317162E+02 -0.40815688780E+02  0.30867218186E+03  0.31202127032E+03  0.47000000000E+01 0. -1.
         -5    1    3    3    0  503  0.22940716951E+02  0.83717307650E+02 -0.23742652374E+02  0.90114747051E+02  0.47000000000E+01 0.  1.
          5    1    3    3  503    0 -0.10228373659E+02 -0.20158806046E+02  0.76245163440E+01  0.24315022895E+02  0.47000000000E+01 0. -1.
         -5    1    4    4    0  502  0.70549738707E+01 -0.22742812824E+02  0.10665523101E+02  0.26511348032E+02  0.47000000000E+01 0.  1.
<mgrwt>
<rscale>  0 0.11305932E+03</rscale>
<asrwt>0</asrwt>
<pdfrwt beam="1">  1        2 0.58167842E-01 0.11328891E+03</pdfrwt>
<pdfrwt beam="2">  1       -2 0.11518679E-01 0.11328891E+03</pdfrwt>
<totfact> 0.42830879E+03</totfact>
</mgrwt>
</event>
<event>
 8    1  0.5224537E-004  0.1272558E+03  0.7546771E-02  0.1240499E+00
          1   -1    0    0  501    0  0.00000000000E+00  0.00000000000E+00  0.53622541396E+03  0.53622541396E+03  0.00000000000E+00 0. -1.
         -1   -1    0    0    0  501 -0.00000000000E+00 -0.00000000000E+00 -0.45587784044E+02  0.45587784044E+02  0.00000000000E+00 0.  1.
         23    2    1    2    0    0  0.78054952574E+01  0.48614901133E+02  0.42615195128E+03  0.43915120866E+03  0.93935957551E+02 0.  0.
         23    2    1    2    0    0 -0.78054952574E+01 -0.48614901133E+02  0.64485678644E+02  0.14266198935E+03  0.11734439095E+03 0.  0.
          5    1    4    4  502    0 -0.30011217792E+02 -0.42151341235E+02  0.92462588784E+02  0.10606049729E+03  0.47000000000E+01 0. -1.
         -5    1    3    3    0  503  0.49893871081E+02  0.36264997989E+02  0.24007525247E+03  0.24791685159E+03  0.47000000000E+01 0.  1.
          5    1    3    3  503    0 -0.42088375823E+02  0.12349903144E+02  0.18607669880E+03  0.19123435707E+03  0.47000000000E+01 0. -1.
         -5    1    4    4    0  502  0.22205722535E+02 -0.64635598989E+01 -0.27976910140E+02  0.36601492057E+02  0.47000000000E+01 0.  1.
<mgrwt>
<rscale>  0 0.12158894E+03</rscale>
<asrwt>0</asrwt>
<pdfrwt beam="1">  1        1 0.82496213E-01 0.12725581E+03</pdfrwt>
<pdfrwt beam="2">  1       -1 0.70135056E-02 0.12725581E+03</pdfrwt>
<totfact> 0.41786136E+03</totfact>
</mgrwt>
</event>
<event>
 8    1  0.5224537E-004  0.9417421E+02  0.7546771E-02  0.1294068E+00
         -1   -1    0    0    0  501 -0.00000000000E+00  0.00000000000E+00  0.33487786062E+02  0.33487786062E+02  0.00000000000E+00 0.  1.
          1   -1    0    0  501    0  0.00000000000E+00 -0.00000000000E+00 -0.29070699477E+03  0.29070699477E+03  0.00000000000E+00 0. -1.
         23    2    1    2    0    0  0.21713882460E+02  0.58088591225E+01 -0.18249651260E+03  0.20536250834E+03  0.91452431266E+02 0.  0.
         23    2    1    2    0    0 -0.21713882460E+02 -0.58088591225E+01 -0.74722696108E+02  0.11883227249E+03  0.89623613721E+02 0.  0.
          5    1    4    4  502    0  0.13035367465E+02  0.25795065433E+02  0.13396365049E+01  0.29311957144E+02  0.47000000000E+01 0. -1.
         -5    1    4    4    0  502 -0.34749249925E+02 -0.31603924555E+02 -0.76062332613E+02  0.89520315349E+02  0.47000000000E+01 0.  1.
          5    1    3    3  503    0  0.29091140081E+02  0.38723110198E+02 -0.15216769740E+03  0.15975879264E+03  0.47000000000E+01 0. -1.
         -5    1    3    3    0  503 -0.73772576213E+01 -0.32914251076E+02 -0.30328815200E+02  0.45603715697E+02  0.47000000000E+01 0.  1.
<mgrwt>
<rscale>  0 0.93727311E+02</rscale>
<asrwt>0</asrwt>
<pdfrwt beam="1">  1        1 0.44724154E-01 0.94174215E+02</pdfrwt>
<pdfrwt beam="2">  1       -1 0.51519670E-02 0.94174215E+02</pdfrwt>
<totfact> 0.13942277E+04</totfact>
</mgrwt>
</event>
<event>
 8    1  0.5224537E-004  0.1206679E+03  0.7546771E-02  0.1254709E+00
         -1   -1    0    0    0  501 -0.00000000000E+00  0.00000000000E+00  0.26921527019E+02  0.26921527019E+02  0.00000000000E+00 0.  1.
          1   -1    0    0  501    0  0.00000000000E+00 -0.00000000000E+00 -0.42840575236E+03  0.42840575236E+03  0.00000000000E+00 0. -1.
         23    2    1    2    0    0 -0.17085214943E+02  0.12785878639E+02 -0.15895761932E+03  0.18444002248E+03  0.91078064802E+02 0.  0.
         23    2    1    2    0    0  0.17085214943E+02 -0.12785878639E+02 -0.24252660602E+03  0.27088725690E+03  0.11876602234E+03 0.  0.
          5    1    4    4  502    0  0.24273939537E+02  0.37427429822E+02 -0.19865785794E+03  0.20365920349E+03  0.47000000000E+01 0. -1.
         -5    1    4    4    0  502 -0.71887245936E+01 -0.50213308461E+02 -0.43868748077E+02  0.67228053414E+02  0.47000000000E+01 0.  1.
          5    1    3    3  503    0  0.14151752413E+02 -0.33966834447E+02 -0.60983185288E+02  0.71379666758E+02  0.47000000000E+01 0. -1.
         -5    1    3    3    0  503 -0.31236967356E+02  0.46752713087E+02 -0.97974434034E+02  0.11306035572E+03  0.47000000000E+01 0.  1.
<mgrwt>
<rscale>  0 0.11322664E+03</rscale>
<asrwt>0</asrwt>
<pdfrwt beam="1">  1        1 0.65908570E-01 0.12066794E+03</pdfrwt>
<pdfrwt beam="2">  1       -1 0.41417738E-02 0.12066794E+03</pdfrwt>
<totfact> 0.12133691E+04</totfact>
</mgrwt>
</event>
<event>
 8    1  0.5224537E-004  0.1019200E+03  0.7546771E-02  0.1281076E+00
         -2   -1    0    0    0  501 -0.00000000000E+00  0.00000000000E+00  0.20830192632E+03  0.20830192632E+03  0.00000000000E+00 0.  1.
          2   -1    0    0  501    0  0.00000000000E+00 -0.00000000000E+00 -0.52180037731E+02  0.52180037731E+02  0.00000000000E+00 0. -1.
         23    2    1    2    0    0 -0.22335089754E+02 -0.37586969540E+02  0.28854285824E+02  0.97433717987E+02  0.82153046668E+02 0.  0.
         23    2    1    2    0    0  0.22335089754E+02  0.37586969540E+02  0.12726760276E+03  0.16304824606E+03  0.92065472993E+02 0.  0.
          5    1    3    3  502    0 -0.50202854647E+02 -0.40148845584E+02  0.16838595836E+02  0.66617450613E+02  0.47000000000E+01 0. -1.
         -5    1    3    3    0  502  0.27867764893E+02  0.25618760440E+01  0.12015689988E+02  0.30816267374E+02  0.47000000000E+01 0.  1.
          5    1    4    4  503    0 -0.18035820752E+02  0.18188033612E+02 -0.20406568007E+01  0.26121823770E+02  0.47000000000E+01 0. -1.
         -5    1    4    4    0  503  0.40370910507E+02  0.19398935928E+02  0.12930825957E+03  0.13692642229E+03  0.47000000000E+01 0.  1.
<mgrwt>
<rscale>  0 0.99629759E+02</rscale>
<asrwt>0</asrwt>
<pdfrwt beam="1">  1        2 0.80276982E-02 0.10192001E+03</pdfrwt>
<pdfrwt beam="2">  1       -2 0.32046450E-01 0.10192001E+03</pdfrwt>
<totfact> 0.70617528E+03</totfact>
</mgrwt>
</event>
<event>
 8    1  0.5224537E-004  0.9300369E+02  0.7546771E-02  0.1295823E+00
          1   -1    0    0  501    0  0.00000000000E+00  0.00000000000E+00  0.27662410650E+03  0.27662410650E+03  0.00000000000E+00 0. -1.
         -1   -1    0    0    0  501 -0.00000000000E+00 -0.00000000000E+00 -0.11036037744E+03  0.11036037744E+03  0.00000000000E+00 0.  1.
         23    2    1    2    0    0  0.36804574232E+01 -0.34364240504E+01 -0.80704168737E+02  0.12313752227E+03  0.92867280363E+02 0.  0.
         23    2    1    2    0    0 -0.36804574232E+01  0.34364240504E+01  0.24696789780E+03  0.26384696166E+03  0.92718508729E+02 0.  0.
          5    1    3    3  502    0 -0.17584352132E+02  0.40228195141E+02 -0.36224463614E+02  0.57112335693E+02  0.47000000000E+01 0. -1.
         -5    1    3    3    0  502  0.21264809555E+02 -0.43664619191E+02 -0.44479705123E+02  0.66025186576E+02  0.47000000000E+01 0.  1.
          5    1    4    4  503    0 -0.14429042971E+02 -0.19722428041E+02  0.23308066598E+03  0.23440532909E+03  0.47000000000E+01 0. -1.
         -5    1    4    4    0  503  0.10748585547E+02  0.23158852092E+02  0.13887231813E+02  0.29441632579E+02  0.47000000000E+01 0.  1.
<mgrwt>
<rscale>  0 0.92966530E+02</rscale>
<asrwt>0</asrwt>
<pdfrwt beam="1">  1        1 0.42557555E-01 0.93003691E+02</pdfrwt>
<pdfrwt beam="2">  1       -1 0.16978520E-01 0.93003691E+02</pdfrwt>
<totfact> 0.24472783E+03</totfact>
</mgrwt>
</event>
<event>
 8    1  0.5224537E-004  0.9826188E+02  0.7546771E-02  0.1285863E+00
         -1   -1    0    0    0  501 -0.00000000000E+00  0.00000000000E+00  0.10128826746E+03  0.10128826746E+03  0.00000000000E+00 0.  1.
          1   -1    0    0  501    0  0.00000000000E+00 -0.00000000000E+00 -0.92720303356E+02  0.92720303356E+02  0.00000000000E+00 0. -1.
         23    2    1    2    0    0  0.12319720975E+02  0.30107856212E+02  0.12610665560E+02  0.99067782693E+02  0.92720753616E+02 0.  0.
         23    2    1    2    0    0 -0.12319720975E+02 -0.30107856212E+02 -0.40427014515E+01  0.94940788127E+02  0.89101915157E+02 0.  0.
          5    1    4    4  502    0  0.34221725382E+02 -0.31553718963E+02 -0.97599495458E+01  0.47792366374E+02  0.47000000000E+01 0. -1.
         -5    1    3    3    0  503 -0.32112342014E+02  0.38817214273E+02  0.16900858430E+02  0.53345174564E+02  0.47000000000E+01 0.  1.
          5    1    3    3  503    0  0.44432062988E+02 -0.87093580612E+01 -0.42901928702E+01  0.45722608129E+02  0.47000000000E+01 0. -1.
         -5    1    4    4    0  502 -0.46541446356E+02  0.14458627511E+01  0.57172480944E+01  0.47148421753E+02  0.47000000000E+01 0.  1.
<mgrwt>
<rscale>  0 0.97398772E+02</rscale>
<asrwt>0</asrwt>
<pdfrwt beam="1">  1        1 0.14264662E-01 0.98261878E+02</pdfrwt>
<pdfrwt beam="2">  1       -1 0.15582810E-01 0.98261878E+02</pdfrwt>
<totfact> 0.10963687E+04</totfact>
</mgrwt>
</event>
<event>
 8    1  0.5224537E-004  0.2139731E+03  0.7546771E-02  0.1139243E+00
          2   -1    0    0  501    0  0.00000000000E+00  0.00000000000E+00  0.33473189641E+03  0.33473189641E+03  0.00000000000E+00 0. -1.
         -2   -1    0    0    0  501 -0.00000000000E+00 -0.00000000000E+00 -0.14486875275E+03  0.14486875275E+03  0.00000000000E+00 0.  1.
         23    2    1    2    0    0 -0.18868580813E+03  0.47509030682E+02  0.16077665371E+03  0.26764458472E+03  0.89022745219E+02 0.  0.
         23    2    1    2    0    0  0.18868580813E+03 -0.47509030682E+02  0.29086489945E+02  0.21195606444E+03  0.78866388071E+02 0.  0.
          5    1    3    3  502    0 -0.18617420816E+03  0.21842890878E+02  0.14516078461E+03  0.23713222273E+03  0.47000000000E+01 0. -1.
         -5    1    3    3    0  502 -0.25115999709E+01  0.25666139804E+02  0.15615869099E+02  0.30512361996E+02  0.47000000000E+01 0.  1.
          5    1    4    4  503    0  0.11707857124E+03 -0.54336211348E+02  0.47398819550E+02  0.13758108083E+03  0.47000000000E+01 0. -1.
         -5    1    4    4    0  503  0.71607236891E+02  0.68271806654E+01 -0.18312329606E+02  0.74374983607E+02  0.47000000000E+01 0.  1.
<mgrwt>
<rscale>  0 0.21296037E+03</rscale>
<asrwt>0</asrwt>
<pdfrwt beam="1">  1        2 0.51497214E-01 0.21397311E+03</pdfrwt>
<pdfrwt beam="2">  1       -2 0.22287501E-01 0.21397311E+03</pdfrwt>
<totfact> 0.16783490E+03</totfact>
</mgrwt>
</event>
<event>
 8    1  0.5224537E-004  0.9239758E+02  0.7546771E-02  0.1297643E+00
         -2   -1    0    0    0  501 -0.00000000000E+00  0.00000000000E+00  0.22663581213E+02  0.22663581213E+02  0.00000000000E+00 0.  1.
          2   -1    0    0  501    0  0.00000000000E+00 -0.00000000000E+00 -0.39370304241E+03  0.39370304241E+03  0.00000000000E+00 0. -1.
         23    2    1    2    0    0 -0.37744818992E+01 -0.16259965351E+02 -0.23214683856E+03  0.24954793797E+03  0.90018806391E+02 0.  0.
         23    2    1    2    0    0  0.37744818992E+01  0.16259965351E+02 -0.13889262264E+03  0.16681868565E+03  0.90877280293E+02 0.  0.
          5    1    4    4  502    0  0.45599770298E+02 -0.29178048584E+01 -0.63565851227E+02  0.78425506557E+02  0.47000000000E+01 0. -1.
         -5    1    4    4    0  502 -0.41825288399E+02  0.19177770209E+02 -0.75326771409E+02  0.88393179096E+02  0.47000000000E+01 0.  1.
          5    1    3    3  503    0  0.52976626269E-02 -0.52789595150E+02 -0.11361449301E+03  0.12536779653E+03  0.47000000000E+01 0. -1.
         -5    1    3    3    0  503 -0.37797795619E+01  0.36529629799E+02 -0.11853234554E+03  0.12418014144E+03  0.47000000000E+01 0.  1.
<mgrwt>
<rscale>  0 0.92185801E+02</rscale>
<asrwt>0</asrwt>
<pdfrwt beam="1">  1        2 0.60569690E-01 0.92397583E+02</pdfrwt>
<pdfrwt beam="2">  1       -2 0.34867053E-02 0.92397583E+02</pdfrwt>
<totfact> 0.24658868E+04</totfact>
</mgrwt>
</event>
<event>
 8    1  0.5224537E-004  0.9410459E+02  0.7546771E-02  0.1295252E+00
          4   -1    0    0  501    0  0.00000000000E+00  0.00000000000E+00  0.74826903594E+02  0.74826903594E+02  0.00000000000E+00 0. -1.
         -4   -1    0    0    0  501 -0.00000000000E+00 -0.00000000000E+00 -0.14174630308E+03  0.14174630308E+03  0.00000000000E+00 0.  1.
         23    2    1    2    0    0  0.22864335091E+02  0.51776979615E+01 -0.81900523142E+02  0.12475323253E+03  0.91137736210E+02 0.  0.
         23    2    1    2    0    0 -0.22864335091E+02 -0.51776979615E+01  0.14981123657E+02  0.91819974139E+02  0.87503641122E+02 0.  0.
          5    1    4    4  502    0 -0.38656747755E+02  0.87219980373E+01  0.41547332241E+02  0.57608056842E+02  0.47000000000E+01 0. -1.
         -5    1    4    4    0  502  0.15792412664E+02 -0.13899695999E+02 -0.26566208584E+02  0.34211917297E+02  0.47000000000E+01 0.  1.
          5    1    3    3  503    0  0.77433357913E-01 -0.22168196804E+02  0.10975219123E+02  0.25178967022E+02  0.47000000000E+01 0. -1.
         -5    1    3    3    0  503  0.22786901733E+02  0.27345894766E+02 -0.92875742265E+02  0.99574265513E+02  0.47000000000E+01 0.  1.
<mgrwt>
<rscale>  0 0.93213254E+02</rscale>
<asrwt>0</asrwt>
<pdfrwt beam="1">  1        4 0.11511831E-01 0.94104587E+02</pdfrwt>
<pdfrwt beam="2">  1       -4 0.21807123E-01 0.94104587E+02</pdfrwt>
<totfact> 0.17324488E+03</totfact>
</mgrwt>
</event>
<event>
 8    1  0.5224537E-004  0.1081269E+03  0.7546771E-02  0.1269868E+00
         -1   -1    0    0    0  501 -0.00000000000E+00  0.00000000000E+00  0.26414996876E+03  0.26414996876E+03  0.00000000000E+00 0.  1.
          1   -1    0    0  501    0  0.00000000000E+00 -0.00000000000E+00 -0.43037164412E+02  0.43037164412E+02  0.00000000000E+00 0. -1.
         23    2    1    2    0    0  0.19090193685E+02  0.51402790850E+02  0.14768929652E+03  0.17648730919E+03  0.79554758487E+02 0.  0.
         23    2    1    2    0    0 -0.19090193685E+02 -0.51402790850E+02  0.73423507830E+02  0.13069982398E+03  0.93192006544E+02 0.  0.
          5    1    4    4  502    0 -0.32235319695E+02 -0.66677370040E+01 -0.10251221441E+02  0.34795863168E+02  0.47000000000E+01 0. -1.
         -5    1    4    4    0  502  0.13145126010E+02 -0.44735053846E+02  0.83674729271E+02  0.95903960810E+02  0.47000000000E+01 0.  1.
          5    1    3    3  503    0 -0.14622619898E+02  0.55852909814E+02  0.65631546783E+02  0.87538325781E+02  0.47000000000E+01 0. -1.
         -5    1    3    3    0  503  0.33712813583E+02 -0.44501189636E+01  0.82057749732E+02  0.88948983410E+02  0.47000000000E+01 0.  1.
<mgrwt>
<rscale>  0 0.10512800E+03</rscale>
<asrwt>0</asrwt>
<pdfrwt beam="1">  1        1 0.66211024E-02 0.10812693E+03</pdfrwt>
<pdfrwt beam="2">  1       -1 0.40638456E-01 0.10812693E+03</pdfrwt>
<totfact> 0.63107407E+03</totfact>
</mgrwt>
</event>
<event>
 8    1  0.5224537E-004  0.9707678E+02  0.7546771E-02  0.1287674E+00
          1   -1    0    0  501    0  0.00000000000E+00  0.00000000000E+00  0.16817447028E+03  0.16817447028E+03  0.00000000000E+00 0. -1.
         -1   -1    0    0    0  501 -0.00000000000E+00 -0.00000000000E+00 -0.66282465924E+02  0.66282465924E+02  0.00000000000E+00 0.  1.
         23    2    1    2    0    0  0.21757590579E+02 -0.23875241940E+02  0.99112954703E+02  0.13734038721E+03  0.89418030860E+02 0.  0.
         23    2    1    2    0    0 -0.21757590579E+02  0.23875241940E+02  0.27790496499E+01  0.97116548995E+02  0.91544967345E+02 0.  0.
          5    1    4    4  502    0 -0.32419685968E+02 -0.14000458532E+02  0.31994946587E+02  0.47883352895E+02  0.47000000000E+01 0. -1.
         -5    1    4    4    0  502  0.10662095389E+02  0.37875700472E+02 -0.29215896937E+02  0.49233196099E+02  0.47000000000E+01 0.  1.
          5    1    3    3  503    0  0.40035524840E+01 -0.50135599946E+02  0.91321522964E+02  0.10436147455E+03  0.47000000000E+01 0. -1.
         -5    1    3    3    0  503  0.17754038095E+02  0.26260358007E+02  0.77914317394E+01  0.32978912654E+02  0.47000000000E+01 0.  1.
<mgrwt>
<rscale>  0 0.96572081E+02</rscale>
<asrwt>0</asrwt>
<pdfrwt beam="1">  1        1 0.25872995E-01 0.97076779E+02</pdfrwt>
<pdfrwt beam="2">  1       -1 0.10197303E-01 0.97076779E+02</pdfrwt>
<totfact> 0.99041053E+03</totfact>
</mgrwt>
</event>
<event>
 8    1  0.5224537E-004  0.1270485E+03  0.7546771E-02  0.1232224E+00
          1   -1    0    0  501    0  0.00000000000E+00  0.00000000000E+00  0.20015666283E+03  0.20015666283E+03  0.00000000000E+00 0. -1.
         -1   -1    0    0    0  501 -0.00000000000E+00 -0.00000000000E+00 -0.80122198887E+02  0.80122198887E+02  0.00000000000E+00 0.  1.
         23    2    1    2    0    0  0.78553952503E+02  0.36492685178E+02  0.58588626007E+02  0.13990695273E+03  0.92945622806E+02 0.  0.
         23    2    1    2    0    0 -0.78553952503E+02 -0.36492685178E+02  0.61445837935E+02  0.14037190899E+03  0.91794565787E+02 0.  0.
          5    1    4    4  502    0 -0.18734339317E+02 -0.53224163380E+02  0.52914826850E+02  0.77497457621E+02  0.47000000000E+01 0. -1.
         -5    1    4    4    0  502 -0.59819613186E+02  0.16731478202E+02  0.85310110852E+01  0.62874451367E+02  0.47000000000E+01 0.  1.
          5    1    3    3  503    0  0.64678710353E+02  0.66097654974E+02  0.33664546210E+02  0.98527291841E+02  0.47000000000E+01 0. -1.
         -5    1    3    3    0  503  0.13875242151E+02 -0.29604969796E+02  0.24924079797E+02  0.41379660887E+02  0.47000000000E+01 0.  1.
<mgrwt>
<rscale>  0 0.12683809E+03</rscale>
<asrwt>0</asrwt>
<pdfrwt beam="1">  1        1 0.30793333E-01 0.12704853E+03</pdfrwt>
<pdfrwt beam="2">  1       -1 0.12326492E-01 0.12704853E+03</pdfrwt>
<totfact> 0.60997413E+03</totfact>
</mgrwt>
</event>
<event>
 8    1  0.5224537E-004  0.9592810E+02  0.7546771E-02  0.1290226E+00
         -1   -1    0    0    0  501 -0.00000000000E+00  0.00000000000E+00  0.68266411779E+02  0.68266411779E+02  0.00000000000E+00 0.  1.
          1   -1    0    0  501    0  0.00000000000E+00 -0.00000000000E+00 -0.13640036947E+03  0.13640036947E+03  0.00000000000E+00 0. -1.
         23    2    1    2    0    0 -0.81759712929E+01 -0.30908770648E+02 -0.52801339052E+02  0.10949969077E+03  0.90443364952E+02 0.  0.
         23    2    1    2    0    0  0.81759712929E+01  0.30908770648E+02 -0.15332618640E+02  0.95167090478E+02  0.88314706058E+02 0.  0.
          5    1    3    3  502    0  0.33401808539E+02 -0.54156578828E+01 -0.49825334814E+02  0.60412450317E+02  0.47000000000E+01 0. -1.
         -5    1    3    3    0  502 -0.41577779832E+02 -0.25493112766E+02 -0.29760042378E+01  0.49087240455E+02  0.47000000000E+01 0.  1.
          5    1    4    4  503    0  0.22343478808E+02  0.55910531590E+02  0.34913487270E+01  0.60493785663E+02  0.47000000000E+01 0. -1.
         -5    1    4    4    0  503 -0.14167507515E+02 -0.25001760942E+02 -0.18823967367E+02  0.34673304815E+02  0.47000000000E+01 0.  1.
<mgrwt>
<rscale>  0 0.95423060E+02</rscale>
<asrwt>0</asrwt>
<pdfrwt beam="1">  1        1 0.20984672E-01 0.95928103E+02</pdfrwt>
<pdfrwt beam="2">  1       -1 0.10502525E-01 0.95928103E+02</pdfrwt>
<totfact> 0.12283450E+04</totfact>
</mgrwt>
</event>
<event>
 8    1  0.5224537E-004  0.1078202E+03  0.7546771E-02  0.1267480E+00
          1   -1    0    0  501    0  0.00000000000E+00  0.00000000000E+00  0.58924141463E+02  0.58924141463E+02  0.00000000000E+00 0. -1.
         -1   -1    0    0    0  501 -0.00000000000E+00 -0.00000000000E+00 -0.26877719413E+03  0.26877719413E+03  0.00000000000E+00 0.  1.
         23    2    1    2    0    0 -0.51229549046E+02  0.72387758451E+01 -0.19734007196E+03  0.22487398701E+03  0.94595663022E+02 0.  0.
         23    2    1    2    0    0  0.51229549046E+02 -0.72387758451E+01 -0.12512980712E+02  0.10282734859E+03  0.87977396868E+02 0.  0.
          5    1    3    3  502    0 -0.40656917440E+02  0.32591913106E+02 -0.18851659240E+03  0.19564205414E+03  0.47000000000E+01 0. -1.
         -5    1    4    4    0  503  0.44893439264E+01 -0.29002999246E+02 -0.35398514357E+02  0.46221996850E+02  0.47000000000E+01 0.  1.
          5    1    4    4  503    0  0.46740205120E+02  0.21764223401E+02  0.22885533645E+02  0.56605351735E+02  0.47000000000E+01 0. -1.
         -5    1    3    3    0  502 -0.10572631606E+02 -0.25353137261E+02 -0.88234795540E+01  0.29231932873E+02  0.47000000000E+01 0.  1.
<mgrwt>
<rscale>  0 0.10635123E+03</rscale>
<asrwt>0</asrwt>
<pdfrwt beam="1">  1        1 0.90652525E-02 0.10782025E+03</pdfrwt>
<pdfrwt beam="2">  1       -1 0.41350338E-01 0.10782025E+03</pdfrwt>
<totfact> 0.40252106E+03</totfact>
</mgrwt>
</event>
<event>
 8    1  0.5224537E-004  0.1223497E+03  0.7546771E-02  0.1239696E+00
         -2   -1    0    0    0  501 -0.00000000000E+00  0.00000000000E+00  0.32259864439E+02  0.32259864439E+02  0.00000000000E+00 0.  1.
          2   -1    0    0  501    0  0.00000000000E+00 -0.00000000000E+00 -0.58320974681E+03  0.58320974681E+03  0.00000000000E+00 0. -1.
         23    2    1    2    0    0 -0.37176000176E+02 -0.71816576647E+02 -0.41783348400E+03  0.43537831287E+03  0.91813829531E+02 0.  0.
         23    2    1    2    0    0  0.37176000176E+02  0.71816576647E+02 -0.13311639837E+03  0.18009129838E+03  0.90405887901E+02 0.  0.
          5    1    4    4  502    0  0.62362967340E+02  0.49595153664E+02 -0.11914650523E+03  0.14341129199E+03  0.47000000000E+01 0. -1.
         -5    1    4    4    0  502 -0.25186967164E+02  0.22221422983E+02 -0.13969893139E+02  0.36680006388E+02  0.47000000000E+01 0.  1.
          5    1    3    3  503    0  0.13952096207E+02 -0.56537168223E+02 -0.30409348968E+03  0.30965473167E+03  0.47000000000E+01 0. -1.
         -5    1    3    3    0  503 -0.51128096382E+02 -0.15279408424E+02 -0.11373999433E+03  0.12572358120E+03  0.47000000000E+01 0.  1.
<mgrwt>
<rscale>  0 0.12208563E+03</rscale>
<asrwt>0</asrwt>
<pdfrwt beam="1">  1        2 0.89724573E-01 0.12234972E+03</pdfrwt>
<pdfrwt beam="2">  1       -2 0.49630563E-02 0.12234972E+03</pdfrwt>
<totfact> 0.97940497E+03</totfact>
</mgrwt>
</event>
<event>
 8    1  0.5224537E-004  0.1016191E+03  0.7546771E-02  0.1278331E+00
          2   -1    0    0  501    0  0.00000000000E+00  0.00000000000E+00  0.20878022565E+03  0.20878022565E+03  0.00000000000E+00 0. -1.
         -2   -1    0    0    0  501 -0.00000000000E+00 -0.00000000000E+00 -0.55896168861E+02  0.55896168861E+02  0.00000000000E+00 0.  1.
         23    2    1    2    0    0 -0.15258015578E+02  0.43554062188E+02  0.26332065339E+02  0.10237466239E+03  0.87506745238E+02 0.  0.
         23    2    1    2    0    0  0.15258015578E+02 -0.43554062188E+02  0.12655199145E+03  0.16230173212E+03  0.90535530797E+02 0.  0.
          5    1    3    3  502    0  0.31081615653E+02  0.19400450688E+01  0.24476685365E+02  0.39887701525E+02  0.47000000000E+01 0. -1.
         -5    1    3    3    0  502 -0.46339631231E+02  0.41614017120E+02  0.18553799743E+01  0.62486960866E+02  0.47000000000E+01 0.  1.
          5    1    4    4  503    0  0.51778979291E+02 -0.37818211679E+02  0.82817520848E+02  0.10484327156E+03  0.47000000000E+01 0. -1.
         -5    1    4    4    0  503 -0.36520963713E+02 -0.57358505096E+01  0.43734470603E+02  0.57458460565E+02  0.47000000000E+01 0.  1.
<mgrwt>
<rscale>  0 0.10094013E+03</rscale>
<asrwt>0</asrwt>
<pdfrwt beam="1">  1        2 0.32120034E-01 0.10161912E+03</pdfrwt>
<pdfrwt beam="2">  1       -2 0.85994107E-02 0.10161912E+03</pdfrwt>
<totfact> 0.12555396E+04</totfact>
</mgrwt>
</event>
<event>
 8    1  0.5224537E-004  0.2637765E+03  0.7546771E-02  0.1105201E+00
          2   -1    0    0  501    0  0.00000000000E+00  0.00000000000E+00  0.12784812219E+03  0.12784812219E+03  0.00000000000E+00 0. -1.
         -2   -1    0    0    0  501 -0.00000000000E+00 -0.00000000000E+00 -0.10129159453E+04  0.10129159453E+04  0.00000000000E+00 0.  1.
         23    2    1    2    0    0  0.11169842635E+03  0.21811913492E+03 -0.83135255060E+03  0.87157382382E+03  0.91876936742E+02 0.  0.
         23    2    1    2    0    0 -0.11169842635E+03 -0.21811913492E+03 -0.53715272462E+02  0.26919024362E+03  0.97598982059E+02 0.  0.
          5    1    4    4  502    0 -0.87230939607E+02 -0.66260224896E+02 -0.28058465185E+02  0.11317694861E+03  0.47000000000E+01 0. -1.
         -5    1    4    4    0  502 -0.24467486740E+02 -0.15185891003E+03 -0.25656807277E+02  0.15601329501E+03  0.47000000000E+01 0.  1.
          5    1    3    3  503    0 -0.11905220006E+02  0.22964410326E+02 -0.14527662808E+03  0.14763633384E+03  0.47000000000E+01 0. -1.
         -5    1    3    3    0  503  0.12360364635E+03  0.19515472460E+03 -0.68607592253E+03  0.72393748998E+03  0.47000000000E+01 0.  1.
<mgrwt>
<rscale>  0 0.26325921E+03</rscale>
<asrwt>0</asrwt>
<pdfrwt beam="1">  1        2 0.19668942E-01 0.26377653E+03</pdfrwt>
<pdfrwt beam="2">  1       -2 0.15583322E+00 0.26377653E+03</pdfrwt>
<totfact> 0.81671936E+01</totfact>
</mgrwt>
</event>
<event>
 8    1  0.5224537E-004  0.1986474E+03  0.7546771E-02  0.1151010E+00
         -2   -1    0    0    0  501 -0.00000000000E+00  0.00000000000E+00  0.12563559408E+03  0.12563559408E+03  0.00000000000E+00 0.  1.
          2   -1    0    0  501    0  0.00000000000E+00 -0.00000000000E+00 -0.38349264260E+03  0.38349264260E+03  0.00000000000E+00 0. -1.
         23    2    1    2    0    0 -0.15934316649E+03  0.75225662835E+02 -0.20069782869E+02  0.19965866581E+03  0.91715002009E+02 0.  0.
         23    2    1    2    0    0  0.15934316649E+03 -0.75225662835E+02 -0.23778726565E+03  0.30946957087E+03  0.90440513756E+02 0.  0.
          5    1    3    3  502    0 -0.37745393300E+02 -0.21052021871E+02 -0.49220190729E+01  0.43751784101E+02  0.47000000000E+01 0. -1.
         -5    1    3    3    0  502 -0.12159777319E+03  0.96277684706E+02 -0.15147763796E+02  0.15590688171E+03  0.47000000000E+01 0.  1.
          5    1    4    4  503    0  0.10198543921E+03 -0.84630486925E+02 -0.20004740802E+03  0.24000917604E+03  0.47000000000E+01 0. -1.
         -5    1    4    4    0  503  0.57357727284E+02  0.94048240902E+01 -0.37739857635E+02  0.69460394829E+02  0.47000000000E+01 0.  1.
<mgrwt>
<rscale>  0 0.19850093E+03</rscale>
<asrwt>0</asrwt>
<pdfrwt beam="1">  1        2 0.58998868E-01 0.19864739E+03</pdfrwt>
<pdfrwt beam="2">  1       -2 0.19328553E-01 0.19864739E+03</pdfrwt>
<totfact> 0.18476390E+03</totfact>
</mgrwt>
</event>
<event>
 8    1  0.5224537E-004  0.1584211E+03  0.7546771E-02  0.1190720E+00
          2   -1    0    0  501    0  0.00000000000E+00  0.00000000000E+00  0.31179172080E+03  0.31179172080E+03  0.00000000000E+00 0. -1.
         -2   -1    0    0    0  501 -0.00000000000E+00 -0.00000000000E+00 -0.90697245234E+02  0.90697245234E+02  0.00000000000E+00 0.  1.
         23    2    1    2    0    0  0.67104940491E+01 -0.12914004369E+03  0.17962171408E+03  0.23950197877E+03  0.91515332326E+02 0.  0.
         23    2    1    2    0    0 -0.67104940491E+01  0.12914004369E+03  0.41472761487E+02  0.16298698727E+03  0.90125392971E+02 0.  0.
          5    1    3    3  502    0  0.48110235501E+02 -0.84532121291E+02  0.10963209829E+03  0.14663410676E+03  0.47000000000E+01 0.  1.
         -5    1    4    4    0  503  0.27444543435E+02  0.92157694093E+02 -0.20207454921E+01  0.96293389998E+02  0.47000000000E+01 0.  1.
          5    1    4    4  503    0 -0.34155037484E+02  0.36982349597E+02  0.43493506979E+02  0.66693597269E+02  0.47000000000E+01 0. -1.
         -5    1    3    3    0  502 -0.41399741452E+02 -0.44607922399E+02  0.69989615790E+02  0.92867872009E+02  0.47000000000E+01 0. -1.
<mgrwt>
<rscale>  0 0.15822099E+03</rscale>
<asrwt>0</asrwt>
<pdfrwt beam="1">  1        2 0.47967957E-01 0.15842108E+03</pdfrwt>
<pdfrwt beam="2">  1       -2 0.13953422E-01 0.15842108E+03</pdfrwt>
<totfact> 0.39311033E+03</totfact>
</mgrwt>
</event>
<event>
 8    1  0.5224537E-004  0.1040039E+03  0.7546771E-02  0.1273584E+00
         -3   -1    0    0    0  501 -0.00000000000E+00  0.00000000000E+00  0.19286644636E+03  0.19286644636E+03  0.00000000000E+00 0.  1.
          3   -1    0    0  501    0  0.00000000000E+00 -0.00000000000E+00 -0.72005591348E+02  0.72005591348E+02  0.00000000000E+00 0. -1.
         23    2    1    2    0    0  0.47839432565E+02 -0.50028704716E+01  0.12505010675E+03  0.16078375772E+03  0.88883336612E+02 0.  0.
         23    2    1    2    0    0 -0.47839432565E+02  0.50028704716E+01 -0.41892517385E+01  0.10408827999E+03  0.92212689905E+02 0.  0.
          5    1    3    3  502    0  0.31389838241E+02 -0.39314320189E+02  0.31149544573E+02  0.59357576128E+02  0.47000000000E+01 0. -1.
         -5    1    4    4    0  503  0.13573236796E+02  0.28672569014E+02  0.14952838811E+02  0.35383984505E+02  0.47000000000E+01 0.  1.
          5    1    4    4  503    0 -0.61412669361E+02 -0.23669698542E+02 -0.19142090549E+02  0.68704295482E+02  0.47000000000E+01 0. -1.
         -5    1    3    3    0  502  0.16449594324E+02  0.34311449717E+02  0.93900562179E+02  0.10142618159E+03  0.47000000000E+01 0.  1.
<mgrwt>
<rscale>  0 0.10326098E+03</rscale>
<asrwt>0</asrwt>
<pdfrwt beam="1">  1        3 0.11077783E-01 0.10400394E+03</pdfrwt>
<pdfrwt beam="2">  1       -3 0.29671761E-01 0.10400394E+03</pdfrwt>
<totfact> 0.14931984E+03</totfact>
</mgrwt>
</event>
<event>
 8    1  0.5224537E-004  0.1048299E+03  0.7546771E-02  0.1274073E+00
          1   -1    0    0  501    0  0.00000000000E+00  0.00000000000E+00  0.62471072577E+03  0.62471072577E+03  0.00000000000E+00 0. -1.
         -1   -1    0    0    0  501 -0.00000000000E+00 -0.00000000000E+00 -0.16499552651E+02  0.16499552651E+02  0.00000000000E+00 0.  1.
         23    2    1    2    0    0  0.35638947164E+02  0.46299301056E+01  0.31490228392E+03  0.32973090124E+03  0.90925508020E+02 0.  0.
         23    2    1    2    0    0 -0.35638947164E+02 -0.46299301056E+01  0.29330888920E+03  0.31147937718E+03  0.98477038524E+02 0.  0.
          5    1    4    4  502    0 -0.66163797604E+01  0.23037080506E+02  0.11864147396E+02  0.27153849686E+02  0.47000000000E+01 0. -1.
         -5    1    4    4    0  502 -0.29022567404E+02 -0.27667010611E+02  0.28144474180E+03  0.28432552749E+03  0.47000000000E+01 0.  1.
          5    1    3    3  503    0  0.30207113209E+02  0.24712013600E+02  0.30253186205E+03  0.30507502497E+03  0.47000000000E+01 0. -1.
         -5    1    3    3    0  503  0.54318339557E+01 -0.20082083494E+02  0.12370421870E+02  0.24655876274E+02  0.47000000000E+01 0.  1.
<mgrwt>
<rscale>  0 0.10301854E+03</rscale>
<asrwt>0</asrwt>
<pdfrwt beam="1">  1        1 0.96109324E-01 0.10482985E+03</pdfrwt>
<pdfrwt beam="2">  1       -1 0.25383932E-02 0.10482985E+03</pdfrwt>
<totfact> 0.14911154E+04</totfact>
</mgrwt>
</event>
<event>
 8    1  0.5224537E-004  0.1080147E+03  0.7546771E-02  0.1264786E+00
         -1   -1    0    0    0  501 -0.00000000000E+00  0.00000000000E+00  0.39340292211E+02  0.39340292211E+02  0.00000000000E+00 0.  1.
          1   -1    0    0  501    0  0.00000000000E+00 -0.00000000000E+00 -0.29496979219E+03  0.29496979219E+03  0.00000000000E+00 0. -1.
         23    2    1    2    0    0  0.39022915017E+02  0.43570556308E+02 -0.11634911159E+03  0.15805402706E+03  0.89569963879E+02 0.  0.
         23    2    1    2    0    0 -0.39022915017E+02 -0.43570556308E+02 -0.13928038839E+03  0.17625605734E+03  0.90807432988E+02 0.  0.
          5    1    4    4  502    0 -0.31882225282E+02 -0.66159844215E+02 -0.65136646009E+02  0.98277535219E+02  0.47000000000E+01 0. -1.
         -5    1    3    3    0  503 -0.26589177269E+02  0.13513034765E+02 -0.15463302001E+02  0.33923298265E+02  0.47000000000E+01 0.  1.
          5    1    3    3  503    0  0.65612092285E+02  0.30057521543E+02 -0.10088580959E+03  0.12413072880E+03  0.47000000000E+01 0. -1.
         -5    1    4    4    0  502 -0.71406897350E+01  0.22589287906E+02 -0.74143742383E+02  0.77978522123E+02  0.47000000000E+01 0.  1.
<mgrwt>
<rscale>  0 0.10775418E+03</rscale>
<asrwt>0</asrwt>
<pdfrwt beam="1">  1        1 0.45379968E-01 0.10801468E+03</pdfrwt>
<pdfrwt beam="2">  1       -1 0.60523527E-02 0.10801468E+03</pdfrwt>
<totfact> 0.10936396E+04</totfact>
</mgrwt>
</event>
<event>
 8    1  0.5224537E-004  0.1633672E+03  0.7546771E-02  0.1185003E+00
          3   -1    0    0  501    0  0.00000000000E+00  0.00000000000E+00  0.51547091177E+02  0.51547091177E+02  0.00000000000E+00 0. -1.
         -3   -1    0    0    0  501 -0.00000000000E+00 -0.00000000000E+00 -0.52306150390E+03  0.52306150390E+03  0.00000000000E+00 0.  1.
         23    2    1    2    0    0 -0.25937959777E+02 -0.13244536448E+03 -0.20496249090E+03  0.26197661709E+03  0.91692818144E+02 0.  0.
         23    2    1    2    0    0  0.25937959777E+02  0.13244536448E+03 -0.26655192182E+03  0.31263197798E+03  0.92055821656E+02 0.  0.
          5    1    3    3  502    0 -0.29108844570E+02 -0.28265324269E+02 -0.11929933368E+02  0.42551929432E+02  0.47000000000E+01 0. -1.
         -5    1    3    3    0  502  0.31708847928E+01 -0.10418004021E+03 -0.19303255753E+03  0.21942468766E+03  0.47000000000E+01 0.  1.
          5    1    4    4  503    0 -0.10883146429E+02  0.64253761864E+02 -0.49086440617E+02  0.81722441485E+02  0.47000000000E+01 0. -1.
         -5    1    4    4    0  503  0.36821106206E+02  0.68191602613E+02 -0.21746548121E+03  0.23090953650E+03  0.47000000000E+01 0.  1.
<mgrwt>
<rscale>  0 0.16331606E+03</rscale>
<asrwt>0</asrwt>
<pdfrwt beam="1">  1        3 0.79303214E-02 0.16336715E+03</pdfrwt>
<pdfrwt beam="2">  1       -3 0.80471004E-01 0.16336715E+03</pdfrwt>
<totfact> 0.37954123E+02</totfact>
</mgrwt>
</event>
<event>
 8    1  0.5224537E-004  0.1002916E+03  0.7546771E-02  0.1280043E+00
          3   -1    0    0  501    0  0.00000000000E+00  0.00000000000E+00  0.24434880835E+03  0.24434880835E+03  0.00000000000E+00 0. -1.
         -3   -1    0    0    0  501 -0.00000000000E+00 -0.00000000000E+00 -0.73149542475E+03  0.73149542475E+03  0.00000000000E+00 0.  1.
         23    2    1    2    0    0 -0.39408435812E+02  0.12105953265E+02 -0.71771047839E+03  0.72468389324E+03  0.91426666841E+02 0.  0.
         23    2    1    2    0    0  0.39408435812E+02 -0.12105953265E+02  0.23056386199E+03  0.25116033986E+03  0.90676584311E+02 0.  0.
          5    1    4    4  502    0 -0.20889174927E+02 -0.58275017343E+01  0.14205213789E+03  0.14377488405E+03  0.47000000000E+01 0. -1.
         -5    1    3    3    0  503  0.24768759682E+02 -0.16035848843E+02 -0.23455179018E+03  0.23644718687E+03  0.47000000000E+01 0.  1.
          5    1    3    3  503    0 -0.64177195493E+02  0.28141802108E+02 -0.48315868822E+03  0.48823670637E+03  0.47000000000E+01 0. -1.
         -5    1    4    4    0  502  0.60297610739E+02 -0.62784515306E+01  0.88511724106E+02  0.10738545581E+03  0.47000000000E+01 0.  1.
<mgrwt>
<rscale>  0 0.10012038E+03</rscale>
<asrwt>0</asrwt>
<pdfrwt beam="1">  1        3 0.37592125E-01 0.10029165E+03</pdfrwt>
<pdfrwt beam="2">  1       -3 0.11253776E+00 0.10029165E+03</pdfrwt>
<totfact> 0.11313382E+01</totfact>
</mgrwt>
</event>
<event>
 8    1  0.5224537E-004  0.1565980E+03  0.7546771E-02  0.1194175E+00
         -1   -1    0    0    0  501 -0.00000000000E+00  0.00000000000E+00  0.28685874134E+02  0.28685874134E+02  0.00000000000E+00 0.  1.
          1   -1    0    0  501    0  0.00000000000E+00 -0.00000000000E+00 -0.86687440802E+03  0.86687440802E+03  0.00000000000E+00 0. -1.
         23    2    1    2    0    0  0.76635520061E+02  0.94206403310E+02 -0.31484088497E+03  0.34928591357E+03  0.90155516817E+02 0.  0.
         23    2    1    2    0    0 -0.76635520061E+02 -0.94206403310E+02 -0.52334764892E+03  0.54627436858E+03  0.98868977855E+02 0.  0.
          5    1    3    3  502    0  0.49986313960E+02  0.10928618419E+03 -0.25107520149E+03  0.27839351365E+03  0.47000000000E+01 0. -1.
         -5    1    3    3    0  502  0.26649206101E+02 -0.15079780883E+02 -0.63765683483E+02  0.70892399926E+02  0.47000000000E+01 0.  1.
          5    1    4    4  503    0 -0.52090586841E+02 -0.60891715793E+02 -0.47804685059E+03  0.48473922025E+03  0.47000000000E+01 0. -1.
         -5    1    4    4    0  503 -0.24544933220E+02 -0.33314687517E+02 -0.45300798329E+02  0.61535148333E+02  0.47000000000E+01 0.  1.
<mgrwt>
<rscale>  0 0.15524292E+03</rscale>
<asrwt>0</asrwt>
<pdfrwt beam="1">  1        1 0.13336528E+00 0.15659797E+03</pdfrwt>
<pdfrwt beam="2">  1       -1 0.44132118E-02 0.15659797E+03</pdfrwt>
<totfact> 0.42287735E+03</totfact>
</mgrwt>
</event>
<event>
 8    1  0.5224537E-004  0.1152579E+03  0.7546771E-02  0.1253674E+00
          2   -1    0    0  501    0  0.00000000000E+00  0.00000000000E+00  0.98288178297E+03  0.98288178297E+03  0.00000000000E+00 0. -1.
         -2   -1    0    0    0  501 -0.00000000000E+00 -0.00000000000E+00 -0.28162939096E+02  0.28162939096E+02  0.00000000000E+00 0.  1.
         23    2    1    2    0    0 -0.22404003867E+02  0.54304164888E+02  0.99230386455E+02  0.14782697195E+03  0.92494661074E+02 0.  0.
         23    2    1    2    0    0  0.22404003867E+02 -0.54304164888E+02  0.85548845742E+03  0.86321775011E+03  0.99164013730E+02 0.  0.
          5    1    4    4  502    0  0.49985011530E+02 -0.65932965662E+02  0.69208110090E+03  0.69702510540E+03  0.47000000000E+01 0. -1.
         -5    1    4    4    0  502 -0.27581007663E+02  0.11628800774E+02  0.16340735652E+03  0.16619264471E+03  0.47000000000E+01 0.  1.
          5    1    3    3  503    0 -0.17594705182E+02  0.80202574106E+02  0.68110211593E+02  0.10678538040E+03  0.47000000000E+01 0.  1.
         -5    1    3    3    0  503 -0.48092986852E+01 -0.25898409218E+02  0.31120174861E+02  0.41041591553E+02  0.47000000000E+01 0. -1.
<mgrwt>
<rscale>  0 0.11380949E+03</rscale>
<asrwt>0</asrwt>
<pdfrwt beam="1">  1        2 0.15121256E+00 0.11525790E+03</pdfrwt>
<pdfrwt beam="2">  1       -2 0.43327606E-02 0.11525790E+03</pdfrwt>
<totfact> 0.63190505E+03</totfact>
</mgrwt>
</event>
<event>
 8    1  0.5224537E-004  0.2430319E+03  0.7546771E-02  0.1117812E+00
          2   -1    0    0  501    0  0.00000000000E+00  0.00000000000E+00  0.53732553799E+03  0.53732553799E+03  0.00000000000E+00 0. -1.
         -2   -1    0    0    0  501 -0.00000000000E+00 -0.00000000000E+00 -0.19717087836E+03  0.19717087836E+03  0.00000000000E+00 0.  1.
         23    2    1    2    0    0  0.20162495385E+02 -0.22294980641E+03 -0.74334148141E+02  0.25401179749E+03  0.94251181883E+02 0.  0.
         23    2    1    2    0    0 -0.20162495385E+02  0.22294980641E+03  0.41448880777E+03  0.48048461885E+03  0.94611599654E+02 0.  0.
          5    1    3    3  502    0 -0.29223411783E+01 -0.65308736373E+02  0.20336193478E+02  0.68625227794E+02  0.47000000000E+01 0. -1.
         -5    1    3    3    0  502  0.23084836564E+02 -0.15764107003E+03 -0.94670341620E+02  0.18538656969E+03  0.47000000000E+01 0.  1.
          5    1    4    4  503    0 -0.10291452316E+02  0.17359030029E+03  0.38369739951E+03  0.42129003161E+03  0.47000000000E+01 0. -1.
         -5    1    4    4    0  503 -0.98710430697E+01  0.49359506121E+02  0.30791408258E+02  0.59194587239E+02  0.47000000000E+01 0.  1.
<mgrwt>
<rscale>  0 0.24299686E+03</rscale>
<asrwt>0</asrwt>
<pdfrwt beam="1">  1        2 0.82665467E-01 0.24303189E+03</pdfrwt>
<pdfrwt beam="2">  1       -2 0.30333982E-01 0.24303189E+03</pdfrwt>
<totfact> 0.57777649E+02</totfact>
</mgrwt>
</event>
<event>
 8    1  0.5224537E-004  0.1045787E+03  0.7546771E-02  0.1273056E+00
          2   -1    0    0  501    0  0.00000000000E+00  0.00000000000E+00  0.80181014875E+03  0.80181014875E+03  0.00000000000E+00 0. -1.
         -2   -1    0    0    0  501 -0.00000000000E+00 -0.00000000000E+00 -0.13624798096E+02  0.13624798096E+02  0.00000000000E+00 0.  1.
         23    2    1    2    0    0 -0.44367729748E+02  0.11140888370E+02  0.32202088237E+03  0.33857666815E+03  0.94043057683E+02 0.  0.
         23    2    1    2    0    0  0.44367729748E+02 -0.11140888370E+02  0.46616446828E+03  0.47685827869E+03  0.89397380446E+02 0.  0.
          5    1    3    3  502    0 -0.28699983432E+02 -0.14639088352E+02  0.29788031142E+03  0.29965440408E+03  0.47000000000E+01 0. -1.
         -5    1    3    3    0  502 -0.15667746316E+02  0.25779976722E+02  0.24140570956E+02  0.38922264072E+02  0.47000000000E+01 0.  1.
          5    1    4    4  503    0  0.36898113541E+02 -0.36838576039E+02  0.42031437353E+03  0.42356205456E+03  0.47000000000E+01 0. -1.
         -5    1    4    4    0  503  0.74696162069E+01  0.25697687669E+02  0.45850094751E+02  0.53296224130E+02  0.47000000000E+01 0.  1.
<mgrwt>
<rscale>  0 0.10352360E+03</rscale>
<asrwt>0</asrwt>
<pdfrwt beam="1">  1        2 0.12335537E+00 0.10457873E+03</pdfrwt>
<pdfrwt beam="2">  1       -2 0.20961234E-02 0.10457873E+03</pdfrwt>
<totfact> 0.23598542E+04</totfact>
</mgrwt>
</event>
<event>
 8    1  0.5224537E-004  0.9356069E+02  0.7546771E-02  0.1295632E+00
          2   -1    0    0  501    0  0.00000000000E+00  0.00000000000E+00  0.13392252756E+03  0.13392252756E+03  0.00000000000E+00 0. -1.
         -2   -1    0    0    0  501 -0.00000000000E+00 -0.00000000000E+00 -0.77492909497E+02  0.77492909497E+02  0.00000000000E+00 0.  1.
         23    2    1    2    0    0 -0.93910165915E+01  0.33136234656E+01  0.72144408374E+02  0.11654417122E+03  0.90986575338E+02 0.  0.
         23    2    1    2    0    0  0.93910165915E+01 -0.33136234656E+01 -0.15714790315E+02  0.94871265837E+02  0.93029195169E+02 0.  0.
          5    1    3    3  502    0  0.47770774962E+01 -0.19827996157E+02  0.83995628529E+02  0.86563996633E+02  0.47000000000E+01 0. -1.
         -5    1    4    4    0  503 -0.17584416974E+02  0.24005562356E+02 -0.39338011877E+02  0.49548440165E+02  0.47000000000E+01 0.  1.
          5    1    4    4  503    0  0.26975433566E+02 -0.27319185821E+02  0.23623221562E+02  0.45322825673E+02  0.47000000000E+01 0. -1.
         -5    1    3    3    0  502 -0.14168094088E+02  0.23141619622E+02 -0.11851220156E+02  0.29980174583E+02  0.47000000000E+01 0.  1.
<mgrwt>
<rscale>  0 0.93048814E+02</rscale>
<asrwt>0</asrwt>
<pdfrwt beam="1">  1        2 0.20603466E-01 0.93560689E+02</pdfrwt>
<pdfrwt beam="2">  1       -2 0.11921986E-01 0.93560689E+02</pdfrwt>
<totfact> 0.12137400E+04</totfact>
</mgrwt>
</event>
<event>
 8    1  0.5224537E-004  0.1433538E+03  0.7546771E-02  0.1210289E+00
         -2   -1    0    0    0  501 -0.00000000000E+00  0.00000000000E+00  0.10191469941E+03  0.10191469941E+03  0.00000000000E+00 0.  1.
          2   -1    0    0  501    0  0.00000000000E+00 -0.00000000000E+00 -0.26329979542E+03  0.26329979542E+03  0.00000000000E+00 0. -1.
         23    2    1    2    0    0 -0.84381401294E+02 -0.60869205346E+02  0.12704873085E+02  0.13969811783E+03  0.92351877526E+02 0.  0.
         23    2    1    2    0    0  0.84381401294E+02  0.60869205346E+02 -0.17408996910E+03  0.22551637700E+03  0.98615606833E+02 0.  0.
          5    1    4    4  502    0  0.69465735814E+02  0.23929136570E+01 -0.13917462648E+03  0.15563701727E+03  0.47000000000E+01 0. -1.
         -5    1    4    4    0  502  0.14915665480E+02  0.58476291689E+02 -0.34915342614E+02  0.69879359730E+02  0.47000000000E+01 0.  1.
          5    1    3    3  503    0  0.14224995237E+02 -0.30810161988E+02 -0.61202296782E+01  0.34801778439E+02  0.47000000000E+01 0. -1.
         -5    1    3    3    0  503 -0.98606396531E+02 -0.30059043358E+02  0.18825102763E+02  0.10489633939E+03  0.47000000000E+01 0.  1.
<mgrwt>
<rscale>  0 0.14228323E+03</rscale>
<asrwt>0</asrwt>
<pdfrwt beam="1">  1        2 0.40507660E-01 0.14335382E+03</pdfrwt>
<pdfrwt beam="2">  1       -2 0.15679185E-01 0.14335382E+03</pdfrwt>
<totfact> 0.38688847E+03</totfact>
</mgrwt>
</event>
<event>
 8    1  0.5224537E-004  0.1030267E+03  0.7546771E-02  0.1279253E+00
          1   -1    0    0  501    0  0.00000000000E+00  0.00000000000E+00  0.26763326795E+03  0.26763326795E+03  0.00000000000E+00 0. -1.
         -1   -1    0    0    0  501 -0.00000000000E+00 -0.00000000000E+00 -0.37484590588E+02  0.37484590588E+02  0.00000000000E+00 0.  1.
         23    2    1    2    0    0  0.79442992501E+01  0.45947622412E+02  0.79222959969E+02  0.12238015730E+03  0.80785701824E+02 0.  0.
         23    2    1    2    0    0 -0.79442992501E+01 -0.45947622412E+02  0.15092571740E+03  0.18273770124E+03  0.91870557780E+02 0.  0.
          5    1    4    4  502    0 -0.49323397537E+02 -0.32426353524E+02  0.88828267502E+02  0.10675587597E+03  0.47000000000E+01 0. -1.
         -5    1    3    3    0  503 -0.32596617882E+02  0.37397671640E+02  0.31258916173E+02  0.58824613741E+02  0.47000000000E+01 0. -1.
          5    1    3    3  503    0  0.40540917132E+02  0.85499507720E+01  0.47964043797E+02  0.63555543562E+02  0.47000000000E+01 0.  1.
         -5    1    4    4    0  502  0.41379098287E+02 -0.13521268887E+02  0.62097449894E+02  0.75981825265E+02  0.47000000000E+01 0.  1.
<mgrwt>
<rscale>  0 0.10049769E+03</rscale>
<asrwt>0</asrwt>
<pdfrwt beam="1">  1        1 0.41174348E-01 0.10302667E+03</pdfrwt>
<pdfrwt beam="2">  1       -1 0.57668603E-02 0.10302667E+03</pdfrwt>
<totfact> 0.13177872E+04</totfact>
</mgrwt>
</event>
<event>
 8    1  0.5224537E-004  0.1104977E+03  0.7546771E-02  0.1262180E+00
          2   -1    0    0  501    0  0.00000000000E+00  0.00000000000E+00  0.19909252095E+04  0.19909252095E+04  0.00000000000E+00 0. -1.
         -2   -1    0    0    0  501 -0.00000000000E+00 -0.00000000000E+00 -0.58393770758E+01  0.58393770758E+01  0.00000000000E+00 0.  1.
         23    2    1    2    0    0 -0.58692777112E+02 -0.12512784832E+02  0.10152542375E+04  0.10212496816E+04  0.92781105005E+02 0.  0.
         23    2    1    2    0    0  0.58692777112E+02  0.12512784832E+02  0.96983159488E+03  0.97551490498E+03  0.86339999620E+02 0.  0.
          5    1    3    3  502    0  0.18733670535E+02  0.18311912706E+02  0.20957907405E+03  0.21126228920E+03  0.47000000000E+01 0. -1.
         -5    1    3    3    0  502 -0.77426447646E+02 -0.30824697538E+02  0.80567516348E+03  0.80998739238E+03  0.47000000000E+01 0.  1.
          5    1    4    4  503    0  0.73413317457E+02 -0.13516979180E+02  0.70747667427E+03  0.71141939708E+03  0.47000000000E+01 0. -1.
         -5    1    4    4    0  503 -0.14720540345E+02  0.26029764012E+02  0.26235492061E+03  0.26409550790E+03  0.47000000000E+01 0.  1.
<mgrwt>
<rscale>  0 0.10913518E+03</rscale>
<asrwt>0</asrwt>
<pdfrwt beam="1">  1        2 0.30629565E+00 0.11049772E+03</pdfrwt>
<pdfrwt beam="2">  1       -2 0.89836729E-03 0.11049772E+03</pdfrwt>
<totfact> 0.18025906E+04</totfact>
</mgrwt>
</event>
<event>
 8    1  0.5224537E-004  0.1779570E+03  0.7546771E-02  0.1170159E+00
         -2   -1    0    0    0  501 -0.00000000000E+00  0.00000000000E+00  0.86713205447E+03  0.86713205447E+03  0.00000000000E+00 0.  1.
          2   -1    0    0  501    0  0.00000000000E+00 -0.00000000000E+00 -0.82694792351E+02  0.82694792351E+02  0.00000000000E+00 0. -1.
         23    2    1    2    0    0 -0.34165266651E+02 -0.14747578001E+03  0.74753360478E+03  0.76808365537E+03  0.90717364529E+02 0.  0.
         23    2    1    2    0    0  0.34165266651E+02  0.14747578001E+03  0.36903657333E+02  0.18174319145E+03  0.93553923382E+02 0.  0.
          5    1    4    4  502    0  0.30490598122E+02  0.29113190008E+02  0.46379366043E+02  0.62852128053E+02  0.47000000000E+01 0.  1.
         -5    1    4    4    0  502  0.36746685285E+01  0.11836259000E+03 -0.94757087097E+01  0.11889106340E+03  0.47000000000E+01 0. -1.
          5    1    3    3  503    0  0.18228344072E+02 -0.66235650829E+02  0.18740815384E+03  0.19965805792E+03  0.47000000000E+01 0. -1.
         -5    1    3    3    0  503 -0.52393610722E+02 -0.81240129180E+02  0.56012545095E+03  0.56842559745E+03  0.47000000000E+01 0.  1.
<mgrwt>
<rscale>  0 0.17758721E+03</rscale>
<asrwt>0</asrwt>
<pdfrwt beam="1">  1        2 0.12722276E-01 0.17795704E+03</pdfrwt>
<pdfrwt beam="2">  1       -2 0.13340492E+00 0.17795704E+03</pdfrwt>
<totfact> 0.20371891E+02</totfact>
</mgrwt>
</event>
<event>
 8    1  0.5224537E-004  0.2046913E+03  0.7546771E-02  0.1146069E+00
          3   -1    0    0  501    0  0.00000000000E+00  0.00000000000E+00  0.31725649798E+03  0.31725649798E+03  0.00000000000E+00 0. -1.
         -3   -1    0    0    0  501 -0.00000000000E+00 -0.00000000000E+00 -0.13764102299E+03  0.13764102299E+03  0.00000000000E+00 0.  1.
         23    2    1    2    0    0  0.88085293805E+02 -0.15988027139E+03  0.40936270122E+02  0.20765179640E+03  0.90126412168E+02 0.  0.
         23    2    1    2    0    0 -0.88085293805E+02  0.15988027139E+03  0.13867920487E+03  0.24724572458E+03  0.92616447207E+02 0.  0.
          5    1    3    3  502    0  0.11297713395E+02 -0.11261176225E+03  0.21774829926E+02  0.11534851773E+03  0.47000000000E+01 0. -1.
         -5    1    3    3    0  502  0.76787580410E+02 -0.47268509142E+02  0.19161440196E+02  0.92303278664E+02  0.47000000000E+01 0.  1.
          5    1    4    4  503    0 -0.55937473054E+02  0.15207719431E+03  0.82528187705E+02  0.18190510077E+03  0.47000000000E+01 0. -1.
         -5    1    4    4    0  503 -0.32147820751E+02  0.78030770849E+01  0.56151017164E+02  0.65340623808E+02  0.47000000000E+01 0.  1.
<mgrwt>
<rscale>  0 0.20441209E+03</rscale>
<asrwt>0</asrwt>
<pdfrwt beam="1">  1        3 0.48808692E-01 0.20469130E+03</pdfrwt>
<pdfrwt beam="2">  1       -3 0.21175542E-01 0.20469130E+03</pdfrwt>
<totfact> 0.20817071E+02</totfact>
</mgrwt>
</event>
<event>
 8    1  0.5224537E-004  0.9813856E+02  0.7546771E-02  0.1285962E+00
         -1   -1    0    0    0  501 -0.00000000000E+00  0.00000000000E+00  0.68070423987E+01  0.68070423987E+01  0.00000000000E+00 0.  1.
          1   -1    0    0  501    0  0.00000000000E+00 -0.00000000000E+00 -0.13820746192E+04  0.13820746192E+04  0.00000000000E+00 0. -1.
         23    2    1    2    0    0 -0.19442816294E+02  0.25810673119E+02 -0.63501989773E+03  0.64255851730E+03  0.92665871224E+02 0.  0.
         23    2    1    2    0    0  0.19442816294E+02 -0.25810673119E+02 -0.74024767913E+03  0.74632314435E+03  0.89372229431E+02 0.  0.
          5    1    4    4  502    0  0.36476390639E+01  0.32453460348E+02 -0.32749394525E+03  0.32915179862E+03  0.47000000000E+01 0. -1.
         -5    1    3    3    0  503  0.35106290658E+02  0.44170143516E+01 -0.16109097499E+03  0.16499804206E+03  0.47000000000E+01 0.  1.
          5    1    3    3  503    0 -0.54549106952E+02  0.21393658768E+02 -0.47392892273E+03  0.47756047524E+03  0.47000000000E+01 0. -1.
         -5    1    4    4    0  502  0.15795177230E+02 -0.58264133467E+02 -0.41275373388E+03  0.41717134573E+03  0.47000000000E+01 0.  1.
<mgrwt>
<rscale>  0 0.97353241E+02</rscale>
<asrwt>0</asrwt>
<pdfrwt beam="1">  1        1 0.21262715E+00 0.98138563E+02</pdfrwt>
<pdfrwt beam="2">  1       -1 0.10472359E-02 0.98138563E+02</pdfrwt>
<totfact> 0.14280239E+04</totfact>
</mgrwt>
</event>
<event>
 8    1  0.5224537E-004  0.1206142E+03  0.7546771E-02  0.1243423E+00
          2   -1    0    0  501    0  0.00000000000E+00  0.00000000000E+00  0.47239483400E+03  0.47239483400E+03  0.00000000000E+00 0. -1.
         -2   -1    0    0    0  501 -0.00000000000E+00 -0.00000000000E+00 -0.11018117220E+03  0.11018117220E+03  0.00000000000E+00 0.  1.
         23    2    1    2    0    0  0.50440731040E+02  0.54447176216E+02 -0.68069493472E+02  0.13570760368E+03  0.90963374006E+02 0.  0.
         23    2    1    2    0    0 -0.50440731040E+02 -0.54447176216E+02  0.43028315528E+03  0.44686840251E+03  0.95073724557E+02 0.  0.
          5    1    3    3  502    0  0.51048337510E+02  0.11084868495E+00 -0.37873924574E+01  0.51404079523E+02  0.47000000000E+01 0. -1.
         -5    1    4    4    0  503 -0.25918560633E+02  0.24177283604E+02  0.92813458951E+02  0.99462259125E+02  0.47000000000E+01 0.  1.
          5    1    4    4  503    0 -0.24522170407E+02 -0.78624459821E+02  0.33746969632E+03  0.34740614338E+03  0.47000000000E+01 0. -1.
         -5    1    3    3    0  502 -0.60760646997E+00  0.54336327531E+02 -0.64282101015E+02  0.84303524162E+02  0.47000000000E+01 0.  1.
<mgrwt>
<rscale>  0 0.11980283E+03</rscale>
<asrwt>0</asrwt>
<pdfrwt beam="1">  1        2 0.72676127E-01 0.12061416E+03</pdfrwt>
<pdfrwt beam="2">  1       -2 0.16950950E-01 0.12061416E+03</pdfrwt>
<totfact> 0.18126499E+03</totfact>
</mgrwt>
</event>
<event>
 8    1  0.5224537E-004  0.1031331E+03  0.7546771E-02  0.1281076E+00
          1   -1    0    0  501    0  0.00000000000E+00  0.00000000000E+00  0.67757545102E+03  0.67757545102E+03  0.00000000000E+00 0. -1.
         -1   -1    0    0    0  501 -0.00000000000E+00 -0.00000000000E+00 -0.20747210938E+02  0.20747210938E+02  0.00000000000E+00 0.  1.
         23    2    1    2    0    0 -0.24535001329E+01  0.34543903971E+01  0.14077286290E+03  0.17450914845E+03  0.10304606489E+03 0.  0.
         23    2    1    2    0    0  0.24535001329E+01 -0.34543903971E+01  0.51605537718E+03  0.52381351351E+03  0.89718961970E+02 0.  0.
          5    1    4    4  502    0 -0.21182597869E+02 -0.40278438634E+02  0.25351134720E+03  0.25760657645E+03  0.47000000000E+01 0. -1.
         -5    1    3    3    0  503  0.37951102948E+02  0.29777308588E+02  0.40565213275E+02  0.63202854759E+02  0.47000000000E+01 0.  1.
          5    1    3    3  503    0 -0.40404603081E+02 -0.26322918190E+02  0.10020764963E+03  0.11130629369E+03  0.47000000000E+01 0. -1.
         -5    1    4    4    0  502  0.23636098002E+02  0.36824048237E+02  0.26254402999E+03  0.26620693706E+03  0.47000000000E+01 0.  1.
<mgrwt>
<rscale>  0 0.99630124E+02</rscale>
<asrwt>0</asrwt>
<pdfrwt beam="1">  1        1 0.10424236E+00 0.10313314E+03</pdfrwt>
<pdfrwt beam="2">  1       -1 0.31918791E-02 0.10313314E+03</pdfrwt>
<totfact> 0.95633995E+03</totfact>
</mgrwt>
</event>
<event>
 8    1  0.5224537E-004  0.1023532E+03  0.7546771E-02  0.1275970E+00
         -1   -1    0    0    0  501 -0.00000000000E+00  0.00000000000E+00  0.65550508054E+02  0.65550508054E+02  0.00000000000E+00 0.  1.
          1   -1    0    0  501    0  0.00000000000E+00 -0.00000000000E+00 -0.21189986174E+03  0.21189986174E+03  0.00000000000E+00 0. -1.
         23    2    1    2    0    0 -0.15468382032E+02  0.44420420455E+02 -0.14332105968E+03  0.17611670476E+03  0.90905021607E+02 0.  0.
         23    2    1    2    0    0  0.15468382032E+02 -0.44420420455E+02 -0.30282940074E+01  0.10133366503E+03  0.89704495471E+02 0.  0.
          5    1    3    3  502    0 -0.19971846924E+02  0.12623943985E+02  0.47299113969E+01  0.24549963200E+02  0.47000000000E+01 0.  1.
         -5    1    4    4    0  503 -0.36045560505E+02 -0.19339813417E+02 -0.12588597361E+02  0.43056632458E+02  0.47000000000E+01 0.  1.
          5    1    4    4  503    0  0.51513942537E+02 -0.25080607038E+02  0.95603033533E+01  0.58277032572E+02  0.47000000000E+01 0. -1.
         -5    1    3    3    0  502  0.45034648916E+01  0.31796476469E+02 -0.14805097108E+03  0.15156674156E+03  0.47000000000E+01 0. -1.
<mgrwt>
<rscale>  0 0.10208592E+03</rscale>
<asrwt>0</asrwt>
<pdfrwt beam="1">  1        1 0.32599979E-01 0.10235315E+03</pdfrwt>
<pdfrwt beam="2">  1       -1 0.10084693E-01 0.10235315E+03</pdfrwt>
<totfact> 0.76067335E+03</totfact>
</mgrwt>
</event>
<event>
 8    1  0.5224537E-004  0.2088387E+03  0.7546771E-02  0.1143378E+00
         -1   -1    0    0    0  501 -0.00000000000E+00  0.00000000000E+00  0.68361070523E+03  0.68361070523E+03  0.00000000000E+00 0.  1.
          1   -1    0    0  501    0  0.00000000000E+00 -0.00000000000E+00 -0.63210123927E+02  0.63210123927E+02  0.00000000000E+00 0. -1.
         23    2    1    2    0    0  0.37385289248E+02 -0.17906833732E+03  0.34762069886E+03  0.40327683758E+03  0.91262961634E+02 0.  0.
         23    2    1    2    0    0 -0.37385289248E+02  0.17906833732E+03  0.27277988244E+03  0.34354399158E+03  0.10074959357E+03 0.  0.
          5    1    4    4  502    0 -0.13759038733E+02  0.62325739501E+02  0.25236339644E+02  0.68795143650E+02  0.47000000000E+01 0. -1.
         -5    1    3    3    0  503  0.41580269148E+02 -0.12576034435E+03  0.31164299965E+03  0.33865621540E+03  0.47000000000E+01 0.  1.
          5    1    3    3  503    0 -0.41949798999E+01 -0.53307992967E+02  0.35977699207E+02  0.64620622179E+02  0.47000000000E+01 0. -1.
         -5    1    4    4    0  502 -0.23626250515E+02  0.11674259782E+03  0.24754354280E+03  0.27474884793E+03  0.47000000000E+01 0.  1.
<mgrwt>
<rscale>  0 0.20772797E+03</rscale>
<asrwt>0</asrwt>
<pdfrwt beam="1">  1        1 0.97246349E-02 0.20883872E+03</pdfrwt>
<pdfrwt beam="2">  1       -1 0.10517087E+00 0.20883872E+03</pdfrwt>
<totfact> 0.59866827E+02</totfact>
</mgrwt>
</event>
<event>
 8    1  0.5224537E-004  0.1168869E+03  0.7546771E-02  0.1248631E+00
         -2   -1    0    0    0  501 -0.00000000000E+00  0.00000000000E+00  0.33507740323E+02  0.33507740323E+02  0.00000000000E+00 0.  1.
          2   -1    0    0  501    0  0.00000000000E+00 -0.00000000000E+00 -0.51850105163E+03  0.51850105163E+03  0.00000000000E+00 0. -1.
         23    2    1    2    0    0  0.44220964586E+02 -0.56449991974E+02 -0.37207752509E+03  0.39000541867E+03  0.92306265321E+02 0.  0.
         23    2    1    2    0    0 -0.44220964586E+02  0.56449991974E+02 -0.11291578622E+03  0.16200337328E+03  0.91394873346E+02 0.  0.
          5    1    3    3  502    0  0.19672236523E+02 -0.56892207305E+02 -0.35410696982E+03  0.35921797869E+03  0.47000000000E+01 0. -1.
         -5    1    3    3    0  502  0.24548728063E+02  0.44221533125E+00 -0.17970555267E+02  0.30787439980E+02  0.47000000000E+01 0.  1.
          5    1    4    4  503    0 -0.61552929726E+01  0.68714725455E+02 -0.96034979549E+02  0.11834022318E+03  0.47000000000E+01 0. -1.
         -5    1    4    4    0  503 -0.38065671613E+02 -0.12264733481E+02 -0.16880806675E+02  0.43663150101E+02  0.47000000000E+01 0.  1.
<mgrwt>
<rscale>  0 0.11670686E+03</rscale>
<asrwt>0</asrwt>
<pdfrwt beam="1">  1        2 0.79769399E-01 0.11688688E+03</pdfrwt>
<pdfrwt beam="2">  1       -2 0.51550365E-02 0.11688688E+03</pdfrwt>
<totfact> 0.10510571E+04</totfact>
</mgrwt>
</event>
<event>
 8    1  0.5224537E-004  0.1409875E+03  0.7546771E-02  0.1212648E+00
         -2   -1    0    0    0  501 -0.00000000000E+00  0.00000000000E+00  0.23356298478E+02  0.23356298478E+02  0.00000000000E+00 0.  1.
          2   -1    0    0  501    0  0.00000000000E+00 -0.00000000000E+00 -0.90749857336E+03  0.90749857336E+03  0.00000000000E+00 0. -1.
         23    2    1    2    0    0 -0.68837598119E+02  0.79182965054E+02 -0.57220256604E+03  0.58931592630E+03  0.94174983650E+02 0.  0.
         23    2    1    2    0    0  0.68837598119E+02 -0.79182965054E+02 -0.31193970884E+03  0.34153894553E+03  0.91290265050E+02 0.  0.
          5    1    3    3  502    0 -0.42966593160E+02  0.54017688308E+02 -0.52585151712E+03  0.53038283045E+03  0.47000000000E+01 0. -1.
         -5    1    3    3    0  502 -0.25871004959E+02  0.25165276746E+02 -0.46351048920E+02  0.58933095857E+02  0.47000000000E+01 0.  1.
          5    1    4    4  503    0  0.23058582124E+02 -0.82424625532E+02 -0.25013558054E+03  0.26441523359E+03  0.47000000000E+01 0. -1.
         -5    1    4    4    0  503  0.45779015995E+02  0.32416604779E+01 -0.61804128300E+02  0.77123711938E+02  0.47000000000E+01 0.  1.
<mgrwt>
<rscale>  0 0.14050751E+03</rscale>
<asrwt>0</asrwt>
<pdfrwt beam="1">  1        2 0.13961517E+00 0.14098753E+03</pdfrwt>
<pdfrwt beam="2">  1       -2 0.35932766E-02 0.14098753E+03</pdfrwt>
<totfact> 0.93723560E+03</totfact>
</mgrwt>
</event>
<event>
 8    1  0.5224537E-004  0.1002021E+03  0.7546771E-02  0.1279983E+00
         -1   -1    0    0    0  501 -0.00000000000E+00  0.00000000000E+00  0.18294986677E+02  0.18294986677E+02  0.00000000000E+00 0.  1.
          1   -1    0    0  501    0  0.00000000000E+00 -0.00000000000E+00 -0.60056722411E+03  0.60056722411E+03  0.00000000000E+00 0. -1.
         23    2    1    2    0    0 -0.32291755281E+02 -0.29407009855E+02 -0.19900591372E+03  0.22271383752E+03  0.89947596077E+02 0.  0.
         23    2    1    2    0    0  0.32291755281E+02  0.29407009855E+02 -0.38326632372E+03  0.39614837327E+03  0.90182753681E+02 0.  0.
          5    1    4    4  502    0  0.19526300471E+02 -0.30651845684E+02 -0.18280142570E+03  0.18643836326E+03  0.47000000000E+01 0. -1.
         -5    1    4    4    0  502  0.12765454810E+02  0.60058855539E+02 -0.20046489801E+03  0.20971001002E+03  0.47000000000E+01 0.  1.
          5    1    3    3  503    0 -0.84366588172E+00 -0.38612024220E+02 -0.18079197769E+03  0.18493087731E+03  0.47000000000E+01 0. -1.
         -5    1    3    3    0  503 -0.31448089399E+02  0.92050143652E+01 -0.18213936027E+02  0.37782960206E+02  0.47000000000E+01 0.  1.
<mgrwt>
<rscale>  0 0.10014915E+03</rscale>
<asrwt>0</asrwt>
<pdfrwt beam="1">  1        1 0.92394947E-01 0.10020209E+03</pdfrwt>
<pdfrwt beam="2">  1       -1 0.28146137E-02 0.10020209E+03</pdfrwt>
<totfact> 0.13501846E+04</totfact>
</mgrwt>
</event>
<event>
 8    1  0.5224537E-004  0.9331848E+02  0.7546771E-02  0.1296048E+00
         -3   -1    0    0    0  501 -0.00000000000E+00  0.00000000000E+00  0.26085997009E+02  0.26085997009E+02  0.00000000000E+00 0.  1.
          3   -1    0    0  501    0  0.00000000000E+00 -0.00000000000E+00 -0.35736751212E+03  0.35736751212E+03  0.00000000000E+00 0. -1.
         23    2    1    2    0    0 -0.11341339865E+02  0.98650268694E+01 -0.22254409382E+03  0.24131765930E+03  0.92099914506E+02 0.  0.
         23    2    1    2    0    0  0.11341339865E+02 -0.98650268694E+01 -0.10873742129E+03  0.14213584982E+03  0.90293013416E+02 0.  0.
          5    1    4    4  502    0  0.32982463148E+02 -0.21343176650E+02 -0.11026189627E+03  0.11714584856E+03  0.47000000000E+01 0. -1.
         -5    1    4    4    0  502 -0.21641123283E+02  0.11478149780E+02  0.15244749830E+01  0.24990001267E+02  0.47000000000E+01 0.  1.
          5    1    3    3  503    0  0.23106895760E+02  0.24492723089E+02 -0.18500058443E+03  0.18809871971E+03  0.47000000000E+01 0. -1.
         -5    1    3    3    0  503 -0.34448235625E+02 -0.14627696220E+02 -0.37543509391E+02  0.53218939596E+02  0.47000000000E+01 0.  1.
<mgrwt>
<rscale>  0 0.92869541E+02</rscale>
<asrwt>0</asrwt>
<pdfrwt beam="1">  1        3 0.54979616E-01 0.93318482E+02</pdfrwt>
<pdfrwt beam="2">  1       -3 0.40132304E-02 0.93318482E+02</pdfrwt>
<totfact> 0.22717414E+03</totfact>
</mgrwt>
</event>
<event>
 7    1  0.5224537E-004  0.2334530E+03  0.7546771E-02  0.1155985E+00
          1   -1    0    0  501    0  0.00000000000E+00  0.00000000000E+00  0.35270101959E+03  0.35270101959E+03  0.00000000000E+00 0. -1.
         -1   -1    0    0    0  501 -0.00000000000E+00 -0.00000000000E+00 -0.10110200395E+03  0.10110200395E+03  0.00000000000E+00 0.  1.
         23    2    1    2    0    0 -0.42967731550E+02  0.36443949881E+02 -0.27349686753E+01  0.10856965194E+03  0.92765844100E+02 0.  0.
          5    1    3    3  502    0 -0.12011062763E+02  0.41318939599E+02  0.37558382993E+02  0.57308311188E+02  0.47000000000E+01 0. -1.
         -5    1    1    2    0  503  0.91002869849E+01  0.70627926223E+02  0.47698102884E+01  0.71525941279E+02  0.47000000000E+01 0.  1.
          5    1    1    2  503    0  0.33867444565E+02 -0.10707187610E+03  0.24956417403E+03  0.27370743032E+03  0.47000000000E+01 0. -1.
         -5    1    3    3    0  502 -0.30956668787E+02 -0.48749897180E+01 -0.40293351668E+02  0.51261340753E+02  0.47000000000E+01 0.  1.
<mgrwt>
<rscale>  0 0.19277124E+03</rscale>
<asrwt>0</asrwt>
<pdfrwt beam="1">  1        1 0.54261695E-01 0.23345300E+03</pdfrwt>
<pdfrwt beam="2">  1       -1 0.15554155E-01 0.23345300E+03</pdfrwt>
<totfact> 0.21475161E+03</totfact>
</mgrwt>
</event>
<event>
 8    1  0.5224537E-004  0.1450912E+03  0.7546771E-02  0.1207312E+00
          1   -1    0    0  501    0  0.00000000000E+00  0.00000000000E+00  0.46712629838E+03  0.46712629838E+03  0.00000000000E+00 0. -1.
         -1   -1    0    0    0  501 -0.00000000000E+00 -0.00000000000E+00 -0.44768117504E+02  0.44768117504E+02  0.00000000000E+00 0.  1.
         23    2    1    2    0    0  0.34393501642E+02 -0.10449207500E+03  0.19015392684E+03  0.23918603879E+03  0.94604114947E+02 0.  0.
         23    2    1    2    0    0 -0.34393501642E+02  0.10449207500E+03  0.23220425403E+03  0.27270837709E+03  0.91375799057E+02 0.  0.
          5    1    4    4  502    0 -0.50522771214E+02  0.47673367608E+02  0.64741633855E+02  0.95072969578E+02  0.47000000000E+01 0. -1.
         -5    1    3    3    0  503  0.58319002461E+02 -0.62668731050E+02  0.16172215080E+03  0.18304267250E+03  0.47000000000E+01 0.  1.
          5    1    3    3  503    0 -0.23925500819E+02 -0.41823343950E+02  0.28431776047E+02  0.56143366285E+02  0.47000000000E+01 0. -1.
         -5    1    4    4    0  502  0.16129269571E+02  0.56818707392E+02  0.16746262018E+03  0.17763540752E+03  0.47000000000E+01 0.  1.
<mgrwt>
<rscale>  0 0.14456733E+03</rscale>
<asrwt>0</asrwt>
<pdfrwt beam="1">  1        1 0.71865581E-01 0.14509116E+03</pdfrwt>
<pdfrwt beam="2">  1       -1 0.68874030E-02 0.14509116E+03</pdfrwt>
<totfact> 0.51744095E+03</totfact>
</mgrwt>
</event>
<event>
 8    1  0.5224537E-004  0.1002899E+03  0.7546771E-02  0.1284083E+00
          1   -1    0    0  501    0  0.00000000000E+00  0.00000000000E+00  0.90398225448E+02  0.90398225448E+02  0.00000000000E+00 0. -1.
         -1   -1    0    0    0  501 -0.00000000000E+00 -0.00000000000E+00 -0.14732457837E+03  0.14732457837E+03  0.00000000000E+00 0.  1.
         23    2    1    2    0    0 -0.27492836573E+02  0.30806554627E+02 -0.94784246369E+02  0.13799314987E+03  0.91395602627E+02 0.  0.
         23    2    1    2    0    0  0.27492836573E+02 -0.30806554627E+02  0.37857893446E+02  0.99729653952E+02  0.82509901892E+02 0.  0.
          5    1    3    3  502    0 -0.21020518705E+02 -0.58301827677E+01  0.11630989453E+02  0.25163925636E+02  0.47000000000E+01 0. -1.
         -5    1    3    3    0  502 -0.64723178680E+01  0.36636737395E+02 -0.10641523582E+03  0.11282922423E+03  0.47000000000E+01 0.  1.
          5    1    4    4  503    0  0.47488427504E+02 -0.81609219505E+01 -0.32231084293E+01  0.48520406241E+02  0.47000000000E+01 0. -1.
         -5    1    4    4    0  503 -0.19995590930E+02 -0.22645632676E+02  0.41081001875E+02  0.51209247710E+02  0.47000000000E+01 0.  1.
<mgrwt>
<rscale>  0 0.98220405E+02</rscale>
<asrwt>0</asrwt>
<pdfrwt beam="1">  1        1 0.13907419E-01 0.10028986E+03</pdfrwt>
<pdfrwt beam="2">  1       -1 0.22665319E-01 0.10028986E+03</pdfrwt>
<totfact> 0.62686508E+03</totfact>
</mgrwt>
</event>
<event>
 8    1  0.5224537E-004  0.9135068E+02  0.7546771E-02  0.1300166E+00
          3   -1    0    0  501    0  0.00000000000E+00  0.00000000000E+00  0.99528348177E+02  0.99528348177E+02  0.00000000000E+00 0. -1.
         -3   -1    0    0    0  501 -0.00000000000E+00 -0.00000000000E+00 -0.83665573994E+02  0.83665573994E+02  0.00000000000E+00 0.  1.
         23    2    1    2    0    0  0.55971542775E+01 -0.21018472170E+01  0.16161619639E+02  0.92769308949E+02  0.91154817951E+02 0.  0.
         23    2    1    2    0    0 -0.55971542775E+01  0.21018472170E+01 -0.29884545535E+00  0.90424613223E+02  0.90226246016E+02 0.  0.
          5    1    4    4  502    0 -0.25894714305E+02  0.27613499264E+02 -0.28054231474E+02  0.47351573090E+02  0.47000000000E+01 0. -1.
         -5    1    3    3    0  503  0.28515879300E+02  0.36222080291E+02  0.10494373236E+02  0.47512275703E+02  0.47000000000E+01 0.  1.
          5    1    3    3  503    0 -0.22918725023E+02 -0.38323927508E+02  0.56672464035E+01  0.45257033245E+02  0.47000000000E+01 0. -1.
         -5    1    4    4    0  502  0.20297560027E+02 -0.25511652047E+02  0.27755386018E+02  0.43073040132E+02  0.47000000000E+01 0.  1.
<mgrwt>
<rscale>  0 0.91118154E+02</rscale>
<asrwt>0</asrwt>
<pdfrwt beam="1">  1        3 0.15312054E-01 0.91350680E+02</pdfrwt>
<pdfrwt beam="2">  1       -3 0.12871627E-01 0.91350680E+02</pdfrwt>
<totfact> 0.36368200E+03</totfact>
</mgrwt>
</event>
<event>
 8    1  0.5224537E-004  0.1005180E+03  0.7546771E-02  0.1281736E+00
          2   -1    0    0  501    0  0.00000000000E+00  0.00000000000E+00  0.13767384120E+02  0.13767384120E+02  0.00000000000E+00 0. -1.
         -2   -1    0    0    0  501 -0.00000000000E+00 -0.00000000000E+00 -0.70749214253E+03  0.70749214253E+03  0.00000000000E+00 0.  1.
         23    2    1    2    0    0 -0.17179234151E+02  0.36905086771E+02 -0.30124923312E+03  0.31611646782E+03  0.86726058672E+02 0.  0.
         23    2    1    2    0    0  0.17179234151E+02 -0.36905086771E+02 -0.39247552529E+03  0.40514305884E+03  0.91906194867E+02 0.  0.
          5    1    4    4  502    0  0.50312584398E+02 -0.43002577961E+02 -0.24882159892E+03  0.25751671003E+03  0.47000000000E+01 0. -1.
         -5    1    3    3    0  503 -0.24400188548E+02  0.61873062047E+02 -0.17822794006E+03  0.19029170667E+03  0.47000000000E+01 0.  1.
          5    1    3    3  503    0  0.72209543969E+01 -0.24967975276E+02 -0.12302129306E+03  0.12582476115E+03  0.47000000000E+01 0. -1.
         -5    1    4    4    0  502 -0.33133350247E+02  0.60974911901E+01 -0.14365392638E+03  0.14762634880E+03  0.47000000000E+01 0.  1.
<mgrwt>
<rscale>  0 0.99318313E+02</rscale>
<asrwt>0</asrwt>
<pdfrwt beam="1">  1        2 0.21180589E-02 0.10051796E+03</pdfrwt>
<pdfrwt beam="2">  1       -2 0.10884495E+00 0.10051796E+03</pdfrwt>
<totfact> 0.32869861E+03</totfact>
</mgrwt>
</event>
<event>
 8    1  0.5224537E-004  0.1654683E+03  0.7546771E-02  0.1182799E+00
          1   -1    0    0  501    0  0.00000000000E+00  0.00000000000E+00  0.43003604039E+03  0.43003604039E+03  0.00000000000E+00 0. -1.
         -1   -1    0    0    0  501 -0.00000000000E+00 -0.00000000000E+00 -0.11542320789E+03  0.11542320789E+03  0.00000000000E+00 0.  1.
         23    2    1    2    0    0  0.73714780048E+02  0.11584324884E+03  0.34042015679E+03  0.37850447274E+03  0.92337563482E+02 0.  0.
         23    2    1    2    0    0 -0.73714780048E+02 -0.11584324884E+03 -0.25807324294E+02  0.16695477554E+03  0.91402144332E+02 0.  0.
          5    1    4    4  502    0  0.13928116444E+02 -0.39468350409E+02  0.13371941559E+02  0.44188708204E+02  0.47000000000E+01 0. -1.
         -5    1    4    4    0  502 -0.87642896492E+02 -0.76374898429E+02 -0.39179265853E+02  0.12276606733E+03  0.47000000000E+01 0.  1.
          5    1    3    3  503    0  0.47289574003E+02  0.43812546143E+02  0.25727585824E+03  0.26527118245E+03  0.47000000000E+01 0. -1.
         -5    1    3    3    0  503  0.26425206045E+02  0.72030702695E+02  0.83144298557E+02  0.11323329028E+03  0.47000000000E+01 0.  1.
<mgrwt>
<rscale>  0 0.16533809E+03</rscale>
<asrwt>0</asrwt>
<pdfrwt beam="1">  1        1 0.66159390E-01 0.16546828E+03</pdfrwt>
<pdfrwt beam="2">  1       -1 0.17757417E-01 0.16546828E+03</pdfrwt>
<totfact> 0.13408163E+03</totfact>
</mgrwt>
</event>
<event>
 8    1  0.5224537E-004  0.9529765E+02  0.7546771E-02  0.1290751E+00
          2   -1    0    0  501    0  0.00000000000E+00  0.00000000000E+00  0.21546303394E+03  0.21546303394E+03  0.00000000000E+00 0. -1.
         -2   -1    0    0    0  501 -0.00000000000E+00 -0.00000000000E+00 -0.42235827397E+02  0.42235827397E+02  0.00000000000E+00 0.  1.
         23    2    1    2    0    0  0.17596765877E+02 -0.20853844451E+02  0.97260184652E+02  0.13616602354E+03  0.91307795120E+02 0.  0.
         23    2    1    2    0    0 -0.17596765877E+02  0.20853844451E+02  0.75967021889E+02  0.12153283780E+03  0.90855452508E+02 0.  0.
          5    1    3    3  502    0 -0.89355388398E+01 -0.31800735665E+02  0.10143711855E+03  0.10678347093E+03  0.47000000000E+01 0. -1.
         -5    1    4    4    0  503  0.36653608429E+02  0.13255900463E+01  0.31296701724E+02  0.48443964935E+02  0.47000000000E+01 0.  1.
          5    1    4    4  503    0 -0.54250374307E+02  0.19528254405E+02  0.44670320164E+02  0.73088872861E+02  0.47000000000E+01 0. -1.
         -5    1    3    3    0  502  0.26532304717E+02  0.10946891214E+02 -0.41769339029E+01  0.29382552607E+02  0.47000000000E+01 0.  1.
<mgrwt>
<rscale>  0 0.95189138E+02</rscale>
<asrwt>0</asrwt>
<pdfrwt beam="1">  1        2 0.33148158E-01 0.95297652E+02</pdfrwt>
<pdfrwt beam="2">  1       -2 0.64978197E-02 0.95297652E+02</pdfrwt>
<totfact> 0.18496771E+04</totfact>
</mgrwt>
</event>
<event>
 8    1  0.5224537E-004  0.1064836E+03  0.7546771E-02  0.1267511E+00
         -1   -1    0    0    0  501 -0.00000000000E+00  0.00000000000E+00  0.76478507057E+01  0.76478507057E+01  0.00000000000E+00 0.  1.
          1   -1    0    0  501    0  0.00000000000E+00 -0.00000000000E+00 -0.15317310618E+04  0.15317310618E+04  0.00000000000E+00 0. -1.
         23    2    1    2    0    0 -0.54048365555E+02  0.23317791662E+01 -0.90893198941E+03  0.91507947828E+03  0.91029814779E+02 0.  0.
         23    2    1    2    0    0  0.54048365555E+02 -0.23317791662E+01 -0.61515122168E+03  0.62429943422E+03  0.91717473931E+02 0.  0.
          5    1    3    3  502    0 -0.59394461682E+02  0.37242332745E+02 -0.60472770829E+03  0.60879584805E+03  0.47000000000E+01 0. -1.
         -5    1    3    3    0  502  0.53460961266E+01 -0.34910553578E+02 -0.30420428112E+03  0.30628363023E+03  0.47000000000E+01 0.  1.
          5    1    4    4  503    0  0.76362112788E+02  0.14098029067E+02 -0.47916949512E+03  0.48544353095E+03  0.47000000000E+01 0. -1.
         -5    1    4    4    0  503 -0.22313747233E+02 -0.16429808233E+02 -0.13598172656E+03  0.13885590327E+03  0.47000000000E+01 0.  1.
<mgrwt>
<rscale>  0 0.10633536E+03</rscale>
<asrwt>0</asrwt>
<pdfrwt beam="1">  1        1 0.23565108E+00 0.10648360E+03</pdfrwt>
<pdfrwt beam="2">  1       -1 0.11765917E-02 0.10648360E+03</pdfrwt>
<totfact> 0.97432207E+03</totfact>
</mgrwt>
</event>
<event>
 8    1  0.5224537E-004  0.9634794E+02  0.7546771E-02  0.1290767E+00
         -2   -1    0    0    0  501 -0.00000000000E+00  0.00000000000E+00  0.15396143668E+02  0.15396143668E+02  0.00000000000E+00 0.  1.
          2   -1    0    0  501    0  0.00000000000E+00 -0.00000000000E+00 -0.62273038207E+03  0.62273038207E+03  0.00000000000E+00 0. -1.
         23    2    1    2    0    0  0.30783042584E+02 -0.10072454832E+01 -0.22182873316E+03  0.24184894595E+03  0.91292472560E+02 0.  0.
         23    2    1    2    0    0 -0.30783042584E+02  0.10072454832E+01 -0.38550550525E+03  0.39627757979E+03  0.86445447642E+02 0.  0.
          5    1    3    3  502    0  0.27073342025E+02  0.40810830111E+02 -0.15650150179E+03  0.16405273471E+03  0.47000000000E+01 0. -1.
         -5    1    4    4    0  503  0.13384707465E+02  0.15925321195E+02 -0.25533071252E+02  0.33268513292E+02  0.47000000000E+01 0.  1.
          5    1    4    4  503    0 -0.44167750049E+02 -0.14918075711E+02 -0.35997243399E+03  0.36300906650E+03  0.47000000000E+01 0. -1.
         -5    1    3    3    0  502  0.37097005589E+01 -0.41818075594E+02 -0.65327231366E+02  0.77796211235E+02  0.47000000000E+01 0.  1.
<mgrwt>
<rscale>  0 0.95182045E+02</rscale>
<asrwt>0</asrwt>
<pdfrwt beam="1">  1        2 0.95804668E-01 0.96347941E+02</pdfrwt>
<pdfrwt beam="2">  1       -2 0.23686376E-02 0.96347941E+02</pdfrwt>
<totfact> 0.26425123E+04</totfact>
</mgrwt>
</event>
<event>
 8    1  0.5224537E-004  0.1025085E+03  0.7546771E-02  0.1275145E+00
         -1   -1    0    0    0  501 -0.00000000000E+00  0.00000000000E+00  0.16439684918E+03  0.16439684918E+03  0.00000000000E+00 0.  1.
          1   -1    0    0  501    0  0.00000000000E+00 -0.00000000000E+00 -0.80488324973E+02  0.80488324973E+02  0.00000000000E+00 0. -1.
         23    2    1    2    0    0  0.28877006984E+02  0.36190401131E+02  0.97574858750E+02  0.14146971098E+03  0.91373953616E+02 0.  0.
         23    2    1    2    0    0 -0.28877006984E+02 -0.36190401131E+02 -0.13666334546E+02  0.10341546317E+03  0.91456889600E+02 0.  0.
          5    1    4    4  502    0 -0.31037514994E+02 -0.61084756070E+02 -0.28069317524E+02  0.74193337621E+02  0.47000000000E+01 0. -1.
         -5    1    3    3    0  503  0.26612083914E+02  0.98151425625E+01  0.10865143041E+03  0.11239111781E+03  0.47000000000E+01 0.  1.
          5    1    3    3  503    0  0.22649230699E+01  0.26375258569E+02 -0.11076571658E+02  0.29078593170E+02  0.47000000000E+01 0. -1.
         -5    1    4    4    0  502  0.21605080097E+01  0.24894354938E+02  0.14402982978E+02  0.29222125544E+02  0.47000000000E+01 0.  1.
<mgrwt>
<rscale>  0 0.10248998E+03</rscale>
<asrwt>0</asrwt>
<pdfrwt beam="1">  1        1 0.12382819E-01 0.10250848E+03</pdfrwt>
<pdfrwt beam="2">  1       -1 0.25291823E-01 0.10250848E+03</pdfrwt>
<totfact> 0.61079422E+03</totfact>
</mgrwt>
</event>
<event>
 8    1  0.5224537E-004  0.1527659E+03  0.7546771E-02  0.1197130E+00
         -1   -1    0    0    0  501 -0.00000000000E+00  0.00000000000E+00  0.11638801365E+03  0.11638801365E+03  0.00000000000E+00 0.  1.
          1   -1    0    0  501    0  0.00000000000E+00 -0.00000000000E+00 -0.26915062590E+03  0.26915062590E+03  0.00000000000E+00 0. -1.
         23    2    1    2    0    0 -0.27597045447E+02  0.11943552794E+03 -0.17378312771E+03  0.23138282017E+03  0.91164640870E+02 0.  0.
         23    2    1    2    0    0  0.27597045447E+02 -0.11943552794E+03  0.21020515461E+02  0.15415581938E+03  0.91080801084E+02 0.  0.
          5    1    3    3  502    0 -0.56896186730E+02  0.56793322584E+02 -0.70684982674E+02  0.10714996188E+03  0.47000000000E+01 0. -1.
         -5    1    4    4    0  503 -0.25834711573E+02 -0.69259310662E+02 -0.93854407094E+01  0.74662312666E+02  0.47000000000E+01 0. -1.
          5    1    4    4  503    0  0.53431757020E+02 -0.50176217276E+02  0.30405956170E+02  0.79493506710E+02  0.47000000000E+01 0.  1.
         -5    1    3    3    0  502  0.29299141283E+02  0.62642205354E+02 -0.10309814503E+03  0.12423285830E+03  0.47000000000E+01 0.  1.
<mgrwt>
<rscale>  0 0.15275344E+03</rscale>
<asrwt>0</asrwt>
<pdfrwt beam="1">  1        1 0.41407788E-01 0.15276595E+03</pdfrwt>
<pdfrwt beam="2">  1       -1 0.17905849E-01 0.15276595E+03</pdfrwt>
<totfact> 0.23762328E+03</totfact>
</mgrwt>
</event>
<event>
 8    1  0.5224537E-004  0.9344221E+02  0.7546771E-02  0.1294993E+00
          4   -1    0    0  501    0  0.00000000000E+00  0.00000000000E+00  0.14121775094E+02  0.14121775094E+02  0.00000000000E+00 0. -1.
         -4   -1    0    0    0  501 -0.00000000000E+00 -0.00000000000E+00 -0.63270359166E+03  0.63270359166E+03  0.00000000000E+00 0.  1.
         23    2    1    2    0    0 -0.10442775719E+02 -0.19875353997E+00 -0.25477097231E+03  0.27120617540E+03  0.92387500114E+02 0.  0.
         23    2    1    2    0    0  0.10442775719E+02  0.19875353997E+00 -0.36381084426E+03  0.37561919135E+03  0.92856639211E+02 0.  0.
          5    1    3    3  502    0  0.88679178461E+01  0.38450306599E+02 -0.62339298162E+02  0.73927965884E+02  0.47000000000E+01 0. -1.
         -5    1    3    3    0  502 -0.19310693565E+02 -0.38649060138E+02 -0.19243167415E+03  0.19727820952E+03  0.47000000000E+01 0.  1.
          5    1    4    4  503    0  0.50354678456E+02 -0.75178578548E+00 -0.24578794981E+03  0.25093816987E+03  0.47000000000E+01 0. -1.
         -5    1    4    4    0  503 -0.39911902737E+02  0.95053932545E+00 -0.11802289444E+03  0.12468102148E+03  0.47000000000E+01 0.  1.
<mgrwt>
<rscale>  0 0.93325445E+02</rscale>
<asrwt>0</asrwt>
<pdfrwt beam="1">  1        4 0.21725810E-02 0.93442209E+02</pdfrwt>
<pdfrwt beam="2">  1       -4 0.97339006E-01 0.93442209E+02</pdfrwt>
<totfact> 0.12348227E+03</totfact>
</mgrwt>
</event>
<event>
 8    1  0.5224537E-004  0.1463996E+03  0.7546771E-02  0.1205751E+00
          1   -1    0    0  501    0  0.00000000000E+00  0.00000000000E+00  0.58371820433E+03  0.58371820433E+03  0.00000000000E+00 0. -1.
         -1   -1    0    0    0  501 -0.00000000000E+00 -0.00000000000E+00 -0.36281577346E+02  0.36281577346E+02  0.00000000000E+00 0.  1.
         23    2    1    2    0    0 -0.83327049582E+02  0.77506046655E+02  0.29294367868E+03  0.32640224110E+03  0.88158037968E+02 0.  0.
         23    2    1    2    0    0  0.83327049582E+02 -0.77506046655E+02  0.25449294830E+03  0.29359754057E+03  0.92099243397E+02 0.  0.
          5    1    4    4  502    0  0.47634982616E+02 -0.61413995048E+02  0.23877024162E+03  0.25114555270E+03  0.47000000000E+01 0. -1.
         -5    1    4    4    0  502  0.35692066966E+02 -0.16092051606E+02  0.15722706686E+02  0.42451987878E+02  0.47000000000E+01 0.  1.
          5    1    3    3  503    0  0.10474593106E+02  0.25915989596E+02  0.11709734789E+03  0.12047918700E+03  0.47000000000E+01 0. -1.
         -5    1    3    3    0  503 -0.93801642688E+02  0.51590057059E+02  0.17584633078E+03  0.20592305410E+03  0.47000000000E+01 0.  1.
<mgrwt>
<rscale>  0 0.14578407E+03</rscale>
<asrwt>0</asrwt>
<pdfrwt beam="1">  1        1 0.89802793E-01 0.14639964E+03</pdfrwt>
<pdfrwt beam="2">  1       -1 0.55817816E-02 0.14639964E+03</pdfrwt>
<totfact> 0.52807693E+03</totfact>
</mgrwt>
</event>
<event>
 8    1  0.5224537E-004  0.9663280E+02  0.7546771E-02  0.1289109E+00
          1   -1    0    0  501    0  0.00000000000E+00  0.00000000000E+00  0.13460180122E+03  0.13460180122E+03  0.00000000000E+00 0. -1.
         -1   -1    0    0    0  501 -0.00000000000E+00 -0.00000000000E+00 -0.78278596710E+02  0.78278596710E+02  0.00000000000E+00 0.  1.
         23    2    1    2    0    0  0.20660178064E+02 -0.26861436487E+02 -0.11202713300E+02  0.97280000569E+02  0.90495955698E+02 0.  0.
         23    2    1    2    0    0 -0.20660178064E+02  0.26861436487E+02  0.67525917808E+02  0.11560039736E+03  0.87494700215E+02 0.  0.
          5    1    3    3  502    0 -0.25003731420E+02 -0.17704801158E+02  0.23593896972E+02  0.38953928471E+02  0.47000000000E+01 0. -1.
         -5    1    4    4    0  503  0.26101901012E+02  0.30299749448E+02  0.10481380144E+02  0.41609294428E+02  0.47000000000E+01 0.  1.
          5    1    4    4  503    0 -0.46762079076E+02 -0.34383129612E+01  0.57044537664E+02  0.73991102930E+02  0.47000000000E+01 0. -1.
         -5    1    3    3    0  502  0.45663909485E+02 -0.91566353291E+01 -0.34796610273E+02  0.58326072098E+02  0.47000000000E+01 0.  1.
<mgrwt>
<rscale>  0 0.95923847E+02</rscale>
<asrwt>0</asrwt>
<pdfrwt beam="1">  1        1 0.20707969E-01 0.96632798E+02</pdfrwt>
<pdfrwt beam="2">  1       -1 0.12042861E-01 0.96632798E+02</pdfrwt>
<totfact> 0.10147164E+04</totfact>
</mgrwt>
</event>
<event>
 8    1  0.5224537E-004  0.1069550E+03  0.7546771E-02  0.1268851E+00
          2   -1    0    0  501    0  0.00000000000E+00  0.00000000000E+00  0.18518055060E+03  0.18518055060E+03  0.00000000000E+00 0. -1.
         -2   -1    0    0    0  501 -0.00000000000E+00 -0.00000000000E+00 -0.73765351188E+02  0.73765351188E+02  0.00000000000E+00 0.  1.
         23    2    1    2    0    0 -0.38586619377E+02 -0.22184776610E+02 -0.14202821248E+01  0.10696444175E+03  0.97253704760E+02 0.  0.
         23    2    1    2    0    0  0.38586619377E+02  0.22184776610E+02  0.11283548154E+03  0.15198146004E+03  0.91571976028E+02 0.  0.
          5    1    3    3  502    0 -0.19439506358E+02  0.12339269005E+02  0.41978211551E+02  0.48108338279E+02  0.47000000000E+01 0. -1.
         -5    1    3    3    0  502 -0.19147113019E+02 -0.34524045614E+02 -0.43398493676E+02  0.58856103472E+02  0.47000000000E+01 0.  1.
          5    1    4    4  503    0  0.52045395058E+02  0.71589891423E+01  0.11917092024E+03  0.13032180364E+03  0.47000000000E+01 0. -1.
         -5    1    4    4    0  503 -0.13458775681E+02  0.15025787467E+02 -0.63354387033E+01  0.21659656401E+02  0.47000000000E+01 0.  1.
<mgrwt>
<rscale>  0 0.10564647E+03</rscale>
<asrwt>0</asrwt>
<pdfrwt beam="1">  1        2 0.28489315E-01 0.10695501E+03</pdfrwt>
<pdfrwt beam="2">  1       -2 0.11348516E-01 0.10695501E+03</pdfrwt>
<totfact> 0.93075769E+03</totfact>
</mgrwt>
</event>
<event>
 8    1  0.5224537E-004  0.9529109E+02  0.7546771E-02  0.1290902E+00
         -1   -1    0    0    0  501 -0.00000000000E+00  0.00000000000E+00  0.26290434009E+02  0.26290434009E+02  0.00000000000E+00 0.  1.
          1   -1    0    0  501    0  0.00000000000E+00 -0.00000000000E+00 -0.35015237384E+03  0.35015237384E+03  0.00000000000E+00 0. -1.
         23    2    1    2    0    0  0.26373131423E+02 -0.78939604680E+01 -0.13436799542E+03  0.16433824239E+03  0.90523163030E+02 0.  0.
         23    2    1    2    0    0 -0.26373131423E+02  0.78939604680E+01 -0.18949394441E+03  0.21210456546E+03  0.91227929105E+02 0.  0.
          5    1    4    4  502    0 -0.35269522136E+02 -0.25869373059E+02 -0.43303236743E+02  0.61728631660E+02  0.47000000000E+01 0. -1.
         -5    1    4    4    0  502  0.88963907133E+01  0.33763333527E+02 -0.14619070767E+03  0.15037593380E+03  0.47000000000E+01 0.  1.
          5    1    3    3  503    0 -0.31663777764E+02 -0.41013223296E+01 -0.72155208991E+02  0.79043531371E+02  0.47000000000E+01 0. -1.
         -5    1    3    3    0  503  0.58036909187E+02 -0.37926381384E+01 -0.62212786431E+02  0.85294711017E+02  0.47000000000E+01 0.  1.
<mgrwt>
<rscale>  0 0.95122016E+02</rscale>
<asrwt>0</asrwt>
<pdfrwt beam="1">  1        1 0.53869590E-01 0.95291089E+02</pdfrwt>
<pdfrwt beam="2">  1       -1 0.40446826E-02 0.95291089E+02</pdfrwt>
<totfact> 0.15820707E+04</totfact>
</mgrwt>
</event>
<event>
 8    1  0.5224537E-004  0.9657686E+02  0.7546771E-02  0.1288544E+00
          1   -1    0    0  501    0  0.00000000000E+00  0.00000000000E+00  0.35954044377E+03  0.35954044377E+03  0.00000000000E+00 0. -1.
         -1   -1    0    0    0  501 -0.00000000000E+00 -0.00000000000E+00 -0.60804803726E+02  0.60804803726E+02  0.00000000000E+00 0.  1.
         23    2    1    2    0    0  0.83261066521E+01 -0.27845410901E+02 -0.10219732677E+02  0.97116081975E+02  0.92099942899E+02 0.  0.
         23    2    1    2    0    0 -0.83261066521E+01  0.27845410901E+02  0.30895537273E+03  0.32322916553E+03  0.90437714204E+02 0.  0.
          5    1    3    3  502    0  0.30108666434E+02  0.24857098896E+02 -0.29472777934E+01  0.39435816289E+02  0.47000000000E+01 0. -1.
         -5    1    4    4    0  503  0.10628861088E+02 -0.30311029011E+02  0.13230769262E+03  0.13623195915E+03  0.47000000000E+01 0.  1.
          5    1    4    4  503    0 -0.18954967740E+02  0.58156439913E+02  0.17664768011E+03  0.18699720637E+03  0.47000000000E+01 0. -1.
         -5    1    3    3    0  502 -0.21782559782E+02 -0.52702509797E+02 -0.72724548839E+01  0.57680265686E+02  0.47000000000E+01 0.  1.
<mgrwt>
<rscale>  0 0.96178440E+02</rscale>
<asrwt>0</asrwt>
<pdfrwt beam="1">  1        1 0.55313913E-01 0.96576863E+02</pdfrwt>
<pdfrwt beam="2">  1       -1 0.93545855E-02 0.96576863E+02</pdfrwt>
<totfact> 0.44377064E+03</totfact>
</mgrwt>
</event>
<event>
 8    1  0.5224537E-004  0.1010150E+03  0.7546771E-02  0.1280445E+00
         -1   -1    0    0    0  501 -0.00000000000E+00  0.00000000000E+00  0.85401311880E+02  0.85401311880E+02  0.00000000000E+00 0.  1.
          1   -1    0    0  501    0  0.00000000000E+00 -0.00000000000E+00 -0.27639031590E+03  0.27639031590E+03  0.00000000000E+00 0. -1.
         23    2    1    2    0    0 -0.37404207878E+02  0.25960661198E+02  0.43799922755E+02  0.10619456063E+03  0.85357019496E+02 0.  0.
         23    2    1    2    0    0  0.37404207878E+02 -0.25960661198E+02 -0.23478892678E+03  0.25559706715E+03  0.90172001773E+02 0.  0.
          5    1    3    3  502    0 -0.29020427352E+02 -0.86280357937E+01 -0.17405856581E+02  0.35237509115E+02  0.47000000000E+01 0. -1.
         -5    1    3    3    0  502 -0.83837805267E+01  0.34588696991E+02  0.61205779336E+02  0.70957051514E+02  0.47000000000E+01 0.  1.
          5    1    4    4  503    0  0.42190011514E+02  0.23697429750E+02 -0.14274579872E+03  0.15079793865E+03  0.47000000000E+01 0. -1.
         -5    1    4    4    0  503 -0.47858036354E+01 -0.49658090948E+02 -0.92043128053E+02  0.10479912850E+03  0.47000000000E+01 0.  1.
<mgrwt>
<rscale>  0 0.99929121E+02</rscale>
<asrwt>0</asrwt>
<pdfrwt beam="1">  1        1 0.42521587E-01 0.10101495E+03</pdfrwt>
<pdfrwt beam="2">  1       -1 0.13138663E-01 0.10101495E+03</pdfrwt>
<totfact> 0.36634633E+03</totfact>
</mgrwt>
</event>
<event>
 8    1  0.5224537E-004  0.1291653E+03  0.7546771E-02  0.1236040E+00
          1   -1    0    0  501    0  0.00000000000E+00  0.00000000000E+00  0.24931275860E+03  0.24931275860E+03  0.00000000000E+00 0. -1.
         -1   -1    0    0    0  501 -0.00000000000E+00 -0.00000000000E+00 -0.60948867085E+02  0.60948867085E+02  0.00000000000E+00 0.  1.
         23    2    1    2    0    0 -0.34524360092E+02  0.19328118878E+02  0.13569548742E+03  0.18734179968E+03  0.12295599612E+03 0.  0.
         23    2    1    2    0    0  0.34524360092E+02 -0.19328118878E+02  0.52668404098E+02  0.12291982601E+03  0.10377772023E+03 0.  0.
          5    1    4    4  502    0 -0.27989612652E+02 -0.36239682064E+02  0.19256542191E+02  0.49896266290E+02  0.47000000000E+01 0. -1.
         -5    1    4    4    0  502  0.62513972744E+02  0.16911563186E+02  0.33411861906E+02  0.73023559717E+02  0.47000000000E+01 0.  1.
          5    1    3    3  503    0 -0.41567902114E+02 -0.15070161625E+02  0.14420870203E+03  0.15090805147E+03  0.47000000000E+01 0. -1.
         -5    1    3    3    0  503  0.70435420226E+01  0.34398280504E+02 -0.85132146077E+01  0.36433748212E+02  0.47000000000E+01 0.  1.
<mgrwt>
<rscale>  0 0.12438079E+03</rscale>
<asrwt>0</asrwt>
<pdfrwt beam="1">  1        1 0.38355809E-01 0.12916534E+03</pdfrwt>
<pdfrwt beam="2">  1       -1 0.93767489E-02 0.12916534E+03</pdfrwt>
<totfact> 0.70735627E+03</totfact>
</mgrwt>
</event>
<event>
 8    1  0.5224537E-004  0.1297480E+03  0.7546771E-02  0.1229197E+00
          1   -1    0    0  501    0  0.00000000000E+00  0.00000000000E+00  0.66687338292E+03  0.66687338292E+03  0.00000000000E+00 0. -1.
         -1   -1    0    0    0  501 -0.00000000000E+00 -0.00000000000E+00 -0.25848315189E+02  0.25848315189E+02  0.00000000000E+00 0.  1.
         23    2    1    2    0    0  0.33046607547E+02  0.83159114858E+02  0.40259843296E+03  0.42298940633E+03  0.93952237832E+02 0.  0.
         23    2    1    2    0    0 -0.33046607547E+02 -0.83159114858E+02  0.23842663477E+03  0.26973229177E+03  0.88886064171E+02 0.  0.
          5    1    3    3  502    0 -0.30807225377E+02  0.10880921368E+02  0.93108475269E+02  0.98786424938E+02  0.47000000000E+01 0. -1.
         -5    1    3    3    0  502  0.63853832923E+02  0.72278193491E+02  0.30948995769E+03  0.32420298140E+03  0.47000000000E+01 0.  1.
          5    1    4    4  503    0  0.10813045176E+02 -0.67382384115E+02  0.83856248891E+02  0.10821861260E+03  0.47000000000E+01 0. -1.
         -5    1    4    4    0  503 -0.43859652723E+02 -0.15776730744E+02  0.15457038587E+03  0.16151367917E+03  0.47000000000E+01 0.  1.
<mgrwt>
<rscale>  0 0.12883334E+03</rscale>
<asrwt>0</asrwt>
<pdfrwt beam="1">  1        1 0.10259589E+00 0.12974799E+03</pdfrwt>
<pdfrwt beam="2">  1       -1 0.39766644E-02 0.12974799E+03</pdfrwt>
<totfact> 0.72056022E+03</totfact>
</mgrwt>
</event>
<event>
 8    1  0.5224537E-004  0.1107691E+03  0.7546771E-02  0.1259367E+00
         -1   -1    0    0    0  501 -0.00000000000E+00  0.00000000000E+00  0.33112584298E+03  0.33112584298E+03  0.00000000000E+00 0.  1.
          1   -1    0    0  501    0  0.00000000000E+00 -0.00000000000E+00 -0.55077670426E+02  0.55077670426E+02  0.00000000000E+00 0. -1.
         23    2    1    2    0    0 -0.67089697362E+01  0.61479157767E+02  0.24915903619E+03  0.27267199036E+03  0.91897181129E+02 0.  0.
         23    2    1    2    0    0  0.67089697362E+01 -0.61479157767E+02  0.26889136368E+02  0.11353152304E+03  0.91332819707E+02 0.  0.
          5    1    4    4  502    0  0.96319859870E+01 -0.85116860621E+02  0.17850023719E+02  0.87626300064E+02  0.47000000000E+01 0. -1.
         -5    1    3    3    0  503 -0.41924515146E+02  0.45326845225E+01  0.11677888865E+03  0.12424817517E+03  0.47000000000E+01 0.  1.
          5    1    3    3  503    0  0.35215545410E+02  0.56946473245E+02  0.13238014754E+03  0.14842381519E+03  0.47000000000E+01 0. -1.
         -5    1    4    4    0  502 -0.29230162508E+01  0.23637702854E+02  0.90391126486E+01  0.25905222981E+02  0.47000000000E+01 0.  1.
<mgrwt>
<rscale>  0 0.11065195E+03</rscale>
<asrwt>0</asrwt>
<pdfrwt beam="1">  1        1 0.84734880E-02 0.11076908E+03</pdfrwt>
<pdfrwt beam="2">  1       -1 0.50942436E-01 0.11076908E+03</pdfrwt>
<totfact> 0.30379021E+03</totfact>
</mgrwt>
</event>
<event>
 8    1  0.5224537E-004  0.1103316E+03  0.7546771E-02  0.1260952E+00
         -1   -1    0    0    0  501 -0.00000000000E+00  0.00000000000E+00  0.44896953560E+02  0.44896953560E+02  0.00000000000E+00 0.  1.
          1   -1    0    0  501    0  0.00000000000E+00 -0.00000000000E+00 -0.55220423359E+03  0.55220423359E+03  0.00000000000E+00 0. -1.
         23    2    1    2    0    0 -0.50009853347E+02 -0.37773291056E+02 -0.39884712241E+02  0.11731942757E+03  0.90803363730E+02 0.  0.
         23    2    1    2    0    0  0.50009853347E+02  0.37773291056E+02 -0.46742256779E+03  0.47978175959E+03  0.88197919491E+02 0.  0.
          5    1    3    3  502    0  0.16243484082E+02  0.17161132319E+02 -0.10110897404E+02  0.26128059322E+02  0.47000000000E+01 0. -1.
         -5    1    3    3    0  502 -0.66253337430E+02 -0.54934423375E+02 -0.29773814836E+02  0.91191368243E+02  0.47000000000E+01 0.  1.
          5    1    4    4  503    0  0.29944953729E+02  0.37091653972E+02 -0.45068704740E+03  0.45322554622E+03  0.47000000000E+01 0. -1.
         -5    1    4    4    0  503  0.20064899618E+02  0.68163708389E+00 -0.16735520388E+02  0.26556213368E+02  0.47000000000E+01 0.  1.
<mgrwt>
<rscale>  0 0.10979412E+03</rscale>
<asrwt>0</asrwt>
<pdfrwt beam="1">  1        1 0.84954495E-01 0.11033158E+03</pdfrwt>
<pdfrwt beam="2">  1       -1 0.69072238E-02 0.11033158E+03</pdfrwt>
<totfact> 0.40839201E+03</totfact>
</mgrwt>
</event>
<event>
 8    1  0.5224537E-004  0.1040481E+03  0.7546771E-02  0.1273053E+00
         -4   -1    0    0    0  501 -0.00000000000E+00  0.00000000000E+00  0.16910017122E+03  0.16910017122E+03  0.00000000000E+00 0.  1.
          4   -1    0    0  501    0  0.00000000000E+00 -0.00000000000E+00 -0.80046036623E+02  0.80046036623E+02  0.00000000000E+00 0. -1.
         23    2    1    2    0    0 -0.11115444303E+02  0.47039254505E+02 -0.13024487689E+02  0.10486006982E+03  0.92139852386E+02 0.  0.
         23    2    1    2    0    0  0.11115444303E+02 -0.47039254505E+02  0.10207862229E+03  0.14428613802E+03  0.89789754037E+02 0.  0.
          5    1    4    4  502    0  0.34525735159E+01 -0.72175992688E+02  0.88458441208E+02  0.11431657800E+03  0.47000000000E+01 0.  1.
         -5    1    3    3    0  503 -0.42250567067E+02 -0.34579523978E+01  0.43307565640E+01  0.42870891111E+02  0.47000000000E+01 0.  1.
          5    1    3    3  503    0  0.31135122764E+02  0.50497206903E+02 -0.17355244253E+02  0.61989178714E+02  0.47000000000E+01 0. -1.
         -5    1    4    4    0  502  0.76628707871E+01  0.25136738183E+02  0.13620181077E+02  0.29969560019E+02  0.47000000000E+01 0. -1.
<mgrwt>
<rscale>  0 0.10352530E+03</rscale>
<asrwt>0</asrwt>
<pdfrwt beam="1">  1        4 0.12314775E-01 0.10404805E+03</pdfrwt>
<pdfrwt beam="2">  1       -4 0.26015411E-01 0.10404805E+03</pdfrwt>
<totfact> 0.11480244E+03</totfact>
</mgrwt>
</event>
<event>
 8    1  0.5224537E-004  0.1083267E+03  0.7546771E-02  0.1265427E+00
         -1   -1    0    0    0  501 -0.00000000000E+00  0.00000000000E+00  0.58388262158E+02  0.58388262158E+02  0.00000000000E+00 0.  1.
          1   -1    0    0  501    0  0.00000000000E+00 -0.00000000000E+00 -0.29358769389E+03  0.29358769389E+03  0.00000000000E+00 0. -1.
         23    2    1    2    0    0  0.48215099669E+02 -0.14924216032E+02 -0.16615127776E+02  0.10959345645E+03  0.95850066070E+02 0.  0.
         23    2    1    2    0    0 -0.48215099669E+02  0.14924216032E+02 -0.21858430395E+03  0.24238249959E+03  0.91775542028E+02 0.  0.
          5    1    4    4  502    0 -0.46090434563E+02  0.37086681705E+02 -0.20973211957E+03  0.21796651600E+03  0.47000000000E+01 0. -1.
         -5    1    4    4    0  502 -0.21246651057E+01 -0.22162465672E+02 -0.88521843835E+01  0.24415983594E+02  0.47000000000E+01 0.  1.
          5    1    3    3  503    0  0.19880901049E+02 -0.27802103631E+02 -0.51892672643E+02  0.62314899236E+02  0.47000000000E+01 0. -1.
         -5    1    3    3    0  503  0.28334198620E+02  0.12877887599E+02  0.35277544867E+02  0.47278557214E+02  0.47000000000E+01 0.  1.
<mgrwt>
<rscale>  0 0.10741828E+03</rscale>
<asrwt>0</asrwt>
<pdfrwt beam="1">  1        1 0.45167337E-01 0.10832665E+03</pdfrwt>
<pdfrwt beam="2">  1       -1 0.89828097E-02 0.10832665E+03</pdfrwt>
<totfact> 0.60990086E+03</totfact>
</mgrwt>
</event>
<event>
 8    1  0.5224537E-004  0.9245004E+02  0.7546771E-02  0.1298714E+00
         -2   -1    0    0    0  501 -0.00000000000E+00  0.00000000000E+00  0.87381955464E+02  0.87381955464E+02  0.00000000000E+00 0.  1.
          2   -1    0    0  501    0  0.00000000000E+00 -0.00000000000E+00 -0.95117117410E+02  0.95117117410E+02  0.00000000000E+00 0. -1.
         23    2    1    2    0    0  0.93445905455E+01 -0.58385465971E+01 -0.88589080854E+01  0.90042201909E+02  0.88925293777E+02 0.  0.
         23    2    1    2    0    0 -0.93445905455E+01  0.58385465971E+01  0.11237461395E+01  0.92456870964E+02  0.91791068107E+02 0.  0.
          5    1    4    4  502    0 -0.23454180680E+02 -0.30353795187E+02 -0.24432335210E+02  0.45721772466E+02  0.47000000000E+01 0. -1.
         -5    1    4    4    0  502  0.14109590134E+02  0.36192341784E+02  0.25556081350E+02  0.46735098497E+02  0.47000000000E+01 0.  1.
          5    1    3    3  503    0 -0.39380030144E+02 -0.85418219050E+01 -0.33081494240E+01  0.40703603627E+02  0.47000000000E+01 0. -1.
         -5    1    3    3    0  503  0.48724620690E+02  0.27032753080E+01 -0.55507586615E+01  0.49338598282E+02  0.47000000000E+01 0.  1.
<mgrwt>
<rscale>  0 0.91730511E+02</rscale>
<asrwt>0</asrwt>
<pdfrwt beam="1">  1        2 0.14633403E-01 0.92450042E+02</pdfrwt>
<pdfrwt beam="2">  1       -2 0.13443378E-01 0.92450042E+02</pdfrwt>
<totfact> 0.14778811E+04</totfact>
</mgrwt>
</event>
<event>
 8    1  0.5224537E-004  0.9627669E+02  0.7546771E-02  0.1288559E+00
         -1   -1    0    0    0  501 -0.00000000000E+00  0.00000000000E+00  0.24628483200E+03  0.24628483200E+03  0.00000000000E+00 0.  1.
          1   -1    0    0  501    0  0.00000000000E+00 -0.00000000000E+00 -0.96332989167E+02  0.96332989167E+02  0.00000000000E+00 0. -1.
         23    2    1    2    0    0 -0.28721115174E+02 -0.27704107551E+01 -0.58995266257E+02  0.11255675066E+03  0.91411175713E+02 0.  0.
         23    2    1    2    0    0  0.28721115174E+02  0.27704107551E+01  0.20894710909E+03  0.23006107051E+03  0.91851097622E+02 0.  0.
          5    1    4    4  502    0  0.39656281852E+01 -0.22150902565E+02  0.56162436537E+01  0.23664760386E+02  0.47000000000E+01 0. -1.
         -5    1    3    3    0  503  0.54922353825E+01 -0.42187687270E+02 -0.20058615501E+02  0.47269479186E+02  0.47000000000E+01 0.  1.
          5    1    3    3  503    0 -0.34213350557E+02  0.39417276514E+02 -0.38936650756E+02  0.65287271472E+02  0.47000000000E+01 0. -1.
         -5    1    4    4    0  502  0.24755486989E+02  0.24921313320E+02  0.20333086543E+03  0.20639631012E+03  0.47000000000E+01 0.  1.
<mgrwt>
<rscale>  0 0.96171620E+02</rscale>
<asrwt>0</asrwt>
<pdfrwt beam="1">  1        1 0.14820460E-01 0.96276694E+02</pdfrwt>
<pdfrwt beam="2">  1       -1 0.37889974E-01 0.96276694E+02</pdfrwt>
<totfact> 0.24519028E+03</totfact>
</mgrwt>
</event>
<event>
 8    1  0.5224537E-004  0.1010048E+03  0.7546771E-02  0.1283074E+00
          1   -1    0    0  501    0  0.00000000000E+00  0.00000000000E+00  0.43545615564E+03  0.43545615564E+03  0.00000000000E+00 0. -1.
         -1   -1    0    0    0  501 -0.00000000000E+00 -0.00000000000E+00 -0.26978852623E+02  0.26978852623E+02  0.00000000000E+00 0.  1.
         23    2    1    2    0    0 -0.43756208179E+01  0.34192789736E+02  0.30179159443E+03  0.31552070952E+03  0.85363099428E+02 0.  0.
         23    2    1    2    0    0  0.43756208179E+01 -0.34192789736E+02  0.10668570859E+03  0.14691429874E+03  0.94940390926E+02 0.  0.
          5    1    4    4  502    0  0.33025558872E+02 -0.25455061848E+02  0.67750885509E+01  0.42504582545E+02  0.47000000000E+01 0. -1.
         -5    1    4    4    0  502 -0.28649938054E+02 -0.87377278880E+01  0.99910620037E+02  0.10440971619E+03  0.47000000000E+01 0.  1.
          5    1    3    3  503    0 -0.27955928777E+01 -0.24396265558E+02  0.16122421126E+03  0.16315124704E+03  0.47000000000E+01 0. -1.
         -5    1    3    3    0  503 -0.15800279402E+01  0.58589055294E+02  0.14056738316E+03  0.15236946248E+03  0.47000000000E+01 0.  1.
<mgrwt>
<rscale>  0 0.98690412E+02</rscale>
<asrwt>0</asrwt>
<pdfrwt beam="1">  1        1 0.66993249E-01 0.10100481E+03</pdfrwt>
<pdfrwt beam="2">  1       -1 0.41505930E-02 0.10100481E+03</pdfrwt>
<totfact> 0.11677060E+04</totfact>
</mgrwt>
</event>
<event>
 8    1  0.5224537E-004  0.1778101E+03  0.7546771E-02  0.1170148E+00
          1   -1    0    0  501    0  0.00000000000E+00  0.00000000000E+00  0.10296826356E+04  0.10296826356E+04  0.00000000000E+00 0. -1.
         -1   -1    0    0    0  501 -0.00000000000E+00 -0.00000000000E+00 -0.34227940897E+02  0.34227940897E+02  0.00000000000E+00 0.  1.
         23    2    1    2    0    0 -0.66893742236E+02  0.13634828801E+03  0.67082605860E+03  0.69377522711E+03  0.90834115097E+02 0.  0.
         23    2    1    2    0    0  0.66893742236E+02 -0.13634828801E+03  0.32462863609E+03  0.37013534937E+03  0.92470520109E+02 0.  0.
          5    1    3    3  502    0 -0.42136942459E+02  0.13128376871E+02  0.27172179395E+03  0.27532290044E+03  0.47000000000E+01 0. -1.
         -5    1    4    4    0  503 -0.88170808720E+01 -0.26372998395E+02  0.12956422354E+02  0.31036024869E+02  0.47000000000E+01 0.  1.
          5    1    4    4  503    0  0.75710823107E+02 -0.10997528962E+03  0.31167221374E+03  0.33909932450E+03  0.47000000000E+01 0. -1.
         -5    1    3    3    0  502 -0.24756799776E+02  0.12321991114E+03  0.39910426465E+03  0.41845232668E+03  0.47000000000E+01 0.  1.
<mgrwt>
<rscale>  0 0.17759833E+03</rscale>
<asrwt>0</asrwt>
<pdfrwt beam="1">  1        1 0.15841269E+00 0.17781008E+03</pdfrwt>
<pdfrwt beam="2">  1       -1 0.52658378E-02 0.17781008E+03</pdfrwt>
<totfact> 0.24576727E+03</totfact>
</mgrwt>
</event>
<event>
 8    1  0.5224537E-004  0.9235625E+02  0.7546771E-02  0.1301011E+00
         -1   -1    0    0    0  501 -0.00000000000E+00  0.00000000000E+00  0.26119879964E+02  0.26119879964E+02  0.00000000000E+00 0.  1.
          1   -1    0    0  501    0  0.00000000000E+00 -0.00000000000E+00 -0.52531235490E+03  0.52531235490E+03  0.00000000000E+00 0. -1.
         23    2    1    2    0    0 -0.82606238032E+00  0.10307041543E+01 -0.76135428030E+02  0.11969244235E+03  0.92346806246E+02 0.  0.
         23    2    1    2    0    0  0.82606238032E+00 -0.10307041543E+01 -0.42305704691E+03  0.43173979252E+03  0.86140807831E+02 0.  0.
          5    1    4    4  502    0  0.41684246639E+02  0.85791281160E+01 -0.17857016675E+03  0.18363162122E+03  0.47000000000E+01 0. -1.
         -5    1    4    4    0  502 -0.40858184258E+02 -0.96098322703E+01 -0.24448688016E+03  0.24810817130E+03  0.47000000000E+01 0.  1.
          5    1    3    3  503    0  0.13856584682E+02  0.43990052726E+02 -0.43602718423E+02  0.63642884376E+02  0.47000000000E+01 0. -1.
         -5    1    3    3    0  503 -0.14682647063E+02 -0.42959348572E+02 -0.32532709607E+02  0.56049557972E+02  0.47000000000E+01 0.  1.
<mgrwt>
<rscale>  0 0.90764229E+02</rscale>
<asrwt>0</asrwt>
<pdfrwt beam="1">  1        1 0.80817287E-01 0.92356252E+02</pdfrwt>
<pdfrwt beam="2">  1       -1 0.40184430E-02 0.92356252E+02</pdfrwt>
<totfact> 0.95613735E+03</totfact>
</mgrwt>
</event>
<event>
 8    1  0.5224537E-004  0.1011458E+03  0.7546771E-02  0.1278526E+00
         -1   -1    0    0    0  501 -0.00000000000E+00  0.00000000000E+00  0.10834424300E+03  0.10834424300E+03  0.00000000000E+00 0.  1.
          1   -1    0    0  501    0  0.00000000000E+00 -0.00000000000E+00 -0.11860231378E+03  0.11860231378E+03  0.00000000000E+00 0. -1.
         23    2    1    2    0    0  0.18117156911E+02 -0.38271987444E+02 -0.57546629560E+02  0.11637045453E+03  0.91855820261E+02 0.  0.
         23    2    1    2    0    0 -0.18117156911E+02  0.38271987444E+02  0.47288558775E+02  0.11057610225E+03  0.90542201211E+02 0.  0.
          5    1    3    3  502    0 -0.21905211980E+02 -0.53454775103E+02 -0.30165867335E+02  0.65340040138E+02  0.47000000000E+01 0. -1.
         -5    1    4    4    0  503 -0.30077206305E+02  0.59978740100E+02  0.13821906953E+02  0.68667479311E+02  0.47000000000E+01 0.  1.
          5    1    4    4  503    0  0.11960049394E+02 -0.21706752656E+02  0.33466651822E+02  0.41908622938E+02  0.47000000000E+01 0. -1.
         -5    1    3    3    0  502  0.40022368891E+02  0.15182787659E+02 -0.27380762224E+02  0.51030414389E+02  0.47000000000E+01 0.  1.
<mgrwt>
<rscale>  0 0.10084659E+03</rscale>
<asrwt>0</asrwt>
<pdfrwt beam="1">  1        1 0.18246510E-01 0.10114578E+03</pdfrwt>
<pdfrwt beam="2">  1       -1 0.16668345E-01 0.10114578E+03</pdfrwt>
<totfact> 0.72253488E+03</totfact>
</mgrwt>
</event>
<event>
 8    1  0.5224537E-004  0.1012575E+03  0.7546771E-02  0.1282512E+00
         -1   -1    0    0    0  501 -0.00000000000E+00  0.00000000000E+00  0.20339333109E+02  0.20339333109E+02  0.00000000000E+00 0.  1.
          1   -1    0    0  501    0  0.00000000000E+00 -0.00000000000E+00 -0.57563920824E+03  0.57563920824E+03  0.00000000000E+00 0. -1.
         23    2    1    2    0    0  0.13385222488E+02 -0.85242447021E+01 -0.13440907408E+03  0.16307883655E+03  0.90978463424E+02 0.  0.
         23    2    1    2    0    0 -0.13385222488E+02  0.85242447021E+01 -0.42089080105E+03  0.43289970480E+03  0.10000630518E+03 0.  0.
          5    1    4    4  502    0  0.26536462667E+02 -0.20477066520E+02 -0.30475079087E+03  0.30662457279E+03  0.47000000000E+01 0. -1.
         -5    1    4    4    0  502 -0.39921685156E+02  0.29001311222E+02 -0.11614001018E+03  0.12627513200E+03  0.47000000000E+01 0.  1.
          5    1    3    3  503    0  0.37770990506E+02  0.25977162131E+02 -0.46685454694E+02  0.65597883778E+02  0.47000000000E+01 0. -1.
         -5    1    3    3    0  503 -0.24385768018E+02 -0.34501406833E+02 -0.87723619388E+02  0.97480952775E+02  0.47000000000E+01 0.  1.
<mgrwt>
<rscale>  0 0.98953733E+02</rscale>
<asrwt>0</asrwt>
<pdfrwt beam="1">  1        1 0.88559883E-01 0.10125753E+03</pdfrwt>
<pdfrwt beam="2">  1       -1 0.31291280E-02 0.10125753E+03</pdfrwt>
<totfact> 0.12273644E+04</totfact>
</mgrwt>
</event>
<event>
 8    1  0.5224537E-004  0.9038283E+02  0.7546771E-02  0.1303082E+00
          2   -1    0    0  501    0  0.00000000000E+00  0.00000000000E+00  0.54384990881E+03  0.54384990881E+03  0.00000000000E+00 0. -1.
         -2   -1    0    0    0  501 -0.00000000000E+00 -0.00000000000E+00 -0.15047376380E+02  0.15047376380E+02  0.00000000000E+00 0.  1.
         23    2    1    2    0    0  0.13921902684E+02 -0.23945736937E+01  0.21964830184E+03  0.23680196637E+03  0.87351253102E+02 0.  0.
         23    2    1    2    0    0 -0.13921902684E+02  0.23945736937E+01  0.30915423060E+03  0.32209531882E+03  0.89272071535E+02 0.  0.
          5    1    4    4  502    0  0.23458549015E+02  0.29271414357E+02  0.19990251744E+03  0.20344587905E+03  0.47000000000E+01 0. -1.
         -5    1    3    3    0  503 -0.24695975877E+02 -0.10979723265E+02  0.17427531936E+03  0.17642115090E+03  0.47000000000E+01 0.  1.
          5    1    3    3  503    0  0.38617878560E+02  0.85851495714E+01  0.45372982482E+02  0.60380815471E+02  0.47000000000E+01 0. -1.
         -5    1    4    4    0  502 -0.37380451698E+02 -0.26876840664E+02  0.10925171315E+03  0.11864943978E+03  0.47000000000E+01 0.  1.
<mgrwt>
<rscale>  0 0.89904877E+02</rscale>
<asrwt>0</asrwt>
<pdfrwt beam="1">  1        2 0.83669202E-01 0.90382831E+02</pdfrwt>
<pdfrwt beam="2">  1       -2 0.23149814E-02 0.90382831E+02</pdfrwt>
<totfact> 0.31543964E+04</totfact>
</mgrwt>
</event>
<event>
 8    1  0.5224537E-004  0.9852070E+02  0.7546771E-02  0.1283793E+00
          2   -1    0    0  501    0  0.00000000000E+00  0.00000000000E+00  0.16341965046E+03  0.16341965046E+03  0.00000000000E+00 0. -1.
         -2   -1    0    0    0  501 -0.00000000000E+00 -0.00000000000E+00 -0.29840971205E+03  0.29840971205E+03  0.00000000000E+00 0.  1.
         23    2    1    2    0    0  0.17122390807E+02 -0.29827537778E+02 -0.27437189328E+03  0.29152403660E+03  0.92322639776E+02 0.  0.
         23    2    1    2    0    0 -0.17122390807E+02  0.29827537778E+02  0.13938183168E+03  0.17030532591E+03  0.91617415115E+02 0.  0.
          5    1    3    3  502    0 -0.13709251518E+02  0.16556314628E+02 -0.16077669717E+02  0.27251359503E+02  0.47000000000E+01 0. -1.
         -5    1    3    3    0  502  0.30831642326E+02 -0.46383852406E+02 -0.25829422356E+03  0.26427267709E+03  0.47000000000E+01 0.  1.
          5    1    4    4  503    0 -0.16251742641E+02  0.62541611389E+02  0.93396901399E+02  0.11366900846E+03  0.47000000000E+01 0. -1.
         -5    1    4    4    0  503 -0.87064816612E+00 -0.32714073611E+02  0.45984930285E+02  0.56636317446E+02  0.47000000000E+01 0.  1.
<mgrwt>
<rscale>  0 0.98355145E+02</rscale>
<asrwt>0</asrwt>
<pdfrwt beam="1">  1        2 0.25141485E-01 0.98520699E+02</pdfrwt>
<pdfrwt beam="2">  1       -2 0.45909186E-01 0.98520699E+02</pdfrwt>
<totfact> 0.95003861E+02</totfact>
</mgrwt>
</event>
<event>
 8    1  0.5224537E-004  0.9679782E+02  0.7546771E-02  0.1289041E+00
          2   -1    0    0  501    0  0.00000000000E+00  0.00000000000E+00  0.41503054262E+03  0.41503054262E+03  0.00000000000E+00 0. -1.
         -2   -1    0    0    0  501 -0.00000000000E+00 -0.00000000000E+00 -0.22750302255E+02  0.22750302255E+02  0.00000000000E+00 0.  1.
         23    2    1    2    0    0 -0.11236731174E+02 -0.17831849107E+02  0.14826830071E+03  0.17527057052E+03  0.91060666180E+02 0.  0.
         23    2    1    2    0    0  0.11236731174E+02  0.17831849107E+02  0.24401193966E+03  0.26251027435E+03  0.94475279715E+02 0.  0.
          5    1    4    4  502    0  0.11055498598E+02  0.55664319042E+02  0.12108570636E+03  0.13380799209E+03  0.47000000000E+01 0. -1.
         -5    1    4    4    0  502  0.18123257680E+00 -0.37832469936E+02  0.12292623330E+03  0.12870228226E+03  0.47000000000E+01 0.  1.
          5    1    3    3  503    0  0.20449433045E+02  0.16304617257E+02  0.11451716971E+03  0.11755973807E+03  0.47000000000E+01 0. -1.
         -5    1    3    3    0  503 -0.31686164219E+02 -0.34136466364E+02  0.33751130999E+02  0.57710832453E+02  0.47000000000E+01 0.  1.
<mgrwt>
<rscale>  0 0.95954427E+02</rscale>
<asrwt>0</asrwt>
<pdfrwt beam="1">  1        2 0.63850847E-01 0.96797817E+02</pdfrwt>
<pdfrwt beam="2">  1       -2 0.35000468E-02 0.96797817E+02</pdfrwt>
<totfact> 0.23306441E+04</totfact>
</mgrwt>
</event>
<event>
 8    1  0.5224537E-004  0.1219984E+03  0.7546771E-02  0.1240238E+00
         -1   -1    0    0    0  501 -0.00000000000E+00  0.00000000000E+00  0.36154566122E+02  0.36154566122E+02  0.00000000000E+00 0.  1.
          1   -1    0    0  501    0  0.00000000000E+00 -0.00000000000E+00 -0.41580321379E+03  0.41580321379E+03  0.00000000000E+00 0. -1.
         23    2    1    2    0    0  0.72744722331E+02 -0.34292657975E+02 -0.15876198499E+03  0.19961964564E+03  0.90414899386E+02 0.  0.
         23    2    1    2    0    0 -0.72744722331E+02  0.34292657975E+02 -0.22088666268E+03  0.25233813427E+03  0.91737861537E+02 0.  0.
          5    1    3    3  502    0  0.48591768069E+02  0.14876780676E+02 -0.12520237882E+03  0.13520430537E+03  0.47000000000E+01 0. -1.
         -5    1    4    4    0  503 -0.86765138999E+02  0.40756271198E+01 -0.14124232009E+03  0.16588032754E+03  0.47000000000E+01 0.  1.
          5    1    4    4  503    0  0.14020416668E+02  0.30217030855E+02 -0.79644342592E+02  0.86457806728E+02  0.47000000000E+01 0. -1.
         -5    1    3    3    0  502  0.24152954262E+02 -0.49169438651E+02 -0.33559606172E+02  0.64415340279E+02  0.47000000000E+01 0.  1.
<mgrwt>
<rscale>  0 0.12174975E+03</rscale>
<asrwt>0</asrwt>
<pdfrwt beam="1">  1        1 0.63969725E-01 0.12199843E+03</pdfrwt>
<pdfrwt beam="2">  1       -1 0.55622410E-02 0.12199843E+03</pdfrwt>
<totfact> 0.81678471E+03</totfact>
</mgrwt>
</event>
<event>
 8    1  0.5224537E-004  0.9472664E+02  0.7546771E-02  0.1294512E+00
         -2   -1    0    0    0  501 -0.00000000000E+00  0.00000000000E+00  0.48392979045E+02  0.48392979045E+02  0.00000000000E+00 0.  1.
          2   -1    0    0  501    0  0.00000000000E+00 -0.00000000000E+00 -0.35385677682E+03  0.35385677682E+03  0.00000000000E+00 0. -1.
         23    2    1    2    0    0  0.29142178514E+01  0.90145116890E+01 -0.83872851149E+01  0.90436363544E+02  0.89546832511E+02 0.  0.
         23    2    1    2    0    0 -0.29142178514E+01 -0.90145116890E+01 -0.29707651266E+03  0.31181339232E+03  0.94251701149E+02 0.  0.
          5    1    4    4  502    0 -0.16232967171E+02 -0.49098420837E+02 -0.15089874673E+03  0.15958284969E+03  0.47000000000E+01 0. -1.
         -5    1    4    4    0  502  0.13318749319E+02  0.40083909148E+02 -0.14617776593E+03  0.15223054263E+03  0.47000000000E+01 0.  1.
          5    1    3    3  503    0 -0.19881665449E+02 -0.12832222447E+02  0.31290671265E+02  0.39511297905E+02  0.47000000000E+01 0. -1.
         -5    1    3    3    0  503  0.22795883301E+02  0.21846734136E+02 -0.39677956380E+02  0.50925065639E+02  0.47000000000E+01 0.  1.
<mgrwt>
<rscale>  0 0.93534309E+02</rscale>
<asrwt>0</asrwt>
<pdfrwt beam="1">  1        2 0.54439506E-01 0.94726645E+02</pdfrwt>
<pdfrwt beam="2">  1       -2 0.74450735E-02 0.94726645E+02</pdfrwt>
<totfact> 0.89304465E+03</totfact>
</mgrwt>
</event>
<event>
 8    1  0.5224537E-004  0.1192872E+03  0.7546771E-02  0.1245742E+00
         -1   -1    0    0    0  501 -0.00000000000E+00  0.00000000000E+00  0.10423596269E+02  0.10423596269E+02  0.00000000000E+00 0.  1.
          1   -1    0    0  501    0  0.00000000000E+00 -0.00000000000E+00 -0.15356084014E+04  0.15356084014E+04  0.00000000000E+00 0. -1.
         23    2    1    2    0    0  0.66917114016E+01 -0.75106028737E+02 -0.10580641082E+04  0.10647671502E+04  0.92432313195E+02 0.  0.
         23    2    1    2    0    0 -0.66917114016E+01  0.75106028737E+02 -0.46712069691E+03  0.48126484746E+03  0.87911394921E+02 0.  0.
          5    1    3    3  502    0  0.24503307338E+02 -0.90703253519E+02 -0.89422544601E+03  0.89916001388E+03  0.47000000000E+01 0. -1.
         -5    1    4    4    0  503  0.32093056841E+02  0.61613292209E+02 -0.35509515599E+03  0.36185746073E+03  0.47000000000E+01 0.  1.
          5    1    4    4  503    0 -0.38784768243E+02  0.13492736528E+02 -0.11202554092E+03  0.11940738673E+03  0.47000000000E+01 0. -1.
         -5    1    3    3    0  502 -0.17811595936E+02  0.15597224782E+02 -0.16383866220E+03  0.16560713633E+03  0.47000000000E+01 0.  1.
<mgrwt>
<rscale>  0 0.11841058E+03</rscale>
<asrwt>0</asrwt>
<pdfrwt beam="1">  1        1 0.23624734E+00 0.11928716E+03</pdfrwt>
<pdfrwt beam="2">  1       -1 0.16036309E-02 0.11928716E+03</pdfrwt>
<totfact> 0.62622859E+03</totfact>
</mgrwt>
</event>
<event>
 8    1  0.5224537E-004  0.1028461E+03  0.7546771E-02  0.1276959E+00
          2   -1    0    0  501    0  0.00000000000E+00  0.00000000000E+00  0.12897673828E+04  0.12897673828E+04  0.00000000000E+00 0. -1.
         -2   -1    0    0    0  501 -0.00000000000E+00 -0.00000000000E+00 -0.88576159469E+01  0.88576159469E+01  0.00000000000E+00 0.  1.
         23    2    1    2    0    0 -0.18256219417E+02 -0.29145749103E+02  0.40417237877E+03  0.41587601947E+03  0.91732151230E+02 0.  0.
         23    2    1    2    0    0  0.18256219417E+02  0.29145749103E+02  0.87673738811E+03  0.88274897931E+03  0.96925479203E+02 0.  0.
          5    1    4    4  502    0 -0.11598975768E+02  0.59007821505E+02  0.52623390580E+03  0.52967978331E+03  0.47000000000E+01 0. -1.
         -5    1    3    3    0  503  0.29282267708E+02 -0.78493583603E+01  0.56499729298E+02  0.64291313873E+02  0.47000000000E+01 0.  1.
          5    1    3    3  503    0 -0.47538487125E+02 -0.21296390743E+02  0.34767264948E+03  0.35158470560E+03  0.47000000000E+01 0. -1.
         -5    1    4    4    0  502  0.29855195185E+02 -0.29862072402E+02  0.35050348231E+03  0.35306919600E+03  0.47000000000E+01 0.  1.
<mgrwt>
<rscale>  0 0.10160400E+03</rscale>
<asrwt>0</asrwt>
<pdfrwt beam="1">  1        2 0.19842560E+00 0.10284606E+03</pdfrwt>
<pdfrwt beam="2">  1       -2 0.13627112E-02 0.10284606E+03</pdfrwt>
<totfact> 0.22663910E+04</totfact>
</mgrwt>
</event>
<event>
 8    1  0.5224537E-004  0.9449304E+02  0.7546771E-02  0.1294808E+00
          2   -1    0    0  501    0  0.00000000000E+00  0.00000000000E+00  0.10302141487E+04  0.10302141487E+04  0.00000000000E+00 0. -1.
         -2   -1    0    0    0  501 -0.00000000000E+00 -0.00000000000E+00 -0.10298108856E+02  0.10298108856E+02  0.00000000000E+00 0.  1.
         23    2    1    2    0    0  0.90342337564E+01 -0.69985570558E+01  0.28915069255E+03  0.30419904191E+03  0.93799450514E+02 0.  0.
         23    2    1    2    0    0 -0.90342337564E+01  0.69985570558E+01  0.73076534729E+03  0.73631321564E+03  0.89490566804E+02 0.  0.
          5    1    4    4  502    0 -0.24120999698E+02 -0.36376057650E+02  0.37777986069E+03  0.38032190752E+03  0.47000000000E+01 0. -1.
         -5    1    4    4    0  502  0.15086765941E+02  0.43374614705E+02  0.35298548660E+03  0.35599130812E+03  0.47000000000E+01 0.  1.
          5    1    3    3  503    0 -0.26084628405E+02  0.14843854916E+02  0.22926508823E+03  0.23126893122E+03  0.47000000000E+01 0. -1.
         -5    1    3    3    0  503  0.35118862161E+02 -0.21842411972E+02  0.59885604323E+02  0.72930110691E+02  0.47000000000E+01 0.  1.
<mgrwt>
<rscale>  0 0.93405467E+02</rscale>
<asrwt>0</asrwt>
<pdfrwt beam="1">  1        2 0.15849440E+00 0.94493037E+02</pdfrwt>
<pdfrwt beam="2">  1       -2 0.15843252E-02 0.94493037E+02</pdfrwt>
<totfact> 0.25258634E+04</totfact>
</mgrwt>
</event>
<event>
 8    1  0.5224537E-004  0.1288475E+03  0.7546771E-02  0.1229659E+00
         -1   -1    0    0    0  501 -0.00000000000E+00  0.00000000000E+00  0.48663277730E+02  0.48663277730E+02  0.00000000000E+00 0.  1.
          1   -1    0    0  501    0  0.00000000000E+00 -0.00000000000E+00 -0.33830124591E+03  0.33830124591E+03  0.00000000000E+00 0. -1.
         23    2    1    2    0    0 -0.88049438358E+02 -0.13931574422E+02 -0.15172199422E+03  0.19822526799E+03  0.91251854659E+02 0.  0.
         23    2    1    2    0    0  0.88049438358E+02  0.13931574422E+02 -0.13791597396E+03  0.18873925565E+03  0.93031706366E+02 0.  0.
          5    1    3    3  502    0 -0.69405724610E+01 -0.24582393725E+02 -0.95206257561E+02  0.98685293261E+02  0.47000000000E+01 0. -1.
         -5    1    4    4    0  503  0.78600767156E+02  0.48469363228E+02 -0.10454593206E+03  0.13956826889E+03  0.47000000000E+01 0.  1.
          5    1    4    4  503    0  0.94486712012E+01 -0.34537788806E+02 -0.33370041900E+02  0.49170986766E+02  0.47000000000E+01 0. -1.
         -5    1    3    3    0  502 -0.81108865897E+02  0.10650819303E+02 -0.56515736658E+02  0.99539974728E+02  0.47000000000E+01 0.  1.
<mgrwt>
<rscale>  0 0.12852656E+03</rscale>
<asrwt>0</asrwt>
<pdfrwt beam="1">  1        1 0.52046348E-01 0.12884755E+03</pdfrwt>
<pdfrwt beam="2">  1       -1 0.74866578E-02 0.12884755E+03</pdfrwt>
<totfact> 0.68133693E+03</totfact>
</mgrwt>
</event>
<event>
 8    1  0.5224537E-004  0.9359253E+02  0.7546771E-02  0.1296964E+00
          2   -1    0    0  501    0  0.00000000000E+00  0.00000000000E+00  0.39386580833E+03  0.39386580833E+03  0.00000000000E+00 0. -1.
         -2   -1    0    0    0  501 -0.00000000000E+00 -0.00000000000E+00 -0.21485734277E+02  0.21485734277E+02  0.00000000000E+00 0.  1.
         23    2    1    2    0    0 -0.19190480727E+02  0.18605517922E+02  0.16707579925E+03  0.19150426874E+03  0.89694606322E+02 0.  0.
         23    2    1    2    0    0  0.19190480727E+02 -0.18605517922E+02  0.20530427481E+03  0.22384727387E+03  0.85107678368E+02 0.  0.
          5    1    3    3  502    0 -0.45398559077E+01  0.34858515718E+02  0.16529053681E+03  0.16905258936E+03  0.47000000000E+01 0. -1.
         -5    1    4    4    0  503 -0.29309728990E+02 -0.16636753425E+02  0.12800060168E+03  0.13244653943E+03  0.47000000000E+01 0.  1.
          5    1    4    4  503    0  0.48500209717E+02 -0.19687644971E+01  0.77303673129E+02  0.91400734436E+02  0.47000000000E+01 0. -1.
         -5    1    3    3    0  502 -0.14650624819E+02 -0.16252997796E+02  0.17852624351E+01  0.22451679378E+02  0.47000000000E+01 0.  1.
<mgrwt>
<rscale>  0 0.92476149E+02</rscale>
<asrwt>0</asrwt>
<pdfrwt beam="1">  1        2 0.60594734E-01 0.93592533E+02</pdfrwt>
<pdfrwt beam="2">  1       -2 0.33054979E-02 0.93592533E+02</pdfrwt>
<totfact> 0.26684363E+04</totfact>
</mgrwt>
</event>
<event>
 7    1  0.5224537E-004  0.2864513E+03  0.7546771E-02  0.1092217E+00
          1   -1    0    0  501    0  0.00000000000E+00  0.00000000000E+00  0.44360126102E+03  0.44360126102E+03  0.00000000000E+00 0. -1.
         -1   -1    0    0    0  501 -0.00000000000E+00 -0.00000000000E+00 -0.46243306742E+02  0.46243306742E+02  0.00000000000E+00 0.  1.
         23    2    1    2    0    0  0.33975294389E+02  0.89693081214E+01  0.72233590552E+02  0.12170636709E+03  0.91432921140E+02 0.  0.
          5    1    1    2  502    0 -0.59912493964E+02 -0.24541438269E+02  0.33070691440E+03  0.33701771817E+03  0.47000000000E+01 0. -1.
         -5    1    3    3    0  503  0.61338000269E+02  0.69262476393E+01  0.24763739340E+02  0.66675752485E+02  0.47000000000E+01 0.  1.
          5    1    3    3  503    0 -0.27362705880E+02  0.20430604821E+01  0.47469851212E+02  0.55030614601E+02  0.47000000000E+01 0. -1.
         -5    1    1    2    0  502  0.25937199575E+02  0.15572130148E+02 -0.55825506811E+01  0.31120482503E+02  0.47000000000E+01 0.  1.
<mgrwt>
<rscale>  0 0.28645132E+03</rscale>
<asrwt>0</asrwt>
<pdfrwt beam="1">  1        1 0.68246345E-01 0.28645132E+03</pdfrwt>
<pdfrwt beam="2">  1       -1 0.71143552E-02 0.28645132E+03</pdfrwt>
<totfact> 0.54375338E+03</totfact>
</mgrwt>
</event>
<event>
 8    1  0.5224537E-004  0.1008436E+03  0.7546771E-02  0.1281781E+00
         -1   -1    0    0    0  501 -0.00000000000E+00  0.00000000000E+00  0.17705380390E+03  0.17705380390E+03  0.00000000000E+00 0.  1.
          1   -1    0    0  501    0  0.00000000000E+00 -0.00000000000E+00 -0.15496693924E+03  0.15496693924E+03  0.00000000000E+00 0. -1.
         23    2    1    2    0    0  0.60664046728E+01  0.40134382729E+02  0.14487219291E+03  0.17313190807E+03  0.85668753768E+02 0.  0.
         23    2    1    2    0    0 -0.60664046728E+01 -0.40134382729E+02 -0.12278532825E+03  0.15888883507E+03  0.92313894584E+02 0.  0.
          5    1    3    3  502    0 -0.11316696467E+02  0.53697400191E+02  0.46114826721E+02  0.71834153783E+02  0.47000000000E+01 0. -1.
         -5    1    4    4    0  503 -0.23236542735E+02  0.15228464099E+02 -0.65661920622E+01  0.28931780368E+02  0.47000000000E+01 0.  1.
          5    1    4    4  503    0  0.17170138062E+02 -0.55362846828E+02 -0.11621913619E+03  0.12995705470E+03  0.47000000000E+01 0. -1.
         -5    1    3    3    0  502  0.17383101139E+02 -0.13563017462E+02  0.98757366186E+02  0.10129775429E+03  0.47000000000E+01 0.  1.
<mgrwt>
<rscale>  0 0.99297020E+02</rscale>
<asrwt>0</asrwt>
<pdfrwt beam="1">  1        1 0.23841068E-01 0.10084357E+03</pdfrwt>
<pdfrwt beam="2">  1       -1 0.27239047E-01 0.10084357E+03</pdfrwt>
<totfact> 0.23477734E+03</totfact>
</mgrwt>
</event>
<event>
 8    1  0.5224537E-004  0.1022704E+03  0.7546771E-02  0.1280350E+00
          1   -1    0    0  501    0  0.00000000000E+00  0.00000000000E+00  0.19447342760E+02  0.19447342760E+02  0.00000000000E+00 0. -1.
         -1   -1    0    0    0  501 -0.00000000000E+00 -0.00000000000E+00 -0.70171157235E+03  0.70171157235E+03  0.00000000000E+00 0.  1.
         23    2    1    2    0    0  0.19214675605E+02 -0.76776402681E+01 -0.13336070650E+03  0.16280928801E+03  0.91069403792E+02 0.  0.
         23    2    1    2    0    0 -0.19214675605E+02  0.76776402681E+01 -0.54890352309E+03  0.55834962709E+03  0.10015527194E+03 0.  0.
          5    1    4    4  502    0  0.14165526327E+02 -0.39261783504E+02 -0.17276321267E+03  0.17779585887E+03  0.47000000000E+01 0. -1.
         -5    1    4    4    0  502 -0.33380201932E+02  0.46939423772E+02 -0.37614031042E+03  0.38055376822E+03  0.47000000000E+01 0.  1.
          5    1    3    3  503    0  0.39668243597E+02 -0.38379276154E+02 -0.90035672598E+02  0.10571211250E+03  0.47000000000E+01 0. -1.
         -5    1    3    3    0  503 -0.20453567991E+02  0.30701635886E+02 -0.43325033899E+02  0.57097175517E+02  0.47000000000E+01 0.  1.
<mgrwt>
<rscale>  0 0.99974225E+02</rscale>
<asrwt>0</asrwt>
<pdfrwt beam="1">  1        1 0.29918990E-02 0.10227037E+03</pdfrwt>
<pdfrwt beam="2">  1       -1 0.10795562E+00 0.10227037E+03</pdfrwt>
<totfact> 0.27477767E+03</totfact>
</mgrwt>
</event>
<event>
 8    1  0.5224537E-004  0.1110274E+03  0.7546771E-02  0.1259183E+00
         -1   -1    0    0    0  501 -0.00000000000E+00  0.00000000000E+00  0.68323714157E+02  0.68323714157E+02  0.00000000000E+00 0.  1.
          1   -1    0    0  501    0  0.00000000000E+00 -0.00000000000E+00 -0.29303063395E+03  0.29303063395E+03  0.00000000000E+00 0. -1.
         23    2    1    2    0    0 -0.41536263879E+02  0.47782226936E+02 -0.22489658693E+03  0.25032677420E+03  0.89869998563E+02 0.  0.
         23    2    1    2    0    0  0.41536263879E+02 -0.47782226936E+02  0.18966713717E+00  0.11102757390E+03  0.91206818635E+02 0.  0.
          5    1    3    3  502    0 -0.62312557405E+02  0.94742712983E+01 -0.15983549630E+03  0.17187813271E+03  0.47000000000E+01 0. -1.
         -5    1    3    3    0  502  0.20776293526E+02  0.38307955637E+02 -0.65061090634E+02  0.78448641494E+02  0.47000000000E+01 0.  1.
          5    1    4    4  503    0  0.58996430982E+01 -0.68753245557E+02 -0.34612224028E+01  0.69252325765E+02  0.47000000000E+01 0. -1.
         -5    1    4    4    0  503  0.35636620781E+02  0.20971018621E+02  0.36508895400E+01  0.41775248140E+02  0.47000000000E+01 0.  1.
<mgrwt>
<rscale>  0 0.11075251E+03</rscale>
<asrwt>0</asrwt>
<pdfrwt beam="1">  1        1 0.45081637E-01 0.11102741E+03</pdfrwt>
<pdfrwt beam="2">  1       -1 0.10511340E-01 0.11102741E+03</pdfrwt>
<totfact> 0.48256490E+03</totfact>
</mgrwt>
</event>
<event>
 8    1  0.5224537E-004  0.1023430E+03  0.7546771E-02  0.1278275E+00
          1   -1    0    0  501    0  0.00000000000E+00  0.00000000000E+00  0.15161885949E+03  0.15161885949E+03  0.00000000000E+00 0. -1.
         -1   -1    0    0    0  501 -0.00000000000E+00 -0.00000000000E+00 -0.93507794928E+02  0.93507794928E+02  0.00000000000E+00 0.  1.
         23    2    1    2    0    0  0.23316247871E+00  0.47358659277E+02  0.96678827190E+02  0.14078667900E+03  0.90725941070E+02 0.  0.
         23    2    1    2    0    0 -0.23316247871E+00 -0.47358659277E+02 -0.38567762625E+02  0.10433997542E+03  0.84595869784E+02 0.  0.
          5    1    3    3  502    0 -0.20338666907E+02  0.51932153239E+02  0.10390230465E+03  0.11801859524E+03  0.47000000000E+01 0. -1.
         -5    1    4    4    0  503  0.35709064647E+02 -0.11688200304E+02 -0.37762829400E+02  0.53477776773E+02  0.47000000000E+01 0.  1.
          5    1    4    4  503    0 -0.35942227126E+02 -0.35670458973E+02 -0.80493322469E+00  0.50862198651E+02  0.47000000000E+01 0. -1.
         -5    1    3    3    0  502  0.20571829386E+02 -0.45734939618E+01 -0.72234774587E+01  0.22768083755E+02  0.47000000000E+01 0.  1.
<mgrwt>
<rscale>  0 0.10096735E+03</rscale>
<asrwt>0</asrwt>
<pdfrwt beam="1">  1        1 0.23325978E-01 0.10234302E+03</pdfrwt>
<pdfrwt beam="2">  1       -1 0.14385815E-01 0.10234302E+03</pdfrwt>
<totfact> 0.66807405E+03</totfact>
</mgrwt>
</event>
<event>
 8    1  0.5224537E-004  0.9372847E+02  0.7546771E-02  0.1294312E+00
          1   -1    0    0  501    0  0.00000000000E+00  0.00000000000E+00  0.38601178770E+02  0.38601178770E+02  0.00000000000E+00 0. -1.
         -1   -1    0    0    0  501 -0.00000000000E+00 -0.00000000000E+00 -0.41632319784E+03  0.41632319784E+03  0.00000000000E+00 0.  1.
         23    2    1    2    0    0  0.83372115956E+01  0.20335697376E+02 -0.34267091530E+03  0.35525819121E+03  0.91115182824E+02 0.  0.
         23    2    1    2    0    0 -0.83372115956E+01 -0.20335697376E+02 -0.35051103767E+02  0.99666185402E+02  0.90673694931E+02 0.  0.
          5    1    3    3  502    0 -0.13209217133E+02  0.38395975054E+02 -0.69689868298E+02  0.80792957992E+02  0.47000000000E+01 0. -1.
         -5    1    4    4    0  503  0.34091718825E+02  0.15326868666E+02 -0.14439837774E+02  0.40345471995E+02  0.47000000000E+01 0.  1.
          5    1    4    4  503    0 -0.42428930420E+02 -0.35662566043E+02 -0.20611265993E+02  0.59320713407E+02  0.47000000000E+01 0. -1.
         -5    1    3    3    0  502  0.21546428728E+02 -0.18060277678E+02 -0.27298104700E+03  0.27446523322E+03  0.47000000000E+01 0.  1.
<mgrwt>
<rscale>  0 0.93621006E+02</rscale>
<asrwt>0</asrwt>
<pdfrwt beam="1">  1        1 0.59386427E-02 0.93728471E+02</pdfrwt>
<pdfrwt beam="2">  1       -1 0.64049724E-01 0.93728471E+02</pdfrwt>
<totfact> 0.31545195E+03</totfact>
</mgrwt>
</event>
<event>
 8    1  0.5224537E-004  0.1036820E+03  0.7546771E-02  0.1277806E+00
         -1   -1    0    0    0  501 -0.00000000000E+00  0.00000000000E+00  0.17841346761E+02  0.17841346761E+02  0.00000000000E+00 0.  1.
          1   -1    0    0  501    0  0.00000000000E+00 -0.00000000000E+00 -0.67052610224E+03  0.67052610224E+03  0.00000000000E+00 0. -1.
         23    2    1    2    0    0 -0.34512588596E+01  0.89136156045E+01 -0.46036406056E+03  0.46987900386E+03  0.93594050485E+02 0.  0.
         23    2    1    2    0    0  0.34512588596E+01 -0.89136156045E+01 -0.19232069492E+03  0.21848844514E+03  0.10324043410E+03 0.  0.
          5    1    4    4  502    0  0.61177281862E+01 -0.39590034655E+02 -0.18085233060E+03  0.18529558258E+03  0.47000000000E+01 0. -1.
         -5    1    3    3    0  503 -0.24786661216E+02 -0.34907415704E+02 -0.16743515958E+03  0.17288588406E+03  0.47000000000E+01 0.  1.
          5    1    3    3  503    0  0.21335402356E+02  0.43821031308E+02 -0.29292890098E+03  0.29699311980E+03  0.47000000000E+01 0. -1.
         -5    1    4    4    0  502 -0.26664693266E+01  0.30676419051E+02 -0.11468364324E+02  0.33192862557E+02  0.47000000000E+01 0.  1.
<mgrwt>
<rscale>  0 0.10119353E+03</rscale>
<asrwt>0</asrwt>
<pdfrwt beam="1">  1        1 0.10315785E+00 0.10368197E+03</pdfrwt>
<pdfrwt beam="2">  1       -1 0.27448229E-02 0.10368197E+03</pdfrwt>
<totfact> 0.12073278E+04</totfact>
</mgrwt>
</event>
<event>
 8    1  0.5224537E-004  0.1594756E+03  0.7546771E-02  0.1189652E+00
         -2   -1    0    0    0  501 -0.00000000000E+00  0.00000000000E+00  0.69766641818E+02  0.69766641818E+02  0.00000000000E+00 0.  1.
          2   -1    0    0  501    0  0.00000000000E+00 -0.00000000000E+00 -0.36344639726E+03  0.36344639726E+03  0.00000000000E+00 0. -1.
         23    2    1    2    0    0  0.33527560194E+02  0.12611137696E+03 -0.13215232591E+03  0.20711516259E+03  0.91674841903E+02 0.  0.
         23    2    1    2    0    0 -0.33527560194E+02 -0.12611137696E+03 -0.16152742953E+03  0.22609787649E+03  0.89448099869E+02 0.  0.
          5    1    3    3  502    0 -0.26995914869E+02  0.59261824373E+02 -0.78405269907E+02  0.10203048366E+03  0.47000000000E+01 0.  1.
         -5    1    3    3    0  502  0.60523475063E+02  0.66849552590E+02 -0.53747056002E+02  0.10508467892E+03  0.47000000000E+01 0. -1.
          5    1    4    4  503    0  0.26338277407E+02 -0.40350875874E+02 -0.79561419477E+02  0.93134351932E+02  0.47000000000E+01 0. -1.
         -5    1    4    4    0  503 -0.59865837601E+02 -0.85760501089E+02 -0.81966010053E+02  0.13296352456E+03  0.47000000000E+01 0.  1.
<mgrwt>
<rscale>  0 0.15915722E+03</rscale>
<asrwt>0</asrwt>
<pdfrwt beam="1">  1        2 0.55914830E-01 0.15947556E+03</pdfrwt>
<pdfrwt beam="2">  1       -2 0.10733330E-01 0.15947556E+03</pdfrwt>
<totfact> 0.50891545E+03</totfact>
</mgrwt>
</event>
<event>
 8    1  0.5224537E-004  0.1744434E+03  0.7546771E-02  0.1174746E+00
         -2   -1    0    0    0  501 -0.00000000000E+00  0.00000000000E+00  0.49024831374E+02  0.49024831374E+02  0.00000000000E+00 0.  1.
          2   -1    0    0  501    0  0.00000000000E+00 -0.00000000000E+00 -0.61812040576E+03  0.61812040576E+03  0.00000000000E+00 0. -1.
         23    2    1    2    0    0  0.25130438722E+02 -0.14762218180E+03 -0.23314057534E+03  0.29117866950E+03  0.89479842364E+02 0.  0.
         23    2    1    2    0    0 -0.25130438722E+02  0.14762218180E+03 -0.33595499905E+03  0.37596656764E+03  0.77854037079E+02 0.  0.
          5    1    4    4  502    0 -0.43529720706E+02  0.13076962336E+03 -0.24090457974E+03  0.27758356853E+03  0.47000000000E+01 0. -1.
         -5    1    4    4    0  502  0.18399281984E+02  0.16852558438E+02 -0.95050419306E+02  0.98382999108E+02  0.47000000000E+01 0.  1.
          5    1    3    3  503    0  0.58751298526E+02 -0.94283100328E+02 -0.14610885488E+03  0.18360529829E+03  0.47000000000E+01 0. -1.
         -5    1    3    3    0  503 -0.33620859803E+02 -0.53339081470E+02 -0.87031720463E+02  0.10757337121E+03  0.47000000000E+01 0.  1.
<mgrwt>
<rscale>  0 0.17300875E+03</rscale>
<asrwt>0</asrwt>
<pdfrwt beam="1">  1        2 0.95095450E-01 0.17444337E+03</pdfrwt>
<pdfrwt beam="2">  1       -2 0.75422815E-02 0.17444337E+03</pdfrwt>
<totfact> 0.49452589E+03</totfact>
</mgrwt>
</event>
<event>
 8    1  0.5224537E-004  0.1963945E+03  0.7546771E-02  0.1152841E+00
          1   -1    0    0  501    0  0.00000000000E+00  0.00000000000E+00  0.55585617644E+03  0.55585617644E+03  0.00000000000E+00 0. -1.
         -1   -1    0    0    0  501 -0.00000000000E+00 -0.00000000000E+00 -0.12121763578E+03  0.12121763578E+03  0.00000000000E+00 0.  1.
         23    2    1    2    0    0 -0.16863861413E+03  0.43109995198E+02  0.43880233979E+03  0.48074764531E+03  0.90957963924E+02 0.  0.
         23    2    1    2    0    0  0.16863861413E+03 -0.43109995198E+02 -0.41637991262E+01  0.19632616691E+03  0.90714787832E+02 0.  0.
          5    1    4    4  502    0  0.17171714050E+02  0.14654965389E+02  0.22214363554E+02  0.32018802633E+02  0.47000000000E+01 0. -1.
         -5    1    4    4    0  502  0.15146690008E+03 -0.57764960587E+02 -0.26378162680E+02  0.16430736428E+03  0.47000000000E+01 0.  1.
          5    1    3    3  503    0 -0.52832894831E+02  0.57776034391E+02  0.20209744443E+03  0.21678296052E+03  0.47000000000E+01 0. -1.
         -5    1    3    3    0  503 -0.11580571930E+03 -0.14666039194E+02  0.23670489536E+03  0.26396468479E+03  0.47000000000E+01 0.  1.
<mgrwt>
<rscale>  0 0.19636638E+03</rscale>
<asrwt>0</asrwt>
<pdfrwt beam="1">  1        1 0.85516334E-01 0.19639451E+03</pdfrwt>
<pdfrwt beam="2">  1       -1 0.18648867E-01 0.19639451E+03</pdfrwt>
<totfact> 0.88639041E+02</totfact>
</mgrwt>
</event>
<event>
 8    1  0.5224537E-004  0.1868178E+03  0.7546771E-02  0.1161858E+00
         -2   -1    0    0    0  501 -0.00000000000E+00  0.00000000000E+00  0.23085917349E+03  0.23085917349E+03  0.00000000000E+00 0.  1.
          2   -1    0    0  501    0  0.00000000000E+00 -0.00000000000E+00 -0.17491470613E+03  0.17491470613E+03  0.00000000000E+00 0. -1.
         23    2    1    2    0    0 -0.12352089565E+03  0.10357169367E+03  0.10550991322E+03  0.21455353652E+03  0.94426536803E+02 0.  0.
         23    2    1    2    0    0  0.12352089565E+03 -0.10357169367E+03 -0.49565445856E+02  0.19122034311E+03  0.90133117126E+02 0.  0.
          5    1    3    3  502    0 -0.11148449719E+03  0.37396460288E+02  0.52872177678E+02  0.12901490428E+03  0.47000000000E+01 0. -1.
         -5    1    3    3    0  502 -0.12036398463E+02  0.66175233386E+02  0.52637735538E+02  0.85538632233E+02  0.47000000000E+01 0.  1.
          5    1    4    4  503    0  0.11564182545E+03 -0.63102788288E+02 -0.64962730753E+02  0.14695999480E+03  0.47000000000E+01 0. -1.
         -5    1    4    4    0  503  0.78790701956E+01 -0.40468905386E+02  0.15397284897E+02  0.44260348310E+02  0.47000000000E+01 0.  1.
<mgrwt>
<rscale>  0 0.18628223E+03</rscale>
<asrwt>0</asrwt>
<pdfrwt beam="1">  1        2 0.26909955E-01 0.18681777E+03</pdfrwt>
<pdfrwt beam="2">  1       -2 0.35516796E-01 0.18681777E+03</pdfrwt>
<totfact> 0.14631574E+03</totfact>
</mgrwt>
</event>
<event>
 8    1  0.5224537E-004  0.1040966E+03  0.7546771E-02  0.1278002E+00
         -1   -1    0    0    0  501 -0.00000000000E+00  0.00000000000E+00  0.12863145994E+02  0.12863145994E+02  0.00000000000E+00 0. -1.
          1   -1    0    0  501    0  0.00000000000E+00 -0.00000000000E+00 -0.75205669775E+03  0.75205669775E+03  0.00000000000E+00 0.  1.
         23    2    1    2    0    0  0.84286224663E+01  0.25576803980E+02 -0.34804119040E+03  0.36015291281E+03  0.88612842257E+02 0.  0.
         23    2    1    2    0    0 -0.84286224663E+01 -0.25576803980E+02 -0.39115236136E+03  0.40476693094E+03  0.10055289157E+03 0.  0.
          5    1    4    4  502    0 -0.45829929258E+02  0.48077452787E+01 -0.10813849925E+03  0.11764149715E+03  0.47000000000E+01 0. -1.
         -5    1    3    3    0  503  0.14416804094E+02  0.56692645680E+02 -0.25778722667E+03  0.26438276145E+03  0.47000000000E+01 0.  1.
          5    1    3    3  503    0 -0.59881816278E+01 -0.31115841700E+02 -0.90253963723E+02  0.95770151360E+02  0.47000000000E+01 0. -1.
         -5    1    4    4    0  502  0.37401306792E+02 -0.30384549259E+02 -0.28301386211E+03  0.28712543379E+03  0.47000000000E+01 0.  1.
<mgrwt>
<rscale>  0 0.10109906E+03</rscale>
<asrwt>0</asrwt>
<pdfrwt beam="1">  1        1 0.11570102E+00 0.10409658E+03</pdfrwt>
<pdfrwt beam="2">  1       -1 0.19789457E-02 0.10409658E+03</pdfrwt>
<totfact> 0.16416184E+04</totfact>
</mgrwt>
</event>
<event>
 7    1  0.1498027E-003  0.3290956E+03  0.7546771E-02  0.1106413E+00
          2   -1    0    0  501    0  0.00000000000E+00  0.00000000000E+00  0.36752727922E+03  0.36752727922E+03  0.00000000000E+00 0. -1.
         -2   -1    0    0    0  501 -0.00000000000E+00 -0.00000000000E+00 -0.17450359766E+03  0.17450359766E+03  0.00000000000E+00 0.  1.
         23    2    1    2    0    0 -0.90171738742E+02  0.35271849933E+02  0.16683637408E+03  0.21189498391E+03  0.87693002148E+02 0.  0.
          5    1    3    3  502    0 -0.30137398123E+02 -0.12951033158E+02  0.62260174011E+01  0.33717136862E+02  0.47000000000E+01 0. -1.
         -5    1    3    3    0  502 -0.60034340620E+02  0.48222883091E+02  0.16061035668E+03  0.17817784705E+03  0.47000000000E+01 0.  1.
          5    1    1    2  503    0  0.55234606005E+02 -0.91866952587E+02  0.15299410339E+03  0.18686809345E+03  0.47000000000E+01 0. -1.
         -5    1    1    2    0  503  0.34937132738E+02  0.56595102654E+02 -0.12680679591E+03  0.14326779951E+03  0.47000000000E+01 0.  1.
<mgrwt>
<rscale>  0 0.26121927E+03</rscale>
<asrwt>0</asrwt>
<pdfrwt beam="1">  1        2 0.56542658E-01 0.32909563E+03</pdfrwt>
<pdfrwt beam="2">  1       -2 0.26846707E-01 0.32909563E+03</pdfrwt>
<totfact> 0.10991933E+03</totfact>
</mgrwt>
</event>
<event>
 8    1  0.5224537E-004  0.9979364E+02  0.7546771E-02  0.1286811E+00
          2   -1    0    0  501    0  0.00000000000E+00  0.00000000000E+00  0.73801278037E+01  0.73801278037E+01  0.00000000000E+00 0. -1.
         -2   -1    0    0    0  501 -0.00000000000E+00 -0.00000000000E+00 -0.13111601813E+04  0.13111601813E+04  0.00000000000E+00 0.  1.
         23    2    1    2    0    0 -0.11967378947E+01 -0.38412245697E+01 -0.50062200307E+03  0.51047150716E+03  0.99712499109E+02 0.  0.
         23    2    1    2    0    0  0.11967378947E+01  0.38412245697E+01 -0.80315805044E+03  0.80806880196E+03  0.88860269634E+02 0.  0.
          5    1    4    4  502    0 -0.25660475937E+02 -0.33649746650E+02 -0.39232977307E+03  0.39463338215E+03  0.47000000000E+01 0. -1.
         -5    1    4    4    0  502  0.26857213832E+02  0.37490971220E+02 -0.41082827738E+03  0.41343541981E+03  0.47000000000E+01 0.  1.
          5    1    3    3  503    0 -0.41232509602E+02 -0.28970443478E+02 -0.21135813006E+03  0.21733328228E+03  0.47000000000E+01 0. -1.
         -5    1    3    3    0  503  0.40035771708E+02  0.25129218908E+02 -0.28926387301E+03  0.29313822488E+03  0.47000000000E+01 0.  1.
<mgrwt>
<rscale>  0 0.96965047E+02</rscale>
<asrwt>0</asrwt>
<pdfrwt beam="1">  1        2 0.11354043E-02 0.99793635E+02</pdfrwt>
<pdfrwt beam="2">  1       -2 0.20171694E+00 0.99793635E+02</pdfrwt>
<totfact> 0.15933052E+03</totfact>
</mgrwt>
</event>
<event>
 8    1  0.5224537E-004  0.9369592E+02  0.7546771E-02  0.1294335E+00
         -2   -1    0    0    0  501 -0.00000000000E+00  0.00000000000E+00  0.23176664565E+02  0.23176664565E+02  0.00000000000E+00 0.  1.
          2   -1    0    0  501    0  0.00000000000E+00 -0.00000000000E+00 -0.43529676728E+03  0.43529676728E+03  0.00000000000E+00 0. -1.
         23    2    1    2    0    0  0.62131674008E+01  0.14337420635E+02 -0.28932704976E+03  0.30401612724E+03  0.92040745424E+02 0.  0.
         23    2    1    2    0    0 -0.62131674008E+01 -0.14337420635E+02 -0.12279305296E+03  0.15445730461E+03  0.92383764878E+02 0.  0.
          5    1    4    4  502    0 -0.37997721635E+02  0.20804309774E+02 -0.76542191163E+02  0.88076348600E+02  0.47000000000E+01 0. -1.
         -5    1    4    4    0  502  0.31784554234E+02 -0.35141730409E+02 -0.46250861793E+02  0.66380956009E+02  0.47000000000E+01 0.  1.
          5    1    3    3  503    0 -0.10574180568E+02  0.47638439571E+02 -0.10479736602E+03  0.11569707060E+03  0.47000000000E+01 0. -1.
         -5    1    3    3    0  503  0.16787347969E+02 -0.33301018935E+02 -0.18452968373E+03  0.18831905664E+03  0.47000000000E+01 0.  1.
<mgrwt>
<rscale>  0 0.93611254E+02</rscale>
<asrwt>0</asrwt>
<pdfrwt beam="1">  1        2 0.66968727E-01 0.93695918E+02</pdfrwt>
<pdfrwt beam="2">  1       -2 0.35656410E-02 0.93695918E+02</pdfrwt>
<totfact> 0.21491439E+04</totfact>
</mgrwt>
</event>
<event>
 8    1  0.5224537E-004  0.1272249E+03  0.7546771E-02  0.1239157E+00
         -2   -1    0    0    0  501 -0.00000000000E+00  0.00000000000E+00  0.55258271787E+02  0.55258271787E+02  0.00000000000E+00 0.  1.
          2   -1    0    0  501    0  0.00000000000E+00 -0.00000000000E+00 -0.30663471532E+03  0.30663471532E+03  0.00000000000E+00 0. -1.
         23    2    1    2    0    0 -0.21485932506E+02 -0.61865043592E+02 -0.19350030015E+03  0.22212238318E+03  0.87218450093E+02 0.  0.
         23    2    1    2    0    0  0.21485932506E+02  0.61865043592E+02 -0.57876143387E+02  0.13977060393E+03  0.10907449214E+03 0.  0.
          5    1    3    3  502    0 -0.42991045784E+02 -0.38066407514E+02 -0.17619302238E+03  0.18537354864E+03  0.47000000000E+01 0. -1.
         -5    1    3    3    0  502  0.21505113278E+02 -0.23798636079E+02 -0.17307277765E+02  0.36748834538E+02  0.47000000000E+01 0.  1.
          5    1    4    4  503    0  0.26129888025E+01 -0.29666266859E+02 -0.79567463830E+00  0.30160208852E+02  0.47000000000E+01 0. -1.
         -5    1    4    4    0  503  0.18872943704E+02  0.91531310452E+02 -0.57080468748E+02  0.10961039508E+03  0.47000000000E+01 0.  1.
<mgrwt>
<rscale>  0 0.12242050E+03</rscale>
<asrwt>0</asrwt>
<pdfrwt beam="1">  1        2 0.47174571E-01 0.12722489E+03</pdfrwt>
<pdfrwt beam="2">  1       -2 0.85012728E-02 0.12722489E+03</pdfrwt>
<totfact> 0.86629513E+03</totfact>
</mgrwt>
</event>
<event>
 8    1  0.5224537E-004  0.1173363E+03  0.7546771E-02  0.1247824E+00
         -2   -1    0    0    0  501 -0.00000000000E+00  0.00000000000E+00  0.48972026876E+02  0.48972026876E+02  0.00000000000E+00 0.  1.
          2   -1    0    0  501    0  0.00000000000E+00 -0.00000000000E+00 -0.28335289744E+03  0.28335289744E+03  0.00000000000E+00 0. -1.
         23    2    1    2    0    0  0.63399115845E+02  0.36607626841E+02 -0.13591318370E+03  0.17914628246E+03  0.90892413240E+02 0.  0.
         23    2    1    2    0    0 -0.63399115845E+02 -0.36607626841E+02 -0.98467686864E+02  0.15317864185E+03  0.91696481557E+02 0.  0.
          5    1    3    3  502    0  0.72856922756E+02  0.20661955997E+01 -0.57992654668E+02  0.93261129915E+02  0.47000000000E+01 0. -1.
         -5    1    4    4    0  503 -0.77228439428E+02 -0.53416900919E+02 -0.70989651153E+02  0.11781009180E+03  0.47000000000E+01 0.  1.
          5    1    4    4  503    0  0.13829323582E+02  0.16809274078E+02 -0.27478035712E+02  0.35368550046E+02  0.47000000000E+01 0. -1.
         -5    1    3    3    0  502 -0.94578069105E+01  0.34541431242E+02 -0.77920529032E+02  0.85885152549E+02  0.47000000000E+01 0.  1.
<mgrwt>
<rscale>  0 0.11717918E+03</rscale>
<asrwt>0</asrwt>
<pdfrwt beam="1">  1        2 0.43592753E-01 0.11733632E+03</pdfrwt>
<pdfrwt beam="2">  1       -2 0.75341581E-02 0.11733632E+03</pdfrwt>
<totfact> 0.11270233E+04</totfact>
</mgrwt>
</event>
<event>
 8    1  0.5224537E-004  0.1173253E+03  0.7546771E-02  0.1249260E+00
          1   -1    0    0  501    0  0.00000000000E+00  0.00000000000E+00  0.76849576344E+03  0.76849576344E+03  0.00000000000E+00 0. -1.
         -1   -1    0    0    0  501 -0.00000000000E+00 -0.00000000000E+00 -0.17447981238E+02  0.17447981238E+02  0.00000000000E+00 0.  1.
         23    2    1    2    0    0  0.68905626269E+02 -0.11288214871E+02  0.41511540269E+03  0.43137689117E+03  0.94285818454E+02 0.  0.
         23    2    1    2    0    0 -0.68905626269E+02  0.11288214871E+02  0.33593237951E+03  0.35456685351E+03  0.89396201671E+02 0.  0.
          5    1    4    4  502    0 -0.59635115628E+02  0.47088444634E+02  0.22200101295E+03  0.23469173054E+03  0.47000000000E+01 0. -1.
         -5    1    3    3    0  503  0.90056498556E+02 -0.42049344108E+01  0.36968634441E+03  0.38054952062E+03  0.47000000000E+01 0.  1.
          5    1    3    3  503    0 -0.21150872287E+02 -0.70832804604E+01  0.45429058285E+02  0.50827370552E+02  0.47000000000E+01 0. -1.
         -5    1    4    4    0  502 -0.92705106413E+01 -0.35800229763E+02  0.11393136657E+03  0.11987512297E+03  0.47000000000E+01 0.  1.
<mgrwt>
<rscale>  0 0.11633993E+03</rscale>
<asrwt>0</asrwt>
<pdfrwt beam="1">  1        1 0.11823009E+00 0.11732529E+03</pdfrwt>
<pdfrwt beam="2">  1       -1 0.26843054E-02 0.11732529E+03</pdfrwt>
<totfact> 0.10350474E+04</totfact>
</mgrwt>
</event>
<event>
 8    1  0.5224537E-004  0.9451922E+02  0.7546771E-02  0.1292627E+00
         -2   -1    0    0    0  501 -0.00000000000E+00  0.00000000000E+00  0.70296265552E+02  0.70296265552E+02  0.00000000000E+00 0.  1.
          2   -1    0    0  501    0  0.00000000000E+00 -0.00000000000E+00 -0.15013518790E+03  0.15013518790E+03  0.00000000000E+00 0. -1.
         23    2    1    2    0    0  0.18091669271E+00 -0.25978369633E+02  0.41744631834E+01  0.93971455926E+02  0.90212526660E+02 0.  0.
         23    2    1    2    0    0 -0.18091669271E+00  0.25978369633E+02 -0.84013385534E+02  0.12645999753E+03  0.90878895276E+02 0.  0.
          5    1    3    3  502    0 -0.15660654617E+02  0.25256036451E+02 -0.18760195159E+02  0.35456429637E+02  0.47000000000E+01 0. -1.
         -5    1    4    4    0  503  0.13778474010E+02  0.49702214590E+02 -0.18077541176E+02  0.54854753451E+02  0.47000000000E+01 0.  1.
          5    1    4    4  503    0 -0.13959390703E+02 -0.23723844957E+02 -0.65935844357E+02  0.71605244078E+02  0.47000000000E+01 0. -1.
         -5    1    3    3    0  502  0.15841571309E+02 -0.51234406084E+02  0.22934658342E+02  0.58515026289E+02  0.47000000000E+01 0.  1.
<mgrwt>
<rscale>  0 0.94358675E+02</rscale>
<asrwt>0</asrwt>
<pdfrwt beam="1">  1        2 0.23097721E-01 0.94519215E+02</pdfrwt>
<pdfrwt beam="2">  1       -2 0.10814810E-01 0.94519215E+02</pdfrwt>
<totfact> 0.12480718E+04</totfact>
</mgrwt>
</event>
<event>
 8    1  0.5431420E-004  0.9794751E+02  0.7546771E-02  0.1285202E+00
         -1   -1    0    0    0  501 -0.00000000000E+00  0.00000000000E+00  0.45446239056E+02  0.45446239056E+02  0.00000000000E+00 0.  1.
          1   -1    0    0  501    0  0.00000000000E+00 -0.00000000000E+00 -0.41209074282E+03  0.41209074282E+03  0.00000000000E+00 0. -1.
         23    2    1    2    0    0  0.17398794942E+02  0.23616470530E+02 -0.34345393343E+03  0.35688154021E+03  0.92430371662E+02 0.  0.
         23    2    1    2    0    0 -0.17398794942E+02 -0.23616470530E+02 -0.23190570337E+02  0.10065544167E+03  0.93451910842E+02 0.  0.
          5    1    4    4  502    0  0.10104490647E+02 -0.45607095214E+02 -0.39696754948E+02  0.61481950347E+02  0.47000000000E+01 0. -1.
         -5    1    3    3    0  503 -0.11978361933E+02  0.50690746106E+02 -0.13911164854E+03  0.14861754154E+03  0.47000000000E+01 0.  1.
          5    1    3    3  503    0  0.29377156875E+02 -0.27074275576E+02 -0.20434228489E+03  0.20826399867E+03  0.47000000000E+01 0. -1.
         -5    1    4    4    0  502 -0.27503285589E+02  0.21990624684E+02  0.16506184611E+02  0.39173491325E+02  0.47000000000E+01 0.  1.
<mgrwt>
<rscale>  0 0.97703057E+02</rscale>
<asrwt>0</asrwt>
<pdfrwt beam="1">  1        1 0.63398575E-01 0.97947513E+02</pdfrwt>
<pdfrwt beam="2">  1       -1 0.69917292E-02 0.97947513E+02</pdfrwt>
<totfact> 0.57962797E+03</totfact>
</mgrwt>
</event>
<event>
 8    1  0.5224537E-004  0.1010633E+03  0.7546771E-02  0.1279247E+00
          1   -1    0    0  501    0  0.00000000000E+00  0.00000000000E+00  0.87884514802E+02  0.87884514802E+02  0.00000000000E+00 0. -1.
         -1   -1    0    0    0  501 -0.00000000000E+00 -0.00000000000E+00 -0.20053013935E+03  0.20053013935E+03  0.00000000000E+00 0.  1.
         23    2    1    2    0    0 -0.16415564372E+02 -0.36311562643E+02  0.38228600781E+02  0.10805192725E+03  0.92875145922E+02 0.  0.
         23    2    1    2    0    0  0.16415564372E+02  0.36311562643E+02 -0.15087422533E+03  0.18036272690E+03  0.90441589169E+02 0.  0.
          5    1    4    4  502    0 -0.23185308650E+02  0.82217936312E+01 -0.37013787024E+01  0.25316923826E+02  0.47000000000E+01 0. -1.
         -5    1    3    3    0  503 -0.26545049490E+02  0.21399651724E+02  0.35141281397E+02  0.49189271234E+02  0.47000000000E+01 0.  1.
          5    1    3    3  503    0  0.10129485118E+02 -0.57711214367E+02  0.30873193840E+01  0.58862656018E+02  0.47000000000E+01 0. -1.
         -5    1    4    4    0  502  0.39600873022E+02  0.28089769011E+02 -0.14717284663E+03  0.15504580308E+03  0.47000000000E+01 0.  1.
<mgrwt>
<rscale>  0 0.10050070E+03</rscale>
<asrwt>0</asrwt>
<pdfrwt beam="1">  1        1 0.13520695E-01 0.10106331E+03</pdfrwt>
<pdfrwt beam="2">  1       -1 0.30850791E-01 0.10106331E+03</pdfrwt>
<totfact> 0.39213965E+03</totfact>
</mgrwt>
</event>
<event>
 8    1  0.5224537E-004  0.1285208E+03  0.7546771E-02  0.1229737E+00
          2   -1    0    0  501    0  0.00000000000E+00  0.00000000000E+00  0.16371273338E+04  0.16371273338E+04  0.00000000000E+00 0. -1.
         -2   -1    0    0    0  501 -0.00000000000E+00 -0.00000000000E+00 -0.10388536185E+02  0.10388536185E+02  0.00000000000E+00 0.  1.
         23    2    1    2    0    0 -0.89078042887E+02  0.12443135023E+02  0.67081241641E+03  0.68301309106E+03  0.91803350851E+02 0.  0.
         23    2    1    2    0    0  0.89078042887E+02 -0.12443135023E+02  0.95592638116E+03  0.96450277888E+03  0.91545807768E+02 0.  0.
          5    1    4    4  502    0  0.41935138648E+02  0.38241021787E+02  0.34776310821E+03  0.35239495035E+03  0.47000000000E+01 0. -1.
         -5    1    3    3    0  503 -0.10426653372E+02 -0.34807542439E+02  0.18765986597E+03  0.19120302144E+03  0.47000000000E+01 0.  1.
          5    1    3    3  503    0 -0.78651389515E+02  0.47250677462E+02  0.48315255043E+03  0.49181006962E+03  0.47000000000E+01 0. -1.
         -5    1    4    4    0  502  0.47142904239E+02 -0.50684156810E+02  0.60816327295E+03  0.61210782853E+03  0.47000000000E+01 0.  1.
<mgrwt>
<rscale>  0 0.12847477E+03</rscale>
<asrwt>0</asrwt>
<pdfrwt beam="1">  1        2 0.25186554E+00 0.12852076E+03</pdfrwt>
<pdfrwt beam="2">  1       -2 0.15982376E-02 0.12852076E+03</pdfrwt>
<totfact> 0.12050798E+04</totfact>
</mgrwt>
</event>
<event>
 8    1  0.5224537E-004  0.1033186E+03  0.7546771E-02  0.1274247E+00
          3   -1    0    0  501    0  0.00000000000E+00  0.00000000000E+00  0.78155875760E+02  0.78155875760E+02  0.00000000000E+00 0. -1.
         -3   -1    0    0    0  501 -0.00000000000E+00 -0.00000000000E+00 -0.13535272817E+03  0.13535272817E+03  0.00000000000E+00 0.  1.
         23    2    1    2    0    0 -0.41869240233E+02 -0.15244253718E+02 -0.36970928888E+02  0.10973415787E+03  0.93216496774E+02 0.  0.
         23    2    1    2    0    0  0.41869240233E+02  0.15244253718E+02 -0.20225923522E+02  0.10377444606E+03  0.91512988830E+02 0.  0.
          5    1    4    4  502    0  0.17274033555E+02  0.34814332288E+02  0.26494000482E+02  0.47269990792E+02  0.47000000000E+01 0. -1.
         -5    1    4    4    0  502  0.24595206678E+02 -0.19570078570E+02 -0.46719924004E+02  0.56504455273E+02  0.47000000000E+01 0.  1.
          5    1    3    3  503    0  0.43533898011E+01  0.33701366828E+02 -0.37327493848E+01  0.34507354967E+02  0.47000000000E+01 0. -1.
         -5    1    3    3    0  503 -0.46222630034E+02 -0.48945620546E+02 -0.33238179503E+02  0.75226802900E+02  0.47000000000E+01 0.  1.
<mgrwt>
<rscale>  0 0.10293288E+03</rscale>
<asrwt>0</asrwt>
<pdfrwt beam="1">  1        3 0.12023981E-01 0.10331861E+03</pdfrwt>
<pdfrwt beam="2">  1       -3 0.20823497E-01 0.10331861E+03</pdfrwt>
<totfact> 0.24575455E+03</totfact>
</mgrwt>
</event>
<event>
 8    1  0.5224537E-004  0.1116242E+03  0.7546771E-02  0.1257712E+00
         -1   -1    0    0    0  501 -0.00000000000E+00  0.00000000000E+00  0.21833124314E+02  0.21833124314E+02  0.00000000000E+00 0.  1.
          1   -1    0    0  501    0  0.00000000000E+00 -0.00000000000E+00 -0.63650028803E+03  0.63650028803E+03  0.00000000000E+00 0. -1.
         23    2    1    2    0    0 -0.22766556022E+02 -0.59345872681E+02 -0.20073413414E+03  0.22968274158E+03  0.91759034938E+02 0.  0.
         23    2    1    2    0    0  0.22766556022E+02  0.59345872681E+02 -0.41393302958E+03  0.42865067077E+03  0.91436294193E+02 0.  0.
          5    1    4    4  502    0  0.38032516881E+02 -0.43761876070E+01 -0.86759249145E+02  0.94946725434E+02  0.47000000000E+01 0. -1.
         -5    1    4    4    0  502 -0.15265960859E+02  0.63722060288E+02 -0.32717378044E+03  0.33370394534E+03  0.47000000000E+01 0.  1.
          5    1    3    3  503    0  0.15706175124E+02 -0.14398363042E+02 -0.15007111447E+03  0.15164902305E+03  0.47000000000E+01 0. -1.
         -5    1    3    3    0  503 -0.38472731147E+02 -0.44947509639E+02 -0.50663019671E+02  0.78033718525E+02  0.47000000000E+01 0.  1.
<mgrwt>
<rscale>  0 0.11155788E+03</rscale>
<asrwt>0</asrwt>
<pdfrwt beam="1">  1        1 0.97923138E-01 0.11162423E+03</pdfrwt>
<pdfrwt beam="2">  1       -1 0.33589416E-02 0.11162423E+03</pdfrwt>
<totfact> 0.97405863E+03</totfact>
</mgrwt>
</event>
<event>
 8    1  0.5224537E-004  0.9908154E+02  0.7546771E-02  0.1284535E+00
          2   -1    0    0  501    0  0.00000000000E+00  0.00000000000E+00  0.10449359765E+04  0.10449359765E+04  0.00000000000E+00 0. -1.
         -2   -1    0    0    0  501 -0.00000000000E+00 -0.00000000000E+00 -0.91512842049E+01  0.91512842049E+01  0.00000000000E+00 0.  1.
         23    2    1    2    0    0  0.18014412994E+02  0.18208766173E+02  0.43901207304E+03  0.44914535379E+03  0.91344788126E+02 0.  0.
         23    2    1    2    0    0 -0.18014412994E+02 -0.18208766173E+02  0.59677261928E+03  0.60494190694E+03  0.95713496463E+02 0.  0.
          5    1    4    4  502    0 -0.36271556779E+01 -0.55066587663E+02  0.42584791439E+03  0.42943453695E+03  0.47000000000E+01 0. -1.
         -5    1    4    4    0  502 -0.14387257316E+02  0.36857821489E+02  0.17092470489E+03  0.17550736999E+03  0.47000000000E+01 0.  1.
          5    1    3    3  503    0  0.31231545530E+02 -0.23304769478E+02  0.31858402838E+03  0.32099282680E+03  0.47000000000E+01 0. -1.
         -5    1    3    3    0  503 -0.13217132536E+02  0.41513535651E+02  0.12042804466E+03  0.12815252700E+03  0.47000000000E+01 0.  1.
<mgrwt>
<rscale>  0 0.98010943E+02</rscale>
<asrwt>0</asrwt>
<pdfrwt beam="1">  1        2 0.16075929E+00 0.99081540E+02</pdfrwt>
<pdfrwt beam="2">  1       -2 0.14078907E-02 0.99081540E+02</pdfrwt>
<totfact> 0.29446035E+04</totfact>
</mgrwt>
</event>
<event>
 8    1  0.5224537E-004  0.1177943E+03  0.7546771E-02  0.1250012E+00
         -1   -1    0    0    0  501 -0.00000000000E+00  0.00000000000E+00  0.19599707910E+03  0.19599707910E+03  0.00000000000E+00 0.  1.
          1   -1    0    0  501    0  0.00000000000E+00 -0.00000000000E+00 -0.42260520611E+03  0.42260520611E+03  0.00000000000E+00 0. -1.
         23    2    1    2    0    0  0.36549011236E+02 -0.51313514364E+02  0.17120254254E+03  0.20371816881E+03  0.90674554068E+02 0.  0.
         23    2    1    2    0    0 -0.36549011236E+02  0.51313514364E+02 -0.39781066955E+03  0.41488411640E+03  0.99531875566E+02 0.  0.
          5    1    3    3  502    0  0.48985236934E+02 -0.18394584287E+02  0.35394632734E+02  0.63346540513E+02  0.47000000000E+01 0. -1.
         -5    1    3    3    0  502 -0.12436225698E+02 -0.32918930076E+02  0.13580790980E+03  0.14037162830E+03  0.47000000000E+01 0.  1.
          5    1    4    4  503    0 -0.30306827349E+02 -0.15350475195E+02 -0.25252482847E+03  0.25484312795E+03  0.47000000000E+01 0. -1.
         -5    1    4    4    0  503 -0.62421838876E+01  0.66663989559E+02 -0.14528584108E+03  0.16004098845E+03  0.47000000000E+01 0.  1.
<mgrwt>
<rscale>  0 0.11590367E+03</rscale>
<asrwt>0</asrwt>
<pdfrwt beam="1">  1        1 0.65016185E-01 0.11779432E+03</pdfrwt>
<pdfrwt beam="2">  1       -1 0.30153397E-01 0.11779432E+03</pdfrwt>
<totfact> 0.57595636E+02</totfact>
</mgrwt>
</event>
<event>
 8    1  0.5224537E-004  0.1420004E+03  0.7546771E-02  0.1214370E+00
          2   -1    0    0  501    0  0.00000000000E+00  0.00000000000E+00  0.69533891115E+03  0.69533891115E+03  0.00000000000E+00 0. -1.
         -2   -1    0    0    0  501 -0.00000000000E+00 -0.00000000000E+00 -0.27680882861E+02  0.27680882861E+02  0.00000000000E+00 0.  1.
         23    2    1    2    0    0 -0.91474918798E+02  0.32040237458E+02  0.40945054368E+03  0.43337495105E+03  0.10377794993E+03 0.  0.
         23    2    1    2    0    0  0.91474918798E+02 -0.32040237458E+02  0.25820748461E+03  0.28964484296E+03  0.88480463157E+02 0.  0.
          5    1    3    3  502    0 -0.61838181446E+01 -0.32859983448E+02  0.12093224190E+03  0.12555761726E+03  0.47000000000E+01 0. -1.
         -5    1    4    4    0  503  0.74390611557E+01 -0.42477543473E+02  0.59859485854E+02  0.73925160649E+02  0.47000000000E+01 0.  1.
          5    1    4    4  503    0  0.84035857642E+02  0.10437306015E+02  0.19834799876E+03  0.21571968231E+03  0.47000000000E+01 0. -1.
         -5    1    3    3    0  502 -0.85291100654E+02  0.64900220906E+02  0.28851830178E+03  0.30781733380E+03  0.47000000000E+01 0.  1.
<mgrwt>
<rscale>  0 0.13922934E+03</rscale>
<asrwt>0</asrwt>
<pdfrwt beam="1">  1        2 0.10697520E+00 0.14200035E+03</pdfrwt>
<pdfrwt beam="2">  1       -2 0.42585979E-02 0.14200035E+03</pdfrwt>
<totfact> 0.10147986E+04</totfact>
</mgrwt>
</event>
<event>
 8    1  0.5224537E-004  0.1011579E+03  0.7546771E-02  0.1280137E+00
         -1   -1    0    0    0  501 -0.00000000000E+00  0.00000000000E+00  0.53312389690E+02  0.53312389690E+02  0.00000000000E+00 0.  1.
          1   -1    0    0  501    0  0.00000000000E+00 -0.00000000000E+00 -0.18969457321E+03  0.18969457321E+03  0.00000000000E+00 0. -1.
         23    2    1    2    0    0  0.12807726358E+02  0.38289657602E+02 -0.48465706984E+02  0.11216884338E+03  0.92751220683E+02 0.  0.
         23    2    1    2    0    0 -0.12807726358E+02 -0.38289657602E+02 -0.87916476532E+02  0.13083811952E+03  0.88086156341E+02 0.  0.
          5    1    3    3  502    0  0.41486500906E+02  0.17904287569E+02 -0.59623544466E+02  0.74958323924E+02  0.47000000000E+01 0. -1.
         -5    1    3    3    0  502 -0.28678774548E+02  0.20385370033E+02  0.11157837482E+02  0.37210519457E+02  0.47000000000E+01 0.  1.
          5    1    4    4  503    0  0.32993680159E+02 -0.36229326375E+02 -0.57132999976E+02  0.75414963411E+02  0.47000000000E+01 0. -1.
         -5    1    4    4    0  503 -0.45801406517E+02 -0.20603312265E+01 -0.30783476556E+02  0.55423156104E+02  0.47000000000E+01 0.  1.
<mgrwt>
<rscale>  0 0.10007581E+03</rscale>
<asrwt>0</asrwt>
<pdfrwt beam="1">  1        1 0.29183781E-01 0.10115792E+03</pdfrwt>
<pdfrwt beam="2">  1       -1 0.82019059E-02 0.10115792E+03</pdfrwt>
<totfact> 0.11890421E+04</totfact>
</mgrwt>
</event>
<event>
 8    1  0.5224537E-004  0.9431022E+02  0.7546771E-02  0.1293447E+00
         -2   -1    0    0    0  501 -0.00000000000E+00  0.00000000000E+00  0.10273545733E+03  0.10273545733E+03  0.00000000000E+00 0.  1.
          2   -1    0    0  501    0  0.00000000000E+00 -0.00000000000E+00 -0.17499935436E+03  0.17499935436E+03  0.00000000000E+00 0. -1.
         23    2    1    2    0    0 -0.42834128850E+01 -0.22391756505E+02  0.63325586660E+02  0.11257147938E+03  0.90235634088E+02 0.  0.
         23    2    1    2    0    0  0.42834128850E+01  0.22391756505E+02 -0.13558948368E+03  0.16516333231E+03  0.91513277006E+02 0.  0.
          5    1    3    3  502    0 -0.26284764012E+01  0.22053470564E+02 -0.11462378070E+02  0.25431094415E+02  0.47000000000E+01 0. -1.
         -5    1    4    4    0  503  0.43894020306E+01 -0.35221644274E+02 -0.61872643094E+02  0.71485278478E+02  0.47000000000E+01 0.  1.
          5    1    4    4  503    0 -0.10598914567E+00  0.57613400780E+02 -0.73716840590E+02  0.93678053832E+02  0.47000000000E+01 0. -1.
         -5    1    3    3    0  502 -0.16549364837E+01 -0.44445227069E+02  0.74787964730E+02  0.87140384969E+02  0.47000000000E+01 0.  1.
<mgrwt>
<rscale>  0 0.93998875E+02</rscale>
<asrwt>0</asrwt>
<pdfrwt beam="1">  1        2 0.26922977E-01 0.94310223E+02</pdfrwt>
<pdfrwt beam="2">  1       -2 0.15805455E-01 0.94310223E+02</pdfrwt>
<totfact> 0.57603863E+03</totfact>
</mgrwt>
</event>
<event>
 8    1  0.5224537E-004  0.1045118E+03  0.7546771E-02  0.1271571E+00
         -2   -1    0    0    0  501 -0.00000000000E+00  0.00000000000E+00  0.16976619572E+03  0.16976619572E+03  0.00000000000E+00 0.  1.
          2   -1    0    0  501    0  0.00000000000E+00 -0.00000000000E+00 -0.67955655780E+02  0.67955655780E+02  0.00000000000E+00 0. -1.
         23    2    1    2    0    0 -0.19421626451E+01  0.53792069791E+02  0.21077414493E+02  0.10565912540E+03  0.88443397772E+02 0.  0.
         23    2    1    2    0    0  0.19421626451E+01 -0.53792069791E+02  0.80733125449E+02  0.13206272611E+03  0.89584414458E+02 0.  0.
          5    1    3    3  502    0  0.25670208126E+02 -0.88325059116E+01  0.24642300723E+02  0.36963573026E+02  0.47000000000E+01 0. -1.
         -5    1    4    4    0  503 -0.40160229172E+02 -0.24214119444E+02  0.60223729742E+02  0.76473231994E+02  0.47000000000E+01 0.  1.
          5    1    4    4  503    0  0.42102391817E+02 -0.29577950346E+02  0.20509395707E+02  0.55589494112E+02  0.47000000000E+01 0. -1.
         -5    1    3    3    0  502 -0.27612370771E+02  0.62624575703E+02 -0.35648862301E+01  0.68695552370E+02  0.47000000000E+01 0.  1.
<mgrwt>
<rscale>  0 0.10426689E+03</rscale>
<asrwt>0</asrwt>
<pdfrwt beam="1">  1        2 0.10454716E-01 0.10451185E+03</pdfrwt>
<pdfrwt beam="2">  1       -2 0.26117876E-01 0.10451185E+03</pdfrwt>
<totfact> 0.73596028E+03</totfact>
</mgrwt>
</event>
<event>
 8    1  0.5224537E-004  0.1064487E+03  0.7546771E-02  0.1267698E+00
         -2   -1    0    0    0  501 -0.00000000000E+00  0.00000000000E+00  0.16015596020E+02  0.16015596020E+02  0.00000000000E+00 0.  1.
          2   -1    0    0  501    0  0.00000000000E+00 -0.00000000000E+00 -0.77845197117E+03  0.77845197117E+03  0.00000000000E+00 0. -1.
         23    2    1    2    0    0 -0.99138442994E+01  0.51424075439E+02 -0.50437388118E+03  0.51531243790E+03  0.91712468002E+02 0.  0.
         23    2    1    2    0    0  0.99138442994E+01 -0.51424075439E+02 -0.25806249397E+03  0.27915512929E+03  0.92674783920E+02 0.  0.
          5    1    3    3  502    0  0.27595104164E+02 -0.77515716816E+01 -0.24079015796E+03  0.24253570213E+03  0.47000000000E+01 0. -1.
         -5    1    3    3    0  502 -0.37508948464E+02  0.59175647121E+02 -0.26358372323E+03  0.27277673577E+03  0.47000000000E+01 0.  1.
          5    1    4    4  503    0 -0.28520517521E+02 -0.59692125420E+02 -0.14776778468E+03  0.16196906478E+03  0.47000000000E+01 0.  1.
         -5    1    4    4    0  503  0.38434361820E+02  0.82680499813E+01 -0.11029470929E+03  0.11718606451E+03  0.47000000000E+01 0. -1.
<mgrwt>
<rscale>  0 0.10623894E+03</rscale>
<asrwt>0</asrwt>
<pdfrwt beam="1">  1        2 0.11976183E+00 0.10644875E+03</pdfrwt>
<pdfrwt beam="2">  1       -2 0.24639382E-02 0.10644875E+03</pdfrwt>
<totfact> 0.19393731E+04</totfact>
</mgrwt>
</event>
<event>
 8    1  0.5224537E-004  0.9171465E+02  0.7546771E-02  0.1300107E+00
         -1   -1    0    0    0  501 -0.00000000000E+00  0.00000000000E+00  0.20463902856E+02  0.20463902856E+02  0.00000000000E+00 0.  1.
          1   -1    0    0  501    0  0.00000000000E+00 -0.00000000000E+00 -0.44003448106E+03  0.44003448106E+03  0.00000000000E+00 0. -1.
         23    2    1    2    0    0  0.10875443078E+02 -0.74964567744E+01 -0.27600609093E+03  0.29013894363E+03  0.88469046869E+02 0.  0.
         23    2    1    2    0    0 -0.10875443078E+02  0.74964567744E+01 -0.14356448727E+03  0.17035944029E+03  0.90758496913E+02 0.  0.
          5    1    3    3  502    0  0.37570179321E+02 -0.32175148336E+02 -0.11992141350E+03  0.12980752659E+03  0.47000000000E+01 0. -1.
         -5    1    4    4    0  503  0.71837026499E+01  0.46121137025E+02 -0.57606147110E+02  0.74292146618E+02  0.47000000000E+01 0.  1.
          5    1    4    4  503    0 -0.18059145728E+02 -0.38624680251E+02 -0.85958340163E+02  0.96067293667E+02  0.47000000000E+01 0. -1.
         -5    1    3    3    0  502 -0.26694736243E+02  0.24678691561E+02 -0.15608467743E+03  0.16033141704E+03  0.47000000000E+01 0.  1.
<mgrwt>
<rscale>  0 0.91143085E+02</rscale>
<asrwt>0</asrwt>
<pdfrwt beam="1">  1        1 0.67697616E-01 0.91714649E+02</pdfrwt>
<pdfrwt beam="2">  1       -1 0.31482926E-02 0.91714649E+02</pdfrwt>
<totfact> 0.17057199E+04</totfact>
</mgrwt>
</event>
<event>
 8    1  0.5224537E-004  0.1052405E+03  0.7546771E-02  0.1269861E+00
         -1   -1    0    0    0  501 -0.00000000000E+00  0.00000000000E+00  0.17629776674E+03  0.17629776674E+03  0.00000000000E+00 0.  1.
          1   -1    0    0  501    0  0.00000000000E+00 -0.00000000000E+00 -0.19771535330E+03  0.19771535330E+03  0.00000000000E+00 0. -1.
         23    2    1    2    0    0 -0.51831945940E+02 -0.73310850955E+00  0.14391197678E+03  0.17802988446E+03  0.91087291283E+02 0.  0.
         23    2    1    2    0    0  0.51831945940E+02  0.73310850955E+00 -0.16532956334E+03  0.19598323557E+03  0.91588623997E+02 0.  0.
          5    1    4    4  502    0  0.27567458279E+02  0.21189742741E+02 -0.15957662053E+03  0.16338836487E+03  0.47000000000E+01 0. -1.
         -5    1    3    3    0  503 -0.30185868684E+02 -0.34631975231E+02  0.25215966001E+02  0.52616492832E+02  0.47000000000E+01 0.  1.
          5    1    3    3  503    0 -0.21646077255E+02  0.33898866721E+02  0.11869601078E+03  0.12541339163E+03  0.47000000000E+01 0. -1.
         -5    1    4    4    0  502  0.24264487660E+02 -0.20456634232E+02 -0.57529428018E+01  0.32594870706E+02  0.47000000000E+01 0.  1.
<mgrwt>
<rscale>  0 0.10513133E+03</rscale>
<asrwt>0</asrwt>
<pdfrwt beam="1">  1        1 0.30417747E-01 0.10524051E+03</pdfrwt>
<pdfrwt beam="2">  1       -1 0.27122733E-01 0.10524051E+03</pdfrwt>
<totfact> 0.17513680E+03</totfact>
</mgrwt>
</event>
<event>
 8    1  0.5224537E-004  0.1122742E+03  0.7546771E-02  0.1256634E+00
          1   -1    0    0  501    0  0.00000000000E+00  0.00000000000E+00  0.26718215394E+03  0.26718215394E+03  0.00000000000E+00 0. -1.
         -1   -1    0    0    0  501 -0.00000000000E+00 -0.00000000000E+00 -0.96297564783E+02  0.96297564783E+02  0.00000000000E+00 0.  1.
         23    2    1    2    0    0 -0.36203665992E+02 -0.52912293170E+02 -0.44532183712E+02  0.12078329310E+03  0.92168716527E+02 0.  0.
         23    2    1    2    0    0  0.36203665992E+02  0.52912293170E+02  0.21541677287E+03  0.24269642562E+03  0.91579215855E+02 0.  0.
          5    1    3    3  502    0 -0.11148645368E+02 -0.30960786015E+02  0.26287845440E+02  0.42379280104E+02  0.47000000000E+01 0. -1.
         -5    1    3    3    0  502 -0.25055020624E+02 -0.21951507155E+02 -0.70820029152E+02  0.78404012996E+02  0.47000000000E+01 0.  1.
          5    1    4    4  503    0 -0.62115195934E+01  0.66498739598E+02  0.12543017522E+03  0.14218116683E+03  0.47000000000E+01 0. -1.
         -5    1    4    4    0  503  0.42415185585E+02 -0.13586446428E+02  0.89986597645E+02  0.10051525879E+03  0.47000000000E+01 0.  1.
<mgrwt>
<rscale>  0 0.11215311E+03</rscale>
<asrwt>0</asrwt>
<pdfrwt beam="1">  1        1 0.41104946E-01 0.11227417E+03</pdfrwt>
<pdfrwt beam="2">  1       -1 0.14815010E-01 0.11227417E+03</pdfrwt>
<totfact> 0.31889360E+03</totfact>
</mgrwt>
</event>
<event>
 8    1  0.5224537E-004  0.1193976E+03  0.7546771E-02  0.1248459E+00
         -1   -1    0    0    0  501 -0.00000000000E+00  0.00000000000E+00  0.50709236197E+03  0.50709236197E+03  0.00000000000E+00 0.  1.
          1   -1    0    0  501    0  0.00000000000E+00 -0.00000000000E+00 -0.35147061030E+02  0.35147061030E+02  0.00000000000E+00 0. -1.
         23    2    1    2    0    0  0.27605003292E+02  0.68863735817E+02  0.10385844251E+03  0.15824776399E+03  0.93549604001E+02 0.  0.
         23    2    1    2    0    0 -0.27605003292E+02 -0.68863735817E+02  0.36808685842E+03  0.38399165901E+03  0.80358002254E+02 0.  0.
          5    1    4    4  502    0  0.23406069470E+02 -0.41894393292E+00  0.80025234799E+02  0.83511363338E+02  0.47000000000E+01 0. -1.
         -5    1    4    4    0  502 -0.51011072762E+02 -0.68444791884E+02  0.28806162363E+03  0.30048029567E+03  0.47000000000E+01 0.  1.
          5    1    3    3  503    0  0.20681623103E+02 -0.18839075462E+02  0.11505897265E+02  0.30612349964E+02  0.47000000000E+01 0. -1.
         -5    1    3    3    0  503  0.69233801894E+01  0.87702811279E+02  0.92352545245E+02  0.12763541402E+03  0.47000000000E+01 0.  1.
<mgrwt>
<rscale>  0 0.11680745E+03</rscale>
<asrwt>0</asrwt>
<pdfrwt beam="1">  1        1 0.54072405E-02 0.11939757E+03</pdfrwt>
<pdfrwt beam="2">  1       -1 0.78014204E-01 0.11939757E+03</pdfrwt>
<totfact> 0.24649636E+03</totfact>
</mgrwt>
</event>
<event>
 8    1  0.5224537E-004  0.1033569E+03  0.7546771E-02  0.1273589E+00
          1   -1    0    0  501    0  0.00000000000E+00  0.00000000000E+00  0.16222536449E+03  0.16222536449E+03  0.00000000000E+00 0. -1.
         -1   -1    0    0    0  501 -0.00000000000E+00 -0.00000000000E+00 -0.65738050916E+02  0.65738050916E+02  0.00000000000E+00 0.  1.
         23    2    1    2    0    0 -0.33579715240E+02 -0.34929009856E+02  0.53357983532E+02  0.11596884849E+03  0.90851892703E+02 0.  0.
         23    2    1    2    0    0  0.33579715240E+02  0.34929009856E+02  0.43129330045E+02  0.11199456692E+03  0.91296280891E+02 0.  0.
          5    1    4    4  502    0  0.14975492522E+02 -0.29967581109E+02  0.24605577307E+02  0.41831157388E+02  0.47000000000E+01 0. -1.
         -5    1    4    4    0  502  0.18604222718E+02  0.64896590965E+02  0.18523752738E+02  0.70163409533E+02  0.47000000000E+01 0.  1.
          5    1    3    3  503    0 -0.33419780505E+02 -0.64195671175E+02  0.31161516638E+02  0.78937291857E+02  0.47000000000E+01 0. -1.
         -5    1    3    3    0  503 -0.15993473525E+00  0.29266661318E+02  0.22196466895E+02  0.37031556630E+02  0.47000000000E+01 0.  1.
<mgrwt>
<rscale>  0 0.10325866E+03</rscale>
<asrwt>0</asrwt>
<pdfrwt beam="1">  1        1 0.24957748E-01 0.10335688E+03</pdfrwt>
<pdfrwt beam="2">  1       -1 0.10113546E-01 0.10335688E+03</pdfrwt>
<totfact> 0.10546076E+04</totfact>
</mgrwt>
</event>
<event>
 8    1  0.5224537E-004  0.9578922E+02  0.7546771E-02  0.1291454E+00
          1   -1    0    0  501    0  0.00000000000E+00  0.00000000000E+00  0.20645452605E+03  0.20645452605E+03  0.00000000000E+00 0. -1.
         -1   -1    0    0    0  501 -0.00000000000E+00 -0.00000000000E+00 -0.45566675865E+02  0.45566675865E+02  0.00000000000E+00 0.  1.
         23    2    1    2    0    0 -0.36551935596E+01 -0.98235375730E+01  0.11009949200E+03  0.14360057742E+03  0.91593478835E+02 0.  0.
         23    2    1    2    0    0  0.36551935596E+01  0.98235375730E+01  0.50788358180E+02  0.10842062449E+03  0.95214033412E+02 0.  0.
          5    1    4    4  502    0 -0.90402941129E+01  0.39059575769E+02  0.62277156637E+02  0.74215305805E+02  0.47000000000E+01 0. -1.
         -5    1    4    4    0  502  0.12695487673E+02 -0.29236038196E+02 -0.11488798457E+02  0.34205318689E+02  0.47000000000E+01 0.  1.
          5    1    3    3  503    0 -0.42069359774E+02 -0.18781390871E+02  0.32986995930E+02  0.56857748595E+02  0.47000000000E+01 0. -1.
         -5    1    3    3    0  503  0.38414166214E+02  0.89578532976E+01  0.77112496071E+02  0.86742828822E+02  0.47000000000E+01 0.  1.
<mgrwt>
<rscale>  0 0.94876774E+02</rscale>
<asrwt>0</asrwt>
<pdfrwt beam="1">  1        1 0.31762234E-01 0.95789219E+02</pdfrwt>
<pdfrwt beam="2">  1       -1 0.70102579E-02 0.95789219E+02</pdfrwt>
<totfact> 0.13472463E+04</totfact>
</mgrwt>
</event>
<event>
 8    1  0.5224537E-004  0.1169571E+03  0.7546771E-02  0.1248861E+00
         -4   -1    0    0    0  501 -0.00000000000E+00  0.00000000000E+00  0.53609106905E+02  0.53609106905E+02  0.00000000000E+00 0.  1.
          4   -1    0    0  501    0  0.00000000000E+00 -0.00000000000E+00 -0.38736458143E+03  0.38736458143E+03  0.00000000000E+00 0. -1.
         23    2    1    2    0    0  0.28432058587E+01  0.71443192579E+02 -0.37174652108E+02  0.12272295665E+03  0.92556770382E+02 0.  0.
         23    2    1    2    0    0 -0.28432058587E+01 -0.71443192579E+02 -0.29658082242E+03  0.31825073169E+03  0.90615287940E+02 0.  0.
          5    1    4    4  502    0 -0.28282869633E+02  0.96791275229E+01 -0.80315130474E+02  0.85826664897E+02  0.47000000000E+01 0.  1.
         -5    1    4    4    0  502  0.25439663774E+02 -0.81122320102E+02 -0.21626569195E+03  0.23242406679E+03  0.47000000000E+01 0. -1.
          5    1    3    3  503    0 -0.40931954592E+02  0.18070875258E+02 -0.18226041780E+01  0.45026584650E+02  0.47000000000E+01 0. -1.
         -5    1    3    3    0  503  0.43775160451E+02  0.53372317321E+02 -0.35352047930E+02  0.77696371997E+02  0.47000000000E+01 0.  1.
<mgrwt>
<rscale>  0 0.11657265E+03</rscale>
<asrwt>0</asrwt>
<pdfrwt beam="1">  1        4 0.59594549E-01 0.11695713E+03</pdfrwt>
<pdfrwt beam="2">  1       -4 0.82475551E-02 0.11695713E+03</pdfrwt>
<totfact> 0.45532022E+02</totfact>
</mgrwt>
</event>
<event>
 8    1  0.5224537E-004  0.1397705E+03  0.7546771E-02  0.1214394E+00
          1   -1    0    0  501    0  0.00000000000E+00  0.00000000000E+00  0.11903808549E+03  0.11903808549E+03  0.00000000000E+00 0. -1.
         -1   -1    0    0    0  501 -0.00000000000E+00 -0.00000000000E+00 -0.16325150901E+03  0.16325150901E+03  0.00000000000E+00 0.  1.
         23    2    1    2    0    0 -0.10322093312E+03  0.17145665895E+02 -0.36841663735E+02  0.14454448207E+03  0.92667492772E+02 0.  0.
         23    2    1    2    0    0  0.10322093312E+03 -0.17145665895E+02 -0.73717597856E+01  0.13774511242E+03  0.89279551195E+02 0.  0.
          5    1    4    4  502    0  0.42321374074E+02 -0.47301065151E+01  0.40651939263E+02  0.59060500988E+02  0.47000000000E+01 0. -1.
         -5    1    4    4    0  502  0.60899559044E+02 -0.12415559380E+02 -0.48023699049E+02  0.78684611436E+02  0.47000000000E+01 0.  1.
          5    1    3    3  503    0 -0.15677542899E+02 -0.30991386495E+02  0.63202691797E+01  0.35613019960E+02  0.47000000000E+01 0. -1.
         -5    1    3    3    0  503 -0.87543390219E+02  0.48137052389E+02 -0.43161932915E+02  0.10893146211E+03  0.47000000000E+01 0.  1.
<mgrwt>
<rscale>  0 0.13921148E+03</rscale>
<asrwt>0</asrwt>
<pdfrwt beam="1">  1        1 0.18313552E-01 0.13977052E+03</pdfrwt>
<pdfrwt beam="2">  1       -1 0.25115617E-01 0.13977052E+03</pdfrwt>
<totfact> 0.38080139E+03</totfact>
</mgrwt>
</event>
<event>
 8    1  0.5224537E-004  0.2795818E+03  0.7546771E-02  0.1096229E+00
          2   -1    0    0  501    0  0.00000000000E+00  0.00000000000E+00  0.21941850077E+04  0.21941850077E+04  0.00000000000E+00 0. -1.
         -2   -1    0    0    0  501 -0.00000000000E+00 -0.00000000000E+00 -0.35820806844E+02  0.35820806844E+02  0.00000000000E+00 0.  1.
         23    2    1    2    0    0 -0.18369777751E+03  0.18729250398E+03  0.95378214766E+03  0.99391467082E+03  0.96657292406E+02 0.  0.
         23    2    1    2    0    0  0.18369777751E+03 -0.18729250398E+03  0.12045820532E+04  0.12360911437E+04  0.89889027074E+02 0.  0.
          5    1    3    3  502    0 -0.60138005623E+02  0.12263603215E+03  0.39502685683E+03  0.41800057861E+03  0.47000000000E+01 0. -1.
         -5    1    3    3    0  502 -0.12355977189E+03  0.64656471821E+02  0.55875529082E+03  0.57591409221E+03  0.47000000000E+01 0.  1.
          5    1    4    4  503    0  0.15968895906E+03 -0.10480412773E+03  0.80807895310E+03  0.83036025512E+03  0.47000000000E+01 0. -1.
         -5    1    4    4    0  503  0.24008818453E+02 -0.82488376250E+02  0.39650310006E+03  0.40573088857E+03  0.47000000000E+01 0.  1.
<mgrwt>
<rscale>  0 0.27901328E+03</rscale>
<asrwt>0</asrwt>
<pdfrwt beam="1">  1        2 0.33756682E+00 0.27958181E+03</pdfrwt>
<pdfrwt beam="2">  1       -2 0.55108951E-02 0.27958181E+03</pdfrwt>
<totfact> 0.98819836E+02</totfact>
</mgrwt>
</event>
<event>
 8    1  0.5224537E-004  0.1000886E+03  0.7546771E-02  0.1282566E+00
          2   -1    0    0  501    0  0.00000000000E+00  0.00000000000E+00  0.92983343869E+03  0.92983343869E+03  0.00000000000E+00 0. -1.
         -2   -1    0    0    0  501 -0.00000000000E+00 -0.00000000000E+00 -0.10291014769E+02  0.10291014769E+02  0.00000000000E+00 0.  1.
         23    2    1    2    0    0 -0.41669200750E+02  0.16867327724E+02  0.47818532057E+03  0.48854778078E+03  0.89425411685E+02 0.  0.
         23    2    1    2    0    0  0.41669200750E+02 -0.16867327724E+02  0.44135710335E+03  0.45157667268E+03  0.84288608956E+02 0.  0.
          5    1    3    3  502    0 -0.37828580758E+02  0.51879855537E+02  0.32171021154E+03  0.32808851114E+03  0.47000000000E+01 0. -1.
         -5    1    3    3    0  502 -0.38406199916E+01 -0.35012527812E+02  0.15647510903E+03  0.16045926964E+03  0.47000000000E+01 0.  1.
          5    1    4    4  503    0  0.64659671750E+02 -0.24744998271E+02  0.28847907205E+03  0.29670768965E+03  0.47000000000E+01 0. -1.
         -5    1    4    4    0  503 -0.22990471001E+02  0.78776705465E+01  0.15287803130E+03  0.15486898303E+03  0.47000000000E+01 0.  1.
<mgrwt>
<rscale>  0 0.98928182E+02</rscale>
<asrwt>0</asrwt>
<pdfrwt beam="1">  1        2 0.14305123E+00 0.10008863E+03</pdfrwt>
<pdfrwt beam="2">  1       -2 0.15832338E-02 0.10008863E+03</pdfrwt>
<totfact> 0.29159860E+04</totfact>
</mgrwt>
</event>
<event>
 8    1  0.5224537E-004  0.9494739E+02  0.7546771E-02  0.1300056E+00
          1   -1    0    0  501    0  0.00000000000E+00  0.00000000000E+00  0.48864360104E+02  0.48864360104E+02  0.00000000000E+00 0. -1.
         -1   -1    0    0    0  501 -0.00000000000E+00 -0.00000000000E+00 -0.23578104475E+03  0.23578104475E+03  0.00000000000E+00 0.  1.
         23    2    1    2    0    0  0.19457706402E+02 -0.18343434738E+02 -0.17003091920E+03  0.18820819401E+03  0.76136238877E+02 0.  0.
         23    2    1    2    0    0 -0.19457706402E+02  0.18343434738E+02 -0.16885765444E+02  0.96437210847E+02  0.91103911139E+02 0.  0.
          5    1    4    4  502    0 -0.39153958026E+01  0.47176765730E+02  0.15601210239E+02  0.50064611353E+02  0.47000000000E+01 0. -1.
         -5    1    3    3    0  503  0.47625608070E+02 -0.19342085629E+02 -0.11919597093E+03  0.12989258757E+03  0.47000000000E+01 0.  1.
          5    1    3    3  503    0 -0.28167901668E+02  0.99865089037E+00 -0.50834948273E+02  0.58315606435E+02  0.47000000000E+01 0. -1.
         -5    1    4    4    0  502 -0.15542310600E+02 -0.28833330991E+02 -0.32486975682E+02  0.46372599494E+02  0.47000000000E+01 0.  1.
<mgrwt>
<rscale>  0 0.91164339E+02</rscale>
<asrwt>0</asrwt>
<pdfrwt beam="1">  1        1 0.75175939E-02 0.94947388E+02</pdfrwt>
<pdfrwt beam="2">  1       -1 0.36274007E-01 0.94947388E+02</pdfrwt>
<totfact> 0.64112597E+03</totfact>
</mgrwt>
</event>
<event>
 8    1  0.5224537E-004  0.9546527E+02  0.7546771E-02  0.1293096E+00
          1   -1    0    0  501    0  0.00000000000E+00  0.00000000000E+00  0.29228076040E+03  0.29228076040E+03  0.00000000000E+00 0. -1.
         -1   -1    0    0    0  501 -0.00000000000E+00 -0.00000000000E+00 -0.45132923538E+02  0.45132923538E+02  0.00000000000E+00 0.  1.
         23    2    1    2    0    0  0.14981348994E+02 -0.15022738888E+02  0.22146344949E+02  0.92997462598E+02  0.87794897082E+02 0.  0.
         23    2    1    2    0    0 -0.14981348994E+02  0.15022738888E+02  0.22500149191E+03  0.24441622134E+03  0.93077894203E+02 0.  0.
          5    1    3    3  502    0 -0.50918575811E+01  0.24557391297E+02  0.37884494310E+02  0.45676223466E+02  0.47000000000E+01 0. -1.
         -5    1    4    4    0  503  0.33081190340E+02  0.10723567128E+02  0.40205015745E+02  0.53365656909E+02  0.47000000000E+01 0.  1.
          5    1    4    4  503    0 -0.48062539334E+02  0.42991717605E+01  0.18479647616E+03  0.19105056443E+03  0.47000000000E+01 0. -1.
         -5    1    3    3    0  502  0.20073206575E+02 -0.39580130185E+02 -0.15738149361E+02  0.47321239132E+02  0.47000000000E+01 0.  1.
<mgrwt>
<rscale>  0 0.94152633E+02</rscale>
<asrwt>0</asrwt>
<pdfrwt beam="1">  1        1 0.44966270E-01 0.95465271E+02</pdfrwt>
<pdfrwt beam="2">  1       -1 0.69435269E-02 0.95465271E+02</pdfrwt>
<totfact> 0.89287765E+03</totfact>
</mgrwt>
</event>
<event>
 8    1  0.5224537E-004  0.9618151E+02  0.7546771E-02  0.1288804E+00
          1   -1    0    0  501    0  0.00000000000E+00  0.00000000000E+00  0.67977770974E+03  0.67977770974E+03  0.00000000000E+00 0. -1.
         -1   -1    0    0    0  501 -0.00000000000E+00 -0.00000000000E+00 -0.21119075212E+02  0.21119075212E+02  0.00000000000E+00 0.  1.
         23    2    1    2    0    0 -0.15230237688E+02  0.25882128305E+02  0.11992975250E+03  0.15373362743E+03  0.91373070221E+02 0.  0.
         23    2    1    2    0    0  0.15230237688E+02 -0.25882128305E+02  0.53872888203E+03  0.54716315752E+03  0.90867309390E+02 0.  0.
          5    1    4    4  502    0  0.43557304238E+01 -0.59048555637E+02  0.29685222881E+03  0.30273592462E+03  0.47000000000E+01 0. -1.
         -5    1    4    4    0  502  0.10874507265E+02  0.33166427331E+02  0.24187665322E+03  0.24442723290E+03  0.47000000000E+01 0.  1.
          5    1    3    3  503    0  0.20445735251E+02  0.19621875246E+02  0.11295324911E+03  0.11654858456E+03  0.47000000000E+01 0. -1.
         -5    1    3    3    0  503 -0.35675972940E+02  0.62602530589E+01  0.69765033893E+01  0.37185042868E+02  0.47000000000E+01 0.  1.
<mgrwt>
<rscale>  0 0.96061197E+02</rscale>
<asrwt>0</asrwt>
<pdfrwt beam="1">  1        1 0.10458117E+00 0.96181509E+02</pdfrwt>
<pdfrwt beam="2">  1       -1 0.32490890E-02 0.96181509E+02</pdfrwt>
<totfact> 0.92320642E+03</totfact>
</mgrwt>
</event>
<event>
 8    1  0.5224537E-004  0.1021821E+03  0.7546771E-02  0.1276669E+00
         -1   -1    0    0    0  501 -0.00000000000E+00  0.00000000000E+00  0.10984094168E+03  0.10984094168E+03  0.00000000000E+00 0.  1.
          1   -1    0    0  501    0  0.00000000000E+00 -0.00000000000E+00 -0.23618196379E+03  0.23618196379E+03  0.00000000000E+00 0. -1.
         23    2    1    2    0    0  0.44971863717E+02 -0.10818724213E+01  0.71111052207E+02  0.12449085595E+03  0.91747220638E+02 0.  0.
         23    2    1    2    0    0 -0.44971863717E+02  0.10818724213E+01 -0.19745207431E+03  0.22153204952E+03  0.89808063890E+02 0.  0.
          5    1    3    3  502    0  0.16668539339E+02  0.38912558657E+02  0.62201753899E+01  0.43044256374E+02  0.47000000000E+01 0. -1.
         -5    1    3    3    0  502  0.28303324378E+02 -0.39994431078E+02  0.64890876817E+02  0.81446599574E+02  0.47000000000E+01 0.  1.
          5    1    4    4  503    0 -0.66720492056E+02  0.28881738049E+01 -0.18319293183E+03  0.19504283089E+03  0.47000000000E+01 0. -1.
         -5    1    4    4    0  503  0.21748628339E+02 -0.18063013836E+01 -0.14259142478E+02  0.26489218628E+02  0.47000000000E+01 0.  1.
<mgrwt>
<rscale>  0 0.10174498E+03</rscale>
<asrwt>0</asrwt>
<pdfrwt beam="1">  1        1 0.36335687E-01 0.10218215E+03</pdfrwt>
<pdfrwt beam="2">  1       -1 0.16898606E-01 0.10218215E+03</pdfrwt>
<totfact> 0.30051514E+03</totfact>
</mgrwt>
</event>
<event>
 8    1  0.5224537E-004  0.9406696E+02  0.7546771E-02  0.1295141E+00
          2   -1    0    0  501    0  0.00000000000E+00  0.00000000000E+00  0.32744687611E+03  0.32744687611E+03  0.00000000000E+00 0. -1.
         -2   -1    0    0    0  501 -0.00000000000E+00 -0.00000000000E+00 -0.26723299295E+02  0.26723299295E+02  0.00000000000E+00 0.  1.
         23    2    1    2    0    0 -0.65959464345E+01  0.20534472437E+01  0.17451050140E+03  0.19675882283E+03  0.90622271594E+02 0.  0.
         23    2    1    2    0    0  0.65959464345E+01 -0.20534472437E+01  0.12621307541E+03  0.15741135257E+03  0.93812954103E+02 0.  0.
          5    1    4    4  502    0  0.12175017970E+01  0.45608204879E+02  0.60572947400E+02  0.75978698460E+02  0.47000000000E+01 0. -1.
         -5    1    3    3    0  503 -0.43274823223E+02 -0.19716365205E+02  0.85613524419E+02  0.98046983357E+02  0.47000000000E+01 0.  1.
          5    1    3    3  503    0  0.36678876789E+02  0.21769812448E+02  0.88896976977E+02  0.98711839473E+02  0.47000000000E+01 0. -1.
         -5    1    4    4    0  502  0.53784446375E+01 -0.47661652123E+02  0.65640128014E+02  0.81432654111E+02  0.47000000000E+01 0.  1.
<mgrwt>
<rscale>  0 0.93261228E+02</rscale>
<asrwt>0</asrwt>
<pdfrwt beam="1">  1        2 0.50376440E-01 0.94066963E+02</pdfrwt>
<pdfrwt beam="2">  1       -2 0.41112770E-02 0.94066963E+02</pdfrwt>
<totfact> 0.23534530E+04</totfact>
</mgrwt>
</event>
<event>
 8    1  0.5224537E-004  0.1126062E+03  0.7546771E-02  0.1256711E+00
          3   -1    0    0  501    0  0.00000000000E+00  0.00000000000E+00  0.16884554522E+02  0.16884554522E+02  0.00000000000E+00 0. -1.
         -3   -1    0    0    0  501 -0.00000000000E+00 -0.00000000000E+00 -0.75132759656E+03  0.75132759656E+03  0.00000000000E+00 0.  1.
         23    2    1    2    0    0 -0.30866870082E+02  0.53295546475E+02 -0.41537987763E+03  0.42986107693E+03  0.91907147578E+02 0.  0.
         23    2    1    2    0    0  0.30866870082E+02 -0.53295546475E+02 -0.31906316441E+03  0.33835107415E+03  0.94270714201E+02 0.  0.
          5    1    3    3  502    0  0.28146204668E+02  0.20007456587E+02 -0.74069967200E+02  0.81859374523E+02  0.47000000000E+01 0. -1.
         -5    1    4    4    0  503 -0.32281459640E+02 -0.17943123045E+02 -0.14672764109E+03  0.15137747178E+03  0.47000000000E+01 0.  1.
          5    1    4    4  503    0  0.63148329722E+02 -0.35352423430E+02 -0.17233552332E+03  0.18697360238E+03  0.47000000000E+01 0. -1.
         -5    1    3    3    0  502 -0.59013074750E+02  0.33288089888E+02 -0.34130991043E+03  0.34800170240E+03  0.47000000000E+01 0.  1.
<mgrwt>
<rscale>  0 0.11211010E+03</rscale>
<asrwt>0</asrwt>
<pdfrwt beam="1">  1        3 0.25976238E-02 0.11260616E+03</pdfrwt>
<pdfrwt beam="2">  1       -3 0.11558886E+00 0.11260616E+03</pdfrwt>
<totfact> 0.92304033E+02</totfact>
</mgrwt>
</event>
<event>
 8    1  0.5224537E-004  0.1516146E+03  0.7546771E-02  0.1199031E+00
         -2   -1    0    0    0  501 -0.00000000000E+00  0.00000000000E+00  0.38179316227E+02  0.38179316227E+02  0.00000000000E+00 0.  1.
          2   -1    0    0  501    0  0.00000000000E+00 -0.00000000000E+00 -0.75763456983E+03  0.75763456983E+03  0.00000000000E+00 0. -1.
         23    2    1    2    0    0 -0.11961170727E+03 -0.42378169655E+01 -0.17712315595E+03  0.23315142982E+03  0.93070173757E+02 0.  0.
         23    2    1    2    0    0  0.11961170727E+03  0.42378169655E+01 -0.54233209765E+03  0.56266245624E+03  0.90222036716E+02 0.  0.
          5    1    4    4  502    0  0.10282990047E+03 -0.24085269518E+02 -0.48495958782E+03  0.49634864808E+03  0.47000000000E+01 0. -1.
         -5    1    3    3    0  503 -0.83236990397E+02 -0.43281137567E+02 -0.85510917000E+02  0.12702700644E+03  0.47000000000E+01 0.  1.
          5    1    3    3  503    0 -0.36374716873E+02  0.39043320601E+02 -0.91612238949E+02  0.10612442337E+03  0.47000000000E+01 0. -1.
         -5    1    4    4    0  502  0.16781806805E+02  0.28323086484E+02 -0.57372509839E+02  0.66313808161E+02  0.47000000000E+01 0.  1.
<mgrwt>
<rscale>  0 0.15117983E+03</rscale>
<asrwt>0</asrwt>
<pdfrwt beam="1">  1        2 0.11655917E+00 0.15161457E+03</pdfrwt>
<pdfrwt beam="2">  1       -2 0.58737407E-02 0.15161457E+03</pdfrwt>
<totfact> 0.56607702E+03</totfact>
</mgrwt>
</event>
<event>
 8    1  0.5224537E-004  0.9754160E+02  0.7546771E-02  0.1286111E+00
         -1   -1    0    0    0  501 -0.00000000000E+00  0.00000000000E+00  0.36378261327E+02  0.36378261327E+02  0.00000000000E+00 0.  1.
          1   -1    0    0  501    0  0.00000000000E+00 -0.00000000000E+00 -0.29016238822E+03  0.29016238822E+03  0.00000000000E+00 0. -1.
         23    2    1    2    0    0  0.20534636887E+02  0.21907230606E+02 -0.72622099947E+02  0.12078826736E+03  0.91729156030E+02 0.  0.
         23    2    1    2    0    0 -0.20534636887E+02 -0.21907230606E+02 -0.18116202695E+03  0.20575238219E+03  0.92804982108E+02 0.  0.
          5    1    4    4  502    0  0.38161498543E+01  0.23595358748E+02 -0.13231086113E+03  0.13453459751E+03  0.47000000000E+01 0. -1.
         -5    1    3    3    0  503 -0.23760471108E+02 -0.17023531007E+02 -0.48665457326E+02  0.56962947009E+02  0.47000000000E+01 0.  1.
          5    1    3    3  503    0  0.44295107995E+02  0.38930761613E+02 -0.23956642621E+02  0.63825320350E+02  0.47000000000E+01 0. -1.
         -5    1    4    4    0  502 -0.24350786741E+02 -0.45502589355E+02 -0.48851165815E+02  0.71217784677E+02  0.47000000000E+01 0.  1.
<mgrwt>
<rscale>  0 0.97284829E+02</rscale>
<asrwt>0</asrwt>
<pdfrwt beam="1">  1        1 0.44640366E-01 0.97541595E+02</pdfrwt>
<pdfrwt beam="2">  1       -1 0.55966558E-02 0.97541595E+02</pdfrwt>
<totfact> 0.12413925E+04</totfact>
</mgrwt>
</event>
<event>
 8    1  0.5224537E-004  0.9759854E+02  0.7546771E-02  0.1286126E+00
          1   -1    0    0  501    0  0.00000000000E+00  0.00000000000E+00  0.74187576995E+03  0.74187576995E+03  0.00000000000E+00 0. -1.
         -1   -1    0    0    0  501 -0.00000000000E+00 -0.00000000000E+00 -0.12737868459E+02  0.12737868459E+02  0.00000000000E+00 0.  1.
         23    2    1    2    0    0 -0.30174496386E+02 -0.13989682718E+02  0.33994250964E+03  0.35367553687E+03  0.91756547818E+02 0.  0.
         23    2    1    2    0    0  0.30174496386E+02  0.13989682718E+02  0.38919539186E+03  0.40093810154E+03  0.90399650283E+02 0.  0.
          5    1    3    3  502    0 -0.26429078188E+02  0.27046226995E+02  0.62874373076E+02  0.73520550584E+02  0.47000000000E+01 0. -1.
         -5    1    3    3    0  502 -0.37454181975E+01 -0.41035909713E+02  0.27706813656E+03  0.28015498628E+03  0.47000000000E+01 0.  1.
          5    1    4    4  503    0 -0.29757501867E+02 -0.82547117094E+01  0.15580363048E+03  0.15890409199E+03  0.47000000000E+01 0. -1.
         -5    1    4    4    0  503  0.59931998253E+02  0.22244394427E+02  0.23339176138E+03  0.24203400955E+03  0.47000000000E+01 0.  1.
<mgrwt>
<rscale>  0 0.97278328E+02</rscale>
<asrwt>0</asrwt>
<pdfrwt beam="1">  1        1 0.11413470E+00 0.97598543E+02</pdfrwt>
<pdfrwt beam="2">  1       -1 0.19596726E-02 0.97598543E+02</pdfrwt>
<totfact> 0.16885345E+04</totfact>
</mgrwt>
</event>
<event>
 8    1  0.5224537E-004  0.1306332E+03  0.7546771E-02  0.1227664E+00
          2   -1    0    0  501    0  0.00000000000E+00  0.00000000000E+00  0.17203698358E+03  0.17203698358E+03  0.00000000000E+00 0. -1.
         -2   -1    0    0    0  501 -0.00000000000E+00 -0.00000000000E+00 -0.97071284424E+02  0.97071284424E+02  0.00000000000E+00 0.  1.
         23    2    1    2    0    0  0.22888508113E+02 -0.90929931347E+02  0.43027670291E+02  0.13462752284E+03  0.86493082245E+02 0.  0.
         23    2    1    2    0    0 -0.22888508113E+02  0.90929931347E+02  0.31938028863E+02  0.13448074517E+03  0.90955466654E+02 0.  0.
          5    1    4    4  502    0 -0.19490553804E+02  0.33008297034E+02  0.58817297535E+02  0.70363299027E+02  0.47000000000E+01 0. -1.
         -5    1    4    4    0  502 -0.33979543089E+01  0.57921634312E+02 -0.26879268672E+02  0.64117446138E+02  0.47000000000E+01 0.  1.
          5    1    3    3  503    0 -0.32195871198E+02 -0.32098296023E+02  0.70631421275E+01  0.46247731906E+02  0.47000000000E+01 0. -1.
         -5    1    3    3    0  503  0.55084379311E+02 -0.58831635324E+02  0.35964528164E+02  0.88379790931E+02  0.47000000000E+01 0.  1.
<mgrwt>
<rscale>  0 0.12985966E+03</rscale>
<asrwt>0</asrwt>
<pdfrwt beam="1">  1        2 0.26467228E-01 0.13063320E+03</pdfrwt>
<pdfrwt beam="2">  1       -2 0.14934044E-01 0.13063320E+03</pdfrwt>
<totfact> 0.65904617E+03</totfact>
</mgrwt>
</event>
<event>
 8    1  0.5224537E-004  0.1609259E+03  0.7546771E-02  0.1187840E+00
         -2   -1    0    0    0  501 -0.00000000000E+00  0.00000000000E+00  0.26946482484E+02  0.26946482484E+02  0.00000000000E+00 0.  1.
          2   -1    0    0  501    0  0.00000000000E+00 -0.00000000000E+00 -0.17012310311E+04  0.17012310311E+04  0.00000000000E+00 0. -1.
         23    2    1    2    0    0  0.83419039378E+02  0.10168462648E+03 -0.14095755664E+04  0.14187319752E+04  0.92728856508E+02 0.  0.
         23    2    1    2    0    0 -0.83419039378E+02 -0.10168462648E+03 -0.26470898229E+03  0.30944553840E+03  0.91581638648E+02 0.  0.
          5    1    4    4  502    0 -0.46940859316E+02 -0.62365572891E+01 -0.14162490987E+03  0.14940563582E+03  0.47000000000E+01 0. -1.
         -5    1    4    4    0  502 -0.36478180062E+02 -0.95448069194E+02 -0.12308407242E+03  0.16003990258E+03  0.47000000000E+01 0.  1.
          5    1    3    3  503    0  0.34323131532E+02  0.10460734181E+03 -0.10529121860E+04  0.10586628050E+04  0.47000000000E+01 0. -1.
         -5    1    3    3    0  503  0.49095907846E+02 -0.29227153242E+01 -0.35666338039E+03  0.36006917023E+03  0.47000000000E+01 0.  1.
<mgrwt>
<rscale>  0 0.16076105E+03</rscale>
<asrwt>0</asrwt>
<pdfrwt beam="1">  1        2 0.26172786E+00 0.16092588E+03</pdfrwt>
<pdfrwt beam="2">  1       -2 0.41456125E-02 0.16092588E+03</pdfrwt>
<totfact> 0.27773334E+03</totfact>
</mgrwt>
</event>
<event>
 8    1  0.5224537E-004  0.3034479E+03  0.7546771E-02  0.1084071E+00
         -1   -1    0    0    0  501 -0.00000000000E+00  0.00000000000E+00  0.10866853641E+03  0.10866853641E+03  0.00000000000E+00 0.  1.
          1   -1    0    0  501    0  0.00000000000E+00 -0.00000000000E+00 -0.12033012537E+04  0.12033012537E+04  0.00000000000E+00 0. -1.
         23    2    1    2    0    0  0.27149787101E+03  0.87718863607E+02 -0.90736851207E+03  0.95539087874E+03  0.89712995088E+02 0.  0.
         23    2    1    2    0    0 -0.27149787101E+03 -0.87718863607E+02 -0.18726420519E+03  0.35657891134E+03  0.10331962289E+03 0.  0.
          5    1    4    4  502    0 -0.37367526637E+01 -0.21319588586E+02  0.16190224477E+01  0.22208093381E+02  0.47000000000E+01 0. -1.
         -5    1    4    4    0  502 -0.26776111834E+03 -0.66399275021E+02 -0.18888322763E+03  0.33437081796E+03  0.47000000000E+01 0.  1.
          5    1    3    3  503    0  0.16328009439E+03  0.86737565775E+02 -0.47703417452E+03  0.51163218058E+03  0.47000000000E+01 0. -1.
         -5    1    3    3    0  503  0.10821777662E+03  0.98129783166E+00 -0.43033433755E+03  0.44375869816E+03  0.47000000000E+01 0.  1.
<mgrwt>
<rscale>  0 0.30235222E+03</rscale>
<asrwt>0</asrwt>
<pdfrwt beam="1">  1        1 0.18512326E+00 0.30344792E+03</pdfrwt>
<pdfrwt beam="2">  1       -1 0.16718238E-01 0.30344792E+03</pdfrwt>
<totfact> 0.30796290E+02</totfact>
</mgrwt>
</event>
<event>
 8    1  0.5224537E-004  0.9291664E+02  0.7546771E-02  0.1310594E+00
         -2   -1    0    0    0  501 -0.00000000000E+00  0.00000000000E+00  0.41147476104E+02  0.41147476104E+02  0.00000000000E+00 0.  1.
          2   -1    0    0  501    0  0.00000000000E+00 -0.00000000000E+00 -0.19061620408E+03  0.19061620408E+03  0.00000000000E+00 0. -1.
         23    2    1    2    0    0 -0.91066549511E+01 -0.18182795777E+02 -0.22633158243E+02  0.74535297685E+02  0.68041939436E+02 0.  0.
         23    2    1    2    0    0  0.91066549511E+01  0.18182795777E+02 -0.12683556974E+03  0.15722838250E+03  0.90663980100E+02 0.  0.
          5    1    4    4  502    0  0.59138954799E+01  0.53273328832E+02 -0.96542271846E+02  0.11052385253E+03  0.47000000000E+01 0. -1.
         -5    1    3    3    0  503 -0.36990236977E+02 -0.19674085748E+02 -0.90068192509E+01  0.43111020339E+02  0.47000000000E+01 0.  1.
          5    1    3    3  503    0  0.27883582026E+02  0.14912899713E+01 -0.13626338992E+02  0.31424277346E+02  0.47000000000E+01 0. -1.
         -5    1    4    4    0  502  0.31927594712E+01 -0.35090533055E+02 -0.30293297890E+02  0.46704529975E+02  0.47000000000E+01 0.  1.
<mgrwt>
<rscale>  0 0.86877828E+02</rscale>
<asrwt>0</asrwt>
<pdfrwt beam="1">  1        2 0.29325570E-01 0.92916643E+02</pdfrwt>
<pdfrwt beam="2">  1       -2 0.63303809E-02 0.92916643E+02</pdfrwt>
<totfact> 0.21868438E+04</totfact>
</mgrwt>
</event>
<event>
 8    1  0.5224537E-004  0.1393294E+03  0.7546771E-02  0.1214780E+00
          2   -1    0    0  501    0  0.00000000000E+00  0.00000000000E+00  0.65340916766E+03  0.65340916766E+03  0.00000000000E+00 0. -1.
         -2   -1    0    0    0  501 -0.00000000000E+00 -0.00000000000E+00 -0.33139779221E+02  0.33139779221E+02  0.00000000000E+00 0.  1.
         23    2    1    2    0    0  0.10148387096E+03 -0.22518196314E+01  0.42433676411E+03  0.44612793686E+03  0.93082758442E+02 0.  0.
         23    2    1    2    0    0 -0.10148387096E+03  0.22518196314E+01  0.19593262433E+03  0.24042101002E+03  0.95439101130E+02 0.  0.
          5    1    4    4  502    0 -0.28566329411E+02 -0.11166161094E+02  0.14978264720E+03  0.15296290313E+03  0.47000000000E+01 0. -1.
         -5    1    4    4    0  502 -0.72917541550E+02  0.13417980726E+02  0.46149977130E+02  0.87458106894E+02  0.47000000000E+01 0.  1.
          5    1    3    3  503    0  0.44873856902E+02  0.44828467201E+01  0.34692022211E+03  0.34987067533E+03  0.47000000000E+01 0. -1.
         -5    1    3    3    0  503  0.56610014059E+02 -0.67346663515E+01  0.77416541997E+02  0.96257261531E+02  0.47000000000E+01 0.  1.
<mgrwt>
<rscale>  0 0.13892677E+03</rscale>
<asrwt>0</asrwt>
<pdfrwt beam="1">  1        2 0.10052448E+00 0.13932935E+03</pdfrwt>
<pdfrwt beam="2">  1       -2 0.50984281E-02 0.13932935E+03</pdfrwt>
<totfact> 0.83282067E+03</totfact>
</mgrwt>
</event>
<event>
 8    1  0.5224537E-004  0.1073850E+03  0.7546771E-02  0.1269278E+00
          1   -1    0    0  501    0  0.00000000000E+00  0.00000000000E+00  0.11625228891E+04  0.11625228891E+04  0.00000000000E+00 0. -1.
         -1   -1    0    0    0  501 -0.00000000000E+00 -0.00000000000E+00 -0.92634938289E+01  0.92634938289E+01  0.00000000000E+00 0.  1.
         23    2    1    2    0    0 -0.18544885517E+02 -0.32846280420E+02  0.59151432707E+03  0.59986938005E+03  0.92364945057E+02 0.  0.
         23    2    1    2    0    0  0.18544885517E+02  0.32846280420E+02  0.56174506821E+03  0.57191700289E+03  0.10054225787E+03 0.  0.
          5    1    4    4  502    0  0.22499982696E+02  0.61829166378E+02  0.48808330658E+03  0.49252055714E+03  0.47000000000E+01 0. -1.
         -5    1    4    4    0  502 -0.39550971787E+01 -0.28982885958E+02  0.73661761628E+02  0.79396445754E+02  0.47000000000E+01 0.  1.
          5    1    3    3  503    0 -0.32549331395E+02  0.23770575003E+02  0.20857482946E+03  0.21248540819E+03  0.47000000000E+01 0. -1.
         -5    1    3    3    0  503  0.14004445877E+02 -0.56616855423E+02  0.38293949761E+03  0.38738397186E+03  0.47000000000E+01 0.  1.
<mgrwt>
<rscale>  0 0.10542844E+03</rscale>
<asrwt>0</asrwt>
<pdfrwt beam="1">  1        1 0.17884956E+00 0.10738499E+03</pdfrwt>
<pdfrwt beam="2">  1       -1 0.14251538E-02 0.10738499E+03</pdfrwt>
<totfact> 0.12989652E+04</totfact>
</mgrwt>
</event>
<event>
 8    1  0.5224537E-004  0.1136250E+03  0.7546771E-02  0.1255339E+00
         -2   -1    0    0    0  501 -0.00000000000E+00  0.00000000000E+00  0.23324580959E+02  0.23324580959E+02  0.00000000000E+00 0.  1.
          2   -1    0    0  501    0  0.00000000000E+00 -0.00000000000E+00 -0.99015669415E+03  0.99015669415E+03  0.00000000000E+00 0. -1.
         23    2    1    2    0    0  0.57175826831E+02  0.31007280245E+02 -0.13792663564E+03  0.17682428221E+03  0.89512811127E+02 0.  0.
         23    2    1    2    0    0 -0.57175826831E+02 -0.31007280245E+02 -0.82890547754E+03  0.83665699290E+03  0.93167088954E+02 0.  0.
          5    1    4    4  502    0 -0.66084855773E+01 -0.54589244816E+02 -0.49786294151E+03  0.50091242375E+03  0.47000000000E+01 0. -1.
         -5    1    3    3    0  503  0.48001833229E+02  0.61629309888E+02 -0.10062410332E+03  0.12747410717E+03  0.47000000000E+01 0.  1.
          5    1    3    3  503    0  0.91739936015E+01 -0.30622029643E+02 -0.37302532322E+02  0.49350175032E+02  0.47000000000E+01 0. -1.
         -5    1    4    4    0  502 -0.50567341253E+02  0.23581964572E+02 -0.33104253603E+03  0.33574456915E+03  0.47000000000E+01 0.  1.
<mgrwt>
<rscale>  0 0.11287340E+03</rscale>
<asrwt>0</asrwt>
<pdfrwt beam="1">  1        2 0.15233181E+00 0.11362497E+03</pdfrwt>
<pdfrwt beam="2">  1       -2 0.35883969E-02 0.11362497E+03</pdfrwt>
<totfact> 0.82611862E+03</totfact>
</mgrwt>
</event>
<event>
 8    1  0.5224537E-004  0.1479632E+03  0.7546771E-02  0.1204915E+00
         -1   -1    0    0    0  501 -0.00000000000E+00  0.00000000000E+00  0.19049086385E+03  0.19049086385E+03  0.00000000000E+00 0.  1.
          1   -1    0    0  501    0  0.00000000000E+00 -0.00000000000E+00 -0.18295211695E+03  0.18295211695E+03  0.00000000000E+00 0. -1.
         23    2    1    2    0    0  0.10851306100E+03 -0.34851944499E+02 -0.11381681265E+03  0.18667455618E+03  0.94357726970E+02 0.  0.
         23    2    1    2    0    0 -0.10851306100E+03  0.34851944499E+02  0.12135555956E+03  0.18676842462E+03  0.84649454553E+02 0.  0.
          5    1    3    3  502    0  0.56107188105E+02 -0.61330243479E+02 -0.40373618173E+02  0.92528559735E+02  0.47000000000E+01 0. -1.
         -5    1    4    4    0  503 -0.32218236078E+02  0.32939619173E+02  0.95350362085E+02  0.10600384331E+03  0.47000000000E+01 0.  1.
          5    1    4    4  503    0 -0.76294824922E+02  0.19123253260E+01  0.26005197472E+02  0.80764581306E+02  0.47000000000E+01 0. -1.
         -5    1    3    3    0  502  0.52405872895E+02  0.26478298981E+02 -0.73443194481E+02  0.94145996444E+02  0.47000000000E+01 0.  1.
<mgrwt>
<rscale>  0 0.14644144E+03</rscale>
<asrwt>0</asrwt>
<pdfrwt beam="1">  1        1 0.28146479E-01 0.14796325E+03</pdfrwt>
<pdfrwt beam="2">  1       -1 0.29306287E-01 0.14796325E+03</pdfrwt>
<totfact> 0.17158629E+03</totfact>
</mgrwt>
</event>
<event>
 8    1  0.5224537E-004  0.9578857E+02  0.7546771E-02  0.1291663E+00
         -1   -1    0    0    0  501 -0.00000000000E+00  0.00000000000E+00  0.72369325744E+02  0.72369325744E+02  0.00000000000E+00 0.  1.
          1   -1    0    0  501    0  0.00000000000E+00 -0.00000000000E+00 -0.12293358343E+03  0.12293358343E+03  0.00000000000E+00 0. -1.
         23    2    1    2    0    0  0.14781572013E+02 -0.24735705734E+02 -0.34897863505E+02  0.98241661269E+02  0.87196405444E+02 0.  0.
         23    2    1    2    0    0 -0.14781572013E+02  0.24735705734E+02 -0.15666394184E+02  0.97061247908E+02  0.91351518485E+02 0.  0.
          5    1    4    4  502    0  0.10137021213E+01  0.41201816755E+02 -0.43939568795E+02  0.60426757333E+02  0.47000000000E+01 0. -1.
         -5    1    3    3    0  503 -0.12672272351E+02 -0.33567246623E+02  0.15989869561E+02  0.39561502259E+02  0.47000000000E+01 0.  1.
          5    1    3    3  503    0  0.27453844364E+02  0.88315408897E+01 -0.50887733065E+02  0.58680159010E+02  0.47000000000E+01 0. -1.
         -5    1    4    4    0  502 -0.15795274134E+02 -0.16466111021E+02  0.28273174611E+02  0.36634490575E+02  0.47000000000E+01 0.  1.
<mgrwt>
<rscale>  0 0.94784353E+02</rscale>
<asrwt>0</asrwt>
<pdfrwt beam="1">  1        1 0.18912859E-01 0.95788569E+02</pdfrwt>
<pdfrwt beam="2">  1       -1 0.11133743E-01 0.95788569E+02</pdfrwt>
<totfact> 0.12809870E+04</totfact>
</mgrwt>
</event>
<event>
 8    1  0.5224537E-004  0.1016739E+03  0.7546771E-02  0.1277823E+00
          4   -1    0    0  501    0  0.00000000000E+00  0.00000000000E+00  0.71529427601E+02  0.71529427601E+02  0.00000000000E+00 0. -1.
         -4   -1    0    0    0  501 -0.00000000000E+00 -0.00000000000E+00 -0.16110450458E+03  0.16110450458E+03  0.00000000000E+00 0.  1.
         23    2    1    2    0    0 -0.33492606501E+02  0.32366481598E+02 -0.41213444567E+01  0.99818533174E+02  0.88189626734E+02 0.  0.
         23    2    1    2    0    0  0.33492606501E+02 -0.32366481598E+02 -0.85453732520E+02  0.13281539900E+03  0.90378349122E+02 0.  0.
          5    1    4    4  502    0  0.30773301417E+02  0.27500663852E+02 -0.33520736051E+02  0.53376140155E+02  0.47000000000E+01 0. -1.
         -5    1    3    3    0  503  0.21658053244E+02 -0.14035032190E+02 -0.81771468876E+01  0.27477429467E+02  0.47000000000E+01 0.  1.
          5    1    3    3  503    0 -0.55150659745E+02  0.46401513789E+02  0.40558024309E+01  0.72341103707E+02  0.47000000000E+01 0. -1.
         -5    1    4    4    0  502  0.27193050842E+01 -0.59867145450E+02 -0.51932996468E+02  0.79439258850E+02  0.47000000000E+01 0.  1.
<mgrwt>
<rscale>  0 0.10118530E+03</rscale>
<asrwt>0</asrwt>
<pdfrwt beam="1">  1        4 0.11004527E-01 0.10167394E+03</pdfrwt>
<pdfrwt beam="2">  1       -4 0.24785308E-01 0.10167394E+03</pdfrwt>
<totfact> 0.15102389E+03</totfact>
</mgrwt>
</event>
<event>
 8    1  0.5224537E-004  0.1094626E+03  0.7546771E-02  0.1261795E+00
          2   -1    0    0  501    0  0.00000000000E+00  0.00000000000E+00  0.38325596891E+03  0.38325596891E+03  0.00000000000E+00 0. -1.
         -2   -1    0    0    0  501 -0.00000000000E+00 -0.00000000000E+00 -0.67302253103E+02  0.67302253103E+02  0.00000000000E+00 0.  1.
         23    2    1    2    0    0 -0.59274778876E+02  0.13258926483E+02  0.32330476829E+03  0.34133271971E+03  0.91064558429E+02 0.  0.
         23    2    1    2    0    0  0.59274778876E+02 -0.13258926483E+02 -0.73510524830E+01  0.10922550230E+03  0.90481345253E+02 0.  0.
          5    1    3    3  502    0 -0.13257931995E+02  0.45995913934E+02  0.10024352728E+03  0.11118566283E+03  0.47000000000E+01 0. -1.
         -5    1    3    3    0  502 -0.46016846882E+02 -0.32736987452E+02  0.22306124102E+03  0.23014705687E+03  0.47000000000E+01 0.  1.
          5    1    4    4  503    0  0.33810421350E+02  0.31702521507E+02  0.19854258089E+02  0.50640655861E+02  0.47000000000E+01 0. -1.
         -5    1    4    4    0  503  0.25464357527E+02 -0.44961447990E+02 -0.27205310571E+02  0.58584846444E+02  0.47000000000E+01 0.  1.
<mgrwt>
<rscale>  0 0.10934118E+03</rscale>
<asrwt>0</asrwt>
<pdfrwt beam="1">  1        2 0.58962456E-01 0.10946256E+03</pdfrwt>
<pdfrwt beam="2">  1       -2 0.10354193E-01 0.10946256E+03</pdfrwt>
<totfact> 0.49842455E+03</totfact>
</mgrwt>
</event>
<event>
 8    1  0.5224537E-004  0.9261950E+02  0.7546771E-02  0.1297267E+00
          1   -1    0    0  501    0  0.00000000000E+00  0.00000000000E+00  0.56337020949E+03  0.56337020949E+03  0.00000000000E+00 0. -1.
         -1   -1    0    0    0  501 -0.00000000000E+00 -0.00000000000E+00 -0.15048874756E+02  0.15048874756E+02  0.00000000000E+00 0.  1.
         23    2    1    2    0    0  0.60807455452E+00 -0.34538676035E+01  0.27164505659E+03  0.28665182228E+03  0.91465466114E+02 0.  0.
         23    2    1    2    0    0 -0.60807455452E+00  0.34538676035E+01  0.27667627814E+03  0.29176726196E+03  0.92553083742E+02 0.  0.
          5    1    4    4  502    0 -0.39417757993E+02 -0.15652880773E+02  0.19059596777E+03  0.19531432424E+03  0.47000000000E+01 0. -1.
         -5    1    3    3    0  503 -0.35860135261E+02  0.19563307345E+02  0.77643233429E+02  0.87859171363E+02  0.47000000000E+01 0.  1.
          5    1    3    3  503    0  0.36468209815E+02 -0.23017174948E+02  0.19400182316E+03  0.19879265092E+03  0.47000000000E+01 0. -1.
         -5    1    4    4    0  502  0.38809683439E+02  0.19106748377E+02  0.86080310371E+02  0.96452937725E+02  0.47000000000E+01 0.  1.
<mgrwt>
<rscale>  0 0.92346592E+02</rscale>
<asrwt>0</asrwt>
<pdfrwt beam="1">  1        1 0.86672324E-01 0.92619503E+02</pdfrwt>
<pdfrwt beam="2">  1       -1 0.23152119E-02 0.92619503E+02</pdfrwt>
<totfact> 0.19327939E+04</totfact>
</mgrwt>
</event>
<event>
 8    1  0.5224537E-004  0.9145390E+02  0.7546771E-02  0.1299806E+00
          1   -1    0    0  501    0  0.00000000000E+00  0.00000000000E+00  0.21248499454E+03  0.21248499454E+03  0.00000000000E+00 0. -1.
         -1   -1    0    0    0  501 -0.00000000000E+00 -0.00000000000E+00 -0.39097918650E+02  0.39097918650E+02  0.00000000000E+00 0.  1.
         23    2    1    2    0    0  0.95015682945E+00  0.32812828436E+01  0.91625233669E+02  0.12945655348E+03  0.91390077022E+02 0.  0.
         23    2    1    2    0    0 -0.95015682945E+00 -0.32812828436E+01  0.81761842221E+02  0.12212635971E+03  0.90654174080E+02 0.  0.
          5    1    4    4  502    0 -0.35825295577E+02  0.15664754230E+02  0.11052002488E+02  0.40903216099E+02  0.47000000000E+01 0. -1.
         -5    1    3    3    0  503  0.37472174671E+01 -0.36126191984E+02  0.89409982459E+01  0.37698472590E+02  0.47000000000E+01 0.  1.
          5    1    3    3  503    0 -0.27970606377E+01  0.39407474828E+02  0.82684235423E+02  0.91758080887E+02  0.47000000000E+01 0. -1.
         -5    1    4    4    0  502  0.34875138747E+02 -0.18946037073E+02  0.70709839733E+02  0.81223143613E+02  0.47000000000E+01 0.  1.
<mgrwt>
<rscale>  0 0.91269497E+02</rscale>
<asrwt>0</asrwt>
<pdfrwt beam="1">  1        1 0.32689999E-01 0.91453900E+02</pdfrwt>
<pdfrwt beam="2">  1       -1 0.60150645E-02 0.91453900E+02</pdfrwt>
<totfact> 0.16237711E+04</totfact>
</mgrwt>
</event>
<event>
 8    1  0.5224537E-004  0.1574210E+03  0.7546771E-02  0.1192050E+00
          1   -1    0    0  501    0  0.00000000000E+00  0.00000000000E+00  0.65943728454E+03  0.65943728454E+03  0.00000000000E+00 0. -1.
         -1   -1    0    0    0  501 -0.00000000000E+00 -0.00000000000E+00 -0.37393645203E+02  0.37393645203E+02  0.00000000000E+00 0.  1.
         23    2    1    2    0    0  0.35692333498E+02 -0.12163934318E+03  0.33460539224E+03  0.36978660205E+03  0.93334292012E+02 0.  0.
         23    2    1    2    0    0 -0.35692333498E+02  0.12163934318E+03  0.28743824710E+03  0.32704432769E+03  0.90924000676E+02 0.  0.
          5    1    4    4  502    0  0.19849079627E+02  0.61626958711E+02  0.74039309337E+02  0.98467138321E+02  0.47000000000E+01 0. -1.
         -5    1    4    4    0  502 -0.55541413125E+02  0.60012384465E+02  0.21339893776E+03  0.22857718937E+03  0.47000000000E+01 0.  1.
          5    1    3    3  503    0 -0.12787345676E+02 -0.97664900799E+02  0.25527599987E+03  0.27366014538E+03  0.47000000000E+01 0. -1.
         -5    1    3    3    0  503  0.48479679174E+02 -0.23974442377E+02  0.79329392367E+02  0.96126456677E+02  0.47000000000E+01 0.  1.
<mgrwt>
<rscale>  0 0.15706553E+03</rscale>
<asrwt>0</asrwt>
<pdfrwt beam="1">  1        1 0.10145188E+00 0.15742097E+03</pdfrwt>
<pdfrwt beam="2">  1       -1 0.57528690E-02 0.15742097E+03</pdfrwt>
<totfact> 0.42802266E+03</totfact>
</mgrwt>
</event>
<event>
 8    1  0.5224537E-004  0.1094358E+03  0.7546771E-02  0.1262679E+00
         -2   -1    0    0    0  501 -0.00000000000E+00  0.00000000000E+00  0.40734978223E+02  0.40734978223E+02  0.00000000000E+00 0.  1.
          2   -1    0    0  501    0  0.00000000000E+00 -0.00000000000E+00 -0.64780284961E+03  0.64780284961E+03  0.00000000000E+00 0. -1.
         23    2    1    2    0    0 -0.21533453141E+02 -0.61728248000E+02 -0.45563679273E+02  0.11646864672E+03  0.84940158907E+02 0.  0.
         23    2    1    2    0    0  0.21533453141E+02  0.61728248000E+02 -0.56150419211E+03  0.57206918111E+03  0.87761745706E+02 0.  0.
          5    1    4    4  502    0  0.48998082832E+02  0.24329706199E+02 -0.19409832545E+03  0.20171513742E+03  0.47000000000E+01 0.  1.
         -5    1    3    3    0  503 -0.39584485048E+02 -0.49734341914E+02  0.22339865087E+01  0.63777087719E+02  0.47000000000E+01 0.  1.
          5    1    3    3  503    0  0.18051031907E+02 -0.11993906086E+02 -0.47797665781E+02  0.52691559004E+02  0.47000000000E+01 0. -1.
         -5    1    4    4    0  502 -0.27464629691E+02  0.37398541801E+02 -0.36740586667E+03  0.37035404368E+03  0.47000000000E+01 0. -1.
<mgrwt>
<rscale>  0 0.10886902E+03</rscale>
<asrwt>0</asrwt>
<pdfrwt beam="1">  1        2 0.99661979E-01 0.10943578E+03</pdfrwt>
<pdfrwt beam="2">  1       -2 0.62669196E-02 0.10943578E+03</pdfrwt>
<totfact> 0.60770963E+03</totfact>
</mgrwt>
</event>
<event>
 8    1  0.5224537E-004  0.9642583E+02  0.7546771E-02  0.1288731E+00
          2   -1    0    0  501    0  0.00000000000E+00  0.00000000000E+00  0.45271973783E+03  0.45271973783E+03  0.00000000000E+00 0. -1.
         -2   -1    0    0    0  501 -0.00000000000E+00 -0.00000000000E+00 -0.21608143273E+03  0.21608143273E+03  0.00000000000E+00 0.  1.
         23    2    1    2    0    0 -0.31037460787E+02 -0.72123117050E+01 -0.19994360555E+03  0.22198059777E+03  0.91008785142E+02 0.  0.
         23    2    1    2    0    0  0.31037460787E+02  0.72123117050E+01  0.43658191066E+03  0.44682057279E+03  0.89607578613E+02 0.  0.
          5    1    4    4  502    0  0.26547461103E+02 -0.28930345246E+02  0.35689533534E+03  0.35907952177E+03  0.47000000000E+01 0. -1.
         -5    1    3    3    0  503  0.95111181573E+00 -0.31764875039E+02 -0.16594807957E+03  0.16902889402E+03  0.47000000000E+01 0.  1.
          5    1    3    3  503    0 -0.31988572603E+02  0.24552563334E+02 -0.33995525980E+02  0.52951703750E+02  0.47000000000E+01 0.  1.
         -5    1    4    4    0  502  0.44899996838E+01  0.36142656951E+02  0.79686575317E+02  0.87741051022E+02  0.47000000000E+01 0.  1.
<mgrwt>
<rscale>  0 0.96093777E+02</rscale>
<asrwt>0</asrwt>
<pdfrwt beam="1">  1        2 0.69649190E-01 0.96425828E+02</pdfrwt>
<pdfrwt beam="2">  1       -2 0.33243297E-01 0.96425828E+02</pdfrwt>
<totfact> 0.59027492E+02</totfact>
</mgrwt>
</event>
<event>
 8    1  0.5224537E-004  0.1049102E+03  0.7546771E-02  0.1270858E+00
         -2   -1    0    0    0  501 -0.00000000000E+00  0.00000000000E+00  0.12737383890E+02  0.12737383890E+02  0.00000000000E+00 0.  1.
          2   -1    0    0  501    0  0.00000000000E+00 -0.00000000000E+00 -0.10391670240E+04  0.10391670240E+04  0.00000000000E+00 0. -1.
         23    2    1    2    0    0 -0.37437443841E+02  0.29159449009E+02 -0.28938346306E+03  0.30742928213E+03  0.92293765485E+02 0.  0.
         23    2    1    2    0    0  0.37437443841E+02 -0.29159449009E+02 -0.73704617704E+03  0.74447512576E+03  0.93564470343E+02 0.  0.
          5    1    3    3  502    0 -0.45255455381E+02 -0.35476230549E+01 -0.25519687223E+03  0.25924539623E+03  0.47000000000E+01 0. -1.
         -5    1    3    3    0  502  0.78180115400E+01  0.32707072064E+02 -0.34186590838E+02  0.48183885901E+02  0.47000000000E+01 0.  1.
          5    1    4    4  503    0 -0.13683931954E+02 -0.44413010840E+02 -0.23624426967E+03  0.24081779518E+03  0.47000000000E+01 0. -1.
         -5    1    4    4    0  503  0.51121375795E+02  0.15253561831E+02 -0.50080190737E+03  0.50365733057E+03  0.47000000000E+01 0.  1.
<mgrwt>
<rscale>  0 0.10462611E+03</rscale>
<asrwt>0</asrwt>
<pdfrwt beam="1">  1        2 0.15987185E+00 0.10491018E+03</pdfrwt>
<pdfrwt beam="2">  1       -2 0.19595975E-02 0.10491018E+03</pdfrwt>
<totfact> 0.18555828E+04</totfact>
</mgrwt>
</event>
<event>
 8    1  0.5224537E-004  0.1268349E+03  0.7546771E-02  0.1232380E+00
         -2   -1    0    0    0  501 -0.00000000000E+00  0.00000000000E+00  0.18423767831E+02  0.18423767831E+02  0.00000000000E+00 0.  1.
          2   -1    0    0  501    0  0.00000000000E+00 -0.00000000000E+00 -0.88728507877E+03  0.88728507877E+03  0.00000000000E+00 0. -1.
         23    2    1    2    0    0 -0.46316363852E+02  0.75104281546E+02 -0.49611066814E+03  0.51197018088E+03  0.90563858101E+02 0.  0.
         23    2    1    2    0    0  0.46316363852E+02 -0.75104281546E+02 -0.37275064280E+03  0.39373866573E+03  0.91111121801E+02 0.  0.
          5    1    4    4  502    0  0.30791865716E+02 -0.54263089869E+02 -0.35812572568E+03  0.36355019916E+03  0.47000000000E+01 0. -1.
         -5    1    4    4    0  502  0.15524498136E+02 -0.20841191677E+02 -0.14624917117E+02  0.30188466565E+02  0.47000000000E+01 0.  1.
          5    1    3    3  503    0  0.15970016725E+02  0.59821425928E+02 -0.25030717969E+03  0.25789420047E+03  0.47000000000E+01 0. -1.
         -5    1    3    3    0  503 -0.62286380577E+02  0.15282855618E+02 -0.24580348846E+03  0.25407598040E+03  0.47000000000E+01 0.  1.
<mgrwt>
<rscale>  0 0.12673666E+03</rscale>
<asrwt>0</asrwt>
<pdfrwt beam="1">  1        2 0.13650540E+00 0.12683491E+03</pdfrwt>
<pdfrwt beam="2">  1       -2 0.28344258E-02 0.12683491E+03</pdfrwt>
<totfact> 0.13598582E+04</totfact>
</mgrwt>
</event>
<event>
 8    1  0.5224537E-004  0.1153961E+03  0.7546771E-02  0.1250975E+00
          1   -1    0    0  501    0  0.00000000000E+00  0.00000000000E+00  0.15422289749E+03  0.15422289749E+03  0.00000000000E+00 0. -1.
         -1   -1    0    0    0  501 -0.00000000000E+00 -0.00000000000E+00 -0.11308270633E+03  0.11308270633E+03  0.00000000000E+00 0.  1.
         23    2    1    2    0    0  0.31817828157E+02 -0.62399316578E+02 -0.44581456607E+02  0.12370841417E+03  0.91707232890E+02 0.  0.
         23    2    1    2    0    0 -0.31817828157E+02  0.62399316578E+02  0.85721647773E+02  0.14359718965E+03  0.91465310810E+02 0.  0.
          5    1    3    3  502    0  0.46306881901E+01  0.19663511663E+02  0.82090089316E+01  0.22306384550E+02  0.47000000000E+01 0. -1.
         -5    1    3    3    0  502  0.27187139966E+02 -0.82062828242E+02 -0.52790465538E+02  0.10140202962E+03  0.47000000000E+01 0.  1.
          5    1    4    4  503    0  0.30115295436E+02  0.32676532058E+02  0.22116628986E+02  0.49859021694E+02  0.47000000000E+01 0. -1.
         -5    1    4    4    0  503 -0.61933123593E+02  0.29722784521E+02  0.63605018787E+02  0.93738167960E+02  0.47000000000E+01 0.  1.
<mgrwt>
<rscale>  0 0.11534805E+03</rscale>
<asrwt>0</asrwt>
<pdfrwt beam="1">  1        1 0.23726600E-01 0.11539612E+03</pdfrwt>
<pdfrwt beam="2">  1       -1 0.17397339E-01 0.11539612E+03</pdfrwt>
<totfact> 0.48994354E+03</totfact>
</mgrwt>
</event>
<event>
 8    1  0.5224537E-004  0.1212921E+03  0.7546771E-02  0.1241435E+00
          1   -1    0    0  501    0  0.00000000000E+00  0.00000000000E+00  0.20796333306E+03  0.20796333306E+03  0.00000000000E+00 0. -1.
         -1   -1    0    0    0  501 -0.00000000000E+00 -0.00000000000E+00 -0.78390821598E+02  0.78390821598E+02  0.00000000000E+00 0.  1.
         23    2    1    2    0    0 -0.26171759250E+01  0.78607166776E+02  0.11162771013E+03  0.16484089991E+03  0.92335477125E+02 0.  0.
         23    2    1    2    0    0  0.26171759250E+01 -0.78607166776E+02  0.17944801331E+02  0.12151325475E+03  0.90870891413E+02 0.  0.
          5    1    4    4  502    0 -0.34787240264E+02 -0.33208243189E+02  0.35484214690E+02  0.59951305182E+02  0.47000000000E+01 0. -1.
         -5    1    3    3    0  503  0.11808555139E+02  0.57339938436E+02  0.95868025625E+01  0.59508884191E+02  0.47000000000E+01 0.  1.
          5    1    3    3  503    0 -0.14425731064E+02  0.21267228341E+02  0.10204090757E+03  0.10533201572E+03  0.47000000000E+01 0. -1.
         -5    1    4    4    0  502  0.37404416189E+02 -0.45398923587E+02 -0.17539413359E+02  0.61561949565E+02  0.47000000000E+01 0.  1.
<mgrwt>
<rscale>  0 0.12101336E+03</rscale>
<asrwt>0</asrwt>
<pdfrwt beam="1">  1        1 0.31994359E-01 0.12129211E+03</pdfrwt>
<pdfrwt beam="2">  1       -1 0.12060126E-01 0.12129211E+03</pdfrwt>
<totfact> 0.59977149E+03</totfact>
</mgrwt>
</event>
<event>
 8    1  0.5224537E-004  0.1105593E+03  0.7546771E-02  0.1259603E+00
         -1   -1    0    0    0  501 -0.00000000000E+00  0.00000000000E+00  0.10435667214E+03  0.10435667214E+03  0.00000000000E+00 0.  1.
          1   -1    0    0  501    0  0.00000000000E+00 -0.00000000000E+00 -0.13839922959E+03  0.13839922959E+03  0.00000000000E+00 0. -1.
         23    2    1    2    0    0 -0.52743842454E+02  0.32150882251E+02  0.30719970354E+02  0.11474786016E+03  0.91693853047E+02 0.  0.
         23    2    1    2    0    0  0.52743842454E+02 -0.32150882251E+02 -0.64762527798E+02  0.12800804157E+03  0.91522027698E+02 0.  0.
          5    1    3    3  502    0 -0.52085555956E+02  0.61049957271E+02  0.15974450919E+02  0.81958986720E+02  0.47000000000E+01 0. -1.
         -5    1    3    3    0  502 -0.65828649780E+00 -0.28899075019E+02  0.14745519435E+02  0.32788873441E+02  0.47000000000E+01 0.  1.
          5    1    4    4  503    0  0.34311383821E+02  0.22404657345E+02 -0.56030032233E+02  0.69575097862E+02  0.47000000000E+01 0. -1.
         -5    1    4    4    0  503  0.18432458633E+02 -0.54555539596E+02 -0.87324955652E+01  0.58432943710E+02  0.47000000000E+01 0.  1.
<mgrwt>
<rscale>  0 0.11052365E+03</rscale>
<asrwt>0</asrwt>
<pdfrwt beam="1">  1        1 0.21292189E-01 0.11055928E+03</pdfrwt>
<pdfrwt beam="2">  1       -1 0.16054873E-01 0.11055928E+03</pdfrwt>
<totfact> 0.63497364E+03</totfact>
</mgrwt>
</event>
<event>
 8    1  0.5224537E-004  0.9778727E+02  0.7546771E-02  0.1285461E+00
         -1   -1    0    0    0  501 -0.00000000000E+00  0.00000000000E+00  0.37948146247E+02  0.37948146247E+02  0.00000000000E+00 0.  1.
          1   -1    0    0  501    0  0.00000000000E+00 -0.00000000000E+00 -0.53569350828E+03  0.53569350828E+03  0.00000000000E+00 0. -1.
         23    2    1    2    0    0 -0.21748230312E+02  0.29631318765E+02 -0.45788681415E+03  0.46804310614E+03  0.89738587319E+02 0.  0.
         23    2    1    2    0    0  0.21748230312E+02 -0.29631318765E+02 -0.39858547884E+02  0.10559854839E+03  0.90616494139E+02 0.  0.
          5    1    3    3  502    0  0.28028020510E+02  0.56350128830E+01 -0.28524263878E+03  0.28671026540E+03  0.47000000000E+01 0. -1.
         -5    1    3    3    0  502 -0.49776250822E+02  0.23996305882E+02 -0.17264417537E+03  0.18133284074E+03  0.47000000000E+01 0.  1.
          5    1    4    4  503    0  0.42028559365E+02  0.10165527471E+02  0.28934194310E+01  0.43591279255E+02  0.47000000000E+01 0. -1.
         -5    1    4    4    0  503 -0.20280329053E+02 -0.39796846236E+02 -0.42751967315E+02  0.62007269140E+02  0.47000000000E+01 0.  1.
<mgrwt>
<rscale>  0 0.97583388E+02</rscale>
<asrwt>0</asrwt>
<pdfrwt beam="1">  1        1 0.82414389E-01 0.97787267E+02</pdfrwt>
<pdfrwt beam="2">  1       -1 0.58381761E-02 0.97787267E+02</pdfrwt>
<totfact> 0.54166635E+03</totfact>
</mgrwt>
</event>
<event>
 8    1  0.5224537E-004  0.1082054E+03  0.7546771E-02  0.1267613E+00
          2   -1    0    0  501    0  0.00000000000E+00  0.00000000000E+00  0.29595749687E+03  0.29595749687E+03  0.00000000000E+00 0. -1.
         -2   -1    0    0    0  501 -0.00000000000E+00 -0.00000000000E+00 -0.37004529544E+02  0.37004529544E+02  0.00000000000E+00 0.  1.
         23    2    1    2    0    0  0.18968652115E+02 -0.35544645374E+02  0.13485693809E+03  0.16831627741E+03  0.92307875680E+02 0.  0.
         23    2    1    2    0    0 -0.18968652115E+02  0.35544645374E+02  0.12409602924E+03  0.16464574900E+03  0.10042493024E+03 0.  0.
          5    1    4    4  502    0 -0.40737429969E+02  0.52468364898E+02  0.11878055959E+03  0.13617407555E+03  0.47000000000E+01 0. -1.
         -5    1    4    4    0  502  0.21768777854E+02 -0.16923719524E+02  0.53154696510E+01  0.28471673456E+02  0.47000000000E+01 0.  1.
          5    1    3    3  503    0  0.25963404631E+02  0.39391697202E+01  0.12353913767E+03  0.12638680301E+03  0.47000000000E+01 0. -1.
         -5    1    3    3    0  503 -0.69947525160E+01 -0.39483815094E+02  0.11317800415E+02  0.41929474399E+02  0.47000000000E+01 0.  1.
<mgrwt>
<rscale>  0 0.10628270E+03</rscale>
<asrwt>0</asrwt>
<pdfrwt beam="1">  1        2 0.45531921E-01 0.10820535E+03</pdfrwt>
<pdfrwt beam="2">  1       -2 0.56930048E-02 0.10820535E+03</pdfrwt>
<totfact> 0.16352564E+04</totfact>
</mgrwt>
</event>
<event>
 8    1  0.5224537E-004  0.1318265E+03  0.7546771E-02  0.1225915E+00
          2   -1    0    0  501    0  0.00000000000E+00  0.00000000000E+00  0.68029890226E+03  0.68029890226E+03  0.00000000000E+00 0.  1.
         -2   -1    0    0    0  501 -0.00000000000E+00 -0.00000000000E+00 -0.35645180536E+02  0.35645180536E+02  0.00000000000E+00 0. -1.
         23    2    1    2    0    0  0.91341172068E+02  0.15418221668E+01  0.51574043829E+03  0.53156169182E+03  0.90686523788E+02 0.  0.
         23    2    1    2    0    0 -0.91341172068E+02 -0.15418221668E+01  0.12891328343E+03  0.18438239097E+03  0.95040225824E+02 0.  0.
          5    1    4    4  502    0 -0.31168337038E+02 -0.39448437788E+02  0.20192872883E+02  0.54382778459E+02  0.47000000000E+01 0. -1.
         -5    1    3    3    0  503  0.70721904043E+02 -0.40505319475E+02  0.32242350112E+03  0.33259776411E+03  0.47000000000E+01 0.  1.
          5    1    3    3  503    0  0.20619268025E+02  0.42047141642E+02  0.19331693717E+03  0.19896392771E+03  0.47000000000E+01 0. -1.
         -5    1    4    4    0  502 -0.60172835031E+02  0.37906615621E+02  0.10872041055E+03  0.12999961251E+03  0.47000000000E+01 0.  1.
<mgrwt>
<rscale>  0 0.13104372E+03</rscale>
<asrwt>0</asrwt>
<pdfrwt beam="1">  1        2 0.10466136E+00 0.13182652E+03</pdfrwt>
<pdfrwt beam="2">  1       -2 0.54838744E-02 0.13182652E+03</pdfrwt>
<totfact> 0.70964104E+03</totfact>
</mgrwt>
</event>
<event>
 8    1  0.5224537E-004  0.9137965E+02  0.7546771E-02  0.1300572E+00
         -2   -1    0    0    0  501 -0.00000000000E+00  0.00000000000E+00  0.15756373879E+02  0.15756373879E+02  0.00000000000E+00 0.  1.
          2   -1    0    0  501    0  0.00000000000E+00 -0.00000000000E+00 -0.67635663492E+03  0.67635663492E+03  0.00000000000E+00 0. -1.
         23    2    1    2    0    0 -0.63277770951E+00 -0.79333603129E+01 -0.16635955814E+03  0.18980448534E+03  0.91032419816E+02 0.  0.
         23    2    1    2    0    0  0.63277770951E+00  0.79333603129E+01 -0.49424070290E+03  0.50230852346E+03  0.89312046893E+02 0.  0.
          5    1    3    3  502    0 -0.24408344188E+02  0.32473233327E+02 -0.10319084367E+03  0.11099873138E+03  0.47000000000E+01 0. -1.
         -5    1    3    3    0  502  0.23775566478E+02 -0.40406593640E+02 -0.63168714468E+02  0.78805753968E+02  0.47000000000E+01 0.  1.
          5    1    4    4  503    0 -0.38154982431E+02  0.17941698016E+02 -0.34908864946E+03  0.35165705224E+03  0.47000000000E+01 0. -1.
         -5    1    4    4    0  503  0.38787760140E+02 -0.10008337703E+02 -0.14515205344E+03  0.15065147122E+03  0.47000000000E+01 0.  1.
<mgrwt>
<rscale>  0 0.90948174E+02</rscale>
<asrwt>0</asrwt>
<pdfrwt beam="1">  1        2 0.10405486E+00 0.91379648E+02</pdfrwt>
<pdfrwt beam="2">  1       -2 0.24240576E-02 0.91379648E+02</pdfrwt>
<totfact> 0.23132424E+04</totfact>
</mgrwt>
</event>
<event>
 8    1  0.5224537E-004  0.9255265E+02  0.7546771E-02  0.1298313E+00
         -2   -1    0    0    0  501 -0.00000000000E+00  0.00000000000E+00  0.55271879525E+02  0.55271879525E+02  0.00000000000E+00 0.  1.
          2   -1    0    0  501    0  0.00000000000E+00 -0.00000000000E+00 -0.27068023869E+03  0.27068023869E+03  0.00000000000E+00 0. -1.
         23    2    1    2    0    0 -0.20114912129E+02  0.50934502078E+01 -0.47229840322E-01  0.92552659121E+02  0.90196671528E+02 0.  0.
         23    2    1    2    0    0  0.20114912129E+02 -0.50934502078E+01 -0.21536112933E+03  0.23339945910E+03  0.87546208120E+02 0.  0.
          5    1    3    3  502    0  0.20781544715E+02  0.35471548549E+02  0.75237270548E+00  0.41385497724E+02  0.47000000000E+01 0. -1.
         -5    1    4    4    0  503 -0.11137108450E+02  0.22178314796E+02 -0.16421669143E+02  0.30127629334E+02  0.47000000000E+01 0.  1.
          5    1    4    4  503    0  0.31252020579E+02 -0.27271765004E+02 -0.19893946019E+03  0.20327182976E+03  0.47000000000E+01 0. -1.
         -5    1    3    3    0  502 -0.40896456844E+02 -0.30378098341E+02 -0.79960254580E+00  0.51167161397E+02  0.47000000000E+01 0.  1.
<mgrwt>
<rscale>  0 0.91900529E+02</rscale>
<asrwt>0</asrwt>
<pdfrwt beam="1">  1        2 0.41643114E-01 0.92552647E+02</pdfrwt>
<pdfrwt beam="2">  1       -2 0.85033660E-02 0.92552647E+02</pdfrwt>
<totfact> 0.96292749E+03</totfact>
</mgrwt>
</event>
<event>
 8    1  0.5224537E-004  0.9652686E+02  0.7546771E-02  0.1287932E+00
         -2   -1    0    0    0  501 -0.00000000000E+00  0.00000000000E+00  0.12145434284E+02  0.12145434284E+02  0.00000000000E+00 0.  1.
          2   -1    0    0  501    0  0.00000000000E+00 -0.00000000000E+00 -0.78535056316E+03  0.78535056316E+03  0.00000000000E+00 0. -1.
         23    2    1    2    0    0 -0.12381223435E+02  0.32472810785E+02 -0.45042494360E+03  0.46059173284E+03  0.89745954852E+02 0.  0.
         23    2    1    2    0    0  0.12381223435E+02 -0.32472810785E+02 -0.32278018528E+03  0.33690426460E+03  0.90053636048E+02 0.  0.
          5    1    4    4  502    0 -0.24848044690E+02 -0.44912143038E+02 -0.12495935084E+03  0.13517194709E+03  0.47000000000E+01 0. -1.
         -5    1    4    4    0  502  0.37229268126E+02  0.12439332254E+02 -0.19782083444E+03  0.20173231752E+03  0.47000000000E+01 0.  1.
          5    1    3    3  503    0 -0.38262486466E+02  0.49542319398E+02 -0.34243536091E+03  0.34814153111E+03  0.47000000000E+01 0. -1.
         -5    1    3    3    0  503  0.25881263030E+02 -0.17069508613E+02 -0.10798958269E+03  0.11245020174E+03  0.47000000000E+01 0.  1.
<mgrwt>
<rscale>  0 0.96455038E+02</rscale>
<asrwt>0</asrwt>
<pdfrwt beam="1">  1        2 0.12082315E+00 0.96526864E+02</pdfrwt>
<pdfrwt beam="2">  1       -2 0.18685285E-02 0.96526864E+02</pdfrwt>
<totfact> 0.28346087E+04</totfact>
</mgrwt>
</event>
<event>
 8    1  0.5224537E-004  0.9934409E+02  0.7546771E-02  0.1282089E+00
          2   -1    0    0  501    0  0.00000000000E+00  0.00000000000E+00  0.51802131301E+03  0.51802131301E+03  0.00000000000E+00 0. -1.
         -2   -1    0    0    0  501 -0.00000000000E+00 -0.00000000000E+00 -0.18906322625E+02  0.18906322625E+02  0.00000000000E+00 0.  1.
         23    2    1    2    0    0  0.32843615490E+02 -0.17176152343E+02  0.24667966650E+03  0.26564763273E+03  0.91345955719E+02 0.  0.
         23    2    1    2    0    0 -0.32843615490E+02  0.17176152343E+02  0.25243532389E+03  0.27128000290E+03  0.92171166530E+02 0.  0.
          5    1    3    3  502    0  0.52394509962E+02 -0.10362933578E+02  0.23574744351E+03  0.24176749613E+03  0.47000000000E+01 0. -1.
         -5    1    3    3    0  502 -0.19550894472E+02 -0.68132187652E+01  0.10932222992E+02  0.23880136602E+02  0.47000000000E+01 0.  1.
          5    1    4    4  503    0 -0.51424377440E+02 -0.21059828987E+02  0.12550802633E+03  0.13734022596E+03  0.47000000000E+01 0. -1.
         -5    1    4    4    0  503  0.18580761950E+02  0.38235981330E+02  0.12692729756E+03  0.13393977695E+03  0.47000000000E+01 0.  1.
<mgrwt>
<rscale>  0 0.99152243E+02</rscale>
<asrwt>0</asrwt>
<pdfrwt beam="1">  1        2 0.79695576E-01 0.99344085E+02</pdfrwt>
<pdfrwt beam="2">  1       -2 0.29086654E-02 0.99344085E+02</pdfrwt>
<totfact> 0.24137734E+04</totfact>
</mgrwt>
</event>
<event>
 8    1  0.5224537E-004  0.9243660E+02  0.7546771E-02  0.1302929E+00
         -4   -1    0    0    0  501 -0.00000000000E+00  0.00000000000E+00  0.25279726265E+03  0.25279726265E+03  0.00000000000E+00 0.  1.
          4   -1    0    0  501    0  0.00000000000E+00 -0.00000000000E+00 -0.45451359033E+02  0.45451359033E+02  0.00000000000E+00 0. -1.
         23    2    1    2    0    0  0.15061773737E+02  0.49538408093E+01  0.14247892864E+02  0.84166005580E+02  0.81421842753E+02 0.  0.
         23    2    1    2    0    0 -0.15061773737E+02 -0.49538408093E+01  0.19309801075E+03  0.21408261610E+03  0.91066608559E+02 0.  0.
          5    1    3    3  502    0 -0.30705733886E+02  0.12069147160E+02  0.17228443593E+02  0.37515539118E+02  0.47000000000E+01 0. -1.
         -5    1    4    4    0  503 -0.36655297076E+02 -0.33881766401E+02  0.72776196410E+02  0.88374485356E+02  0.47000000000E+01 0.  1.
          5    1    4    4  503    0  0.21593523339E+02  0.28927925591E+02  0.12032181434E+03  0.12570813075E+03  0.47000000000E+01 0. -1.
         -5    1    3    3    0  502  0.45767507623E+02 -0.71153063506E+01 -0.29805507285E+01  0.46650466462E+02  0.47000000000E+01 0.  1.
<mgrwt>
<rscale>  0 0.89968138E+02</rscale>
<asrwt>0</asrwt>
<pdfrwt beam="1">  1        4 0.69925169E-02 0.92436599E+02</pdfrwt>
<pdfrwt beam="2">  1       -4 0.38891886E-01 0.92436599E+02</pdfrwt>
<totfact> 0.13368122E+03</totfact>
</mgrwt>
</event>
<event>
 8    1  0.5224537E-004  0.1372717E+03  0.7546771E-02  0.1217072E+00
         -1   -1    0    0    0  501 -0.00000000000E+00  0.00000000000E+00  0.60940357419E+02  0.60940357419E+02  0.00000000000E+00 0.  1.
          1   -1    0    0  501    0  0.00000000000E+00 -0.00000000000E+00 -0.37307615112E+03  0.37307615112E+03  0.00000000000E+00 0. -1.
         23    2    1    2    0    0 -0.43918659309E+02 -0.92213842630E+02 -0.24599423933E+03  0.28170319975E+03  0.91713061008E+02 0.  0.
         23    2    1    2    0    0  0.43918659309E+02  0.92213842630E+02 -0.66141554374E+02  0.15231330879E+03  0.91610028988E+02 0.  0.
          5    1    3    3  502    0 -0.72515657124E+02 -0.65387284339E+02 -0.17764330826E+03  0.20276403145E+03  0.47000000000E+01 0. -1.
         -5    1    4    4    0  503  0.69142227211E+02  0.59937353662E+02 -0.62518188317E+02  0.11092226025E+03  0.47000000000E+01 0.  1.
          5    1    4    4  503    0 -0.25223567903E+02  0.32276488968E+02 -0.36233660566E+01  0.41391048542E+02  0.47000000000E+01 0. -1.
         -5    1    3    3    0  502  0.28596997816E+02 -0.26826558291E+02 -0.68350931074E+02  0.78939168304E+02  0.47000000000E+01 0.  1.
<mgrwt>
<rscale>  0 0.13725452E+03</rscale>
<asrwt>0</asrwt>
<pdfrwt beam="1">  1        1 0.57396331E-01 0.13727173E+03</pdfrwt>
<pdfrwt beam="2">  1       -1 0.93754396E-02 0.13727173E+03</pdfrwt>
<totfact> 0.43080641E+03</totfact>
</mgrwt>
</event>
<event>
 8    1  0.5224537E-004  0.1586251E+03  0.7546771E-02  0.1190600E+00
          1   -1    0    0  501    0  0.00000000000E+00  0.00000000000E+00  0.94079376257E+03  0.94079376257E+03  0.00000000000E+00 0. -1.
         -1   -1    0    0    0  501 -0.00000000000E+00 -0.00000000000E+00 -0.31625570145E+02  0.31625570145E+02  0.00000000000E+00 0.  1.
         23    2    1    2    0    0  0.12255442761E+03 -0.41523591374E+02  0.64802974304E+03  0.66687847492E+03  0.89669147887E+02 0.  0.
         23    2    1    2    0    0 -0.12255442761E+03  0.41523591374E+02  0.26113844939E+03  0.30554085780E+03  0.91750366027E+02 0.  0.
          5    1    4    4  502    0 -0.77235296350E+02  0.45990897954E+02  0.23756664765E+03  0.25404813672E+03  0.47000000000E+01 0. -1.
         -5    1    4    4    0  502 -0.45319131262E+02 -0.44673065799E+01  0.23571801741E+02  0.51492721075E+02  0.47000000000E+01 0.  1.
          5    1    3    3  503    0  0.67653606483E+02  0.13556261772E+02  0.42597588248E+03  0.43155338622E+03  0.47000000000E+01 0. -1.
         -5    1    3    3    0  503  0.54900821129E+02 -0.55079853146E+02  0.22205386056E+03  0.23532508870E+03  0.47000000000E+01 0.  1.
<mgrwt>
<rscale>  0 0.15832560E+03</rscale>
<asrwt>0</asrwt>
<pdfrwt beam="1">  1        1 0.14473748E+00 0.15862511E+03</pdfrwt>
<pdfrwt beam="2">  1       -1 0.48654730E-02 0.15862511E+03</pdfrwt>
<totfact> 0.32107564E+03</totfact>
</mgrwt>
</event>
<event>
 8    1  0.5224537E-004  0.9317552E+02  0.7546771E-02  0.1296952E+00
         -2   -1    0    0    0  501 -0.00000000000E+00  0.00000000000E+00  0.59545882593E+02  0.59545882593E+02  0.00000000000E+00 0.  1.
          2   -1    0    0  501    0  0.00000000000E+00 -0.00000000000E+00 -0.16756459840E+03  0.16756459840E+03  0.00000000000E+00 0. -1.
         23    2    1    2    0    0  0.99551532649E+01 -0.88762315060E+01 -0.99446109610E+02  0.13627621157E+03  0.92215966952E+02 0.  0.
         23    2    1    2    0    0 -0.99551532649E+01  0.88762315060E+01 -0.85726061986E+01  0.90834269425E+02  0.89439825373E+02 0.  0.
          5    1    4    4  502    0  0.47919670266E+01  0.30410971537E+02 -0.39365880681E+02  0.50195146176E+02  0.47000000000E+01 0. -1.
         -5    1    3    3    0  503  0.49563613283E+00 -0.47714637143E+02 -0.75511116738E+02  0.89448035216E+02  0.47000000000E+01 0.  1.
          5    1    3    3  503    0  0.94595171321E+01  0.38838405637E+02 -0.23934992871E+02  0.46828176353E+02  0.47000000000E+01 0. -1.
         -5    1    4    4    0  502 -0.14747120292E+02 -0.21534740031E+02  0.30793274483E+02  0.40639123249E+02  0.47000000000E+01 0.  1.
<mgrwt>
<rscale>  0 0.92481124E+02</rscale>
<asrwt>0</asrwt>
<pdfrwt beam="1">  1        2 0.25779169E-01 0.93175518E+02</pdfrwt>
<pdfrwt beam="2">  1       -2 0.91609052E-02 0.93175518E+02</pdfrwt>
<totfact> 0.14310360E+04</totfact>
</mgrwt>
</event>
<event>
 8    1  0.5224537E-004  0.1266987E+03  0.7546771E-02  0.1246126E+00
          1   -1    0    0  501    0  0.00000000000E+00  0.00000000000E+00  0.12016381525E+04  0.12016381525E+04  0.00000000000E+00 0. -1.
         -1   -1    0    0    0  501 -0.00000000000E+00 -0.00000000000E+00 -0.12566922837E+02  0.12566922837E+02  0.00000000000E+00 0.  1.
         23    2    1    2    0    0 -0.27693810805E+02 -0.44919620091E+01  0.91720676403E+03  0.92591620463E+03  0.12355341007E+03 0.  0.
         23    2    1    2    0    0  0.27693810805E+02  0.44919620091E+01  0.27186446565E+03  0.28828887072E+03  0.91722736652E+02 0.  0.
          5    1    3    3  502    0 -0.58602790599E+02  0.40847612195E+02  0.52936803805E+03  0.53418669414E+03  0.47000000000E+01 0. -1.
         -5    1    3    3    0  502  0.30908979794E+02 -0.45339574204E+02  0.38783872598E+03  0.39172951049E+03  0.47000000000E+01 0.  1.
          5    1    4    4  503    0 -0.23794640541E+02 -0.22867609751E+02  0.61621138899E+02  0.70059740603E+02  0.47000000000E+01 0. -1.
         -5    1    4    4    0  503  0.51488451346E+02  0.27359571760E+02  0.21024332675E+03  0.21822913011E+03  0.47000000000E+01 0.  1.
<mgrwt>
<rscale>  0 0.11818267E+03</rscale>
<asrwt>0</asrwt>
<pdfrwt beam="1">  1        1 0.18486732E+00 0.12669874E+03</pdfrwt>
<pdfrwt beam="2">  1       -1 0.19333737E-02 0.12669874E+03</pdfrwt>
<totfact> 0.79693972E+03</totfact>
</mgrwt>
</event>
<event>
 8    1  0.5224537E-004  0.1228886E+03  0.7546771E-02  0.1239187E+00
          2   -1    0    0  501    0  0.00000000000E+00  0.00000000000E+00  0.61616532361E+03  0.61616532361E+03  0.00000000000E+00 0. -1.
         -2   -1    0    0    0  501 -0.00000000000E+00 -0.00000000000E+00 -0.31692685922E+02  0.31692685922E+02  0.00000000000E+00 0.  1.
         23    2    1    2    0    0  0.62542288568E+02 -0.45837135321E+02  0.13217935266E+03  0.17916747747E+03  0.92827920807E+02 0.  0.
         23    2    1    2    0    0 -0.62542288568E+02  0.45837135321E+02  0.45229328502E+03  0.46869053205E+03  0.95336343152E+02 0.  0.
          5    1    3    3  502    0  0.28368783081E+02 -0.67431850843E+02  0.11170300273E+03  0.13360948013E+03  0.47000000000E+01 0. -1.
         -5    1    4    4    0  503 -0.37677489170E+01 -0.26079377270E+02  0.15159714036E+03  0.15394191377E+03  0.47000000000E+01 0.  1.
          5    1    4    4  503    0 -0.58774539651E+02  0.71916512590E+02  0.30069614467E+03  0.31474861828E+03  0.47000000000E+01 0. -1.
         -5    1    3    3    0  502  0.34173505488E+02  0.21594715522E+02  0.20476349934E+02  0.45557997349E+02  0.47000000000E+01 0.  1.
<mgrwt>
<rscale>  0 0.12240176E+03</rscale>
<asrwt>0</asrwt>
<pdfrwt beam="1">  1        2 0.94794656E-01 0.12288856E+03</pdfrwt>
<pdfrwt beam="2">  1       -2 0.48757983E-02 0.12288856E+03</pdfrwt>
<totfact> 0.94530385E+03</totfact>
</mgrwt>
</event>
<event>
 8    1  0.5224537E-004  0.9751419E+02  0.7546771E-02  0.1286694E+00
          2   -1    0    0  501    0  0.00000000000E+00  0.00000000000E+00  0.85102909039E+02  0.85102909039E+02  0.00000000000E+00 0. -1.
         -2   -1    0    0    0  501 -0.00000000000E+00 -0.00000000000E+00 -0.11382910673E+03  0.11382910673E+03  0.00000000000E+00 0.  1.
         23    2    1    2    0    0  0.17597855559E+02 -0.28186217079E+02 -0.33921846770E+02  0.10324586783E+03  0.91678079070E+02 0.  0.
         23    2    1    2    0    0 -0.17597855559E+02  0.28186217079E+02  0.51956490778E+01  0.95686147941E+02  0.89580671939E+02 0.  0.
          5    1    3    3  502    0  0.11553654253E+02  0.28097199306E+02  0.90216637703E+01  0.32037789446E+02  0.47000000000E+01 0. -1.
         -5    1    4    4    0  503  0.31688116172E+02  0.58960369083E+01  0.21459822395E+02  0.39006588353E+02  0.47000000000E+01 0.  1.
          5    1    4    4  503    0 -0.49285971730E+02  0.22290180171E+02 -0.16264173317E+02  0.56679559588E+02  0.47000000000E+01 0. -1.
         -5    1    3    3    0  502  0.60442013062E+01 -0.56283416385E+02 -0.42943510540E+02  0.71208078383E+02  0.47000000000E+01 0.  1.
<mgrwt>
<rscale>  0 0.97018117E+02</rscale>
<asrwt>0</asrwt>
<pdfrwt beam="1">  1        2 0.13092755E-01 0.97514191E+02</pdfrwt>
<pdfrwt beam="2">  1       -2 0.17512170E-01 0.97514191E+02</pdfrwt>
<totfact> 0.11013204E+04</totfact>
</mgrwt>
</event>
<event>
 8    1  0.5224537E-004  0.1027513E+03  0.7546771E-02  0.1276259E+00
         -3   -1    0    0    0  501 -0.00000000000E+00  0.00000000000E+00  0.10908212530E+03  0.10908212530E+03  0.00000000000E+00 0.  1.
          3   -1    0    0  501    0  0.00000000000E+00 -0.00000000000E+00 -0.11944522503E+03  0.11944522503E+03  0.00000000000E+00 0. -1.
         23    2    1    2    0    0  0.35480739840E+02 -0.69174760313E+01  0.47686690001E+02  0.11327775951E+03  0.96182618090E+02 0.  0.
         23    2    1    2    0    0 -0.35480739840E+02  0.69174760313E+01 -0.58049789723E+02  0.11524959082E+03  0.92768290500E+02 0.  0.
          5    1    4    4  502    0 -0.42858857964E+02  0.40422301368E+02 -0.54579960822E+02  0.80448158942E+02  0.47000000000E+01 0. -1.
         -5    1    4    4    0  502  0.73781181237E+01 -0.33504825337E+02 -0.34698289009E+01  0.34801431874E+02  0.47000000000E+01 0.  1.
          5    1    3    3  503    0 -0.37838795335E+01  0.27605236327E+02 -0.14612086955E+02  0.31811474379E+02  0.47000000000E+01 0. -1.
         -5    1    3    3    0  503  0.39264619374E+02 -0.34522712358E+02  0.62298776956E+02  0.81466285133E+02  0.47000000000E+01 0.  1.
<mgrwt>
<rscale>  0 0.10194465E+03</rscale>
<asrwt>0</asrwt>
<pdfrwt beam="1">  1        3 0.18376188E-01 0.10275130E+03</pdfrwt>
<pdfrwt beam="2">  1       -3 0.16781865E-01 0.10275130E+03</pdfrwt>
<totfact> 0.17376357E+03</totfact>
</mgrwt>
</event>
<event>
 8    1  0.5224537E-004  0.9760657E+02  0.7546771E-02  0.1288488E+00
         -2   -1    0    0    0  501 -0.00000000000E+00  0.00000000000E+00  0.27159829676E+02  0.27159829676E+02  0.00000000000E+00 0.  1.
          2   -1    0    0  501    0  0.00000000000E+00 -0.00000000000E+00 -0.36559277016E+03  0.36559277016E+03  0.00000000000E+00 0. -1.
         23    2    1    2    0    0 -0.11930524612E+02 -0.68589745442E+00 -0.23376350306E+03  0.25332275534E+03  0.96872261962E+02 0.  0.
         23    2    1    2    0    0  0.11930524612E+02  0.68589745442E+00 -0.10466943742E+03  0.13942984449E+03  0.91335549117E+02 0.  0.
          5    1    4    4  502    0  0.36672424327E+02 -0.96608487040E+01 -0.10548213103E+03  0.11219076910E+03  0.47000000000E+01 0. -1.
         -5    1    4    4    0  502 -0.24741899715E+02  0.10346746158E+02  0.81269360976E+00  0.27239075396E+02  0.47000000000E+01 0.  1.
          5    1    3    3  503    0  0.50347111011E+01 -0.45891030024E+02 -0.84906095925E+02  0.96759857781E+02  0.47000000000E+01 0. -1.
         -5    1    3    3    0  503 -0.16965235713E+02  0.45205132569E+02 -0.14885740713E+03  0.15656289756E+03  0.47000000000E+01 0.  1.
<mgrwt>
<rscale>  0 0.96203465E+02</rscale>
<asrwt>0</asrwt>
<pdfrwt beam="1">  1        2 0.56245042E-01 0.97606573E+02</pdfrwt>
<pdfrwt beam="2">  1       -2 0.41784353E-02 0.97606573E+02</pdfrwt>
<totfact> 0.20548797E+04</totfact>
</mgrwt>
</event>
<event>
 8    1  0.5224537E-004  0.1467560E+03  0.7546771E-02  0.1210234E+00
          2   -1    0    0  501    0  0.00000000000E+00  0.00000000000E+00  0.15858344623E+03  0.15858344623E+03  0.00000000000E+00 0. -1.
         -2   -1    0    0    0  501 -0.00000000000E+00 -0.00000000000E+00 -0.19618270876E+03  0.19618270876E+03  0.00000000000E+00 0.  1.
         23    2    1    2    0    0  0.32395286134E+02 -0.87486019415E+02 -0.12948860234E+03  0.19571563997E+03  0.11328749020E+03 0.  0.
         23    2    1    2    0    0 -0.32395286134E+02  0.87486019415E+02  0.91889339819E+02  0.15905051502E+03  0.90278222166E+02 0.  0.
          5    1    4    4  502    0  0.22880191156E+01  0.91174063782E+02  0.49231948015E+02  0.10374882960E+03  0.47000000000E+01 0. -1.
         -5    1    3    3    0  503  0.58914260166E+02 -0.26278227560E+02 -0.10724922507E+03  0.12524344922E+03  0.47000000000E+01 0.  1.
          5    1    3    3  503    0 -0.26518974032E+02 -0.61207791855E+02 -0.22239377271E+02  0.70472190748E+02  0.47000000000E+01 0. -1.
         -5    1    4    4    0  502 -0.34683305250E+02 -0.36880443665E+01  0.42657391803E+02  0.55301685415E+02  0.47000000000E+01 0.  1.
<mgrwt>
<rscale>  0 0.14232553E+03</rscale>
<asrwt>0</asrwt>
<pdfrwt beam="1">  1        2 0.24397453E-01 0.14675597E+03</pdfrwt>
<pdfrwt beam="2">  1       -2 0.30181955E-01 0.14675597E+03</pdfrwt>
<totfact> 0.21785569E+03</totfact>
</mgrwt>
</event>
<event>
 8    1  0.5224537E-004  0.9007102E+02  0.7546771E-02  0.1303241E+00
          2   -1    0    0  501    0  0.00000000000E+00  0.00000000000E+00  0.62567526314E+03  0.62567526314E+03  0.00000000000E+00 0. -1.
         -2   -1    0    0    0  501 -0.00000000000E+00 -0.00000000000E+00 -0.12950344863E+02  0.12950344863E+02  0.00000000000E+00 0.  1.
         23    2    1    2    0    0  0.66999210351E+01  0.10117708811E+02  0.33508261086E+03  0.34673857514E+03  0.88317758226E+02 0.  0.
         23    2    1    2    0    0 -0.66999210351E+01 -0.10117708811E+02  0.27764230742E+03  0.29188703286E+03  0.89249829747E+02 0.  0.
          5    1    4    4  502    0 -0.44707851988E+02 -0.14600334764E+02  0.19568354083E+03  0.20131095340E+03  0.47000000000E+01 0. -1.
         -5    1    4    4    0  502  0.38007930953E+02  0.44826259527E+01  0.81958766582E+02  0.90576079460E+02  0.47000000000E+01 0.  1.
          5    1    3    3  503    0 -0.10342558360E+02 -0.32902962420E+02  0.21790145646E+03  0.22066424308E+03  0.47000000000E+01 0. -1.
         -5    1    3    3    0  503  0.17042479395E+02  0.43020671231E+02  0.11718115440E+03  0.12607433206E+03  0.47000000000E+01 0.  1.
<mgrwt>
<rscale>  0 0.89839258E+02</rscale>
<asrwt>0</asrwt>
<pdfrwt beam="1">  1        2 0.96257709E-01 0.90071022E+02</pdfrwt>
<pdfrwt beam="2">  1       -2 0.19923612E-02 0.90071022E+02</pdfrwt>
<totfact> 0.33485430E+04</totfact>
</mgrwt>
</event>
<event>
 8    1  0.5224537E-004  0.1080812E+03  0.7546771E-02  0.1265984E+00
         -2   -1    0    0    0  501 -0.00000000000E+00  0.00000000000E+00  0.11176781012E+02  0.11176781012E+02  0.00000000000E+00 0.  1.
          2   -1    0    0  501    0  0.00000000000E+00 -0.00000000000E+00 -0.10364891326E+04  0.10364891326E+04  0.00000000000E+00 0. -1.
         23    2    1    2    0    0 -0.38912242711E+02  0.42995621910E+02 -0.60668349978E+03  0.61623568373E+03  0.91207252293E+02 0.  0.
         23    2    1    2    0    0  0.38912242711E+02 -0.42995621910E+02 -0.41862885182E+03  0.43143022989E+03  0.86712983730E+02 0.  0.
          5    1    4    4  502    0 -0.16691331280E+00 -0.56866816773E+02 -0.16993908165E+03  0.17926305861E+03  0.47000000000E+01 0. -1.
         -5    1    3    3    0  503  0.17241557419E+02  0.28170125588E+02 -0.85062712946E+02  0.91370577385E+02  0.47000000000E+01 0.  1.
          5    1    3    3  503    0 -0.56153800130E+02  0.14825496321E+02 -0.52162078683E+03  0.52486510635E+03  0.47000000000E+01 0. -1.
         -5    1    4    4    0  502  0.39079156024E+02  0.13871194863E+02 -0.24868977017E+03  0.25216717128E+03  0.47000000000E+01 0.  1.
<mgrwt>
<rscale>  0 0.10712748E+03</rscale>
<asrwt>0</asrwt>
<pdfrwt beam="1">  1        2 0.15945979E+00 0.10808121E+03</pdfrwt>
<pdfrwt beam="2">  1       -2 0.17195056E-02 0.10808121E+03</pdfrwt>
<totfact> 0.22530723E+04</totfact>
</mgrwt>
</event>
<event>
 8    1  0.5224537E-004  0.1074410E+03  0.7546771E-02  0.1266199E+00
         -1   -1    0    0    0  501 -0.00000000000E+00  0.00000000000E+00  0.97068799528E+02  0.97068799528E+02  0.00000000000E+00 0.  1.
          1   -1    0    0  501    0  0.00000000000E+00 -0.00000000000E+00 -0.13959879699E+03  0.13959879699E+03  0.00000000000E+00 0. -1.
         23    2    1    2    0    0 -0.25145456412E+02 -0.49011345874E+02  0.26146218789E+02  0.11057668784E+03  0.92245179468E+02 0.  0.
         23    2    1    2    0    0  0.25145456412E+02  0.49011345874E+02 -0.68676216254E+02  0.12609090868E+03  0.90266763372E+02 0.  0.
          5    1    4    4  502    0  0.44289328717E+02  0.66065000502E+02 -0.52334062578E+02  0.95326140358E+02  0.47000000000E+01 0. -1.
         -5    1    3    3    0  503  0.11182564087E+02 -0.48124677912E+02  0.47053731304E+02  0.68389896866E+02  0.47000000000E+01 0.  1.
          5    1    3    3  503    0 -0.36328020499E+02 -0.88666796224E+00 -0.20907512515E+02  0.42186790978E+02  0.47000000000E+01 0. -1.
         -5    1    4    4    0  502 -0.19143872305E+02 -0.17053654628E+02 -0.16342153676E+02  0.30764768320E+02  0.47000000000E+01 0.  1.
<mgrwt>
<rscale>  0 0.10701509E+03</rscale>
<asrwt>0</asrwt>
<pdfrwt beam="1">  1        1 0.21476738E-01 0.10744105E+03</pdfrwt>
<pdfrwt beam="2">  1       -1 0.14933661E-01 0.10744105E+03</pdfrwt>
<totfact> 0.70177008E+03</totfact>
</mgrwt>
</event>
<event>
 8    1  0.5224537E-004  0.1016967E+03  0.7546771E-02  0.1279414E+00
          1   -1    0    0  501    0  0.00000000000E+00  0.00000000000E+00  0.45845187923E+03  0.45845187923E+03  0.00000000000E+00 0.  1.
         -1   -1    0    0    0  501 -0.00000000000E+00 -0.00000000000E+00 -0.24479885991E+02  0.24479885991E+02  0.00000000000E+00 0. -1.
         23    2    1    2    0    0  0.40144645027E+02  0.14694207739E+02  0.29694739861E+03  0.31229194517E+03  0.86723636998E+02 0.  0.
         23    2    1    2    0    0 -0.40144645027E+02 -0.14694207739E+02  0.13702459463E+03  0.17063982004E+03  0.92275112498E+02 0.  0.
          5    1    4    4  502    0 -0.19161874390E+02 -0.49238938130E+02  0.43335457148E+02  0.68496002106E+02  0.47000000000E+01 0. -1.
         -5    1    4    4    0  502 -0.20982770637E+02  0.34544730391E+02  0.93689137480E+02  0.10214381794E+03  0.47000000000E+01 0.  1.
          5    1    3    3  503    0  0.15664548236E+02 -0.20530140162E+02  0.23688699513E+03  0.23833674326E+03  0.47000000000E+01 0. -1.
         -5    1    3    3    0  503  0.24480096791E+02  0.35224347901E+02  0.60060403482E+02  0.73955201915E+02  0.47000000000E+01 0.  1.
<mgrwt>
<rscale>  0 0.10042058E+03</rscale>
<asrwt>0</asrwt>
<pdfrwt beam="1">  1        1 0.70531052E-01 0.10169665E+03</pdfrwt>
<pdfrwt beam="2">  1       -1 0.37661366E-02 0.10169665E+03</pdfrwt>
<totfact> 0.12611686E+04</totfact>
</mgrwt>
</event>
<event>
 8    1  0.5224537E-004  0.9416433E+02  0.7546771E-02  0.1293306E+00
         -1   -1    0    0    0  501 -0.00000000000E+00  0.00000000000E+00  0.81265545789E+01  0.81265545789E+01  0.00000000000E+00 0.  1.
          1   -1    0    0  501    0  0.00000000000E+00 -0.00000000000E+00 -0.10962214649E+04  0.10962214649E+04  0.00000000000E+00 0. -1.
         23    2    1    2    0    0 -0.10414615287E+02  0.17395954567E+02 -0.59534083505E+03  0.60267731126E+03  0.91532224841E+02 0.  0.
         23    2    1    2    0    0  0.10414615287E+02 -0.17395954567E+02 -0.49275407531E+03  0.50167070825E+03  0.91955627022E+02 0.  0.
          5    1    3    3  502    0  0.12957774137E+02  0.50749223065E+02 -0.35216833920E+03  0.35607304965E+03  0.47000000000E+01 0. -1.
         -5    1    3    3    0  502 -0.23372389424E+02 -0.33353268498E+02 -0.24317249585E+03  0.24660426161E+03  0.47000000000E+01 0.  1.
          5    1    4    4  503    0  0.25335498386E+02  0.31283921307E+02 -0.27645716598E+03  0.27941228648E+03  0.47000000000E+01 0. -1.
         -5    1    4    4    0  503 -0.14920883099E+02 -0.48679875874E+02 -0.21629690932E+03  0.22225842177E+03  0.47000000000E+01 0.  1.
<mgrwt>
<rscale>  0 0.94060801E+02</rscale>
<asrwt>0</asrwt>
<pdfrwt beam="1">  1        1 0.16864939E+00 0.94164329E+02</pdfrwt>
<pdfrwt beam="2">  1       -1 0.12502396E-02 0.94164329E+02</pdfrwt>
<totfact> 0.17214337E+04</totfact>
</mgrwt>
</event>
<event>
 8    1  0.5224537E-004  0.1049287E+03  0.7546771E-02  0.1271038E+00
         -1   -1    0    0    0  501 -0.00000000000E+00  0.00000000000E+00  0.15357041666E+03  0.15357041666E+03  0.00000000000E+00 0.  1.
          1   -1    0    0  501    0  0.00000000000E+00 -0.00000000000E+00 -0.80560754497E+02  0.80560754497E+02  0.00000000000E+00 0. -1.
         23    2    1    2    0    0  0.46851384094E+02  0.14705273511E+02 -0.43590561714E+01  0.10501919801E+03  0.92729355217E+02 0.  0.
         23    2    1    2    0    0 -0.46851384094E+02 -0.14705273511E+02  0.77368718333E+02  0.12911197315E+03  0.90954305962E+02 0.  0.
          5    1    4    4  502    0 -0.33958565434E+02  0.28484728156E+02  0.70310494200E+02  0.83247939909E+02  0.47000000000E+01 0.  1.
         -5    1    3    3    0  503  0.31974776560E+02  0.33990929845E+02 -0.39967678025E+02  0.61622032866E+02  0.47000000000E+01 0.  1.
          5    1    3    3  503    0  0.14876607534E+02 -0.19285656335E+02  0.35608621854E+02  0.43397165141E+02  0.47000000000E+01 0. -1.
         -5    1    4    4    0  502 -0.12892818660E+02 -0.43190001667E+02  0.70582241329E+01  0.45864033238E+02  0.47000000000E+01 0. -1.
<mgrwt>
<rscale>  0 0.10453515E+03</rscale>
<asrwt>0</asrwt>
<pdfrwt beam="1">  1        1 0.12393962E-01 0.10492869E+03</pdfrwt>
<pdfrwt beam="2">  1       -1 0.23626218E-01 0.10492869E+03</pdfrwt>
<totfact> 0.68286299E+03</totfact>
</mgrwt>
</event>
<event>
 8    1  0.5224537E-004  0.1220357E+03  0.7546771E-02  0.1240760E+00
          3   -1    0    0  501    0  0.00000000000E+00  0.00000000000E+00  0.14447651835E+03  0.14447651835E+03  0.00000000000E+00 0. -1.
         -3   -1    0    0    0  501 -0.00000000000E+00 -0.00000000000E+00 -0.11766205864E+03  0.11766205864E+03  0.00000000000E+00 0.  1.
         23    2    1    2    0    0 -0.49661583545E+02 -0.61237220539E+02 -0.35722701333E+02  0.12715673398E+03  0.93147482775E+02 0.  0.
         23    2    1    2    0    0  0.49661583545E+02  0.61237220539E+02  0.62537161042E+02  0.13498184301E+03  0.89960721273E+02 0.  0.
          5    1    4    4  502    0  0.73624823903E+02  0.50973092192E+02  0.33621841020E+02  0.95767369266E+02  0.47000000000E+01 0. -1.
         -5    1    3    3    0  503 -0.28552738231E+02 -0.77075966441E+02 -0.50464820257E+02  0.96564753129E+02  0.47000000000E+01 0.  1.
          5    1    3    3  503    0 -0.21108845314E+02  0.15838745902E+02  0.14742118924E+02  0.30591980855E+02  0.47000000000E+01 0. -1.
         -5    1    4    4    0  502 -0.23963240359E+02  0.10264128347E+02  0.28915320022E+02  0.39214473746E+02  0.47000000000E+01 0.  1.
<mgrwt>
<rscale>  0 0.12142755E+03</rscale>
<asrwt>0</asrwt>
<pdfrwt beam="1">  1        3 0.22227157E-01 0.12203575E+03</pdfrwt>
<pdfrwt beam="2">  1       -3 0.18101855E-01 0.12203575E+03</pdfrwt>
<totfact> 0.11256870E+03</totfact>
</mgrwt>
</event>
<event>
 8    1  0.5224537E-004  0.1343310E+03  0.7546771E-02  0.1228383E+00
         -1   -1    0    0    0  501 -0.00000000000E+00  0.00000000000E+00  0.49924649946E+03  0.49924649946E+03  0.00000000000E+00 0.  1.
          1   -1    0    0  501    0  0.00000000000E+00 -0.00000000000E+00 -0.31977013621E+02  0.31977013621E+02  0.00000000000E+00 0. -1.
         23    2    1    2    0    0  0.37294243263E+02  0.59849592782E+02  0.28998939507E+03  0.31959139600E+03  0.11433274600E+03 0.  0.
         23    2    1    2    0    0 -0.37294243263E+02 -0.59849592782E+02  0.17728009077E+03  0.21163211708E+03  0.91581046398E+02 0.  0.
          5    1    4    4  502    0  0.31458857340E+01 -0.72641417480E+02  0.11476087331E+03  0.13593682420E+03  0.47000000000E+01 0. -1.
         -5    1    3    3    0  503 -0.36413104061E+02 -0.31135409081E+01  0.91656797582E+02  0.98785964728E+02  0.47000000000E+01 0.  1.
          5    1    3    3  503    0  0.73707347324E+02  0.62963133690E+02  0.19833259749E+03  0.22080543127E+03  0.47000000000E+01 0. -1.
         -5    1    4    4    0  502 -0.40440128997E+02  0.12791824698E+02  0.62519217467E+02  0.75695292886E+02  0.47000000000E+01 0.  1.
<mgrwt>
<rscale>  0 0.12937716E+03</rscale>
<asrwt>0</asrwt>
<pdfrwt beam="1">  1        1 0.49195409E-02 0.13433098E+03</pdfrwt>
<pdfrwt beam="2">  1       -1 0.76807148E-01 0.13433098E+03</pdfrwt>
<totfact> 0.29127096E+03</totfact>
</mgrwt>
</event>
<event>
 8    1  0.5224537E-004  0.1094195E+03  0.7546771E-02  0.1262013E+00
         -2   -1    0    0    0  501 -0.00000000000E+00  0.00000000000E+00  0.15798910518E+03  0.15798910518E+03  0.00000000000E+00 0.  1.
          2   -1    0    0  501    0  0.00000000000E+00 -0.00000000000E+00 -0.14636206581E+03  0.14636206581E+03  0.00000000000E+00 0. -1.
         23    2    1    2    0    0 -0.20244588588E+02  0.53592027708E+02  0.11187949553E+03  0.15594910993E+03  0.92310100025E+02 0.  0.
         23    2    1    2    0    0  0.20244588588E+02 -0.53592027708E+02 -0.10025245617E+03  0.14840206106E+03  0.93223752114E+02 0.  0.
          5    1    4    4  502    0 -0.31321064819E+02 -0.11315902958E+02 -0.64145349713E+02  0.72427720183E+02  0.47000000000E+01 0. -1.
         -5    1    4    4    0  502  0.51565653407E+02 -0.42276124750E+02 -0.36107106456E+02  0.75974340877E+02  0.47000000000E+01 0.  1.
          5    1    3    3  503    0 -0.39929845246E+02 -0.26467410493E+01  0.16823745933E+02  0.43663785988E+02  0.47000000000E+01 0. -1.
         -5    1    3    3    0  503  0.19685256659E+02  0.56238768757E+02  0.95055749601E+02  0.11228532394E+03  0.47000000000E+01 0.  1.
<mgrwt>
<rscale>  0 0.10922459E+03</rscale>
<asrwt>0</asrwt>
<pdfrwt beam="1">  1        2 0.22517241E-01 0.10941945E+03</pdfrwt>
<pdfrwt beam="2">  1       -2 0.24306016E-01 0.10941945E+03</pdfrwt>
<totfact> 0.34382566E+03</totfact>
</mgrwt>
</event>
<event>
 8    1  0.5224537E-004  0.1211272E+03  0.7546771E-02  0.1241276E+00
          1   -1    0    0  501    0  0.00000000000E+00  0.00000000000E+00  0.10581344365E+04  0.10581344365E+04  0.00000000000E+00 0. -1.
         -1   -1    0    0    0  501 -0.00000000000E+00 -0.00000000000E+00 -0.14621587911E+02  0.14621587911E+02  0.00000000000E+00 0.  1.
         23    2    1    2    0    0  0.55965126063E+02 -0.56115574933E+02  0.39906830391E+03  0.41702699265E+03  0.91514743802E+02 0.  0.
         23    2    1    2    0    0 -0.55965126063E+02  0.56115574933E+02  0.64444454468E+03  0.65572903176E+03  0.91600976156E+02 0.  0.
          5    1    3    3  502    0  0.67292626254E+02 -0.31801256858E+02  0.36899626635E+03  0.37645710521E+03  0.47000000000E+01 0. -1.
         -5    1    4    4    0  503  0.19817273815E+02  0.37814484375E+02  0.23974738963E+03  0.24356428393E+03  0.47000000000E+01 0.  1.
          5    1    4    4  503    0 -0.75782399879E+02  0.18301090557E+02  0.40469715505E+03  0.41216474783E+03  0.47000000000E+01 0. -1.
         -5    1    3    3    0  502 -0.11327500190E+02 -0.24314318075E+02  0.30072037557E+02  0.40569887439E+02  0.47000000000E+01 0.  1.
<mgrwt>
<rscale>  0 0.12111087E+03</rscale>
<asrwt>0</asrwt>
<pdfrwt beam="1">  1        1 0.16278985E+00 0.12112717E+03</pdfrwt>
<pdfrwt beam="2">  1       -1 0.22494759E-02 0.12112717E+03</pdfrwt>
<totfact> 0.80454091E+03</totfact>
</mgrwt>
</event>
<event>
 8    1  0.5224537E-004  0.9389767E+02  0.7546771E-02  0.1293990E+00
          3   -1    0    0  501    0  0.00000000000E+00  0.00000000000E+00  0.13042469881E+02  0.13042469881E+02  0.00000000000E+00 0. -1.
         -3   -1    0    0    0  501 -0.00000000000E+00 -0.00000000000E+00 -0.86011039424E+03  0.86011039424E+03  0.00000000000E+00 0.  1.
         23    2    1    2    0    0 -0.19675690120E+02 -0.57371371646E+01 -0.21845883207E+03  0.23756953817E+03  0.91076762296E+02 0.  0.
         23    2    1    2    0    0  0.19675690120E+02  0.57371371646E+01 -0.62860909229E+03  0.63558332595E+03  0.91633649935E+02 0.  0.
          5    1    3    3  502    0  0.35743216253E+02 -0.88014976854E+01 -0.10013083036E+03  0.10678631494E+03  0.47000000000E+01 0. -1.
         -5    1    4    4    0  503 -0.21944166812E+02  0.29487089096E+02 -0.14800288499E+03  0.15257122548E+03  0.47000000000E+01 0.  1.
          5    1    4    4  503    0  0.41619856932E+02 -0.23749951931E+02 -0.48060620730E+03  0.48301210047E+03  0.47000000000E+01 0. -1.
         -5    1    3    3    0  502 -0.55418906373E+02  0.30643605207E+01 -0.11832800171E+03  0.13078322323E+03  0.47000000000E+01 0.  1.
<mgrwt>
<rscale>  0 0.93761534E+02</rscale>
<asrwt>0</asrwt>
<pdfrwt beam="1">  1        3 0.20065337E-02 0.93897675E+02</pdfrwt>
<pdfrwt beam="2">  1       -3 0.13232468E+00 0.93897675E+02</pdfrwt>
<totfact> 0.96266076E+02</totfact>
</mgrwt>
</event>
<event>
 8    1  0.5224537E-004  0.9637794E+02  0.7546771E-02  0.1289733E+00
          1   -1    0    0  501    0  0.00000000000E+00  0.00000000000E+00  0.39730927248E+03  0.39730927248E+03  0.00000000000E+00 0. -1.
         -1   -1    0    0    0  501 -0.00000000000E+00 -0.00000000000E+00 -0.38277862271E+02  0.38277862271E+02  0.00000000000E+00 0.  1.
         23    2    1    2    0    0  0.21074346712E+02  0.10765271134E+02  0.38869159958E+02  0.10123316992E+03  0.90428557127E+02 0.  0.
         23    2    1    2    0    0 -0.21074346712E+02 -0.10765271134E+02  0.32016225025E+03  0.33435396483E+03  0.93427448648E+02 0.  0.
          5    1    3    3  502    0 -0.27465285017E+02 -0.20358847424E+02  0.71021460371E+01  0.35232868572E+02  0.47000000000E+01 0. -1.
         -5    1    3    3    0  502  0.48539631729E+02  0.31124118559E+02  0.31767013921E+02  0.66000301347E+02  0.47000000000E+01 0.  1.
          5    1    4    4  503    0 -0.45959760454E+02 -0.93814548824E+01  0.29458539796E+03  0.29833363533E+03  0.47000000000E+01 0. -1.
         -5    1    4    4    0  503  0.24885413742E+02 -0.13838162520E+01  0.25576852295E+02  0.36020329508E+02  0.47000000000E+01 0.  1.
<mgrwt>
<rscale>  0 0.95643542E+02</rscale>
<asrwt>0</asrwt>
<pdfrwt beam="1">  1        1 0.61124501E-01 0.96377940E+02</pdfrwt>
<pdfrwt beam="2">  1       -1 0.58889022E-02 0.96377940E+02</pdfrwt>
<totfact> 0.78128133E+03</totfact>
</mgrwt>
</event>
<event>
 7    1  0.5224537E-004  0.3287624E+03  0.7546771E-02  0.1075076E+00
          1   -1    0    0  501    0  0.00000000000E+00  0.00000000000E+00  0.10171333991E+04  0.10171333991E+04  0.00000000000E+00 0. -1.
         -1   -1    0    0    0  501 -0.00000000000E+00 -0.00000000000E+00 -0.17739001317E+03  0.17739001317E+03  0.00000000000E+00 0.  1.
         23    2    1    2    0    0  0.98371175134E+02  0.26784285248E+03  0.76319432791E+01  0.29982001943E+03  0.91744840565E+02 0.  0.
          5    1    3    3  502    0 -0.28549582721E+01  0.10509887435E+03  0.22179709077E+02  0.10755442190E+03  0.47000000000E+01 0. -1.
         -5    1    1    2    0  503  0.15180541271E+02 -0.12591148037E+03  0.19920545959E+03  0.23619706783E+03  0.47000000000E+01 0.  1.
          5    1    1    2  503    0 -0.11355171640E+03 -0.14193137211E+03  0.63290598307E+03  0.65850632502E+03  0.47000000000E+01 0. -1.
         -5    1    3    3    0  502  0.10122613341E+03  0.16274397813E+03 -0.14547765798E+02  0.19226559752E+03  0.47000000000E+01 0.  1.
<mgrwt>
<rscale>  0 0.32124884E+03</rscale>
<asrwt>0</asrwt>
<pdfrwt beam="1">  1        1 0.15648206E+00 0.32876239E+03</pdfrwt>
<pdfrwt beam="2">  1       -1 0.27290772E-01 0.32876239E+03</pdfrwt>
<totfact> 0.18656285E+02</totfact>
</mgrwt>
</event>
<event>
 8    1  0.5224537E-004  0.9480176E+02  0.7546771E-02  0.1291981E+00
         -1   -1    0    0    0  501 -0.00000000000E+00  0.00000000000E+00  0.54078440999E+02  0.54078440999E+02  0.00000000000E+00 0.  1.
          1   -1    0    0  501    0  0.00000000000E+00 -0.00000000000E+00 -0.21122094095E+03  0.21122094095E+03  0.00000000000E+00 0. -1.
         23    2    1    2    0    0  0.21446693961E+02  0.26012618393E+02 -0.14036015488E+03  0.16902363187E+03  0.87928368886E+02 0.  0.
         23    2    1    2    0    0 -0.21446693961E+02 -0.26012618393E+02 -0.16782345068E+02  0.96275750077E+02  0.88604491700E+02 0.  0.
          5    1    3    3  502    0 -0.87740458362E+01  0.51699613799E+02 -0.64212291755E+02  0.83036993923E+02  0.47000000000E+01 0. -1.
         -5    1    3    3    0  502  0.30220739797E+02 -0.25686995406E+02 -0.76147863127E+02  0.85986637949E+02  0.47000000000E+01 0.  1.
          5    1    4    4  503    0 -0.29284693865E+02  0.23428587736E+02  0.10289279396E+02  0.39172072814E+02  0.47000000000E+01 0. -1.
         -5    1    4    4    0  503  0.78379999037E+01 -0.49441206128E+02 -0.27071624464E+02  0.57103677263E+02  0.47000000000E+01 0.  1.
<mgrwt>
<rscale>  0 0.94643456E+02</rscale>
<asrwt>0</asrwt>
<pdfrwt beam="1">  1        1 0.32495530E-01 0.94801756E+02</pdfrwt>
<pdfrwt beam="2">  1       -1 0.83197600E-02 0.94801756E+02</pdfrwt>
<totfact> 0.10138491E+04</totfact>
</mgrwt>
</event>
<event>
 8    1  0.5224537E-004  0.9426323E+02  0.7546771E-02  0.1292916E+00
          2   -1    0    0  501    0  0.00000000000E+00  0.00000000000E+00  0.26778916449E+02  0.26778916449E+02  0.00000000000E+00 0. -1.
         -2   -1    0    0    0  501 -0.00000000000E+00 -0.00000000000E+00 -0.36789625588E+03  0.36789625588E+03  0.00000000000E+00 0.  1.
         23    2    1    2    0    0 -0.16900186171E+01  0.27436411410E+02 -0.23263831411E+03  0.25096276835E+03  0.90033955099E+02 0.  0.
         23    2    1    2    0    0  0.16900186171E+01 -0.27436411410E+02 -0.10847902532E+03  0.14371240398E+03  0.90166198154E+02 0.  0.
          5    1    4    4  502    0  0.10623887861E+02 -0.55400282218E+02 -0.96049947898E+02  0.11148874721E+03  0.47000000000E+01 0. -1.
         -5    1    4    4    0  502 -0.89338692444E+01  0.27963870808E+02 -0.12429077425E+02  0.32223656773E+02  0.47000000000E+01 0.  1.
          5    1    3    3  503    0  0.34966209335E+02 -0.56955777918E+01 -0.15304350903E+03  0.15716068547E+03  0.47000000000E+01 0. -1.
         -5    1    3    3    0  503 -0.36656227952E+02  0.33131989202E+02 -0.79594805077E+02  0.93802082873E+02  0.47000000000E+01 0.  1.
<mgrwt>
<rscale>  0 0.94231590E+02</rscale>
<asrwt>0</asrwt>
<pdfrwt beam="1">  1        2 0.41198334E-02 0.94263228E+02</pdfrwt>
<pdfrwt beam="2">  1       -2 0.56599423E-01 0.94263228E+02</pdfrwt>
<totfact> 0.55646959E+03</totfact>
</mgrwt>
</event>
<event>
 8    1  0.5224537E-004  0.1146287E+03  0.7546771E-02  0.1252446E+00
         -1   -1    0    0    0  501 -0.00000000000E+00  0.00000000000E+00  0.15879538425E+03  0.15879538425E+03  0.00000000000E+00 0.  1.
          1   -1    0    0  501    0  0.00000000000E+00 -0.00000000000E+00 -0.14978598113E+03  0.14978598113E+03  0.00000000000E+00 0. -1.
         23    2    1    2    0    0 -0.58371726097E+02 -0.37735269931E+02 -0.98983445696E+02  0.15145114798E+03  0.91151076229E+02 0.  0.
         23    2    1    2    0    0  0.58371726097E+02  0.37735269931E+02  0.10799284882E+03  0.15713021740E+03  0.90533092394E+02 0.  0.
          5    1    3    3  502    0 -0.25072066597E+02 -0.64725608728E+02 -0.47231739461E+02  0.84088882507E+02  0.47000000000E+01 0. -1.
         -5    1    3    3    0  502 -0.33299659500E+02  0.26990338797E+02 -0.51751706235E+02  0.67362265471E+02  0.47000000000E+01 0.  1.
          5    1    4    4  503    0  0.20138846003E+02  0.24691875910E+02 -0.88584150342E+01  0.33403942450E+02  0.47000000000E+01 0. -1.
         -5    1    4    4    0  503  0.38232880094E+02  0.13043394021E+02  0.11685126385E+03  0.12372627495E+03  0.47000000000E+01 0.  1.
<mgrwt>
<rscale>  0 0.11450575E+03</rscale>
<asrwt>0</asrwt>
<pdfrwt beam="1">  1        1 0.23043997E-01 0.11462865E+03</pdfrwt>
<pdfrwt beam="2">  1       -1 0.24430059E-01 0.11462865E+03</pdfrwt>
<totfact> 0.29470769E+03</totfact>
</mgrwt>
</event>
<event>
 8    1  0.5224537E-004  0.1062719E+03  0.7546771E-02  0.1270182E+00
         -1   -1    0    0    0  501 -0.00000000000E+00  0.00000000000E+00  0.11992920483E+02  0.11992920483E+02  0.00000000000E+00 0.  1.
          1   -1    0    0  501    0  0.00000000000E+00 -0.00000000000E+00 -0.96942474537E+03  0.96942474537E+03  0.00000000000E+00 0. -1.
         23    2    1    2    0    0  0.50850314547E+02  0.19575034591E+02 -0.62383550054E+03  0.63282259760E+03  0.91240187586E+02 0.  0.
         23    2    1    2    0    0 -0.50850314547E+02 -0.19575034591E+02 -0.33359632435E+03  0.34859506825E+03  0.85223691092E+02 0.  0.
          5    1    3    3  502    0  0.76860196226E+02  0.19147441808E+02 -0.49279542553E+03  0.49914280093E+03  0.47000000000E+01 0. -1.
         -5    1    3    3    0  502 -0.26009881679E+02  0.42759278224E+00 -0.13104007501E+03  0.13367979667E+03  0.47000000000E+01 0.  1.
          5    1    4    4  503    0  0.56525797240E+01 -0.38920509573E+02 -0.16446458594E+03  0.16916692274E+03  0.47000000000E+01 0. -1.
         -5    1    4    4    0  503 -0.56502894271E+02  0.19345474982E+02 -0.16913173841E+03  0.17942814551E+03  0.47000000000E+01 0.  1.
<mgrwt>
<rscale>  0 0.10496847E+03</rscale>
<asrwt>0</asrwt>
<pdfrwt beam="1">  1        1 0.14914230E+00 0.10627186E+03</pdfrwt>
<pdfrwt beam="2">  1       -1 0.18450643E-02 0.10627186E+03</pdfrwt>
<totfact> 0.12295999E+04</totfact>
</mgrwt>
</event>
<event>
 8    1  0.5224537E-004  0.9326235E+02  0.7546771E-02  0.1298398E+00
         -2   -1    0    0    0  501 -0.00000000000E+00  0.00000000000E+00  0.21491866252E+03  0.21491866252E+03  0.00000000000E+00 0.  1.
          2   -1    0    0  501    0  0.00000000000E+00 -0.00000000000E+00 -0.43150433272E+03  0.43150433272E+03  0.00000000000E+00 0. -1.
         23    2    1    2    0    0 -0.15327464689E+02  0.36121511683E+01  0.20058343969E+03  0.21895611584E+03  0.86371786917E+02 0.  0.
         23    2    1    2    0    0  0.15327464689E+02 -0.36121511683E+01 -0.41716910990E+03  0.42746687940E+03  0.91923271917E+02 0.  0.
          5    1    4    4  502    0 -0.33579070197E+02 -0.23881347315E+01 -0.27393084692E+03  0.27603162145E+03  0.47000000000E+01 0. -1.
         -5    1    4    4    0  502  0.48906534886E+02 -0.12240164368E+01 -0.14323826297E+03  0.15143525795E+03  0.47000000000E+01 0.  1.
          5    1    3    3  503    0  0.24117673646E+02  0.17386060151E+02  0.27271604532E+02  0.40617332303E+02  0.47000000000E+01 0. -1.
         -5    1    3    3    0  503 -0.39445138335E+02 -0.13773908982E+02  0.17331183516E+03  0.17833878354E+03  0.47000000000E+01 0.  1.
<mgrwt>
<rscale>  0 0.91864549E+02</rscale>
<asrwt>0</asrwt>
<pdfrwt beam="1">  1        2 0.66385282E-01 0.93262354E+02</pdfrwt>
<pdfrwt beam="2">  1       -2 0.33064410E-01 0.93262354E+02</pdfrwt>
<totfact> 0.62715420E+02</totfact>
</mgrwt>
</event>
<event>
 8    1  0.5224537E-004  0.1004466E+03  0.7546771E-02  0.1280702E+00
         -1   -1    0    0    0  501 -0.00000000000E+00  0.00000000000E+00  0.11813180228E+03  0.11813180228E+03  0.00000000000E+00 0.  1.
          1   -1    0    0  501    0  0.00000000000E+00 -0.00000000000E+00 -0.16984437410E+03  0.16984437410E+03  0.00000000000E+00 0. -1.
         23    2    1    2    0    0  0.18441243566E+02  0.40089378369E+02  0.76779377516E+02  0.12643016301E+03  0.90234558700E+02 0.  0.
         23    2    1    2    0    0 -0.18441243566E+02 -0.40089378369E+02 -0.12849194933E+03  0.16154601337E+03  0.87405352654E+02 0.  0.
          5    1    4    4  502    0 -0.32923774132E+02  0.10294607746E+02 -0.18077926052E+02  0.39228245718E+02  0.47000000000E+01 0. -1.
         -5    1    3    3    0  503  0.48781827675E+02  0.35717875714E+02  0.73435791961E+02  0.95238326832E+02  0.47000000000E+01 0.  1.
          5    1    3    3  503    0 -0.30340584109E+02  0.43715026555E+01  0.33435855555E+01  0.31191836174E+02  0.47000000000E+01 0. -1.
         -5    1    4    4    0  502  0.14482530566E+02 -0.50383986115E+02 -0.11041402328E+03  0.12231776766E+03  0.47000000000E+01 0.  1.
<mgrwt>
<rscale>  0 0.99807067E+02</rscale>
<asrwt>0</asrwt>
<pdfrwt beam="1">  1        1 0.26129904E-01 0.10044657E+03</pdfrwt>
<pdfrwt beam="2">  1       -1 0.18174123E-01 0.10044657E+03</pdfrwt>
<totfact> 0.40187448E+03</totfact>
</mgrwt>
</event>
<event>
 8    1  0.5224537E-004  0.1128220E+03  0.7546771E-02  0.1256664E+00
         -2   -1    0    0    0  501 -0.00000000000E+00  0.00000000000E+00  0.16489420141E+02  0.16489420141E+02  0.00000000000E+00 0.  1.
          2   -1    0    0  501    0  0.00000000000E+00 -0.00000000000E+00 -0.79072583098E+03  0.79072583098E+03  0.00000000000E+00 0. -1.
         23    2    1    2    0    0 -0.22053967578E+02 -0.61904679330E+02 -0.30399420104E+03  0.32425495431E+03  0.91707329680E+02 0.  0.
         23    2    1    2    0    0  0.22053967578E+02  0.61904679330E+02 -0.47024220979E+03  0.48296029681E+03  0.88342207433E+02 0.  0.
          5    1    3    3  502    0 -0.48399730337E+02 -0.58655027647E+02 -0.27173535631E+03  0.28221470556E+03  0.47000000000E+01 0. -1.
         -5    1    4    4    0  503  0.35629219033E+02 -0.49565638969E+01 -0.98241187637E+02  0.10472549700E+03  0.47000000000E+01 0.  1.
          5    1    4    4  503    0 -0.13575251456E+02  0.66861243227E+02 -0.37200102215E+03  0.37823479980E+03  0.47000000000E+01 0. -1.
         -5    1    3    3    0  502  0.26345762759E+02 -0.32496516834E+01 -0.32258844734E+02  0.42040248750E+02  0.47000000000E+01 0.  1.
<mgrwt>
<rscale>  0 0.11213629E+03</rscale>
<asrwt>0</asrwt>
<pdfrwt beam="1">  1        2 0.12165012E+00 0.11282199E+03</pdfrwt>
<pdfrwt beam="2">  1       -2 0.25368340E-02 0.11282199E+03</pdfrwt>
<totfact> 0.18325790E+04</totfact>
</mgrwt>
</event>
<event>
 8    1  0.5224537E-004  0.1264256E+03  0.7546771E-02  0.1234431E+00
         -1   -1    0    0    0  501 -0.00000000000E+00  0.00000000000E+00  0.49914297003E+03  0.49914297003E+03  0.00000000000E+00 0.  1.
          1   -1    0    0  501    0  0.00000000000E+00 -0.00000000000E+00 -0.31032379412E+02  0.31032379412E+02  0.00000000000E+00 0. -1.
         23    2    1    2    0    0  0.77398116057E+01  0.82561995067E+02  0.23702838084E+03  0.26676993731E+03  0.90040870801E+02 0.  0.
         23    2    1    2    0    0 -0.77398116057E+01 -0.82561995067E+02  0.23108220978E+03  0.26340541213E+03  0.95430790376E+02 0.  0.
          5    1    4    4  502    0  0.12224910940E+01 -0.10326589204E+03  0.18930089065E+03  0.21569018555E+03  0.47000000000E+01 0. -1.
         -5    1    3    3    0  503  0.45221268782E+02  0.59289008463E+02  0.17701029882E+03  0.19213246879E+03  0.47000000000E+01 0.  1.
          5    1    3    3  503    0 -0.37481457176E+02  0.23272986604E+02  0.60018082019E+02  0.74637468518E+02  0.47000000000E+01 0. -1.
         -5    1    4    4    0  502 -0.89623026997E+01  0.20703896972E+02  0.41781319126E+02  0.47715226578E+02  0.47000000000E+01 0.  1.
<mgrwt>
<rscale>  0 0.12540901E+03</rscale>
<asrwt>0</asrwt>
<pdfrwt beam="1">  1        1 0.47742126E-02 0.12642556E+03</pdfrwt>
<pdfrwt beam="2">  1       -1 0.76791220E-01 0.12642556E+03</pdfrwt>
<totfact> 0.30251816E+03</totfact>
</mgrwt>
</event>
<event>
 8    1  0.5224537E-004  0.1018980E+03  0.7546771E-02  0.1276763E+00
         -1   -1    0    0    0  501 -0.00000000000E+00  0.00000000000E+00  0.62678061865E+02  0.62678061865E+02  0.00000000000E+00 0.  1.
          1   -1    0    0  501    0  0.00000000000E+00 -0.00000000000E+00 -0.19270736425E+03  0.19270736425E+03  0.00000000000E+00 0. -1.
         23    2    1    2    0    0  0.39781129287E+02  0.19482349629E+02 -0.11376149259E+03  0.15219706856E+03  0.90885478966E+02 0.  0.
         23    2    1    2    0    0 -0.39781129287E+02 -0.19482349629E+02 -0.16267809792E+02  0.10318835755E+03  0.91766526058E+02 0.  0.
          5    1    3    3  502    0  0.39427523853E+02 -0.22494294608E+02 -0.20928345884E+02  0.50205662913E+02  0.47000000000E+01 0. -1.
         -5    1    3    3    0  502  0.35360543383E+00  0.41976644236E+02 -0.92833146705E+02  0.10199140564E+03  0.47000000000E+01 0.  1.
          5    1    4    4  503    0 -0.47133102013E+02  0.10643807366E+02 -0.40763173724E+02  0.63392004801E+02  0.47000000000E+01 0. -1.
         -5    1    4    4    0  503  0.73519727262E+01 -0.30126156995E+02  0.24495363932E+02  0.39796352753E+02  0.47000000000E+01 0.  1.
<mgrwt>
<rscale>  0 0.10169920E+03</rscale>
<asrwt>0</asrwt>
<pdfrwt beam="1">  1        1 0.29647287E-01 0.10189797E+03</pdfrwt>
<pdfrwt beam="2">  1       -1 0.96427788E-02 0.10189797E+03</pdfrwt>
<totfact> 0.91465737E+03</totfact>
</mgrwt>
</event>
<event>
 8    1  0.5224537E-004  0.1276291E+03  0.7546771E-02  0.1254223E+00
         -2   -1    0    0    0  501 -0.00000000000E+00  0.00000000000E+00  0.45878032038E+02  0.45878032038E+02  0.00000000000E+00 0. -1.
          2   -1    0    0  501    0  0.00000000000E+00 -0.00000000000E+00 -0.25615692144E+03  0.25615692144E+03  0.00000000000E+00 0.  1.
         23    2    1    2    0    0 -0.79664690366E+00 -0.25812596697E+02 -0.17013518281E+03  0.21268563029E+03  0.12498908794E+03 0.  0.
         23    2    1    2    0    0  0.79664690366E+00  0.25812596697E+02 -0.40143706587E+02  0.89349323188E+02  0.75530520858E+02 0.  0.
          5    1    3    3  502    0  0.57193065697E+02 -0.26964103216E+02 -0.12065984033E+03  0.13630479337E+03  0.47000000000E+01 0. -1.
         -5    1    4    4    0  503 -0.15063495726E+02 -0.19584134452E+02 -0.31428778968E+02  0.40253016945E+02  0.47000000000E+01 0.  1.
          5    1    4    4  503    0  0.15860142630E+02  0.45396731150E+02 -0.87149276182E+01  0.49096306243E+02  0.47000000000E+01 0. -1.
         -5    1    3    3    0  502 -0.57989712600E+02  0.11515065188E+01 -0.49475342479E+02  0.76380836917E+02  0.47000000000E+01 0. -1.
<mgrwt>
<rscale>  0 0.11349978E+03</rscale>
<asrwt>0</asrwt>
<pdfrwt beam="1">  1        2 0.39408757E-01 0.12762914E+03</pdfrwt>
<pdfrwt beam="2">  1       -2 0.70581588E-02 0.12762914E+03</pdfrwt>
<totfact> 0.13955190E+04</totfact>
</mgrwt>
</event>
<event>
 8    1  0.5224537E-004  0.1654189E+03  0.7546771E-02  0.1183027E+00
          1   -1    0    0  501    0  0.00000000000E+00  0.00000000000E+00  0.70262732422E+02  0.70262732422E+02  0.00000000000E+00 0. -1.
         -1   -1    0    0    0  501 -0.00000000000E+00 -0.00000000000E+00 -0.38769467488E+03  0.38769467488E+03  0.00000000000E+00 0.  1.
         23    2    1    2    0    0  0.98373750122E+02  0.93611854099E+02 -0.16972218072E+03  0.23618819490E+03  0.92404928656E+02 0.  0.
         23    2    1    2    0    0 -0.98373750122E+02 -0.93611854099E+02 -0.14770976174E+03  0.22176921241E+03  0.94460763898E+02 0.  0.
          5    1    3    3  502    0  0.10960009359E+03  0.75080921495E+02 -0.16759719856E+03  0.21391642352E+03  0.47000000000E+01 0. -1.
         -5    1    3    3    0  502 -0.11226343472E+02  0.18530932604E+02 -0.21249821592E+01  0.22271771373E+02  0.47000000000E+01 0.  1.
          5    1    4    4  503    0 -0.28348349660E+02 -0.40975783963E+02 -0.88013104763E-01  0.50047393000E+02  0.47000000000E+01 0. -1.
         -5    1    4    4    0  503 -0.70025400462E+02 -0.52636070136E+02 -0.14762174864E+03  0.17172181940E+03  0.47000000000E+01 0.  1.
<mgrwt>
<rscale>  0 0.16512680E+03</rscale>
<asrwt>0</asrwt>
<pdfrwt beam="1">  1        1 0.10809651E-01 0.16541889E+03</pdfrwt>
<pdfrwt beam="2">  1       -1 0.59645334E-01 0.16541889E+03</pdfrwt>
<totfact> 0.16690544E+03</totfact>
</mgrwt>
</event>
<event>
 8    1  0.5224537E-004  0.9228589E+02  0.7546771E-02  0.1297801E+00
         -1   -1    0    0    0  501 -0.00000000000E+00  0.00000000000E+00  0.69972893072E+02  0.69972893072E+02  0.00000000000E+00 0.  1.
          1   -1    0    0  501    0  0.00000000000E+00 -0.00000000000E+00 -0.16851252052E+03  0.16851252052E+03  0.00000000000E+00 0. -1.
         23    2    1    2    0    0 -0.35182808111E+01 -0.50149143329E+01 -0.11282519087E+03  0.14576079728E+03  0.92082347196E+02 0.  0.
         23    2    1    2    0    0  0.35182808111E+01  0.50149143329E+01  0.14285563416E+02  0.92724616310E+02  0.91412523661E+02 0.  0.
          5    1    3    3  502    0  0.15784013027E+02 -0.26997648091E+02 -0.11172106683E+03  0.11611070081E+03  0.47000000000E+01 0. -1.
         -5    1    3    3    0  502 -0.19302293838E+02  0.21982733758E+02 -0.11041240374E+01  0.29650096472E+02  0.47000000000E+01 0.  1.
          5    1    4    4  503    0  0.42401190347E+02 -0.33748097129E+01 -0.12448409271E+02  0.44567961326E+02  0.47000000000E+01 0. -1.
         -5    1    4    4    0  503 -0.38882909536E+02  0.83897240457E+01  0.26733972687E+02  0.48156654983E+02  0.47000000000E+01 0.  1.
<mgrwt>
<rscale>  0 0.92118355E+02</rscale>
<asrwt>0</asrwt>
<pdfrwt beam="1">  1        1 0.25925003E-01 0.92285895E+02</pdfrwt>
<pdfrwt beam="2">  1       -1 0.10765061E-01 0.92285895E+02</pdfrwt>
<totfact> 0.90606884E+03</totfact>
</mgrwt>
</event>
<event>
 8    1  0.5224537E-004  0.1182310E+03  0.7546771E-02  0.1249972E+00
          1   -1    0    0  501    0  0.00000000000E+00  0.00000000000E+00  0.44064211248E+03  0.44064211248E+03  0.00000000000E+00 0. -1.
         -1   -1    0    0    0  501 -0.00000000000E+00 -0.00000000000E+00 -0.55966908861E+02  0.55966908861E+02  0.00000000000E+00 0.  1.
         23    2    1    2    0    0  0.56141942847E+02  0.21352591990E+02  0.25195117565E+02  0.12088578158E+03  0.10183676795E+03 0.  0.
         23    2    1    2    0    0 -0.56141942847E+02 -0.21352591990E+02  0.35948008606E+03  0.37572323977E+03  0.91291673758E+02 0.  0.
          5    1    3    3  502    0  0.21672028213E+02  0.53780993165E+02 -0.13329468056E+02  0.59681125587E+02  0.47000000000E+01 0.  1.
         -5    1    4    4    0  503  0.13580321995E+02 -0.34620001805E+02  0.10502768382E+03  0.11151625012E+03  0.47000000000E+01 0.  1.
          5    1    4    4  503    0 -0.69722264842E+02  0.13267409815E+02  0.25445240223E+03  0.26420698965E+03  0.47000000000E+01 0. -1.
         -5    1    3    3    0  502  0.34469914633E+02 -0.32428401174E+02  0.38524585621E+02  0.61204655990E+02  0.47000000000E+01 0. -1.
<mgrwt>
<rscale>  0 0.11592667E+03</rscale>
<asrwt>0</asrwt>
<pdfrwt beam="1">  1        1 0.67791092E-01 0.11823104E+03</pdfrwt>
<pdfrwt beam="2">  1       -1 0.86102939E-02 0.11823104E+03</pdfrwt>
<totfact> 0.39433896E+03</totfact>
</mgrwt>
</event>
<event>
 8    1  0.5224537E-004  0.1261191E+03  0.7546771E-02  0.1248650E+00
          2   -1    0    0  501    0  0.00000000000E+00  0.00000000000E+00  0.15117483344E+03  0.15117483344E+03  0.00000000000E+00 0. -1.
         -2   -1    0    0    0  501 -0.00000000000E+00 -0.00000000000E+00 -0.31942217256E+03  0.31942217256E+03  0.00000000000E+00 0.  1.
         23    2    1    2    0    0  0.67667574876E+01  0.12783859218E+02 -0.29086862160E+03  0.31703405459E+03  0.12528695334E+03 0.  0.
         23    2    1    2    0    0 -0.67667574876E+01 -0.12783859218E+02  0.12262128248E+03  0.15356295141E+03  0.91303806403E+02 0.  0.
          5    1    4    4  502    0 -0.10144720399E+02 -0.51497516802E+02  0.78889488998E+02  0.94871234118E+02  0.47000000000E+01 0. -1.
         -5    1    3    3    0  503  0.35516005776E+02 -0.41283369494E+02 -0.20016400372E+03  0.20749318458E+03  0.47000000000E+01 0.  1.
          5    1    3    3  503    0 -0.28749248288E+02  0.54067228712E+02 -0.90704617882E+02  0.10954087001E+03  0.47000000000E+01 0. -1.
         -5    1    4    4    0  502  0.33779629109E+01  0.38713657584E+02  0.43731793486E+02  0.58691717290E+02  0.47000000000E+01 0.  1.
<mgrwt>
<rscale>  0 0.11669536E+03</rscale>
<asrwt>0</asrwt>
<pdfrwt beam="1">  1        2 0.23257667E-01 0.12611914E+03</pdfrwt>
<pdfrwt beam="2">  1       -2 0.49141873E-01 0.12611914E+03</pdfrwt>
<totfact> 0.91334398E+02</totfact>
</mgrwt>
</event>
<event>
 7    1  0.5224537E-004  0.1764557E+03  0.7546771E-02  0.1199510E+00
          4   -1    0    0  501    0  0.00000000000E+00  0.00000000000E+00  0.99650260630E+03  0.99650260630E+03  0.00000000000E+00 0. -1.
         -4   -1    0    0    0  501 -0.00000000000E+00 -0.00000000000E+00 -0.26111562705E+02  0.26111562705E+02  0.00000000000E+00 0.  1.
         23    2    1    2    0    0  0.29690826598E+01  0.20811661919E+02  0.65061964980E+03  0.65738770428E+03  0.91710001163E+02 0.  0.
          5    1    1    2  502    0 -0.94461313186E+01 -0.69727185588E+02  0.30566186717E+03  0.31369153136E+03  0.47000000000E+01 0. -1.
         -5    1    1    2    0  502  0.64770486588E+01  0.48915523668E+02  0.14109526630E+02  0.51534933364E+02  0.47000000000E+01 0.  1.
          5    1    3    3  503    0 -0.39366545294E+02 -0.10745732126E+02  0.28358935288E+03  0.28654878592E+03  0.47000000000E+01 0. -1.
         -5    1    3    3    0  503  0.42335627954E+02  0.31557394045E+02  0.36703029692E+03  0.37083891836E+03  0.47000000000E+01 0.  1.
<mgrwt>
<rscale>  0 0.15078602E+03</rscale>
<asrwt>0</asrwt>
<pdfrwt beam="1">  1        4 0.15330806E+00 0.17645573E+03</pdfrwt>
<pdfrwt beam="2">  1       -4 0.40171643E-02 0.17645573E+03</pdfrwt>
<totfact> 0.17829882E+02</totfact>
</mgrwt>
</event>
<event>
 8    1  0.5224537E-004  0.1025796E+03  0.7546771E-02  0.1276431E+00
         -3   -1    0    0    0  501 -0.00000000000E+00  0.00000000000E+00  0.35387832595E+03  0.35387832595E+03  0.00000000000E+00 0.  1.
          3   -1    0    0  501    0  0.00000000000E+00 -0.00000000000E+00 -0.53949512648E+02  0.53949512648E+02  0.00000000000E+00 0. -1.
         23    2    1    2    0    0 -0.28957375036E+01  0.48476867389E+02  0.28773022679E+03  0.30452544575E+03  0.87112982574E+02 0.  0.
         23    2    1    2    0    0  0.28957375036E+01 -0.48476867389E+02  0.12198586512E+02  0.10330239285E+03  0.90355890167E+02 0.  0.
          5    1    3    3  502    0 -0.41911727407E+02  0.93712628702E+01  0.14870716212E+03  0.15485581528E+03  0.47000000000E+01 0. -1.
         -5    1    3    3    0  502  0.39015989904E+02  0.39105604519E+02  0.13902306467E+03  0.14966963046E+03  0.47000000000E+01 0.  1.
          5    1    4    4  503    0 -0.30262597572E+02 -0.42370071419E+01 -0.22160856395E+02  0.38039066727E+02  0.47000000000E+01 0. -1.
         -5    1    4    4    0  503  0.33158335075E+02 -0.44239860247E+02  0.34359442907E+02  0.65263326122E+02  0.47000000000E+01 0.  1.
<mgrwt>
<rscale>  0 0.10186094E+03</rscale>
<asrwt>0</asrwt>
<pdfrwt beam="1">  1        3 0.82999252E-02 0.10257962E+03</pdfrwt>
<pdfrwt beam="2">  1       -3 0.54442818E-01 0.10257962E+03</pdfrwt>
<totfact> 0.74577149E+02</totfact>
</mgrwt>
</event>
<event>
 8    1  0.5224537E-004  0.9928331E+02  0.7546771E-02  0.1282482E+00
          1   -1    0    0  501    0  0.00000000000E+00  0.00000000000E+00  0.15379050149E+03  0.15379050149E+03  0.00000000000E+00 0. -1.
         -1   -1    0    0    0  501 -0.00000000000E+00 -0.00000000000E+00 -0.65881595547E+02  0.65881595547E+02  0.00000000000E+00 0.  1.
         23    2    1    2    0    0 -0.10253390977E+02 -0.32793247402E+02  0.65485363279E+02  0.11788805893E+03  0.91808128906E+02 0.  0.
         23    2    1    2    0    0  0.10253390977E+02  0.32793247402E+02  0.22423542668E+02  0.10178403811E+03  0.93148516071E+02 0.  0.
          5    1    3    3  502    0 -0.37798250127E+02 -0.29830278703E+02  0.19536795549E+01  0.48419625194E+02  0.47000000000E+01 0.  1.
         -5    1    3    3    0  502  0.27544859150E+02 -0.29629686990E+01  0.63531683724E+02  0.69468433737E+02  0.47000000000E+01 0. -1.
          5    1    4    4  503    0  0.46479797892E+02 -0.42412039611E+01  0.14932088773E+02  0.49228210390E+02  0.47000000000E+01 0.  1.
         -5    1    4    4    0  503 -0.36226406915E+02  0.37034451363E+02  0.74914538950E+01  0.52555827719E+02  0.47000000000E+01 0. -1.
<mgrwt>
<rscale>  0 0.98967689E+02</rscale>
<asrwt>0</asrwt>
<pdfrwt beam="1">  1        1 0.23660077E-01 0.99283307E+02</pdfrwt>
<pdfrwt beam="2">  1       -1 0.10135630E-01 0.99283307E+02</pdfrwt>
<totfact> 0.11193397E+04</totfact>
</mgrwt>
</event>
<event>
 8    1  0.5224537E-004  0.1010722E+03  0.7546771E-02  0.1278214E+00
          1   -1    0    0  501    0  0.00000000000E+00  0.00000000000E+00  0.78062144759E+03  0.78062144759E+03  0.00000000000E+00 0. -1.
         -1   -1    0    0    0  501 -0.00000000000E+00 -0.00000000000E+00 -0.14432294233E+02  0.14432294233E+02  0.00000000000E+00 0.  1.
         23    2    1    2    0    0 -0.34936055961E+02 -0.10434248698E+02  0.25943782057E+03  0.27832121888E+03  0.93943156128E+02 0.  0.
         23    2    1    2    0    0  0.34936055961E+02  0.10434248698E+02  0.50675133278E+03  0.51673252294E+03  0.94266565849E+02 0.  0.
          5    1    3    3  502    0  0.29122537976E+02  0.67667664646E+01  0.48667233967E+02  0.57310566291E+02  0.47000000000E+01 0. -1.
         -5    1    4    4    0  503 -0.15284945992E+02  0.32668667059E+02  0.10295665082E+03  0.10919264320E+03  0.47000000000E+01 0.  1.
          5    1    4    4  503    0  0.50221001952E+02 -0.22234418362E+02  0.40379468196E+03  0.40753987974E+03  0.47000000000E+01 0. -1.
         -5    1    3    3    0  502 -0.64058593937E+02 -0.17201015162E+02  0.21077058660E+03  0.22101065259E+03  0.47000000000E+01 0.  1.
<mgrwt>
<rscale>  0 0.10099671E+03</rscale>
<asrwt>0</asrwt>
<pdfrwt beam="1">  1        1 0.12009557E+00 0.10107219E+03</pdfrwt>
<pdfrwt beam="2">  1       -1 0.22203536E-02 0.10107219E+03</pdfrwt>
<totfact> 0.13149351E+04</totfact>
</mgrwt>
</event>
<event>
 8    1  0.5224537E-004  0.1072085E+03  0.7546771E-02  0.1268042E+00
         -2   -1    0    0    0  501 -0.00000000000E+00  0.00000000000E+00  0.33995788000E+02  0.33995788000E+02  0.00000000000E+00 0.  1.
          2   -1    0    0  501    0  0.00000000000E+00 -0.00000000000E+00 -0.35520075217E+03  0.35520075217E+03  0.00000000000E+00 0. -1.
         23    2    1    2    0    0  0.52459796335E+02 -0.13795474517E+02 -0.10609626266E+03  0.15083132255E+03  0.92473377585E+02 0.  0.
         23    2    1    2    0    0 -0.52459796335E+02  0.13795474517E+02 -0.21510870151E+03  0.23836521762E+03  0.87200218803E+02 0.  0.
          5    1    3    3  502    0  0.27854981014E+02 -0.30010576936E+02 -0.11293282561E+03  0.12021833386E+03  0.47000000000E+01 0. -1.
         -5    1    3    3    0  502  0.24604815321E+02  0.16215102420E+02  0.68365629494E+01  0.30612988688E+02  0.47000000000E+01 0.  1.
          5    1    4    4  503    0 -0.63478185070E+01 -0.33467782929E+02 -0.97771672718E+02  0.10364254570E+03  0.47000000000E+01 0. -1.
         -5    1    4    4    0  503 -0.46111977828E+02  0.47263257446E+02 -0.11733702879E+03  0.13472267192E+03  0.47000000000E+01 0.  1.
<mgrwt>
<rscale>  0 0.10606184E+03</rscale>
<asrwt>0</asrwt>
<pdfrwt beam="1">  1        2 0.54646270E-01 0.10720854E+03</pdfrwt>
<pdfrwt beam="2">  1       -2 0.52301212E-02 0.10720854E+03</pdfrwt>
<totfact> 0.15312953E+04</totfact>
</mgrwt>
</event>
<event>
 8    1  0.5224537E-004  0.9821889E+02  0.7546771E-02  0.1285459E+00
          1   -1    0    0  501    0  0.00000000000E+00  0.00000000000E+00  0.21319017055E+03  0.21319017055E+03  0.00000000000E+00 0. -1.
         -1   -1    0    0    0  501 -0.00000000000E+00 -0.00000000000E+00 -0.44112413575E+02  0.44112413575E+02  0.00000000000E+00 0.  1.
         23    2    1    2    0    0  0.95264608352E+01 -0.29342539893E+02  0.87818824296E+02  0.13175392622E+03  0.93248126364E+02 0.  0.
         23    2    1    2    0    0 -0.95264608352E+01  0.29342539893E+02  0.81258932676E+02  0.12554865790E+03  0.90596430713E+02 0.  0.
          5    1    4    4  502    0  0.27340140121E+02  0.36593996646E+02  0.73853187821E+02  0.86965436833E+02  0.47000000000E+01 0. -1.
         -5    1    3    3    0  503  0.22039408707E+01 -0.53547834737E+02  0.17019195773E+02  0.56426686817E+02  0.47000000000E+01 0.  1.
          5    1    3    3  503    0  0.73225199644E+01  0.24205294844E+02  0.70799628523E+02  0.75327239404E+02  0.47000000000E+01 0. -1.
         -5    1    4    4    0  502 -0.36866600957E+02 -0.72514567530E+01  0.74057448556E+01  0.38583221068E+02  0.47000000000E+01 0.  1.
<mgrwt>
<rscale>  0 0.97584303E+02</rscale>
<asrwt>0</asrwt>
<pdfrwt beam="1">  1        1 0.32798487E-01 0.98218894E+02</pdfrwt>
<pdfrwt beam="2">  1       -1 0.67865253E-02 0.98218894E+02</pdfrwt>
<totfact> 0.13623410E+04</totfact>
</mgrwt>
</event>
<event>
 8    1  0.5224537E-004  0.1267486E+03  0.7546771E-02  0.1244306E+00
          1   -1    0    0  501    0  0.00000000000E+00  0.00000000000E+00  0.94571576574E+03  0.94571576574E+03  0.00000000000E+00 0. -1.
         -1   -1    0    0    0  501 -0.00000000000E+00 -0.00000000000E+00 -0.30032902647E+02  0.30032902647E+02  0.00000000000E+00 0.  1.
         23    2    1    2    0    0 -0.14739380457E+02  0.39311384574E+02  0.12218674104E+03  0.17605345758E+03  0.11959341932E+03 0.  0.
         23    2    1    2    0    0  0.14739380457E+02 -0.39311384574E+02  0.79349612205E+03  0.79969521081E+03  0.90076080004E+02 0.  0.
          5    1    4    4  502    0  0.37576507081E+02 -0.57740755084E+02  0.51222851859E+03  0.51686181320E+03  0.47000000000E+01 0. -1.
         -5    1    4    4    0  502 -0.22837126624E+02  0.18429370510E+02  0.28126760346E+03  0.28283339761E+03  0.47000000000E+01 0.  1.
          5    1    3    3  503    0 -0.23116688576E+02 -0.17543607507E+02 -0.10629525125E+02  0.31260778293E+02  0.47000000000E+01 0. -1.
         -5    1    3    3    0  503  0.83773081191E+01  0.56854992081E+02  0.13281626617E+03  0.14479267929E+03  0.47000000000E+01 0.  1.
<mgrwt>
<rscale>  0 0.11927021E+03</rscale>
<asrwt>0</asrwt>
<pdfrwt beam="1">  1        1 0.14549471E+00 0.12674865E+03</pdfrwt>
<pdfrwt beam="2">  1       -1 0.46204473E-02 0.12674865E+03</pdfrwt>
<totfact> 0.34135134E+03</totfact>
</mgrwt>
</event>
<event>
 8    1  0.5224537E-004  0.1638928E+03  0.7546771E-02  0.1184407E+00
          2   -1    0    0  501    0  0.00000000000E+00  0.00000000000E+00  0.22300720377E+02  0.22300720377E+02  0.00000000000E+00 0. -1.
         -2   -1    0    0    0  501 -0.00000000000E+00 -0.00000000000E+00 -0.12066319186E+04  0.12066319186E+04  0.00000000000E+00 0.  1.
         23    2    1    2    0    0  0.86239542428E+01  0.13578089031E+03 -0.62314424848E+03  0.64430316060E+03  0.91142666065E+02 0.  0.
         23    2    1    2    0    0 -0.86239542428E+01 -0.13578089031E+03 -0.56118694970E+03  0.58462947834E+03  0.91378398284E+02 0.  0.
          5    1    4    4  502    0  0.21246534955E+02 -0.39263169569E+02 -0.70145631852E+02  0.83279717820E+02  0.47000000000E+01 0. -1.
         -5    1    4    4    0  502 -0.29870489198E+02 -0.96517720737E+02 -0.49104131785E+03  0.50134976052E+03  0.47000000000E+01 0.  1.
          5    1    3    3  503    0  0.35078080184E+02  0.11377408588E+03 -0.36807327445E+03  0.38687858521E+03  0.47000000000E+01 0. -1.
         -5    1    3    3    0  503 -0.26454125941E+02  0.22006804427E+02 -0.25507097403E+03  0.25742457539E+03  0.47000000000E+01 0.  1.
<mgrwt>
<rscale>  0 0.16385991E+03</rscale>
<asrwt>0</asrwt>
<pdfrwt beam="1">  1        2 0.34308802E-02 0.16389275E+03</pdfrwt>
<pdfrwt beam="2">  1       -2 0.18563567E+00 0.16389275E+03</pdfrwt>
<totfact> 0.45942895E+02</totfact>
</mgrwt>
</event>
<event>
 8    1  0.5224537E-004  0.1246799E+03  0.7546771E-02  0.1235661E+00
         -2   -1    0    0    0  501 -0.00000000000E+00  0.00000000000E+00  0.17429144194E+02  0.17429144194E+02  0.00000000000E+00 0.  1.
          2   -1    0    0  501    0  0.00000000000E+00 -0.00000000000E+00 -0.96823177564E+03  0.96823177564E+03  0.00000000000E+00 0. -1.
         23    2    1    2    0    0  0.85078709509E+02 -0.42982121535E+01 -0.33513748554E+03  0.35749800321E+03  0.90723903394E+02 0.  0.
         23    2    1    2    0    0 -0.85078709509E+02  0.42982121535E+01 -0.61566514591E+03  0.62816291662E+03  0.91039642441E+02 0.  0.
          5    1    4    4  502    0 -0.66492960742E+02  0.43536731048E+02 -0.44040106644E+03  0.44753988660E+03  0.47000000000E+01 0. -1.
         -5    1    3    3    0  503  0.42818469532E+02  0.31552793050E+01 -0.38883615824E+02  0.58115425664E+02  0.47000000000E+01 0.  1.
          5    1    3    3  503    0  0.42260239977E+02 -0.74534914585E+01 -0.29625386971E+03  0.29938257755E+03  0.47000000000E+01 0. -1.
         -5    1    4    4    0  502 -0.18585748767E+02 -0.39238518895E+02 -0.17526407947E+03  0.18062303002E+03  0.47000000000E+01 0.  1.
<mgrwt>
<rscale>  0 0.12462227E+03</rscale>
<asrwt>0</asrwt>
<pdfrwt beam="1">  1        2 0.14895874E+00 0.12467990E+03</pdfrwt>
<pdfrwt beam="2">  1       -2 0.26814066E-02 0.12467990E+03</pdfrwt>
<totfact> 0.13127534E+04</totfact>
</mgrwt>
</event>
<event>
 8    1  0.5224537E-004  0.1746778E+03  0.7546771E-02  0.1173157E+00
         -2   -1    0    0    0  501 -0.00000000000E+00  0.00000000000E+00  0.24315586560E+02  0.24315586560E+02  0.00000000000E+00 0.  1.
          2   -1    0    0  501    0  0.00000000000E+00 -0.00000000000E+00 -0.13799457663E+04  0.13799457663E+04  0.00000000000E+00 0. -1.
         23    2    1    2    0    0  0.11835120016E+03 -0.89921763680E+02 -0.89234420172E+03  0.90928021072E+03  0.91757272755E+02 0.  0.
         23    2    1    2    0    0 -0.11835120016E+03  0.89921763680E+02 -0.46328597800E+03  0.49498114211E+03  0.90991776978E+02 0.  0.
          5    1    3    3  502    0  0.11566098538E+03 -0.47857020029E+02 -0.76152164190E+03  0.77175453285E+03  0.47000000000E+01 0. -1.
         -5    1    4    4    0  503 -0.11290043239E+03  0.47563575808E+02 -0.40092914570E+03  0.41925537712E+03  0.47000000000E+01 0.  1.
          5    1    4    4  503    0 -0.54507677732E+01  0.42358187871E+02 -0.62356832298E+02  0.75725764990E+02  0.47000000000E+01 0. -1.
         -5    1    3    3    0  502  0.26902147816E+01 -0.42064743650E+02 -0.13082255983E+03  0.13752567787E+03  0.47000000000E+01 0.  1.
<mgrwt>
<rscale>  0 0.17457747E+03</rscale>
<asrwt>0</asrwt>
<pdfrwt beam="1">  1        2 0.21229930E+00 0.17467778E+03</pdfrwt>
<pdfrwt beam="2">  1       -2 0.37408603E-02 0.17467778E+03</pdfrwt>
<totfact> 0.47765819E+03</totfact>
</mgrwt>
</event>
<event>
 8    1  0.5224537E-004  0.1041349E+03  0.7546771E-02  0.1271972E+00
         -1   -1    0    0    0  501 -0.00000000000E+00  0.00000000000E+00  0.87063652453E+02  0.87063652453E+02  0.00000000000E+00 0.  1.
          1   -1    0    0  501    0  0.00000000000E+00 -0.00000000000E+00 -0.12589160971E+03  0.12589160971E+03  0.00000000000E+00 0. -1.
         23    2    1    2    0    0 -0.34939645075E+02  0.43936844561E+02 -0.31652126292E+02  0.10857343130E+03  0.87379103775E+02 0.  0.
         23    2    1    2    0    0  0.34939645075E+02 -0.43936844561E+02 -0.71758309688E+01  0.10438183087E+03  0.87708887565E+02 0.  0.
          5    1    4    4  502    0  0.42001443839E+02  0.82547085811E+01  0.16928862951E+02  0.46270270144E+02  0.47000000000E+01 0. -1.
         -5    1    3    3    0  503  0.25089776066E+02 -0.52346020113E+01 -0.63517328613E+01  0.26820373443E+02  0.47000000000E+01 0.  1.
          5    1    3    3  503    0 -0.60029421141E+02  0.49171446572E+02 -0.25300393430E+02  0.81753057853E+02  0.47000000000E+01 0. -1.
         -5    1    4    4    0  502 -0.70617987640E+01 -0.52191553142E+02 -0.24104693920E+02  0.58111560727E+02  0.47000000000E+01 0.  1.
<mgrwt>
<rscale>  0 0.10406541E+03</rscale>
<asrwt>0</asrwt>
<pdfrwt beam="1">  1        1 0.19367940E-01 0.10413488E+03</pdfrwt>
<pdfrwt beam="2">  1       -1 0.13394408E-01 0.10413488E+03</pdfrwt>
<totfact> 0.94373160E+03</totfact>
</mgrwt>
</event>
<event>
 8    1  0.5224537E-004  0.9636731E+02  0.7546771E-02  0.1289125E+00
          1   -1    0    0  501    0  0.00000000000E+00  0.00000000000E+00  0.13589969272E+03  0.13589969272E+03  0.00000000000E+00 0. -1.
         -1   -1    0    0    0  501 -0.00000000000E+00 -0.00000000000E+00 -0.18594493950E+03  0.18594493950E+03  0.00000000000E+00 0.  1.
         23    2    1    2    0    0  0.22334442731E+02 -0.18376475725E+02 -0.15360296215E+03  0.18038489248E+03  0.90046195149E+02 0.  0.
         23    2    1    2    0    0 -0.22334442731E+02  0.18376475725E+02  0.10355771536E+03  0.14145973974E+03  0.91924617839E+02 0.  0.
          5    1    3    3  502    0 -0.34854484034E+02 -0.98862867054E+01 -0.61849987428E+02  0.71833729313E+02  0.47000000000E+01 0. -1.
         -5    1    3    3    0  502  0.57188926765E+02 -0.84901890196E+01 -0.91752974720E+02  0.10855116316E+03  0.47000000000E+01 0.  1.
          5    1    4    4  503    0 -0.57995110664E+02  0.10211369445E+02  0.69983238238E+02  0.91583014588E+02  0.47000000000E+01 0. -1.
         -5    1    4    4    0  503  0.35660667932E+02  0.81651062797E+01  0.33574477126E+02  0.49876725156E+02  0.47000000000E+01 0.  1.
<mgrwt>
<rscale>  0 0.95916618E+02</rscale>
<asrwt>0</asrwt>
<pdfrwt beam="1">  1        1 0.20907645E-01 0.96367305E+02</pdfrwt>
<pdfrwt beam="2">  1       -1 0.28606914E-01 0.96367305E+02</pdfrwt>
<totfact> 0.25459174E+03</totfact>
</mgrwt>
</event>
<event>
 8    1  0.5224537E-004  0.9694764E+02  0.7546771E-02  0.1286887E+00
         -1   -1    0    0    0  501 -0.00000000000E+00  0.00000000000E+00  0.28462174830E+02  0.28462174830E+02  0.00000000000E+00 0.  1.
          1   -1    0    0  501    0  0.00000000000E+00 -0.00000000000E+00 -0.38518828048E+03  0.38518828048E+03  0.00000000000E+00 0. -1.
         23    2    1    2    0    0  0.79816233565E+01  0.20879166363E+02 -0.10012144761E+03  0.13936695545E+03  0.94335561166E+02 0.  0.
         23    2    1    2    0    0 -0.79816233565E+01 -0.20879166363E+02 -0.25660465804E+03  0.27428349986E+03  0.94264743503E+02 0.  0.
          5    1    4    4  502    0  0.12590908354E+02 -0.52096631167E+02 -0.10396368252E+03  0.11706035723E+03  0.47000000000E+01 0. -1.
         -5    1    4    4    0  502 -0.20572531710E+02  0.31217464804E+02 -0.15264097553E+03  0.15722314263E+03  0.47000000000E+01 0.  1.
          5    1    3    3  503    0  0.49384486927E+02  0.23086427335E+02 -0.49701709027E+02  0.73919960473E+02  0.47000000000E+01 0. -1.
         -5    1    3    3    0  503 -0.41402863570E+02 -0.22072609716E+01 -0.50419738581E+02  0.65446994976E+02  0.47000000000E+01 0.  1.
<mgrwt>
<rscale>  0 0.96930404E+02</rscale>
<asrwt>0</asrwt>
<pdfrwt beam="1">  1        1 0.59259731E-01 0.96947635E+02</pdfrwt>
<pdfrwt beam="2">  1       -1 0.43787964E-02 0.96947635E+02</pdfrwt>
<totfact> 0.12545329E+04</totfact>
</mgrwt>
</event>
<event>
 8    1  0.5224537E-004  0.9791272E+02  0.7546771E-02  0.1286008E+00
          1   -1    0    0  501    0  0.00000000000E+00  0.00000000000E+00  0.69909764621E+02  0.69909764621E+02  0.00000000000E+00 0. -1.
         -1   -1    0    0    0  501 -0.00000000000E+00 -0.00000000000E+00 -0.13502008546E+03  0.13502008546E+03  0.00000000000E+00 0.  1.
         23    2    1    2    0    0 -0.32557683866E+02  0.19817884241E+02 -0.23723462507E+02  0.10074573964E+03  0.90189523050E+02 0.  0.
         23    2    1    2    0    0  0.32557683866E+02 -0.19817884241E+02 -0.41386858337E+02  0.10418411044E+03  0.87685263937E+02 0.  0.
          5    1    3    3  502    0 -0.57457241868E+02 -0.80807630283E+01 -0.43644346755E+01  0.58376122381E+02  0.47000000000E+01 0. -1.
         -5    1    3    3    0  502  0.24899558003E+02  0.27898647269E+02 -0.19359027831E+02  0.42369617260E+02  0.47000000000E+01 0.  1.
          5    1    4    4  503    0 -0.29454827146E+02 -0.11039814532E+02 -0.21159309396E+02  0.38200402108E+02  0.47000000000E+01 0. -1.
         -5    1    4    4    0  503  0.62012511011E+02 -0.87780697084E+01 -0.20227548941E+02  0.65983708337E+02  0.47000000000E+01 0.  1.
<mgrwt>
<rscale>  0 0.97332140E+02</rscale>
<asrwt>0</asrwt>
<pdfrwt beam="1">  1        1 0.10755348E-01 0.97912723E+02</pdfrwt>
<pdfrwt beam="2">  1       -1 0.20772321E-01 0.97912723E+02</pdfrwt>
<totfact> 0.10045739E+04</totfact>
</mgrwt>
</event>
<event>
 8    1  0.5224537E-004  0.9169743E+02  0.7546771E-02  0.1299063E+00
          2   -1    0    0  501    0  0.00000000000E+00  0.00000000000E+00  0.60325465637E+03  0.60325465637E+03  0.00000000000E+00 0. -1.
         -2   -1    0    0    0  501 -0.00000000000E+00 -0.00000000000E+00 -0.13877743136E+02  0.13877743136E+02  0.00000000000E+00 0.  1.
         23    2    1    2    0    0 -0.73857172978E+01 -0.75860121658E+01  0.30162814024E+03  0.31512614982E+03  0.90624825037E+02 0.  0.
         23    2    1    2    0    0  0.73857172978E+01  0.75860121658E+01  0.28774877299E+03  0.30200624969E+03  0.91084148411E+02 0.  0.
          5    1    4    4  502    0 -0.36644619166E+02 -0.20238530978E+00  0.65006304200E+02  0.74771509677E+02  0.47000000000E+01 0. -1.
         -5    1    4    4    0  502  0.44030336464E+02  0.77883974756E+01  0.22274246879E+03  0.22723474001E+03  0.47000000000E+01 0.  1.
          5    1    3    3  503    0  0.87252918727E+00  0.39753913841E+02  0.17698250028E+03  0.18145531235E+03  0.47000000000E+01 0. -1.
         -5    1    3    3    0  503 -0.82582464851E+01 -0.47339926007E+02  0.12464563996E+03  0.13367083747E+03  0.47000000000E+01 0.  1.
<mgrwt>
<rscale>  0 0.91583157E+02</rscale>
<asrwt>0</asrwt>
<pdfrwt beam="1">  1        2 0.92808388E-01 0.91697429E+02</pdfrwt>
<pdfrwt beam="2">  1       -2 0.21350379E-02 0.91697429E+02</pdfrwt>
<totfact> 0.31649309E+04</totfact>
</mgrwt>
</event>
<event>
 8    1  0.5224537E-004  0.9009254E+02  0.7546771E-02  0.1303173E+00
         -1   -1    0    0    0  501 -0.00000000000E+00  0.00000000000E+00  0.24720370328E+03  0.24720370328E+03  0.00000000000E+00 0.  1.
          1   -1    0    0  501    0  0.00000000000E+00 -0.00000000000E+00 -0.20092657294E+03  0.20092657294E+03  0.00000000000E+00 0. -1.
         23    2    1    2    0    0  0.16672129277E+02 -0.14483102251E+02  0.22829698513E+03  0.24543060097E+03  0.87343839679E+02 0.  0.
         23    2    1    2    0    0 -0.16672129277E+02  0.14483102251E+02 -0.18201985479E+03  0.20269967524E+03  0.86418809631E+02 0.  0.
          5    1    3    3  502    0 -0.22515185541E+02  0.24133588254E+02  0.10879135315E+03  0.11378493829E+03  0.47000000000E+01 0. -1.
         -5    1    3    3    0  502  0.39187314818E+02 -0.38616690505E+02  0.11950563198E+03  0.13164566268E+03  0.47000000000E+01 0.  1.
          5    1    4    4  503    0 -0.46104802220E+02  0.23622578770E+02 -0.14638660141E+03  0.15535380938E+03  0.47000000000E+01 0. -1.
         -5    1    4    4    0  503  0.29432672943E+02 -0.91394765189E+01 -0.35633253378E+02  0.47345865859E+02  0.47000000000E+01 0.  1.
<mgrwt>
<rscale>  0 0.89867573E+02</rscale>
<asrwt>0</asrwt>
<pdfrwt beam="1">  1        1 0.30911780E-01 0.90092544E+02</pdfrwt>
<pdfrwt beam="2">  1       -1 0.38031339E-01 0.90092544E+02</pdfrwt>
<totfact> 0.96781889E+02</totfact>
</mgrwt>
</event>
<event>
 7    1  0.5224537E-004  0.1822936E+03  0.7546771E-02  0.1195175E+00
         -1   -1    0    0    0  501 -0.00000000000E+00  0.00000000000E+00  0.42493388779E+02  0.42493388779E+02  0.00000000000E+00 0.  1.
          1   -1    0    0  501    0  0.00000000000E+00 -0.00000000000E+00 -0.72620346030E+03  0.72620346030E+03  0.00000000000E+00 0. -1.
         23    2    1    2    0    0 -0.24833286315E+02 -0.47949299350E+01 -0.50421484740E+03  0.51286589855E+03  0.90327925338E+02 0.  0.
          5    1    3    3  502    0 -0.37575965022E+02 -0.40579767333E+02 -0.29296480073E+03  0.29817634904E+03  0.47000000000E+01 0. -1.
         -5    1    1    2    0  503  0.35209618824E+02 -0.84286552145E+02 -0.10407675984E+03  0.13855685501E+03  0.47000000000E+01 0.  1.
          5    1    1    2  503    0 -0.10376332510E+02  0.89081482080E+02 -0.75418464276E+02  0.11727409552E+03  0.47000000000E+01 0. -1.
         -5    1    3    3    0  502  0.12742678708E+02  0.35784837398E+02 -0.21125004667E+03  0.21468954950E+03  0.47000000000E+01 0.  1.
<mgrwt>
<rscale>  0 0.15439439E+03</rscale>
<asrwt>0</asrwt>
<pdfrwt beam="1">  1        1 0.11172362E+00 0.18229355E+03</pdfrwt>
<pdfrwt beam="2">  1       -1 0.65374440E-02 0.18229355E+03</pdfrwt>
<totfact> 0.30922720E+03</totfact>
</mgrwt>
</event>
<event>
 8    1  0.5224537E-004  0.1133844E+03  0.7546771E-02  0.1254678E+00
          2   -1    0    0  501    0  0.00000000000E+00  0.00000000000E+00  0.14347799924E+03  0.14347799924E+03  0.00000000000E+00 0. -1.
         -2   -1    0    0    0  501 -0.00000000000E+00 -0.00000000000E+00 -0.95287871801E+02  0.95287871801E+02  0.00000000000E+00 0.  1.
         23    2    1    2    0    0 -0.36734304538E+02  0.55363264567E+02  0.54312173858E+02  0.12521630540E+03  0.91185583921E+02 0.  0.
         23    2    1    2    0    0  0.36734304538E+02 -0.55363264567E+02 -0.61220464222E+01  0.11354956564E+03  0.91877767773E+02 0.  0.
          5    1    4    4  502    0  0.22434497950E+02  0.20233646725E+02 -0.18119867390E+02  0.35540494542E+02  0.47000000000E+01 0. -1.
         -5    1    4    4    0  502  0.14299806588E+02 -0.75596911292E+02  0.11997820968E+02  0.78009071097E+02  0.47000000000E+01 0.  1.
          5    1    3    3  503    0  0.20185506603E+02 -0.10591906344E+02  0.17079762354E+01  0.23337744956E+02  0.47000000000E+01 0.  1.
         -5    1    3    3    0  503 -0.56919811141E+02  0.65955170911E+02  0.52604197623E+02  0.10187856044E+03  0.47000000000E+01 0. -1.
<mgrwt>
<rscale>  0 0.11324411E+03</rscale>
<asrwt>0</asrwt>
<pdfrwt beam="1">  1        2 0.22073538E-01 0.11338441E+03</pdfrwt>
<pdfrwt beam="2">  1       -2 0.14659673E-01 0.11338441E+03</pdfrwt>
<totfact> 0.82111460E+03</totfact>
</mgrwt>
</event>
<event>
 8    1  0.5224537E-004  0.1265839E+03  0.7546771E-02  0.1233441E+00
          2   -1    0    0  501    0  0.00000000000E+00  0.00000000000E+00  0.68486587065E+03  0.68486587065E+03  0.00000000000E+00 0. -1.
         -2   -1    0    0    0  501 -0.00000000000E+00 -0.00000000000E+00 -0.33045042148E+02  0.33045042148E+02  0.00000000000E+00 0.  1.
         23    2    1    2    0    0  0.70104738290E+02  0.43232806956E+02  0.12997459734E+03  0.18143009948E+03  0.96123540902E+02 0.  0.
         23    2    1    2    0    0 -0.70104738290E+02 -0.43232806956E+02  0.52184623117E+03  0.53648081332E+03  0.93297503457E+02 0.  0.
          5    1    3    3  502    0  0.70003759887E+02  0.69030311408E+02  0.11446782543E+03  0.15096583504E+03  0.47000000000E+01 0. -1.
         -5    1    3    3    0  502  0.10097840305E+00 -0.25797504452E+02  0.15506771909E+02  0.30464264436E+02  0.47000000000E+01 0.  1.
          5    1    4    4  503    0 -0.11783221977E+02  0.28604647913E+02  0.15390086539E+03  0.15704979010E+03  0.47000000000E+01 0. -1.
         -5    1    4    4    0  503 -0.58321516313E+02 -0.71837454869E+02  0.36794536577E+03  0.37943102322E+03  0.47000000000E+01 0.  1.
<mgrwt>
<rscale>  0 0.12604740E+03</rscale>
<asrwt>0</asrwt>
<pdfrwt beam="1">  1        2 0.10536397E+00 0.12658391E+03</pdfrwt>
<pdfrwt beam="2">  1       -2 0.50838532E-02 0.12658391E+03</pdfrwt>
<totfact> 0.78714962E+03</totfact>
</mgrwt>
</event>
<event>
 8    1  0.5224537E-004  0.1244713E+03  0.7546771E-02  0.1239481E+00
          1   -1    0    0  501    0  0.00000000000E+00  0.00000000000E+00  0.74059485225E+03  0.74059485225E+03  0.00000000000E+00 0. -1.
         -1   -1    0    0    0  501 -0.00000000000E+00 -0.00000000000E+00 -0.19691016573E+02  0.19691016573E+02  0.00000000000E+00 0.  1.
         23    2    1    2    0    0  0.75339172000E+02  0.18393931790E+02  0.33341452089E+03  0.35589093786E+03  0.97359074289E+02 0.  0.
         23    2    1    2    0    0 -0.75339172000E+02 -0.18393931790E+02  0.38748931479E+03  0.40439493096E+03  0.85865962696E+02 0.  0.
          5    1    4    4  502    0 -0.23224178308E+02  0.34072624431E+02  0.13107257527E+03  0.13748605814E+03  0.47000000000E+01 0. -1.
         -5    1    4    4    0  502 -0.52114993693E+02 -0.52466556221E+02  0.25641673951E+03  0.26690887282E+03  0.47000000000E+01 0.  1.
          5    1    3    3  503    0  0.89838171672E+02  0.35683540398E+02  0.30056514241E+03  0.31576210504E+03  0.47000000000E+01 0. -1.
         -5    1    3    3    0  503 -0.14498999672E+02 -0.17289608608E+02  0.32849378476E+02  0.40128832821E+02  0.47000000000E+01 0.  1.
<mgrwt>
<rscale>  0 0.12221898E+03</rscale>
<asrwt>0</asrwt>
<pdfrwt beam="1">  1        1 0.11393765E+00 0.12447135E+03</pdfrwt>
<pdfrwt beam="2">  1       -1 0.30293877E-02 0.12447135E+03</pdfrwt>
<totfact> 0.92045209E+03</totfact>
</mgrwt>
</event>
<event>
 8    1  0.5224537E-004  0.9356310E+02  0.7546771E-02  0.1294473E+00
         -1   -1    0    0    0  501 -0.00000000000E+00  0.00000000000E+00  0.98927691706E+02  0.98927691706E+02  0.00000000000E+00 0.  1.
          1   -1    0    0  501    0  0.00000000000E+00 -0.00000000000E+00 -0.98579920907E+02  0.98579920907E+02  0.00000000000E+00 0. -1.
         23    2    1    2    0    0  0.93249203058E+01  0.15429236338E+01 -0.31491845234E+02  0.98675352957E+02  0.93036305886E+02 0.  0.
         23    2    1    2    0    0 -0.93249203058E+01 -0.15429236338E+01  0.31839616033E+02  0.98832259656E+02  0.93084475867E+02 0.  0.
          5    1    3    3  502    0 -0.38091194420E+02 -0.88550990828E+01  0.21191757378E+01  0.39445313764E+02  0.47000000000E+01 0. -1.
         -5    1    4    4    0  503 -0.32640128969E+02  0.33534664893E+02  0.21400251605E+01  0.47081009721E+02  0.47000000000E+01 0.  1.
          5    1    4    4  503    0  0.23315208664E+02 -0.35077588527E+02  0.29699590873E+02  0.51751249935E+02  0.47000000000E+01 0. -1.
         -5    1    3    3    0  502  0.47416114726E+02  0.10398022717E+02 -0.33611020971E+02  0.59230039193E+02  0.47000000000E+01 0.  1.
<mgrwt>
<rscale>  0 0.93551121E+02</rscale>
<asrwt>0</asrwt>
<pdfrwt beam="1">  1        1 0.15166142E-01 0.93563104E+02</pdfrwt>
<pdfrwt beam="2">  1       -1 0.15219645E-01 0.93563104E+02</pdfrwt>
<totfact> 0.10465974E+04</totfact>
</mgrwt>
</event>
<event>
 8    1  0.5224537E-004  0.3752660E+03  0.7546771E-02  0.1052766E+00
         -2   -1    0    0    0  501 -0.00000000000E+00  0.00000000000E+00  0.14608980290E+03  0.14608980290E+03  0.00000000000E+00 0. -1.
          2   -1    0    0  501    0  0.00000000000E+00 -0.00000000000E+00 -0.14084478875E+04  0.14084478875E+04  0.00000000000E+00 0.  1.
         23    2    1    2    0    0 -0.58035198058E+01 -0.36347936459E+03 -0.19318361370E+03  0.42141871223E+03  0.90127094105E+02 0.  0.
         23    2    1    2    0    0  0.58035198058E+01  0.36347936459E+03 -0.10691744709E+04  0.11331189782E+04  0.93132379622E+02 0.  0.
          5    1    4    4  502    0  0.28811886261E+02  0.47738687203E+02 -0.21470662378E+03  0.22187864102E+03  0.47000000000E+01 0. -1.
         -5    1    4    4    0  502 -0.23008366455E+02  0.31574067739E+03 -0.85446784717E+03  0.91124033720E+03  0.47000000000E+01 0.  1.
          5    1    3    3  503    0  0.40142505881E+02 -0.20899067678E+03 -0.11981427016E+03  0.24426639780E+03  0.47000000000E+01 0. -1.
         -5    1    3    3    0  503 -0.45946025687E+02 -0.15448868781E+03 -0.73369343544E+02  0.17715231444E+03  0.47000000000E+01 0.  1.
<mgrwt>
<rscale>  0 0.37508223E+03</rscale>
<asrwt>0</asrwt>
<pdfrwt beam="1">  1        2 0.21668430E+00 0.37526600E+03</pdfrwt>
<pdfrwt beam="2">  1       -2 0.22475353E-01 0.37526600E+03</pdfrwt>
<totfact> 0.26032308E+02</totfact>
</mgrwt>
</event>
<event>
 8    1  0.5224537E-004  0.9118472E+02  0.7546771E-02  0.1300251E+00
          1   -1    0    0  501    0  0.00000000000E+00  0.00000000000E+00  0.14314148371E+03  0.14314148371E+03  0.00000000000E+00 0. -1.
         -1   -1    0    0    0  501 -0.00000000000E+00 -0.00000000000E+00 -0.64021674276E+02  0.64021674276E+02  0.00000000000E+00 0.  1.
         23    2    1    2    0    0  0.68632232426E+01  0.45326756285E+01  0.72610818094E+01  0.91066944655E+02  0.90403628899E+02 0.  0.
         23    2    1    2    0    0 -0.68632232426E+01 -0.45326756285E+01  0.71858727620E+02  0.11609621333E+03  0.90813022371E+02 0.  0.
          5    1    4    4  502    0 -0.31592634223E+02  0.32803749067E+02  0.30999805637E+02  0.55292480859E+02  0.47000000000E+01 0. -1.
         -5    1    4    4    0  502  0.24729410981E+02 -0.37336424695E+02  0.40858921983E+02  0.60803732468E+02  0.47000000000E+01 0.  1.
          5    1    3    3  503    0 -0.83982733178E+01  0.18745255482E+02  0.43873004916E+02  0.48670793687E+02  0.47000000000E+01 0. -1.
         -5    1    3    3    0  503  0.15261496560E+02 -0.14212579853E+02 -0.36611923106E+02  0.42396150968E+02  0.47000000000E+01 0.  1.
<mgrwt>
<rscale>  0 0.91082624E+02</rscale>
<asrwt>0</asrwt>
<pdfrwt beam="1">  1        1 0.22021767E-01 0.91184725E+02</pdfrwt>
<pdfrwt beam="2">  1       -1 0.98494884E-02 0.91184725E+02</pdfrwt>
<totfact> 0.12681500E+04</totfact>
</mgrwt>
</event>
<event>
 8    1  0.5224537E-004  0.9295634E+02  0.7546771E-02  0.1296651E+00
         -3   -1    0    0    0  501 -0.00000000000E+00  0.00000000000E+00  0.11047649393E+03  0.11047649393E+03  0.00000000000E+00 0.  1.
          3   -1    0    0  501    0  0.00000000000E+00 -0.00000000000E+00 -0.88554523503E+02  0.88554523503E+02  0.00000000000E+00 0. -1.
         23    2    1    2    0    0  0.10986908166E+02 -0.58830502656E+01  0.46742069368E+02  0.10281813297E+03  0.90727200922E+02 0.  0.
         23    2    1    2    0    0 -0.10986908166E+02  0.58830502656E+01 -0.24820098938E+02  0.96212884466E+02  0.92117096103E+02 0.  0.
          5    1    4    4  502    0 -0.26855903541E+02 -0.27628285661E+02 -0.40123255280E+02  0.55825866207E+02  0.47000000000E+01 0. -1.
         -5    1    3    3    0  503  0.40969857163E+02  0.21160766952E+02  0.87330233218E+01  0.47166332805E+02  0.47000000000E+01 0.  1.
          5    1    3    3  503    0 -0.29982948997E+02 -0.27043817217E+02  0.38009046046E+02  0.55651800165E+02  0.47000000000E+01 0. -1.
         -5    1    4    4    0  502  0.15868995374E+02  0.33511335926E+02  0.15303156342E+02  0.40387018258E+02  0.47000000000E+01 0.  1.
<mgrwt>
<rscale>  0 0.92610125E+02</rscale>
<asrwt>0</asrwt>
<pdfrwt beam="1">  1        3 0.13623773E-01 0.92956344E+02</pdfrwt>
<pdfrwt beam="2">  1       -3 0.16996383E-01 0.92956344E+02</pdfrwt>
<totfact> 0.27772564E+03</totfact>
</mgrwt>
</event>
<event>
 8    1  0.5224537E-004  0.9694424E+02  0.7546771E-02  0.1288652E+00
         -4   -1    0    0    0  501 -0.00000000000E+00  0.00000000000E+00  0.15723348699E+02  0.15723348699E+02  0.00000000000E+00 0.  1.
          4   -1    0    0  501    0  0.00000000000E+00 -0.00000000000E+00 -0.80953254966E+03  0.80953254966E+03  0.00000000000E+00 0. -1.
         23    2    1    2    0    0  0.16982779804E+02  0.27251100478E+02 -0.17149413181E+03  0.19543510608E+03  0.88054563509E+02 0.  0.
         23    2    1    2    0    0 -0.16982779804E+02 -0.27251100478E+02 -0.62231506915E+03  0.62982079228E+03  0.91472114943E+02 0.  0.
          5    1    4    4  502    0 -0.10850058449E+02 -0.55433624300E+02 -0.52922817252E+03  0.53225478773E+03  0.47000000000E+01 0. -1.
         -5    1    3    3    0  503  0.47835873342E+02  0.69153861655E+01 -0.56205542897E+02  0.74278169044E+02  0.47000000000E+01 0.  1.
          5    1    3    3  503    0 -0.30853093538E+02  0.20335714313E+02 -0.11528858892E+03  0.12115693703E+03  0.47000000000E+01 0. -1.
         -5    1    4    4    0  502 -0.61327213552E+01  0.28182523822E+02 -0.93086896627E+02  0.97566004550E+02  0.47000000000E+01 0.  1.
<mgrwt>
<rscale>  0 0.96129573E+02</rscale>
<asrwt>0</asrwt>
<pdfrwt beam="1">  1        4 0.12454347E+00 0.96944237E+02</pdfrwt>
<pdfrwt beam="2">  1       -4 0.24189767E-02 0.96944237E+02</pdfrwt>
<totfact> 0.59350874E+02</totfact>
</mgrwt>
</event>
<event>
 8    1  0.5224537E-004  0.1005234E+03  0.7546771E-02  0.1290137E+00
          1   -1    0    0  501    0  0.00000000000E+00  0.00000000000E+00  0.10178972156E+03  0.10178972156E+03  0.00000000000E+00 0. -1.
         -1   -1    0    0    0  501 -0.00000000000E+00 -0.00000000000E+00 -0.10724628338E+03  0.10724628338E+03  0.00000000000E+00 0.  1.
         23    2    1    2    0    0  0.21222783985E+02 -0.33469352500E+02 -0.53412310196E+02  0.97659540189E+02  0.71511585024E+02 0.  0.
         23    2    1    2    0    0 -0.21222783985E+02  0.33469352500E+02  0.47955748382E+02  0.11137646475E+03  0.92381594387E+02 0.  0.
          5    1    4    4  502    0 -0.35841199595E+02  0.59864056099E+02  0.35076362880E+02  0.78235145771E+02  0.47000000000E+01 0. -1.
         -5    1    3    3    0  503 -0.20784502494E+02  0.20305277722E+01 -0.82661605471E+00  0.21421761857E+02  0.47000000000E+01 0. -1.
          5    1    3    3  503    0  0.42007286479E+02 -0.35499880272E+02 -0.52585694141E+02  0.76237778332E+02  0.47000000000E+01 0.  1.
         -5    1    4    4    0  502  0.14618415610E+02 -0.26394703599E+02  0.12879385502E+02  0.33141318983E+02  0.47000000000E+01 0.  1.
<mgrwt>
<rscale>  0 0.95462813E+02</rscale>
<asrwt>0</asrwt>
<pdfrwt beam="1">  1        1 0.15659957E-01 0.10052345E+03</pdfrwt>
<pdfrwt beam="2">  1       -1 0.16499428E-01 0.10052345E+03</pdfrwt>
<totfact> 0.89145106E+03</totfact>
</mgrwt>
</event>
<event>
 8    1  0.5224537E-004  0.1113605E+03  0.7546771E-02  0.1258673E+00
          1   -1    0    0  501    0  0.00000000000E+00  0.00000000000E+00  0.97718604432E+03  0.97718604432E+03  0.00000000000E+00 0. -1.
         -1   -1    0    0    0  501 -0.00000000000E+00 -0.00000000000E+00 -0.13383486110E+02  0.13383486110E+02  0.00000000000E+00 0.  1.
         23    2    1    2    0    0  0.34585690410E+02 -0.48181569436E+02  0.60345579320E+03  0.61340781570E+03  0.92696388280E+02 0.  0.
         23    2    1    2    0    0 -0.34585690410E+02  0.48181569436E+02  0.36034676501E+03  0.37716171473E+03  0.94252503365E+02 0.  0.
          5    1    4    4  502    0 -0.65944371383E+02  0.33141811932E+02  0.20591345453E+03  0.21879095176E+03  0.47000000000E+01 0.  1.
         -5    1    4    4    0  502  0.31358680973E+02  0.15039757504E+02  0.15443331048E+03  0.15837076297E+03  0.47000000000E+01 0. -1.
          5    1    3    3  503    0  0.53718451106E+02 -0.30994490763E+01  0.20780351516E+03  0.21470833585E+03  0.47000000000E+01 0. -1.
         -5    1    3    3    0  503 -0.19132760696E+02 -0.45082120360E+02  0.39565227805E+03  0.39869947985E+03  0.47000000000E+01 0.  1.
<mgrwt>
<rscale>  0 0.11103059E+03</rscale>
<asrwt>0</asrwt>
<pdfrwt beam="1">  1        1 0.15033626E+00 0.11136053E+03</pdfrwt>
<pdfrwt beam="2">  1       -1 0.20589986E-02 0.11136053E+03</pdfrwt>
<totfact> 0.10402882E+04</totfact>
</mgrwt>
</event>
<event>
 8    1  0.5224537E-004  0.9876970E+02  0.7546771E-02  0.1287043E+00
         -2   -1    0    0    0  501 -0.00000000000E+00  0.00000000000E+00  0.42958151783E+02  0.42958151783E+02  0.00000000000E+00 0.  1.
          2   -1    0    0  501    0  0.00000000000E+00 -0.00000000000E+00 -0.25584878078E+03  0.25584878078E+03  0.00000000000E+00 0. -1.
         23    2    1    2    0    0 -0.27184761344E+02 -0.23756389384E+02 -0.46894355785E+02  0.10933678961E+03  0.91935171024E+02 0.  0.
         23    2    1    2    0    0  0.27184761344E+02  0.23756389384E+02 -0.16599627321E+03  0.18947014296E+03  0.83909445630E+02 0.  0.
          5    1    3    3  502    0 -0.71608668616E+01 -0.33809250275E+02 -0.69125258395E+02  0.77425672528E+02  0.47000000000E+01 0. -1.
         -5    1    3    3    0  502 -0.20023894482E+02  0.10052860891E+02  0.22230902610E+02  0.31911117078E+02  0.47000000000E+01 0.  1.
          5    1    4    4  503    0  0.52249868546E+02  0.27262384745E+00 -0.70511411828E+02  0.87886701411E+02  0.47000000000E+01 0. -1.
         -5    1    4    4    0  503 -0.25065107203E+02  0.23483765536E+02 -0.95484861385E+02  0.10158344155E+03  0.47000000000E+01 0.  1.
<mgrwt>
<rscale>  0 0.96859160E+02</rscale>
<asrwt>0</asrwt>
<pdfrwt beam="1">  1        2 0.39361351E-01 0.98769697E+02</pdfrwt>
<pdfrwt beam="2">  1       -2 0.66089464E-02 0.98769697E+02</pdfrwt>
<totfact> 0.15086655E+04</totfact>
</mgrwt>
</event>
<event>
 8    1  0.5224537E-004  0.9573275E+02  0.7546771E-02  0.1292828E+00
         -4   -1    0    0    0  501 -0.00000000000E+00  0.00000000000E+00  0.65650631395E+02  0.65650631395E+02  0.00000000000E+00 0.  1.
          4   -1    0    0  501    0  0.00000000000E+00 -0.00000000000E+00 -0.15173179604E+03  0.15173179604E+03  0.00000000000E+00 0. -1.
         23    2    1    2    0    0 -0.19433054838E+02 -0.19124199340E+02 -0.81678232111E+02  0.12154847981E+03  0.85786483326E+02 0.  0.
         23    2    1    2    0    0  0.19433054838E+02  0.19124199340E+02 -0.44029325314E+01  0.95833947628E+02  0.91768083135E+02 0.  0.
          5    1    3    3  502    0 -0.35919207848E+00  0.26425073748E+02 -0.10250488004E+01  0.26861762165E+02  0.47000000000E+01 0. -1.
         -5    1    4    4    0  503 -0.24045054047E+02  0.37684913573E+02  0.10279930036E+02  0.46109481635E+02  0.47000000000E+01 0.  1.
          5    1    4    4  503    0  0.43478108885E+02 -0.18560714233E+02 -0.14682862567E+02  0.49724465993E+02  0.47000000000E+01 0. -1.
         -5    1    3    3    0  502 -0.19073862760E+02 -0.45549273088E+02 -0.80653183310E+02  0.94686717640E+02  0.47000000000E+01 0.  1.
<mgrwt>
<rscale>  0 0.94270133E+02</rscale>
<asrwt>0</asrwt>
<pdfrwt beam="1">  1        4 0.23343353E-01 0.95732751E+02</pdfrwt>
<pdfrwt beam="2">  1       -4 0.10100097E-01 0.95732751E+02</pdfrwt>
<totfact> 0.19169363E+03</totfact>
</mgrwt>
</event>
<event>
 8    1  0.5224537E-004  0.1016576E+03  0.7546771E-02  0.1276987E+00
          1   -1    0    0  501    0  0.00000000000E+00  0.00000000000E+00  0.15601321157E+03  0.15601321157E+03  0.00000000000E+00 0. -1.
         -1   -1    0    0    0  501 -0.00000000000E+00 -0.00000000000E+00 -0.66667949389E+02  0.66667949389E+02  0.00000000000E+00 0.  1.
         23    2    1    2    0    0  0.10689483438E+02 -0.42495817670E+02  0.55207452463E+02  0.11544472182E+03  0.91430090309E+02 0.  0.
         23    2    1    2    0    0 -0.10689483438E+02  0.42495817670E+02  0.34137809715E+02  0.10723643913E+03  0.91728426618E+02 0.  0.
          5    1    4    4  502    0 -0.18874023404E+02  0.69954354079E+02  0.23573381192E+02  0.76338946253E+02  0.47000000000E+01 0. -1.
         -5    1    3    3    0  503 -0.19222861806E+02 -0.23554338199E+02 -0.16810265188E+02  0.35057100275E+02  0.47000000000E+01 0.  1.
          5    1    3    3  503    0  0.29912345244E+02 -0.18941479471E+02  0.72017717652E+02  0.80387621549E+02  0.47000000000E+01 0. -1.
         -5    1    4    4    0  502  0.81845399657E+01 -0.27458536409E+02  0.10564428523E+02  0.30897492879E+02  0.47000000000E+01 0.  1.
<mgrwt>
<rscale>  0 0.10159024E+03</rscale>
<asrwt>0</asrwt>
<pdfrwt beam="1">  1        1 0.24002032E-01 0.10165758E+03</pdfrwt>
<pdfrwt beam="2">  1       -1 0.10256608E-01 0.10165758E+03</pdfrwt>
<totfact> 0.10822238E+04</totfact>
</mgrwt>
</event>
<event>
 8    1  0.5224537E-004  0.9919994E+02  0.7546771E-02  0.1285963E+00
          1   -1    0    0  501    0  0.00000000000E+00  0.00000000000E+00  0.17144461475E+03  0.17144461475E+03  0.00000000000E+00 0. -1.
         -1   -1    0    0    0  501 -0.00000000000E+00 -0.00000000000E+00 -0.56563970606E+02  0.56563970606E+02  0.00000000000E+00 0.  1.
         23    2    1    2    0    0 -0.96544004619E+00  0.96421946268E+01  0.82702402296E+02  0.12372019972E+03  0.91504625460E+02 0.  0.
         23    2    1    2    0    0  0.96544004619E+00 -0.96421946268E+01  0.32178241853E+02  0.10428838564E+03  0.98725498934E+02 0.  0.
          5    1    3    3  502    0 -0.40279282347E+02  0.72138224772E+01  0.12428728494E+02  0.43023518140E+02  0.47000000000E+01 0. -1.
         -5    1    4    4    0  503  0.23051797159E+02 -0.78612310782E+01 -0.29523421305E+02  0.38560429353E+02  0.47000000000E+01 0.  1.
          5    1    4    4  503    0 -0.22086357113E+02 -0.17809635487E+01  0.61701663158E+02  0.65727956291E+02  0.47000000000E+01 0. -1.
         -5    1    3    3    0  502  0.39313842301E+02  0.24283721496E+01  0.70273673802E+02  0.80696681576E+02  0.47000000000E+01 0.  1.
<mgrwt>
<rscale>  0 0.97353093E+02</rscale>
<asrwt>0</asrwt>
<pdfrwt beam="1">  1        1 0.26376094E-01 0.99199940E+02</pdfrwt>
<pdfrwt beam="2">  1       -1 0.87021494E-02 0.99199940E+02</pdfrwt>
<totfact> 0.12306894E+04</totfact>
</mgrwt>
</event>
<event>
 8    1  0.5224537E-004  0.1182975E+03  0.7546771E-02  0.1246280E+00
          1   -1    0    0  501    0  0.00000000000E+00  0.00000000000E+00  0.42560795531E+03  0.42560795531E+03  0.00000000000E+00 0. -1.
         -1   -1    0    0    0  501 -0.00000000000E+00 -0.00000000000E+00 -0.33726260917E+02  0.33726260917E+02  0.00000000000E+00 0.  1.
         23    2    1    2    0    0 -0.46796934462E+02 -0.58659834699E+02  0.15428372906E+03  0.19391550549E+03  0.90381551963E+02 0.  0.
         23    2    1    2    0    0  0.46796934462E+02  0.58659834699E+02  0.23759796533E+03  0.26541871074E+03  0.91451460328E+02 0.  0.
          5    1    3    3  502    0 -0.27792219577E+02  0.21036815872E+02  0.40791895732E+02  0.53861153427E+02  0.47000000000E+01 0. -1.
         -5    1    4    4    0  503  0.53893763529E+02 -0.33322411825E+01  0.89326225075E+02  0.10448399909E+03  0.47000000000E+01 0.  1.
          5    1    4    4  503    0 -0.70968290672E+01  0.61992075881E+02  0.14827174026E+03  0.16093471165E+03  0.47000000000E+01 0. -1.
         -5    1    3    3    0  502 -0.19004714885E+02 -0.79696650571E+02  0.11349183332E+03  0.14005435206E+03  0.47000000000E+01 0.  1.
<mgrwt>
<rscale>  0 0.11809067E+03</rscale>
<asrwt>0</asrwt>
<pdfrwt beam="1">  1        1 0.65478143E-01 0.11829750E+03</pdfrwt>
<pdfrwt beam="2">  1       -1 0.51886558E-02 0.11829750E+03</pdfrwt>
<totfact> 0.87703713E+03</totfact>
</mgrwt>
</event>
<event>
 8    1  0.5224537E-004  0.9988222E+02  0.7546771E-02  0.1283094E+00
          2   -1    0    0  501    0  0.00000000000E+00  0.00000000000E+00  0.26019962018E+03  0.26019962018E+03  0.00000000000E+00 0. -1.
         -2   -1    0    0    0  501 -0.00000000000E+00 -0.00000000000E+00 -0.87276920240E+02  0.87276920240E+02  0.00000000000E+00 0.  1.
         23    2    1    2    0    0 -0.24494510201E+02 -0.12009967579E+02 -0.45098340135E+02  0.10959159361E+03  0.96084529220E+02 0.  0.
         23    2    1    2    0    0  0.24494510201E+02  0.12009967579E+02  0.21802104007E+03  0.23788494681E+03  0.91169367952E+02 0.  0.
          5    1    4    4  502    0  0.16724292975E+02  0.50780672413E+02  0.14656777705E+03  0.15608517525E+03  0.47000000000E+01 0. -1.
         -5    1    3    3    0  503 -0.47093237084E+02 -0.33696050101E+02 -0.51081196587E+02  0.77360037592E+02  0.47000000000E+01 0.  1.
          5    1    3    3  503    0  0.22598726883E+02  0.21686082522E+02  0.59828564525E+01  0.32231556016E+02  0.47000000000E+01 0. -1.
         -5    1    4    4    0  502  0.77702172257E+01 -0.38770704834E+02  0.71453263025E+02  0.81799771552E+02  0.47000000000E+01 0.  1.
<mgrwt>
<rscale>  0 0.98681018E+02</rscale>
<asrwt>0</asrwt>
<pdfrwt beam="1">  1        2 0.40030710E-01 0.99882216E+02</pdfrwt>
<pdfrwt beam="2">  1       -2 0.13427219E-01 0.99882216E+02</pdfrwt>
<totfact> 0.49331833E+03</totfact>
</mgrwt>
</event>
<event>
 8    1  0.5224537E-004  0.1008520E+03  0.7546771E-02  0.1282433E+00
          1   -1    0    0  501    0  0.00000000000E+00  0.00000000000E+00  0.86554313779E+03  0.86554313779E+03  0.00000000000E+00 0. -1.
         -1   -1    0    0    0  501 -0.00000000000E+00 -0.00000000000E+00 -0.16724738540E+02  0.16724738540E+02  0.00000000000E+00 0.  1.
         23    2    1    2    0    0  0.37365768299E+01 -0.23126908226E+02  0.69444601692E+03  0.70173100478E+03  0.98093408361E+02 0.  0.
         23    2    1    2    0    0 -0.37365768299E+01  0.23126908226E+02  0.15437238233E+03  0.18053687155E+03  0.90630644222E+02 0.  0.
          5    1    4    4  502    0 -0.28459784850E+02  0.31010331141E+02  0.14725074317E+03  0.15322033597E+03  0.47000000000E+01 0. -1.
         -5    1    3    3    0  503 -0.13360824129E+02 -0.56276501508E+02  0.52311408232E+03  0.52632308459E+03  0.47000000000E+01 0.  1.
          5    1    3    3  503    0  0.17097400959E+02  0.33149593281E+02  0.17133193460E+03  0.17540792019E+03  0.47000000000E+01 0. -1.
         -5    1    4    4    0  502  0.24723208020E+02 -0.78834229145E+01  0.71216391602E+01  0.27316535578E+02  0.47000000000E+01 0.  1.
<mgrwt>
<rscale>  0 0.98990478E+02</rscale>
<asrwt>0</asrwt>
<pdfrwt beam="1">  1        1 0.13316045E+00 0.10085203E+03</pdfrwt>
<pdfrwt beam="2">  1       -1 0.25730374E-02 0.10085203E+03</pdfrwt>
<totfact> 0.91044728E+03</totfact>
</mgrwt>
</event>
<event>
 8    1  0.5224537E-004  0.9834098E+02  0.7546771E-02  0.1284908E+00
         -2   -1    0    0    0  501 -0.00000000000E+00  0.00000000000E+00  0.25319091543E+02  0.25319091543E+02  0.00000000000E+00 0.  1.
          2   -1    0    0  501    0  0.00000000000E+00 -0.00000000000E+00 -0.63704644880E+03  0.63704644880E+03  0.00000000000E+00 0. -1.
         23    2    1    2    0    0  0.32435796225E+02  0.22028341628E+02 -0.52040607641E+03  0.52961630616E+03  0.90186577070E+02 0.  0.
         23    2    1    2    0    0 -0.32435796225E+02 -0.22028341628E+02 -0.91321280855E+02  0.13274923418E+03  0.88008261700E+02 0.  0.
          5    1    4    4  502    0 -0.42017509048E+02 -0.44471745343E+02 -0.88564788786E+02  0.10774515773E+03  0.47000000000E+01 0. -1.
         -5    1    4    4    0  502  0.95817128237E+01  0.22443403715E+02 -0.27564920682E+01  0.25004076457E+02  0.47000000000E+01 0.  1.
          5    1    3    3  503    0  0.10498955471E+02 -0.33667196398E+02 -0.13736585944E+03  0.14189847610E+03  0.47000000000E+01 0. -1.
         -5    1    3    3    0  503  0.21936840754E+02  0.55695538026E+02 -0.38304021696E+03  0.38771783006E+03  0.47000000000E+01 0.  1.
<mgrwt>
<rscale>  0 0.97838696E+02</rscale>
<asrwt>0</asrwt>
<pdfrwt beam="1">  1        2 0.98007142E-01 0.98340975E+02</pdfrwt>
<pdfrwt beam="2">  1       -2 0.38952450E-02 0.98340975E+02</pdfrwt>
<totfact> 0.12492925E+04</totfact>
</mgrwt>
</event>
<event>
 8    1  0.5224537E-004  0.1007429E+03  0.7546771E-02  0.1284052E+00
          2   -1    0    0  501    0  0.00000000000E+00  0.00000000000E+00  0.15504623355E+03  0.15504623355E+03  0.00000000000E+00 0.  1.
         -2   -1    0    0    0  501 -0.00000000000E+00 -0.00000000000E+00 -0.59330736139E+02  0.59330736139E+02  0.00000000000E+00 0. -1.
         23    2    1    2    0    0 -0.27702667617E+01 -0.82796377988E+01  0.45165733784E+02  0.10166312992E+03  0.90659923318E+02 0.  0.
         23    2    1    2    0    0  0.27702667617E+01  0.82796377988E+01  0.50549763624E+02  0.11271383977E+03  0.10036385950E+03 0.  0.
          5    1    3    3  502    0 -0.16003013466E+02 -0.42181352822E+02  0.25569081560E+01  0.45431164911E+02  0.47000000000E+01 0. -1.
         -5    1    4    4    0  503  0.29439048114E+01 -0.23438334327E+02  0.70803537212E+02  0.74788053680E+02  0.47000000000E+01 0.  1.
          5    1    4    4  503    0 -0.17363804963E+00  0.31717972125E+02 -0.20253773588E+02  0.37925786089E+02  0.47000000000E+01 0. -1.
         -5    1    3    3    0  502  0.13232746704E+02  0.33901715023E+02  0.42608825628E+02  0.56231965004E+02  0.47000000000E+01 0.  1.
<mgrwt>
<rscale>  0 0.98234900E+02</rscale>
<asrwt>0</asrwt>
<pdfrwt beam="1">  1        2 0.23853267E-01 0.10074290E+03</pdfrwt>
<pdfrwt beam="2">  1       -2 0.91278056E-02 0.10074290E+03</pdfrwt>
<totfact> 0.15786193E+04</totfact>
</mgrwt>
</event>
<event>
 8    1  0.5224537E-004  0.1012855E+03  0.7546771E-02  0.1277812E+00
          4   -1    0    0  501    0  0.00000000000E+00  0.00000000000E+00  0.21244644700E+02  0.21244644700E+02  0.00000000000E+00 0. -1.
         -4   -1    0    0    0  501 -0.00000000000E+00 -0.00000000000E+00 -0.58591095173E+03  0.58591095173E+03  0.00000000000E+00 0.  1.
         23    2    1    2    0    0  0.36617009063E+02  0.28213643497E+02 -0.41030700230E+03  0.42253290213E+03  0.89696166130E+02 0.  0.
         23    2    1    2    0    0 -0.36617009063E+02 -0.28213643497E+02 -0.15435930473E+03  0.18462269429E+03  0.90121746873E+02 0.  0.
          5    1    3    3  502    0 -0.26085550431E+01 -0.27204509831E+02 -0.66427045466E+02  0.71982861043E+02  0.47000000000E+01 0. -1.
         -5    1    4    4    0  503 -0.15245186873E+02 -0.24905540594E+02 -0.91542122549E+00  0.29591040386E+02  0.47000000000E+01 0. -1.
          5    1    4    4  503    0 -0.21371822190E+02 -0.33081029028E+01 -0.15344388350E+03  0.15503165391E+03  0.47000000000E+01 0.  1.
         -5    1    3    3    0  502  0.39225564106E+02  0.55418153329E+02 -0.34387995683E+03  0.35055004109E+03  0.47000000000E+01 0.  1.
<mgrwt>
<rscale>  0 0.10119070E+03</rscale>
<asrwt>0</asrwt>
<pdfrwt beam="1">  1        4 0.32684069E-02 0.10128546E+03</pdfrwt>
<pdfrwt beam="2">  1       -4 0.90140146E-01 0.10128546E+03</pdfrwt>
<totfact> 0.79585389E+02</totfact>
</mgrwt>
</event>
<event>
 8    1  0.5224537E-004  0.1547834E+03  0.7546771E-02  0.1196125E+00
          2   -1    0    0  501    0  0.00000000000E+00  0.00000000000E+00  0.53554253094E+03  0.53554253094E+03  0.00000000000E+00 0. -1.
         -2   -1    0    0    0  501 -0.00000000000E+00 -0.00000000000E+00 -0.43393575823E+02  0.43393575823E+02  0.00000000000E+00 0.  1.
         23    2    1    2    0    0  0.98120559746E+02  0.57047113841E+02  0.24635889820E+03  0.29094774925E+03  0.10524195279E+03 0.  0.
         23    2    1    2    0    0 -0.98120559746E+02 -0.57047113841E+02  0.24579005692E+03  0.28798835752E+03  0.98196357076E+02 0.  0.
          5    1    3    3  502    0  0.34551308213E+02  0.69487843158E+02  0.18874550155E+03  0.20413061407E+03  0.47000000000E+01 0. -1.
         -5    1    4    4    0  503 -0.13275455621E+02 -0.45596789270E+02  0.31499975049E+02  0.57180795218E+02  0.47000000000E+01 0.  1.
          5    1    4    4  503    0 -0.84845104126E+02 -0.11450324572E+02  0.21429008187E+03  0.23080756230E+03  0.47000000000E+01 0. -1.
         -5    1    3    3    0  502  0.63569251533E+02 -0.12440729317E+02  0.57613396648E+02  0.86817135174E+02  0.47000000000E+01 0.  1.
<mgrwt>
<rscale>  0 0.15359433E+03</rscale>
<asrwt>0</asrwt>
<pdfrwt beam="1">  1        2 0.82391154E-01 0.15478335E+03</pdfrwt>
<pdfrwt beam="2">  1       -2 0.66759351E-02 0.15478335E+03</pdfrwt>
<totfact> 0.69814407E+03</totfact>
</mgrwt>
</event>
<event>
 8    1  0.5224537E-004  0.9226595E+02  0.7546771E-02  0.1297872E+00
          1   -1    0    0  501    0  0.00000000000E+00  0.00000000000E+00  0.58242546740E+03  0.58242546740E+03  0.00000000000E+00 0. -1.
         -1   -1    0    0    0  501 -0.00000000000E+00 -0.00000000000E+00 -0.20972567548E+02  0.20972567548E+02  0.00000000000E+00 0.  1.
         23    2    1    2    0    0 -0.17259177668E+01  0.81949085189E+01  0.44752515639E+03  0.45679470635E+03  0.91172928147E+02 0.  0.
         23    2    1    2    0    0  0.17259177668E+01 -0.81949085189E+01  0.11392774346E+03  0.14660332860E+03  0.91885090784E+02 0.  0.
          5    1    3    3  502    0 -0.12931982575E+02 -0.30471605181E+02  0.75544677484E+02  0.82612609157E+02  0.47000000000E+01 0. -1.
         -5    1    3    3    0  502  0.11206064808E+02  0.38666513700E+02  0.37198047890E+03  0.37418209719E+03  0.47000000000E+01 0.  1.
          5    1    4    4  503    0  0.31166961673E+02 -0.15006127090E+00  0.11122524316E+03  0.11560513282E+03  0.47000000000E+01 0. -1.
         -5    1    4    4    0  503 -0.29441043906E+02 -0.80448472480E+01  0.27025002974E+01  0.30998195776E+02  0.47000000000E+01 0.  1.
<mgrwt>
<rscale>  0 0.92088135E+02</rscale>
<asrwt>0</asrwt>
<pdfrwt beam="1">  1        1 0.89603906E-01 0.92265948E+02</pdfrwt>
<pdfrwt beam="2">  1       -1 0.32265493E-02 0.92265948E+02</pdfrwt>
<totfact> 0.11472574E+04</totfact>
</mgrwt>
</event>
<event>
 8    1  0.5224537E-004  0.2034965E+03  0.7546771E-02  0.1147178E+00
          2   -1    0    0  501    0  0.00000000000E+00  0.00000000000E+00  0.17119094416E+04  0.17119094416E+04  0.00000000000E+00 0. -1.
         -2   -1    0    0    0  501 -0.00000000000E+00 -0.00000000000E+00 -0.24587127639E+02  0.24587127639E+02  0.00000000000E+00 0.  1.
         23    2    1    2    0    0 -0.94379889773E+02  0.15505698513E+03  0.70438399974E+03  0.73271444865E+03  0.88110226068E+02 0.  0.
         23    2    1    2    0    0  0.94379889773E+02 -0.15505698513E+03  0.98293831420E+03  0.10037821206E+04  0.91981431937E+02 0.  0.
          5    1    3    3  502    0 -0.33338680046E+02  0.30385237492E+02  0.33545205286E+03  0.33850391433E+03  0.47000000000E+01 0. -1.
         -5    1    4    4    0  503  0.74362102493E+02 -0.37321629060E+02  0.44362485990E+03  0.45138424054E+03  0.47000000000E+01 0.  1.
          5    1    4    4  503    0  0.20017787280E+02 -0.11773535607E+03  0.53931345430E+03  0.55239788003E+03  0.47000000000E+01 0. -1.
         -5    1    3    3    0  502 -0.61041209727E+02  0.12467174764E+03  0.36893194688E+03  0.39421053432E+03  0.47000000000E+01 0.  1.
<mgrwt>
<rscale>  0 0.20306504E+03</rscale>
<asrwt>0</asrwt>
<pdfrwt beam="1">  1        2 0.26337059E+00 0.20349648E+03</pdfrwt>
<pdfrwt beam="2">  1       -2 0.37826364E-02 0.20349648E+03</pdfrwt>
<totfact> 0.31469067E+03</totfact>
</mgrwt>
</event>
<event>
 8    1  0.5224537E-004  0.9575173E+02  0.7546771E-02  0.1291417E+00
          1   -1    0    0  501    0  0.00000000000E+00  0.00000000000E+00  0.16945323312E+02  0.16945323312E+02  0.00000000000E+00 0. -1.
         -1   -1    0    0    0  501 -0.00000000000E+00 -0.00000000000E+00 -0.52299924021E+03  0.52299924021E+03  0.00000000000E+00 0.  1.
         23    2    1    2    0    0  0.30064380198E+01  0.11059438071E+02 -0.23715167499E+03  0.25450313598E+03  0.91649219485E+02 0.  0.
         23    2    1    2    0    0 -0.30064380198E+01 -0.11059438071E+02 -0.26890224190E+03  0.28544142754E+03  0.95063363161E+02 0.  0.
          5    1    3    3  502    0 -0.19710952157E+02 -0.69402997807E+01 -0.70705488542E+01  0.22555976084E+02  0.47000000000E+01 0. -1.
         -5    1    3    3    0  502  0.22717390177E+02  0.17999737852E+02 -0.23008112614E+03  0.23194715990E+03  0.47000000000E+01 0.  1.
          5    1    4    4  503    0 -0.39654150414E+02  0.21903556615E+02 -0.11179803273E+03  0.12071912674E+03  0.47000000000E+01 0. -1.
         -5    1    4    4    0  503  0.36647712394E+02 -0.32962994686E+02 -0.15710420917E+03  0.16472230080E+03  0.47000000000E+01 0.  1.
<mgrwt>
<rscale>  0 0.94893070E+02</rscale>
<asrwt>0</asrwt>
<pdfrwt beam="1">  1        1 0.26069733E-02 0.95751725E+02</pdfrwt>
<pdfrwt beam="2">  1       -1 0.80461406E-01 0.95751725E+02</pdfrwt>
<totfact> 0.61834973E+03</totfact>
</mgrwt>
</event>
<event>
 8    1  0.5224537E-004  0.9591114E+02  0.7546771E-02  0.1291187E+00
          2   -1    0    0  501    0  0.00000000000E+00  0.00000000000E+00  0.27181152434E+03  0.27181152434E+03  0.00000000000E+00 0. -1.
         -2   -1    0    0    0  501 -0.00000000000E+00 -0.00000000000E+00 -0.14100052295E+03  0.14100052295E+03  0.00000000000E+00 0.  1.
         23    2    1    2    0    0 -0.14875930226E+02  0.12042285211E+02 -0.11529169934E+03  0.14997040598E+03  0.93982108936E+02 0.  0.
         23    2    1    2    0    0  0.14875930226E+02 -0.12042285211E+02  0.24610270073E+03  0.26284164130E+03  0.90293295232E+02 0.  0.
          5    1    4    4  502    0  0.27492317860E+02 -0.36542921927E+02  0.21946065137E+03  0.22422372797E+03  0.47000000000E+01 0. -1.
         -5    1    4    4    0  502 -0.12616387633E+02  0.24500636716E+02  0.26642049363E+02  0.38617913339E+02  0.47000000000E+01 0.  1.
          5    1    3    3  503    0  0.29169032677E+02 -0.64969675818E+00 -0.43890442327E+01  0.29876550712E+02  0.47000000000E+01 0. -1.
         -5    1    3    3    0  503 -0.44044962903E+02  0.12691981969E+02 -0.11090265511E+03  0.12009385527E+03  0.47000000000E+01 0.  1.
<mgrwt>
<rscale>  0 0.94995180E+02</rscale>
<asrwt>0</asrwt>
<pdfrwt beam="1">  1        2 0.41817158E-01 0.95911140E+02</pdfrwt>
<pdfrwt beam="2">  1       -2 0.21692388E-01 0.95911140E+02</pdfrwt>
<totfact> 0.21339518E+03</totfact>
</mgrwt>
</event>
<event>
 8    1  0.5224537E-004  0.9960599E+02  0.7546771E-02  0.1281990E+00
         -1   -1    0    0    0  501 -0.00000000000E+00  0.00000000000E+00  0.14272052125E+03  0.14272052125E+03  0.00000000000E+00 0.  1.
          1   -1    0    0  501    0  0.00000000000E+00 -0.00000000000E+00 -0.71496862617E+02  0.71496862617E+02  0.00000000000E+00 0. -1.
         23    2    1    2    0    0  0.20250220740E+01 -0.39157188156E+02  0.58215997610E+02  0.11537094975E+03  0.91564008052E+02 0.  0.
         23    2    1    2    0    0 -0.20250220740E+01  0.39157188156E+02  0.13007661028E+02  0.98846434118E+02  0.89799956535E+02 0.  0.
          5    1    4    4  502    0  0.23683933490E+02  0.47057150969E+01  0.40656779881E+02  0.47519850699E+02  0.47000000000E+01 0. -1.
         -5    1    4    4    0  502 -0.25708955564E+02  0.34451473059E+02 -0.27649118853E+02  0.51326583419E+02  0.47000000000E+01 0.  1.
          5    1    3    3  503    0  0.96496954934E+01  0.26748994512E+02  0.30964354323E+01  0.28987984458E+02  0.47000000000E+01 0. -1.
         -5    1    3    3    0  503 -0.76246734194E+01 -0.65906182668E+02  0.55119562178E+02  0.86382965296E+02  0.47000000000E+01 0.  1.
<mgrwt>
<rscale>  0 0.99198710E+02</rscale>
<asrwt>0</asrwt>
<pdfrwt beam="1">  1        1 0.10999517E-01 0.99605992E+02</pdfrwt>
<pdfrwt beam="2">  1       -1 0.21957003E-01 0.99605992E+02</pdfrwt>
<totfact> 0.89396927E+03</totfact>
</mgrwt>
</event>
<event>
 8    1  0.5224537E-004  0.9226772E+02  0.7546771E-02  0.1298017E+00
          2   -1    0    0  501    0  0.00000000000E+00  0.00000000000E+00  0.41188812716E+03  0.41188812716E+03  0.00000000000E+00 0. -1.
         -2   -1    0    0    0  501 -0.00000000000E+00 -0.00000000000E+00 -0.41305869503E+02  0.41305869503E+02  0.00000000000E+00 0.  1.
         23    2    1    2    0    0  0.11100611390E+02 -0.55824030730E+01  0.34580681610E+03  0.35765785553E+03  0.90456623660E+02 0.  0.
         23    2    1    2    0    0 -0.11100611390E+02  0.55824030730E+01  0.24775441558E+02  0.95536141135E+02  0.91427265961E+02 0.  0.
          5    1    4    4  502    0  0.18888377361E+02  0.15223259018E+02  0.49427948889E+02  0.55260569539E+02  0.47000000000E+01 0. -1.
         -5    1    4    4    0  502 -0.29988988751E+02 -0.96408559451E+01 -0.24652507330E+02  0.40275571595E+02  0.47000000000E+01 0.  1.
          5    1    3    3  503    0  0.17349291876E+02  0.29347206949E+02  0.28521151830E+03  0.28728027544E+03  0.47000000000E+01 0. -1.
         -5    1    3    3    0  503 -0.62486804858E+01 -0.34929610022E+02  0.60595297792E+02  0.70377580085E+02  0.47000000000E+01 0.  1.
<mgrwt>
<rscale>  0 0.92026346E+02</rscale>
<asrwt>0</asrwt>
<pdfrwt beam="1">  1        2 0.63367401E-01 0.92267718E+02</pdfrwt>
<pdfrwt beam="2">  1       -2 0.63547494E-02 0.92267718E+02</pdfrwt>
<totfact> 0.96547071E+03</totfact>
</mgrwt>
</event>
<event>
 8    1  0.6418455E-004  0.1095476E+03  0.7546771E-02  0.1261640E+00
          2   -1    0    0  501    0  0.00000000000E+00  0.00000000000E+00  0.76026870644E+03  0.76026870644E+03  0.00000000000E+00 0. -1.
         -2   -1    0    0    0  501 -0.00000000000E+00 -0.00000000000E+00 -0.28329110830E+02  0.28329110830E+02  0.00000000000E+00 0.  1.
         23    2    1    2    0    0 -0.34445718161E+02 -0.48539128191E+02  0.62954993651E+03  0.63901001953E+03  0.91968081631E+02 0.  0.
         23    2    1    2    0    0  0.34445718161E+02  0.48539128191E+02  0.10238965910E+03  0.14958779774E+03  0.91380044190E+02 0.  0.
          5    1    4    4  502    0  0.18651693395E+02 -0.25609450976E+02  0.40333801305E+02  0.51503739413E+02  0.47000000000E+01 0. -1.
         -5    1    3    3    0  503 -0.79923898127E+01  0.27404389372E+02  0.17592704561E+03  0.17828991623E+03  0.47000000000E+01 0.  1.
          5    1    3    3  503    0 -0.26453328349E+02 -0.75943517562E+02  0.45362289090E+03  0.46072010331E+03  0.47000000000E+01 0. -1.
         -5    1    4    4    0  502  0.15794024766E+02  0.74148579167E+02  0.62055857798E+02  0.98084058327E+02  0.47000000000E+01 0.  1.
<mgrwt>
<rscale>  0 0.10942412E+03</rscale>
<asrwt>0</asrwt>
<pdfrwt beam="1">  1        2 0.11696440E+00 0.10954763E+03</pdfrwt>
<pdfrwt beam="2">  1       -2 0.43583253E-02 0.10954763E+03</pdfrwt>
<totfact> 0.86680445E+03</totfact>
</mgrwt>
</event>
<event>
 8    1  0.5224537E-004  0.9677829E+02  0.7546771E-02  0.1287704E+00
          1   -1    0    0  501    0  0.00000000000E+00  0.00000000000E+00  0.49077054690E+02  0.49077054690E+02  0.00000000000E+00 0. -1.
         -1   -1    0    0    0  501 -0.00000000000E+00 -0.00000000000E+00 -0.22422833307E+03  0.22422833307E+03  0.00000000000E+00 0.  1.
         23    2    1    2    0    0 -0.14641124408E+02  0.24391581435E+02 -0.14198273863E+03  0.17182879582E+03  0.92502568806E+02 0.  0.
         23    2    1    2    0    0  0.14641124408E+02 -0.24391581435E+02 -0.33168539751E+02  0.10147659194E+03  0.91586215739E+02 0.  0.
          5    1    4    4  502    0  0.12259346884E+02  0.32818774458E+02 -0.25342293775E+02  0.43493509823E+02  0.47000000000E+01 0. -1.
         -5    1    3    3    0  503 -0.88248599806E+01 -0.26454186363E+02 -0.10439389997E+03  0.10815673109E+03  0.47000000000E+01 0.  1.
          5    1    3    3  503    0 -0.58162644275E+01  0.50845767798E+02 -0.37588838656E+02  0.63672064725E+02  0.47000000000E+01 0. -1.
         -5    1    4    4    0  502  0.23817775240E+01 -0.57210355893E+02 -0.78262459757E+01  0.57983082115E+02  0.47000000000E+01 0.  1.
<mgrwt>
<rscale>  0 0.96558669E+02</rscale>
<asrwt>0</asrwt>
<pdfrwt beam="1">  1        1 0.75503164E-02 0.96778288E+02</pdfrwt>
<pdfrwt beam="2">  1       -1 0.34496665E-01 0.96778288E+02</pdfrwt>
<totfact> 0.69547907E+03</totfact>
</mgrwt>
</event>
<event>
 8    1  0.5224537E-004  0.1849186E+03  0.7546771E-02  0.1163678E+00
          2   -1    0    0  501    0  0.00000000000E+00  0.00000000000E+00  0.10055988519E+04  0.10055988519E+04  0.00000000000E+00 0. -1.
         -2   -1    0    0    0  501 -0.00000000000E+00 -0.00000000000E+00 -0.61122943703E+02  0.61122943703E+02  0.00000000000E+00 0.  1.
         23    2    1    2    0    0 -0.15673110953E+03 -0.33932051902E+02  0.83196417209E+03  0.85226714540E+03  0.92080826725E+02 0.  0.
         23    2    1    2    0    0  0.15673110953E+03  0.33932051902E+02  0.11251173613E+03  0.21445465022E+03  0.87269017388E+02 0.  0.
          5    1    4    4  502    0  0.11327158498E+03  0.26454967061E+02  0.12250306117E+03  0.16899528763E+03  0.47000000000E+01 0. -1.
         -5    1    3    3    0  503 -0.89117529995E+02 -0.38583531583E+02  0.28559619928E+03  0.30169173357E+03  0.47000000000E+01 0.  1.
          5    1    3    3  503    0 -0.67613579531E+02  0.46514796809E+01  0.54636797281E+03  0.55057541183E+03  0.47000000000E+01 0. -1.
         -5    1    4    4    0  502  0.43459524544E+02  0.74770848410E+01 -0.99913250362E+01  0.45459362592E+02  0.47000000000E+01 0.  1.
<mgrwt>
<rscale>  0 0.18432873E+03</rscale>
<asrwt>0</asrwt>
<pdfrwt beam="1">  1        2 0.15470750E+00 0.18491864E+03</pdfrwt>
<pdfrwt beam="2">  1       -2 0.94035305E-02 0.18491864E+03</pdfrwt>
<totfact> 0.19012187E+03</totfact>
</mgrwt>
</event>
<event>
 8    1  0.5224537E-004  0.1086629E+03  0.7546771E-02  0.1263431E+00
         -1   -1    0    0    0  501 -0.00000000000E+00  0.00000000000E+00  0.24999121644E+03  0.24999121644E+03  0.00000000000E+00 0.  1.
          1   -1    0    0  501    0  0.00000000000E+00 -0.00000000000E+00 -0.54684240463E+02  0.54684240463E+02  0.00000000000E+00 0. -1.
         23    2    1    2    0    0 -0.48350651188E+02  0.35107253768E+02  0.15484168067E+03  0.18872260170E+03  0.89833009422E+02 0.  0.
         23    2    1    2    0    0  0.48350651188E+02 -0.35107253768E+02  0.40465295299E+02  0.11595285520E+03  0.90759681398E+02 0.  0.
          5    1    4    4  502    0 -0.26910002606E+02 -0.11089055734E+02  0.95793332955E+01  0.30999500378E+02  0.47000000000E+01 0. -1.
         -5    1    4    4    0  502  0.75260653794E+02 -0.24018198034E+02  0.30885962004E+02  0.84953354820E+02  0.47000000000E+01 0.  1.
          5    1    3    3  503    0 -0.63594784279E+02 -0.57519080680E+01  0.92067775464E+02  0.11214252678E+03  0.47000000000E+01 0. -1.
         -5    1    3    3    0  503  0.15244133091E+02  0.40859161836E+02  0.62773905210E+02  0.76580074921E+02  0.47000000000E+01 0.  1.
<mgrwt>
<rscale>  0 0.10846918E+03</rscale>
<asrwt>0</asrwt>
<pdfrwt beam="1">  1        1 0.84129602E-02 0.10866289E+03</pdfrwt>
<pdfrwt beam="2">  1       -1 0.38460187E-01 0.10866289E+03</pdfrwt>
<totfact> 0.50448884E+03</totfact>
</mgrwt>
</event>
<event>
 8    1  0.5224537E-004  0.1093553E+03  0.7546771E-02  0.1263929E+00
          1   -1    0    0  501    0  0.00000000000E+00  0.00000000000E+00  0.23967872004E+03  0.23967872004E+03  0.00000000000E+00 0. -1.
         -1   -1    0    0    0  501 -0.00000000000E+00 -0.00000000000E+00 -0.48196122175E+02  0.48196122175E+02  0.00000000000E+00 0.  1.
         23    2    1    2    0    0 -0.34190919493E+02 -0.46997780862E+02  0.10993708716E+03  0.15506368735E+03  0.92632465259E+02 0.  0.
         23    2    1    2    0    0  0.34190919493E+02  0.46997780862E+02  0.81545510709E+02  0.13281115487E+03  0.87242891740E+02 0.  0.
          5    1    3    3  502    0  0.24683065796E+02 -0.16460831650E+02  0.73148421919E+02  0.79075877137E+02  0.47000000000E+01 0. -1.
         -5    1    3    3    0  502 -0.58873985289E+02 -0.30536949212E+02  0.36788665240E+02  0.75987810214E+02  0.47000000000E+01 0.  1.
          5    1    4    4  503    0  0.52255687017E+02 -0.16578929124E+01  0.45248241092E+02  0.69302949117E+02  0.47000000000E+01 0. -1.
         -5    1    4    4    0  503 -0.18064767524E+02  0.48655673774E+02  0.36297269618E+02  0.63508205752E+02  0.47000000000E+01 0.  1.
<mgrwt>
<rscale>  0 0.10820575E+03</rscale>
<asrwt>0</asrwt>
<pdfrwt beam="1">  1        1 0.36873649E-01 0.10935531E+03</pdfrwt>
<pdfrwt beam="2">  1       -1 0.74147882E-02 0.10935531E+03</pdfrwt>
<totfact> 0.10442138E+04</totfact>
</mgrwt>
</event>
<event>
 8    1  0.5224537E-004  0.1076407E+03  0.7546771E-02  0.1265013E+00
          1   -1    0    0  501    0  0.00000000000E+00  0.00000000000E+00  0.39175937274E+03  0.39175937274E+03  0.00000000000E+00 0. -1.
         -1   -1    0    0    0  501 -0.00000000000E+00 -0.00000000000E+00 -0.30383526899E+02  0.30383526899E+02  0.00000000000E+00 0.  1.
         23    2    1    2    0    0 -0.44022815645E+02 -0.39289826390E+02  0.14615522696E+03  0.18151551187E+03  0.90026840039E+02 0.  0.
         23    2    1    2    0    0  0.44022815645E+02  0.39289826390E+02  0.21522061888E+03  0.24062738776E+03  0.89999589982E+02 0.  0.
          5    1    3    3  502    0  0.55521858191E+01 -0.40703233717E+02  0.11631281857E+03  0.12344367852E+03  0.47000000000E+01 0. -1.
         -5    1    3    3    0  502 -0.49575001464E+02  0.14134073272E+01  0.29842408387E+02  0.58071833351E+02  0.47000000000E+01 0.  1.
          5    1    4    4  503    0  0.31116404684E+02 -0.34743986223E+01  0.18207083445E+03  0.18480308667E+03  0.47000000000E+01 0. -1.
         -5    1    4    4    0  503  0.12906410961E+02  0.42764225012E+02  0.33149784428E+02  0.55824301091E+02  0.47000000000E+01 0.  1.
<mgrwt>
<rscale>  0 0.10763505E+03</rscale>
<asrwt>0</asrwt>
<pdfrwt beam="1">  1        1 0.60270669E-01 0.10764075E+03</pdfrwt>
<pdfrwt beam="2">  1       -1 0.46743890E-02 0.10764075E+03</pdfrwt>
<totfact> 0.11265477E+04</totfact>
</mgrwt>
</event>
<event>
 8    1  0.5224537E-004  0.9869892E+02  0.7546771E-02  0.1285375E+00
         -1   -1    0    0    0  501 -0.00000000000E+00  0.00000000000E+00  0.53529897527E+02  0.53529897527E+02  0.00000000000E+00 0.  1.
          1   -1    0    0  501    0  0.00000000000E+00 -0.00000000000E+00 -0.17438823937E+03  0.17438823937E+03  0.00000000000E+00 0. -1.
         23    2    1    2    0    0  0.27328481713E+02 -0.21825714889E+01 -0.64838722437E+02  0.11809121853E+03  0.94814906188E+02 0.  0.
         23    2    1    2    0    0 -0.27328481713E+02  0.21825714889E+01 -0.56019619407E+02  0.10982691837E+03  0.90399915424E+02 0.  0.
          5    1    4    4  502    0 -0.35717551390E+02  0.40468446447E+02 -0.39421490721E+02  0.67004347365E+02  0.47000000000E+01 0. -1.
         -5    1    3    3    0  503  0.20740858463E+02 -0.38590263270E+02 -0.90191500886E+00  0.44071476940E+02  0.47000000000E+01 0.  1.
          5    1    3    3  503    0  0.65876232494E+01  0.36407691781E+02 -0.63936807428E+02  0.74019741589E+02  0.47000000000E+01 0. -1.
         -5    1    4    4    0  502  0.83890696775E+01 -0.38285874958E+02 -0.16598128686E+02  0.42822571002E+02  0.47000000000E+01 0.  1.
<mgrwt>
<rscale>  0 0.97623132E+02</rscale>
<asrwt>0</asrwt>
<pdfrwt beam="1">  1        1 0.26828960E-01 0.98698916E+02</pdfrwt>
<pdfrwt beam="2">  1       -1 0.82353689E-02 0.98698916E+02</pdfrwt>
<totfact> 0.13082594E+04</totfact>
</mgrwt>
</event>
<event>
 8    1  0.5224537E-004  0.9494579E+02  0.7546771E-02  0.1294384E+00
          1   -1    0    0  501    0  0.00000000000E+00  0.00000000000E+00  0.17648292869E+03  0.17648292869E+03  0.00000000000E+00 0. -1.
         -1   -1    0    0    0  501 -0.00000000000E+00 -0.00000000000E+00 -0.51307399402E+02  0.51307399402E+02  0.00000000000E+00 0.  1.
         23    2    1    2    0    0 -0.11832601020E+02 -0.22415797288E+02  0.33165255255E+02  0.95576130912E+02  0.85978975506E+02 0.  0.
         23    2    1    2    0    0  0.11832601020E+02  0.22415797288E+02  0.92010274031E+02  0.13221419718E+03  0.91499863350E+02 0.  0.
          5    1    4    4  502    0 -0.19678249070E+02  0.48951089858E+02  0.58380900984E+02  0.78828055186E+02  0.47000000000E+01 0. -1.
         -5    1    4    4    0  502  0.31510850090E+02 -0.26535292570E+02  0.33629373048E+02  0.53386141992E+02  0.47000000000E+01 0.  1.
          5    1    3    3  503    0  0.11416092046E+02  0.26301913811E+02  0.29283949871E+02  0.41252364147E+02  0.47000000000E+01 0. -1.
         -5    1    3    3    0  503 -0.23248693066E+02 -0.48717711099E+02  0.38813053847E+01  0.54323766765E+02  0.47000000000E+01 0.  1.
<mgrwt>
<rscale>  0 0.93589925E+02</rscale>
<asrwt>0</asrwt>
<pdfrwt beam="1">  1        1 0.27151220E-01 0.94945792E+02</pdfrwt>
<pdfrwt beam="2">  1       -1 0.78934461E-02 0.94945792E+02</pdfrwt>
<totfact> 0.13683613E+04</totfact>
</mgrwt>
</event>
<event>
 8    1  0.5224537E-004  0.1171515E+03  0.7546771E-02  0.1250961E+00
          3   -1    0    0  501    0  0.00000000000E+00  0.00000000000E+00  0.50172885075E+03  0.50172885075E+03  0.00000000000E+00 0. -1.
         -3   -1    0    0    0  501 -0.00000000000E+00 -0.00000000000E+00 -0.25897891189E+02  0.25897891189E+02  0.00000000000E+00 0.  1.
         23    2    1    2    0    0  0.53939791242E+02 -0.30329846534E+02  0.26579973333E+03  0.29047198661E+03  0.99473997079E+02 0.  0.
         23    2    1    2    0    0 -0.53939791242E+02  0.30329846534E+02  0.21003122623E+03  0.23715475533E+03  0.91103574654E+02 0.  0.
          5    1    3    3  502    0  0.24402253528E+02 -0.59986341599E+02  0.21441508687E+03  0.22403069127E+03  0.47000000000E+01 0. -1.
         -5    1    4    4    0  503 -0.94069945122E+01  0.52716972737E+02  0.68786247646E+02  0.87299533937E+02  0.47000000000E+01 0.  1.
          5    1    4    4  503    0 -0.44532796730E+02 -0.22387126203E+02  0.14124497858E+03  0.14985522139E+03  0.47000000000E+01 0. -1.
         -5    1    3    3    0  502  0.29537537714E+02  0.29656495065E+02  0.51384646466E+02  0.66441295338E+02  0.47000000000E+01 0.  1.
<mgrwt>
<rscale>  0 0.11535601E+03</rscale>
<asrwt>0</asrwt>
<pdfrwt beam="1">  1        3 0.77189047E-01 0.11715151E+03</pdfrwt>
<pdfrwt beam="2">  1       -3 0.39842913E-02 0.11715151E+03</pdfrwt>
<totfact> 0.11852041E+03</totfact>
</mgrwt>
</event>
<event>
 8    1  0.5224537E-004  0.1245651E+03  0.7546771E-02  0.1235858E+00
         -1   -1    0    0    0  501 -0.00000000000E+00  0.00000000000E+00  0.19971168235E+03  0.19971168235E+03  0.00000000000E+00 0.  1.
          1   -1    0    0  501    0  0.00000000000E+00 -0.00000000000E+00 -0.13034096579E+03  0.13034096579E+03  0.00000000000E+00 0. -1.
         23    2    1    2    0    0  0.81843041785E+02  0.23550478149E+02  0.13975820507E+03  0.18721328122E+03  0.90904060810E+02 0.  0.
         23    2    1    2    0    0 -0.81843041785E+02 -0.23550478149E+02 -0.70387488503E+02  0.14283936692E+03  0.90530534601E+02 0.  0.
          5    1    4    4  502    0 -0.32389821200E+02  0.21089241967E+02 -0.65086146257E+02  0.75842950093E+02  0.47000000000E+01 0. -1.
         -5    1    4    4    0  502 -0.49453220585E+02 -0.44639720116E+02 -0.53013422457E+01  0.66996416829E+02  0.47000000000E+01 0.  1.
          5    1    3    3  503    0  0.23695588155E+02 -0.34422827814E+02  0.41580572604E+02  0.59139208574E+02  0.47000000000E+01 0.  1.
         -5    1    3    3    0  503  0.58147453631E+02  0.57973305963E+02  0.98177632465E+02  0.12807407265E+03  0.47000000000E+01 0.  1.
<mgrwt>
<rscale>  0 0.12449693E+03</rscale>
<asrwt>0</asrwt>
<pdfrwt beam="1">  1        1 0.20052456E-01 0.12456507E+03</pdfrwt>
<pdfrwt beam="2">  1       -1 0.30724874E-01 0.12456507E+03</pdfrwt>
<totfact> 0.24124451E+03</totfact>
</mgrwt>
</event>
<event>
 8    1  0.5224537E-004  0.1348571E+03  0.7546771E-02  0.1221933E+00
         -4   -1    0    0    0  501 -0.00000000000E+00  0.00000000000E+00  0.30161192802E+03  0.30161192802E+03  0.00000000000E+00 0.  1.
          4   -1    0    0  501    0  0.00000000000E+00 -0.00000000000E+00 -0.58874989173E+02  0.58874989173E+02  0.00000000000E+00 0. -1.
         23    2    1    2    0    0  0.68169653227E+01 -0.10038588597E+03  0.10382557119E+03  0.16688217626E+03  0.83343352477E+02 0.  0.
         23    2    1    2    0    0 -0.68169653227E+01  0.10038588597E+03  0.13891136766E+03  0.19360474094E+03  0.89792151828E+02 0.  0.
          5    1    4    4  502    0  0.19616559607E+02  0.86400525611E+02  0.13706638373E+03  0.16327628054E+03  0.47000000000E+01 0. -1.
         -5    1    3    3    0  503 -0.32896928443E+02 -0.78078282959E+02  0.66813944370E+02  0.10800286725E+03  0.47000000000E+01 0.  1.
          5    1    3    3  503    0  0.39713893766E+02 -0.22307603010E+02  0.37011626817E+02  0.58879309012E+02  0.47000000000E+01 0. -1.
         -5    1    4    4    0  502 -0.26433524930E+02  0.13985360358E+02  0.18449839299E+01  0.30328460401E+02  0.47000000000E+01 0.  1.
<mgrwt>
<rscale>  0 0.13379324E+03</rscale>
<asrwt>0</asrwt>
<pdfrwt beam="1">  1        4 0.90576908E-02 0.13485706E+03</pdfrwt>
<pdfrwt beam="2">  1       -4 0.46401834E-01 0.13485706E+03</pdfrwt>
<totfact> 0.67010235E+02</totfact>
</mgrwt>
</event>
<event>
 8    1  0.5224537E-004  0.9998044E+02  0.7546771E-02  0.1280672E+00
          1   -1    0    0  501    0  0.00000000000E+00  0.00000000000E+00  0.37134960596E+03  0.37134960596E+03  0.00000000000E+00 0. -1.
         -1   -1    0    0    0  501 -0.00000000000E+00 -0.00000000000E+00 -0.29276652306E+02  0.29276652306E+02  0.00000000000E+00 0.  1.
         23    2    1    2    0    0 -0.37405687942E+02 -0.73915873586E+01  0.22941176071E+03  0.24999879287E+03  0.91737775376E+02 0.  0.
         23    2    1    2    0    0  0.37405687942E+02  0.73915873586E+01  0.11266119294E+03  0.15062746539E+03  0.92424390079E+02 0.  0.
          5    1    4    4  502    0  0.17563265864E+02 -0.19223565391E+02  0.11404102782E+03  0.11707031989E+03  0.47000000000E+01 0. -1.
         -5    1    3    3    0  503  0.45548289738E+01  0.36712765437E+02  0.10469631415E+03  0.11113947008E+03  0.47000000000E+01 0.  1.
          5    1    3    3  503    0 -0.41960516915E+02 -0.44104352796E+02  0.12471544656E+03  0.13885932279E+03  0.47000000000E+01 0. -1.
         -5    1    4    4    0  502  0.19842422077E+02  0.26615152750E+02 -0.13798348770E+01  0.33557145499E+02  0.47000000000E+01 0.  1.
<mgrwt>
<rscale>  0 0.99821469E+02</rscale>
<asrwt>0</asrwt>
<pdfrwt beam="1">  1        1 0.57130705E-01 0.99980443E+02</pdfrwt>
<pdfrwt beam="2">  1       -1 0.45041006E-02 0.99980443E+02</pdfrwt>
<totfact> 0.12631783E+04</totfact>
</mgrwt>
</event>
<event>
 8    1  0.5224537E-004  0.1031218E+03  0.7546771E-02  0.1277276E+00
         -1   -1    0    0    0  501 -0.00000000000E+00  0.00000000000E+00  0.46315172051E+02  0.46315172051E+02  0.00000000000E+00 0.  1.
          1   -1    0    0  501    0  0.00000000000E+00 -0.00000000000E+00 -0.30270802020E+03  0.30270802020E+03  0.00000000000E+00 0. -1.
         23    2    1    2    0    0  0.35008849438E+02 -0.38713789675E+01 -0.31478181911E+02  0.10159498101E+03  0.89944744797E+02 0.  0.
         23    2    1    2    0    0 -0.35008849438E+02  0.38713789675E+01 -0.22491466624E+03  0.24742821124E+03  0.96920098603E+02 0.  0.
          5    1    3    3  502    0  0.34228366233E+02 -0.44135250956E+02 -0.18075932194E+02  0.58892535662E+02  0.47000000000E+01 0. -1.
         -5    1    3    3    0  502  0.78048320472E+00  0.40263871988E+02 -0.13402249717E+02  0.42702445352E+02  0.47000000000E+01 0.  1.
          5    1    4    4  503    0 -0.46390237127E+02 -0.28846040366E+02 -0.19103168520E+03  0.19874441601E+03  0.47000000000E+01 0. -1.
         -5    1    4    4    0  503  0.11381387689E+02  0.32717419334E+02 -0.33882981039E+02  0.48683795227E+02  0.47000000000E+01 0.  1.
<mgrwt>
<rscale>  0 0.10145000E+03</rscale>
<asrwt>0</asrwt>
<pdfrwt beam="1">  1        1 0.46570465E-01 0.10312183E+03</pdfrwt>
<pdfrwt beam="2">  1       -1 0.71254111E-02 0.10312183E+03</pdfrwt>
<totfact> 0.82819276E+03</totfact>
</mgrwt>
</event>
<event>
 8    1  0.5224537E-004  0.9565439E+02  0.7546771E-02  0.1290047E+00
          1   -1    0    0  501    0  0.00000000000E+00  0.00000000000E+00  0.51619719300E+02  0.51619719300E+02  0.00000000000E+00 0. -1.
         -1   -1    0    0    0  501 -0.00000000000E+00 -0.00000000000E+00 -0.28778705684E+03  0.28778705684E+03  0.00000000000E+00 0.  1.
         23    2    1    2    0    0  0.23431637297E+02 -0.12977342573E+02 -0.22401384696E+03  0.24358154040E+03  0.91827611031E+02 0.  0.
         23    2    1    2    0    0 -0.23431637297E+02  0.12977342573E+02 -0.12153490580E+02  0.95825235739E+02  0.91199317018E+02 0.  0.
          5    1    4    4  502    0 -0.51926599216E+02  0.26355053163E+02 -0.22127063525E+02  0.62471253178E+02  0.47000000000E+01 0. -1.
         -5    1    4    4    0  502  0.28494961919E+02 -0.13377710590E+02  0.99735729452E+01  0.33353982561E+02  0.47000000000E+01 0.  1.
          5    1    3    3  503    0 -0.33489162155E+02 -0.14245922088E+02 -0.65374847764E+02  0.74969533799E+02  0.47000000000E+01 0. -1.
         -5    1    3    3    0  503  0.56920799452E+02  0.12685795149E+01 -0.15863899920E+03  0.16861200660E+03  0.47000000000E+01 0.  1.
<mgrwt>
<rscale>  0 0.95503288E+02</rscale>
<asrwt>0</asrwt>
<pdfrwt beam="1">  1        1 0.79414953E-02 0.95654395E+02</pdfrwt>
<pdfrwt beam="2">  1       -1 0.44274932E-01 0.95654395E+02</pdfrwt>
<totfact> 0.42181772E+03</totfact>
</mgrwt>
</event>
<event>
 8    1  0.5224537E-004  0.1121416E+03  0.7546771E-02  0.1256857E+00
         -1   -1    0    0    0  501 -0.00000000000E+00  0.00000000000E+00  0.11864003354E+03  0.11864003354E+03  0.00000000000E+00 0.  1.
          1   -1    0    0  501    0  0.00000000000E+00 -0.00000000000E+00 -0.10633585668E+03  0.10633585668E+03  0.00000000000E+00 0. -1.
         23    2    1    2    0    0  0.66726061558E+02 -0.11407274673E+02 -0.33675854566E+01  0.11174456016E+03  0.88842629900E+02 0.  0.
         23    2    1    2    0    0 -0.66726061558E+02  0.11407274673E+02  0.15671762319E+02  0.11323133006E+03  0.89404903477E+02 0.  0.
          5    1    3    3  502    0  0.31208259462E+02 -0.24251530789E+02 -0.41756075498E+02  0.57686671296E+02  0.47000000000E+01 0. -1.
         -5    1    4    4    0  503 -0.78052761441E+02  0.34055347971E+02  0.18653500821E+02  0.87304314824E+02  0.47000000000E+01 0.  1.
          5    1    4    4  503    0  0.11326699883E+02 -0.22648073299E+02 -0.29817385017E+01  0.25927015233E+02  0.47000000000E+01 0. -1.
         -5    1    3    3    0  502  0.35517802097E+02  0.12844256117E+02  0.38388490042E+02  0.54057888866E+02  0.47000000000E+01 0.  1.
<mgrwt>
<rscale>  0 0.11202945E+03</rscale>
<asrwt>0</asrwt>
<pdfrwt beam="1">  1        1 0.16359363E-01 0.11214156E+03</pdfrwt>
<pdfrwt beam="2">  1       -1 0.18252313E-01 0.11214156E+03</pdfrwt>
<totfact> 0.72562619E+03</totfact>
</mgrwt>
</event>
<event>
 8    1  0.5224537E-004  0.9782544E+02  0.7546771E-02  0.1285113E+00
          1   -1    0    0  501    0  0.00000000000E+00  0.00000000000E+00  0.24020983006E+03  0.24020983006E+03  0.00000000000E+00 0. -1.
         -1   -1    0    0    0  501 -0.00000000000E+00 -0.00000000000E+00 -0.11877391705E+03  0.11877391705E+03  0.00000000000E+00 0.  1.
         23    2    1    2    0    0  0.31805005096E+02  0.12688996331E+02 -0.85762991684E+02  0.12985233833E+03  0.91289484881E+02 0.  0.
         23    2    1    2    0    0 -0.31805005096E+02 -0.12688996331E+02  0.20719890470E+03  0.22913140878E+03  0.91636496028E+02 0.  0.
          5    1    3    3  502    0  0.13697759880E+02 -0.19744051843E+02  0.10441328436E+02  0.26618932143E+02  0.47000000000E+01 0. -1.
         -5    1    3    3    0  502  0.18107245216E+02  0.32433048174E+02 -0.96204320119E+02  0.10323340619E+03  0.47000000000E+01 0.  1.
          5    1    4    4  503    0 -0.44537523311E+02  0.21476344624E+02  0.16886811300E+03  0.17602089066E+03  0.47000000000E+01 0. -1.
         -5    1    4    4    0  503  0.12732518215E+02 -0.34165340955E+02  0.38330791699E+02  0.53110518120E+02  0.47000000000E+01 0.  1.
<mgrwt>
<rscale>  0 0.97744091E+02</rscale>
<asrwt>0</asrwt>
<pdfrwt beam="1">  1        1 0.36955358E-01 0.97825438E+02</pdfrwt>
<pdfrwt beam="2">  1       -1 0.18272910E-01 0.97825438E+02</pdfrwt>
<totfact> 0.25968881E+03</totfact>
</mgrwt>
</event>
<event>
 8    1  0.5224537E-004  0.9703378E+02  0.7546771E-02  0.1287950E+00
         -1   -1    0    0    0  501 -0.00000000000E+00  0.00000000000E+00  0.36247376743E+03  0.36247376743E+03  0.00000000000E+00 0.  1.
          1   -1    0    0  501    0  0.00000000000E+00 -0.00000000000E+00 -0.18469611240E+03  0.18469611240E+03  0.00000000000E+00 0. -1.
         23    2    1    2    0    0 -0.17389343054E+02  0.17789745367E+02  0.34314601183E+03  0.35660165527E+03  0.93790675526E+02 0.  0.
         23    2    1    2    0    0  0.17389343054E+02 -0.17789745367E+02 -0.16536835681E+03  0.19056822456E+03  0.91382112514E+02 0.  0.
          5    1    4    4  502    0 -0.28426111938E+02 -0.32691221108E+02 -0.55923861889E+02  0.70896601513E+02  0.47000000000E+01 0. -1.
         -5    1    4    4    0  502  0.45815454992E+02  0.14901475741E+02 -0.10944449492E+03  0.11967162305E+03  0.47000000000E+01 0.  1.
          5    1    3    3  503    0 -0.43848131724E+02  0.25747745798E+02  0.10443807619E+03  0.11625406155E+03  0.47000000000E+01 0. -1.
         -5    1    3    3    0  503  0.26458788670E+02 -0.79580004312E+01  0.23870793564E+03  0.24034759372E+03  0.47000000000E+01 0.  1.
<mgrwt>
<rscale>  0 0.96446969E+02</rscale>
<asrwt>0</asrwt>
<pdfrwt beam="1">  1        1 0.28414787E-01 0.97033783E+02</pdfrwt>
<pdfrwt beam="2">  1       -1 0.55765195E-01 0.97033783E+02</pdfrwt>
<totfact> 0.54351212E+02</totfact>
</mgrwt>
</event>
<event>
 8    1  0.5224537E-004  0.9371150E+02  0.7546771E-02  0.1294504E+00
         -4   -1    0    0    0  501 -0.00000000000E+00  0.00000000000E+00  0.17802005812E+03  0.17802005812E+03  0.00000000000E+00 0.  1.
          4   -1    0    0  501    0  0.00000000000E+00 -0.00000000000E+00 -0.16640885858E+03  0.16640885858E+03  0.00000000000E+00 0. -1.
         23    2    1    2    0    0  0.83868315419E+01  0.18923111435E+02  0.15047436545E+03  0.17690332658E+03  0.90685330715E+02 0.  0.
         23    2    1    2    0    0 -0.83868315419E+01 -0.18923111435E+02 -0.13886316592E+03  0.16752559012E+03  0.91397053593E+02 0.  0.
          5    1    3    3  502    0  0.10601710404E+02 -0.34208344579E+02  0.38142904390E+02  0.52531688128E+02  0.47000000000E+01 0. -1.
         -5    1    4    4    0  503  0.28592434481E+02  0.22437194649E+02 -0.41494096204E+02  0.55360681291E+02  0.47000000000E+01 0.  1.
          5    1    4    4  503    0 -0.36979266023E+02 -0.41360306084E+02 -0.97369069712E+02  0.11216490882E+03  0.47000000000E+01 0. -1.
         -5    1    3    3    0  502 -0.22148788617E+01  0.53131456014E+02  0.11233146107E+03  0.12437163845E+03  0.47000000000E+01 0.  1.
<mgrwt>
<rscale>  0 0.93537509E+02</rscale>
<asrwt>0</asrwt>
<pdfrwt beam="1">  1        4 0.25601363E-01 0.93711496E+02</pdfrwt>
<pdfrwt beam="2">  1       -4 0.27387701E-01 0.93711496E+02</pdfrwt>
<totfact> 0.28002449E+02</totfact>
</mgrwt>
</event>
<event>
 8    1  0.5224537E-004  0.1626370E+03  0.7546771E-02  0.1185956E+00
         -2   -1    0    0    0  501 -0.00000000000E+00  0.00000000000E+00  0.91405730015E+03  0.91405730015E+03  0.00000000000E+00 0.  1.
          2   -1    0    0  501    0  0.00000000000E+00 -0.00000000000E+00 -0.21266713280E+03  0.21266713280E+03  0.00000000000E+00 0. -1.
         23    2    1    2    0    0  0.80927232392E+02  0.10382703098E+03  0.87462339712E+03  0.88961614338E+03  0.95506682840E+02 0.  0.
         23    2    1    2    0    0 -0.80927232392E+02 -0.10382703098E+03 -0.17323322977E+03  0.23710828958E+03  0.94240754381E+02 0.  0.
          5    1    3    3  502    0  0.20639728578E+02 -0.85449166826E+00  0.32081274468E+02  0.38445113126E+02  0.47000000000E+01 0. -1.
         -5    1    4    4    0  503 -0.30885472056E+02 -0.16539073517E+02  0.15459740612E+01  0.35382670515E+02  0.47000000000E+01 0.  1.
          5    1    4    4  503    0 -0.50041760336E+02 -0.87287957462E+02 -0.17477920383E+03  0.20172561906E+03  0.47000000000E+01 0. -1.
         -5    1    3    3    0  502  0.60287503814E+02  0.10468152265E+03  0.84254212265E+03  0.85117103025E+03  0.47000000000E+01 0.  1.
<mgrwt>
<rscale>  0 0.16245165E+03</rscale>
<asrwt>0</asrwt>
<pdfrwt beam="1">  1        2 0.32718021E-01 0.16263701E+03</pdfrwt>
<pdfrwt beam="2">  1       -2 0.14062420E+00 0.16263701E+03</pdfrwt>
<totfact> 0.61044108E+01</totfact>
</mgrwt>
</event>
<event>
 8    1  0.5224537E-004  0.1190936E+03  0.7546771E-02  0.1244816E+00
         -2   -1    0    0    0  501 -0.00000000000E+00  0.00000000000E+00  0.10008092760E+03  0.10008092760E+03  0.00000000000E+00 0.  1.
          2   -1    0    0  501    0  0.00000000000E+00 -0.00000000000E+00 -0.29311962938E+03  0.29311962938E+03  0.00000000000E+00 0. -1.
         23    2    1    2    0    0 -0.35888950371E+02  0.67732968437E+02 -0.23820148505E+03  0.26631414417E+03  0.91145510791E+02 0.  0.
         23    2    1    2    0    0  0.35888950371E+02 -0.67732968437E+02  0.45162783266E+02  0.12688641281E+03  0.90469403625E+02 0.  0.
          5    1    3    3  502    0 -0.61952422203E+02  0.44002150934E+02 -0.20059503862E+03  0.21455710527E+03  0.47000000000E+01 0. -1.
         -5    1    4    4    0  503  0.30789561423E+02  0.14734150441E+02  0.22249027473E+02  0.41014649887E+02  0.47000000000E+01 0.  1.
          5    1    4    4  503    0  0.50993889476E+01 -0.82467118877E+02  0.22913755794E+02  0.85871762927E+02  0.47000000000E+01 0. -1.
         -5    1    3    3    0  502  0.26063471832E+02  0.23730817503E+02 -0.37606446429E+02  0.51757038905E+02  0.47000000000E+01 0.  1.
<mgrwt>
<rscale>  0 0.11896419E+03</rscale>
<asrwt>0</asrwt>
<pdfrwt beam="1">  1        2 0.45095327E-01 0.11909356E+03</pdfrwt>
<pdfrwt beam="2">  1       -2 0.15397066E-01 0.11909356E+03</pdfrwt>
<totfact> 0.35236200E+03</totfact>
</mgrwt>
</event>
<event>
 8    1  0.5224537E-004  0.1156037E+03  0.7546771E-02  0.1250880E+00
          1   -1    0    0  501    0  0.00000000000E+00  0.00000000000E+00  0.24590660224E+02  0.24590660224E+02  0.00000000000E+00 0. -1.
         -1   -1    0    0    0  501 -0.00000000000E+00 -0.00000000000E+00 -0.53972665648E+03  0.53972665648E+03  0.00000000000E+00 0.  1.
         23    2    1    2    0    0 -0.49128481761E+02 -0.50905533230E+02 -0.25857115517E+03  0.28291059625E+03  0.90412289805E+02 0.  0.
         23    2    1    2    0    0  0.49128481761E+02  0.50905533230E+02 -0.25656484108E+03  0.28140672046E+03  0.91428899178E+02 0.  0.
          5    1    3    3  502    0 -0.39034669402E+02  0.18809414854E+02 -0.84773608787E+02  0.95321321063E+02  0.47000000000E+01 0. -1.
         -5    1    4    4    0  503 -0.13444749936E-01  0.48576444338E+02 -0.20189512115E+03  0.20770989641E+03  0.47000000000E+01 0. -1.
          5    1    4    4  503    0  0.49141926511E+02  0.23290888921E+01 -0.54669719939E+02  0.73696824047E+02  0.47000000000E+01 0.  1.
         -5    1    3    3    0  502 -0.10093812359E+02 -0.69714948084E+02 -0.17379754639E+03  0.18758927519E+03  0.47000000000E+01 0.  1.
<mgrwt>
<rscale>  0 0.11540263E+03</rscale>
<asrwt>0</asrwt>
<pdfrwt beam="1">  1        1 0.37831786E-02 0.11560374E+03</pdfrwt>
<pdfrwt beam="2">  1       -1 0.83034869E-01 0.11560374E+03</pdfrwt>
<totfact> 0.35270857E+03</totfact>
</mgrwt>
</event>
<event>
 8    1  0.5224537E-004  0.1223028E+03  0.7546771E-02  0.1239471E+00
         -3   -1    0    0    0  501 -0.00000000000E+00  0.00000000000E+00  0.90159193712E+03  0.90159193712E+03  0.00000000000E+00 0.  1.
          3   -1    0    0  501    0  0.00000000000E+00 -0.00000000000E+00 -0.22517388726E+02  0.22517388726E+02  0.00000000000E+00 0. -1.
         23    2    1    2    0    0  0.42645139943E+02  0.67210557245E+02  0.20123717367E+03  0.23532671272E+03  0.92446712691E+02 0.  0.
         23    2    1    2    0    0 -0.42645139943E+02 -0.67210557245E+02  0.67783737473E+03  0.68878261313E+03  0.92855342363E+02 0.  0.
          5    1    4    4  502    0  0.72050956226E+01 -0.70816856912E+02  0.43498974150E+03  0.44080052840E+03  0.47000000000E+01 0. -1.
         -5    1    4    4    0  502 -0.49850235566E+02  0.36062996664E+01  0.24284763323E+03  0.24798208473E+03  0.47000000000E+01 0.  1.
          5    1    3    3  503    0  0.45054980122E+02  0.29051206020E+01  0.35987656079E+02  0.57927474911E+02  0.47000000000E+01 0. -1.
         -5    1    3    3    0  503 -0.24098401788E+01  0.64305436643E+02  0.16524951759E+03  0.17739923781E+03  0.47000000000E+01 0.  1.
<mgrwt>
<rscale>  0 0.12222527E+03</rscale>
<asrwt>0</asrwt>
<pdfrwt beam="1">  1        3 0.34642143E-02 0.12230283E+03</pdfrwt>
<pdfrwt beam="2">  1       -3 0.13870642E+00 0.12230283E+03</pdfrwt>
<totfact> 0.38885776E+02</totfact>
</mgrwt>
</event>
<event>
 8    1  0.5224537E-004  0.1067085E+03  0.7546771E-02  0.1270502E+00
         -1   -1    0    0    0  501 -0.00000000000E+00  0.00000000000E+00  0.56636540554E+02  0.56636540554E+02  0.00000000000E+00 0.  1.
          1   -1    0    0  501    0  0.00000000000E+00 -0.00000000000E+00 -0.24222572821E+03  0.24222572821E+03  0.00000000000E+00 0. -1.
         23    2    1    2    0    0  0.36797301301E+02 -0.23066573556E+02 -0.16647426327E+03  0.19773818526E+03  0.97471028403E+02 0.  0.
         23    2    1    2    0    0 -0.36797301301E+02  0.23066573556E+02 -0.19114924383E+02  0.10112408351E+03  0.89300569606E+02 0.  0.
          5    1    3    3  502    0 -0.17930984825E+02 -0.18509297562E+02 -0.12767160991E+03  0.13033128668E+03  0.47000000000E+01 0. -1.
         -5    1    4    4    0  503  0.75611931600E+01  0.45915645153E+02 -0.20313031029E+02  0.50991443806E+02  0.47000000000E+01 0.  1.
          5    1    4    4  503    0 -0.44358494461E+02 -0.22849071597E+02  0.11981066458E+01  0.50132639700E+02  0.47000000000E+01 0. -1.
         -5    1    3    3    0  502  0.54728286126E+02 -0.45572759936E+01 -0.38802653366E+02  0.67406898571E+02  0.47000000000E+01 0.  1.
<mgrwt>
<rscale>  0 0.10480640E+03</rscale>
<asrwt>0</asrwt>
<pdfrwt beam="1">  1        1 0.37265496E-01 0.10670853E+03</pdfrwt>
<pdfrwt beam="2">  1       -1 0.87133140E-02 0.10670853E+03</pdfrwt>
<totfact> 0.80752439E+03</totfact>
</mgrwt>
</event>
<event>
 8    1  0.5224537E-004  0.1096061E+03  0.7546771E-02  0.1261741E+00
          2   -1    0    0  501    0  0.00000000000E+00  0.00000000000E+00  0.28447628673E+03  0.28447628673E+03  0.00000000000E+00 0. -1.
         -2   -1    0    0    0  501 -0.00000000000E+00 -0.00000000000E+00 -0.52770362880E+02  0.52770362880E+02  0.00000000000E+00 0.  1.
         23    2    1    2    0    0  0.59052949137E+02 -0.12990547368E+02  0.19289088610E+03  0.22185666701E+03  0.91419262925E+02 0.  0.
         23    2    1    2    0    0 -0.59052949137E+02  0.12990547368E+02  0.38815037757E+02  0.11538998261E+03  0.90289732567E+02 0.  0.
          5    1    3    3  502    0  0.61361463850E+02  0.28204920672E+02  0.12838369567E+03  0.14513858932E+03  0.47000000000E+01 0. -1.
         -5    1    3    3    0  502 -0.23085147129E+01 -0.41195468041E+02  0.64507190427E+02  0.76718077687E+02  0.47000000000E+01 0.  1.
          5    1    4    4  503    0 -0.20421788744E+02  0.45758024584E+02  0.40329492785E+02  0.64493443525E+02  0.47000000000E+01 0. -1.
         -5    1    4    4    0  503 -0.38631160393E+02 -0.32767477216E+02 -0.15144550286E+01  0.50896539081E+02  0.47000000000E+01 0.  1.
<mgrwt>
<rscale>  0 0.10937021E+03</rscale>
<asrwt>0</asrwt>
<pdfrwt beam="1">  1        2 0.43765582E-01 0.10960605E+03</pdfrwt>
<pdfrwt beam="2">  1       -2 0.81185175E-02 0.10960605E+03</pdfrwt>
<totfact> 0.99530022E+03</totfact>
</mgrwt>
</event>
<event>
 8    1  0.5224537E-004  0.1410687E+03  0.7546771E-02  0.1212092E+00
          1   -1    0    0  501    0  0.00000000000E+00  0.00000000000E+00  0.13927228461E+03  0.13927228461E+03  0.00000000000E+00 0. -1.
         -1   -1    0    0    0  501 -0.00000000000E+00 -0.00000000000E+00 -0.14851724173E+03  0.14851724173E+03  0.00000000000E+00 0.  1.
         23    2    1    2    0    0  0.39967187182E+02 -0.96967921521E+02  0.24809145170E+02  0.14323362812E+03  0.94341002140E+02 0.  0.
         23    2    1    2    0    0 -0.39967187182E+02  0.96967921521E+02 -0.34054102296E+02  0.14455589822E+03  0.93469631282E+02 0.  0.
          5    1    4    4  502    0  0.33309304990E+01  0.34578035132E+02  0.29189356155E+02  0.45616270390E+02  0.47000000000E+01 0. -1.
         -5    1    4    4    0  502 -0.43298117681E+02  0.62389886389E+02 -0.63243458452E+02  0.98939627831E+02  0.47000000000E+01 0.  1.
          5    1    3    3  503    0  0.14503975392E+02 -0.10952388120E+03  0.10448905858E+02  0.11107256857E+03  0.47000000000E+01 0. -1.
         -5    1    3    3    0  503  0.25463211790E+02  0.12555959680E+02  0.14360239312E+02  0.32161059548E+02  0.47000000000E+01 0.  1.
<mgrwt>
<rscale>  0 0.14092317E+03</rscale>
<asrwt>0</asrwt>
<pdfrwt beam="1">  1        1 0.21426505E-01 0.14106870E+03</pdfrwt>
<pdfrwt beam="2">  1       -1 0.22848807E-01 0.14106870E+03</pdfrwt>
<totfact> 0.36420021E+03</totfact>
</mgrwt>
</event>
<event>
 8    1  0.5224537E-004  0.1420985E+03  0.7546771E-02  0.1212606E+00
         -3   -1    0    0    0  501 -0.00000000000E+00  0.00000000000E+00  0.70142646244E+03  0.70142646244E+03  0.00000000000E+00 0.  1.
          3   -1    0    0  501    0  0.00000000000E+00 -0.00000000000E+00 -0.50175471571E+02  0.50175471571E+02  0.00000000000E+00 0. -1.
         23    2    1    2    0    0 -0.98492426824E+02  0.33865900630E+02  0.69394895101E+02  0.15264575075E+03  0.87392313094E+02 0.  0.
         23    2    1    2    0    0  0.98492426824E+02 -0.33865900630E+02  0.58185609576E+03  0.59895618326E+03  0.96666105335E+02 0.  0.
          5    1    3    3  502    0 -0.85511225958E+02  0.56041628160E+02  0.32390586366E+02  0.10735023957E+03  0.47000000000E+01 0. -1.
         -5    1    3    3    0  502 -0.12981200866E+02 -0.22175727530E+02  0.37004308734E+02  0.45295511172E+02  0.47000000000E+01 0.  1.
          5    1    4    4  503    0 -0.11497232349E+02  0.16495250683E+02  0.70265077964E+02  0.73236267164E+02  0.47000000000E+01 0.  1.
         -5    1    4    4    0  503  0.10998965917E+03 -0.50361151313E+02  0.51159101780E+03  0.52571991610E+03  0.47000000000E+01 0.  1.
<mgrwt>
<rscale>  0 0.14053835E+03</rscale>
<asrwt>0</asrwt>
<pdfrwt beam="1">  1        3 0.77193038E-02 0.14209853E+03</pdfrwt>
<pdfrwt beam="2">  1       -3 0.10791176E+00 0.14209853E+03</pdfrwt>
<totfact> 0.20176599E+02</totfact>
</mgrwt>
</event>
<event>
 8    1  0.5224537E-004  0.9726692E+02  0.7546771E-02  0.1287393E+00
         -1   -1    0    0    0  501 -0.00000000000E+00  0.00000000000E+00  0.32551162101E+02  0.32551162101E+02  0.00000000000E+00 0.  1.
          1   -1    0    0  501    0  0.00000000000E+00 -0.00000000000E+00 -0.29548767721E+03  0.29548767721E+03  0.00000000000E+00 0. -1.
         23    2    1    2    0    0 -0.88500720487E+01 -0.23830453626E+02 -0.16237797708E+03  0.18813575294E+03  0.91554572795E+02 0.  0.
         23    2    1    2    0    0  0.88500720487E+01  0.23830453626E+02 -0.10055853803E+03  0.13990308637E+03  0.93886312684E+02 0.  0.
          5    1    4    4  502    0  0.43472416728E+02  0.17511194462E+02 -0.92034796676E+02  0.10338755605E+03  0.47000000000E+01 0. -1.
         -5    1    3    3    0  503 -0.39270431161E+02 -0.29462637008E+02 -0.14315131929E+03  0.15140873145E+03  0.47000000000E+01 0.  1.
          5    1    3    3  503    0  0.30420359113E+02  0.56321833822E+01 -0.19226657782E+02  0.36727021492E+02  0.47000000000E+01 0. -1.
         -5    1    4    4    0  502 -0.34622344679E+02  0.63192591645E+01 -0.85237413549E+01  0.36515530315E+02  0.47000000000E+01 0.  1.
<mgrwt>
<rscale>  0 0.96699795E+02</rscale>
<asrwt>0</asrwt>
<pdfrwt beam="1">  1        1 0.45459642E-01 0.97266921E+02</pdfrwt>
<pdfrwt beam="2">  1       -1 0.50078712E-02 0.97266921E+02</pdfrwt>
<totfact> 0.14290948E+04</totfact>
</mgrwt>
</event>
<event>
 8    1  0.5224537E-004  0.1041263E+03  0.7546771E-02  0.1271894E+00
         -1   -1    0    0    0  501 -0.00000000000E+00  0.00000000000E+00  0.16829000828E+03  0.16829000828E+03  0.00000000000E+00 0.  1.
          1   -1    0    0  501    0  0.00000000000E+00 -0.00000000000E+00 -0.75025415644E+02  0.75025415644E+02  0.00000000000E+00 0. -1.
         23    2    1    2    0    0  0.22549518936E+02  0.40515831331E+02  0.92491059507E+02  0.13927267557E+03  0.93232337083E+02 0.  0.
         23    2    1    2    0    0 -0.22549518936E+02 -0.40515831331E+02  0.77353313050E+00  0.10404274836E+03  0.93135824151E+02 0.  0.
          5    1    4    4  502    0  0.25180446996E+02  0.13357011639E+02 -0.11091750372E+02  0.30944815352E+02  0.47000000000E+01 0. -1.
         -5    1    4    4    0  502 -0.47729965932E+02 -0.53872842970E+02  0.11865283503E+02  0.73097933008E+02  0.47000000000E+01 0.  1.
          5    1    3    3  503    0  0.48118027055E+02  0.12138215428E+02  0.87176991950E+02  0.10042210278E+03  0.47000000000E+01 0. -1.
         -5    1    3    3    0  503 -0.25568508119E+02  0.28377615903E+02  0.53140675575E+01  0.38850572786E+02  0.47000000000E+01 0.  1.
<mgrwt>
<rscale>  0 0.10410467E+03</rscale>
<asrwt>0</asrwt>
<pdfrwt beam="1">  1        1 0.11542372E-01 0.10412628E+03</pdfrwt>
<pdfrwt beam="2">  1       -1 0.25890770E-01 0.10412628E+03</pdfrwt>
<totfact> 0.64498129E+03</totfact>
</mgrwt>
</event>
<event>
 8    1  0.5224537E-004  0.9205025E+02  0.7546771E-02  0.1297980E+00
         -2   -1    0    0    0  501 -0.00000000000E+00  0.00000000000E+00  0.30444607117E+02  0.30444607117E+02  0.00000000000E+00 0.  1.
          2   -1    0    0  501    0  0.00000000000E+00 -0.00000000000E+00 -0.58183153212E+03  0.58183153212E+03  0.00000000000E+00 0. -1.
         23    2    1    2    0    0  0.75055651705E+01  0.85761209154E+01 -0.49686118568E+03  0.50531602645E+03  0.91342024242E+02 0.  0.
         23    2    1    2    0    0 -0.75055651705E+01 -0.85761209154E+01 -0.54525739329E+02  0.10696011279E+03  0.91310054873E+02 0.  0.
          5    1    4    4  502    0  0.41446203326E+02 -0.63422857429E+01 -0.19113962909E+02  0.46318958717E+02  0.47000000000E+01 0. -1.
         -5    1    4    4    0  502 -0.48951768496E+02 -0.22338351726E+01 -0.35411776420E+02  0.60641154076E+02  0.47000000000E+01 0.  1.
          5    1    3    3  503    0 -0.20146459933E+02  0.42655567594E+02 -0.28362282871E+03  0.28755760512E+03  0.47000000000E+01 0. -1.
         -5    1    3    3    0  503  0.27652025104E+02 -0.34079446678E+02 -0.21323835697E+03  0.21775842133E+03  0.47000000000E+01 0.  1.
<mgrwt>
<rscale>  0 0.92042319E+02</rscale>
<asrwt>0</asrwt>
<pdfrwt beam="1">  1        2 0.89512541E-01 0.92050251E+02</pdfrwt>
<pdfrwt beam="2">  1       -2 0.46837858E-02 0.92050251E+02</pdfrwt>
<totfact> 0.10483759E+04</totfact>
</mgrwt>
</event>
<event>
 8    1  0.5224537E-004  0.1001321E+03  0.7546771E-02  0.1281871E+00
          1   -1    0    0  501    0  0.00000000000E+00  0.00000000000E+00  0.72585224806E+02  0.72585224806E+02  0.00000000000E+00 0. -1.
         -1   -1    0    0    0  501 -0.00000000000E+00 -0.00000000000E+00 -0.20675225766E+03  0.20675225766E+03  0.00000000000E+00 0.  1.
         23    2    1    2    0    0  0.18108125796E+02  0.15145723804E+02 -0.14950739533E+03  0.17803711275E+03  0.93741426739E+02 0.  0.
         23    2    1    2    0    0 -0.18108125796E+02 -0.15145723804E+02  0.15340362484E+02  0.10130036971E+03  0.97309511422E+02 0.  0.
          5    1    3    3  502    0 -0.15009826565E+02 -0.30450168070E+02 -0.28901683873E+02  0.44831963594E+02  0.47000000000E+01 0. -1.
         -5    1    4    4    0  503 -0.45893023424E+02 -0.28675719473E-01 -0.22856329809E+02  0.51484679601E+02  0.47000000000E+01 0.  1.
          5    1    4    4  503    0  0.27784897628E+02 -0.15117048084E+02  0.38196692294E+02  0.49815690110E+02  0.47000000000E+01 0. -1.
         -5    1    3    3    0  502  0.33117952362E+02  0.45595891874E+02 -0.12060571146E+03  0.13320514916E+03  0.47000000000E+01 0.  1.
<mgrwt>
<rscale>  0 0.99254677E+02</rscale>
<asrwt>0</asrwt>
<pdfrwt beam="1">  1        1 0.11166958E-01 0.10013210E+03</pdfrwt>
<pdfrwt beam="2">  1       -1 0.31808039E-01 0.10013210E+03</pdfrwt>
<totfact> 0.47728570E+03</totfact>
</mgrwt>
</event>
<event>
 8    1  0.5224537E-004  0.2580489E+03  0.7546771E-02  0.1108480E+00
          2   -1    0    0  501    0  0.00000000000E+00  0.00000000000E+00  0.75862208725E+03  0.75862208725E+03  0.00000000000E+00 0. -1.
         -2   -1    0    0    0  501 -0.00000000000E+00 -0.00000000000E+00 -0.22890005975E+03  0.22890005975E+03  0.00000000000E+00 0.  1.
         23    2    1    2    0    0  0.19217437198E+03 -0.14637863828E+03  0.65284078623E+03  0.70160700213E+03  0.87713159081E+02 0.  0.
         23    2    1    2    0    0 -0.19217437198E+03  0.14637863828E+03 -0.12311875873E+03  0.28591514488E+03  0.90727869645E+02 0.  0.
          5    1    3    3  502    0  0.55770421214E+02 -0.78032456332E+02  0.17041131207E+03  0.19560549431E+03  0.47000000000E+01 0. -1.
         -5    1    4    4    0  503 -0.16679757882E+03  0.99471590021E+02 -0.60363480286E+02  0.20342534078E+03  0.47000000000E+01 0.  1.
          5    1    4    4  503    0 -0.25376793163E+02  0.46907048255E+02 -0.62755278440E+02  0.82489804093E+02  0.47000000000E+01 0. -1.
         -5    1    3    3    0  502  0.13640395077E+03 -0.68346181943E+02  0.48242947416E+03  0.50600150781E+03  0.47000000000E+01 0.  1.
<mgrwt>
<rscale>  0 0.25778740E+03</rscale>
<asrwt>0</asrwt>
<pdfrwt beam="1">  1        2 0.11671109E+00 0.25804891E+03</pdfrwt>
<pdfrwt beam="2">  1       -2 0.35215394E-01 0.25804891E+03</pdfrwt>
<totfact> 0.29098503E+02</totfact>
</mgrwt>
</event>
<event>
 8    1  0.5224537E-004  0.9176431E+02  0.7546771E-02  0.1299085E+00
         -1   -1    0    0    0  501 -0.00000000000E+00  0.00000000000E+00  0.18384548047E+03  0.18384548047E+03  0.00000000000E+00 0.  1.
          1   -1    0    0  501    0  0.00000000000E+00 -0.00000000000E+00 -0.50020921504E+02  0.50020921504E+02  0.00000000000E+00 0. -1.
         23    2    1    2    0    0  0.13455596562E+02 -0.48998158498E+01  0.10210718235E+03  0.13677531006E+03  0.89869613769E+02 0.  0.
         23    2    1    2    0    0 -0.13455596562E+02  0.48998158498E+01  0.31717376616E+02  0.97091091920E+02  0.90640095303E+02 0.  0.
          5    1    3    3  502    0 -0.28608800917E+02 -0.14559822603E+02  0.84198514443E+01  0.33517694171E+02  0.47000000000E+01 0. -1.
         -5    1    4    4    0  503 -0.68692413174E+01  0.42226525740E+02  0.39149476179E+02  0.58181074564E+02  0.47000000000E+01 0.  1.
          5    1    4    4  503    0 -0.65863552448E+01 -0.37326709890E+02 -0.74320995635E+01  0.38910017355E+02  0.47000000000E+01 0. -1.
         -5    1    3    3    0  502  0.42064397480E+02  0.96600067532E+01  0.93687330907E+02  0.10325761589E+03  0.47000000000E+01 0.  1.
<mgrwt>
<rscale>  0 0.91573472E+02</rscale>
<asrwt>0</asrwt>
<pdfrwt beam="1">  1        1 0.76955265E-02 0.91764308E+02</pdfrwt>
<pdfrwt beam="2">  1       -1 0.28283920E-01 0.91764308E+02</pdfrwt>
<totfact> 0.94080137E+03</totfact>
</mgrwt>
</event>
<event>
 8    1  0.5224537E-004  0.1311605E+03  0.7546771E-02  0.1226526E+00
          2   -1    0    0  501    0  0.00000000000E+00  0.00000000000E+00  0.16798788131E+03  0.16798788131E+03  0.00000000000E+00 0. -1.
         -2   -1    0    0    0  501 -0.00000000000E+00 -0.00000000000E+00 -0.11048141945E+03  0.11048141945E+03  0.00000000000E+00 0.  1.
         23    2    1    2    0    0  0.90162728227E+02  0.17423026660E+02  0.69835719349E+02  0.14673058012E+03  0.90663973150E+02 0.  0.
         23    2    1    2    0    0 -0.90162728227E+02 -0.17423026660E+02 -0.12329257494E+02  0.13173872064E+03  0.93649348667E+02 0.  0.
          5    1    3    3  502    0  0.86277449515E+02  0.41773339735E+02  0.74123222754E+02  0.12126480264E+03  0.47000000000E+01 0. -1.
         -5    1    3    3    0  502  0.38852787114E+01 -0.24350313074E+02 -0.42875034057E+01  0.25465777486E+02  0.47000000000E+01 0.  1.
          5    1    4    4  503    0  0.98477332586E+01 -0.24662926450E+02 -0.15873881050E+02  0.31293895427E+02  0.47000000000E+01 0. -1.
         -5    1    4    4    0  503 -0.10001046149E+03  0.72398997899E+01  0.35446235565E+01  0.10044482521E+03  0.47000000000E+01 0.  1.
<mgrwt>
<rscale>  0 0.13062862E+03</rscale>
<asrwt>0</asrwt>
<pdfrwt beam="1">  1        2 0.25844289E-01 0.13116051E+03</pdfrwt>
<pdfrwt beam="2">  1       -2 0.16997141E-01 0.13116051E+03</pdfrwt>
<totfact> 0.54703692E+03</totfact>
</mgrwt>
</event>
<event>
 8    1  0.5224537E-004  0.9989816E+02  0.7546771E-02  0.1280823E+00
         -3   -1    0    0    0  501 -0.00000000000E+00  0.00000000000E+00  0.48246919631E+03  0.48246919631E+03  0.00000000000E+00 0.  1.
          3   -1    0    0  501    0  0.00000000000E+00 -0.00000000000E+00 -0.21010707946E+02  0.21010707946E+02  0.00000000000E+00 0. -1.
         23    2    1    2    0    0 -0.11555362787E+02 -0.39114854505E+02  0.19461406463E+03  0.21875620355E+03  0.91192895489E+02 0.  0.
         23    2    1    2    0    0  0.11555362787E+02  0.39114854505E+02  0.26684442373E+03  0.28472370071E+03  0.90543586263E+02 0.  0.
          5    1    4    4  502    0 -0.15134531482E+02  0.21910197887E+02  0.15159959675E+02  0.31000406320E+02  0.47000000000E+01 0. -1.
         -5    1    4    4    0  502  0.26689894269E+02  0.17204656618E+02  0.25168446406E+03  0.25372329439E+03  0.47000000000E+01 0.  1.
          5    1    3    3  503    0 -0.26870434683E+02  0.15512539536E+02  0.25874232165E+02  0.40672165335E+02  0.47000000000E+01 0. -1.
         -5    1    3    3    0  503  0.15315071896E+02 -0.54627394040E+02  0.16873983246E+03  0.17808403822E+03  0.47000000000E+01 0.  1.
<mgrwt>
<rscale>  0 0.99749736E+02</rscale>
<asrwt>0</asrwt>
<pdfrwt beam="1">  1        3 0.32324170E-02 0.99898160E+02</pdfrwt>
<pdfrwt beam="2">  1       -3 0.74226022E-01 0.99898160E+02</pdfrwt>
<totfact> 0.17285323E+03</totfact>
</mgrwt>
</event>
<event>
 8    1  0.5224537E-004  0.9905398E+02  0.7546771E-02  0.1285660E+00
          1   -1    0    0  501    0  0.00000000000E+00  0.00000000000E+00  0.97492270168E+02  0.97492270168E+02  0.00000000000E+00 0. -1.
         -1   -1    0    0    0  501 -0.00000000000E+00 -0.00000000000E+00 -0.11468038656E+03  0.11468038656E+03  0.00000000000E+00 0.  1.
         23    2    1    2    0    0  0.29864866737E+02  0.25215402822E+02 -0.53262084866E+02  0.11246573511E+03  0.91016290213E+02 0.  0.
         23    2    1    2    0    0 -0.29864866737E+02 -0.25215402822E+02  0.36073968478E+02  0.99706921617E+02  0.84335118496E+02 0.  0.
          5    1    3    3  502    0  0.42411544078E+02  0.73222662113E+01  0.10795069097E+02  0.44620378420E+02  0.47000000000E+01 0. -1.
         -5    1    4    4    0  503  0.49681295526E+01 -0.49512535346E+02  0.15867209314E+02  0.52440745599E+02  0.47000000000E+01 0. -1.
          5    1    4    4  503    0 -0.34832996290E+02  0.24297132523E+02  0.20206759165E+02  0.47266176018E+02  0.47000000000E+01 0.  1.
         -5    1    3    3    0  502 -0.12546677341E+02  0.17893136611E+02 -0.64057153963E+02  0.67845356687E+02  0.47000000000E+01 0.  1.
<mgrwt>
<rscale>  0 0.97492017E+02</rscale>
<asrwt>0</asrwt>
<pdfrwt beam="1">  1        1 0.14998811E-01 0.99053985E+02</pdfrwt>
<pdfrwt beam="2">  1       -1 0.17643136E-01 0.99053985E+02</pdfrwt>
<totfact> 0.84689835E+03</totfact>
</mgrwt>
</event>
<event>
 8    1  0.5224537E-004  0.1097904E+03  0.7546771E-02  0.1261655E+00
          2   -1    0    0  501    0  0.00000000000E+00  0.00000000000E+00  0.54806443764E+03  0.54806443764E+03  0.00000000000E+00 0. -1.
         -2   -1    0    0    0  501 -0.00000000000E+00 -0.00000000000E+00 -0.28958873699E+02  0.28958873699E+02  0.00000000000E+00 0.  1.
         23    2    1    2    0    0 -0.47540064452E+01  0.58837710528E+02  0.11374035854E+03  0.15705320520E+03  0.90798476554E+02 0.  0.
         23    2    1    2    0    0  0.47540064452E+01 -0.58837710528E+02  0.40536520541E+03  0.41997010615E+03  0.92571397012E+02 0.  0.
          5    1    4    4  502    0 -0.34504395588E+02  0.28223417953E+01  0.16651877679E+03  0.17014438560E+03  0.47000000000E+01 0. -1.
         -5    1    3    3    0  503  0.40961290879E+02  0.41046354438E+02  0.71243657913E+02  0.91980320482E+02  0.47000000000E+01 0.  1.
          5    1    3    3  503    0 -0.45715297325E+02  0.17791356090E+02  0.42496700625E+02  0.65072884714E+02  0.47000000000E+01 0. -1.
         -5    1    4    4    0  502  0.39258402033E+02 -0.61660052323E+02  0.23884642862E+03  0.24982572055E+03  0.47000000000E+01 0.  1.
<mgrwt>
<rscale>  0 0.10941586E+03</rscale>
<asrwt>0</asrwt>
<pdfrwt beam="1">  1        2 0.84317598E-01 0.10979044E+03</pdfrwt>
<pdfrwt beam="2">  1       -2 0.44552118E-02 0.10979044E+03</pdfrwt>
<totfact> 0.12233353E+04</totfact>
</mgrwt>
</event>
<event>
 8    1  0.5224537E-004  0.9416567E+02  0.7546771E-02  0.1297162E+00
          2   -1    0    0  501    0  0.00000000000E+00  0.00000000000E+00  0.56745359153E+03  0.56745359153E+03  0.00000000000E+00 0. -1.
         -2   -1    0    0    0  501 -0.00000000000E+00 -0.00000000000E+00 -0.19404401644E+02  0.19404401644E+02  0.00000000000E+00 0.  1.
         23    2    1    2    0    0  0.40587082727E+01 -0.21965886358E+02  0.11883386429E+03  0.14743454221E+03  0.84359253531E+02 0.  0.
         23    2    1    2    0    0 -0.40587082727E+01  0.21965886358E+02  0.42921532559E+03  0.43942345096E+03  0.91477867598E+02 0.  0.
          5    1    4    4  502    0 -0.30306336977E+02 -0.12503523668E+02  0.32186738993E+03  0.32356686923E+03  0.47000000000E+01 0. -1.
         -5    1    4    4    0  502  0.26247628704E+02  0.34469410026E+02  0.10734793566E+03  0.11585658173E+03  0.47000000000E+01 0.  1.
          5    1    3    3  503    0  0.38143937298E+02 -0.28242658794E+02  0.44261412483E+02  0.65067429358E+02  0.47000000000E+01 0. -1.
         -5    1    3    3    0  503 -0.34085229025E+02  0.62767724358E+01  0.74572451812E+02  0.82367112849E+02  0.47000000000E+01 0.  1.
<mgrwt>
<rscale>  0 0.92391379E+02</rscale>
<asrwt>0</asrwt>
<pdfrwt beam="1">  1        2 0.87300540E-01 0.94165671E+02</pdfrwt>
<pdfrwt beam="2">  1       -2 0.29852930E-02 0.94165671E+02</pdfrwt>
<totfact> 0.20916409E+04</totfact>
</mgrwt>
</event>
<event>
 8    1  0.5224537E-004  0.1032373E+03  0.7546771E-02  0.1275636E+00
          1   -1    0    0  501    0  0.00000000000E+00  0.00000000000E+00  0.29367156589E+03  0.29367156589E+03  0.00000000000E+00 0. -1.
         -1   -1    0    0    0  501 -0.00000000000E+00 -0.00000000000E+00 -0.35384890796E+02  0.35384890796E+02  0.00000000000E+00 0.  1.
         23    2    1    2    0    0 -0.38733903266E+02  0.22849213971E+02  0.10815188743E+03  0.14685219487E+03  0.88579537940E+02 0.  0.
         23    2    1    2    0    0  0.38733903266E+02 -0.22849213971E+02  0.15013478766E+03  0.18220426182E+03  0.92927588564E+02 0.  0.
          5    1    4    4  502    0  0.11165599701E+02 -0.48321271815E+02  0.13028621444E+03  0.13948549602E+03  0.47000000000E+01 0. -1.
         -5    1    4    4    0  502  0.27568303565E+02  0.25472057844E+02  0.19848573223E+02  0.42718765798E+02  0.47000000000E+01 0.  1.
          5    1    3    3  503    0 -0.48568182296E+01 -0.30299191208E+02  0.15504329266E+02  0.34700200247E+02  0.47000000000E+01 0. -1.
         -5    1    3    3    0  503 -0.33877085036E+02  0.53148405179E+02  0.92647558168E+02  0.11215199462E+03  0.47000000000E+01 0.  1.
<mgrwt>
<rscale>  0 0.10224925E+03</rscale>
<asrwt>0</asrwt>
<pdfrwt beam="1">  1        1 0.45180239E-01 0.10323729E+03</pdfrwt>
<pdfrwt beam="2">  1       -1 0.54438296E-02 0.10323729E+03</pdfrwt>
<totfact> 0.12807359E+04</totfact>
</mgrwt>
</event>
<event>
 8    1  0.5224537E-004  0.1180783E+03  0.7546771E-02  0.1246382E+00
          1   -1    0    0  501    0  0.00000000000E+00  0.00000000000E+00  0.21772077807E+03  0.21772077807E+03  0.00000000000E+00 0. -1.
         -1   -1    0    0    0  501 -0.00000000000E+00 -0.00000000000E+00 -0.67173994228E+02  0.67173994228E+02  0.00000000000E+00 0.  1.
         23    2    1    2    0    0  0.69815751862E+02  0.30336123860E+02  0.44048044475E+02  0.12602659921E+03  0.90266017236E+02 0.  0.
         23    2    1    2    0    0 -0.69815751862E+02 -0.30336123860E+02  0.10649873937E+03  0.15886817309E+03  0.90014417258E+02 0.  0.
          5    1    4    4  502    0 -0.42031222859E+02 -0.56596077896E+00  0.10987738666E+03  0.11773730974E+03  0.47000000000E+01 0. -1.
         -5    1    3    3    0  503  0.26100652379E+02  0.58080498068E+02  0.12039114236E+02  0.64973983886E+02  0.47000000000E+01 0.  1.
          5    1    3    3  503    0  0.43715099483E+02 -0.27744374207E+02  0.32008930239E+02  0.61052615325E+02  0.47000000000E+01 0. -1.
         -5    1    4    4    0  502 -0.27784529003E+02 -0.29770163081E+02 -0.33786472921E+01  0.41130863343E+02  0.47000000000E+01 0.  1.
<mgrwt>
<rscale>  0 0.11803017E+03</rscale>
<asrwt>0</asrwt>
<pdfrwt beam="1">  1        1 0.33495504E-01 0.11807825E+03</pdfrwt>
<pdfrwt beam="2">  1       -1 0.10334461E-01 0.11807825E+03</pdfrwt>
<totfact> 0.71654636E+03</totfact>
</mgrwt>
</event>
<event>
 7    1  0.5562993E-004  0.2635950E+03  0.7546771E-02  0.1133550E+00
          2   -1    0    0  501    0  0.00000000000E+00  0.00000000000E+00  0.11685346101E+04  0.11685346101E+04  0.00000000000E+00 0. -1.
         -2   -1    0    0    0  501 -0.00000000000E+00 -0.00000000000E+00 -0.81015724195E+02  0.81015724195E+02  0.00000000000E+00 0.  1.
         23    2    1    2    0    0 -0.33377896656E+02  0.83977271662E+02  0.93735666325E+03  0.94618420297E+03  0.91982420437E+02 0.  0.
          5    1    1    2  502    0  0.92987931566E+02 -0.74720901673E+02  0.19459526540E+03  0.22829668390E+03  0.47000000000E+01 0. -1.
         -5    1    1    2    0  502 -0.59610034910E+02 -0.92563699892E+01 -0.44433042753E+02  0.75069447418E+02  0.47000000000E+01 0.  1.
          5    1    3    3  503    0 -0.59186232183E+02  0.65341706458E+02  0.81112646841E+03  0.81591714435E+03  0.47000000000E+01 0. -1.
         -5    1    3    3    0  503  0.25808335526E+02  0.18635565204E+02  0.12623019484E+03  0.13026705863E+03  0.47000000000E+01 0.  1.
<mgrwt>
<rscale>  0 0.22044726E+03</rscale>
<asrwt>0</asrwt>
<pdfrwt beam="1">  1        2 0.17977454E+00 0.26359499E+03</pdfrwt>
<pdfrwt beam="2">  1       -2 0.12463958E-01 0.26359499E+03</pdfrwt>
<totfact> 0.97039140E+02</totfact>
</mgrwt>
</event>
<event>
 8    1  0.5224537E-004  0.1028114E+03  0.7546771E-02  0.1285344E+00
         -3   -1    0    0    0  501 -0.00000000000E+00  0.00000000000E+00  0.26243740321E+03  0.26243740321E+03  0.00000000000E+00 0.  1.
          3   -1    0    0  501    0  0.00000000000E+00 -0.00000000000E+00 -0.33917561068E+02  0.33917561068E+02  0.00000000000E+00 0. -1.
         23    2    1    2    0    0 -0.31791680943E+02 -0.32084834431E+02  0.80060955345E+02  0.11577196192E+03  0.70379279753E+02 0.  0.
         23    2    1    2    0    0  0.31791680943E+02  0.32084834431E+02  0.14845888680E+03  0.18058300236E+03  0.92358172856E+02 0.  0.
          5    1    3    3  502    0 -0.24433582649E+02 -0.52040029136E+02  0.40071461317E+02  0.70235152208E+02  0.47000000000E+01 0. -1.
         -5    1    4    4    0  503  0.56319227535E+02  0.93666797940E+01  0.48443056536E+02  0.75022728603E+02  0.47000000000E+01 0.  1.
          5    1    4    4  503    0 -0.24527546593E+02  0.22718154637E+02  0.10001583026E+03  0.10556027375E+03  0.47000000000E+01 0. -1.
         -5    1    3    3    0  502 -0.73580982936E+01  0.19955194705E+02  0.39989494027E+02  0.45536809712E+02  0.47000000000E+01 0.  1.
<mgrwt>
<rscale>  0 0.97637547E+02</rscale>
<asrwt>0</asrwt>
<pdfrwt beam="1">  1        3 0.52180865E-02 0.10281138E+03</pdfrwt>
<pdfrwt beam="2">  1       -3 0.40374984E-01 0.10281138E+03</pdfrwt>
<totfact> 0.28151395E+03</totfact>
</mgrwt>
</event>
<event>
 8    1  0.5224537E-004  0.1260996E+03  0.7546771E-02  0.1234127E+00
         -1   -1    0    0    0  501 -0.00000000000E+00  0.00000000000E+00  0.11161869621E+02  0.11161869621E+02  0.00000000000E+00 0.  1.
          1   -1    0    0  501    0  0.00000000000E+00 -0.00000000000E+00 -0.14027839171E+04  0.14027839171E+04  0.00000000000E+00 0. -1.
         23    2    1    2    0    0 -0.81578451606E+02 -0.30925575793E+02 -0.67949096613E+03  0.69073642209E+03  0.88302869411E+02 0.  0.
         23    2    1    2    0    0  0.81578451606E+02  0.30925575793E+02 -0.71213108137E+03  0.72320936465E+03  0.91047641707E+02 0.  0.
          5    1    3    3  502    0 -0.55908497444E+02 -0.51098198593E+02 -0.59841622694E+03  0.60320880021E+03  0.47000000000E+01 0. -1.
         -5    1    4    4    0  503  0.66763900970E+02  0.61405549558E+02 -0.47287884726E+03  0.48152316058E+03  0.47000000000E+01 0.  1.
          5    1    4    4  503    0  0.14814550636E+02 -0.30479973765E+02 -0.23925223411E+03  0.24168620407E+03  0.47000000000E+01 0. -1.
         -5    1    3    3    0  502 -0.25669954163E+02  0.20172622800E+02 -0.81074739187E+02  0.87527621878E+02  0.47000000000E+01 0.  1.
<mgrwt>
<rscale>  0 0.12560487E+03</rscale>
<asrwt>0</asrwt>
<pdfrwt beam="1">  1        1 0.21581277E+00 0.12609960E+03</pdfrwt>
<pdfrwt beam="2">  1       -1 0.17172118E-02 0.12609960E+03</pdfrwt>
<totfact> 0.69373041E+03</totfact>
</mgrwt>
</event>
<event>
 8    1  0.5224537E-004  0.9577015E+02  0.7546771E-02  0.1290923E+00
          3   -1    0    0  501    0  0.00000000000E+00  0.00000000000E+00  0.40771732708E+02  0.40771732708E+02  0.00000000000E+00 0. -1.
         -3   -1    0    0    0  501 -0.00000000000E+00 -0.00000000000E+00 -0.23126977729E+03  0.23126977729E+03  0.00000000000E+00 0.  1.
         23    2    1    2    0    0  0.28059276991E+02  0.59389777727E+01 -0.12796911131E+03  0.15983746169E+03  0.91374647613E+02 0.  0.
         23    2    1    2    0    0 -0.28059276991E+02 -0.59389777727E+01 -0.62528933268E+02  0.11220404831E+03  0.88641336177E+02 0.  0.
          5    1    4    4  502    0 -0.53937249619E+02 -0.25997279251E+02 -0.41656319157E+02  0.73091889773E+02  0.47000000000E+01 0. -1.
         -5    1    3    3    0  503  0.23535819908E+02 -0.40360113607E+02 -0.80589524233E+02  0.93271833933E+02  0.47000000000E+01 0.  1.
          5    1    3    3  503    0  0.45234570823E+01  0.46299091380E+02 -0.47379587080E+02  0.66565627755E+02  0.47000000000E+01 0. -1.
         -5    1    4    4    0  502  0.25877972629E+02  0.20058301478E+02 -0.20872614111E+02  0.39112158537E+02  0.47000000000E+01 0.  1.
<mgrwt>
<rscale>  0 0.95112332E+02</rscale>
<asrwt>0</asrwt>
<pdfrwt beam="1">  1        3 0.62725743E-02 0.95770145E+02</pdfrwt>
<pdfrwt beam="2">  1       -3 0.35579966E-01 0.95770145E+02</pdfrwt>
<totfact> 0.26362272E+03</totfact>
</mgrwt>
</event>
<event>
 8    1  0.5224537E-004  0.1154984E+03  0.7546771E-02  0.1251110E+00
          3   -1    0    0  501    0  0.00000000000E+00  0.00000000000E+00  0.41388409615E+02  0.41388409615E+02  0.00000000000E+00 0. -1.
         -3   -1    0    0    0  501 -0.00000000000E+00 -0.00000000000E+00 -0.85148351686E+03  0.85148351686E+03  0.00000000000E+00 0.  1.
         23    2    1    2    0    0  0.47538781275E+02  0.49953175161E+02 -0.75722797240E+03  0.76584900544E+03  0.91516345598E+02 0.  0.
         23    2    1    2    0    0 -0.47538781275E+02 -0.49953175161E+02 -0.52867134842E+02  0.12702292103E+03  0.92653295074E+02 0.  0.
          5    1    3    3  502    0  0.47481005541E+02 -0.12213343786E+02 -0.42286264171E+03  0.42572117096E+03  0.47000000000E+01 0. -1.
         -5    1    3    3    0  502  0.57775734191E-01  0.62166518947E+02 -0.33436533070E+03  0.34012783448E+03  0.47000000000E+01 0.  1.
          5    1    4    4  503    0 -0.70775257017E+02 -0.26596350941E+02 -0.55092595819E+02  0.93668495254E+02  0.47000000000E+01 0. -1.
         -5    1    4    4    0  503  0.23236475742E+02 -0.23356824220E+02  0.22254609770E+01  0.33354425780E+02  0.47000000000E+01 0.  1.
<mgrwt>
<rscale>  0 0.11527025E+03</rscale>
<asrwt>0</asrwt>
<pdfrwt beam="1">  1        3 0.63674480E-02 0.11549844E+03</pdfrwt>
<pdfrwt beam="2">  1       -3 0.13099746E+00 0.11549844E+03</pdfrwt>
<totfact> 0.17003642E+02</totfact>
</mgrwt>
</event>
<event>
 8    1  0.5224537E-004  0.1011327E+03  0.7546771E-02  0.1277938E+00
          1   -1    0    0  501    0  0.00000000000E+00  0.00000000000E+00  0.10465219648E+04  0.10465219648E+04  0.00000000000E+00 0. -1.
         -1   -1    0    0    0  501 -0.00000000000E+00 -0.00000000000E+00 -0.12063511488E+02  0.12063511488E+02  0.00000000000E+00 0.  1.
         23    2    1    2    0    0  0.44229714609E+02 -0.67899895225E+01  0.28652246287E+03  0.30384309071E+03  0.90681477888E+02 0.  0.
         23    2    1    2    0    0 -0.44229714609E+02  0.67899895225E+01  0.74793599041E+03  0.75474238554E+03  0.90694273101E+02 0.  0.
          5    1    3    3  502    0  0.86595808873E+01 -0.43960415407E+02  0.17857525414E+03  0.18417035010E+03  0.47000000000E+01 0. -1.
         -5    1    4    4    0  503  0.34884849199E+01  0.39958445914E+02  0.22814438049E+03  0.23169116357E+03  0.47000000000E+01 0.  1.
          5    1    4    4  503    0 -0.47718199529E+02 -0.33168456391E+02  0.51979160992E+03  0.52305122197E+03  0.47000000000E+01 0. -1.
         -5    1    3    3    0  502  0.35570133722E+02  0.37170425885E+02  0.10794720873E+03  0.11967274061E+03  0.47000000000E+01 0.  1.
<mgrwt>
<rscale>  0 0.10112983E+03</rscale>
<asrwt>0</asrwt>
<pdfrwt beam="1">  1        1 0.16100331E+00 0.10113270E+03</pdfrwt>
<pdfrwt beam="2">  1       -1 0.18559257E-02 0.10113270E+03</pdfrwt>
<totfact> 0.10690585E+04</totfact>
</mgrwt>
</event>
<event>
 8    1  0.5224537E-004  0.1026874E+03  0.7546771E-02  0.1275163E+00
         -2   -1    0    0    0  501 -0.00000000000E+00  0.00000000000E+00  0.20603633066E+03  0.20603633066E+03  0.00000000000E+00 0.  1.
          2   -1    0    0  501    0  0.00000000000E+00 -0.00000000000E+00 -0.79287489417E+02  0.79287489417E+02  0.00000000000E+00 0. -1.
         23    2    1    2    0    0 -0.44729657375E+02  0.89406201525E+01  0.14876877863E+03  0.18030202061E+03  0.91082337495E+02 0.  0.
         23    2    1    2    0    0  0.44729657375E+02 -0.89406201525E+01 -0.22019937390E+02  0.10502179946E+03  0.92000129252E+02 0.  0.
          5    1    4    4  502    0  0.43506697531E+02  0.22766822317E+02 -0.44029348692E+02  0.66119849325E+02  0.47000000000E+01 0. -1.
         -5    1    4    4    0  502  0.12229598436E+01 -0.31707442470E+02  0.22009411302E+02  0.38901950139E+02  0.47000000000E+01 0.  1.
          5    1    3    3  503    0 -0.16095806726E+02 -0.27093807931E+02  0.90509018580E+01  0.33123379157E+02  0.47000000000E+01 0. -1.
         -5    1    3    3    0  503 -0.28633850649E+02  0.36034428084E+02  0.13971787677E+03  0.14717864145E+03  0.47000000000E+01 0.  1.
<mgrwt>
<rscale>  0 0.10248141E+03</rscale>
<asrwt>0</asrwt>
<pdfrwt beam="1">  1        2 0.12198075E-01 0.10268739E+03</pdfrwt>
<pdfrwt beam="2">  1       -2 0.31697897E-01 0.10268739E+03</pdfrwt>
<totfact> 0.43304252E+03</totfact>
</mgrwt>
</event>
<event>
 8    1  0.5224537E-004  0.1042823E+03  0.7546771E-02  0.1277750E+00
         -2   -1    0    0    0  501 -0.00000000000E+00  0.00000000000E+00  0.33501480370E+03  0.33501480370E+03  0.00000000000E+00 0.  1.
          2   -1    0    0  501    0  0.00000000000E+00 -0.00000000000E+00 -0.14817531638E+03  0.14817531638E+03  0.00000000000E+00 0. -1.
         23    2    1    2    0    0  0.25200210410E+02  0.39183510724E+02  0.31117385783E+03  0.32818283470E+03  0.93297401243E+02 0.  0.
         23    2    1    2    0    0 -0.25200210410E+02 -0.39183510724E+02 -0.12433437052E+03  0.15500728537E+03  0.79986403275E+02 0.  0.
          5    1    3    3  502    0  0.33781975831E+02 -0.23126315791E+02  0.12248309590E+03  0.12922943609E+03  0.47000000000E+01 0. -1.
         -5    1    3    3    0  502 -0.85817654203E+01  0.62309826515E+02  0.18869076194E+03  0.19895339861E+03  0.47000000000E+01 0.  1.
          5    1    4    4  503    0 -0.48273259766E+02 -0.45360019559E+02 -0.10346458386E+03  0.12294246254E+03  0.47000000000E+01 0. -1.
         -5    1    4    4    0  503  0.23073049355E+02  0.61765088344E+01 -0.20869786662E+02  0.32064822832E+02  0.47000000000E+01 0.  1.
<mgrwt>
<rscale>  0 0.10122071E+03</rscale>
<asrwt>0</asrwt>
<pdfrwt beam="1">  1        2 0.22796203E-01 0.10428232E+03</pdfrwt>
<pdfrwt beam="2">  1       -2 0.51540739E-01 0.10428232E+03</pdfrwt>
<totfact> 0.84524641E+02</totfact>
</mgrwt>
</event>
<event>
 8    1  0.5224537E-004  0.1230350E+03  0.7546771E-02  0.1238466E+00
          2   -1    0    0  501    0  0.00000000000E+00  0.00000000000E+00  0.66402094926E+03  0.66402094926E+03  0.00000000000E+00 0. -1.
         -2   -1    0    0    0  501 -0.00000000000E+00 -0.00000000000E+00 -0.24260981805E+02  0.24260981805E+02  0.00000000000E+00 0.  1.
         23    2    1    2    0    0  0.30028486009E+02  0.77017144918E+02  0.40913929191E+03  0.42723829913E+03  0.91127676750E+02 0.  0.
         23    2    1    2    0    0 -0.30028486009E+02 -0.77017144918E+02  0.23062067554E+03  0.26104363193E+03  0.90136181442E+02 0.  0.
          5    1    4    4  502    0  0.18050767488E+02 -0.26826612706E+02  0.18004379146E+02  0.37306099027E+02  0.47000000000E+01 0. -1.
         -5    1    3    3    0  503 -0.34981079142E+01  0.45429953170E+02  0.62327713895E+02  0.77349539904E+02  0.47000000000E+01 0.  1.
          5    1    3    3  503    0  0.33526593923E+02  0.31587191748E+02  0.34681157802E+03  0.34988875922E+03  0.47000000000E+01 0. -1.
         -5    1    4    4    0  502 -0.48079253496E+02 -0.50190532212E+02  0.21261629639E+03  0.22373753291E+03  0.47000000000E+01 0.  1.
<mgrwt>
<rscale>  0 0.12285142E+03</rscale>
<asrwt>0</asrwt>
<pdfrwt beam="1">  1        2 0.10215706E+00 0.12303497E+03</pdfrwt>
<pdfrwt beam="2">  1       -2 0.37324592E-02 0.12303497E+03</pdfrwt>
<totfact> 0.12903465E+04</totfact>
</mgrwt>
</event>
<event>
 8    1  0.5224537E-004  0.1374524E+03  0.7546771E-02  0.1226117E+00
         -1   -1    0    0    0  501 -0.00000000000E+00  0.00000000000E+00  0.52838992185E+02  0.52838992185E+02  0.00000000000E+00 0.  1.
          1   -1    0    0  501    0  0.00000000000E+00 -0.00000000000E+00 -0.29748492602E+03  0.29748492602E+03  0.00000000000E+00 0. -1.
         23    2    1    2    0    0 -0.32964143338E+02 -0.56900283514E+02 -0.10320878895E+03  0.15309908791E+03  0.91994562844E+02 0.  0.
         23    2    1    2    0    0  0.32964143338E+02  0.56900283514E+02 -0.14143714488E+03  0.19722483029E+03  0.12070165997E+03 0.  0.
          5    1    4    4  502    0  0.42526650523E+02  0.82627382231E+02 -0.14153144481E+03  0.16937839345E+03  0.47000000000E+01 0. -1.
         -5    1    4    4    0  502 -0.95625071854E+01 -0.25727098717E+02  0.94299925606E-01  0.27846436838E+02  0.47000000000E+01 0.  1.
          5    1    3    3  503    0 -0.36570776759E+01  0.22574691215E+02 -0.60577509231E+01  0.24120059013E+02  0.47000000000E+01 0. -1.
         -5    1    3    3    0  503 -0.29307065662E+02 -0.79474974729E+02 -0.97151038029E+02  0.12897902890E+03  0.47000000000E+01 0.  1.
<mgrwt>
<rscale>  0 0.13090660E+03</rscale>
<asrwt>0</asrwt>
<pdfrwt beam="1">  1        1 0.45766912E-01 0.13745242E+03</pdfrwt>
<pdfrwt beam="2">  1       -1 0.81290757E-02 0.13745242E+03</pdfrwt>
<totfact> 0.70892242E+03</totfact>
</mgrwt>
</event>
<event>
 8    1  0.5224537E-004  0.1220848E+03  0.7546771E-02  0.1239845E+00
         -1   -1    0    0    0  501 -0.00000000000E+00  0.00000000000E+00  0.18096806025E+03  0.18096806025E+03  0.00000000000E+00 0.  1.
          1   -1    0    0  501    0  0.00000000000E+00 -0.00000000000E+00 -0.12354510644E+03  0.12354510644E+03  0.00000000000E+00 0. -1.
         23    2    1    2    0    0  0.45830382650E+02 -0.64755294652E+02 -0.59431026664E+02  0.13578196736E+03  0.92795601027E+02 0.  0.
         23    2    1    2    0    0 -0.45830382650E+02  0.64755294652E+02  0.11685398048E+03  0.16873119933E+03  0.92313014877E+02 0.  0.
          5    1    3    3  502    0  0.45483078769E+02 -0.26823950131E+02 -0.77185139500E+02  0.93636907865E+02  0.47000000000E+01 0. -1.
         -5    1    3    3    0  502  0.34730388021E+00 -0.37931344520E+02  0.17754112835E+02  0.42145059493E+02  0.47000000000E+01 0.  1.
          5    1    4    4  503    0 -0.20494814152E+02  0.77783236825E+02  0.47325214028E+02  0.93445359547E+02  0.47000000000E+01 0. -1.
         -5    1    4    4    0  503 -0.25335568498E+02 -0.13027942173E+02  0.69528766448E+02  0.75285839785E+02  0.47000000000E+01 0.  1.
<mgrwt>
<rscale>  0 0.12199308E+03</rscale>
<asrwt>0</asrwt>
<pdfrwt beam="1">  1        1 0.19006940E-01 0.12208479E+03</pdfrwt>
<pdfrwt beam="2">  1       -1 0.27841240E-01 0.12208479E+03</pdfrwt>
<totfact> 0.30411104E+03</totfact>
</mgrwt>
</event>
<event>
 8    1  0.5224537E-004  0.9595655E+02  0.7546771E-02  0.1290974E+00
          1   -1    0    0  501    0  0.00000000000E+00  0.00000000000E+00  0.18309402319E+03  0.18309402319E+03  0.00000000000E+00 0. -1.
         -1   -1    0    0    0  501 -0.00000000000E+00 -0.00000000000E+00 -0.78101468432E+02  0.78101468432E+02  0.00000000000E+00 0.  1.
         23    2    1    2    0    0  0.23153295914E+02 -0.13174188075E+02 -0.27287843176E+02  0.99761146634E+02  0.92184736532E+02 0.  0.
         23    2    1    2    0    0 -0.23153295914E+02  0.13174188075E+02  0.13228039793E+03  0.16143434499E+03  0.88618901604E+02 0.  0.
          5    1    4    4  502    0 -0.42700131916E+02 -0.20316010079E+02  0.10016674176E+03  0.11086707214E+03  0.47000000000E+01 0. -1.
         -5    1    4    4    0  502  0.19546836002E+02  0.33490198154E+02  0.32113656175E+02  0.50567272846E+02  0.47000000000E+01 0.  1.
          5    1    3    3  503    0 -0.34610225695E+02 -0.14131896163E+02 -0.14721025952E+02  0.40452154663E+02  0.47000000000E+01 0. -1.
         -5    1    3    3    0  503  0.57763521609E+02  0.95770808818E+00 -0.12566817224E+02  0.59308991971E+02  0.47000000000E+01 0.  1.
<mgrwt>
<rscale>  0 0.95089785E+02</rscale>
<asrwt>0</asrwt>
<pdfrwt beam="1">  1        1 0.28168311E-01 0.95956553E+02</pdfrwt>
<pdfrwt beam="2">  1       -1 0.12015611E-01 0.95956553E+02</pdfrwt>
<totfact> 0.69395453E+03</totfact>
</mgrwt>
</event>
<event>
 8    1  0.5224537E-004  0.9582130E+02  0.7546771E-02  0.1290275E+00
         -1   -1    0    0    0  501 -0.00000000000E+00  0.00000000000E+00  0.14210629294E+02  0.14210629294E+02  0.00000000000E+00 0.  1.
          1   -1    0    0  501    0  0.00000000000E+00 -0.00000000000E+00 -0.64182460934E+03  0.64182460934E+03  0.00000000000E+00 0. -1.
         23    2    1    2    0    0  0.26877370174E+02 -0.96802520131E+01 -0.28247569116E+03  0.29828549663E+03  0.91463769319E+02 0.  0.
         23    2    1    2    0    0 -0.26877370174E+02  0.96802520131E+01 -0.34513828888E+03  0.35774974200E+03  0.89712536145E+02 0.  0.
          5    1    4    4  502    0  0.25097050671E+02 -0.11935872658E+02 -0.51314921745E+02  0.58546034897E+02  0.47000000000E+01 0.  1.
         -5    1    4    4    0  502 -0.51974420844E+02  0.21616124671E+02 -0.29382336714E+03  0.29920370710E+03  0.47000000000E+01 0. -1.
          5    1    3    3  503    0  0.31989141639E+02  0.20399994708E+02 -0.46042454888E+02  0.59845322449E+02  0.47000000000E+01 0. -1.
         -5    1    3    3    0  503 -0.51117714653E+01 -0.30080246721E+02 -0.23643323627E+03  0.23844017418E+03  0.47000000000E+01 0.  1.
<mgrwt>
<rscale>  0 0.95401005E+02</rscale>
<asrwt>0</asrwt>
<pdfrwt beam="1">  1        1 0.98742212E-01 0.95821299E+02</pdfrwt>
<pdfrwt beam="2">  1       -1 0.21862515E-02 0.95821299E+02</pdfrwt>
<totfact> 0.17666606E+04</totfact>
</mgrwt>
</event>
<event>
 8    1  0.5224537E-004  0.1201350E+03  0.7546771E-02  0.1243029E+00
          4   -1    0    0  501    0  0.00000000000E+00  0.00000000000E+00  0.58051979924E+03  0.58051979924E+03  0.00000000000E+00 0. -1.
         -4   -1    0    0    0  501 -0.00000000000E+00 -0.00000000000E+00 -0.32361728006E+02  0.32361728006E+02  0.00000000000E+00 0.  1.
         23    2    1    2    0    0 -0.42310727339E+02  0.65025195367E+02  0.12546398672E+03  0.17344700709E+03  0.91236936731E+02 0.  0.
         23    2    1    2    0    0  0.42310727339E+02 -0.65025195367E+02  0.42269408452E+03  0.43943452016E+03  0.91727502642E+02 0.  0.
          5    1    4    4  502    0 -0.45655556101E+01 -0.60514218101E+02  0.32768840146E+03  0.33329355431E+03  0.47000000000E+01 0. -1.
         -5    1    3    3    0  503 -0.48035839941E+02  0.85389332132E+02  0.10212797356E+03  0.14160152875E+03  0.47000000000E+01 0.  1.
          5    1    3    3  503    0  0.57251126014E+01 -0.20364136765E+02  0.23336013154E+02  0.31845478335E+02  0.47000000000E+01 0. -1.
         -5    1    4    4    0  502  0.46876282950E+02 -0.45109772663E+01  0.95005683056E+02  0.10614096585E+03  0.47000000000E+01 0.  1.
<mgrwt>
<rscale>  0 0.12004131E+03</rscale>
<asrwt>0</asrwt>
<pdfrwt beam="1">  1        4 0.89310731E-01 0.12013496E+03</pdfrwt>
<pdfrwt beam="2">  1       -4 0.49787278E-02 0.12013496E+03</pdfrwt>
<totfact> 0.43309183E+02</totfact>
</mgrwt>
</event>
<event>
 8    1  0.5224537E-004  0.1132285E+03  0.7546771E-02  0.1256060E+00
         -4   -1    0    0    0  501 -0.00000000000E+00  0.00000000000E+00  0.48648292686E+02  0.48648292686E+02  0.00000000000E+00 0.  1.
          4   -1    0    0  501    0  0.00000000000E+00 -0.00000000000E+00 -0.40593964881E+03  0.40593964881E+03  0.00000000000E+00 0. -1.
         23    2    1    2    0    0  0.39527366274E+02 -0.46716071279E+02 -0.31498122024E+03  0.33371267101E+03  0.91685187954E+02 0.  0.
         23    2    1    2    0    0 -0.39527366274E+02  0.46716071279E+02 -0.42310135877E+02  0.12087527048E+03  0.95267410035E+02 0.  0.
          5    1    3    3  502    0  0.66170060984E+02 -0.19481223457E+02 -0.23562488174E+03  0.24555889300E+03  0.47000000000E+01 0. -1.
         -5    1    4    4    0  503 -0.15236528473E+02 -0.29194326591E+02 -0.98956162250E+01  0.34705528745E+02  0.47000000000E+01 0.  1.
          5    1    4    4  503    0 -0.24290837801E+02  0.75910397870E+02 -0.32414519652E+02  0.86169741732E+02  0.47000000000E+01 0. -1.
         -5    1    3    3    0  502 -0.26642694710E+02 -0.27234847822E+02 -0.79356338507E+02  0.88153778016E+02  0.47000000000E+01 0.  1.
<mgrwt>
<rscale>  0 0.11247166E+03</rscale>
<asrwt>0</asrwt>
<pdfrwt beam="1">  1        4 0.62452253E-01 0.11322846E+03</pdfrwt>
<pdfrwt beam="2">  1       -4 0.74843528E-02 0.11322846E+03</pdfrwt>
<totfact> 0.48115397E+02</totfact>
</mgrwt>
</event>
<event>
 8    1  0.5224537E-004  0.9875771E+02  0.7546771E-02  0.1285170E+00
          2   -1    0    0  501    0  0.00000000000E+00  0.00000000000E+00  0.77807092756E+03  0.77807092756E+03  0.00000000000E+00 0. -1.
         -2   -1    0    0    0  501 -0.00000000000E+00 -0.00000000000E+00 -0.12430368762E+02  0.12430368762E+02  0.00000000000E+00 0.  1.
         23    2    1    2    0    0 -0.93685976881E+01  0.33000336813E+02  0.30324013090E+03  0.31767232064E+03  0.88228869769E+02 0.  0.
         23    2    1    2    0    0  0.93685976881E+01 -0.33000336813E+02  0.46240042790E+03  0.47282897569E+03  0.92608269993E+02 0.  0.
          5    1    3    3  502    0 -0.33321176811E+02  0.51118435598E+02  0.16145354046E+03  0.17266363545E+03  0.47000000000E+01 0. -1.
         -5    1    3    3    0  502  0.23952579123E+02 -0.18118098785E+02  0.14178659044E+03  0.14500868519E+03  0.47000000000E+01 0.  1.
          5    1    4    4  503    0 -0.37312610239E+02 -0.10582287696E+02  0.11260243027E+03  0.11918730217E+03  0.47000000000E+01 0. -1.
         -5    1    4    4    0  503  0.46681207927E+02 -0.22418049117E+02  0.34979799763E+03  0.35364167352E+03  0.47000000000E+01 0.  1.
<mgrwt>
<rscale>  0 0.97717775E+02</rscale>
<asrwt>0</asrwt>
<pdfrwt beam="1">  1        2 0.11970318E+00 0.98757706E+02</pdfrwt>
<pdfrwt beam="2">  1       -2 0.19123650E-02 0.98757706E+02</pdfrwt>
<totfact> 0.27791014E+04</totfact>
</mgrwt>
</event>
<event>
 8    1  0.5224537E-004  0.9569729E+02  0.7546771E-02  0.1290170E+00
         -1   -1    0    0    0  501 -0.00000000000E+00  0.00000000000E+00  0.26738881468E+03  0.26738881468E+03  0.00000000000E+00 0.  1.
          1   -1    0    0  501    0  0.00000000000E+00 -0.00000000000E+00 -0.28376288825E+03  0.28376288825E+03  0.00000000000E+00 0. -1.
         23    2    1    2    0    0 -0.27251920871E+02 -0.13255543619E+02  0.25041157881E+03  0.26772171980E+03  0.89725045686E+02 0.  0.
         23    2    1    2    0    0  0.27251920871E+02  0.13255543619E+02 -0.26678565237E+03  0.28342998313E+03  0.90772211594E+02 0.  0.
          5    1    4    4  502    0  0.26970583006E+02  0.38094776510E+02 -0.24675576169E+03  0.25117547705E+03  0.47000000000E+01 0. -1.
         -5    1    4    4    0  502  0.28133786537E+00 -0.24839232891E+02 -0.20029890681E+02  0.32254506077E+02  0.47000000000E+01 0.  1.
          5    1    3    3  503    0  0.26504198775E+02 -0.15245498319E+02  0.40425026987E+02  0.50903541907E+02  0.47000000000E+01 0. -1.
         -5    1    3    3    0  503 -0.53756119646E+02  0.19899547000E+01  0.20998655182E+03  0.21681817789E+03  0.47000000000E+01 0.  1.
<mgrwt>
<rscale>  0 0.95448144E+02</rscale>
<asrwt>0</asrwt>
<pdfrwt beam="1">  1        1 0.43655829E-01 0.95697288E+02</pdfrwt>
<pdfrwt beam="2">  1       -1 0.41136741E-01 0.95697288E+02</pdfrwt>
<totfact> 0.55443639E+02</totfact>
</mgrwt>
</event>
<event>
 8    1  0.5224537E-004  0.1285324E+03  0.7546771E-02  0.1230112E+00
          3   -1    0    0  501    0  0.00000000000E+00  0.00000000000E+00  0.18417917127E+03  0.18417917127E+03  0.00000000000E+00 0. -1.
         -3   -1    0    0    0  501 -0.00000000000E+00 -0.00000000000E+00 -0.91444135380E+02  0.91444135380E+02  0.00000000000E+00 0.  1.
         23    2    1    2    0    0 -0.71454564147E+02  0.55323684225E+02  0.69802352168E+02  0.14626327975E+03  0.91400841684E+02 0.  0.
         23    2    1    2    0    0  0.71454564147E+02 -0.55323684225E+02  0.22932683719E+02  0.12936002690E+03  0.89675212871E+02 0.  0.
          5    1    3    3  502    0  0.12856529410E+02  0.40502445237E+02  0.25087697116E+02  0.49570363779E+02  0.47000000000E+01 0. -1.
         -5    1    3    3    0  502 -0.84311093557E+02  0.14821238989E+02  0.44714655051E+02  0.96692915968E+02  0.47000000000E+01 0.  1.
          5    1    4    4  503    0  0.43546529698E+02 -0.81868261580E+01  0.50922824847E+02  0.67664972191E+02  0.47000000000E+01 0.  1.
         -5    1    4    4    0  503  0.27908034449E+02 -0.47136858067E+02 -0.27990141127E+02  0.61695054709E+02  0.47000000000E+01 0. -1.
<mgrwt>
<rscale>  0 0.12822598E+03</rscale>
<asrwt>0</asrwt>
<pdfrwt beam="1">  1        3 0.28335257E-01 0.12853240E+03</pdfrwt>
<pdfrwt beam="2">  1       -3 0.14068329E-01 0.12853240E+03</pdfrwt>
<totfact> 0.11296940E+03</totfact>
</mgrwt>
</event>
<event>
 8    1  0.5224537E-004  0.9618944E+02  0.7546771E-02  0.1291309E+00
         -3   -1    0    0    0  501 -0.00000000000E+00  0.00000000000E+00  0.13719367567E+03  0.13719367567E+03  0.00000000000E+00 0.  1.
          3   -1    0    0  501    0  0.00000000000E+00 -0.00000000000E+00 -0.71778504270E+02  0.71778504270E+02  0.00000000000E+00 0. -1.
         23    2    1    2    0    0  0.75817503898E+01  0.30816340793E+02  0.66219688810E+02  0.11277937380E+03  0.85597956579E+02 0.  0.
         23    2    1    2    0    0 -0.75817503898E+01 -0.30816340793E+02 -0.80451741391E+00  0.96192806134E+02  0.90803518130E+02 0.  0.
          5    1    3    3  502    0  0.40223506017E+02  0.27533752345E+01  0.99783542414E+01  0.41799151484E+02  0.47000000000E+01 0. -1.
         -5    1    4    4    0  503 -0.26317146183E+01  0.32022244886E+02  0.44082123617E+01  0.32769992762E+02  0.47000000000E+01 0.  1.
          5    1    4    4  503    0 -0.49500357715E+01 -0.62838585679E+02 -0.52127297756E+01  0.63422813372E+02  0.47000000000E+01 0. -1.
         -5    1    3    3    0  502 -0.32641755627E+02  0.28062965559E+02  0.56241334568E+02  0.70980222318E+02  0.47000000000E+01 0.  1.
<mgrwt>
<rscale>  0 0.94940858E+02</rscale>
<asrwt>0</asrwt>
<pdfrwt beam="1">  1        3 0.11042847E-01 0.96189442E+02</pdfrwt>
<pdfrwt beam="2">  1       -3 0.21106719E-01 0.96189442E+02</pdfrwt>
<totfact> 0.27244687E+03</totfact>
</mgrwt>
</event>
<event>
 8    1  0.5224537E-004  0.9351017E+02  0.7546771E-02  0.1295190E+00
         -2   -1    0    0    0  501 -0.00000000000E+00  0.00000000000E+00  0.40150554556E+03  0.40150554556E+03  0.00000000000E+00 0.  1.
          2   -1    0    0  501    0  0.00000000000E+00 -0.00000000000E+00 -0.22868167407E+02  0.22868167407E+02  0.00000000000E+00 0. -1.
         23    2    1    2    0    0  0.20681972054E+02  0.61369956200E+01  0.23964125126E+03  0.25685035618E+03  0.89881975286E+02 0.  0.
         23    2    1    2    0    0 -0.20681972054E+02 -0.61369956200E+01  0.13899612690E+03  0.16752335679E+03  0.90987609567E+02 0.  0.
          5    1    4    4  502    0  0.42043488252E+01 -0.26549954277E+02  0.13128795300E+03  0.13409397162E+03  0.47000000000E+01 0. -1.
         -5    1    4    4    0  502 -0.24886320879E+02  0.20412958657E+02  0.77081738923E+01  0.33429385169E+02  0.47000000000E+01 0.  1.
          5    1    3    3  503    0  0.39092309955E+02 -0.49178151118E+01  0.41220109433E+02  0.57215216724E+02  0.47000000000E+01 0. -1.
         -5    1    3    3    0  503 -0.18410337901E+02  0.11054810732E+02  0.19842114182E+03  0.19963513945E+03  0.47000000000E+01 0.  1.
<mgrwt>
<rscale>  0 0.93240138E+02</rscale>
<asrwt>0</asrwt>
<pdfrwt beam="1">  1        2 0.35181799E-02 0.93510169E+02</pdfrwt>
<pdfrwt beam="2">  1       -2 0.61770079E-01 0.93510169E+02</pdfrwt>
<totfact> 0.57274068E+03</totfact>
</mgrwt>
</event>
<event>
 8    1  0.5224537E-004  0.1728799E+03  0.7546771E-02  0.1175451E+00
          2   -1    0    0  501    0  0.00000000000E+00  0.00000000000E+00  0.66327209389E+03  0.66327209389E+03  0.00000000000E+00 0. -1.
         -2   -1    0    0    0  501 -0.00000000000E+00 -0.00000000000E+00 -0.46791287370E+02  0.46791287370E+02  0.00000000000E+00 0.  1.
         23    2    1    2    0    0  0.64039164408E+02  0.12934045671E+03  0.22744073186E+03  0.28434088368E+03  0.91052091152E+02 0.  0.
         23    2    1    2    0    0 -0.64039164408E+02 -0.12934045671E+03  0.38904007466E+03  0.42572249758E+03  0.95170882813E+02 0.  0.
          5    1    3    3  502    0  0.52353914619E+02  0.32736126399E+02  0.41868390980E+02  0.74750508432E+02  0.47000000000E+01 0.  1.
         -5    1    3    3    0  502  0.11685249790E+02  0.96604330309E+02  0.18557234088E+03  0.20959037525E+03  0.47000000000E+01 0. -1.
          5    1    4    4  503    0 -0.35054791331E+02 -0.19269689170E+02  0.20769379427E+03  0.21156313832E+03  0.47000000000E+01 0. -1.
         -5    1    4    4    0  503 -0.28984373077E+02 -0.11007076754E+03  0.18134628039E+03  0.21415935926E+03  0.47000000000E+01 0.  1.
<mgrwt>
<rscale>  0 0.17231900E+03</rscale>
<asrwt>0</asrwt>
<pdfrwt beam="1">  1        2 0.10204185E+00 0.17287992E+03</pdfrwt>
<pdfrwt beam="2">  1       -2 0.71986601E-02 0.17287992E+03</pdfrwt>
<totfact> 0.48925493E+03</totfact>
</mgrwt>
</event>
<event>
 8    1  0.5224537E-004  0.1036049E+03  0.7546771E-02  0.1274302E+00
          1   -1    0    0  501    0  0.00000000000E+00  0.00000000000E+00  0.15806020712E+03  0.15806020712E+03  0.00000000000E+00 0. -1.
         -1   -1    0    0    0  501 -0.00000000000E+00 -0.00000000000E+00 -0.86314017145E+02  0.86314017145E+02  0.00000000000E+00 0.  1.
         23    2    1    2    0    0  0.28173555787E+02 -0.35493988285E+02  0.95360285722E+02  0.14081033125E+03  0.93168625862E+02 0.  0.
         23    2    1    2    0    0 -0.28173555787E+02  0.35493988285E+02 -0.23614095748E+02  0.10356389301E+03  0.90079309317E+02 0.  0.
          5    1    3    3  502    0 -0.20820331596E+02  0.16370690086E+02  0.82976960623E+01  0.28150088127E+02  0.47000000000E+01 0.  1.
         -5    1    3    3    0  502  0.48993887383E+02 -0.51864678370E+02  0.87062589660E+02  0.11266024313E+03  0.47000000000E+01 0. -1.
          5    1    4    4  503    0 -0.43257119331E+02 -0.95971471838E+01  0.93357612889E+01  0.45525048553E+02  0.47000000000E+01 0. -1.
         -5    1    4    4    0  503  0.15083563544E+02  0.45091135468E+02 -0.32949857037E+02  0.58038844456E+02  0.47000000000E+01 0.  1.
<mgrwt>
<rscale>  0 0.10290554E+03</rscale>
<asrwt>0</asrwt>
<pdfrwt beam="1">  1        1 0.24316955E-01 0.10360485E+03</pdfrwt>
<pdfrwt beam="2">  1       -1 0.13279080E-01 0.10360485E+03</pdfrwt>
<totfact> 0.71855352E+03</totfact>
</mgrwt>
</event>
<event>
 8    1  0.5224537E-004  0.9713887E+02  0.7546771E-02  0.1286919E+00
         -1   -1    0    0    0  501 -0.00000000000E+00  0.00000000000E+00  0.20719980466E+02  0.20719980466E+02  0.00000000000E+00 0.  1.
          1   -1    0    0  501    0  0.00000000000E+00 -0.00000000000E+00 -0.46776012670E+03  0.46776012670E+03  0.00000000000E+00 0. -1.
         23    2    1    2    0    0 -0.90332117868E+01  0.32304522372E+02 -0.17663630112E+03  0.20115763967E+03  0.90215475618E+02 0.  0.
         23    2    1    2    0    0  0.90332117868E+01 -0.32304522372E+02 -0.27040384511E+03  0.28732246750E+03  0.91163478425E+02 0.  0.
          5    1    4    4  502    0 -0.48417112245E+01 -0.62158193007E+02 -0.19822142031E+03  0.20784827302E+03  0.47000000000E+01 0. -1.
         -5    1    4    4    0  502  0.13874923011E+02  0.29853670635E+02 -0.72182424803E+02  0.79474194487E+02  0.47000000000E+01 0.  1.
          5    1    3    3  503    0 -0.49235233166E+02  0.20837790225E+02 -0.10918665685E+03  0.12166403626E+03  0.47000000000E+01 0. -1.
         -5    1    3    3    0  503  0.40202021379E+02  0.11466732147E+02 -0.67449644277E+02  0.79493603404E+02  0.47000000000E+01 0.  1.
<mgrwt>
<rscale>  0 0.96915824E+02</rscale>
<asrwt>0</asrwt>
<pdfrwt beam="1">  1        1 0.71963091E-01 0.97138874E+02</pdfrwt>
<pdfrwt beam="2">  1       -1 0.31876896E-02 0.97138874E+02</pdfrwt>
<totfact> 0.15591600E+04</totfact>
</mgrwt>
</event>
<event>
 8    1  0.5224537E-004  0.1326465E+03  0.7546771E-02  0.1224592E+00
          1   -1    0    0  501    0  0.00000000000E+00  0.00000000000E+00  0.30140132843E+03  0.30140132843E+03  0.00000000000E+00 0. -1.
         -1   -1    0    0    0  501 -0.00000000000E+00 -0.00000000000E+00 -0.57165736746E+02  0.57165736746E+02  0.00000000000E+00 0.  1.
         23    2    1    2    0    0  0.77398679922E+02 -0.57001748393E+02  0.12101899369E+03  0.17752171143E+03  0.87341892712E+02 0.  0.
         23    2    1    2    0    0 -0.77398679922E+02  0.57001748393E+02  0.12321659799E+03  0.18104535374E+03  0.91407522214E+02 0.  0.
          5    1    3    3  502    0  0.77605799291E+02 -0.55713014240E+01  0.78499129917E+02  0.11062505539E+03  0.47000000000E+01 0. -1.
         -5    1    4    4    0  503 -0.19153595388E+02  0.32027370109E+02 -0.50012570487E+01  0.37943579489E+02  0.47000000000E+01 0.  1.
          5    1    4    4  503    0 -0.58245084534E+02  0.24974378284E+02  0.12821785504E+03  0.14310177425E+03  0.47000000000E+01 0. -1.
         -5    1    3    3    0  502 -0.20711936869E+00 -0.51430446969E+02  0.42519863774E+02  0.66896656039E+02  0.47000000000E+01 0.  1.
<mgrwt>
<rscale>  0 0.13194894E+03</rscale>
<asrwt>0</asrwt>
<pdfrwt beam="1">  1        1 0.46369434E-01 0.13264649E+03</pdfrwt>
<pdfrwt beam="2">  1       -1 0.87947289E-02 0.13264649E+03</pdfrwt>
<totfact> 0.61786672E+03</totfact>
</mgrwt>
</event>
<event>
 8    1  0.5224537E-004  0.1096136E+03  0.7546771E-02  0.1265718E+00
         -1   -1    0    0    0  501 -0.00000000000E+00  0.00000000000E+00  0.57995693895E+03  0.57995693895E+03  0.00000000000E+00 0.  1.
          1   -1    0    0  501    0  0.00000000000E+00 -0.00000000000E+00 -0.27224403333E+02  0.27224403333E+02  0.00000000000E+00 0. -1.
         23    2    1    2    0    0 -0.13034191327E+02 -0.40615275313E+02  0.43441122489E+03  0.44588946298E+03  0.91020932516E+02 0.  0.
         23    2    1    2    0    0  0.13034191327E+02  0.40615275313E+02  0.11832131073E+03  0.16129187930E+03  0.10097349664E+03 0.  0.
          5    1    3    3  502    0  0.23615175413E+02  0.25440908122E+01  0.35611649496E+02  0.43063075688E+02  0.47000000000E+01 0. -1.
         -5    1    4    4    0  503  0.30395834705E+02 -0.11871134013E+02  0.95972140010E+02  0.10147695427E+03  0.47000000000E+01 0.  1.
          5    1    4    4  503    0 -0.17361643378E+02  0.52486409326E+02  0.22349170719E+02  0.59814925031E+02  0.47000000000E+01 0. -1.
         -5    1    3    3    0  502 -0.36649366740E+02 -0.43159366125E+02  0.39879957539E+03  0.40282638729E+03  0.47000000000E+01 0.  1.
<mgrwt>
<rscale>  0 0.10726587E+03</rscale>
<asrwt>0</asrwt>
<pdfrwt beam="1">  1        1 0.41883702E-02 0.10961358E+03</pdfrwt>
<pdfrwt beam="2">  1       -1 0.89224135E-01 0.10961358E+03</pdfrwt>
<totfact> 0.26331566E+03</totfact>
</mgrwt>
</event>
<event>
 8    1  0.5224537E-004  0.1172434E+03  0.7546771E-02  0.1251841E+00
         -1   -1    0    0    0  501 -0.00000000000E+00  0.00000000000E+00  0.48629416644E+02  0.48629416644E+02  0.00000000000E+00 0.  1.
          1   -1    0    0  501    0  0.00000000000E+00 -0.00000000000E+00 -0.35305648329E+03  0.35305648329E+03  0.00000000000E+00 0. -1.
         23    2    1    2    0    0 -0.78120342586E+01 -0.38384666574E+02 -0.44944253808E+02  0.11694505880E+03  0.10060690990E+03 0.  0.
         23    2    1    2    0    0  0.78120342586E+01  0.38384666574E+02 -0.25948281284E+03  0.28474084113E+03  0.11050613532E+03 0.  0.
          5    1    3    3  502    0 -0.46229761623E+02 -0.34266770735E+02 -0.51627906666E+02  0.77452780344E+02  0.47000000000E+01 0. -1.
         -5    1    4    4    0  503  0.46214582536E+02 -0.16658990805E+02 -0.95631650024E+02  0.10761418169E+03  0.47000000000E+01 0.  1.
          5    1    4    4  503    0 -0.38402548278E+02  0.55043657379E+02 -0.16385116281E+03  0.17712665945E+03  0.47000000000E+01 0. -1.
         -5    1    3    3    0  502  0.38417727365E+02 -0.41178958390E+01  0.66836528580E+01  0.39492278455E+02  0.47000000000E+01 0.  1.
<mgrwt>
<rscale>  0 0.11485126E+03</rscale>
<asrwt>0</asrwt>
<pdfrwt beam="1">  1        1 0.54316381E-01 0.11724341E+03</pdfrwt>
<pdfrwt beam="2">  1       -1 0.74814488E-02 0.11724341E+03</pdfrwt>
<totfact> 0.64279129E+03</totfact>
</mgrwt>
</event>
<event>
 8    1  0.5224537E-004  0.1491640E+03  0.7546771E-02  0.1201950E+00
         -1   -1    0    0    0  501 -0.00000000000E+00  0.00000000000E+00  0.14632984488E+03  0.14632984488E+03  0.00000000000E+00 0.  1.
          1   -1    0    0  501    0  0.00000000000E+00 -0.00000000000E+00 -0.23834799837E+03  0.23834799837E+03  0.00000000000E+00 0. -1.
         23    2    1    2    0    0  0.11453093220E+03  0.29640467849E+02 -0.16285512510E+03  0.22084315591E+03  0.90851615159E+02 0.  0.
         23    2    1    2    0    0 -0.11453093220E+03 -0.29640467849E+02  0.70836971616E+02  0.16383468734E+03  0.88476191496E+02 0.  0.
          5    1    4    4  502    0 -0.19939563787E+02  0.28816352804E+02  0.25813543200E+02  0.43776676501E+02  0.47000000000E+01 0. -1.
         -5    1    4    4    0  502 -0.94591368414E+02 -0.58456820653E+02  0.45023428415E+02  0.12005801083E+03  0.47000000000E+01 0.  1.
          5    1    3    3  503    0  0.97358500029E+02  0.16433194390E+02 -0.17076141070E+03  0.19730756901E+03  0.47000000000E+01 0. -1.
         -5    1    3    3    0  503  0.17172432172E+02  0.13207273459E+02  0.79062855959E+01  0.23535586902E+02  0.47000000000E+01 0.  1.
<mgrwt>
<rscale>  0 0.14880403E+03</rscale>
<asrwt>0</asrwt>
<pdfrwt beam="1">  1        1 0.36668922E-01 0.14916403E+03</pdfrwt>
<pdfrwt beam="2">  1       -1 0.22512284E-01 0.14916403E+03</pdfrwt>
<totfact> 0.19091755E+03</totfact>
</mgrwt>
</event>
<event>
 8    1  0.5224537E-004  0.1584826E+03  0.7546771E-02  0.1193729E+00
          1   -1    0    0  501    0  0.00000000000E+00  0.00000000000E+00  0.12537091714E+04  0.12537091714E+04  0.00000000000E+00 0. -1.
         -1   -1    0    0    0  501 -0.00000000000E+00 -0.00000000000E+00 -0.18828740605E+02  0.18828740605E+02  0.00000000000E+00 0.  1.
         23    2    1    2    0    0  0.12587738154E+02  0.11351948838E+03  0.57797736319E+03  0.59931175490E+03  0.10987093245E+03 0.  0.
         23    2    1    2    0    0 -0.12587738154E+02 -0.11351948838E+03  0.65690306764E+03  0.67322615714E+03  0.93095075044E+02 0.  0.
          5    1    3    3  502    0  0.33525846856E+02  0.65918429610E+02  0.50003529745E+03  0.50549640005E+03  0.47000000000E+01 0. -1.
         -5    1    3    3    0  502 -0.20938108702E+02  0.47601058772E+02  0.77942065745E+02  0.93815354845E+02  0.47000000000E+01 0.  1.
          5    1    4    4  503    0  0.10376557893E+01 -0.40612523548E+02  0.65829895262E+02  0.77499154245E+02  0.47000000000E+01 0. -1.
         -5    1    4    4    0  503 -0.13625393943E+02 -0.72906964834E+02  0.59107317238E+03  0.59572700290E+03  0.47000000000E+01 0.  1.
<mgrwt>
<rscale>  0 0.15562283E+03</rscale>
<asrwt>0</asrwt>
<pdfrwt beam="1">  1        1 0.19287827E+00 0.15848264E+03</pdfrwt>
<pdfrwt beam="2">  1       -1 0.28967303E-02 0.15848264E+03</pdfrwt>
<totfact> 0.41224152E+03</totfact>
</mgrwt>
</event>
<event>
 8    1  0.5224537E-004  0.1226738E+03  0.7546771E-02  0.1239593E+00
          3   -1    0    0  501    0  0.00000000000E+00  0.00000000000E+00  0.24723548438E+03  0.24723548438E+03  0.00000000000E+00 0. -1.
         -3   -1    0    0    0  501 -0.00000000000E+00 -0.00000000000E+00 -0.60173698193E+02  0.60173698193E+02  0.00000000000E+00 0.  1.
         23    2    1    2    0    0 -0.25347643459E+02  0.72847559607E+02  0.10420285236E+03  0.15937384642E+03  0.92695838701E+02 0.  0.
         23    2    1    2    0    0  0.25347643459E+02 -0.72847559607E+02  0.82858933821E+02  0.14803533615E+03  0.95391759946E+02 0.  0.
          5    1    4    4  502    0 -0.23207041513E+02  0.89493010423E+00  0.46977013805E+02  0.52614613005E+02  0.47000000000E+01 0. -1.
         -5    1    4    4    0  502  0.48554684971E+02 -0.73742489711E+02  0.35881920016E+02  0.95420723145E+02  0.47000000000E+01 0.  1.
          5    1    3    3  503    0 -0.42859857413E+02  0.68398526218E+01  0.13413167173E+02  0.45670055999E+02  0.47000000000E+01 0. -1.
         -5    1    3    3    0  503  0.17512213955E+02  0.66007706985E+02  0.90789685189E+02  0.11370379042E+03  0.47000000000E+01 0.  1.
<mgrwt>
<rscale>  0 0.12214932E+03</rscale>
<asrwt>0</asrwt>
<pdfrwt beam="1">  1        3 0.38036228E-01 0.12267379E+03</pdfrwt>
<pdfrwt beam="2">  1       -3 0.92574922E-02 0.12267379E+03</pdfrwt>
<totfact> 0.12990570E+03</totfact>
</mgrwt>
</event>
<event>
 8    1  0.5224537E-004  0.1041465E+03  0.7546771E-02  0.1273389E+00
          2   -1    0    0  501    0  0.00000000000E+00  0.00000000000E+00  0.96913849542E+02  0.96913849542E+02  0.00000000000E+00 0. -1.
         -2   -1    0    0    0  501 -0.00000000000E+00 -0.00000000000E+00 -0.44624793273E+03  0.44624793273E+03  0.00000000000E+00 0.  1.
         23    2    1    2    0    0  0.51853048673E+02 -0.60054044509E+01 -0.41154364673E+03  0.42451696874E+03  0.90120364241E+02 0.  0.
         23    2    1    2    0    0 -0.51853048673E+02  0.60054044509E+01  0.62209563537E+02  0.11864481353E+03  0.86497158583E+02 0.  0.
          5    1    3    3  502    0  0.50607683180E+00 -0.25355027254E+02 -0.32486905139E+02  0.41480387249E+02  0.47000000000E+01 0. -1.
         -5    1    4    4    0  503 -0.35488218032E+02 -0.33135910838E+02  0.57951561342E+02  0.75748766777E+02  0.47000000000E+01 0. -1.
          5    1    4    4  503    0 -0.16364830640E+02  0.39141315289E+02  0.42580021948E+01  0.42896046754E+02  0.47000000000E+01 0.  1.
         -5    1    3    3    0  502  0.51346971841E+02  0.19349622803E+02 -0.37905674159E+03  0.38303658150E+03  0.47000000000E+01 0.  1.
<mgrwt>
<rscale>  0 0.10335781E+03</rscale>
<asrwt>0</asrwt>
<pdfrwt beam="1">  1        2 0.14909823E-01 0.10414645E+03</pdfrwt>
<pdfrwt beam="2">  1       -2 0.68653528E-01 0.10414645E+03</pdfrwt>
<totfact> 0.76171831E+02</totfact>
</mgrwt>
</event>
<event>
 7    1  0.5224537E-004  0.1420027E+03  0.7546771E-02  0.1230481E+00
         -1   -1    0    0    0  501 -0.00000000000E+00  0.00000000000E+00  0.10789514375E+03  0.10789514375E+03  0.00000000000E+00 0.  1.
          1   -1    0    0  501    0  0.00000000000E+00 -0.00000000000E+00 -0.56519353002E+03  0.56519353002E+03  0.00000000000E+00 0. -1.
         23    2    1    2    0    0  0.15401202940E+02  0.29504446063E+01  0.76355161789E+02  0.12086508770E+03  0.92370755750E+02 0.  0.
          5    1    3    3  502    0 -0.32164664939E+01  0.44841007006E+02  0.24211764216E+02  0.51277296073E+02  0.47000000000E+01 0. -1.
         -5    1    1    2    0  503  0.16838587323E+02 -0.55436389245E+02 -0.11315959550E+03  0.12721601837E+03  0.47000000000E+01 0.  1.
          5    1    1    2  503    0 -0.32239790264E+02  0.52485944638E+02 -0.42049395256E+03  0.42500756770E+03  0.47000000000E+01 0. -1.
         -5    1    3    3    0  502  0.18617669434E+02 -0.41890562400E+02  0.52143397573E+02  0.69587791629E+02  0.47000000000E+01 0.  1.
<mgrwt>
<rscale>  0 0.12798191E+03</rscale>
<asrwt>0</asrwt>
<pdfrwt beam="1">  1        1 0.86952851E-01 0.14200275E+03</pdfrwt>
<pdfrwt beam="2">  1       -1 0.16599253E-01 0.14200275E+03</pdfrwt>
<totfact> 0.10417680E+03</totfact>
</mgrwt>
</event>
<event>
 8    1  0.5224537E-004  0.1338141E+03  0.7546771E-02  0.1222252E+00
          1   -1    0    0  501    0  0.00000000000E+00  0.00000000000E+00  0.90194831777E+03  0.90194831777E+03  0.00000000000E+00 0. -1.
         -1   -1    0    0    0  501 -0.00000000000E+00 -0.00000000000E+00 -0.41358513997E+02  0.41358513997E+02  0.00000000000E+00 0.  1.
         23    2    1    2    0    0  0.28586558842E+02 -0.92119757265E+02  0.88302695891E+02  0.15951248191E+03  0.91343443974E+02 0.  0.
         23    2    1    2    0    0 -0.28586558842E+02  0.92119757265E+02  0.77228710789E+03  0.78379434986E+03  0.92752168961E+02 0.  0.
          5    1    4    4  502    0  0.33382460817E+02  0.31476130695E+02  0.31166798053E+03  0.31506214559E+03  0.47000000000E+01 0. -1.
         -5    1    4    4    0  502 -0.61969019659E+02  0.60643626570E+02  0.46061912735E+03  0.46873220428E+03  0.47000000000E+01 0.  1.
          5    1    3    3  503    0 -0.28584915635E+02 -0.66217693379E+01  0.23169141855E+02  0.37680822248E+02  0.47000000000E+01 0. -1.
         -5    1    3    3    0  503  0.57171474477E+02 -0.85497987927E+02  0.65133554036E+02  0.12183165966E+03  0.47000000000E+01 0.  1.
<mgrwt>
<rscale>  0 0.13357027E+03</rscale>
<asrwt>0</asrwt>
<pdfrwt beam="1">  1        1 0.13876126E+00 0.13381407E+03</pdfrwt>
<pdfrwt beam="2">  1       -1 0.63628490E-02 0.13381407E+03</pdfrwt>
<totfact> 0.22962445E+03</totfact>
</mgrwt>
</event>
<event>
 8    1  0.5224537E-004  0.9363512E+02  0.7546771E-02  0.1294527E+00
          1   -1    0    0  501    0  0.00000000000E+00  0.00000000000E+00  0.51874124285E+02  0.51874124285E+02  0.00000000000E+00 0. -1.
         -1   -1    0    0    0  501 -0.00000000000E+00 -0.00000000000E+00 -0.17344178604E+03  0.17344178604E+03  0.00000000000E+00 0.  1.
         23    2    1    2    0    0  0.51856120560E+01 -0.19628145541E+02 -0.41415103616E+02  0.10238528384E+03  0.91407772483E+02 0.  0.
         23    2    1    2    0    0 -0.51856120560E+01  0.19628145541E+02 -0.80152558138E+02  0.12293062648E+03  0.90968959987E+02 0.  0.
          5    1    4    4  502    0 -0.17207251868E+02  0.53777305233E+02 -0.50520397259E+02  0.75911057259E+02  0.47000000000E+01 0. -1.
         -5    1    3    3    0  503 -0.19230910281E+02 -0.27295172211E+02 -0.61080779646E+02  0.69769663740E+02  0.47000000000E+01 0.  1.
          5    1    3    3  503    0  0.24416522337E+02  0.76670266700E+01  0.19665676030E+02  0.32615620103E+02  0.47000000000E+01 0. -1.
         -5    1    4    4    0  502  0.12021639812E+02 -0.34149159692E+02 -0.29632160879E+02  0.47019569221E+02  0.47000000000E+01 0.  1.
<mgrwt>
<rscale>  0 0.93527854E+02</rscale>
<asrwt>0</asrwt>
<pdfrwt beam="1">  1        1 0.79806347E-02 0.93635119E+02</pdfrwt>
<pdfrwt beam="2">  1       -1 0.26683351E-01 0.93635119E+02</pdfrwt>
<totfact> 0.98845821E+03</totfact>
</mgrwt>
</event>
<event>
 8    1  0.5224537E-004  0.9290151E+02  0.7546771E-02  0.1297002E+00
          2   -1    0    0  501    0  0.00000000000E+00  0.00000000000E+00  0.93381393510E+03  0.93381393510E+03  0.00000000000E+00 0. -1.
         -2   -1    0    0    0  501 -0.00000000000E+00 -0.00000000000E+00 -0.10005090119E+02  0.10005090119E+02  0.00000000000E+00 0.  1.
         23    2    1    2    0    0 -0.42117087926E+01 -0.14253751497E+02  0.61025917878E+03  0.61729000956E+03  0.91704867390E+02 0.  0.
         23    2    1    2    0    0  0.42117087926E+01  0.14253751497E+02  0.31354966621E+03  0.32652901566E+03  0.89927175900E+02 0.  0.
          5    1    3    3  502    0  0.21964725390E+02  0.30159504644E+02  0.34366277703E+03  0.34571410037E+03  0.47000000000E+01 0. -1.
         -5    1    4    4    0  503 -0.24342581938E+02 -0.27331185633E+02  0.89223347749E+02  0.96552839352E+02  0.47000000000E+01 0.  1.
          5    1    4    4  503    0  0.28554290730E+02  0.41584937130E+02  0.22432631846E+03  0.22997617630E+03  0.47000000000E+01 0. -1.
         -5    1    3    3    0  502 -0.26176434182E+02 -0.44413256141E+02  0.26659640175E+03  0.27157590919E+03  0.47000000000E+01 0.  1.
<mgrwt>
<rscale>  0 0.92459782E+02</rscale>
<asrwt>0</asrwt>
<pdfrwt beam="1">  1        2 0.14366361E+00 0.92901510E+02</pdfrwt>
<pdfrwt beam="2">  1       -2 0.15392454E-02 0.92901510E+02</pdfrwt>
<totfact> 0.29976198E+04</totfact>
</mgrwt>
</event>
<event>
 8    1  0.5224537E-004  0.1436597E+03  0.7546771E-02  0.1208668E+00
         -2   -1    0    0    0  501 -0.00000000000E+00  0.00000000000E+00  0.47549240378E+02  0.47549240378E+02  0.00000000000E+00 0.  1.
          2   -1    0    0  501    0  0.00000000000E+00 -0.00000000000E+00 -0.70852048601E+03  0.70852048601E+03  0.00000000000E+00 0. -1.
         23    2    1    2    0    0  0.30864443584E+02  0.10630381795E+03 -0.94088028142E+02  0.17126659549E+03  0.90700463632E+02 0.  0.
         23    2    1    2    0    0 -0.30864443584E+02 -0.10630381795E+03 -0.56688321749E+03  0.58480313089E+03  0.91569667714E+02 0.  0.
          5    1    4    4  502    0 -0.63479270858E+02 -0.71042846623E+02 -0.37302225137E+03  0.38502518606E+03  0.47000000000E+01 0. -1.
         -5    1    4    4    0  502  0.32614827274E+02 -0.35260971327E+02 -0.19386096612E+03  0.19977794484E+03  0.47000000000E+01 0.  1.
          5    1    3    3  503    0 -0.21563200842E+02  0.72249826800E+01 -0.41061499169E+02  0.47173177965E+02  0.47000000000E+01 0. -1.
         -5    1    3    3    0  503  0.52427644426E+02  0.99078835271E+02 -0.53026528972E+02  0.12409341753E+03  0.47000000000E+01 0.  1.
<mgrwt>
<rscale>  0 0.14352142E+03</rscale>
<asrwt>0</asrwt>
<pdfrwt beam="1">  1        2 0.10900316E+00 0.14365974E+03</pdfrwt>
<pdfrwt beam="2">  1       -2 0.73152675E-02 0.14365974E+03</pdfrwt>
<totfact> 0.43798554E+03</totfact>
</mgrwt>
</event>
<event>
 8    1  0.5224537E-004  0.9547731E+02  0.7546771E-02  0.1292747E+00
         -1   -1    0    0    0  501 -0.00000000000E+00  0.00000000000E+00  0.52118102676E+03  0.52118102676E+03  0.00000000000E+00 0.  1.
          1   -1    0    0  501    0  0.00000000000E+00 -0.00000000000E+00 -0.18429367521E+02  0.18429367521E+02  0.00000000000E+00 0. -1.
         23    2    1    2    0    0 -0.26381863178E+02 -0.13806447268E+02  0.16215067906E+03  0.18588035030E+03  0.85860591752E+02 0.  0.
         23    2    1    2    0    0  0.26381863178E+02  0.13806447268E+02  0.34060098018E+03  0.35373004398E+03  0.90715465202E+02 0.  0.
          5    1    3    3  502    0 -0.47159811546E+02  0.13732965972E+02  0.58460129495E+02  0.76500450457E+02  0.47000000000E+01 0. -1.
         -5    1    4    4    0  503  0.10139467209E+02 -0.25957993550E+02  0.26616557489E+03  0.26766178188E+03  0.47000000000E+01 0.  1.
          5    1    4    4  503    0  0.16242395969E+02  0.39764440817E+02  0.74435405284E+02  0.86068262095E+02  0.47000000000E+01 0. -1.
         -5    1    3    3    0  502  0.20777948368E+02 -0.27539413240E+02  0.10369054957E+03  0.10937989984E+03  0.47000000000E+01 0.  1.
<mgrwt>
<rscale>  0 0.94305894E+02</rscale>
<asrwt>0</asrwt>
<pdfrwt beam="1">  1        1 0.28352877E-02 0.95477308E+02</pdfrwt>
<pdfrwt beam="2">  1       -1 0.80181685E-01 0.95477308E+02</pdfrwt>
<totfact> 0.55476553E+03</totfact>
</mgrwt>
</event>
<event>
 8    1  0.5224537E-004  0.9236829E+02  0.7546771E-02  0.1297400E+00
         -1   -1    0    0    0  501 -0.00000000000E+00  0.00000000000E+00  0.41218073385E+03  0.41218073385E+03  0.00000000000E+00 0.  1.
          1   -1    0    0  501    0  0.00000000000E+00 -0.00000000000E+00 -0.39746885790E+02  0.39746885790E+02  0.00000000000E+00 0. -1.
         23    2    1    2    0    0  0.20243806405E+02 -0.33849433040E+01  0.34309526918E+03  0.35531150324E+03  0.90059042104E+02 0.  0.
         23    2    1    2    0    0 -0.20243806405E+02  0.33849433040E+01  0.29338578882E+02  0.96616116399E+02  0.89736571130E+02 0.  0.
          5    1    3    3  502    0 -0.10447931245E+02 -0.40843588519E+02  0.13056322309E+03  0.13728147440E+03  0.47000000000E+01 0. -1.
         -5    1    3    3    0  502  0.30691737650E+02  0.37458645215E+02  0.21253204609E+03  0.21803002884E+03  0.47000000000E+01 0.  1.
          5    1    4    4  503    0 -0.41691830830E+02 -0.30045016900E+02  0.21262353016E+02  0.55812986430E+02  0.47000000000E+01 0. -1.
         -5    1    4    4    0  503  0.21448024425E+02  0.33429960204E+02  0.80762258662E+01  0.40803129968E+02  0.47000000000E+01 0.  1.
<mgrwt>
<rscale>  0 0.92289592E+02</rscale>
<asrwt>0</asrwt>
<pdfrwt beam="1">  1        1 0.61149058E-02 0.92368288E+02</pdfrwt>
<pdfrwt beam="2">  1       -1 0.63412417E-01 0.92368288E+02</pdfrwt>
<totfact> 0.30885796E+03</totfact>
</mgrwt>
</event>
<event>
 8    1  0.5224537E-004  0.9833743E+02  0.7546771E-02  0.1284088E+00
         -2   -1    0    0    0  501 -0.00000000000E+00  0.00000000000E+00  0.94264799701E+01  0.94264799701E+01  0.00000000000E+00 0.  1.
          2   -1    0    0  501    0  0.00000000000E+00 -0.00000000000E+00 -0.10217700787E+04  0.10217700787E+04  0.00000000000E+00 0. -1.
         23    2    1    2    0    0 -0.29521685012E+02  0.25475200366E+02 -0.51992916519E+03  0.52905890399E+03  0.89757848440E+02 0.  0.
         23    2    1    2    0    0  0.29521685012E+02 -0.25475200366E+02 -0.49241443351E+03  0.50213765465E+03  0.90275878111E+02 0.  0.
          5    1    4    4  502    0  0.70224751924E+01 -0.57875990315E+02 -0.30541658093E+03  0.31096675597E+03  0.47000000000E+01 0. -1.
         -5    1    4    4    0  502  0.22499209820E+02  0.32400789949E+02 -0.18699785258E+03  0.19117089868E+03  0.47000000000E+01 0.  1.
          5    1    3    3  503    0  0.23606113891E+02 -0.16525855973E+02 -0.12742863016E+03  0.13073063265E+03  0.47000000000E+01 0. -1.
         -5    1    3    3    0  503 -0.53127798903E+02  0.42001056340E+02 -0.39250053503E+03  0.39832827134E+03  0.47000000000E+01 0.  1.
<mgrwt>
<rscale>  0 0.98218376E+02</rscale>
<asrwt>0</asrwt>
<pdfrwt beam="1">  1        2 0.15719532E+00 0.98337429E+02</pdfrwt>
<pdfrwt beam="2">  1       -2 0.14502284E-02 0.98337429E+02</pdfrwt>
<totfact> 0.29091996E+04</totfact>
</mgrwt>
</event>
<event>
 8    1  0.5224537E-004  0.1081293E+03  0.7546771E-02  0.1264397E+00
         -2   -1    0    0    0  501 -0.00000000000E+00  0.00000000000E+00  0.28316470280E+02  0.28316470280E+02  0.00000000000E+00 0.  1.
          2   -1    0    0  501    0  0.00000000000E+00 -0.00000000000E+00 -0.68180309190E+03  0.68180309190E+03  0.00000000000E+00 0. -1.
         23    2    1    2    0    0  0.45289173383E+02 -0.37022483136E+02 -0.10331085708E+03  0.14954957971E+03  0.90940475674E+02 0.  0.
         23    2    1    2    0    0 -0.45289173383E+02  0.37022483136E+02 -0.55017576454E+03  0.56056998247E+03  0.90130793200E+02 0.  0.
          5    1    3    3  502    0 -0.64989638549E+01 -0.22163673638E+02 -0.91108343286E+02  0.94107838019E+02  0.47000000000E+01 0. -1.
         -5    1    4    4    0  503  0.23171681605E+02  0.15030043809E+02 -0.76997041041E+02  0.81935727094E+02  0.47000000000E+01 0.  1.
          5    1    4    4  503    0 -0.68460854989E+02  0.21992439327E+02 -0.47317872350E+03  0.47863425538E+03  0.47000000000E+01 0. -1.
         -5    1    3    3    0  502  0.51788137238E+02 -0.14858809499E+02 -0.12202513796E+02  0.55441741687E+02  0.47000000000E+01 0.  1.
<mgrwt>
<rscale>  0 0.10795887E+03</rscale>
<asrwt>0</asrwt>
<pdfrwt beam="1">  1        2 0.10489278E+00 0.10812929E+03</pdfrwt>
<pdfrwt beam="2">  1       -2 0.43563800E-02 0.10812929E+03</pdfrwt>
<totfact> 0.98623159E+03</totfact>
</mgrwt>
</event>
<event>
 8    1  0.5224537E-004  0.9126939E+02  0.7546771E-02  0.1307460E+00
          2   -1    0    0  501    0  0.00000000000E+00  0.00000000000E+00  0.69275853765E+03  0.69275853765E+03  0.00000000000E+00 0. -1.
         -2   -1    0    0    0  501 -0.00000000000E+00 -0.00000000000E+00 -0.22593982198E+02  0.22593982198E+02  0.00000000000E+00 0.  1.
         23    2    1    2    0    0 -0.47317645916E+01 -0.88226203362E+01  0.84626175126E+02  0.12446562067E+03  0.90718647407E+02 0.  0.
         23    2    1    2    0    0  0.47317645916E+01  0.88226203362E+01  0.58553838032E+03  0.59088689917E+03  0.78688655820E+02 0.  0.
          5    1    3    3  502    0 -0.11582872053E+01 -0.46586307420E+02  0.68497372175E+02  0.82979549668E+02  0.47000000000E+01 0. -1.
         -5    1    4    4    0  503  0.19561022137E+02  0.39811410248E+02  0.31975496517E+03  0.32285121918E+03  0.47000000000E+01 0.  1.
          5    1    4    4  503    0 -0.14829257546E+02 -0.30988789912E+02  0.26578341515E+03  0.26803567999E+03  0.47000000000E+01 0. -1.
         -5    1    3    3    0  502 -0.35734773863E+01  0.37763687084E+02  0.16128802951E+02  0.41486071005E+02  0.47000000000E+01 0.  1.
<mgrwt>
<rscale>  0 0.88123876E+02</rscale>
<asrwt>0</asrwt>
<pdfrwt beam="1">  1        2 0.10657822E+00 0.91269388E+02</pdfrwt>
<pdfrwt beam="2">  1       -2 0.34759978E-02 0.91269388E+02</pdfrwt>
<totfact> 0.13326013E+04</totfact>
</mgrwt>
</event>
<event>
 7    1  0.5224537E-004  0.1811018E+03  0.7546771E-02  0.1183381E+00
         -2   -1    0    0    0  501 -0.00000000000E+00  0.00000000000E+00  0.21778244772E+02  0.21778244772E+02  0.00000000000E+00 0. -1.
          2   -1    0    0  501    0  0.00000000000E+00 -0.00000000000E+00 -0.10725061170E+04  0.10725061170E+04  0.00000000000E+00 0.  1.
         23    2    1    2    0    0 -0.66598897087E+02 -0.50542214216E+02 -0.45434375799E+03  0.47100922929E+03  0.91823282120E+02 0.  0.
          5    1    3    3  502    0 -0.67359902217E+02 -0.73176339964E+02 -0.33673469900E+03  0.35114737742E+03  0.47000000000E+01 0. -1.
         -5    1    3    3    0  502  0.76100513063E+00  0.22634125748E+02 -0.11760905899E+03  0.11986185187E+03  0.47000000000E+01 0.  1.
          5    1    1    2  503    0  0.48221704253E+02 -0.17126998340E+02 -0.47718961783E+02  0.70127427921E+02  0.47000000000E+01 0. -1.
         -5    1    1    2    0  503  0.18377192834E+02  0.67669212557E+02 -0.54866515247E+03  0.55314770457E+03  0.47000000000E+01 0.  1.
<mgrwt>
<rscale>  0 0.16480022E+03</rscale>
<asrwt>0</asrwt>
<pdfrwt beam="1">  1        2 0.16500095E+00 0.18110185E+03</pdfrwt>
<pdfrwt beam="2">  1       -2 0.33504991E-02 0.18110185E+03</pdfrwt>
<totfact> 0.83619318E+03</totfact>
</mgrwt>
</event>
<event>
 8    1  0.5224537E-004  0.1071199E+03  0.7546771E-02  0.1266806E+00
          1   -1    0    0  501    0  0.00000000000E+00  0.00000000000E+00  0.94248370101E+03  0.94248370101E+03  0.00000000000E+00 0. -1.
         -1   -1    0    0    0  501 -0.00000000000E+00 -0.00000000000E+00 -0.13812132600E+02  0.13812132600E+02  0.00000000000E+00 0.  1.
         23    2    1    2    0    0  0.33630514314E+02 -0.40308346842E+02  0.63502784009E+03  0.64372372581E+03  0.91455470959E+02 0.  0.
         23    2    1    2    0    0 -0.33630514314E+02  0.40308346842E+02  0.29364372832E+03  0.31257210780E+03  0.93375098782E+02 0.  0.
          5    1    4    4  502    0 -0.61355342364E+02  0.93656378682E+01  0.21046016935E+03  0.21947156101E+03  0.47000000000E+01 0. -1.
         -5    1    4    4    0  502  0.27724828050E+02  0.30942708974E+02  0.83183558966E+02  0.93100546783E+02  0.47000000000E+01 0.  1.
          5    1    3    3  503    0 -0.11686457216E+02 -0.55733671213E+02  0.36495032682E+03  0.36939632705E+03  0.47000000000E+01 0. -1.
         -5    1    3    3    0  503  0.45316971530E+02  0.15425324371E+02  0.27007751326E+03  0.27432739876E+03  0.47000000000E+01 0.  1.
<mgrwt>
<rscale>  0 0.10670021E+03</rscale>
<asrwt>0</asrwt>
<pdfrwt beam="1">  1        1 0.14499744E+00 0.10711995E+03</pdfrwt>
<pdfrwt beam="2">  1       -1 0.21249442E-02 0.10711995E+03</pdfrwt>
<totfact> 0.10520409E+04</totfact>
</mgrwt>
</event>
<event>
 8    1  0.5224537E-004  0.1149139E+03  0.7546771E-02  0.1252036E+00
          1   -1    0    0  501    0  0.00000000000E+00  0.00000000000E+00  0.41457279262E+03  0.41457279262E+03  0.00000000000E+00 0. -1.
         -1   -1    0    0    0  501 -0.00000000000E+00 -0.00000000000E+00 -0.31794443526E+02  0.31794443526E+02  0.00000000000E+00 0.  1.
         23    2    1    2    0    0 -0.53687319057E+02  0.42567753017E+02  0.20646493877E+03  0.23629000446E+03  0.92254286870E+02 0.  0.
         23    2    1    2    0    0  0.53687319057E+02 -0.42567753017E+02  0.17631341033E+03  0.21007723168E+03  0.91387541736E+02 0.  0.
          5    1    4    4  502    0 -0.16364615637E+02 -0.40246008767E+02  0.60667857317E+02  0.74767779010E+02  0.47000000000E+01 0. -1.
         -5    1    4    4    0  502  0.70051934694E+02 -0.23217442508E+01  0.11564555301E+03  0.13530945267E+03  0.47000000000E+01 0.  1.
          5    1    3    3  503    0 -0.78825671329E+02  0.21684593281E+02  0.14589073875E+03  0.16730184010E+03  0.47000000000E+01 0. -1.
         -5    1    3    3    0  503  0.25138352272E+02  0.20883159736E+02  0.60574200014E+02  0.68988164368E+02  0.47000000000E+01 0.  1.
<mgrwt>
<rscale>  0 0.11473980E+03</rscale>
<asrwt>0</asrwt>
<pdfrwt beam="1">  1        1 0.63780426E-01 0.11491386E+03</pdfrwt>
<pdfrwt beam="2">  1       -1 0.48914531E-02 0.11491386E+03</pdfrwt>
<totfact> 0.98680827E+03</totfact>
</mgrwt>
</event>
<event>
 8    1  0.5224537E-004  0.1039767E+03  0.7546771E-02  0.1272744E+00
          1   -1    0    0  501    0  0.00000000000E+00  0.00000000000E+00  0.13269248605E+03  0.13269248605E+03  0.00000000000E+00 0. -1.
         -1   -1    0    0    0  501 -0.00000000000E+00 -0.00000000000E+00 -0.15113486321E+03  0.15113486321E+03  0.00000000000E+00 0.  1.
         23    2    1    2    0    0 -0.44196166705E+02  0.11876074546E+02 -0.10623289801E+03  0.14864921834E+03  0.93363907351E+02 0.  0.
         23    2    1    2    0    0  0.44196166705E+02 -0.11876074546E+02  0.87790520855E+02  0.13517813092E+03  0.92041345218E+02 0.  0.
          5    1    4    4  502    0  0.69197760736E+02 -0.91464737146E+01  0.83995025060E+02  0.10931258988E+03  0.47000000000E+01 0. -1.
         -5    1    4    4    0  502 -0.25001594032E+02 -0.27296008316E+01  0.37954957948E+01  0.25865541037E+02  0.47000000000E+01 0.  1.
          5    1    3    3  503    0 -0.42108591262E+02 -0.28602669424E+02 -0.23214289411E+02  0.56144807321E+02  0.47000000000E+01 0. -1.
         -5    1    3    3    0  503 -0.20875754428E+01  0.40478743970E+02 -0.83018608596E+02  0.92504411019E+02  0.47000000000E+01 0.  1.
<mgrwt>
<rscale>  0 0.10367898E+03</rscale>
<asrwt>0</asrwt>
<pdfrwt beam="1">  1        1 0.20414229E-01 0.10397674E+03</pdfrwt>
<pdfrwt beam="2">  1       -1 0.23251517E-01 0.10397674E+03</pdfrwt>
<totfact> 0.36983685E+03</totfact>
</mgrwt>
</event>
<event>
 8    1  0.5224537E-004  0.1002720E+03  0.7546771E-02  0.1280834E+00
         -1   -1    0    0    0  501 -0.00000000000E+00  0.00000000000E+00  0.11385867438E+03  0.11385867438E+03  0.00000000000E+00 0.  1.
          1   -1    0    0  501    0  0.00000000000E+00 -0.00000000000E+00 -0.14699473686E+03  0.14699473686E+03  0.00000000000E+00 0. -1.
         23    2    1    2    0    0 -0.38177859249E+02 -0.31392221024E+01  0.67221393089E+02  0.11898695099E+03  0.90397871461E+02 0.  0.
         23    2    1    2    0    0  0.38177859249E+02  0.31392221024E+01 -0.10035745556E+03  0.14186646025E+03  0.92666444872E+02 0.  0.
          5    1    4    4  502    0  0.63409825270E+02  0.90672221854E+01 -0.95487947883E+02  0.11507848908E+03  0.47000000000E+01 0. -1.
         -5    1    4    4    0  502 -0.25231966020E+02 -0.59280000829E+01 -0.48695076776E+01  0.26787971167E+02  0.47000000000E+01 0.  1.
          5    1    3    3  503    0  0.66759988093E+01  0.19698423265E+02 -0.12404817235E+02  0.24669137194E+02  0.47000000000E+01 0. -1.
         -5    1    3    3    0  503 -0.44853858059E+02 -0.22837645368E+02  0.79626210324E+02  0.94317813796E+02  0.47000000000E+01 0.  1.
<mgrwt>
<rscale>  0 0.99744684E+02</rscale>
<asrwt>0</asrwt>
<pdfrwt beam="1">  1        1 0.22614575E-01 0.10027200E+03</pdfrwt>
<pdfrwt beam="2">  1       -1 0.17516719E-01 0.10027200E+03</pdfrwt>
<totfact> 0.50981266E+03</totfact>
</mgrwt>
</event>
<event>
 8    1  0.5224537E-004  0.1338113E+03  0.7546771E-02  0.1231914E+00
          1   -1    0    0  501    0  0.00000000000E+00  0.00000000000E+00  0.46470866998E+02  0.46470866998E+02  0.00000000000E+00 0. -1.
         -1   -1    0    0    0  501 -0.00000000000E+00 -0.00000000000E+00 -0.31677882614E+03  0.31677882614E+03  0.00000000000E+00 0.  1.
         23    2    1    2    0    0  0.46585764949E+02  0.37401360387E+02 -0.11520400606E+03  0.15840167408E+03  0.90829687236E+02 0.  0.
         23    2    1    2    0    0 -0.46585764949E+02 -0.37401360387E+02 -0.15510395308E+03  0.20484801906E+03  0.11973462071E+03 0.  0.
          5    1    4    4  502    0  0.31771930676E+02 -0.43646542316E+02 -0.51919665198E+02  0.75048103702E+02  0.47000000000E+01 0. -1.
         -5    1    3    3    0  503  0.71116857528E+02  0.24445546971E+02 -0.10327542892E+03  0.12784012050E+03  0.47000000000E+01 0.  1.
          5    1    3    3  503    0 -0.24531092579E+02  0.12955813416E+02 -0.11928577141E+02  0.30561553576E+02  0.47000000000E+01 0. -1.
         -5    1    4    4    0  502 -0.78357695625E+02  0.62451819289E+01 -0.10318428789E+03  0.12979991536E+03  0.47000000000E+01 0.  1.
<mgrwt>
<rscale>  0 0.12704070E+03</rscale>
<asrwt>0</asrwt>
<pdfrwt beam="1">  1        1 0.71493639E-02 0.13381134E+03</pdfrwt>
<pdfrwt beam="2">  1       -1 0.48735205E-01 0.13381134E+03</pdfrwt>
<totfact> 0.41816630E+03</totfact>
</mgrwt>
</event>
<event>
 8    1  0.5224537E-004  0.9224974E+02  0.7546771E-02  0.1297728E+00
          3   -1    0    0  501    0  0.00000000000E+00  0.00000000000E+00  0.39999543652E+02  0.39999543652E+02  0.00000000000E+00 0. -1.
         -3   -1    0    0    0  501 -0.00000000000E+00 -0.00000000000E+00 -0.21367643373E+03  0.21367643373E+03  0.00000000000E+00 0.  1.
         23    2    1    2    0    0  0.77351776339E+01  0.62264700272E+01 -0.75238138878E+02  0.11904113397E+03  0.91713751057E+02 0.  0.
         23    2    1    2    0    0 -0.77351776339E+01 -0.62264700272E+01 -0.98438751204E+02  0.13463484342E+03  0.91311288575E+02 0.  0.
          5    1    3    3  502    0 -0.74770381482E+01  0.40530600062E+02 -0.85168901793E+01  0.42346936834E+02  0.47000000000E+01 0. -1.
         -5    1    3    3    0  502  0.15212215782E+02 -0.34304130035E+02 -0.66721248699E+02  0.76694197136E+02  0.47000000000E+01 0.  1.
          5    1    4    4  503    0 -0.49397804584E+02 -0.25130973868E+01 -0.50590683223E+02  0.70908151754E+02  0.47000000000E+01 0. -1.
         -5    1    4    4    0  503  0.41662626950E+02 -0.37133726404E+01 -0.47848067982E+02  0.63726691663E+02  0.47000000000E+01 0.  1.
<mgrwt>
<rscale>  0 0.92149546E+02</rscale>
<asrwt>0</asrwt>
<pdfrwt beam="1">  1        3 0.61537759E-02 0.92249737E+02</pdfrwt>
<pdfrwt beam="2">  1       -3 0.32873298E-01 0.92249737E+02</pdfrwt>
<totfact> 0.31259351E+03</totfact>
</mgrwt>
</event>
<event>
 8    1  0.5224537E-004  0.1292568E+03  0.7546771E-02  0.1239608E+00
          1   -1    0    0  501    0  0.00000000000E+00  0.00000000000E+00  0.16545767232E+03  0.16545767232E+03  0.00000000000E+00 0. -1.
         -1   -1    0    0    0  501 -0.00000000000E+00 -0.00000000000E+00 -0.89791854804E+02  0.89791854804E+02  0.00000000000E+00 0.  1.
         23    2    1    2    0    0  0.44077689576E+02 -0.46720825881E+01  0.72410632962E+02  0.12595173964E+03  0.93036927496E+02 0.  0.
         23    2    1    2    0    0 -0.44077689576E+02  0.46720825881E+01  0.32551845594E+01  0.12929778749E+03  0.12141931704E+03 0.  0.
          5    1    4    4  502    0  0.87124656658E+01 -0.33354877362E+02 -0.38465701598E+02  0.51866705132E+02  0.47000000000E+01 0. -1.
         -5    1    3    3    0  503 -0.85852886537E+01 -0.37962250507E+02  0.18157575898E+02  0.43204481334E+02  0.47000000000E+01 0.  1.
          5    1    3    3  503    0  0.52662978230E+02  0.33290167919E+02  0.54253057063E+02  0.82747258304E+02  0.47000000000E+01 0. -1.
         -5    1    4    4    0  502 -0.52790155242E+02  0.38026959950E+02  0.41720886158E+02  0.77431082359E+02  0.47000000000E+01 0.  1.
<mgrwt>
<rscale>  0 0.12214013E+03</rscale>
<asrwt>0</asrwt>
<pdfrwt beam="1">  1        1 0.25455026E-01 0.12925680E+03</pdfrwt>
<pdfrwt beam="2">  1       -1 0.13814132E-01 0.12925680E+03</pdfrwt>
<totfact> 0.64887749E+03</totfact>
</mgrwt>
</event>
<event>
 8    1  0.5224537E-004  0.1003685E+03  0.7546771E-02  0.1279776E+00
          1   -1    0    0  501    0  0.00000000000E+00  0.00000000000E+00  0.27117804338E+02  0.27117804338E+02  0.00000000000E+00 0. -1.
         -1   -1    0    0    0  501 -0.00000000000E+00 -0.00000000000E+00 -0.41259879941E+03  0.41259879941E+03  0.00000000000E+00 0.  1.
         23    2    1    2    0    0  0.39739295939E+02  0.12849833820E+02 -0.12143423310E+03  0.15723735871E+03  0.90735793013E+02 0.  0.
         23    2    1    2    0    0 -0.39739295939E+02 -0.12849833820E+02 -0.26404676197E+03  0.28247924504E+03  0.91266102688E+02 0.  0.
          5    1    3    3  502    0  0.60205213621E+02  0.27816444314E+02 -0.56079722828E+02  0.86979581707E+02  0.47000000000E+01 0. -1.
         -5    1    4    4    0  503 -0.54180390839E+02  0.19198746062E+02 -0.21046410608E+03  0.21822313477E+03  0.47000000000E+01 0.  1.
          5    1    4    4  503    0  0.14441094900E+02 -0.32048579882E+02 -0.53582655891E+02  0.64256110268E+02  0.47000000000E+01 0. -1.
         -5    1    3    3    0  502 -0.20465917682E+02 -0.14966610494E+02 -0.65354510269E+02  0.70257776998E+02  0.47000000000E+01 0.  1.
<mgrwt>
<rscale>  0 0.10024777E+03</rscale>
<asrwt>0</asrwt>
<pdfrwt beam="1">  1        1 0.41719696E-02 0.10036848E+03</pdfrwt>
<pdfrwt beam="2">  1       -1 0.63476742E-01 0.10036848E+03</pdfrwt>
<totfact> 0.52006952E+03</totfact>
</mgrwt>
</event>
<event>
 8    1  0.5224537E-004  0.1032196E+03  0.7546771E-02  0.1289197E+00
         -3   -1    0    0    0  501 -0.00000000000E+00  0.00000000000E+00  0.66477134435E+02  0.66477134435E+02  0.00000000000E+00 0.  1.
          3   -1    0    0  501    0  0.00000000000E+00 -0.00000000000E+00 -0.15110361072E+03  0.15110361072E+03  0.00000000000E+00 0. -1.
         23    2    1    2    0    0 -0.60578912246E+01  0.24399925870E+01 -0.84681526826E+02  0.11436109771E+03  0.76582296093E+02 0.  0.
         23    2    1    2    0    0  0.60578912246E+01 -0.24399925870E+01  0.55050544891E-01  0.10321964744E+03  0.10301281948E+03 0.  0.
          5    1    3    3  502    0 -0.20201561123E+02 -0.23713004057E+02 -0.77145740806E+02  0.83330456364E+02  0.47000000000E+01 0. -1.
         -5    1    4    4    0  503  0.50806056977E+02 -0.42418850844E+00  0.18878201000E+02  0.54405071772E+02  0.47000000000E+01 0.  1.
          5    1    4    4  503    0 -0.44748165753E+02 -0.20158040786E+01 -0.18823150455E+02  0.48814575665E+02  0.47000000000E+01 0. -1.
         -5    1    3    3    0  502  0.14143669899E+02  0.26152996644E+02 -0.75357860197E+01  0.31030641350E+02  0.47000000000E+01 0.  1.
<mgrwt>
<rscale>  0 0.95884232E+02</rscale>
<asrwt>0</asrwt>
<pdfrwt beam="1">  1        3 0.23246709E-01 0.10321963E+03</pdfrwt>
<pdfrwt beam="2">  1       -3 0.10227251E-01 0.10321963E+03</pdfrwt>
<totfact> 0.26439336E+03</totfact>
</mgrwt>
</event>
<event>
 8    1  0.5224537E-004  0.1018901E+03  0.7546771E-02  0.1277172E+00
         -1   -1    0    0    0  501 -0.00000000000E+00  0.00000000000E+00  0.50507665630E+02  0.50507665630E+02  0.00000000000E+00 0.  1.
          1   -1    0    0  501    0  0.00000000000E+00 -0.00000000000E+00 -0.32020359747E+03  0.32020359747E+03  0.00000000000E+00 0. -1.
         23    2    1    2    0    0 -0.48721754835E+01  0.37906361319E+02 -0.21783319345E+02  0.10267721976E+03  0.92776441700E+02 0.  0.
         23    2    1    2    0    0  0.48721754835E+01 -0.37906361319E+02 -0.24791261249E+03  0.26803404333E+03  0.94450805343E+02 0.  0.
          5    1    4    4  502    0  0.68263747742E+01 -0.69296945578E+02 -0.17955295142E+03  0.19263960761E+03  0.47000000000E+01 0. -1.
         -5    1    4    4    0  502 -0.19541992906E+01  0.31390584259E+02 -0.68359661076E+02  0.75394435719E+02  0.47000000000E+01 0.  1.
          5    1    3    3  503    0  0.52782991276E+01 -0.24945368421E+02 -0.28448631784E+02  0.38490862522E+02  0.47000000000E+01 0. -1.
         -5    1    3    3    0  503 -0.10150474611E+02  0.62851729740E+02  0.66653124383E+01  0.64186357242E+02  0.47000000000E+01 0.  1.
<mgrwt>
<rscale>  0 0.10150030E+03</rscale>
<asrwt>0</asrwt>
<pdfrwt beam="1">  1        1 0.49262092E-01 0.10189006E+03</pdfrwt>
<pdfrwt beam="2">  1       -1 0.77704102E-02 0.10189006E+03</pdfrwt>
<totfact> 0.67860417E+03</totfact>
</mgrwt>
</event>
<event>
 8    1  0.5224537E-004  0.1134026E+03  0.7546771E-02  0.1254951E+00
          2   -1    0    0  501    0  0.00000000000E+00  0.00000000000E+00  0.10186852662E+03  0.10186852662E+03  0.00000000000E+00 0. -1.
         -2   -1    0    0    0  501 -0.00000000000E+00 -0.00000000000E+00 -0.13792123987E+03  0.13792123987E+03  0.00000000000E+00 0.  1.
         23    2    1    2    0    0 -0.73520774344E+01  0.60602395167E+02 -0.55007076232E+02  0.12603942529E+03  0.95569110851E+02 0.  0.
         23    2    1    2    0    0  0.73520774344E+01 -0.60602395167E+02  0.18954362978E+02  0.11375034120E+03  0.94091279638E+02 0.  0.
          5    1    3    3  502    0  0.71340191788E+01  0.77859591826E+02 -0.64179726509E+02  0.10126271557E+03  0.47000000000E+01 0.  1.
         -5    1    3    3    0  502 -0.14486096613E+02 -0.17257196659E+02  0.91726502764E+01  0.24776709723E+02  0.47000000000E+01 0. -1.
          5    1    4    4  503    0  0.35095114753E+02 -0.23483357067E+02  0.43747341593E+02  0.60984055581E+02  0.47000000000E+01 0. -1.
         -5    1    4    4    0  503 -0.27743037318E+02 -0.37119038100E+02 -0.24792978615E+02  0.52766285616E+02  0.47000000000E+01 0.  1.
<mgrwt>
<rscale>  0 0.11309070E+03</rscale>
<asrwt>0</asrwt>
<pdfrwt beam="1">  1        2 0.15672081E-01 0.11340264E+03</pdfrwt>
<pdfrwt beam="2">  1       -2 0.21218652E-01 0.11340264E+03</pdfrwt>
<totfact> 0.65584262E+03</totfact>
</mgrwt>
</event>
<event>
 8    1  0.5224537E-004  0.1818792E+03  0.7546771E-02  0.1166637E+00
         -2   -1    0    0    0  501 -0.00000000000E+00  0.00000000000E+00  0.87813955235E+02  0.87813955235E+02  0.00000000000E+00 0.  1.
          2   -1    0    0  501    0  0.00000000000E+00 -0.00000000000E+00 -0.94987227155E+03  0.94987227155E+03  0.00000000000E+00 0. -1.
         23    2    1    2    0    0  0.15066755545E+03  0.29842166170E+02 -0.27312361700E+02  0.18391850640E+03  0.97410393435E+02 0.  0.
         23    2    1    2    0    0 -0.15066755545E+03 -0.29842166170E+02 -0.83474595461E+03  0.85376772038E+03  0.92343080293E+02 0.  0.
          5    1    3    3  502    0  0.16240874190E+02 -0.29541238706E+02 -0.11993668954E+02  0.36088625268E+02  0.47000000000E+01 0. -1.
         -5    1    3    3    0  502  0.13442668126E+03  0.59383404876E+02 -0.15318692747E+02  0.14782988113E+03  0.47000000000E+01 0.  1.
          5    1    4    4  503    0 -0.12965826005E+03  0.39347542154E+01 -0.73331497547E+03  0.74471450230E+03  0.47000000000E+01 0. -1.
         -5    1    4    4    0  503 -0.21009295401E+02 -0.33776920385E+02 -0.10143097914E+03  0.10905321808E+03  0.47000000000E+01 0.  1.
<mgrwt>
<rscale>  0 0.18120983E+03</rscale>
<asrwt>0</asrwt>
<pdfrwt beam="1">  1        2 0.14613419E+00 0.18187922E+03</pdfrwt>
<pdfrwt beam="2">  1       -2 0.13509840E-01 0.18187922E+03</pdfrwt>
<totfact> 0.11518763E+03</totfact>
</mgrwt>
</event>
<event>
 8    1  0.5224537E-004  0.1036612E+03  0.7546771E-02  0.1273704E+00
          1   -1    0    0  501    0  0.00000000000E+00  0.00000000000E+00  0.21670939139E+03  0.21670939139E+03  0.00000000000E+00 0. -1.
         -1   -1    0    0    0  501 -0.00000000000E+00 -0.00000000000E+00 -0.48949665880E+02  0.48949665880E+02  0.00000000000E+00 0.  1.
         23    2    1    2    0    0  0.41546966926E+02  0.25027878884E+02  0.75439656019E+02  0.12820604347E+03  0.91613878318E+02 0.  0.
         23    2    1    2    0    0 -0.41546966926E+02 -0.25027878884E+02  0.92320069492E+02  0.13745301380E+03  0.89542116287E+02 0.  0.
          5    1    3    3  502    0  0.39013618724E+02  0.57294316383E+02  0.40813728614E+02  0.80576371096E+02  0.47000000000E+01 0. -1.
         -5    1    4    4    0  503 -0.22974568368E+02 -0.43107799851E+02  0.87729214078E+01  0.49851452834E+02  0.47000000000E+01 0. -1.
          5    1    4    4  503    0 -0.18572398558E+02  0.18079920967E+02  0.83547148084E+02  0.87601560964E+02  0.47000000000E+01 0. -1.
         -5    1    3    3    0  502  0.25333482019E+01 -0.32266437499E+02  0.34625927405E+02  0.47629672376E+02  0.47000000000E+01 0.  1.
<mgrwt>
<rscale>  0 0.10320158E+03</rscale>
<asrwt>0</asrwt>
<pdfrwt beam="1">  1        1 0.33339906E-01 0.10366122E+03</pdfrwt>
<pdfrwt beam="2">  1       -1 0.75307180E-02 0.10366122E+03</pdfrwt>
<totfact> 0.11493198E+04</totfact>
</mgrwt>
</event>
<event>
 8    1  0.5224537E-004  0.1041156E+03  0.7546771E-02  0.1272309E+00
          2   -1    0    0  501    0  0.00000000000E+00  0.00000000000E+00  0.17946210301E+03  0.17946210301E+03  0.00000000000E+00 0. -1.
         -2   -1    0    0    0  501 -0.00000000000E+00 -0.00000000000E+00 -0.80672292595E+02  0.80672292595E+02  0.00000000000E+00 0.  1.
         23    2    1    2    0    0 -0.25642509949E+02 -0.42674743843E+02  0.11524404170E+03  0.15472665465E+03  0.90445986282E+02 0.  0.
         23    2    1    2    0    0  0.25642509949E+02  0.42674743843E+02 -0.16454231289E+02  0.10540774095E+03  0.91440571116E+02 0.  0.
          5    1    3    3  502    0  0.29768629141E+02 -0.22268548715E+02  0.72722646822E+02  0.81809124819E+02  0.47000000000E+01 0. -1.
         -5    1    4    4    0  503  0.13388797955E+02  0.65522007877E+02  0.10334515941E+02  0.67832777081E+02  0.47000000000E+01 0.  1.
          5    1    4    4  503    0  0.12253711994E+02 -0.22847264034E+02 -0.26788747230E+02  0.37574963867E+02  0.47000000000E+01 0. -1.
         -5    1    3    3    0  502 -0.55411139090E+02 -0.20406195128E+02  0.42521394879E+02  0.72917529836E+02  0.47000000000E+01 0.  1.
<mgrwt>
<rscale>  0 0.10389677E+03</rscale>
<asrwt>0</asrwt>
<pdfrwt beam="1">  1        2 0.27609554E-01 0.10411556E+03</pdfrwt>
<pdfrwt beam="2">  1       -2 0.12411122E-01 0.10411556E+03</pdfrwt>
<totfact> 0.83362517E+03</totfact>
</mgrwt>
</event>
<event>
 8    1  0.5224537E-004  0.1052602E+03  0.7546771E-02  0.1272632E+00
          1   -1    0    0  501    0  0.00000000000E+00  0.00000000000E+00  0.21456957104E+03  0.21456957104E+03  0.00000000000E+00 0. -1.
         -1   -1    0    0    0  501 -0.00000000000E+00 -0.00000000000E+00 -0.67643864704E+02  0.67643864704E+02  0.00000000000E+00 0.  1.
         23    2    1    2    0    0  0.41063336744E+02 -0.37004612136E+02  0.45564228775E+00  0.10526122480E+03  0.89577781241E+02 0.  0.
         23    2    1    2    0    0 -0.41063336744E+02  0.37004612136E+02  0.14647006405E+03  0.17695221095E+03  0.82480702913E+02 0.  0.
          5    1    4    4  502    0  0.11904788053E+02  0.31831421068E+02  0.10142326967E+03  0.10706882355E+03  0.47000000000E+01 0. -1.
         -5    1    4    4    0  502 -0.52968124797E+02  0.51731910687E+01  0.45046794376E+02  0.69883387396E+02  0.47000000000E+01 0.  1.
          5    1    3    3  503    0  0.22119611836E+02  0.23551074384E+02 -0.20170362955E+02  0.38377908674E+02  0.47000000000E+01 0. -1.
         -5    1    3    3    0  503  0.18943724908E+02 -0.60555686521E+02  0.20626005243E+02  0.66883316123E+02  0.47000000000E+01 0.  1.
<mgrwt>
<rscale>  0 0.10373497E+03</rscale>
<asrwt>0</asrwt>
<pdfrwt beam="1">  1        1 0.33010703E-01 0.10526024E+03</pdfrwt>
<pdfrwt beam="2">  1       -1 0.10406749E-01 0.10526024E+03</pdfrwt>
<totfact> 0.71572079E+03</totfact>
</mgrwt>
</event>
<event>
 8    1  0.5224537E-004  0.1334505E+03  0.7546771E-02  0.1222532E+00
         -2   -1    0    0    0  501 -0.00000000000E+00  0.00000000000E+00  0.12069336882E+03  0.12069336882E+03  0.00000000000E+00 0.  1.
          2   -1    0    0  501    0  0.00000000000E+00 -0.00000000000E+00 -0.14744684328E+03  0.14744684328E+03  0.00000000000E+00 0. -1.
         23    2    1    2    0    0  0.39784950823E+02  0.88403659918E+02 -0.18580471705E+02  0.13443971748E+03  0.91272965923E+02 0.  0.
         23    2    1    2    0    0 -0.39784950823E+02 -0.88403659918E+02 -0.81730027538E+01  0.13370049462E+03  0.91711367275E+02 0.  0.
          5    1    4    4  502    0  0.21085257014E+02 -0.34384039103E+02 -0.28591448913E+02  0.49662975740E+02  0.47000000000E+01 0. -1.
         -5    1    4    4    0  502 -0.60870207837E+02 -0.54019620815E+02  0.20418446160E+02  0.84037518875E+02  0.47000000000E+01 0.  1.
          5    1    3    3  503    0  0.12860029089E+02  0.25414709057E+02 -0.50926048192E+02  0.58539219068E+02  0.47000000000E+01 0. -1.
         -5    1    3    3    0  503  0.26924921734E+02  0.62988950861E+02  0.32345576487E+02  0.75900498412E+02  0.47000000000E+01 0.  1.
<mgrwt>
<rscale>  0 0.13337517E+03</rscale>
<asrwt>0</asrwt>
<pdfrwt beam="1">  1        2 0.22684130E-01 0.13345046E+03</pdfrwt>
<pdfrwt beam="2">  1       -2 0.18568211E-01 0.13345046E+03</pdfrwt>
<totfact> 0.54604508E+03</totfact>
</mgrwt>
</event>
<event>
 8    1  0.5224537E-004  0.1496567E+03  0.7546771E-02  0.1201319E+00
          1   -1    0    0  501    0  0.00000000000E+00  0.00000000000E+00  0.43208942130E+02  0.43208942130E+02  0.00000000000E+00 0. -1.
         -1   -1    0    0    0  501 -0.00000000000E+00 -0.00000000000E+00 -0.75940513979E+03  0.75940513979E+03  0.00000000000E+00 0.  1.
         23    2    1    2    0    0  0.11374059785E+03  0.32768054966E+02 -0.58529191921E+03  0.60378489340E+03  0.89324676204E+02 0.  0.
         23    2    1    2    0    0 -0.11374059785E+03 -0.32768054966E+02 -0.13090427845E+03  0.19882918852E+03  0.91577546733E+02 0.  0.
          5    1    4    4  502    0 -0.93084022919E+02 -0.26101803644E+02 -0.39118583931E+02  0.10439489013E+03  0.47000000000E+01 0. -1.
         -5    1    4    4    0  502 -0.20656574930E+02 -0.66662513218E+01 -0.91785694515E+02  0.94434298388E+02  0.47000000000E+01 0.  1.
          5    1    3    3  503    0  0.56279785824E+02  0.36228289224E+01 -0.45343918449E+03  0.45695702557E+03  0.47000000000E+01 0.  1.
         -5    1    3    3    0  503  0.57460812025E+02  0.29145226043E+02 -0.13185273472E+03  0.14682786784E+03  0.47000000000E+01 0. -1.
<mgrwt>
<rscale>  0 0.14931352E+03</rscale>
<asrwt>0</asrwt>
<pdfrwt beam="1">  1        1 0.66475302E-02 0.14965666E+03</pdfrwt>
<pdfrwt beam="2">  1       -1 0.11683155E+00 0.14965666E+03</pdfrwt>
<totfact> 0.78265306E+02</totfact>
</mgrwt>
</event>
<event>
 8    1  0.5224537E-004  0.1318028E+03  0.7546771E-02  0.1226186E+00
          1   -1    0    0  501    0  0.00000000000E+00  0.00000000000E+00  0.57318080535E+03  0.57318080535E+03  0.00000000000E+00 0. -1.
         -1   -1    0    0    0  501 -0.00000000000E+00 -0.00000000000E+00 -0.30799070311E+02  0.30799070311E+02  0.00000000000E+00 0.  1.
         23    2    1    2    0    0  0.45584391242E+02 -0.80632551393E+02  0.21185549584E+03  0.24950895700E+03  0.93767923292E+02 0.  0.
         23    2    1    2    0    0 -0.45584391242E+02  0.80632551393E+02  0.33052623921E+03  0.35447091866E+03  0.88444854600E+02 0.  0.
          5    1    3    3  502    0  0.37235990984E+02 -0.10067129719E+03  0.15618133127E+03  0.18956773812E+03  0.47000000000E+01 0. -1.
         -5    1    4    4    0  503 -0.21916887699E+02  0.96526203393E+02  0.25048761661E+03  0.26937667676E+03  0.47000000000E+01 0.  1.
          5    1    4    4  503    0 -0.23667503543E+02 -0.15893651999E+02  0.80038622597E+02  0.85094241903E+02  0.47000000000E+01 0. -1.
         -5    1    3    3    0  502  0.83484002584E+01  0.20038745792E+02  0.55674164570E+02  0.59941218876E+02  0.47000000000E+01 0.  1.
<mgrwt>
<rscale>  0 0.13085961E+03</rscale>
<asrwt>0</asrwt>
<pdfrwt beam="1">  1        1 0.88181654E-01 0.13180276E+03</pdfrwt>
<pdfrwt beam="2">  1       -1 0.47383189E-02 0.13180276E+03</pdfrwt>
<totfact> 0.68602787E+03</totfact>
</mgrwt>
</event>
<event>
 8    1  0.5224537E-004  0.1123273E+03  0.7546771E-02  0.1256767E+00
          2   -1    0    0  501    0  0.00000000000E+00  0.00000000000E+00  0.51305916884E+03  0.51305916884E+03  0.00000000000E+00 0. -1.
         -2   -1    0    0    0  501 -0.00000000000E+00 -0.00000000000E+00 -0.24630624439E+02  0.24630624439E+02  0.00000000000E+00 0.  1.
         23    2    1    2    0    0  0.15551711071E+02 -0.62280429843E+02  0.21796819506E+03  0.24520920485E+03  0.92177613485E+02 0.  0.
         23    2    1    2    0    0 -0.15551711071E+02  0.62280429843E+02  0.27046034934E+03  0.29248058843E+03  0.90969150720E+02 0.  0.
          5    1    4    4  502    0 -0.52055102457E+02  0.24924837294E+02  0.16125693401E+03  0.17133846612E+03  0.47000000000E+01 0. -1.
         -5    1    4    4    0  502  0.36503391386E+02  0.37355592549E+02  0.10920341533E+03  0.12114212231E+03  0.47000000000E+01 0.  1.
          5    1    3    3  503    0 -0.23939613978E+02 -0.19711226643E+02  0.15992994302E+03  0.16297642237E+03  0.47000000000E+01 0. -1.
         -5    1    3    3    0  503  0.39491325049E+02 -0.42569203199E+02  0.58038252037E+02  0.82232782481E+02  0.47000000000E+01 0.  1.
<mgrwt>
<rscale>  0 0.11207908E+03</rscale>
<asrwt>0</asrwt>
<pdfrwt beam="1">  1        2 0.78932172E-01 0.11232729E+03</pdfrwt>
<pdfrwt beam="2">  1       -2 0.37893272E-02 0.11232729E+03</pdfrwt>
<totfact> 0.16747561E+04</totfact>
</mgrwt>
</event>
<event>
 8    1  0.5224537E-004  0.1098549E+03  0.7546771E-02  0.1262383E+00
         -1   -1    0    0    0  501 -0.00000000000E+00  0.00000000000E+00  0.16876405083E+03  0.16876405083E+03  0.00000000000E+00 0.  1.
          1   -1    0    0  501    0  0.00000000000E+00 -0.00000000000E+00 -0.81259669120E+02  0.81259669120E+02  0.00000000000E+00 0. -1.
         23    2    1    2    0    0  0.27007419006E+02  0.49342295445E+02 -0.34517028640E+01  0.10990910397E+03  0.94361189493E+02 0.  0.
         23    2    1    2    0    0 -0.27007419006E+02 -0.49342295445E+02  0.90956084575E+02  0.14011461598E+03  0.90526424254E+02 0.  0.
          5    1    4    4  502    0  0.15095302562E+01  0.25170338384E+02  0.14267071011E+02  0.29350705804E+02  0.47000000000E+01 0. -1.
         -5    1    4    4    0  502 -0.28516949262E+02 -0.74512633829E+02  0.76689013564E+02  0.11076391017E+03  0.47000000000E+01 0.  1.
          5    1    3    3  503    0  0.54480029377E+02  0.49038322171E+02 -0.21705962244E+02  0.76590269873E+02  0.47000000000E+01 0. -1.
         -5    1    3    3    0  503 -0.27472610371E+02  0.30397327448E+00  0.18254259380E+02  0.33318834101E+02  0.47000000000E+01 0.  1.
<mgrwt>
<rscale>  0 0.10902661E+03</rscale>
<asrwt>0</asrwt>
<pdfrwt beam="1">  1        1 0.12501488E-01 0.10985489E+03</pdfrwt>
<pdfrwt beam="2">  1       -1 0.25963700E-01 0.10985489E+03</pdfrwt>
<totfact> 0.58103310E+03</totfact>
</mgrwt>
</event>
<event>
 8    1  0.5224537E-004  0.1318772E+03  0.7546771E-02  0.1238013E+00
          3   -1    0    0  501    0  0.00000000000E+00  0.00000000000E+00  0.16603092383E+02  0.16603092383E+02  0.00000000000E+00 0. -1.
         -3   -1    0    0    0  501 -0.00000000000E+00 -0.00000000000E+00 -0.81124177006E+03  0.81124177006E+03  0.00000000000E+00 0.  1.
         23    2    1    2    0    0  0.23139282179E+02  0.36888892417E+02 -0.34405234563E+03  0.35835615292E+03  0.90282329593E+02 0.  0.
         23    2    1    2    0    0 -0.23139282179E+02 -0.36888892417E+02 -0.45058633204E+03  0.46948870952E+03  0.12448047631E+03 0.  0.
          5    1    3    3  502    0 -0.20797114212E+02 -0.80402587144E+01 -0.28087896200E+02  0.36168848927E+02  0.47000000000E+01 0. -1.
         -5    1    4    4    0  503 -0.24622319880E+02  0.29833437948E+02 -0.32376809550E+03  0.32610452668E+03  0.47000000000E+01 0.  1.
          5    1    4    4  503    0  0.14830377007E+01 -0.66722330365E+02 -0.12681823655E+03  0.14338418285E+03  0.47000000000E+01 0.  1.
         -5    1    3    3    0  502  0.43936396391E+02  0.44929151132E+02 -0.31596444943E+03  0.32218730399E+03  0.47000000000E+01 0.  1.
<mgrwt>
<rscale>  0 0.12313530E+03</rscale>
<asrwt>0</asrwt>
<pdfrwt beam="1">  1        3 0.25543216E-02 0.13187724E+03</pdfrwt>
<pdfrwt beam="2">  1       -3 0.12480644E+00 0.13187724E+03</pdfrwt>
<totfact> 0.81110617E+02</totfact>
</mgrwt>
</event>
<event>
 8    1  0.5224537E-004  0.1141602E+03  0.7546771E-02  0.1253559E+00
          1   -1    0    0  501    0  0.00000000000E+00  0.00000000000E+00  0.21759037904E+03  0.21759037904E+03  0.00000000000E+00 0. -1.
         -1   -1    0    0    0  501 -0.00000000000E+00 -0.00000000000E+00 -0.10061932558E+03  0.10061932558E+03  0.00000000000E+00 0.  1.
         23    2    1    2    0    0 -0.62969263603E+02  0.18596882837E+02 -0.43300054180E+02  0.12209608586E+03  0.93389438805E+02 0.  0.
         23    2    1    2    0    0  0.62969263603E+02 -0.18596882837E+02  0.16027110764E+03  0.19611361876E+03  0.91993213371E+02 0.  0.
          5    1    4    4  502    0  0.17820903581E+02 -0.13743993443E+02  0.14669642786E+03  0.14848708330E+03  0.47000000000E+01 0. -1.
         -5    1    4    4    0  502  0.45148360022E+02 -0.48528893936E+01  0.13574679782E+02  0.47626535454E+02  0.47000000000E+01 0.  1.
          5    1    3    3  503    0 -0.43046530273E+02 -0.35136922639E+02 -0.13695299928E+02  0.57421758430E+02  0.47000000000E+01 0. -1.
         -5    1    3    3    0  503 -0.19922733330E+02  0.53733805475E+02 -0.29604754253E+02  0.64674327431E+02  0.47000000000E+01 0.  1.
<mgrwt>
<rscale>  0 0.11387433E+03</rscale>
<asrwt>0</asrwt>
<pdfrwt beam="1">  1        1 0.33475443E-01 0.11416024E+03</pdfrwt>
<pdfrwt beam="2">  1       -1 0.15479896E-01 0.11416024E+03</pdfrwt>
<totfact> 0.38366917E+03</totfact>
</mgrwt>
</event>
<event>
 8    1  0.5224537E-004  0.9455209E+02  0.7546771E-02  0.1293693E+00
          1   -1    0    0  501    0  0.00000000000E+00  0.00000000000E+00  0.20903125352E+03  0.20903125352E+03  0.00000000000E+00 0. -1.
         -1   -1    0    0    0  501 -0.00000000000E+00 -0.00000000000E+00 -0.50221587217E+02  0.50221587217E+02  0.00000000000E+00 0.  1.
         23    2    1    2    0    0 -0.11292064272E+02 -0.15831309611E+02  0.26605198159E+02  0.98223895452E+02  0.92530838044E+02 0.  0.
         23    2    1    2    0    0  0.11292064272E+02  0.15831309611E+02  0.13220446814E+03  0.16102894528E+03  0.89856322775E+02 0.  0.
          5    1    4    4  502    0  0.34317740562E+01 -0.36956323699E+02  0.65955658430E+02  0.75827342123E+02  0.47000000000E+01 0. -1.
         -5    1    4    4    0  502  0.78602902155E+01  0.52787633310E+02  0.66248809712E+02  0.85201603159E+02  0.47000000000E+01 0.  1.
          5    1    3    3  503    0 -0.35154683116E+02 -0.40803702053E+02 -0.50166788506E+00  0.54066029231E+02  0.47000000000E+01 0. -1.
         -5    1    3    3    0  503  0.23862618844E+02  0.24972392442E+02  0.27106866044E+02  0.44157866220E+02  0.47000000000E+01 0.  1.
<mgrwt>
<rscale>  0 0.93891267E+02</rscale>
<asrwt>0</asrwt>
<pdfrwt beam="1">  1        1 0.32158654E-01 0.94552087E+02</pdfrwt>
<pdfrwt beam="2">  1       -1 0.77263981E-02 0.94552087E+02</pdfrwt>
<totfact> 0.11466605E+04</totfact>
</mgrwt>
</event>
<event>
 8    1  0.5224537E-004  0.1122565E+03  0.7546771E-02  0.1258042E+00
          1   -1    0    0  501    0  0.00000000000E+00  0.00000000000E+00  0.57795257427E+03  0.57795257427E+03  0.00000000000E+00 0. -1.
         -1   -1    0    0    0  501 -0.00000000000E+00 -0.00000000000E+00 -0.23960718176E+02  0.23960718176E+02  0.00000000000E+00 0.  1.
         23    2    1    2    0    0  0.32056136718E+02 -0.56772754552E+02  0.16977525807E+03  0.20163350898E+03  0.87072912725E+02 0.  0.
         23    2    1    2    0    0 -0.32056136718E+02  0.56772754552E+02  0.38421659803E+03  0.40027978347E+03  0.91382543697E+02 0.  0.
          5    1    3    3  502    0  0.31450833640E+02 -0.97069661099E+01  0.14394876863E+03  0.14773868186E+03  0.47000000000E+01 0. -1.
         -5    1    3    3    0  502  0.60530307826E+00 -0.47065788442E+02  0.25826489439E+02  0.53894827120E+02  0.47000000000E+01 0.  1.
          5    1    4    4  503    0 -0.30668830062E+02 -0.37325132853E+01  0.40043910367E+02  0.50794818145E+02  0.47000000000E+01 0. -1.
         -5    1    4    4    0  503 -0.13873066557E+01  0.60505267838E+02  0.34417268766E+03  0.34948496532E+03  0.47000000000E+01 0.  1.
<mgrwt>
<rscale>  0 0.11137629E+03</rscale>
<asrwt>0</asrwt>
<pdfrwt beam="1">  1        1 0.88915770E-01 0.11225645E+03</pdfrwt>
<pdfrwt beam="2">  1       -1 0.36862648E-02 0.11225645E+03</pdfrwt>
<totfact> 0.97006682E+03</totfact>
</mgrwt>
</event>
<event>
 8    1  0.5224537E-004  0.9496417E+02  0.7546771E-02  0.1291620E+00
          1   -1    0    0  501    0  0.00000000000E+00  0.00000000000E+00  0.10029238539E+02  0.10029238539E+02  0.00000000000E+00 0. -1.
         -1   -1    0    0    0  501 -0.00000000000E+00 -0.00000000000E+00 -0.90526016248E+03  0.90526016248E+03  0.00000000000E+00 0.  1.
         23    2    1    2    0    0  0.17592997829E+02  0.19019887317E+01 -0.50209495517E+03  0.51099661289E+03  0.93300928459E+02 0.  0.
         23    2    1    2    0    0 -0.17592997829E+02 -0.19019887317E+01 -0.39313596878E+03  0.40429278813E+03  0.92647922012E+02 0.  0.
          5    1    4    4  502    0 -0.36978132106E+02 -0.32112675647E+02 -0.30608885777E+03  0.31001787859E+03  0.47000000000E+01 0. -1.
         -5    1    3    3    0  503 -0.34449873859E+02 -0.66364198503E+01 -0.29999170580E+03  0.30207275519E+03  0.47000000000E+01 0.  1.
          5    1    3    3  503    0  0.52042871688E+02  0.85384085820E+01 -0.20210324937E+03  0.20892385771E+03  0.47000000000E+01 0. -1.
         -5    1    4    4    0  502  0.19385134277E+02  0.30210686916E+02 -0.87047111004E+02  0.94274909541E+02  0.47000000000E+01 0.  1.
<mgrwt>
<rscale>  0 0.94803394E+02</rscale>
<asrwt>0</asrwt>
<pdfrwt beam="1">  1        1 0.15429591E-02 0.94964174E+02</pdfrwt>
<pdfrwt beam="2">  1       -1 0.13927085E+00 0.94964174E+02</pdfrwt>
<totfact> 0.37414563E+03</totfact>
</mgrwt>
</event>
<event>
 7    1  0.5584423E-004  0.3632522E+03  0.7546771E-02  0.1098879E+00
          1   -1    0    0  501    0  0.00000000000E+00  0.00000000000E+00  0.17745965995E+03  0.17745965995E+03  0.00000000000E+00 0. -1.
         -1   -1    0    0    0  501 -0.00000000000E+00 -0.00000000000E+00 -0.32821302028E+03  0.32821302028E+03  0.00000000000E+00 0.  1.
         23    2    1    2    0    0  0.36513334331E+02 -0.65395280789E+02 -0.53919077302E+02  0.12973514259E+03  0.91182092495E+02 0.  0.
          5    1    1    2  502    0  0.51988794732E+02  0.17296801708E+03  0.35061643341E+02  0.18404395818E+03  0.47000000000E+01 0. -1.
         -5    1    3    3    0  503  0.81434440740E+01 -0.55261208989E+02 -0.74290390484E+02  0.93065939089E+02  0.47000000000E+01 0.  1.
          5    1    3    3  503    0  0.28369890257E+02 -0.10134071801E+02  0.20371313182E+02  0.36669203499E+02  0.47000000000E+01 0. -1.
         -5    1    1    2    0  502 -0.88502129063E+02 -0.10757273629E+03 -0.13189592637E+03  0.19189357945E+03  0.47000000000E+01 0.  1.
<mgrwt>
<rscale>  0 0.27423725E+03</rscale>
<asrwt>0</asrwt>
<pdfrwt beam="1">  1        1 0.27301486E-01 0.36325219E+03</pdfrwt>
<pdfrwt beam="2">  1       -1 0.50494310E-01 0.36325219E+03</pdfrwt>
<totfact> 0.69088607E+02</totfact>
</mgrwt>
</event>
<event>
 8    1  0.5224537E-004  0.9382831E+02  0.7546771E-02  0.1294888E+00
         -1   -1    0    0    0  501 -0.00000000000E+00  0.00000000000E+00  0.96660873641E+02  0.96660873641E+02  0.00000000000E+00 0.  1.
          1   -1    0    0  501    0  0.00000000000E+00 -0.00000000000E+00 -0.20920782091E+03  0.20920782091E+03  0.00000000000E+00 0. -1.
         23    2    1    2    0    0  0.21320112632E+02 -0.25919881755E+02  0.59259264796E+02  0.11097482689E+03  0.87620569886E+02 0.  0.
         23    2    1    2    0    0 -0.21320112632E+02  0.25919881755E+02 -0.17180621206E+03  0.19489386765E+03  0.85672969328E+02 0.  0.
          5    1    4    4  502    0  0.18546850264E+02  0.42777447296E+02 -0.10709874776E+03  0.11690221308E+03  0.47000000000E+01 0. -1.
         -5    1    3    3    0  503  0.12662701167E+02 -0.52585462346E+02  0.62005256754E+02  0.82415512594E+02  0.47000000000E+01 0.  1.
          5    1    3    3  503    0  0.86574114652E+01  0.26665580590E+02 -0.27459919581E+01  0.28559314301E+02  0.47000000000E+01 0. -1.
         -5    1    4    4    0  502 -0.39866962896E+02 -0.16857565541E+02 -0.64707464303E+02  0.77991654573E+02  0.47000000000E+01 0.  1.
<mgrwt>
<rscale>  0 0.93370949E+02</rscale>
<asrwt>0</asrwt>
<pdfrwt beam="1">  1        1 0.32185819E-01 0.93828310E+02</pdfrwt>
<pdfrwt beam="2">  1       -1 0.14870904E-01 0.93828310E+02</pdfrwt>
<totfact> 0.42354728E+03</totfact>
</mgrwt>
</event>
<event>
 8    1  0.5224537E-004  0.9416821E+02  0.7546771E-02  0.1295112E+00
          1   -1    0    0  501    0  0.00000000000E+00  0.00000000000E+00  0.88405633375E+03  0.88405633375E+03  0.00000000000E+00 0. -1.
         -1   -1    0    0    0  501 -0.00000000000E+00 -0.00000000000E+00 -0.10541578841E+02  0.10541578841E+02  0.00000000000E+00 0.  1.
         23    2    1    2    0    0 -0.17402368662E+02 -0.19974073527E+02  0.31495310210E+03  0.32872953761E+03  0.90365072498E+02 0.  0.
         23    2    1    2    0    0  0.17402368662E+02  0.19974073527E+02  0.55856165281E+03  0.56586837498E+03  0.86683861038E+02 0.  0.
          5    1    3    3  502    0  0.16006545441E+02 -0.23252069961E+02  0.27434411142E+03  0.27583264804E+03  0.47000000000E+01 0. -1.
         -5    1    3    3    0  502 -0.33408914103E+02  0.32779964342E+01  0.40608990679E+02  0.52896889569E+02  0.47000000000E+01 0.  1.
          5    1    4    4  503    0 -0.35940457662E+01  0.50889508507E+02  0.37488380113E+03  0.37836835701E+03  0.47000000000E+01 0. -1.
         -5    1    4    4    0  503  0.20996414429E+02 -0.30915434980E+02  0.18367785168E+03  0.18750001796E+03  0.47000000000E+01 0.  1.
<mgrwt>
<rscale>  0 0.93273898E+02</rscale>
<asrwt>0</asrwt>
<pdfrwt beam="1">  1        1 0.13600861E+00 0.94168213E+02</pdfrwt>
<pdfrwt beam="2">  1       -1 0.16217820E-02 0.94168213E+02</pdfrwt>
<totfact> 0.16963408E+04</totfact>
</mgrwt>
</event>
<event>
 8    1  0.5224537E-004  0.9965165E+02  0.7546771E-02  0.1282282E+00
         -1   -1    0    0    0  501 -0.00000000000E+00  0.00000000000E+00  0.20479599216E+03  0.20479599216E+03  0.00000000000E+00 0.  1.
          1   -1    0    0  501    0  0.00000000000E+00 -0.00000000000E+00 -0.51117241924E+02  0.51117241924E+02  0.00000000000E+00 0. -1.
         23    2    1    2    0    0 -0.31607523243E+02  0.17816504075E+02  0.11238321487E+03  0.15020132882E+03  0.92811577141E+02 0.  0.
         23    2    1    2    0    0  0.31607523243E+02 -0.17816504075E+02  0.41295535371E+02  0.10571190527E+03  0.90295195504E+02 0.  0.
          5    1    3    3  502    0  0.61642434248E+01  0.25664847441E+02 -0.43573283956E+01  0.27161712058E+02  0.47000000000E+01 0. -1.
         -5    1    3    3    0  502 -0.37771766668E+02 -0.78483433662E+01  0.11674054326E+03  0.12303961676E+03  0.47000000000E+01 0.  1.
          5    1    4    4  503    0  0.41148085690E+02 -0.45516353917E+02  0.44392294145E+02  0.75879306858E+02  0.47000000000E+01 0. -1.
         -5    1    4    4    0  503 -0.95405624461E+01  0.27699849842E+02 -0.30967587737E+01  0.29832598411E+02  0.47000000000E+01 0.  1.
<mgrwt>
<rscale>  0 0.99061598E+02</rscale>
<asrwt>0</asrwt>
<pdfrwt beam="1">  1        1 0.78641912E-02 0.99651654E+02</pdfrwt>
<pdfrwt beam="2">  1       -1 0.31507075E-01 0.99651654E+02</pdfrwt>
<totfact> 0.76958080E+03</totfact>
</mgrwt>
</event>
<event>
 8    1  0.5224537E-004  0.1138420E+03  0.7546771E-02  0.1254598E+00
         -1   -1    0    0    0  501 -0.00000000000E+00  0.00000000000E+00  0.25175550736E+02  0.25175550736E+02  0.00000000000E+00 0.  1.
          1   -1    0    0  501    0  0.00000000000E+00 -0.00000000000E+00 -0.61932923534E+03  0.61932923534E+03  0.00000000000E+00 0. -1.
         23    2    1    2    0    0  0.10653325181E+02 -0.63266242926E+02 -0.43322876696E+03  0.44738341883E+03  0.91370936797E+02 0.  0.
         23    2    1    2    0    0 -0.10653325181E+02  0.63266242926E+02 -0.16092491764E+03  0.19712136724E+03  0.94041977194E+02 0.  0.
          5    1    3    3  502    0 -0.35749303954E+02 -0.47188920862E+02 -0.18495218854E+03  0.19425295115E+03  0.47000000000E+01 0. -1.
         -5    1    4    4    0  503  0.15341361863E+02  0.40143486043E+02 -0.13081842876E+02  0.45167261025E+02  0.47000000000E+01 0.  1.
          5    1    4    4  503    0 -0.25994687044E+02  0.23122756883E+02 -0.14784307477E+03  0.15195410622E+03  0.47000000000E+01 0. -1.
         -5    1    3    3    0  502  0.46402629134E+02 -0.16077322064E+02 -0.24827657842E+03  0.25313046768E+03  0.47000000000E+01 0.  1.
<mgrwt>
<rscale>  0 0.11328891E+03</rscale>
<asrwt>0</asrwt>
<pdfrwt beam="1">  1        1 0.95281411E-01 0.11384201E+03</pdfrwt>
<pdfrwt beam="2">  1       -1 0.38731620E-02 0.11384201E+03</pdfrwt>
<totfact> 0.82286130E+03</totfact>
</mgrwt>
</event>
<event>
 8    1  0.5224537E-004  0.1058001E+03  0.7546771E-02  0.1268822E+00
          1   -1    0    0  501    0  0.00000000000E+00  0.00000000000E+00  0.10384708444E+04  0.10384708444E+04  0.00000000000E+00 0. -1.
         -1   -1    0    0    0  501 -0.00000000000E+00 -0.00000000000E+00 -0.14216775534E+02  0.14216775534E+02  0.00000000000E+00 0.  1.
         23    2    1    2    0    0  0.48808645461E+02 -0.16140295787E+02  0.77407846858E+03  0.78127533353E+03  0.92470958919E+02 0.  0.
         23    2    1    2    0    0 -0.48808645461E+02  0.16140295787E+02  0.25017560031E+03  0.27141228643E+03  0.91836840177E+02 0.  0.
          5    1    3    3  502    0  0.65160424350E+02  0.10666167131E+02  0.64335532861E+03  0.64675174285E+03  0.47000000000E+01 0. -1.
         -5    1    3    3    0  502 -0.16351778889E+02 -0.26806462919E+02  0.13072313997E+03  0.13452359068E+03  0.47000000000E+01 0.  1.
          5    1    4    4  503    0  0.15384818208E+02  0.22675798309E+02  0.25919413408E+02  0.38010399256E+02  0.47000000000E+01 0. -1.
         -5    1    4    4    0  503 -0.64193463669E+02 -0.65355025215E+01  0.22425618691E+03  0.23340188717E+03  0.47000000000E+01 0.  1.
<mgrwt>
<rscale>  0 0.10566143E+03</rscale>
<asrwt>0</asrwt>
<pdfrwt beam="1">  1        1 0.15976469E+00 0.10580015E+03</pdfrwt>
<pdfrwt beam="2">  1       -1 0.21871971E-02 0.10580015E+03</pdfrwt>
<totfact> 0.85861887E+03</totfact>
</mgrwt>
</event>
<event>
 8    1  0.5224537E-004  0.9332645E+02  0.7546771E-02  0.1297078E+00
         -3   -1    0    0    0  501 -0.00000000000E+00  0.00000000000E+00  0.12291633134E+03  0.12291633134E+03  0.00000000000E+00 0.  1.
          3   -1    0    0  501    0  0.00000000000E+00 -0.00000000000E+00 -0.13776532864E+03  0.13776532864E+03  0.00000000000E+00 0. -1.
         23    2    1    2    0    0  0.28820507930E+01  0.17730204195E+01 -0.99969078741E+02  0.13436755231E+03  0.89718295740E+02 0.  0.
         23    2    1    2    0    0 -0.28820507930E+01 -0.17730204195E+01  0.85120081440E+02  0.12631410768E+03  0.93265083054E+02 0.  0.
          5    1    3    3  502    0  0.42139476531E+02 -0.16321821805E+02 -0.60370673584E+02  0.75556902916E+02  0.47000000000E+01 0. -1.
         -5    1    3    3    0  502 -0.39257425738E+02  0.18094842225E+02 -0.39598405157E+02  0.58810649390E+02  0.47000000000E+01 0.  1.
          5    1    4    4  503    0 -0.10712625963E+02 -0.36706232226E+02  0.55345850138E+01  0.38920810251E+02  0.47000000000E+01 0. -1.
         -5    1    4    4    0  503  0.78305751704E+01  0.34933211807E+02  0.79585496426E+02  0.87393297432E+02  0.47000000000E+01 0.  1.
<mgrwt>
<rscale>  0 0.92427449E+02</rscale>
<asrwt>0</asrwt>
<pdfrwt beam="1">  1        3 0.21194666E-01 0.93326446E+02</pdfrwt>
<pdfrwt beam="2">  1       -3 0.18910205E-01 0.93326446E+02</pdfrwt>
<totfact> 0.10827840E+03</totfact>
</mgrwt>
</event>
<event>
 8    1  0.5224537E-004  0.9639213E+02  0.7546771E-02  0.1288141E+00
          2   -1    0    0  501    0  0.00000000000E+00  0.00000000000E+00  0.21176086415E+03  0.21176086415E+03  0.00000000000E+00 0. -1.
         -2   -1    0    0    0  501 -0.00000000000E+00 -0.00000000000E+00 -0.22352614431E+03  0.22352614431E+03  0.00000000000E+00 0.  1.
         23    2    1    2    0    0 -0.33390479474E+02 -0.39966628294E+01 -0.20103116116E+03  0.22294611561E+03  0.90335736437E+02 0.  0.
         23    2    1    2    0    0  0.33390479474E+02  0.39966628294E+01  0.18926588100E+03  0.21234089285E+03  0.90200796189E+02 0.  0.
          5    1    4    4  502    0  0.57309065245E+02 -0.11565543665E+02  0.16315509313E+03  0.17337752211E+03  0.47000000000E+01 0. -1.
         -5    1    4    4    0  502 -0.23918585770E+02  0.15562206494E+02  0.26110787871E+02  0.38963370740E+02  0.47000000000E+01 0.  1.
          5    1    3    3  503    0 -0.55242710377E+02  0.17059847983E+02 -0.84907415256E+02  0.10283070859E+03  0.47000000000E+01 0. -1.
         -5    1    3    3    0  503  0.21852230903E+02 -0.21056510812E+02 -0.11612374590E+03  0.12011540703E+03  0.47000000000E+01 0.  1.
<mgrwt>
<rscale>  0 0.96360502E+02</rscale>
<asrwt>0</asrwt>
<pdfrwt beam="1">  1        2 0.32578595E-01 0.96392130E+02</pdfrwt>
<pdfrwt beam="2">  1       -2 0.34388637E-01 0.96392130E+02</pdfrwt>
<totfact> 0.12354921E+03</totfact>
</mgrwt>
</event>
<event>
 8    1  0.5224537E-004  0.9157341E+02  0.7546771E-02  0.1299383E+00
          1   -1    0    0  501    0  0.00000000000E+00  0.00000000000E+00  0.17767408992E+03  0.17767408992E+03  0.00000000000E+00 0. -1.
         -1   -1    0    0    0  501 -0.00000000000E+00 -0.00000000000E+00 -0.48603413375E+02  0.48603413375E+02  0.00000000000E+00 0.  1.
         23    2    1    2    0    0  0.54099986321E+01  0.59801919097E+01  0.85302928084E+02  0.12478215894E+03  0.90713653155E+02 0.  0.
         23    2    1    2    0    0 -0.54099986321E+01 -0.59801919097E+01  0.43767748462E+02  0.10149534436E+03  0.91217642705E+02 0.  0.
          5    1    3    3  502    0 -0.37282620936E+02 -0.55063262105E+01  0.66350352158E+02  0.76451113031E+02  0.47000000000E+01 0. -1.
         -5    1    4    4    0  503  0.18681387834E+02 -0.13114668347E+02 -0.21309470631E+02  0.31578035338E+02  0.47000000000E+01 0.  1.
          5    1    4    4  503    0 -0.24091386466E+02  0.71344764372E+01  0.65077219093E+02  0.69917309021E+02  0.47000000000E+01 0. -1.
         -5    1    3    3    0  502  0.42692619568E+02  0.11486518120E+02  0.18952575926E+02  0.48331045906E+02  0.47000000000E+01 0.  1.
<mgrwt>
<rscale>  0 0.91447644E+02</rscale>
<asrwt>0</asrwt>
<pdfrwt beam="1">  1        1 0.27334475E-01 0.91573408E+02</pdfrwt>
<pdfrwt beam="2">  1       -1 0.74774483E-02 0.91573408E+02</pdfrwt>
<totfact> 0.14658933E+04</totfact>
</mgrwt>
</event>
<event>
 8    1  0.5224537E-004  0.1173562E+03  0.7546771E-02  0.1249996E+00
          1   -1    0    0  501    0  0.00000000000E+00  0.00000000000E+00  0.39251398967E+03  0.39251398967E+03  0.00000000000E+00 0. -1.
         -1   -1    0    0    0  501 -0.00000000000E+00 -0.00000000000E+00 -0.33800819736E+02  0.33800819736E+02  0.00000000000E+00 0.  1.
         23    2    1    2    0    0 -0.21101506208E+01 -0.64608442176E+02  0.19777578176E+03  0.22713317848E+03  0.91079730913E+02 0.  0.
         23    2    1    2    0    0  0.21101506208E+01  0.64608442176E+02  0.16093738818E+03  0.19918163092E+03  0.97947821045E+02 0.  0.
          5    1    3    3  502    0  0.43762447576E+02 -0.36639060776E+02  0.11242461098E+03  0.12617034417E+03  0.47000000000E+01 0. -1.
         -5    1    3    3    0  502 -0.45872598197E+02 -0.27969381399E+02  0.85351170773E+02  0.10096283432E+03  0.47000000000E+01 0.  1.
          5    1    4    4  503    0  0.41321413638E+02  0.36631993344E+02  0.13108247447E+03  0.14231678493E+03  0.47000000000E+01 0. -1.
         -5    1    4    4    0  503 -0.39211263017E+02  0.27976448832E+02  0.29854913710E+02  0.56864845988E+02  0.47000000000E+01 0.  1.
<mgrwt>
<rscale>  0 0.11591275E+03</rscale>
<asrwt>0</asrwt>
<pdfrwt beam="1">  1        1 0.60386764E-01 0.11735621E+03</pdfrwt>
<pdfrwt beam="2">  1       -1 0.52001264E-02 0.11735621E+03</pdfrwt>
<totfact> 0.96729554E+03</totfact>
</mgrwt>
</event>
<event>
 8    1  0.5224537E-004  0.1219746E+03  0.7546771E-02  0.1240504E+00
          1   -1    0    0  501    0  0.00000000000E+00  0.00000000000E+00  0.54042413317E+02  0.54042413317E+02  0.00000000000E+00 0. -1.
         -1   -1    0    0    0  501 -0.00000000000E+00 -0.00000000000E+00 -0.40874032121E+03  0.40874032121E+03  0.00000000000E+00 0.  1.
         23    2    1    2    0    0  0.63802519271E+02  0.49022327482E+02 -0.31052010719E+03  0.33305420594E+03  0.89601434540E+02 0.  0.
         23    2    1    2    0    0 -0.63802519271E+02 -0.49022327482E+02 -0.44177800703E+02  0.12972852858E+03  0.91672585847E+02 0.  0.
          5    1    4    4  502    0 -0.23398086876E+02 -0.47547483794E+02  0.17347473114E+02  0.55957649237E+02  0.47000000000E+01 0. -1.
         -5    1    3    3    0  503  0.79066974594E+02  0.35496524926E+02 -0.29353833132E+03  0.30610199559E+03  0.47000000000E+01 0.  1.
          5    1    3    3  503    0 -0.15264455323E+02  0.13525802556E+02 -0.16981775871E+02  0.26952210351E+02  0.47000000000E+01 0. -1.
         -5    1    4    4    0  502 -0.40404432394E+02 -0.14748436879E+01 -0.61525273818E+02  0.73770879345E+02  0.47000000000E+01 0.  1.
<mgrwt>
<rscale>  0 0.12158557E+03</rscale>
<asrwt>0</asrwt>
<pdfrwt beam="1">  1        1 0.83142178E-02 0.12197464E+03</pdfrwt>
<pdfrwt beam="2">  1       -1 0.62883123E-01 0.12197464E+03</pdfrwt>
<totfact> 0.21133069E+03</totfact>
</mgrwt>
</event>
<event>
 8    1  0.5224537E-004  0.2815362E+03  0.7546771E-02  0.1095440E+00
          1   -1    0    0  501    0  0.00000000000E+00  0.00000000000E+00  0.14552657965E+04  0.14552657965E+04  0.00000000000E+00 0. -1.
         -1   -1    0    0    0  501 -0.00000000000E+00 -0.00000000000E+00 -0.71323079081E+02  0.71323079081E+02  0.00000000000E+00 0.  1.
         23    2    1    2    0    0 -0.25239515849E+03 -0.62331771724E+02  0.10680454488E+04  0.11034414989E+04  0.96298987943E+02 0.  0.
         23    2    1    2    0    0  0.25239515849E+03  0.62331771724E+02  0.31589726862E+03  0.42314737664E+03  0.10804652814E+03 0.  0.
          5    1    4    4  502    0  0.84521955404E+02  0.55145079838E+02  0.18232764456E+03  0.20844759713E+03  0.47000000000E+01 0. -1.
         -5    1    4    4    0  502  0.16787320308E+03  0.71866918862E+01  0.13356962406E+03  0.21469977952E+03  0.47000000000E+01 0.  1.
          5    1    3    3  503    0 -0.16628710839E+03 -0.21883753135E+02  0.83483489156E+03  0.85152902900E+03  0.47000000000E+01 0. -1.
         -5    1    3    3    0  503 -0.86108050095E+02 -0.40448018588E+02  0.23321055720E+03  0.25191246989E+03  0.47000000000E+01 0.  1.
<mgrwt>
<rscale>  0 0.28045595E+03</rscale>
<asrwt>0</asrwt>
<pdfrwt beam="1">  1        1 0.22388702E+00 0.28153618E+03</pdfrwt>
<pdfrwt beam="2">  1       -1 0.10972782E-01 0.28153618E+03</pdfrwt>
<totfact> 0.40482223E+02</totfact>
</mgrwt>
</event>
<event>
 8    1  0.5224537E-004  0.1297717E+03  0.7546771E-02  0.1230115E+00
          3   -1    0    0  501    0  0.00000000000E+00  0.00000000000E+00  0.48565756852E+02  0.48565756852E+02  0.00000000000E+00 0. -1.
         -3   -1    0    0    0  501 -0.00000000000E+00 -0.00000000000E+00 -0.33960461445E+03  0.33960461445E+03  0.00000000000E+00 0.  1.
         23    2    1    2    0    0 -0.83868244695E+02  0.30686532816E+02 -0.11071035084E+03  0.16600137433E+03  0.85581123681E+02 0.  0.
         23    2    1    2    0    0  0.83868244695E+02 -0.30686532816E+02 -0.18032850676E+03  0.22216899698E+03  0.94154910140E+02 0.  0.
          5    1    3    3  502    0 -0.33061927090E+02  0.82876607137E+01  0.75896740129E+01  0.35234492966E+02  0.47000000000E+01 0. -1.
         -5    1    3    3    0  502 -0.50806317605E+02  0.22398872102E+02 -0.11830002486E+03  0.13076688136E+03  0.47000000000E+01 0.  1.
          5    1    4    4  503    0  0.75781904299E+02  0.19520340204E+02 -0.10167147559E+03  0.12838660230E+03  0.47000000000E+01 0. -1.
         -5    1    4    4    0  503  0.80863403959E+01 -0.50206873020E+02 -0.78657031170E+02  0.93782394681E+02  0.47000000000E+01 0.  1.
<mgrwt>
<rscale>  0 0.12822428E+03</rscale>
<asrwt>0</asrwt>
<pdfrwt beam="1">  1        3 0.74716547E-02 0.12977170E+03</pdfrwt>
<pdfrwt beam="2">  1       -3 0.52246865E-01 0.12977170E+03</pdfrwt>
<totfact> 0.99863030E+02</totfact>
</mgrwt>
</event>
<event>
 8    1  0.5224537E-004  0.1383246E+03  0.7546771E-02  0.1218217E+00
         -2   -1    0    0    0  501 -0.00000000000E+00  0.00000000000E+00  0.55870324759E+02  0.55870324759E+02  0.00000000000E+00 0.  1.
          2   -1    0    0  501    0  0.00000000000E+00 -0.00000000000E+00 -0.44244171352E+03  0.44244171352E+03  0.00000000000E+00 0. -1.
         23    2    1    2    0    0 -0.10239807548E+03 -0.43316973530E+01 -0.60670960191E+02  0.14427138234E+03  0.81419511716E+02 0.  0.
         23    2    1    2    0    0  0.10239807548E+03  0.43316973530E+01 -0.32590042857E+03  0.35404065594E+03  0.92895464124E+02 0.  0.
          5    1    4    4  502    0  0.22612156946E+02 -0.70925317699E+01 -0.21770751146E+03  0.21904397776E+03  0.47000000000E+01 0. -1.
         -5    1    4    4    0  502  0.79785918529E+02  0.11424229123E+02 -0.10819291712E+03  0.13499667818E+03  0.47000000000E+01 0.  1.
          5    1    3    3  503    0 -0.82875513803E+02 -0.34416923996E+02 -0.24551730616E+02  0.93154457337E+02  0.47000000000E+01 0.  1.
         -5    1    3    3    0  503 -0.19522561672E+02  0.30085226643E+02 -0.36119229575E+02  0.51116925001E+02  0.47000000000E+01 0. -1.
<mgrwt>
<rscale>  0 0.13642834E+03</rscale>
<asrwt>0</asrwt>
<pdfrwt beam="1">  1        2 0.68067958E-01 0.13832461E+03</pdfrwt>
<pdfrwt beam="2">  1       -2 0.85954343E-02 0.13832461E+03</pdfrwt>
<totfact> 0.57944084E+03</totfact>
</mgrwt>
</event>
<event>
 8    1  0.5224537E-004  0.9661555E+02  0.7546771E-02  0.1287779E+00
          2   -1    0    0  501    0  0.00000000000E+00  0.00000000000E+00  0.22517829964E+03  0.22517829964E+03  0.00000000000E+00 0. -1.
         -2   -1    0    0    0  501 -0.00000000000E+00 -0.00000000000E+00 -0.41357213569E+02  0.41357213569E+02  0.00000000000E+00 0.  1.
         23    2    1    2    0    0  0.24381711491E+02 -0.19309836310E+02  0.97110712407E+02  0.13698560022E+03  0.91472545437E+02 0.  0.
         23    2    1    2    0    0 -0.24381711491E+02  0.19309836310E+02  0.86710373669E+02  0.12954991300E+03  0.91088711827E+02 0.  0.
          5    1    4    4  502    0 -0.33275994223E+02 -0.22643306514E+02  0.10316054415E+02  0.41815333314E+02  0.47000000000E+01 0. -1.
         -5    1    3    3    0  503 -0.10051635215E+00  0.33082673256E+02  0.15456995040E+02  0.36816872069E+02  0.47000000000E+01 0.  1.
          5    1    3    3  503    0  0.24482227843E+02 -0.52392509565E+02  0.81653717367E+02  0.10016872815E+03  0.47000000000E+01 0. -1.
         -5    1    4    4    0  502  0.88942827323E+01  0.41953142823E+02  0.76394319254E+02  0.87734579684E+02  0.47000000000E+01 0.  1.
<mgrwt>
<rscale>  0 0.96524590E+02</rscale>
<asrwt>0</asrwt>
<pdfrwt beam="1">  1        2 0.34642815E-01 0.96615548E+02</pdfrwt>
<pdfrwt beam="2">  1       -2 0.63626484E-02 0.96615548E+02</pdfrwt>
<totfact> 0.18245419E+04</totfact>
</mgrwt>
</event>
<event>
 8    1  0.5224537E-004  0.1133776E+03  0.7546771E-02  0.1256848E+00
         -1   -1    0    0    0  501 -0.00000000000E+00  0.00000000000E+00  0.45223099006E+02  0.45223099006E+02  0.00000000000E+00 0.  1.
          1   -1    0    0  501    0  0.00000000000E+00 -0.00000000000E+00 -0.34359271428E+03  0.34359271428E+03  0.00000000000E+00 0. -1.
         23    2    1    2    0    0  0.48660207952E+02  0.48280038756E+02 -0.57142168019E+02  0.12227281459E+03  0.83586098368E+02 0.  0.
         23    2    1    2    0    0 -0.48660207952E+02 -0.48280038756E+02 -0.24122744725E+03  0.26654299870E+03  0.90308974451E+02 0.  0.
          5    1    3    3  502    0 -0.15542030122E+02  0.35046610205E+02 -0.61973809682E+01  0.39119267862E+02  0.47000000000E+01 0. -1.
         -5    1    4    4    0  503 -0.36239554082E+02 -0.10468029827E+01 -0.23740224280E+02  0.43590014056E+02  0.47000000000E+01 0.  1.
          5    1    4    4  503    0 -0.12420653870E+02 -0.47233235773E+02 -0.21748722297E+03  0.22295298464E+03  0.47000000000E+01 0. -1.
         -5    1    3    3    0  502  0.64202238075E+02  0.13233428551E+02 -0.50944787051E+02  0.83153546723E+02  0.47000000000E+01 0.  1.
<mgrwt>
<rscale>  0 0.11203432E+03</rscale>
<asrwt>0</asrwt>
<pdfrwt beam="1">  1        1 0.52860416E-01 0.11337764E+03</pdfrwt>
<pdfrwt beam="2">  1       -1 0.69574001E-02 0.11337764E+03</pdfrwt>
<totfact> 0.73937540E+03</totfact>
</mgrwt>
</event>
<event>
 8    1  0.5224537E-004  0.2304952E+03  0.7546771E-02  0.1126401E+00
          1   -1    0    0  501    0  0.00000000000E+00  0.00000000000E+00  0.20305854536E+03  0.20305854536E+03  0.00000000000E+00 0. -1.
         -1   -1    0    0    0  501 -0.00000000000E+00 -0.00000000000E+00 -0.32199323773E+03  0.32199323773E+03  0.00000000000E+00 0.  1.
         23    2    1    2    0    0  0.20677217753E+03 -0.46352884134E+02  0.54789869136E+02  0.23691763695E+03  0.90690207140E+02 0.  0.
         23    2    1    2    0    0 -0.20677217753E+03  0.46352884134E+02 -0.17372456150E+03  0.28813414614E+03  0.89093993251E+02 0.  0.
          5    1    3    3  502    0  0.16668007466E+03 -0.55646672414E+02  0.74649524367E+02  0.19098021083E+03  0.47000000000E+01 0. -1.
         -5    1    3    3    0  502  0.40092102872E+02  0.92937882800E+01 -0.19859655231E+02  0.45937426127E+02  0.47000000000E+01 0.  1.
          5    1    4    4  503    0 -0.43833340398E+02  0.21979307803E+01  0.22967639312E+01  0.44199069614E+02  0.47000000000E+01 0. -1.
         -5    1    4    4    0  503 -0.16293883713E+03  0.44154953354E+02 -0.17602132543E+03  0.24393507652E+03  0.47000000000E+01 0.  1.
<mgrwt>
<rscale>  0 0.23033920E+03</rscale>
<asrwt>0</asrwt>
<pdfrwt beam="1">  1        1 0.31239777E-01 0.23049520E+03</pdfrwt>
<pdfrwt beam="2">  1       -1 0.49537421E-01 0.23049520E+03</pdfrwt>
<totfact> 0.60327443E+02</totfact>
</mgrwt>
</event>
<event>
 8    1  0.5224537E-004  0.9218780E+02  0.7546771E-02  0.1298216E+00
         -1   -1    0    0    0  501 -0.00000000000E+00  0.00000000000E+00  0.98942282244E+02  0.98942282244E+02  0.00000000000E+00 0.  1.
          1   -1    0    0  501    0  0.00000000000E+00 -0.00000000000E+00 -0.91300476317E+02  0.91300476317E+02  0.00000000000E+00 0. -1.
         23    2    1    2    0    0  0.76213767749E+01  0.10315747253E+02  0.28858492973E+02  0.96599191466E+02  0.91291243556E+02 0.  0.
         23    2    1    2    0    0 -0.76213767749E+01 -0.10315747253E+02 -0.21216687046E+02  0.93643567095E+02  0.90302103097E+02 0.  0.
          5    1    3    3  502    0 -0.33688343305E+02 -0.16923640245E+02 -0.20852876277E+01  0.38049342942E+02  0.47000000000E+01 0. -1.
         -5    1    4    4    0  503 -0.23657477662E+02  0.16025376536E+02  0.24748375313E+02  0.38092794897E+02  0.47000000000E+01 0.  1.
          5    1    4    4  503    0  0.16036100887E+02 -0.26341123789E+02 -0.45965062359E+02  0.55550772198E+02  0.47000000000E+01 0. -1.
         -5    1    3    3    0  502  0.41309720080E+02  0.27239387498E+02  0.30943780600E+02  0.58549848524E+02  0.47000000000E+01 0.  1.
<mgrwt>
<rscale>  0 0.91941968E+02</rscale>
<asrwt>0</asrwt>
<pdfrwt beam="1">  1        1 0.14046227E-01 0.92187804E+02</pdfrwt>
<pdfrwt beam="2">  1       -1 0.15221890E-01 0.92187804E+02</pdfrwt>
<totfact> 0.11528520E+04</totfact>
</mgrwt>
</event>
<event>
 8    1  0.5224537E-004  0.9996066E+02  0.7546771E-02  0.1280687E+00
         -3   -1    0    0    0  501 -0.00000000000E+00  0.00000000000E+00  0.75303889634E+02  0.75303889634E+02  0.00000000000E+00 0.  1.
          3   -1    0    0  501    0  0.00000000000E+00 -0.00000000000E+00 -0.14855301709E+03  0.14855301709E+03  0.00000000000E+00 0. -1.
         23    2    1    2    0    0  0.37391510865E+02  0.24072265790E+01 -0.73985065055E+02  0.12389353283E+03  0.92042912822E+02 0.  0.
         23    2    1    2    0    0 -0.37391510865E+02 -0.24072265790E+01  0.73593760194E+00  0.99963373893E+02  0.92672621044E+02 0.  0.
          5    1    4    4  502    0 -0.51941482888E+02 -0.32924322722E+02 -0.13236251101E+02  0.63081035300E+02  0.47000000000E+01 0. -1.
         -5    1    3    3    0  503  0.17579248670E+02  0.10188012868E+02  0.19106573455E+02  0.28283860048E+02  0.47000000000E+01 0.  1.
          5    1    3    3  503    0  0.19812262195E+02 -0.77807862894E+01 -0.93091638510E+02  0.95609672780E+02  0.47000000000E+01 0. -1.
         -5    1    4    4    0  502  0.14549972023E+02  0.30517096143E+02  0.13972188703E+02  0.36882338592E+02  0.47000000000E+01 0.  1.
<mgrwt>
<rscale>  0 0.99814465E+02</rscale>
<asrwt>0</asrwt>
<pdfrwt beam="1">  1        3 0.22854310E-01 0.99960665E+02</pdfrwt>
<pdfrwt beam="2">  1       -3 0.11585214E-01 0.99960665E+02</pdfrwt>
<totfact> 0.22037122E+03</totfact>
</mgrwt>
</event>
<event>
 8    1  0.5224537E-004  0.1088166E+03  0.7546771E-02  0.1262997E+00
         -1   -1    0    0    0  501 -0.00000000000E+00  0.00000000000E+00  0.82065693466E+02  0.82065693466E+02  0.00000000000E+00 0.  1.
          1   -1    0    0  501    0  0.00000000000E+00 -0.00000000000E+00 -0.21397707269E+03  0.21397707269E+03  0.00000000000E+00 0. -1.
         23    2    1    2    0    0  0.12761688733E+02 -0.54773070775E+02 -0.15070905353E+03  0.18561450010E+03  0.92609793480E+02 0.  0.
         23    2    1    2    0    0 -0.12761688733E+02  0.54773070775E+02  0.18797674309E+02  0.11042826606E+03  0.93156317036E+02 0.  0.
          5    1    4    4  502    0 -0.45577646117E+02  0.25192465648E+02 -0.15234405783E+02  0.54462457442E+02  0.47000000000E+01 0. -1.
         -5    1    4    4    0  502  0.32815957385E+02  0.29580605128E+02  0.34032080091E+02  0.55965808617E+02  0.47000000000E+01 0.  1.
          5    1    3    3  503    0 -0.23759943956E+02 -0.27458060637E+02 -0.13044858642E+03  0.13548949675E+03  0.47000000000E+01 0. -1.
         -5    1    3    3    0  503  0.36521632689E+02 -0.27315010139E+02 -0.20260467115E+02  0.50125003350E+02  0.47000000000E+01 0.  1.
<mgrwt>
<rscale>  0 0.10869952E+03</rscale>
<asrwt>0</asrwt>
<pdfrwt beam="1">  1        1 0.32919549E-01 0.10881659E+03</pdfrwt>
<pdfrwt beam="2">  1       -1 0.12625491E-01 0.10881659E+03</pdfrwt>
<totfact> 0.53573186E+03</totfact>
</mgrwt>
</event>
<event>
 8    1  0.5224537E-004  0.1038019E+03  0.7546771E-02  0.1278656E+00
          1   -1    0    0  501    0  0.00000000000E+00  0.00000000000E+00  0.53832489104E+02  0.53832489104E+02  0.00000000000E+00 0. -1.
         -1   -1    0    0    0  501 -0.00000000000E+00 -0.00000000000E+00 -0.24903144566E+03  0.24903144566E+03  0.00000000000E+00 0.  1.
         23    2    1    2    0    0  0.34647873697E+02  0.29792416387E+01 -0.21228888268E+02  0.10595050692E+03  0.97803339345E+02 0.  0.
         23    2    1    2    0    0 -0.34647873697E+02 -0.29792416387E+01 -0.17397006829E+03  0.19691342785E+03  0.85439817258E+02 0.  0.
          5    1    4    4  502    0 -0.24183607772E+02  0.40345400945E+02 -0.83576889522E+02  0.96019710083E+02  0.47000000000E+01 0. -1.
         -5    1    3    3    0  503  0.27205225823E+02 -0.44628244083E+02 -0.23464321776E+02  0.57484509900E+02  0.47000000000E+01 0.  1.
          5    1    3    3  503    0  0.74426478739E+01  0.47607485722E+02  0.22354335081E+01  0.48465997020E+02  0.47000000000E+01 0. -1.
         -5    1    4    4    0  502 -0.10464265924E+02 -0.43324642584E+02 -0.90393178767E+02  0.10089371776E+03  0.47000000000E+01 0.  1.
<mgrwt>
<rscale>  0 0.10078385E+03</rscale>
<asrwt>0</asrwt>
<pdfrwt beam="1">  1        1 0.82819212E-02 0.10380195E+03</pdfrwt>
<pdfrwt beam="2">  1       -1 0.38312531E-01 0.10380195E+03</pdfrwt>
<totfact> 0.51677812E+03</totfact>
</mgrwt>
</event>
<event>
 8    1  0.5224537E-004  0.1198938E+03  0.7546771E-02  0.1249123E+00
          1   -1    0    0  501    0  0.00000000000E+00  0.00000000000E+00  0.94534714855E+03  0.94534714855E+03  0.00000000000E+00 0. -1.
         -1   -1    0    0    0  501 -0.00000000000E+00 -0.00000000000E+00 -0.13934293110E+02  0.13934293110E+02  0.00000000000E+00 0.  1.
         23    2    1    2    0    0 -0.42037883454E+02 -0.25055996430E+02  0.57028234849E+03  0.58274906411E+03  0.10945103068E+03 0.  0.
         23    2    1    2    0    0  0.42037883454E+02  0.25055996430E+02  0.36113050695E+03  0.37653237756E+03  0.94691085606E+02 0.  0.
          5    1    3    3  502    0 -0.77428163202E+02 -0.27273833155E+01  0.38414365466E+03  0.39190687222E+03  0.47000000000E+01 0. -1.
         -5    1    3    3    0  502  0.35390279749E+02 -0.22328613115E+02  0.18613869383E+03  0.19084219188E+03  0.47000000000E+01 0.  1.
          5    1    4    4  503    0 -0.22534188319E+02 -0.95331601317E+01  0.40043401633E+02  0.47161793855E+02  0.47000000000E+01 0. -1.
         -5    1    4    4    0  503  0.64572071772E+02  0.34589156562E+02  0.32108710532E+03  0.32937058370E+03  0.47000000000E+01 0.  1.
<mgrwt>
<rscale>  0 0.11641967E+03</rscale>
<asrwt>0</asrwt>
<pdfrwt beam="1">  1        1 0.14543797E+00 0.11989376E+03</pdfrwt>
<pdfrwt beam="2">  1       -1 0.21437381E-02 0.11989376E+03</pdfrwt>
<totfact> 0.10412755E+04</totfact>
</mgrwt>
</event>
<event>
 8    1  0.5224537E-004  0.1151012E+03  0.7546771E-02  0.1251777E+00
         -1   -1    0    0    0  501 -0.00000000000E+00  0.00000000000E+00  0.40980150111E+02  0.40980150111E+02  0.00000000000E+00 0.  1.
          1   -1    0    0  501    0  0.00000000000E+00 -0.00000000000E+00 -0.33741259919E+03  0.33741259919E+03  0.00000000000E+00 0. -1.
         23    2    1    2    0    0 -0.69207431489E+02 -0.98203546816E+01 -0.19059265634E+03  0.22265186590E+03  0.91444982351E+02 0.  0.
         23    2    1    2    0    0  0.69207431489E+02  0.98203546816E+01 -0.10583979274E+03  0.15574088340E+03  0.90371749440E+02 0.  0.
          5    1    4    4  502    0  0.10578120909E+02  0.43198105488E+02 -0.28630285041E+02  0.53101376453E+02  0.47000000000E+01 0. -1.
         -5    1    3    3    0  503  0.13648738942E+02 -0.23321370523E+02 -0.25830507011E+02  0.37675980283E+02  0.47000000000E+01 0.  1.
          5    1    3    3  503    0 -0.82856170431E+02  0.13501015842E+02 -0.16476214933E+03  0.18497588561E+03  0.47000000000E+01 0. -1.
         -5    1    4    4    0  502  0.58629310581E+02 -0.33377750806E+02 -0.77209507695E+02  0.10263950695E+03  0.47000000000E+01 0.  1.
<mgrwt>
<rscale>  0 0.11488794E+03</rscale>
<asrwt>0</asrwt>
<pdfrwt beam="1">  1        1 0.51909629E-01 0.11510123E+03</pdfrwt>
<pdfrwt beam="2">  1       -1 0.63046386E-02 0.11510123E+03</pdfrwt>
<totfact> 0.87660541E+03</totfact>
</mgrwt>
</event>
<event>
 8    1  0.5224537E-004  0.1171936E+03  0.7546771E-02  0.1249535E+00
         -1   -1    0    0    0  501 -0.00000000000E+00  0.00000000000E+00  0.18012728993E+02  0.18012728993E+02  0.00000000000E+00 0.  1.
          1   -1    0    0  501    0  0.00000000000E+00 -0.00000000000E+00 -0.77253742417E+03  0.77253742417E+03  0.00000000000E+00 0. -1.
         23    2    1    2    0    0  0.10587879161E+02 -0.71251874045E+02 -0.46867041044E+03  0.48310070342E+03  0.92441350484E+02 0.  0.
         23    2    1    2    0    0 -0.10587879161E+02  0.71251874045E+02 -0.28585428474E+03  0.30744944975E+03  0.87312996210E+02 0.  0.
          5    1    4    4  502    0 -0.31880210847E+02  0.61001779438E+02 -0.26983789117E+03  0.27851775966E+03  0.47000000000E+01 0. -1.
         -5    1    3    3    0  503  0.51025501885E+02 -0.31552159706E+02 -0.22856722415E+03  0.23635610121E+03  0.47000000000E+01 0.  1.
          5    1    3    3  503    0 -0.40437622724E+02 -0.39699714339E+02 -0.24010318629E+03  0.24674460221E+03  0.47000000000E+01 0. -1.
         -5    1    4    4    0  502  0.21292331686E+02  0.10250094607E+02 -0.16016393568E+02  0.28931690082E+02  0.47000000000E+01 0.  1.
<mgrwt>
<rscale>  0 0.11618019E+03</rscale>
<asrwt>0</asrwt>
<pdfrwt beam="1">  1        1 0.11885188E+00 0.11719358E+03</pdfrwt>
<pdfrwt beam="2">  1       -1 0.27711898E-02 0.11719358E+03</pdfrwt>
<totfact> 0.98073519E+03</totfact>
</mgrwt>
</event>
<event>
 8    1  0.5224537E-004  0.9254140E+02  0.7546771E-02  0.1297839E+00
         -1   -1    0    0    0  501 -0.00000000000E+00  0.00000000000E+00  0.66681698794E+02  0.66681698794E+02  0.00000000000E+00 0.  1.
          1   -1    0    0  501    0  0.00000000000E+00 -0.00000000000E+00 -0.12683365406E+03  0.12683365406E+03  0.00000000000E+00 0. -1.
         23    2    1    2    0    0 -0.29261990355E+01 -0.61505364910E+01 -0.37538775729E+02  0.98251163222E+02  0.90541369833E+02 0.  0.
         23    2    1    2    0    0  0.29261990355E+01  0.61505364910E+01 -0.22613179540E+02  0.95264189635E+02  0.92290401440E+02 0.  0.
          5    1    4    4  502    0  0.28026896521E+02 -0.32206756752E+02  0.20456805173E+01  0.43000661831E+02  0.47000000000E+01 0. -1.
         -5    1    4    4    0  502 -0.25100697485E+02  0.38357293243E+02 -0.24658860058E+02  0.52263527804E+02  0.47000000000E+01 0.  1.
          5    1    3    3  503    0  0.41820767167E+02  0.34921090879E+01 -0.29567736244E+02  0.51551066128E+02  0.47000000000E+01 0. -1.
         -5    1    3    3    0  503 -0.44746966203E+02 -0.96426455790E+01 -0.79710394855E+01  0.46700097094E+02  0.47000000000E+01 0.  1.
<mgrwt>
<rscale>  0 0.92102230E+02</rscale>
<asrwt>0</asrwt>
<pdfrwt beam="1">  1        1 0.19512870E-01 0.92541396E+02</pdfrwt>
<pdfrwt beam="2">  1       -1 0.10258723E-01 0.92541396E+02</pdfrwt>
<totfact> 0.13896860E+04</totfact>
</mgrwt>
</event>
<event>
 8    1  0.5224537E-004  0.1863147E+03  0.7546771E-02  0.1164633E+00
          1   -1    0    0  501    0  0.00000000000E+00  0.00000000000E+00  0.13415044503E+04  0.13415044503E+04  0.00000000000E+00 0. -1.
         -1   -1    0    0    0  501 -0.00000000000E+00 -0.00000000000E+00 -0.24733645670E+02  0.24733645670E+02  0.00000000000E+00 0.  1.
         23    2    1    2    0    0  0.84422991840E+02 -0.12354328223E+03  0.54446805566E+03  0.57177935556E+03  0.89977684286E+02 0.  0.
         23    2    1    2    0    0 -0.84422991840E+02  0.12354328223E+03  0.77230274895E+03  0.79445874040E+03  0.11100887361E+03 0.  0.
          5    1    4    4  502    0 -0.78280487167E+01  0.82845021306E+02  0.54101760615E+03  0.54739995987E+03  0.47000000000E+01 0. -1.
         -5    1    4    4    0  502 -0.76594943123E+02  0.40698260924E+02  0.23128514280E+03  0.24705878052E+03  0.47000000000E+01 0.  1.
          5    1    3    3  503    0  0.65010289476E+02 -0.27920667470E+02  0.15844737779E+03  0.17359021556E+03  0.47000000000E+01 0. -1.
         -5    1    3    3    0  503  0.19412702364E+02 -0.95622614760E+02  0.38602067787E+03  0.39818914000E+03  0.47000000000E+01 0.  1.
<mgrwt>
<rscale>  0 0.18331505E+03</rscale>
<asrwt>0</asrwt>
<pdfrwt beam="1">  1        1 0.20638524E+00 0.18631466E+03</pdfrwt>
<pdfrwt beam="2">  1       -1 0.38051773E-02 0.18631466E+03</pdfrwt>
<totfact> 0.24162037E+03</totfact>
</mgrwt>
</event>
<event>
 8    1  0.5224537E-004  0.1554425E+03  0.7546771E-02  0.1194203E+00
          2   -1    0    0  501    0  0.00000000000E+00  0.00000000000E+00  0.16113737973E+03  0.16113737973E+03  0.00000000000E+00 0. -1.
         -2   -1    0    0    0  501 -0.00000000000E+00 -0.00000000000E+00 -0.27210366990E+03  0.27210366990E+03  0.00000000000E+00 0.  1.
         23    2    1    2    0    0  0.11867203009E+03  0.38665239827E+02  0.90079153578E+02  0.17965693389E+03  0.92651543367E+02 0.  0.
         23    2    1    2    0    0 -0.11867203009E+03 -0.38665239827E+02 -0.20104544375E+03  0.25358411574E+03  0.91145936865E+02 0.  0.
          5    1    3    3  502    0  0.58762911608E+02 -0.11216872878E+02  0.81326517272E+02  0.10106923582E+03  0.47000000000E+01 0. -1.
         -5    1    4    4    0  503 -0.43113968124E+02 -0.61700857807E+02 -0.98390629663E+02  0.12397022266E+03  0.47000000000E+01 0.  1.
          5    1    4    4  503    0 -0.75558061970E+02  0.23035617979E+02 -0.10265481409E+03  0.12961389308E+03  0.47000000000E+01 0. -1.
         -5    1    3    3    0  502  0.59909118485E+02  0.49882112705E+02  0.87526363059E+01  0.78587698070E+02  0.47000000000E+01 0.  1.
<mgrwt>
<rscale>  0 0.15521881E+03</rscale>
<asrwt>0</asrwt>
<pdfrwt beam="1">  1        2 0.24790366E-01 0.15544247E+03</pdfrwt>
<pdfrwt beam="2">  1       -2 0.41862103E-01 0.15544247E+03</pdfrwt>
<totfact> 0.11684760E+03</totfact>
</mgrwt>
</event>
<event>
 7    1  0.5224537E-004  0.1406525E+03  0.7546771E-02  0.1226855E+00
          1   -1    0    0  501    0  0.00000000000E+00  0.00000000000E+00  0.18639425689E+03  0.18639425689E+03  0.00000000000E+00 0. -1.
         -1   -1    0    0    0  501 -0.00000000000E+00 -0.00000000000E+00 -0.11249973909E+03  0.11249973909E+03  0.00000000000E+00 0.  1.
         23    2    1    2    0    0 -0.44174216776E+02  0.14178655522E+02  0.11237940665E+03  0.15307144871E+03  0.93001836936E+02 0.  0.
          5    1    1    2  502    0 -0.16170594109E+02  0.33080625333E+02  0.26185656773E+02  0.45426803837E+02  0.47000000000E+01 0. -1.
         -5    1    1    2    0  502  0.60344810886E+02 -0.47259280854E+02 -0.64670545619E+02  0.10039574343E+03  0.47000000000E+01 0.  1.
          5    1    3    3  503    0 -0.16606961065E+02  0.29868410124E+02  0.11579510740E+03  0.12082429382E+03  0.47000000000E+01 0. -1.
         -5    1    3    3    0  503 -0.27567255711E+02 -0.15689754602E+02 -0.34157007583E+01  0.32247154892E+02  0.47000000000E+01 0.  1.
<mgrwt>
<rscale>  0 0.13040592E+03</rscale>
<asrwt>0</asrwt>
<pdfrwt beam="1">  1        1 0.28676040E-01 0.14065251E+03</pdfrwt>
<pdfrwt beam="2">  1       -1 0.17307652E-01 0.14065251E+03</pdfrwt>
<totfact> 0.39441635E+03</totfact>
</mgrwt>
</event>
<event>
 8    1  0.5224537E-004  0.1479910E+03  0.7546771E-02  0.1203103E+00
         -2   -1    0    0    0  501 -0.00000000000E+00  0.00000000000E+00  0.13586594650E+02  0.13586594650E+02  0.00000000000E+00 0.  1.
          2   -1    0    0  501    0  0.00000000000E+00 -0.00000000000E+00 -0.16071873573E+04  0.16071873573E+04  0.00000000000E+00 0. -1.
         23    2    1    2    0    0  0.64138034903E+02  0.96935699196E+02 -0.79090524770E+03  0.80455007864E+03  0.90881796287E+02 0.  0.
         23    2    1    2    0    0 -0.64138034903E+02 -0.96935699196E+02 -0.80269551496E+03  0.81622387332E+03  0.91602971263E+02 0.  0.
          5    1    4    4  502    0  0.43450373550E+01 -0.30539276994E+02 -0.62122373823E+02  0.69518386908E+02  0.47000000000E+01 0. -1.
         -5    1    4    4    0  502 -0.68483072258E+02 -0.66396422203E+02 -0.74057314114E+03  0.74670548641E+03  0.47000000000E+01 0.  1.
          5    1    3    3  503    0 -0.29458790046E+01  0.70682868500E+02 -0.49019269483E+03  0.49529356363E+03  0.47000000000E+01 0. -1.
         -5    1    3    3    0  503  0.67083913908E+02  0.26252830696E+02 -0.30071255287E+03  0.30925651501E+03  0.47000000000E+01 0.  1.
<mgrwt>
<rscale>  0 0.14787950E+03</rscale>
<asrwt>0</asrwt>
<pdfrwt beam="1">  1        2 0.24725963E+00 0.14799095E+03</pdfrwt>
<pdfrwt beam="2">  1       -2 0.20902450E-02 0.14799095E+03</pdfrwt>
<totfact> 0.85106458E+03</totfact>
</mgrwt>
</event>
<event>
 8    1  0.5224537E-004  0.1015312E+03  0.7546771E-02  0.1277322E+00
         -1   -1    0    0    0  501 -0.00000000000E+00  0.00000000000E+00  0.76000845353E+01  0.76000845353E+01  0.00000000000E+00 0.  1.
          1   -1    0    0  501    0  0.00000000000E+00 -0.00000000000E+00 -0.13977771985E+04  0.13977771985E+04  0.00000000000E+00 0. -1.
         23    2    1    2    0    0  0.13965907859E+02  0.39295933125E+02 -0.56770934803E+03  0.57671699865E+03  0.92570922807E+02 0.  0.
         23    2    1    2    0    0 -0.13965907859E+02 -0.39295933125E+02 -0.82246776590E+03  0.82866028435E+03  0.92116361045E+02 0.  0.
          5    1    3    3  502    0 -0.38302198915E+02  0.19452295702E+02 -0.18923819908E+03  0.19410985612E+03  0.47000000000E+01 0. -1.
         -5    1    3    3    0  502  0.52268106774E+02  0.19843637423E+02 -0.37847114894E+03  0.38260714253E+03  0.47000000000E+01 0.  1.
          5    1    4    4  503    0 -0.46731816041E+02  0.26931251418E+01 -0.34011461421E+03  0.34335281615E+03  0.47000000000E+01 0. -1.
         -5    1    4    4    0  503  0.32765908182E+02 -0.41989058267E+02 -0.48235315168E+03  0.48530746820E+03  0.47000000000E+01 0.  1.
<mgrwt>
<rscale>  0 0.10142751E+03</rscale>
<asrwt>0</asrwt>
<pdfrwt beam="1">  1        1 0.21504258E+00 0.10153124E+03</pdfrwt>
<pdfrwt beam="2">  1       -1 0.11692442E-02 0.10153124E+03</pdfrwt>
<totfact> 0.11959419E+04</totfact>
</mgrwt>
</event>
<event>
 8    1  0.5224537E-004  0.9926413E+02  0.7546771E-02  0.1288131E+00
         -2   -1    0    0    0  501 -0.00000000000E+00  0.00000000000E+00  0.12465656512E+03  0.12465656512E+03  0.00000000000E+00 0.  1.
          2   -1    0    0  501    0  0.00000000000E+00 -0.00000000000E+00 -0.52461293541E+03  0.52461293541E+03  0.00000000000E+00 0. -1.
         23    2    1    2    0    0  0.27755804802E+02 -0.21488878671E+02  0.10359121152E+03  0.13603121812E+03  0.80877664363E+02 0.  0.
         23    2    1    2    0    0 -0.27755804802E+02  0.21488878671E+02 -0.50354758180E+03  0.51323828241E+03  0.92850475450E+02 0.  0.
          5    1    3    3  502    0 -0.19249517700E+01 -0.26501060021E+02 -0.10914731606E+01  0.27005424182E+02  0.47000000000E+01 0. -1.
         -5    1    4    4    0  503 -0.41045678050E+02 -0.26597409900E+02 -0.24426652285E+03  0.24915937487E+03  0.47000000000E+01 0.  1.
          5    1    4    4  503    0  0.13289873248E+02  0.48086288571E+02 -0.25928105895E+03  0.26407890754E+03  0.47000000000E+01 0. -1.
         -5    1    3    3    0  502  0.29680756572E+02  0.50121813501E+01  0.10468268468E+03  0.10902579394E+03  0.47000000000E+01 0.  1.
<mgrwt>
<rscale>  0 0.96365217E+02</rscale>
<asrwt>0</asrwt>
<pdfrwt beam="1">  1        2 0.80709683E-01 0.99264129E+02</pdfrwt>
<pdfrwt beam="2">  1       -2 0.19177933E-01 0.99264129E+02</pdfrwt>
<totfact> 0.13105405E+03</totfact>
</mgrwt>
</event>
<event>
 8    1  0.5224537E-004  0.9231122E+02  0.7546771E-02  0.1298611E+00
         -1   -1    0    0    0  501 -0.00000000000E+00  0.00000000000E+00  0.33674438431E+02  0.33674438431E+02  0.00000000000E+00 0.  1.
          1   -1    0    0  501    0  0.00000000000E+00 -0.00000000000E+00 -0.29490519744E+03  0.29490519744E+03  0.00000000000E+00 0. -1.
         23    2    1    2    0    0 -0.51312337782E+01 -0.95825846019E+01 -0.19793474244E+03  0.21840220621E+03  0.91669001972E+02 0.  0.
         23    2    1    2    0    0  0.51312337782E+01  0.95825846019E+01 -0.63296016570E+02  0.11017742967E+03  0.89523878417E+02 0.  0.
          5    1    3    3  502    0  0.17158720135E+02 -0.33420319149E+02 -0.17291642149E+03  0.17701276290E+03  0.47000000000E+01 0. -1.
         -5    1    4    4    0  503 -0.14168768180E+02 -0.36362348766E+02 -0.35264846933E+02  0.52807895515E+02  0.47000000000E+01 0.  1.
          5    1    4    4  503    0  0.19300001958E+02  0.45944933367E+02 -0.28031169637E+02  0.57369534153E+02  0.47000000000E+01 0. -1.
         -5    1    3    3    0  502 -0.22289953913E+02  0.23837734547E+02 -0.25018320947E+02  0.41389443302E+02  0.47000000000E+01 0.  1.
<mgrwt>
<rscale>  0 0.91774089E+02</rscale>
<asrwt>0</asrwt>
<pdfrwt beam="1">  1        1 0.45370028E-01 0.92311220E+02</pdfrwt>
<pdfrwt beam="2">  1       -1 0.51806831E-02 0.92311220E+02</pdfrwt>
<totfact> 0.13563573E+04</totfact>
</mgrwt>
</event>
<event>
 8    1  0.5224537E-004  0.2148756E+03  0.7546771E-02  0.1137780E+00
         -1   -1    0    0    0  501 -0.00000000000E+00  0.00000000000E+00  0.28912226862E+02  0.28912226862E+02  0.00000000000E+00 0.  1.
          1   -1    0    0  501    0  0.00000000000E+00 -0.00000000000E+00 -0.20096677530E+04  0.20096677530E+04  0.00000000000E+00 0. -1.
         23    2    1    2    0    0  0.10659016258E+02 -0.19430737426E+03 -0.52790281728E+03  0.56992327197E+03  0.90896540759E+02 0.  0.
         23    2    1    2    0    0 -0.10659016258E+02  0.19430737426E+03 -0.14528527089E+04  0.14686567079E+04  0.91118393733E+02 0.  0.
          5    1    4    4  502    0  0.15163921703E+02  0.18103454443E+03 -0.13285546985E+04  0.13409262201E+04  0.47000000000E+01 0. -1.
         -5    1    3    3    0  503 -0.40133249147E+02 -0.84689242433E+02 -0.23622984321E+03  0.25418413462E+03  0.47000000000E+01 0.  1.
          5    1    3    3  503    0  0.50792265405E+02 -0.10961813183E+03 -0.29167297407E+03  0.31573913734E+03  0.47000000000E+01 0. -1.
         -5    1    4    4    0  502 -0.25822937962E+02  0.13272829831E+02 -0.12429801035E+03  0.12773048780E+03  0.47000000000E+01 0.  1.
<mgrwt>
<rscale>  0 0.21485212E+03</rscale>
<asrwt>0</asrwt>
<pdfrwt beam="1">  1        1 0.30917969E+00 0.21487562E+03</pdfrwt>
<pdfrwt beam="2">  1       -1 0.44480344E-02 0.21487562E+03</pdfrwt>
<totfact> 0.70267402E+02</totfact>
</mgrwt>
</event>
<event>
 8    1  0.5224537E-004  0.9672081E+02  0.7546771E-02  0.1288313E+00
          1   -1    0    0  501    0  0.00000000000E+00  0.00000000000E+00  0.24401835929E+02  0.24401835929E+02  0.00000000000E+00 0. -1.
         -1   -1    0    0    0  501 -0.00000000000E+00 -0.00000000000E+00 -0.38318085687E+03  0.38318085687E+03  0.00000000000E+00 0.  1.
         23    2    1    2    0    0  0.19288029753E+02  0.24501175343E+02 -0.15088432412E+03  0.17829004295E+03  0.89715798307E+02 0.  0.
         23    2    1    2    0    0 -0.19288029753E+02 -0.24501175343E+02 -0.20789469682E+03  0.22929264985E+03  0.91556423163E+02 0.  0.
          5    1    3    3  502    0  0.21638771176E+02  0.50999594278E+02 -0.53245260827E+02  0.76982743748E+02  0.47000000000E+01 0. -1.
         -5    1    3    3    0  502 -0.23507414223E+01 -0.26498418935E+02 -0.97639063295E+02  0.10130729921E+03  0.47000000000E+01 0.  1.
          5    1    4    4  503    0  0.26435651890E+02 -0.10147112462E+02 -0.19157799814E+02  0.34509692492E+02  0.47000000000E+01 0. -1.
         -5    1    4    4    0  503 -0.45723681643E+02 -0.14354062881E+02 -0.18873689701E+03  0.19478295736E+03  0.47000000000E+01 0.  1.
<mgrwt>
<rscale>  0 0.96282716E+02</rscale>
<asrwt>0</asrwt>
<pdfrwt beam="1">  1        1 0.37541288E-02 0.96720806E+02</pdfrwt>
<pdfrwt beam="2">  1       -1 0.58950898E-01 0.96720806E+02</pdfrwt>
<totfact> 0.68866109E+03</totfact>
</mgrwt>
</event>
<event>
 8    1  0.5224537E-004  0.1074003E+03  0.7546771E-02  0.1267510E+00
         -1   -1    0    0    0  501 -0.00000000000E+00  0.00000000000E+00  0.54953307999E+03  0.54953307999E+03  0.00000000000E+00 0.  1.
          1   -1    0    0  501    0  0.00000000000E+00 -0.00000000000E+00 -0.20448611116E+02  0.20448611116E+02  0.00000000000E+00 0. -1.
         23    2    1    2    0    0 -0.45073173770E+02  0.13111198798E+02  0.29209413662E+03  0.30979091504E+03  0.91912631722E+02 0.  0.
         23    2    1    2    0    0  0.45073173770E+02 -0.13111198798E+02  0.23699033226E+03  0.26019077606E+03  0.96598798323E+02 0.  0.
          5    1    4    4  502    0  0.72448280085E+01  0.36596555155E+02  0.47299610977E+02  0.60424652094E+02  0.47000000000E+01 0. -1.
         -5    1    4    4    0  502  0.37828345761E+02 -0.49707753953E+02  0.18969072128E+03  0.19976612397E+03  0.47000000000E+01 0.  1.
          5    1    3    3  503    0 -0.47339943789E+02  0.45396819785E+02  0.23464649731E+03  0.24368629470E+03  0.47000000000E+01 0. -1.
         -5    1    3    3    0  503  0.22667700192E+01 -0.32285620987E+02  0.57447639304E+02  0.66104620341E+02  0.47000000000E+01 0.  1.
<mgrwt>
<rscale>  0 0.10633594E+03</rscale>
<asrwt>0</asrwt>
<pdfrwt beam="1">  1        1 0.31459406E-02 0.10740029E+03</pdfrwt>
<pdfrwt beam="2">  1       -1 0.84543539E-01 0.10740029E+03</pdfrwt>
<totfact> 0.43554878E+03</totfact>
</mgrwt>
</event>
<event>
 8    1  0.5224537E-004  0.1156500E+03  0.7546771E-02  0.1261649E+00
          2   -1    0    0  501    0  0.00000000000E+00  0.00000000000E+00  0.22134954287E+03  0.22134954287E+03  0.00000000000E+00 0. -1.
         -2   -1    0    0    0  501 -0.00000000000E+00 -0.00000000000E+00 -0.66646604880E+02  0.66646604880E+02  0.00000000000E+00 0.  1.
         23    2    1    2    0    0 -0.47761479899E+01 -0.20446680559E+02 -0.26581309451E+01  0.92708095874E+02  0.90259886134E+02 0.  0.
         23    2    1    2    0    0  0.47761479899E+01  0.20446680559E+02  0.15736106893E+03  0.19528805188E+03  0.11372791589E+03 0.  0.
          5    1    3    3  502    0 -0.36365787940E+02 -0.35048540088E+01 -0.29897965660E+02  0.47441889557E+02  0.47000000000E+01 0. -1.
         -5    1    3    3    0  502  0.31589639950E+02 -0.16941826550E+02  0.27239834715E+02  0.45266206317E+02  0.47000000000E+01 0.  1.
          5    1    4    4  503    0  0.55265403325E+02  0.15699083769E+02  0.11654487293E+03  0.13002124227E+03  0.47000000000E+01 0. -1.
         -5    1    4    4    0  503 -0.50489255335E+02  0.47475967898E+01  0.40816196007E+02  0.65266809605E+02  0.47000000000E+01 0.  1.
<mgrwt>
<rscale>  0 0.10941930E+03</rscale>
<asrwt>0</asrwt>
<pdfrwt beam="1">  1        2 0.34053775E-01 0.11564998E+03</pdfrwt>
<pdfrwt beam="2">  1       -2 0.10253324E-01 0.11564998E+03</pdfrwt>
<totfact> 0.90734473E+03</totfact>
</mgrwt>
</event>
<event>
 8    1  0.5224537E-004  0.1059952E+03  0.7546771E-02  0.1270005E+00
         -2   -1    0    0    0  501 -0.00000000000E+00  0.00000000000E+00  0.13435739093E+02  0.13435739093E+02  0.00000000000E+00 0.  1.
          2   -1    0    0  501    0  0.00000000000E+00 -0.00000000000E+00 -0.85897551970E+03  0.85897551970E+03  0.00000000000E+00 0. -1.
         23    2    1    2    0    0 -0.49659443050E+02 -0.26908940437E+02 -0.53682709481E+03  0.54719129838E+03  0.89693009450E+02 0.  0.
         23    2    1    2    0    0  0.49659443050E+02  0.26908940437E+02 -0.30871268580E+03  0.32521996041E+03  0.85289793749E+02 0.  0.
          5    1    4    4  502    0 -0.24073909825E+02  0.55100335618E+01 -0.66866187726E+02  0.71435919992E+02  0.47000000000E+01 0. -1.
         -5    1    4    4    0  502  0.73733352875E+02  0.21398906875E+02 -0.24184649808E+03  0.25378404042E+03  0.47000000000E+01 0.  1.
          5    1    3    3  503    0 -0.60127075496E+02 -0.44506541472E+02 -0.49210683999E+03  0.49778241171E+03  0.47000000000E+01 0. -1.
         -5    1    3    3    0  503  0.10467632445E+02  0.17597601035E+02 -0.44720254817E+02  0.49408886671E+02  0.47000000000E+01 0.  1.
<mgrwt>
<rscale>  0 0.10505810E+03</rscale>
<asrwt>0</asrwt>
<pdfrwt beam="1">  1        2 0.13215010E+00 0.10599522E+03</pdfrwt>
<pdfrwt beam="2">  1       -2 0.20670364E-02 0.10599522E+03</pdfrwt>
<totfact> 0.22123008E+04</totfact>
</mgrwt>
</event>
<event>
 8    1  0.5224537E-004  0.1224623E+03  0.7546771E-02  0.1239561E+00
         -1   -1    0    0    0  501 -0.00000000000E+00  0.00000000000E+00  0.25482852559E+02  0.25482852559E+02  0.00000000000E+00 0.  1.
          1   -1    0    0  501    0  0.00000000000E+00 -0.00000000000E+00 -0.76519984548E+03  0.76519984548E+03  0.00000000000E+00 0. -1.
         23    2    1    2    0    0 -0.79844901491E+02 -0.94996869451E+00 -0.56146441226E+03  0.57441666157E+03  0.91302267878E+02 0.  0.
         23    2    1    2    0    0  0.79844901491E+02  0.94996869451E+00 -0.17825258066E+03  0.21626603647E+03  0.92848830273E+02 0.  0.
          5    1    4    4  502    0 -0.20778327288E+02  0.37165594278E+01 -0.28840171937E+02  0.36047152678E+02  0.47000000000E+01 0. -1.
         -5    1    4    4    0  502  0.10062322878E+03 -0.27665907333E+01 -0.14941240872E+03  0.18021888379E+03  0.47000000000E+01 0.  1.
          5    1    3    3  503    0 -0.73613309284E+02 -0.29849649569E+02 -0.49713522311E+03  0.50346344548E+03  0.47000000000E+01 0. -1.
         -5    1    3    3    0  503 -0.62315922063E+01  0.28899680874E+02 -0.64329189153E+02  0.70953216087E+02  0.47000000000E+01 0.  1.
<mgrwt>
<rscale>  0 0.12216916E+03</rscale>
<asrwt>0</asrwt>
<pdfrwt beam="1">  1        1 0.11772304E+00 0.12246230E+03</pdfrwt>
<pdfrwt beam="2">  1       -1 0.39204392E-02 0.12246230E+03</pdfrwt>
<totfact> 0.60192203E+03</totfact>
</mgrwt>
</event>
<event>
 8    1  0.5224537E-004  0.1919580E+03  0.7546771E-02  0.1156741E+00
         -1   -1    0    0    0  501 -0.00000000000E+00  0.00000000000E+00  0.34868483516E+03  0.34868483516E+03  0.00000000000E+00 0.  1.
          1   -1    0    0  501    0  0.00000000000E+00 -0.00000000000E+00 -0.16057642453E+03  0.16057642453E+03  0.00000000000E+00 0. -1.
         23    2    1    2    0    0  0.16853468871E+03  0.50064231060E+01 -0.54972075668E+02  0.19952590088E+03  0.91431124072E+02 0.  0.
         23    2    1    2    0    0 -0.16853468871E+03 -0.50064231060E+01  0.24308048630E+03  0.30973535880E+03  0.91754368306E+02 0.  0.
          5    1    4    4  502    0 -0.49214929971E+02 -0.15188061796E+02  0.14793051398E+03  0.15671092343E+03  0.47000000000E+01 0.  1.
         -5    1    3    3    0  503  0.66520030093E+02  0.46378578900E+02 -0.29636705969E+02  0.86465665585E+02  0.47000000000E+01 0.  1.
          5    1    3    3  503    0  0.10201465861E+03 -0.41372155794E+02 -0.25335369699E+02  0.11306023530E+03  0.47000000000E+01 0. -1.
         -5    1    4    4    0  502 -0.11931975874E+03  0.10181638690E+02  0.95149972317E+02  0.15302443538E+03  0.47000000000E+01 0. -1.
<mgrwt>
<rscale>  0 0.19191940E+03</rscale>
<asrwt>0</asrwt>
<pdfrwt beam="1">  1        1 0.24704065E-01 0.19195799E+03</pdfrwt>
<pdfrwt beam="2">  1       -1 0.53643821E-01 0.19195799E+03</pdfrwt>
<totfact> 0.69971181E+02</totfact>
</mgrwt>
</event>
<event>
 8    1  0.5224537E-004  0.1045440E+03  0.7546771E-02  0.1271661E+00
         -2   -1    0    0    0  501 -0.00000000000E+00  0.00000000000E+00  0.11969335231E+03  0.11969335231E+03  0.00000000000E+00 0.  1.
          2   -1    0    0  501    0  0.00000000000E+00 -0.00000000000E+00 -0.10854411066E+03  0.10854411066E+03  0.00000000000E+00 0. -1.
         23    2    1    2    0    0  0.21607625402E+02 -0.43054383547E+02 -0.41373617653E+02  0.11124133527E+03  0.91336132042E+02 0.  0.
         23    2    1    2    0    0 -0.21607625402E+02  0.43054383547E+02  0.52522859299E+02  0.11699612770E+03  0.92784016569E+02 0.  0.
          5    1    4    4  502    0  0.20846742035E+02  0.26243731757E+02  0.61524813044E+02  0.70219033959E+02  0.47000000000E+01 0. -1.
         -5    1    4    4    0  502 -0.42454367436E+02  0.16810651790E+02 -0.90019537453E+01  0.46777093745E+02  0.47000000000E+01 0.  1.
          5    1    3    3  503    0  0.35724624612E+02  0.16763723565E+02 -0.26701934628E+02  0.47878539497E+02  0.47000000000E+01 0. -1.
         -5    1    3    3    0  503 -0.14116999210E+02 -0.59818107112E+02 -0.14671683025E+02  0.63362795772E+02  0.47000000000E+01 0.  1.
<mgrwt>
<rscale>  0 0.10422178E+03</rscale>
<asrwt>0</asrwt>
<pdfrwt beam="1">  1        2 0.16699094E-01 0.10454398E+03</pdfrwt>
<pdfrwt beam="2">  1       -2 0.18414362E-01 0.10454398E+03</pdfrwt>
<totfact> 0.76855866E+03</totfact>
</mgrwt>
</event>
<event>
 8    1  0.5224537E-004  0.9338812E+02  0.7546771E-02  0.1295960E+00
         -2   -1    0    0    0  501 -0.00000000000E+00  0.00000000000E+00  0.94234627943E+02  0.94234627943E+02  0.00000000000E+00 0.  1.
          2   -1    0    0  501    0  0.00000000000E+00 -0.00000000000E+00 -0.15725358601E+03  0.15725358601E+03  0.00000000000E+00 0. -1.
         23    2    1    2    0    0  0.20562885236E+01 -0.11141677954E+02 -0.11314272730E+03  0.14549890529E+03  0.90776039735E+02 0.  0.
         23    2    1    2    0    0 -0.20562885236E+01  0.11141677954E+02  0.50123769237E+02  0.10598930866E+03  0.92698306333E+02 0.  0.
          5    1    4    4  502    0  0.35950468905E+00  0.51987029773E+02  0.28365998981E+02  0.59409598605E+02  0.47000000000E+01 0. -1.
         -5    1    4    4    0  502 -0.24157932127E+01 -0.40845351819E+02  0.21757770255E+02  0.46579710052E+02  0.47000000000E+01 0.  1.
          5    1    3    3  503    0 -0.28955372662E+02  0.12657979099E+02 -0.98399257471E+02  0.10345599022E+03  0.47000000000E+01 0. -1.
         -5    1    3    3    0  503  0.31011661186E+02 -0.23799657053E+02 -0.14743469828E+02  0.42042915074E+02  0.47000000000E+01 0.  1.
<mgrwt>
<rscale>  0 0.92907481E+02</rscale>
<asrwt>0</asrwt>
<pdfrwt beam="1">  1        2 0.24192859E-01 0.93388122E+02</pdfrwt>
<pdfrwt beam="2">  1       -2 0.14497635E-01 0.93388122E+02</pdfrwt>
<totfact> 0.74378999E+03</totfact>
</mgrwt>
</event>
<event>
 8    1  0.5224537E-004  0.9429180E+02  0.7546771E-02  0.1293155E+00
          1   -1    0    0  501    0  0.00000000000E+00  0.00000000000E+00  0.48608098500E+03  0.48608098500E+03  0.00000000000E+00 0. -1.
         -1   -1    0    0    0  501 -0.00000000000E+00 -0.00000000000E+00 -0.30217454893E+02  0.30217454893E+02  0.00000000000E+00 0.  1.
         23    2    1    2    0    0  0.25733638367E+02 -0.41380779310E+01  0.65368203232E+02  0.11473424131E+03  0.90617880696E+02 0.  0.
         23    2    1    2    0    0 -0.25733638367E+02  0.41380779310E+01  0.39049532688E+03  0.40156419859E+03  0.89932538286E+02 0.  0.
          5    1    3    3  502    0  0.12755075969E+02  0.38700991497E+02  0.54888627507E+02  0.68522333114E+02  0.47000000000E+01 0. -1.
         -5    1    4    4    0  503  0.30807924056E+02 -0.29296774116E+01  0.81114344705E+02  0.86944454172E+02  0.47000000000E+01 0.  1.
          5    1    4    4  503    0 -0.56541562423E+02  0.70677553427E+01  0.30938098217E+03  0.31461974441E+03  0.47000000000E+01 0. -1.
         -5    1    3    3    0  502  0.12978562398E+02 -0.42839069428E+02  0.10479575725E+02  0.46211908192E+02  0.47000000000E+01 0.  1.
<mgrwt>
<rscale>  0 0.94126758E+02</rscale>
<asrwt>0</asrwt>
<pdfrwt beam="1">  1        1 0.74781684E-01 0.94291803E+02</pdfrwt>
<pdfrwt beam="2">  1       -1 0.46488396E-02 0.94291803E+02</pdfrwt>
<totfact> 0.85592372E+03</totfact>
</mgrwt>
</event>
<event>
 8    1  0.5224537E-004  0.9277918E+02  0.7546771E-02  0.1296788E+00
         -4   -1    0    0    0  501 -0.00000000000E+00  0.00000000000E+00  0.37496534467E+03  0.37496534467E+03  0.00000000000E+00 0.  1.
          4   -1    0    0  501    0  0.00000000000E+00 -0.00000000000E+00 -0.22750222674E+02  0.22750222674E+02  0.00000000000E+00 0. -1.
         23    2    1    2    0    0  0.41525436915E+01  0.52000163758E+00  0.18248790106E+03  0.20471885511E+03  0.92684742978E+02 0.  0.
         23    2    1    2    0    0 -0.41525436915E+01 -0.52000163758E+00  0.16972722093E+03  0.19299671224E+03  0.91776289904E+02 0.  0.
          5    1    3    3  502    0 -0.91185900994E+01 -0.44449083292E+02  0.86753672110E+02  0.98016117631E+02  0.47000000000E+01 0. -1.
         -5    1    4    4    0  503 -0.11571072712E+02 -0.29825336505E+02  0.15626062134E+03  0.15957102557E+03  0.47000000000E+01 0.  1.
          5    1    4    4  503    0  0.74185290207E+01  0.29305334868E+02  0.13466599598E+02  0.33425686669E+02  0.47000000000E+01 0. -1.
         -5    1    3    3    0  502  0.13271133791E+02  0.44969084930E+02  0.95734228955E+02  0.10670273748E+03  0.47000000000E+01 0.  1.
<mgrwt>
<rscale>  0 0.92551460E+02</rscale>
<asrwt>0</asrwt>
<pdfrwt beam="1">  1        4 0.35000345E-02 0.92779177E+02</pdfrwt>
<pdfrwt beam="2">  1       -4 0.57686971E-01 0.92779177E+02</pdfrwt>
<totfact> 0.18305481E+03</totfact>
</mgrwt>
</event>
<event>
 8    1  0.5224537E-004  0.1285737E+03  0.7546771E-02  0.1230049E+00
          2   -1    0    0  501    0  0.00000000000E+00  0.00000000000E+00  0.18544759780E+03  0.18544759780E+03  0.00000000000E+00 0. -1.
         -2   -1    0    0    0  501 -0.00000000000E+00 -0.00000000000E+00 -0.11341010318E+03  0.11341010318E+03  0.00000000000E+00 0.  1.
         23    2    1    2    0    0 -0.86077623073E+02 -0.25432081305E+02 -0.34427381859E+02  0.13192668705E+03  0.90350750854E+02 0.  0.
         23    2    1    2    0    0  0.86077623073E+02  0.25432081305E+02  0.10646487647E+03  0.16693101393E+03  0.92060010519E+02 0.  0.
          5    1    3    3  502    0  0.99825551560E+01 -0.28747843833E+02 -0.43163867946E+01  0.31093586597E+02  0.47000000000E+01 0. -1.
         -5    1    4    4    0  503  0.41625156137E+02  0.16559762628E+01  0.10844092318E+03  0.11626228839E+03  0.47000000000E+01 0. -1.
          5    1    4    4  503    0  0.44452466936E+02  0.23776105043E+02 -0.19760467086E+01  0.50668725544E+02  0.47000000000E+01 0.  1.
         -5    1    3    3    0  502 -0.96060178229E+02  0.33157625275E+01 -0.30110995065E+02  0.10083310045E+03  0.47000000000E+01 0.  1.
<mgrwt>
<rscale>  0 0.12826804E+03</rscale>
<asrwt>0</asrwt>
<pdfrwt beam="1">  1        2 0.28530400E-01 0.12857369E+03</pdfrwt>
<pdfrwt beam="2">  1       -2 0.17447708E-01 0.12857369E+03</pdfrwt>
<totfact> 0.46958999E+03</totfact>
</mgrwt>
</event>
<event>
 8    1  0.5224537E-004  0.9693685E+02  0.7546771E-02  0.1287415E+00
          1   -1    0    0  501    0  0.00000000000E+00  0.00000000000E+00  0.30789846520E+03  0.30789846520E+03  0.00000000000E+00 0. -1.
         -1   -1    0    0    0  501 -0.00000000000E+00 -0.00000000000E+00 -0.43408498447E+02  0.43408498447E+02  0.00000000000E+00 0.  1.
         23    2    1    2    0    0 -0.16511099333E+02  0.30052748145E+02  0.34918087434E+02  0.10210824613E+03  0.89616053389E+02 0.  0.
         23    2    1    2    0    0  0.16511099333E+02 -0.30052748145E+02  0.22957187932E+03  0.24919871752E+03  0.90669559210E+02 0.  0.
          5    1    3    3  502    0 -0.17235740801E+02 -0.19744330946E+02  0.43842398613E+02  0.51294788055E+02  0.47000000000E+01 0. -1.
         -5    1    4    4    0  503 -0.35975754290E+02 -0.68316640500E+00  0.76606572804E+02  0.84766612589E+02  0.47000000000E+01 0.  1.
          5    1    4    4  503    0  0.52486853623E+02 -0.29369581740E+02  0.15296530652E+03  0.16443210493E+03  0.47000000000E+01 0. -1.
         -5    1    3    3    0  502  0.72464146823E+00  0.49797079091E+02 -0.89243111791E+01  0.50813458073E+02  0.47000000000E+01 0.  1.
<mgrwt>
<rscale>  0 0.96689740E+02</rscale>
<asrwt>0</asrwt>
<pdfrwt beam="1">  1        1 0.47368993E-01 0.96936851E+02</pdfrwt>
<pdfrwt beam="2">  1       -1 0.66782307E-02 0.96936851E+02</pdfrwt>
<totfact> 0.88873546E+03</totfact>
</mgrwt>
</event>
<event>
 8    1  0.5224537E-004  0.9759562E+02  0.7546771E-02  0.1285893E+00
         -2   -1    0    0    0  501 -0.00000000000E+00  0.00000000000E+00  0.17578138281E+02  0.17578138281E+02  0.00000000000E+00 0.  1.
          2   -1    0    0  501    0  0.00000000000E+00 -0.00000000000E+00 -0.61725959383E+03  0.61725959383E+03  0.00000000000E+00 0. -1.
         23    2    1    2    0    0 -0.22075549823E+02  0.20967290179E+02 -0.18440683089E+03  0.20824903230E+03  0.91841292551E+02 0.  0.
         23    2    1    2    0    0  0.22075549823E+02 -0.20967290179E+02 -0.41527462466E+03  0.42658869981E+03  0.92725119377E+02 0.  0.
          5    1    4    4  502    0  0.26646093111E+02 -0.45061757632E+02 -0.37853416028E+03  0.38216590217E+03  0.47000000000E+01 0. -1.
         -5    1    3    3    0  503 -0.47377407777E+02  0.41990497542E+02 -0.12401628872E+03  0.13931959847E+03  0.47000000000E+01 0.  1.
          5    1    3    3  503    0  0.25301857954E+02 -0.21023207363E+02 -0.60390542169E+02  0.68929433823E+02  0.47000000000E+01 0. -1.
         -5    1    4    4    0  502 -0.45705432876E+01  0.24094467453E+02 -0.36740464373E+02  0.44422797640E+02  0.47000000000E+01 0.  1.
<mgrwt>
<rscale>  0 0.97385108E+02</rscale>
<asrwt>0</asrwt>
<pdfrwt beam="1">  1        2 0.94963014E-01 0.97595619E+02</pdfrwt>
<pdfrwt beam="2">  1       -2 0.27043290E-02 0.97595619E+02</pdfrwt>
<totfact> 0.22055642E+04</totfact>
</mgrwt>
</event>
<event>
 8    1  0.5224537E-004  0.9480675E+02  0.7546771E-02  0.1298240E+00
         -1   -1    0    0    0  501 -0.00000000000E+00  0.00000000000E+00  0.22413867807E+03  0.22413867807E+03  0.00000000000E+00 0.  1.
          1   -1    0    0  501    0  0.00000000000E+00 -0.00000000000E+00 -0.79145110558E+02  0.79145110558E+02  0.00000000000E+00 0. -1.
         23    2    1    2    0    0  0.22382432305E+02  0.14357283930E+02  0.18690130952E+03  0.20957199298E+03  0.91001186048E+02 0.  0.
         23    2    1    2    0    0 -0.22382432305E+02 -0.14357283930E+02 -0.41907742009E+02  0.93711795650E+02  0.79489225219E+02 0.  0.
          5    1    3    3  502    0 -0.32216793898E+02  0.22248252726E+02  0.76495318034E+02  0.86061200547E+02  0.47000000000E+01 0. -1.
         -5    1    4    4    0  503  0.16543706386E+02  0.23099401074E+02 -0.20794602430E+02  0.35521571491E+02  0.47000000000E+01 0.  1.
          5    1    4    4  503    0 -0.38926138691E+02 -0.37456685004E+02 -0.21113139579E+02  0.58190224159E+02  0.47000000000E+01 0. -1.
         -5    1    3    3    0  502  0.54599226203E+02 -0.78909687967E+01  0.11040599149E+03  0.12351079243E+03  0.47000000000E+01 0.  1.
<mgrwt>
<rscale>  0 0.91931683E+02</rscale>
<asrwt>0</asrwt>
<pdfrwt beam="1">  1        1 0.12176171E-01 0.94806755E+02</pdfrwt>
<pdfrwt beam="2">  1       -1 0.34482873E-01 0.94806755E+02</pdfrwt>
<totfact> 0.37074075E+03</totfact>
</mgrwt>
</event>
<event>
 8    1  0.5224537E-004  0.1014327E+03  0.7546771E-02  0.1278053E+00
          3   -1    0    0  501    0  0.00000000000E+00  0.00000000000E+00  0.10034177793E+03  0.10034177793E+03  0.00000000000E+00 0. -1.
         -3   -1    0    0    0  501 -0.00000000000E+00 -0.00000000000E+00 -0.14353581222E+03  0.14353581222E+03  0.00000000000E+00 0.  1.
         23    2    1    2    0    0 -0.50259490744E+01  0.41002139763E+02 -0.88006226547E+02  0.13428960479E+03  0.92639982802E+02 0.  0.
         23    2    1    2    0    0  0.50259490744E+01 -0.41002139763E+02  0.44812192259E+02  0.10958798537E+03  0.91076661846E+02 0.  0.
          5    1    4    4  502    0  0.29365834476E+02 -0.54113447284E+02  0.64704885730E+01  0.62085220736E+02  0.47000000000E+01 0. -1.
         -5    1    3    3    0  503 -0.47525585562E+02  0.20361470699E+02 -0.32516764545E+02  0.61259291120E+02  0.47000000000E+01 0.  1.
          5    1    3    3  503    0  0.42499636488E+02  0.20640669065E+02 -0.55489462002E+02  0.73030313667E+02  0.47000000000E+01 0. -1.
         -5    1    4    4    0  502 -0.24339885402E+02  0.13111307521E+02  0.38341703686E+02  0.47502764633E+02  0.47000000000E+01 0.  1.
<mgrwt>
<rscale>  0 0.10107441E+03</rscale>
<asrwt>0</asrwt>
<pdfrwt beam="1">  1        3 0.15437197E-01 0.10143275E+03</pdfrwt>
<pdfrwt beam="2">  1       -3 0.22082433E-01 0.10143275E+03</pdfrwt>
<totfact> 0.14495320E+03</totfact>
</mgrwt>
</event>
<event>
 8    1  0.5224537E-004  0.1682763E+03  0.7546771E-02  0.1180163E+00
          2   -1    0    0  501    0  0.00000000000E+00  0.00000000000E+00  0.22180769425E+03  0.22180769425E+03  0.00000000000E+00 0. -1.
         -2   -1    0    0    0  501 -0.00000000000E+00 -0.00000000000E+00 -0.25053002807E+03  0.25053002807E+03  0.00000000000E+00 0.  1.
         23    2    1    2    0    0  0.13627111337E+03 -0.37096823099E+02 -0.18067354422E+03  0.24560865870E+03  0.87947103546E+02 0.  0.
         23    2    1    2    0    0 -0.13627111337E+03  0.37096823099E+02  0.15195121040E+03  0.22672906362E+03  0.91492662682E+02 0.  0.
          5    1    3    3  502    0  0.50028163675E+02 -0.41890408402E+02 -0.12954081339E+03  0.14512248554E+03  0.47000000000E+01 0. -1.
         -5    1    4    4    0  503 -0.95214927633E+02  0.43667478313E+02  0.49280996161E+02  0.11585956020E+03  0.47000000000E+01 0.  1.
          5    1    4    4  503    0 -0.41056185739E+02 -0.65706552139E+01  0.10267021424E+03  0.11086950343E+03  0.47000000000E+01 0. -1.
         -5    1    3    3    0  502  0.86242949698E+02  0.47935853028E+01 -0.51132730827E+02  0.10048617315E+03  0.47000000000E+01 0.  1.
<mgrwt>
<rscale>  0 0.16779895E+03</rscale>
<asrwt>0</asrwt>
<pdfrwt beam="1">  1        2 0.34124261E-01 0.16827625E+03</pdfrwt>
<pdfrwt beam="2">  1       -2 0.38543081E-01 0.16827625E+03</pdfrwt>
<totfact> 0.96605904E+02</totfact>
</mgrwt>
</event>
<event>
 8    1  0.5224537E-004  0.1052785E+03  0.7546771E-02  0.1269984E+00
          3   -1    0    0  501    0  0.00000000000E+00  0.00000000000E+00  0.12460944203E+03  0.12460944203E+03  0.00000000000E+00 0. -1.
         -3   -1    0    0    0  501 -0.00000000000E+00 -0.00000000000E+00 -0.90326883922E+02  0.90326883922E+02  0.00000000000E+00 0.  1.
         23    2    1    2    0    0  0.41946786644E+02 -0.31626808621E+02  0.74818308147E+00  0.10444595991E+03  0.90269656195E+02 0.  0.
         23    2    1    2    0    0 -0.41946786644E+02  0.31626808621E+02  0.33534375025E+02  0.11049036604E+03  0.91234745283E+02 0.  0.
          5    1    3    3  502    0  0.30290634990E+02  0.22969439874E+02  0.22411992024E+02  0.44379106826E+02  0.47000000000E+01 0. -1.
         -5    1    4    4    0  503  0.40146575689E+01  0.51038346150E+02  0.31586218112E+02  0.60339120210E+02  0.47000000000E+01 0.  1.
          5    1    4    4  503    0 -0.45961444213E+02 -0.19411537529E+02  0.19481569138E+01  0.50151245834E+02  0.47000000000E+01 0. -1.
         -5    1    3    3    0  502  0.11656151654E+02 -0.54596248495E+02 -0.21663808942E+02  0.60066853080E+02  0.47000000000E+01 0.  1.
<mgrwt>
<rscale>  0 0.10506909E+03</rscale>
<asrwt>0</asrwt>
<pdfrwt beam="1">  1        3 0.19170683E-01 0.10527852E+03</pdfrwt>
<pdfrwt beam="2">  1       -3 0.13896444E-01 0.10527852E+03</pdfrwt>
<totfact> 0.22364839E+03</totfact>
</mgrwt>
</event>
<event>
 8    1  0.5224537E-004  0.1190000E+03  0.7546771E-02  0.1245422E+00
          1   -1    0    0  501    0  0.00000000000E+00  0.00000000000E+00  0.13503951520E+03  0.13503951520E+03  0.00000000000E+00 0. -1.
         -1   -1    0    0    0  501 -0.00000000000E+00 -0.00000000000E+00 -0.22335868213E+03  0.22335868213E+03  0.00000000000E+00 0.  1.
         23    2    1    2    0    0 -0.74891016063E+02 -0.28613016734E+00  0.86987723297E+02  0.14740373044E+03  0.92478373618E+02 0.  0.
         23    2    1    2    0    0  0.74891016063E+02  0.28613016734E+00 -0.17530689023E+03  0.21099446688E+03  0.90429050282E+02 0.  0.
          5    1    4    4  502    0  0.46625817396E+02  0.27335527281E+02 -0.33378861852E+02  0.63698008746E+02  0.47000000000E+01 0. -1.
         -5    1    3    3    0  503 -0.34834251229E+02  0.45809874070E+02  0.43136368933E+02  0.72075002225E+02  0.47000000000E+01 0.  1.
          5    1    3    3  503    0 -0.40056764834E+02 -0.46096004237E+02  0.43851354364E+02  0.75328728220E+02  0.47000000000E+01 0. -1.
         -5    1    4    4    0  502  0.28265198666E+02 -0.27049397114E+02 -0.14192802838E+03  0.14729645814E+03  0.47000000000E+01 0.  1.
<mgrwt>
<rscale>  0 0.11860161E+03</rscale>
<asrwt>0</asrwt>
<pdfrwt beam="1">  1        1 0.20775310E-01 0.11899998E+03</pdfrwt>
<pdfrwt beam="2">  1       -1 0.34362874E-01 0.11899998E+03</pdfrwt>
<totfact> 0.19048024E+03</totfact>
</mgrwt>
</event>
<event>
 8    1  0.5224537E-004  0.1053186E+03  0.7546771E-02  0.1273151E+00
          2   -1    0    0  501    0  0.00000000000E+00  0.00000000000E+00  0.19042914235E+02  0.19042914235E+02  0.00000000000E+00 0. -1.
         -2   -1    0    0    0  501 -0.00000000000E+00 -0.00000000000E+00 -0.54726190828E+03  0.54726190828E+03  0.00000000000E+00 0.  1.
         23    2    1    2    0    0  0.13825846623E+02  0.33087811081E+02 -0.23123236201E+03  0.25119678870E+03  0.91353511915E+02 0.  0.
         23    2    1    2    0    0 -0.13825846623E+02 -0.33087811081E+02 -0.29698663204E+03  0.31510803382E+03  0.99025532496E+02 0.  0.
          5    1    3    3  502    0 -0.33258982676E+02  0.13151724490E+02 -0.15597168232E+03  0.16008867378E+03  0.47000000000E+01 0. -1.
         -5    1    3    3    0  502  0.47084829300E+02  0.19936086590E+02 -0.75260679681E+02  0.91108114923E+02  0.47000000000E+01 0.  1.
          5    1    4    4  503    0  0.26273958147E+02 -0.53688610257E+02 -0.17313666225E+03  0.18322440221E+03  0.47000000000E+01 0. -1.
         -5    1    4    4    0  503 -0.40099804770E+02  0.20600799177E+02 -0.12384996979E+03  0.13188363161E+03  0.47000000000E+01 0.  1.
<mgrwt>
<rscale>  0 0.10347613E+03</rscale>
<asrwt>0</asrwt>
<pdfrwt beam="1">  1        2 0.29296789E-02 0.10531863E+03</pdfrwt>
<pdfrwt beam="2">  1       -2 0.84194145E-01 0.10531863E+03</pdfrwt>
<totfact> 0.38221776E+03</totfact>
</mgrwt>
</event>
<event>
 8    1  0.5224537E-004  0.1029980E+03  0.7546771E-02  0.1274192E+00
          1   -1    0    0  501    0  0.00000000000E+00  0.00000000000E+00  0.42547052896E+02  0.42547052896E+02  0.00000000000E+00 0. -1.
         -1   -1    0    0    0  501 -0.00000000000E+00 -0.00000000000E+00 -0.26444491174E+03  0.26444491174E+03  0.00000000000E+00 0.  1.
         23    2    1    2    0    0  0.36329129657E+02 -0.41892905829E+02 -0.73740276598E+02  0.12655012869E+03  0.86616888990E+02 0.  0.
         23    2    1    2    0    0 -0.36329129657E+02  0.41892905829E+02 -0.14815758225E+03  0.18044183595E+03  0.86797268173E+02 0.  0.
          5    1    4    4  502    0  0.15106557158E+02  0.48411923255E+02 -0.74303844463E+02  0.90083703767E+02  0.47000000000E+01 0. -1.
         -5    1    4    4    0  502 -0.51435686816E+02 -0.65190174260E+01 -0.73853737785E+02  0.90358132181E+02  0.47000000000E+01 0.  1.
          5    1    3    3  503    0  0.60081943959E+02 -0.24376734579E+02 -0.25558162002E+02  0.69852521955E+02  0.47000000000E+01 0. -1.
         -5    1    3    3    0  503 -0.23752814302E+02 -0.17516171250E+02 -0.48182114596E+02  0.56697606735E+02  0.47000000000E+01 0.  1.
<mgrwt>
<rscale>  0 0.10295998E+03</rscale>
<asrwt>0</asrwt>
<pdfrwt beam="1">  1        1 0.65457004E-02 0.10299800E+03</pdfrwt>
<pdfrwt beam="2">  1       -1 0.40683833E-01 0.10299800E+03</pdfrwt>
<totfact> 0.63705671E+03</totfact>
</mgrwt>
</event>
<event>
 8    1  0.5224537E-004  0.9247921E+02  0.7546771E-02  0.1298849E+00
         -1   -1    0    0    0  501 -0.00000000000E+00  0.00000000000E+00  0.23628329646E+02  0.23628329646E+02  0.00000000000E+00 0.  1.
          1   -1    0    0  501    0  0.00000000000E+00 -0.00000000000E+00 -0.41640999289E+03  0.41640999289E+03  0.00000000000E+00 0. -1.
         23    2    1    2    0    0  0.17865947885E+02 -0.98222355919E+01 -0.28738427788E+03  0.30189754345E+03  0.90203853365E+02 0.  0.
         23    2    1    2    0    0 -0.17865947885E+02  0.98222355919E+01 -0.10539738536E+03  0.13814077909E+03  0.86940195534E+02 0.  0.
          5    1    3    3  502    0 -0.28064881805E+02 -0.25903298177E+02 -0.79249902619E+02  0.88097988128E+02  0.47000000000E+01 0. -1.
         -5    1    4    4    0  503  0.33022548790E+02 -0.73240425423E+01 -0.29998773515E+02  0.45454886868E+02  0.47000000000E+01 0.  1.
          5    1    4    4  503    0 -0.50888496675E+02  0.17146278134E+02 -0.75398611849E+02  0.92685892219E+02  0.47000000000E+01 0. -1.
         -5    1    3    3    0  502  0.45930829689E+02  0.16081062585E+02 -0.20813437526E+03  0.21379955532E+03  0.47000000000E+01 0.  1.
<mgrwt>
<rscale>  0 0.91673626E+02</rscale>
<asrwt>0</asrwt>
<pdfrwt beam="1">  1        1 0.64063069E-01 0.92479206E+02</pdfrwt>
<pdfrwt beam="2">  1       -1 0.36351280E-02 0.92479206E+02</pdfrwt>
<totfact> 0.14859872E+04</totfact>
</mgrwt>
</event>
<event>
 8    1  0.5224537E-004  0.9448064E+02  0.7546771E-02  0.1292785E+00
         -2   -1    0    0    0  501 -0.00000000000E+00  0.00000000000E+00  0.22961774013E+02  0.22961774013E+02  0.00000000000E+00 0.  1.
          2   -1    0    0  501    0  0.00000000000E+00 -0.00000000000E+00 -0.47609157150E+03  0.47609157150E+03  0.00000000000E+00 0. -1.
         23    2    1    2    0    0  0.18823801115E+02  0.15600323651E+02 -0.33459279332E+03  0.34746966299E+03  0.90471673846E+02 0.  0.
         23    2    1    2    0    0 -0.18823801115E+02 -0.15600323651E+02 -0.11853700416E+03  0.15158368252E+03  0.91262729876E+02 0.  0.
          5    1    3    3  502    0  0.39400388307E+02 -0.20485829075E+02 -0.10499469277E+03  0.11409660513E+03  0.47000000000E+01 0. -1.
         -5    1    3    3    0  502 -0.20576587192E+02  0.36086152726E+02 -0.22959810055E+03  0.23337305786E+03  0.47000000000E+01 0.  1.
          5    1    4    4  503    0  0.12017894057E+02 -0.47702301993E+02 -0.68200689658E+02  0.84222107922E+02  0.47000000000E+01 0. -1.
         -5    1    4    4    0  503 -0.30841695173E+02  0.32101978342E+02 -0.50336314506E+02  0.67361574600E+02  0.47000000000E+01 0.  1.
<mgrwt>
<rscale>  0 0.94289086E+02</rscale>
<asrwt>0</asrwt>
<pdfrwt beam="1">  1        2 0.73244849E-01 0.94480641E+02</pdfrwt>
<pdfrwt beam="2">  1       -2 0.35325810E-02 0.94480641E+02</pdfrwt>
<totfact> 0.19814712E+04</totfact>
</mgrwt>
</event>
<event>
 8    1  0.5224537E-004  0.1036122E+03  0.7546771E-02  0.1274060E+00
          2   -1    0    0  501    0  0.00000000000E+00  0.00000000000E+00  0.35023892007E+03  0.35023892007E+03  0.00000000000E+00 0. -1.
         -2   -1    0    0    0  501 -0.00000000000E+00 -0.00000000000E+00 -0.30375066362E+02  0.30375066362E+02  0.00000000000E+00 0.  1.
         23    2    1    2    0    0  0.14254000274E+01  0.47080655630E+02  0.18019293233E+03  0.20670756068E+03  0.89665505531E+02 0.  0.
         23    2    1    2    0    0 -0.14254000274E+01 -0.47080655630E+02  0.13967092137E+03  0.17390642574E+03  0.92286828626E+02 0.  0.
          5    1    4    4  502    0 -0.36942453607E+02 -0.50927219233E+02  0.11172129133E+03  0.12830457308E+03  0.47000000000E+01 0. -1.
         -5    1    3    3    0  503 -0.22727226486E+02  0.66124291981E+02  0.12877468547E+03  0.14660817996E+03  0.47000000000E+01 0.  1.
          5    1    3    3  503    0  0.24152626513E+02 -0.19043636351E+02  0.51418246858E+02  0.60099380720E+02  0.47000000000E+01 0. -1.
         -5    1    4    4    0  502  0.35517053580E+02  0.38465636030E+01  0.27949630043E+02  0.45601852661E+02  0.47000000000E+01 0.  1.
<mgrwt>
<rscale>  0 0.10302524E+03</rscale>
<asrwt>0</asrwt>
<pdfrwt beam="1">  1        2 0.53882908E-01 0.10361215E+03</pdfrwt>
<pdfrwt beam="2">  1       -2 0.46730874E-02 0.10361215E+03</pdfrwt>
<totfact> 0.18323217E+04</totfact>
</mgrwt>
</event>
<event>
 8    1  0.5224537E-004  0.1102740E+03  0.7546771E-02  0.1260314E+00
         -2   -1    0    0    0  501 -0.00000000000E+00  0.00000000000E+00  0.68391703247E+02  0.68391703247E+02  0.00000000000E+00 0.  1.
          2   -1    0    0  501    0  0.00000000000E+00 -0.00000000000E+00 -0.28272417423E+03  0.28272417423E+03  0.00000000000E+00 0. -1.
         23    2    1    2    0    0 -0.51590914366E+02 -0.37576336544E+02  0.59291811496E-01  0.11027404091E+03  0.89926398065E+02 0.  0.
         23    2    1    2    0    0  0.51590914366E+02  0.37576336544E+02 -0.21439176280E+03  0.24084183657E+03  0.89260062602E+02 0.  0.
          5    1    4    4  502    0  0.66504020233E+02 -0.19459552654E+01 -0.14224899898E+03  0.15710964057E+03  0.47000000000E+01 0. -1.
         -5    1    4    4    0  502 -0.14913105867E+02  0.39522291810E+02 -0.72142763816E+02  0.83732196004E+02  0.47000000000E+01 0.  1.
          5    1    3    3  503    0  0.12885029937E+02  0.16776367472E+02 -0.12296700196E+02  0.24915243080E+02  0.47000000000E+01 0. -1.
         -5    1    3    3    0  503 -0.64475944303E+02 -0.54352704017E+02  0.12355992007E+02  0.85358797825E+02  0.47000000000E+01 0.  1.
<mgrwt>
<rscale>  0 0.11013810E+03</rscale>
<asrwt>0</asrwt>
<pdfrwt beam="1">  1        2 0.43496026E-01 0.11027402E+03</pdfrwt>
<pdfrwt beam="2">  1       -2 0.10521801E-01 0.11027402E+03</pdfrwt>
<totfact> 0.66999108E+03</totfact>
</mgrwt>
</event>
<event>
 8    1  0.5224537E-004  0.9172026E+02  0.7546771E-02  0.1299230E+00
         -2   -1    0    0    0  501 -0.00000000000E+00  0.00000000000E+00  0.65595349338E+03  0.65595349338E+03  0.00000000000E+00 0.  1.
          2   -1    0    0  501    0  0.00000000000E+00 -0.00000000000E+00 -0.16295946209E+02  0.16295946209E+02  0.00000000000E+00 0. -1.
         23    2    1    2    0    0  0.74354338453E+00 -0.81733895294E+01  0.47638350409E+03  0.48497686098E+03  0.90520470389E+02 0.  0.
         23    2    1    2    0    0 -0.74354338453E+00  0.81733895294E+01  0.16327404308E+03  0.18727257861E+03  0.91352331130E+02 0.  0.
          5    1    3    3  502    0  0.33715364696E+02  0.24493238549E+02  0.17198119541E+03  0.17702052459E+03  0.47000000000E+01 0. -1.
         -5    1    3    3    0  502 -0.32971821311E+02 -0.32666628079E+02  0.30440230868E+03  0.30795633639E+03  0.47000000000E+01 0.  1.
          5    1    4    4  503    0  0.23615202154E+02  0.13153052951E+02  0.61412427162E+01  0.28115572853E+02  0.47000000000E+01 0. -1.
         -5    1    4    4    0  503 -0.24358745539E+02 -0.49796634219E+01  0.15713280036E+03  0.15915700575E+03  0.47000000000E+01 0.  1.
<mgrwt>
<rscale>  0 0.91512428E+02</rscale>
<asrwt>0</asrwt>
<pdfrwt beam="1">  1        2 0.25070692E-02 0.91720257E+02</pdfrwt>
<pdfrwt beam="2">  1       -2 0.10091590E+00 0.91720257E+02</pdfrwt>
<totfact> 0.30956322E+03</totfact>
</mgrwt>
</event>
<event>
 8    1  0.5224537E-004  0.1268361E+03  0.7546771E-02  0.1232240E+00
         -2   -1    0    0    0  501 -0.00000000000E+00  0.00000000000E+00  0.18904224110E+03  0.18904224110E+03  0.00000000000E+00 0.  1.
          2   -1    0    0  501    0  0.00000000000E+00 -0.00000000000E+00 -0.10936532070E+03  0.10936532070E+03  0.00000000000E+00 0. -1.
         23    2    1    2    0    0  0.38658262321E+02 -0.79454010092E+02  0.11015637693E+03  0.16799350740E+03  0.90994451400E+02 0.  0.
         23    2    1    2    0    0 -0.38658262321E+02  0.79454010092E+02 -0.30479456526E+02  0.13041405440E+03  0.90947387804E+02 0.  0.
          5    1    4    4  502    0 -0.11365107435E+02  0.43614484099E+02  0.30375155319E+02  0.54553908668E+02  0.47000000000E+01 0.  1.
         -5    1    3    3    0  503 -0.14409491931E+01 -0.65149450172E+02  0.10657988004E+03  0.12501155155E+03  0.47000000000E+01 0.  1.
          5    1    3    3  503    0  0.40099211514E+02 -0.14304559920E+02  0.35764968877E+01  0.42981955848E+02  0.47000000000E+01 0. -1.
         -5    1    4    4    0  502 -0.27293154886E+02  0.35839525992E+02 -0.60854611845E+02  0.75860145727E+02  0.47000000000E+01 0. -1.
<mgrwt>
<rscale>  0 0.12682764E+03</rscale>
<asrwt>0</asrwt>
<pdfrwt beam="1">  1        2 0.16825434E-01 0.12683608E+03</pdfrwt>
<pdfrwt beam="2">  1       -2 0.29083422E-01 0.12683608E+03</pdfrwt>
<totfact> 0.35166814E+03</totfact>
</mgrwt>
</event>
<event>
 8    1  0.5224537E-004  0.9933175E+02  0.7546771E-02  0.1282678E+00
         -1   -1    0    0    0  501 -0.00000000000E+00  0.00000000000E+00  0.41182644700E+02  0.41182644700E+02  0.00000000000E+00 0.  1.
          1   -1    0    0  501    0  0.00000000000E+00 -0.00000000000E+00 -0.36995467173E+03  0.36995467173E+03  0.00000000000E+00 0. -1.
         23    2    1    2    0    0  0.46482266961E+01 -0.36327057521E+02 -0.28747037885E+03  0.30356118758E+03  0.90382048934E+02 0.  0.
         23    2    1    2    0    0 -0.46482266961E+01  0.36327057521E+02 -0.41301648174E+02  0.10757612884E+03  0.92333830395E+02 0.  0.
          5    1    4    4  502    0 -0.13121224285E+02 -0.28179500715E+02 -0.25448652637E+02  0.40447184183E+02  0.47000000000E+01 0. -1.
         -5    1    3    3    0  503 -0.16320926505E+01  0.22722321464E+02 -0.23928524499E+02  0.33371123802E+02  0.47000000000E+01 0.  1.
          5    1    3    3  503    0  0.62803193466E+01 -0.59049378985E+02 -0.26354185435E+03  0.27019006378E+03  0.47000000000E+01 0. -1.
         -5    1    4    4    0  502  0.84729975890E+01  0.64506558237E+02 -0.15852995537E+02  0.67128944660E+02  0.47000000000E+01 0.  1.
<mgrwt>
<rscale>  0 0.98875717E+02</rscale>
<asrwt>0</asrwt>
<pdfrwt beam="1">  1        1 0.56916104E-01 0.99331754E+02</pdfrwt>
<pdfrwt beam="2">  1       -1 0.63357914E-02 0.99331754E+02</pdfrwt>
<totfact> 0.76788353E+03</totfact>
</mgrwt>
</event>
<event>
 8    1  0.5224537E-004  0.1146670E+03  0.7546771E-02  0.1253313E+00
         -3   -1    0    0    0  501 -0.00000000000E+00  0.00000000000E+00  0.38860936084E+02  0.38860936084E+02  0.00000000000E+00 0.  1.
          3   -1    0    0  501    0  0.00000000000E+00 -0.00000000000E+00 -0.34410045106E+03  0.34410045106E+03  0.00000000000E+00 0. -1.
         23    2    1    2    0    0 -0.63250710532E+02 -0.26198206994E+01 -0.18867005701E+03  0.21944695499E+03  0.92482754061E+02 0.  0.
         23    2    1    2    0    0  0.63250710532E+02  0.26198206994E+01 -0.11656945796E+03  0.16351443215E+03  0.95608656247E+02 0.  0.
          5    1    3    3  502    0 -0.61882608121E+02  0.34311126359E+02 -0.14906940738E+03  0.16507722071E+03  0.47000000000E+01 0. -1.
         -5    1    4    4    0  503  0.36508164298E+02 -0.34442074548E+02 -0.15902995379E+02  0.52859226457E+02  0.47000000000E+01 0.  1.
          5    1    4    4  503    0  0.26742546234E+02  0.37061895248E+02 -0.10066646258E+03  0.11065520570E+03  0.47000000000E+01 0. -1.
         -5    1    3    3    0  502 -0.13681024107E+01 -0.36930947058E+02 -0.39600649634E+02  0.54369734285E+02  0.47000000000E+01 0.  1.
<mgrwt>
<rscale>  0 0.11401321E+03</rscale>
<asrwt>0</asrwt>
<pdfrwt beam="1">  1        3 0.52938532E-01 0.11466704E+03</pdfrwt>
<pdfrwt beam="2">  1       -3 0.59786054E-02 0.11466704E+03</pdfrwt>
<totfact> 0.13627595E+03</totfact>
</mgrwt>
</event>
<event>
 8    1  0.5224537E-004  0.9117510E+02  0.7546771E-02  0.1301382E+00
         -1   -1    0    0    0  501 -0.00000000000E+00  0.00000000000E+00  0.31143701266E+03  0.31143701266E+03  0.00000000000E+00 0.  1.
          1   -1    0    0  501    0  0.00000000000E+00 -0.00000000000E+00 -0.20294145903E+03  0.20294145903E+03  0.00000000000E+00 0. -1.
         23    2    1    2    0    0  0.12473010413E+02  0.34631000328E+01  0.29428134056E+03  0.30742616567E+03  0.87987333676E+02 0.  0.
         23    2    1    2    0    0 -0.12473010413E+02 -0.34631000328E+01 -0.18578578693E+03  0.20695230602E+03  0.90251478049E+02 0.  0.
          5    1    4    4  502    0 -0.38689130902E+02  0.18749511062E+02 -0.15382813064E+03  0.15979229265E+03  0.47000000000E+01 0. -1.
         -5    1    4    4    0  502  0.26216120489E+02 -0.22212611095E+02 -0.31957656296E+02  0.47160013370E+02  0.47000000000E+01 0. -1.
          5    1    3    3  503    0 -0.28847784801E+02 -0.17841598452E+02  0.65386372736E+02  0.73810467163E+02  0.47000000000E+01 0. -1.
         -5    1    3    3    0  503  0.41320795214E+02  0.21304698485E+02  0.22889496782E+03  0.23361569851E+03  0.47000000000E+01 0.  1.
<mgrwt>
<rscale>  0 0.90609703E+02</rscale>
<asrwt>0</asrwt>
<pdfrwt beam="1">  1        1 0.31221763E-01 0.91175097E+02</pdfrwt>
<pdfrwt beam="2">  1       -1 0.47913387E-01 0.91175097E+02</pdfrwt>
<totfact> 0.63767016E+02</totfact>
</mgrwt>
</event>
<event>
 8    1  0.5224537E-004  0.1245769E+03  0.7546771E-02  0.1235766E+00
          1   -1    0    0  501    0  0.00000000000E+00  0.00000000000E+00  0.27957058825E+03  0.27957058825E+03  0.00000000000E+00 0. -1.
         -1   -1    0    0    0  501 -0.00000000000E+00 -0.00000000000E+00 -0.62812326877E+02  0.62812326877E+02  0.00000000000E+00 0.  1.
         23    2    1    2    0    0 -0.81338324140E+02  0.21125446994E+02  0.16693240768E+03  0.20829267926E+03  0.91963057878E+02 0.  0.
         23    2    1    2    0    0  0.81338324140E+02 -0.21125446994E+02  0.49825853698E+02  0.13409023587E+03  0.91844260437E+02 0.  0.
          5    1    4    4  502    0  0.36189602325E+02  0.29754308810E+02 -0.39490756106E+01  0.47251364080E+02  0.47000000000E+01 0. -1.
         -5    1    4    4    0  502  0.45148721815E+02 -0.50879755805E+02  0.53774929309E+02  0.86838871794E+02  0.47000000000E+01 0.  1.
          5    1    3    3  503    0 -0.77527238248E+02 -0.15537467435E+02  0.14478195843E+03  0.16503269692E+03  0.47000000000E+01 0. -1.
         -5    1    3    3    0  503 -0.38110858920E+01  0.36662914429E+02  0.22150449245E+02  0.43259982338E+02  0.47000000000E+01 0.  1.
<mgrwt>
<rscale>  0 0.12455501E+03</rscale>
<asrwt>0</asrwt>
<pdfrwt beam="1">  1        1 0.43010859E-01 0.12457693E+03</pdfrwt>
<pdfrwt beam="2">  1       -1 0.96634350E-02 0.12457693E+03</pdfrwt>
<totfact> 0.58528258E+03</totfact>
</mgrwt>
</event>
<event>
 8    1  0.5224537E-004  0.1349553E+03  0.7546771E-02  0.1220686E+00
         -1   -1    0    0    0  501 -0.00000000000E+00  0.00000000000E+00  0.90250756355E+02  0.90250756355E+02  0.00000000000E+00 0.  1.
          1   -1    0    0  501    0  0.00000000000E+00 -0.00000000000E+00 -0.22922833626E+03  0.22922833626E+03  0.00000000000E+00 0. -1.
         23    2    1    2    0    0 -0.68338586082E+02  0.70232101207E+02 -0.12812061180E+02  0.13556214281E+03  0.92791353396E+02 0.  0.
         23    2    1    2    0    0  0.68338586082E+02 -0.70232101207E+02 -0.12616551872E+03  0.18391694980E+03  0.91131750342E+02 0.  0.
          5    1    3    3  502    0 -0.36206717922E+02 -0.79711143846E+01 -0.31466871201E+02  0.48854058893E+02  0.47000000000E+01 0. -1.
         -5    1    3    3    0  502 -0.32131868160E+02  0.78203215592E+02  0.18654810021E+02  0.86708083921E+02  0.47000000000E+01 0.  1.
          5    1    4    4  503    0 -0.33037402702E+00 -0.62506100827E+02 -0.44706332974E+02  0.76992648971E+02  0.47000000000E+01 0. -1.
         -5    1    4    4    0  503  0.68668960109E+02 -0.77260003800E+01 -0.81459185746E+02  0.10692430082E+03  0.47000000000E+01 0.  1.
<mgrwt>
<rscale>  0 0.13467053E+03</rscale>
<asrwt>0</asrwt>
<pdfrwt beam="1">  1        1 0.35265898E-01 0.13495535E+03</pdfrwt>
<pdfrwt beam="2">  1       -1 0.13884732E-01 0.13495535E+03</pdfrwt>
<totfact> 0.43034890E+03</totfact>
</mgrwt>
</event>
<event>
 8    1  0.5224537E-004  0.9377113E+02  0.7546771E-02  0.1294171E+00
          1   -1    0    0  501    0  0.00000000000E+00  0.00000000000E+00  0.95999834399E+02  0.95999834399E+02  0.00000000000E+00 0. -1.
         -1   -1    0    0    0  501 -0.00000000000E+00 -0.00000000000E+00 -0.30729639570E+03  0.30729639570E+03  0.00000000000E+00 0.  1.
         23    2    1    2    0    0  0.12286148694E+02  0.22541555015E+02 -0.27466799511E+03  0.29011953575E+03  0.89820745573E+02 0.  0.
         23    2    1    2    0    0 -0.12286148694E+02 -0.22541555015E+02  0.63371433804E+02  0.11317669435E+03  0.90188438115E+02 0.  0.
          5    1    3    3  502    0 -0.17177746289E+02 -0.18626796504E+02 -0.27148611943E+02  0.37432200657E+02  0.47000000000E+01 0. -1.
         -5    1    4    4    0  503  0.20614848100E+02 -0.47616645634E+02  0.36820450844E+02  0.63797746856E+02  0.47000000000E+01 0.  1.
          5    1    4    4  503    0 -0.32900996793E+02  0.25075090619E+02  0.26550982960E+02  0.49378947495E+02  0.47000000000E+01 0. -1.
         -5    1    3    3    0  502  0.29463894983E+02  0.41168351520E+02 -0.24751938316E+03  0.25268733509E+03  0.47000000000E+01 0.  1.
<mgrwt>
<rscale>  0 0.93682611E+02</rscale>
<asrwt>0</asrwt>
<pdfrwt beam="1">  1        1 0.14769205E-01 0.93771134E+02</pdfrwt>
<pdfrwt beam="2">  1       -1 0.47276369E-01 0.93771134E+02</pdfrwt>
<totfact> 0.16683952E+03</totfact>
</mgrwt>
</event>
<event>
 8    1  0.5224537E-004  0.1099876E+03  0.7546771E-02  0.1260852E+00
          2   -1    0    0  501    0  0.00000000000E+00  0.00000000000E+00  0.41397281852E+03  0.41397281852E+03  0.00000000000E+00 0. -1.
         -2   -1    0    0    0  501 -0.00000000000E+00 -0.00000000000E+00 -0.35201338865E+02  0.35201338865E+02  0.00000000000E+00 0.  1.
         23    2    1    2    0    0 -0.47639892857E+02 -0.33075800295E+02  0.95287341217E+02  0.14510092617E+03  0.92795654111E+02 0.  0.
         23    2    1    2    0    0  0.47639892857E+02  0.33075800295E+02  0.28348413844E+03  0.30407323122E+03  0.93454294929E+02 0.  0.
          5    1    4    4  502    0  0.33710307102E+02  0.65140564078E+02  0.16930928545E+03  0.18457356807E+03  0.47000000000E+01 0. -1.
         -5    1    3    3    0  503  0.17553120080E+02 -0.14745270828E+02 -0.50664392580E+01  0.23943555356E+02  0.47000000000E+01 0.  1.
          5    1    3    3  503    0 -0.65193012937E+02 -0.18330529467E+02  0.10035378048E+03  0.12115737081E+03  0.47000000000E+01 0. -1.
         -5    1    4    4    0  502  0.13929585756E+02 -0.32064763783E+02  0.11417485299E+03  0.11949966314E+03  0.47000000000E+01 0.  1.
<mgrwt>
<rscale>  0 0.10984757E+03</rscale>
<asrwt>0</asrwt>
<pdfrwt beam="1">  1        2 0.63688122E-01 0.10998760E+03</pdfrwt>
<pdfrwt beam="2">  1       -2 0.54155909E-02 0.10998760E+03</pdfrwt>
<totfact> 0.12388813E+04</totfact>
</mgrwt>
</event>
<event>
 8    1  0.7118787E-004  0.1177646E+03  0.7546771E-02  0.1247969E+00
          1   -1    0    0  501    0  0.00000000000E+00  0.00000000000E+00  0.33345228229E+03  0.33345228229E+03  0.00000000000E+00 0. -1.
         -1   -1    0    0    0  501 -0.00000000000E+00 -0.00000000000E+00 -0.85471368627E+02  0.85471368627E+02  0.00000000000E+00 0.  1.
         23    2    1    2    0    0  0.28800893184E+02  0.65014882430E+02  0.27498318561E+03  0.29810301299E+03  0.90516449332E+02 0.  0.
         23    2    1    2    0    0 -0.28800893184E+02 -0.65014882430E+02 -0.27002271950E+02  0.12082063792E+03  0.93872666269E+02 0.  0.
          5    1    4    4  502    0  0.23657796689E+02 -0.10824510221E+02  0.18813322630E+02  0.32448304641E+02  0.47000000000E+01 0. -1.
         -5    1    4    4    0  502 -0.52458689873E+02 -0.54190372209E+02 -0.45815594579E+02  0.88372333284E+02  0.47000000000E+01 0.  1.
          5    1    3    3  503    0  0.35583836365E+02  0.85658849436E+02  0.22174322707E+03  0.24040756362E+03  0.47000000000E+01 0. -1.
         -5    1    3    3    0  503 -0.67829431804E+01 -0.20643967006E+02  0.53239958542E+02  0.57695449366E+02  0.47000000000E+01 0.  1.
<mgrwt>
<rscale>  0 0.11709455E+03</rscale>
<asrwt>0</asrwt>
<pdfrwt beam="1">  1        1 0.51300350E-01 0.11776461E+03</pdfrwt>
<pdfrwt beam="2">  1       -1 0.13149442E-01 0.11776461E+03</pdfrwt>
<totfact> 0.29276698E+03</totfact>
</mgrwt>
</event>
<event>
 8    1  0.5224537E-004  0.1045219E+03  0.7546771E-02  0.1275969E+00
          4   -1    0    0  501    0  0.00000000000E+00  0.00000000000E+00  0.31305294221E+03  0.31305294221E+03  0.00000000000E+00 0. -1.
         -4   -1    0    0    0  501 -0.00000000000E+00 -0.00000000000E+00 -0.35178505886E+02  0.35178505886E+02  0.00000000000E+00 0.  1.
         23    2    1    2    0    0  0.86595015807E+01 -0.51278480902E+02  0.18669966529E+03  0.20953153506E+03  0.79638116454E+02 0.  0.
         23    2    1    2    0    0 -0.86595015807E+01  0.51278480902E+02  0.91174771027E+02  0.13869991303E+03  0.90666186820E+02 0.  0.
          5    1    3    3  502    0  0.31706446684E+02 -0.61399419914E+02  0.12940354659E+03  0.14677382395E+03  0.47000000000E+01 0. -1.
         -5    1    4    4    0  503 -0.46118447651E+02  0.47704236376E+02  0.60692590908E+02  0.90046021418E+02  0.47000000000E+01 0.  1.
          5    1    4    4  503    0  0.37458946070E+02  0.35742445261E+01  0.30482180119E+02  0.48653891616E+02  0.47000000000E+01 0. -1.
         -5    1    3    3    0  502 -0.23046945104E+02  0.10120939012E+02  0.57296118704E+02  0.62757711109E+02  0.47000000000E+01 0.  1.
<mgrwt>
<rscale>  0 0.10208613E+03</rscale>
<asrwt>0</asrwt>
<pdfrwt beam="1">  1        4 0.48161989E-01 0.10452190E+03</pdfrwt>
<pdfrwt beam="2">  1       -4 0.54120780E-02 0.10452190E+03</pdfrwt>
<totfact> 0.13657684E+03</totfact>
</mgrwt>
</event>
<event>
 8    1  0.5224537E-004  0.1127659E+03  0.7546771E-02  0.1257047E+00
         -2   -1    0    0    0  501 -0.00000000000E+00  0.00000000000E+00  0.88921243286E+01  0.88921243286E+01  0.00000000000E+00 0.  1.
          2   -1    0    0  501    0  0.00000000000E+00 -0.00000000000E+00 -0.14020267603E+04  0.14020267603E+04  0.00000000000E+00 0. -1.
         23    2    1    2    0    0 -0.69229519605E+01  0.53913571617E+02 -0.77704310995E+03  0.78518287786E+03  0.98800589551E+02 0.  0.
         23    2    1    2    0    0  0.69229519605E+01 -0.53913571617E+02 -0.61609152599E+03  0.62573600674E+03  0.94985163379E+02 0.  0.
          5    1    3    3  502    0 -0.49837046818E+02  0.10392538963E+02 -0.32325124842E+03  0.32726930151E+03  0.47000000000E+01 0. -1.
         -5    1    3    3    0  502  0.42914094857E+02  0.43521032654E+02 -0.45379186153E+03  0.45791357635E+03  0.47000000000E+01 0.  1.
          5    1    4    4  503    0  0.12548209283E+02 -0.80011382310E+02 -0.49868936010E+03  0.50524493737E+03  0.47000000000E+01 0. -1.
         -5    1    4    4    0  503 -0.56252573220E+01  0.26097810693E+02 -0.11740216589E+03  0.12049106937E+03  0.47000000000E+01 0.  1.
<mgrwt>
<rscale>  0 0.11192471E+03</rscale>
<asrwt>0</asrwt>
<pdfrwt beam="1">  1        2 0.21569632E+00 0.11276594E+03</pdfrwt>
<pdfrwt beam="2">  1       -2 0.13680198E-02 0.11276594E+03</pdfrwt>
<totfact> 0.19792390E+04</totfact>
</mgrwt>
</event>
<event>
 8    1  0.5224537E-004  0.2033183E+03  0.7546771E-02  0.1147081E+00
         -1   -1    0    0    0  501 -0.00000000000E+00  0.00000000000E+00  0.27585424725E+02  0.27585424725E+02  0.00000000000E+00 0.  1.
          1   -1    0    0  501    0  0.00000000000E+00 -0.00000000000E+00 -0.14946195058E+04  0.14946195058E+04  0.00000000000E+00 0. -1.
         23    2    1    2    0    0  0.60728041993E+02  0.17028531887E+03 -0.73785168259E+03  0.76535183584E+03  0.93023342297E+02 0.  0.
         23    2    1    2    0    0 -0.60728041993E+02 -0.17028531887E+03 -0.72918239846E+03  0.75685309466E+03  0.91840360242E+02 0.  0.
          5    1    3    3  502    0 -0.13148437739E+02  0.20317028984E+02 -0.21487346308E+03  0.21628305116E+03  0.47000000000E+01 0. -1.
         -5    1    4    4    0  503 -0.38460627906E+02 -0.15881953644E+02 -0.96298332561E+02  0.10500911963E+03  0.47000000000E+01 0.  1.
          5    1    4    4  503    0 -0.22267414087E+02 -0.15440336523E+03 -0.63288406590E+03  0.65184397504E+03  0.47000000000E+01 0. -1.
         -5    1    3    3    0  502  0.73876479731E+02  0.14996828989E+03 -0.52297821951E+03  0.54906878468E+03  0.47000000000E+01 0.  1.
<mgrwt>
<rscale>  0 0.20318353E+03</rscale>
<asrwt>0</asrwt>
<pdfrwt beam="1">  1        1 0.22994149E+00 0.20331829E+03</pdfrwt>
<pdfrwt beam="2">  1       -1 0.42439110E-02 0.20331829E+03</pdfrwt>
<totfact> 0.16268864E+03</totfact>
</mgrwt>
</event>
<event>
 8    1  0.5224537E-004  0.1221070E+03  0.7546771E-02  0.1243451E+00
          1   -1    0    0  501    0  0.00000000000E+00  0.00000000000E+00  0.14010145481E+03  0.14010145481E+03  0.00000000000E+00 0. -1.
         -1   -1    0    0    0  501 -0.00000000000E+00 -0.00000000000E+00 -0.10020123522E+03  0.10020123522E+03  0.00000000000E+00 0.  1.
         23    2    1    2    0    0  0.27685123685E+02 -0.54106862997E+02  0.45250444550E+01  0.11317475478E+03  0.95362625773E+02 0.  0.
         23    2    1    2    0    0 -0.27685123685E+02  0.54106862997E+02  0.35375175132E+02  0.12712793525E+03  0.10590604425E+03 0.  0.
          5    1    3    3  502    0  0.55965940629E+02 -0.69372853487E+01 -0.62521379741E+01  0.56934099341E+02  0.47000000000E+01 0. -1.
         -5    1    3    3    0  502 -0.28280816944E+02 -0.47169577648E+02  0.10777182429E+02  0.56240655434E+02  0.47000000000E+01 0.  1.
          5    1    4    4  503    0 -0.24869852162E+01  0.50512732614E+02  0.68382663844E+02  0.85182157557E+02  0.47000000000E+01 0. -1.
         -5    1    4    4    0  503 -0.25198138469E+02  0.35941303828E+01 -0.33007488712E+02  0.41945777697E+02  0.47000000000E+01 0.  1.
<mgrwt>
<rscale>  0 0.11978594E+03</rscale>
<asrwt>0</asrwt>
<pdfrwt beam="1">  1        1 0.21554070E-01 0.12210696E+03</pdfrwt>
<pdfrwt beam="2">  1       -1 0.15415575E-01 0.12210696E+03</pdfrwt>
<totfact> 0.67116097E+03</totfact>
</mgrwt>
</event>
<event>
 8    1  0.5224537E-004  0.1453726E+03  0.7546771E-02  0.1206659E+00
         -1   -1    0    0    0  501 -0.00000000000E+00  0.00000000000E+00  0.50889537450E+02  0.50889537450E+02  0.00000000000E+00 0.  1.
          1   -1    0    0  501    0  0.00000000000E+00 -0.00000000000E+00 -0.50265064312E+03  0.50265064312E+03  0.00000000000E+00 0. -1.
         23    2    1    2    0    0  0.59862428061E+02 -0.96595015125E+02 -0.34424545524E+03  0.37368185111E+03  0.90659170291E+02 0.  0.
         23    2    1    2    0    0 -0.59862428061E+02  0.96595015125E+02 -0.10751565043E+03  0.17985832946E+03  0.88742866461E+02 0.  0.
          5    1    3    3  502    0  0.28739808661E+02  0.10792385122E+02 -0.49825337111E+02  0.58712063468E+02  0.47000000000E+01 0. -1.
         -5    1    3    3    0  502  0.31122619400E+02 -0.10738740025E+03 -0.29442011813E+03  0.31496978764E+03  0.47000000000E+01 0.  1.
          5    1    4    4  503    0  0.23157001728E+02  0.25641459765E+02 -0.25274841729E+02  0.43065517672E+02  0.47000000000E+01 0. -1.
         -5    1    4    4    0  503 -0.83019429789E+02  0.70953555360E+02 -0.82240808705E+02  0.13679281179E+03  0.47000000000E+01 0.  1.
<mgrwt>
<rscale>  0 0.14507486E+03</rscale>
<asrwt>0</asrwt>
<pdfrwt beam="1">  1        1 0.77330866E-01 0.14537260E+03</pdfrwt>
<pdfrwt beam="2">  1       -1 0.78291599E-02 0.14537260E+03</pdfrwt>
<totfact> 0.38793366E+03</totfact>
</mgrwt>
</event>
<event>
 8    1  0.5224537E-004  0.1482384E+03  0.7546771E-02  0.1202834E+00
         -1   -1    0    0    0  501 -0.00000000000E+00  0.00000000000E+00  0.17860678853E+03  0.17860678853E+03  0.00000000000E+00 0.  1.
          1   -1    0    0  501    0  0.00000000000E+00 -0.00000000000E+00 -0.42610014554E+03  0.42610014554E+03  0.00000000000E+00 0. -1.
         23    2    1    2    0    0  0.11341850887E+03  0.26779775591E+02  0.13137708166E+03  0.19807715024E+03  0.91617167208E+02 0.  0.
         23    2    1    2    0    0 -0.11341850887E+03 -0.26779775591E+02 -0.37887043867E+03  0.40662978383E+03  0.90686588098E+02 0.  0.
          5    1    3    3  502    0  0.27296999748E+02 -0.30958853303E+02  0.20936010705E+02  0.46518634302E+02  0.47000000000E+01 0. -1.
         -5    1    3    3    0  502  0.86121509126E+02  0.57738628894E+02  0.11044107096E+03  0.15155851594E+03  0.47000000000E+01 0.  1.
          5    1    4    4  503    0 -0.59823395341E+02  0.28079817024E+02 -0.22636018703E+03  0.23585660691E+03  0.47000000000E+01 0. -1.
         -5    1    4    4    0  503 -0.53595113533E+02 -0.54859592614E+02 -0.15251025164E+03  0.17077317691E+03  0.47000000000E+01 0.  1.
<mgrwt>
<rscale>  0 0.14809485E+03</rscale>
<asrwt>0</asrwt>
<pdfrwt beam="1">  1        1 0.65553868E-01 0.14823839E+03</pdfrwt>
<pdfrwt beam="2">  1       -1 0.27477968E-01 0.14823839E+03</pdfrwt>
<totfact> 0.66574779E+02</totfact>
</mgrwt>
</event>
<event>
 8    1  0.5224537E-004  0.9801160E+02  0.7546771E-02  0.1287655E+00
         -1   -1    0    0    0  501 -0.00000000000E+00  0.00000000000E+00  0.84452390509E+02  0.84452390509E+02  0.00000000000E+00 0.  1.
          1   -1    0    0  501    0  0.00000000000E+00 -0.00000000000E+00 -0.11234279542E+03  0.11234279542E+03  0.00000000000E+00 0. -1.
         23    2    1    2    0    0  0.72184440781E+01 -0.38861154692E+01  0.71968598742E+01  0.92692398036E+02  0.92048237535E+02 0.  0.
         23    2    1    2    0    0 -0.72184440781E+01  0.38861154692E+01 -0.35087264783E+02  0.10410278789E+03  0.97668144593E+02 0.  0.
          5    1    4    4  502    0 -0.32575223583E+02  0.41129526109E+02 -0.20232998214E+02  0.56429135437E+02  0.47000000000E+01 0. -1.
         -5    1    3    3    0  503 -0.14931131639E+02 -0.43601811555E+02  0.77607299625E+01  0.46972072474E+02  0.47000000000E+01 0.  1.
          5    1    3    3  503    0  0.22149575717E+02  0.39715696086E+02 -0.56387008833E+00  0.45720325562E+02  0.47000000000E+01 0. -1.
         -5    1    4    4    0  502  0.25356779505E+02 -0.37243410640E+02 -0.14854266569E+02  0.47673652454E+02  0.47000000000E+01 0.  1.
<mgrwt>
<rscale>  0 0.96580822E+02</rscale>
<asrwt>0</asrwt>
<pdfrwt beam="1">  1        1 0.17283507E-01 0.98011603E+02</pdfrwt>
<pdfrwt beam="2">  1       -1 0.12992675E-01 0.98011603E+02</pdfrwt>
<totfact> 0.11362826E+04</totfact>
</mgrwt>
</event>
<event>
 8    1  0.5224537E-004  0.1029402E+03  0.7546771E-02  0.1276314E+00
          1   -1    0    0  501    0  0.00000000000E+00  0.00000000000E+00  0.55360074394E+03  0.55360074394E+03  0.00000000000E+00 0. -1.
         -1   -1    0    0    0  501 -0.00000000000E+00 -0.00000000000E+00 -0.22232524385E+02  0.22232524385E+02  0.00000000000E+00 0.  1.
         23    2    1    2    0    0  0.18692636253E+02 -0.43053284339E+02  0.14177015557E+03  0.17286511284E+03  0.87066470501E+02 0.  0.
         23    2    1    2    0    0 -0.18692636253E+02  0.43053284339E+02  0.38959806398E+03  0.40296815548E+03  0.91617044974E+02 0.  0.
          5    1    4    4  502    0  0.15530019416E+02  0.51000160530E+02  0.32414371506E+03  0.32853224482E+03  0.47000000000E+01 0. -1.
         -5    1    3    3    0  503 -0.21295730273E+02 -0.37516438619E+02  0.26993439440E+02  0.51105059117E+02  0.47000000000E+01 0.  1.
          5    1    3    3  503    0  0.39988366526E+02 -0.55368457206E+01  0.11477671613E+03  0.12176005373E+03  0.47000000000E+01 0. -1.
         -5    1    4    4    0  502 -0.34222655669E+02 -0.79468761903E+01  0.65454348924E+02  0.74435910657E+02  0.47000000000E+01 0.  1.
<mgrwt>
<rscale>  0 0.10191800E+03</rscale>
<asrwt>0</asrwt>
<pdfrwt beam="1">  1        1 0.85169335E-01 0.10294019E+03</pdfrwt>
<pdfrwt beam="2">  1       -1 0.34203888E-02 0.10294019E+03</pdfrwt>
<totfact> 0.11377119E+04</totfact>
</mgrwt>
</event>
<event>
 8    1  0.5224537E-004  0.1074214E+03  0.7546771E-02  0.1266530E+00
         -1   -1    0    0    0  501 -0.00000000000E+00  0.00000000000E+00  0.10401670042E+02  0.10401670042E+02  0.00000000000E+00 0.  1.
          1   -1    0    0  501    0  0.00000000000E+00 -0.00000000000E+00 -0.11575324823E+04  0.11575324823E+04  0.00000000000E+00 0. -1.
         23    2    1    2    0    0  0.36935515811E+02  0.37889474374E+02 -0.43401669646E+03  0.44711280349E+03  0.93485408729E+02 0.  0.
         23    2    1    2    0    0 -0.36935515811E+02 -0.37889474374E+02 -0.71311411576E+03  0.72082134881E+03  0.90839585024E+02 0.  0.
          5    1    4    4  502    0 -0.52439356733E+02  0.95691354834E+01 -0.30783437984E+03  0.31245087598E+03  0.47000000000E+01 0.  1.
         -5    1    4    4    0  502  0.15503840922E+02 -0.47458609857E+02 -0.40527973592E+03  0.40837047283E+03  0.47000000000E+01 0. -1.
          5    1    3    3  503    0  0.23512799392E+02 -0.29624673242E+02 -0.13846382841E+03  0.14361335167E+03  0.47000000000E+01 0. -1.
         -5    1    3    3    0  503  0.13422716419E+02  0.67514147617E+02 -0.29555286805E+03  0.30349945182E+03  0.47000000000E+01 0.  1.
<mgrwt>
<rscale>  0 0.10684317E+03</rscale>
<asrwt>0</asrwt>
<pdfrwt beam="1">  1        1 0.17808205E+00 0.10742144E+03</pdfrwt>
<pdfrwt beam="2">  1       -1 0.16002558E-02 0.10742144E+03</pdfrwt>
<totfact> 0.11098263E+04</totfact>
</mgrwt>
</event>
<event>
 8    1  0.5224537E-004  0.1391175E+03  0.7546771E-02  0.1214844E+00
         -2   -1    0    0    0  501 -0.00000000000E+00  0.00000000000E+00  0.36474444244E+03  0.36474444244E+03  0.00000000000E+00 0.  1.
          2   -1    0    0  501    0  0.00000000000E+00 -0.00000000000E+00 -0.53938300835E+02  0.53938300835E+02  0.00000000000E+00 0. -1.
         23    2    1    2    0    0  0.84528781944E+01  0.10538996764E+03  0.12420583639E+03  0.18649599758E+03  0.90416651636E+02 0.  0.
         23    2    1    2    0    0 -0.84528781944E+01 -0.10538996764E+03  0.18660030522E+03  0.23218674569E+03  0.88952316105E+02 0.  0.
          5    1    3    3  502    0 -0.13279010607E+02  0.76435616963E+02  0.26375401632E+02  0.82076107817E+02  0.47000000000E+01 0. -1.
         -5    1    3    3    0  502  0.21731888801E+02  0.28954350675E+02  0.97830434759E+02  0.10441988977E+03  0.47000000000E+01 0.  1.
          5    1    4    4  503    0 -0.20635658985E+02 -0.45657452736E+02  0.15579633147E+03  0.16372238794E+03  0.47000000000E+01 0. -1.
         -5    1    4    4    0  503  0.12182780790E+02 -0.59732514902E+02  0.30803973743E+02  0.68464357754E+02  0.47000000000E+01 0.  1.
<mgrwt>
<rscale>  0 0.13888004E+03</rscale>
<asrwt>0</asrwt>
<pdfrwt beam="1">  1        2 0.82982003E-02 0.13911746E+03</pdfrwt>
<pdfrwt beam="2">  1       -2 0.56114528E-01 0.13911746E+03</pdfrwt>
<totfact> 0.23753702E+03</totfact>
</mgrwt>
</event>
<event>
 8    1  0.5224537E-004  0.1034794E+03  0.7546771E-02  0.1274183E+00
          1   -1    0    0  501    0  0.00000000000E+00  0.00000000000E+00  0.24665659953E+02  0.24665659953E+02  0.00000000000E+00 0. -1.
         -1   -1    0    0    0  501 -0.00000000000E+00 -0.00000000000E+00 -0.43099653928E+03  0.43099653928E+03  0.00000000000E+00 0.  1.
         23    2    1    2    0    0  0.45547806780E+02  0.15888836443E+02 -0.23068303507E+03  0.25282930636E+03  0.91547461245E+02 0.  0.
         23    2    1    2    0    0 -0.45547806780E+02 -0.15888836443E+02 -0.17564784426E+03  0.20283289287E+03  0.89229812351E+02 0.  0.
          5    1    4    4  502    0 -0.71798246602E+02 -0.11192936900E+02 -0.14253478094E+03  0.16005787650E+03  0.47000000000E+01 0. -1.
         -5    1    4    4    0  502  0.26250439823E+02 -0.46958995430E+01 -0.33113063318E+02  0.42775016373E+02  0.47000000000E+01 0.  1.
          5    1    3    3  503    0 -0.19155861817E+02  0.24010290997E+02 -0.36500776613E+02  0.47935767534E+02  0.47000000000E+01 0. -1.
         -5    1    3    3    0  503  0.64703668597E+02 -0.81214545538E+01 -0.19418225846E+03  0.20489353883E+03  0.47000000000E+01 0.  1.
<mgrwt>
<rscale>  0 0.10296445E+03</rscale>
<asrwt>0</asrwt>
<pdfrwt beam="1">  1        1 0.37947170E-02 0.10347944E+03</pdfrwt>
<pdfrwt beam="2">  1       -1 0.66307159E-01 0.10347944E+03</pdfrwt>
<totfact> 0.54563056E+03</totfact>
</mgrwt>
</event>
<event>
 8    1  0.5224537E-004  0.9359947E+02  0.7546771E-02  0.1294435E+00
          2   -1    0    0  501    0  0.00000000000E+00  0.00000000000E+00  0.97527898332E+02  0.97527898332E+02  0.00000000000E+00 0. -1.
         -2   -1    0    0    0  501 -0.00000000000E+00 -0.00000000000E+00 -0.10862420675E+03  0.10862420675E+03  0.00000000000E+00 0.  1.
         23    2    1    2    0    0 -0.21052683956E+02  0.10560836877E+02  0.37464084312E+02  0.10081874171E+03  0.90587605608E+02 0.  0.
         23    2    1    2    0    0  0.21052683956E+02 -0.10560836877E+02 -0.48560392733E+02  0.10533336337E+03  0.90455839610E+02 0.  0.
          5    1    4    4  502    0  0.35498238076E+02 -0.30130399673E+02  0.42603812473E+01  0.46991560299E+02  0.47000000000E+01 0. -1.
         -5    1    4    4    0  502 -0.14445554121E+02  0.19569562796E+02 -0.52820773981E+02  0.58341803073E+02  0.47000000000E+01 0.  1.
          5    1    3    3  503    0 -0.14380274277E+02  0.29877807186E+02 -0.20439770193E+02  0.39234549265E+02  0.47000000000E+01 0. -1.
         -5    1    3    3    0  503 -0.66724096789E+01 -0.19316970309E+02  0.57903854505E+02  0.61584192447E+02  0.47000000000E+01 0.  1.
<mgrwt>
<rscale>  0 0.93567575E+02</rscale>
<asrwt>0</asrwt>
<pdfrwt beam="1">  1        2 0.15004292E-01 0.93599472E+02</pdfrwt>
<pdfrwt beam="2">  1       -2 0.16711416E-01 0.93599472E+02</pdfrwt>
<totfact> 0.10105819E+04</totfact>
</mgrwt>
</event>
<event>
 8    1  0.5224537E-004  0.1895780E+03  0.7546771E-02  0.1160836E+00
          1   -1    0    0  501    0  0.00000000000E+00  0.00000000000E+00  0.54245884721E+03  0.54245884721E+03  0.00000000000E+00 0. -1.
         -1   -1    0    0    0  501 -0.00000000000E+00 -0.00000000000E+00 -0.63961903713E+02  0.63961903713E+02  0.00000000000E+00 0.  1.
         23    2    1    2    0    0 -0.14811884774E+03 -0.53308148229E+02  0.26498630533E+03  0.32089206883E+03  0.89291803106E+02 0.  0.
         23    2    1    2    0    0  0.14811884774E+03  0.53308148229E+02  0.21351063817E+03  0.28552868209E+03  0.10563561882E+03 0.  0.
          5    1    3    3  502    0 -0.57536160933E+02 -0.59965751350E+02  0.83546877714E+02  0.11793418472E+03  0.47000000000E+01 0. -1.
         -5    1    3    3    0  502 -0.90582686807E+02  0.66576031219E+01  0.18143942761E+03  0.20295788411E+03  0.47000000000E+01 0.  1.
          5    1    4    4  503    0  0.12045920895E+03  0.36494853478E+02  0.21873363394E+03  0.25240599828E+03  0.47000000000E+01 0. -1.
         -5    1    4    4    0  503  0.27659638791E+02  0.16813294751E+02 -0.52229957696E+01  0.33122683817E+02  0.47000000000E+01 0.  1.
<mgrwt>
<rscale>  0 0.18739113E+03</rscale>
<asrwt>0</asrwt>
<pdfrwt beam="1">  1        1 0.83455204E-01 0.18957805E+03</pdfrwt>
<pdfrwt beam="2">  1       -1 0.98402932E-02 0.18957805E+03</pdfrwt>
<totfact> 0.24988699E+03</totfact>
</mgrwt>
</event>
<event>
 7    1  0.5224537E-004  0.2514936E+03  0.7546771E-02  0.1118560E+00
         -3   -1    0    0    0  501 -0.00000000000E+00  0.00000000000E+00  0.46255365334E+03  0.46255365334E+03  0.00000000000E+00 0.  1.
          3   -1    0    0  501    0  0.00000000000E+00 -0.00000000000E+00 -0.11792371278E+03  0.11792371278E+03  0.00000000000E+00 0. -1.
         23    2    1    2    0    0 -0.17848755502E+03 -0.78067090012E+02  0.14566634443E+03  0.25979754498E+03  0.91234876199E+02 0.  0.
          5    1    1    2  502    0  0.94323965750E+02  0.53846965381E+02  0.20575759075E+03  0.23271180104E+03  0.47000000000E+01 0. -1.
         -5    1    1    2    0  502  0.84163589272E+02  0.24220124631E+02 -0.67939946138E+01  0.87968020093E+02  0.47000000000E+01 0.  1.
          5    1    3    3  503    0 -0.26631760625E+02 -0.42323231255E+02  0.64204309207E+01  0.50634163477E+02  0.47000000000E+01 0. -1.
         -5    1    3    3    0  503 -0.15185579440E+03 -0.35743858758E+02  0.13924591351E+03  0.20916338150E+03  0.47000000000E+01 0.  1.
<mgrwt>
<rscale>  0 0.24186041E+03</rscale>
<asrwt>0</asrwt>
<pdfrwt beam="1">  1        3 0.18142110E-01 0.25149361E+03</pdfrwt>
<pdfrwt beam="2">  1       -3 0.71162100E-01 0.25149361E+03</pdfrwt>
<totfact> 0.12763611E+02</totfact>
</mgrwt>
</event>
<event>
 8    1  0.5224537E-004  0.1216838E+03  0.7546771E-02  0.1241430E+00
         -1   -1    0    0    0  501 -0.00000000000E+00  0.00000000000E+00  0.21822000756E+03  0.21822000756E+03  0.00000000000E+00 0.  1.
          1   -1    0    0  501    0  0.00000000000E+00 -0.00000000000E+00 -0.10647037486E+03  0.10647037486E+03  0.00000000000E+00 0. -1.
         23    2    1    2    0    0  0.25074409149E+02  0.75307937009E+02  0.15586864754E+03  0.19774221704E+03  0.92233062094E+02 0.  0.
         23    2    1    2    0    0 -0.25074409149E+02 -0.75307937009E+02 -0.44119014835E+02  0.12694816538E+03  0.88709288425E+02 0.  0.
          5    1    3    3  502    0  0.18780723981E+02  0.78487431071E+01 -0.63881880404E+01  0.21845304028E+02  0.47000000000E+01 0. -1.
         -5    1    3    3    0  502  0.62936851677E+01  0.67459193901E+02  0.16225683558E+03  0.17589691301E+03  0.47000000000E+01 0.  1.
          5    1    4    4  503    0 -0.41097288266E+02 -0.45839421766E+02 -0.62965560927E+02  0.88187252784E+02  0.47000000000E+01 0. -1.
         -5    1    4    4    0  503  0.16022879117E+02 -0.29468515243E+02  0.18846546092E+02  0.38760912597E+02  0.47000000000E+01 0.  1.
<mgrwt>
<rscale>  0 0.12101615E+03</rscale>
<asrwt>0</asrwt>
<pdfrwt beam="1">  1        1 0.16380058E-01 0.12168381E+03</pdfrwt>
<pdfrwt beam="2">  1       -1 0.33572309E-01 0.12168381E+03</pdfrwt>
<totfact> 0.26848817E+03</totfact>
</mgrwt>
</event>
<event>
 8    1  0.5224537E-004  0.9408602E+02  0.7546771E-02  0.1293594E+00
          2   -1    0    0  501    0  0.00000000000E+00  0.00000000000E+00  0.62726332037E+03  0.62726332037E+03  0.00000000000E+00 0. -1.
         -2   -1    0    0    0  501 -0.00000000000E+00 -0.00000000000E+00 -0.20549535962E+02  0.20549535962E+02  0.00000000000E+00 0.  1.
         23    2    1    2    0    0 -0.22972455583E+02 -0.88296894746E+01  0.48658127476E+03  0.49559410486E+03  0.90810146447E+02 0.  0.
         23    2    1    2    0    0  0.22972455583E+02  0.88296894746E+01  0.12013250965E+03  0.15221875147E+03  0.90183320477E+02 0.  0.
          5    1    4    4  502    0 -0.10335984523E+02  0.34500644461E+02  0.97896779384E+02  0.10441741453E+03  0.47000000000E+01 0. -1.
         -5    1    4    4    0  502  0.33308440106E+02 -0.25670954987E+02  0.22235730267E+02  0.47801336935E+02  0.47000000000E+01 0.  1.
          5    1    3    3  503    0 -0.44481839926E+02  0.20268230009E+02  0.37491316210E+03  0.37811559654E+03  0.47000000000E+01 0. -1.
         -5    1    3    3    0  503  0.21509384343E+02 -0.29097919484E+02  0.11166811265E+03  0.11747850832E+03  0.47000000000E+01 0.  1.
<mgrwt>
<rscale>  0 0.93934443E+02</rscale>
<asrwt>0</asrwt>
<pdfrwt beam="1">  1        2 0.96502035E-01 0.94086024E+02</pdfrwt>
<pdfrwt beam="2">  1       -2 0.31614676E-02 0.94086024E+02</pdfrwt>
<totfact> 0.17197404E+04</totfact>
</mgrwt>
</event>
<event>
 8    1  0.5224537E-004  0.9751815E+02  0.7546771E-02  0.1286344E+00
          1   -1    0    0  501    0  0.00000000000E+00  0.00000000000E+00  0.16991074134E+03  0.16991074134E+03  0.00000000000E+00 0. -1.
         -1   -1    0    0    0  501 -0.00000000000E+00 -0.00000000000E+00 -0.10953244590E+03  0.10953244590E+03  0.00000000000E+00 0.  1.
         23    2    1    2    0    0  0.22146621384E+02  0.15665708183E+02 -0.68325342991E+02  0.11796744189E+03  0.92260921302E+02 0.  0.
         23    2    1    2    0    0 -0.22146621384E+02 -0.15665708183E+02  0.12870363844E+03  0.16147574535E+03  0.93669111975E+02 0.  0.
          5    1    4    4  502    0 -0.54122711654E+02  0.98924856313E+01  0.85432832566E+02  0.10172506117E+03  0.47000000000E+01 0. -1.
         -5    1    3    3    0  503  0.31648583830E+02 -0.33232080682E+02 -0.32461708665E+02  0.56407947794E+02  0.47000000000E+01 0.  1.
          5    1    3    3  503    0 -0.95019624456E+01  0.48897788865E+02 -0.35863634327E+02  0.61559494096E+02  0.47000000000E+01 0. -1.
         -5    1    4    4    0  502  0.31976090270E+02 -0.25558193814E+02  0.43270805872E+02  0.59750684187E+02  0.47000000000E+01 0.  1.
<mgrwt>
<rscale>  0 0.97178427E+02</rscale>
<asrwt>0</asrwt>
<pdfrwt beam="1">  1        1 0.26140114E-01 0.97518151E+02</pdfrwt>
<pdfrwt beam="2">  1       -1 0.16851146E-01 0.97518151E+02</pdfrwt>
<totfact> 0.45152859E+03</totfact>
</mgrwt>
</event>
<event>
 8    1  0.5224537E-004  0.1150155E+03  0.7546771E-02  0.1256618E+00
         -1   -1    0    0    0  501 -0.00000000000E+00  0.00000000000E+00  0.35625929990E+03  0.35625929990E+03  0.00000000000E+00 0.  1.
          1   -1    0    0  501    0  0.00000000000E+00 -0.00000000000E+00 -0.33682318734E+02  0.33682318734E+02  0.00000000000E+00 0. -1.
         23    2    1    2    0    0  0.46478434993E+02  0.51472447836E+02  0.16516423397E+03  0.20126545398E+03  0.91754569253E+02 0.  0.
         23    2    1    2    0    0 -0.46478434993E+02 -0.51472447836E+02  0.15741274720E+03  0.18867616466E+03  0.77525894527E+02 0.  0.
          5    1    3    3  502    0  0.45721794269E+02  0.28531050654E+01  0.13775733343E+03  0.14525080238E+03  0.47000000000E+01 0. -1.
         -5    1    3    3    0  502  0.75664072388E+00  0.48619342770E+02  0.27406900541E+02  0.56014651600E+02  0.47000000000E+01 0.  1.
          5    1    4    4  503    0  0.15950641184E+02 -0.24500908414E+02  0.21392703981E+02  0.36530196426E+02  0.47000000000E+01 0. -1.
         -5    1    4    4    0  503 -0.62429076176E+02 -0.26971539422E+02  0.13602004322E+03  0.15214596823E+03  0.47000000000E+01 0.  1.
<mgrwt>
<rscale>  0 0.11216186E+03</rscale>
<asrwt>0</asrwt>
<pdfrwt beam="1">  1        1 0.51818954E-02 0.11501547E+03</pdfrwt>
<pdfrwt beam="2">  1       -1 0.54809120E-01 0.11501547E+03</pdfrwt>
<totfact> 0.51577187E+03</totfact>
</mgrwt>
</event>
<event>
 8    1  0.5224537E-004  0.9189005E+02  0.7546771E-02  0.1303895E+00
          2   -1    0    0  501    0  0.00000000000E+00  0.00000000000E+00  0.44934835910E+03  0.44934835910E+03  0.00000000000E+00 0. -1.
         -2   -1    0    0    0  501 -0.00000000000E+00 -0.00000000000E+00 -0.22652571353E+02  0.22652571353E+02  0.00000000000E+00 0.  1.
         23    2    1    2    0    0  0.66650805196E+01 -0.10810272298E+02  0.87480239027E+02  0.12055965622E+03  0.81978980253E+02 0.  0.
         23    2    1    2    0    0 -0.66650805196E+01  0.10810272298E+02  0.33921554872E+03  0.35144127423E+03  0.91008216402E+02 0.  0.
          5    1    4    4  502    0 -0.28838319873E+02  0.43220018204E+02  0.20347057217E+03  0.21005233254E+03  0.47000000000E+01 0. -1.
         -5    1    4    4    0  502  0.22173239353E+02 -0.32409745907E+02  0.13574497656E+03  0.14138894169E+03  0.47000000000E+01 0.  1.
          5    1    3    3  503    0 -0.35140299290E+02  0.88095430634E+01  0.37773355655E+02  0.52548692473E+02  0.47000000000E+01 0. -1.
         -5    1    3    3    0  503  0.41805379810E+02 -0.19619815361E+02  0.49706883373E+02  0.68010963752E+02  0.47000000000E+01 0.  1.
<mgrwt>
<rscale>  0 0.89570380E+02</rscale>
<asrwt>0</asrwt>
<pdfrwt beam="1">  1        2 0.69130510E-01 0.91890047E+02</pdfrwt>
<pdfrwt beam="2">  1       -2 0.34850113E-02 0.91890047E+02</pdfrwt>
<totfact> 0.21442393E+04</totfact>
</mgrwt>
</event>
<event>
 8    1  0.5224537E-004  0.9985440E+02  0.7546771E-02  0.1281637E+00
          1   -1    0    0  501    0  0.00000000000E+00  0.00000000000E+00  0.79956288599E+02  0.79956288599E+02  0.00000000000E+00 0. -1.
         -1   -1    0    0    0  501 -0.00000000000E+00 -0.00000000000E+00 -0.12754671341E+03  0.12754671341E+03  0.00000000000E+00 0.  1.
         23    2    1    2    0    0 -0.10045132019E+02 -0.35164226275E+02 -0.45080544340E+02  0.10955892120E+03  0.92916490727E+02 0.  0.
         23    2    1    2    0    0  0.10045132019E+02  0.35164226275E+02 -0.25098804752E+01  0.97944080816E+02  0.90825745139E+02 0.  0.
          5    1    4    4  502    0 -0.39061178773E+01 -0.26442872670E+02  0.16561103389E+02  0.31793763813E+02  0.47000000000E+01 0. -1.
         -5    1    3    3    0  503 -0.20332816163E+02  0.18119928097E+02  0.12467224722E+02  0.30319579477E+02  0.47000000000E+01 0.  1.
          5    1    3    3  503    0  0.10287684145E+02 -0.53284154372E+02 -0.57547769061E+02  0.79239341720E+02  0.47000000000E+01 0. -1.
         -5    1    4    4    0  502  0.13951249896E+02  0.61607098945E+02 -0.19070983865E+02  0.66150317003E+02  0.47000000000E+01 0.  1.
<mgrwt>
<rscale>  0 0.99365198E+02</rscale>
<asrwt>0</asrwt>
<pdfrwt beam="1">  1        1 0.12300968E-01 0.99854403E+02</pdfrwt>
<pdfrwt beam="2">  1       -1 0.19622571E-01 0.99854403E+02</pdfrwt>
<totfact> 0.92510382E+03</totfact>
</mgrwt>
</event>
<event>
 8    1  0.5224537E-004  0.9316833E+02  0.7546771E-02  0.1297007E+00
         -2   -1    0    0    0  501 -0.00000000000E+00  0.00000000000E+00  0.37987432568E+02  0.37987432568E+02  0.00000000000E+00 0.  1.
          2   -1    0    0  501    0  0.00000000000E+00 -0.00000000000E+00 -0.80144972556E+03  0.80144972556E+03  0.00000000000E+00 0. -1.
         23    2    1    2    0    0 -0.24650139430E+00 -0.15864305947E+02 -0.23137289332E+02  0.93272666666E+02  0.88953466618E+02 0.  0.
         23    2    1    2    0    0  0.24650139430E+00  0.15864305947E+02 -0.74032500366E+03  0.74616449146E+03  0.91807408783E+02 0.  0.
          5    1    4    4  502    0  0.68578415757E+01 -0.37765659666E+02 -0.28109600901E+03  0.28374342516E+03  0.47000000000E+01 0. -1.
         -5    1    4    4    0  502 -0.66113401814E+01  0.53629965612E+02 -0.45922899465E+03  0.46242106630E+03  0.47000000000E+01 0.  1.
          5    1    3    3  503    0  0.19546768433E+02  0.24175265972E+02 -0.34771072792E+02  0.46878962703E+02  0.47000000000E+01 0. -1.
         -5    1    3    3    0  503 -0.19793269827E+02 -0.40039571918E+02  0.11633783460E+02  0.46393703964E+02  0.47000000000E+01 0.  1.
<mgrwt>
<rscale>  0 0.92457497E+02</rscale>
<asrwt>0</asrwt>
<pdfrwt beam="1">  1        2 0.12329996E+00 0.93168328E+02</pdfrwt>
<pdfrwt beam="2">  1       -2 0.58442201E-02 0.93168328E+02</pdfrwt>
<totfact> 0.52003672E+03</totfact>
</mgrwt>
</event>
<event>
 8    1  0.5224537E-004  0.2181771E+03  0.7546771E-02  0.1135829E+00
         -2   -1    0    0    0  501 -0.00000000000E+00  0.00000000000E+00  0.11242381586E+03  0.11242381586E+03  0.00000000000E+00 0.  1.
          2   -1    0    0  501    0  0.00000000000E+00 -0.00000000000E+00 -0.58759780924E+03  0.58759780924E+03  0.00000000000E+00 0. -1.
         23    2    1    2    0    0 -0.91500517725E+02  0.17323219534E+03 -0.48084559706E+02  0.22043154138E+03  0.88860572287E+02 0.  0.
         23    2    1    2    0    0  0.91500517725E+02 -0.17323219534E+03 -0.42708943367E+03  0.47959008371E+03  0.96018361763E+02 0.  0.
          5    1    3    3  502    0 -0.45466879036E+02  0.27407456062E+02 -0.41062413765E+02  0.67280142399E+02  0.47000000000E+01 0. -1.
         -5    1    4    4    0  503  0.90528435263E+02 -0.80012790174E+02 -0.19513667563E+03  0.22956013669E+03  0.47000000000E+01 0.  1.
          5    1    4    4  503    0  0.97208246226E+00 -0.93219405163E+02 -0.23195275804E+03  0.25002994702E+03  0.47000000000E+01 0. -1.
         -5    1    3    3    0  502 -0.46033638689E+02  0.14582473927E+03 -0.70221459407E+01  0.15315139898E+03  0.47000000000E+01 0.  1.
<mgrwt>
<rscale>  0 0.21740958E+03</rscale>
<asrwt>0</asrwt>
<pdfrwt beam="1">  1        2 0.90399665E-01 0.21817714E+03</pdfrwt>
<pdfrwt beam="2">  1       -2 0.17295971E-01 0.21817714E+03</pdfrwt>
<totfact> 0.13905937E+03</totfact>
</mgrwt>
</event>
<event>
 8    1  0.5224537E-004  0.9335707E+02  0.7546771E-02  0.1295212E+00
         -1   -1    0    0    0  501 -0.00000000000E+00  0.00000000000E+00  0.18817625570E+02  0.18817625570E+02  0.00000000000E+00 0.  1.
          1   -1    0    0  501    0  0.00000000000E+00 -0.00000000000E+00 -0.46157389369E+03  0.46157389369E+03  0.00000000000E+00 0. -1.
         23    2    1    2    0    0  0.11534718593E+02 -0.13262740074E+02 -0.21004762670E+03  0.22965489617E+03  0.91172451132E+02 0.  0.
         23    2    1    2    0    0 -0.11534718593E+02  0.13262740074E+02 -0.23270864142E+03  0.25073662309E+03  0.91687471115E+02 0.  0.
          5    1    4    4  502    0 -0.14365584950E+02  0.50706768279E+02 -0.16361531039E+03  0.17195815239E+03  0.47000000000E+01 0. -1.
         -5    1    4    4    0  502  0.28308663574E+01 -0.37444028205E+02 -0.69093331034E+02  0.78778470701E+02  0.47000000000E+01 0.  1.
          5    1    3    3  503    0 -0.37892398009E+02 -0.22749379486E+01 -0.59343924039E+02  0.70603119548E+02  0.47000000000E+01 0. -1.
         -5    1    3    3    0  503  0.49427116601E+02 -0.10987802125E+02 -0.15070370266E+03  0.15905177662E+03  0.47000000000E+01 0.  1.
<mgrwt>
<rscale>  0 0.93230372E+02</rscale>
<asrwt>0</asrwt>
<pdfrwt beam="1">  1        1 0.71011369E-01 0.93357069E+02</pdfrwt>
<pdfrwt beam="2">  1       -1 0.28950193E-02 0.93357069E+02</pdfrwt>
<totfact> 0.18152868E+04</totfact>
</mgrwt>
</event>
<event>
 8    1  0.5224537E-004  0.1189984E+03  0.7546771E-02  0.1250502E+00
         -2   -1    0    0    0  501 -0.00000000000E+00  0.00000000000E+00  0.45960030106E+03  0.45960030106E+03  0.00000000000E+00 0.  1.
          2   -1    0    0  501    0  0.00000000000E+00 -0.00000000000E+00 -0.31076965547E+02  0.31076965547E+02  0.00000000000E+00 0. -1.
         23    2    1    2    0    0 -0.39554856446E+02 -0.40854947697E+02  0.30772413196E+03  0.32993146233E+03  0.10453188518E+03 0.  0.
         23    2    1    2    0    0  0.39554856446E+02  0.40854947697E+02  0.12079920355E+03  0.16074580428E+03  0.89515655594E+02 0.  0.
          5    1    3    3  502    0  0.20555998753E+02 -0.22797308636E+02  0.23829106819E+02  0.39143105365E+02  0.47000000000E+01 0. -1.
         -5    1    3    3    0  502 -0.60110855200E+02 -0.18057639061E+02  0.28389502515E+03  0.29078835696E+03  0.47000000000E+01 0.  1.
          5    1    4    4  503    0 -0.18482065804E+01 -0.21339757636E+02  0.44245298618E+01  0.22371132918E+02  0.47000000000E+01 0. -1.
         -5    1    4    4    0  503  0.41403063027E+02  0.62194705333E+02  0.11637467369E+03  0.13837467137E+03  0.47000000000E+01 0.  1.
<mgrwt>
<rscale>  0 0.11562038E+03</rscale>
<asrwt>0</asrwt>
<pdfrwt beam="1">  1        2 0.47810720E-02 0.11899844E+03</pdfrwt>
<pdfrwt beam="2">  1       -2 0.70707734E-01 0.11899844E+03</pdfrwt>
<totfact> 0.29482511E+03</totfact>
</mgrwt>
</event>
<event>
 8    1  0.5224537E-004  0.9601852E+02  0.7546771E-02  0.1289235E+00
          1   -1    0    0  501    0  0.00000000000E+00  0.00000000000E+00  0.23109168418E+03  0.23109168418E+03  0.00000000000E+00 0. -1.
         -1   -1    0    0    0  501 -0.00000000000E+00 -0.00000000000E+00 -0.41290668646E+02  0.41290668646E+02  0.00000000000E+00 0.  1.
         23    2    1    2    0    0 -0.35931447254E+02 -0.21780137766E+01  0.12180217481E+03  0.15472437771E+03  0.88363174590E+02 0.  0.
         23    2    1    2    0    0  0.35931447254E+02  0.21780137766E+01  0.67998840716E+02  0.11765797511E+03  0.89015415081E+02 0.  0.
          5    1    3    3  502    0  0.13944874601E+02  0.25466994423E+02  0.75799807023E+02  0.81306383989E+02  0.47000000000E+01 0. -1.
         -5    1    3    3    0  502 -0.49876321856E+02 -0.27645008199E+02  0.46002367792E+02  0.73417993725E+02  0.47000000000E+01 0.  1.
          5    1    4    4  503    0  0.16465969784E+02 -0.31447729357E+02  0.69833085740E+02  0.78478262638E+02  0.47000000000E+01 0. -1.
         -5    1    4    4    0  503  0.19465477471E+02  0.33625743134E+02 -0.18342450243E+01  0.39179712470E+02  0.47000000000E+01 0.  1.
<mgrwt>
<rscale>  0 0.95867076E+02</rscale>
<asrwt>0</asrwt>
<pdfrwt beam="1">  1        1 0.35552566E-01 0.96018523E+02</pdfrwt>
<pdfrwt beam="2">  1       -1 0.63524107E-02 0.96018523E+02</pdfrwt>
<totfact> 0.13582098E+04</totfact>
</mgrwt>
</event>
<event>
 8    1  0.5224537E-004  0.9059925E+02  0.7546771E-02  0.1302867E+00
         -1   -1    0    0    0  501 -0.00000000000E+00  0.00000000000E+00  0.75346233487E+01  0.75346233487E+01  0.00000000000E+00 0.  1.
          1   -1    0    0  501    0  0.00000000000E+00 -0.00000000000E+00 -0.12229891881E+04  0.12229891881E+04  0.00000000000E+00 0. -1.
         23    2    1    2    0    0  0.70234775215E+01 -0.18319381320E+01 -0.39072913042E+03  0.40109534660E+03  0.90308019967E+02 0.  0.
         23    2    1    2    0    0 -0.70234775215E+01  0.18319381320E+01 -0.82472543434E+03  0.82942846485E+03  0.87902508709E+02 0.  0.
          5    1    3    3  502    0  0.73170845898E+01  0.42619993189E+02 -0.14698649037E+03  0.15328770955E+03  0.47000000000E+01 0. -1.
         -5    1    3    3    0  502 -0.29360706834E+00 -0.44451931321E+02 -0.24374264005E+03  0.24780763705E+03  0.47000000000E+01 0.  1.
          5    1    4    4  503    0 -0.34489042009E+02  0.31845630264E+02 -0.45786310341E+03  0.46028724690E+03  0.47000000000E+01 0. -1.
         -5    1    4    4    0  503  0.27465564488E+02 -0.30013692132E+02 -0.36686233092E+03  0.36914121796E+03  0.47000000000E+01 0.  1.
<mgrwt>
<rscale>  0 0.89993814E+02</rscale>
<asrwt>0</asrwt>
<pdfrwt beam="1">  1        1 0.18815206E+00 0.90599248E+02</pdfrwt>
<pdfrwt beam="2">  1       -1 0.11591735E-02 0.90599248E+02</pdfrwt>
<totfact> 0.15656005E+04</totfact>
</mgrwt>
</event>
<event>
 8    1  0.5224537E-004  0.1103400E+03  0.7546771E-02  0.1260216E+00
          3   -1    0    0  501    0  0.00000000000E+00  0.00000000000E+00  0.22014169559E+02  0.22014169559E+02  0.00000000000E+00 0. -1.
         -3   -1    0    0    0  501 -0.00000000000E+00 -0.00000000000E+00 -0.82890870692E+03  0.82890870692E+03  0.00000000000E+00 0.  1.
         23    2    1    2    0    0  0.61323618178E+02 -0.14007120853E+02 -0.64948516549E+03  0.65869223292E+03  0.89931595882E+02 0.  0.
         23    2    1    2    0    0 -0.61323618178E+02  0.14007120853E+02 -0.15740937187E+03  0.19223064355E+03  0.90653871340E+02 0.  0.
          5    1    4    4  502    0 -0.71884251016E+02 -0.17477181513E+02 -0.12650903207E+03  0.14662681410E+03  0.47000000000E+01 0. -1.
         -5    1    3    3    0  503  0.77589733691E+02  0.14650919569E+01 -0.58708254538E+03  0.59220800261E+03  0.47000000000E+01 0.  1.
          5    1    3    3  503    0 -0.16266115514E+02 -0.15472212810E+02 -0.62402620117E+02  0.66484230315E+02  0.47000000000E+01 0. -1.
         -5    1    4    4    0  502  0.10560632838E+02  0.31484302366E+02 -0.30900339799E+02  0.45603829457E+02  0.47000000000E+01 0.  1.
<mgrwt>
<rscale>  0 0.11019152E+03</rscale>
<asrwt>0</asrwt>
<pdfrwt beam="1">  1        3 0.33867950E-02 0.11033997E+03</pdfrwt>
<pdfrwt beam="2">  1       -3 0.12752443E+00 0.11033997E+03</pdfrwt>
<totfact> 0.48545577E+02</totfact>
</mgrwt>
</event>
<event>
 8    1  0.5224537E-004  0.1156111E+03  0.7546771E-02  0.1253856E+00
         -1   -1    0    0    0  501 -0.00000000000E+00  0.00000000000E+00  0.67359596523E+02  0.67359596523E+02  0.00000000000E+00 0.  1.
          1   -1    0    0  501    0  0.00000000000E+00 -0.00000000000E+00 -0.29307589511E+03  0.29307589511E+03  0.00000000000E+00 0. -1.
         23    2    1    2    0    0  0.55410151578E+02 -0.15405976243E+02 -0.21943724947E+03  0.24465398290E+03  0.91625519864E+02 0.  0.
         23    2    1    2    0    0 -0.55410151578E+02  0.15405976243E+02 -0.62790491205E+01  0.11578150874E+03  0.10029108787E+03 0.  0.
          5    1    3    3  502    0  0.27036580035E+02 -0.42577048208E+02 -0.18624206168E+03  0.19300771288E+03  0.47000000000E+01 0. -1.
         -5    1    4    4    0  503 -0.58823206189E+02  0.48760374172E+02 -0.20207777677E+02  0.79171888663E+02  0.47000000000E+01 0.  1.
          5    1    4    4  503    0  0.34130546117E+01 -0.33354397928E+02  0.13928728556E+02  0.36609620077E+02  0.47000000000E+01 0. -1.
         -5    1    3    3    0  502  0.28373571543E+02  0.27171071965E+02 -0.33195187792E+02  0.51646270014E+02  0.47000000000E+01 0.  1.
<mgrwt>
<rscale>  0 0.11370675E+03</rscale>
<asrwt>0</asrwt>
<pdfrwt beam="1">  1        1 0.45088599E-01 0.11561112E+03</pdfrwt>
<pdfrwt beam="2">  1       -1 0.10363015E-01 0.11561112E+03</pdfrwt>
<totfact> 0.49422756E+03</totfact>
</mgrwt>
</event>
<event>
 8    1  0.5224537E-004  0.9509590E+02  0.7546771E-02  0.1291100E+00
          1   -1    0    0  501    0  0.00000000000E+00  0.00000000000E+00  0.38578492221E+03  0.38578492221E+03  0.00000000000E+00 0. -1.
         -1   -1    0    0    0  501 -0.00000000000E+00 -0.00000000000E+00 -0.25067741199E+02  0.25067741199E+02  0.00000000000E+00 0.  1.
         23    2    1    2    0    0 -0.27503887425E+02  0.13503607110E+01  0.23387929943E+03  0.25247327968E+03  0.91021662003E+02 0.  0.
         23    2    1    2    0    0  0.27503887425E+02 -0.13503607110E+01  0.12683788158E+03  0.15837938373E+03  0.90762843106E+02 0.  0.
          5    1    3    3  502    0 -0.45271627897E+02 -0.32234875586E+02  0.11993473321E+03  0.13226880860E+03  0.47000000000E+01 0. -1.
         -5    1    3    3    0  502  0.17767740472E+02  0.33585236297E+02  0.11394456622E+03  0.12020447109E+03  0.47000000000E+01 0.  1.
          5    1    4    4  503    0  0.53190336294E+02 -0.16072847618E+02  0.46422239292E+02  0.72557994779E+02  0.47000000000E+01 0.  1.
         -5    1    4    4    0  503 -0.25686448869E+02  0.14722486907E+02  0.80415642293E+02  0.85821388952E+02  0.47000000000E+01 0. -1.
<mgrwt>
<rscale>  0 0.95033915E+02</rscale>
<asrwt>0</asrwt>
<pdfrwt beam="1">  1        1 0.59351522E-01 0.95095900E+02</pdfrwt>
<pdfrwt beam="2">  1       -1 0.38565758E-02 0.95095900E+02</pdfrwt>
<totfact> 0.15037557E+04</totfact>
</mgrwt>
</event>
<event>
 8    1  0.5224537E-004  0.1004189E+03  0.7546771E-02  0.1279684E+00
          2   -1    0    0  501    0  0.00000000000E+00  0.00000000000E+00  0.12563141611E+02  0.12563141611E+02  0.00000000000E+00 0. -1.
         -2   -1    0    0    0  501 -0.00000000000E+00 -0.00000000000E+00 -0.91751790726E+03  0.91751790726E+03  0.00000000000E+00 0.  1.
         23    2    1    2    0    0  0.52725922454E+01 -0.41574731397E+02 -0.28606146711E+03  0.30317504908E+03  0.91256171827E+02 0.  0.
         23    2    1    2    0    0 -0.52725922454E+01  0.41574731397E+02 -0.61889329853E+03  0.62690599979E+03  0.90697073193E+02 0.  0.
          5    1    4    4  502    0  0.28214289739E+02 -0.15974573766E+02 -0.17822856207E+03  0.18121463376E+03  0.47000000000E+01 0. -1.
         -5    1    3    3    0  503  0.28577182132E+02  0.11002717683E+02 -0.40868806454E+02  0.51284154239E+02  0.47000000000E+01 0.  1.
          5    1    3    3  503    0 -0.23304589887E+02 -0.52577449080E+02 -0.24519266066E+03  0.25189089484E+03  0.47000000000E+01 0. -1.
         -5    1    4    4    0  502 -0.33486881985E+02  0.57549305163E+02 -0.44066473647E+03  0.44569136603E+03  0.47000000000E+01 0.  1.
<mgrwt>
<rscale>  0 0.10029167E+03</rscale>
<asrwt>0</asrwt>
<pdfrwt beam="1">  1        2 0.19327906E-02 0.10041886E+03</pdfrwt>
<pdfrwt beam="2">  1       -2 0.14115663E+00 0.10041886E+03</pdfrwt>
<totfact> 0.19888314E+03</totfact>
</mgrwt>
</event>
<event>
 8    1  0.5224537E-004  0.9273885E+02  0.7546771E-02  0.1296930E+00
         -2   -1    0    0    0  501 -0.00000000000E+00  0.00000000000E+00  0.68947539052E+03  0.68947539052E+03  0.00000000000E+00 0.  1.
          2   -1    0    0  501    0  0.00000000000E+00 -0.00000000000E+00 -0.13683292645E+02  0.13683292645E+02  0.00000000000E+00 0. -1.
         23    2    1    2    0    0 -0.98990363860E+01 -0.23892140177E+01  0.44636629514E+03  0.45569819575E+03  0.91182656868E+02 0.  0.
         23    2    1    2    0    0  0.98990363860E+01  0.23892140177E+01  0.22942580274E+03  0.24746048742E+03  0.92178059230E+02 0.  0.
          5    1    3    3  502    0 -0.43354440434E+02  0.13695509294E+02  0.33749936636E+03  0.34058051438E+03  0.47000000000E+01 0. -1.
         -5    1    4    4    0  503  0.11837849171E+02 -0.42749998959E+02  0.84054833199E+02  0.95157774607E+02  0.47000000000E+01 0.  1.
          5    1    4    4  503    0 -0.19388127851E+01  0.45139212977E+02  0.14537096954E+03  0.15230271281E+03  0.47000000000E+01 0. -1.
         -5    1    3    3    0  502  0.33455404048E+02 -0.16084723312E+02  0.10886692877E+03  0.11511768137E+03  0.47000000000E+01 0.  1.
<mgrwt>
<rscale>  0 0.92490523E+02</rscale>
<asrwt>0</asrwt>
<pdfrwt beam="1">  1        2 0.21051225E-02 0.92738848E+02</pdfrwt>
<pdfrwt beam="2">  1       -2 0.10607311E+00 0.92738848E+02</pdfrwt>
<totfact> 0.34925909E+03</totfact>
</mgrwt>
</event>
<event>
 8    1  0.5224537E-004  0.1028431E+03  0.7546771E-02  0.1274543E+00
          1   -1    0    0  501    0  0.00000000000E+00  0.00000000000E+00  0.38484934707E+03  0.38484934707E+03  0.00000000000E+00 0. -1.
         -1   -1    0    0    0  501 -0.00000000000E+00 -0.00000000000E+00 -0.27676897029E+02  0.27676897029E+02  0.00000000000E+00 0.  1.
         23    2    1    2    0    0  0.44974178339E+02 -0.14940269922E+02  0.15899179138E+03  0.18935439308E+03  0.91273260426E+02 0.  0.
         23    2    1    2    0    0 -0.44974178339E+02  0.14940269922E+02  0.19818065866E+03  0.22317185103E+03  0.91017653448E+02 0.  0.
          5    1    4    4  502    0  0.15818680121E+02 -0.12996224502E+02  0.11208037967E+03  0.11403172365E+03  0.47000000000E+01 0. -1.
         -5    1    3    3    0  503 -0.13256554531E+02 -0.28453431149E+02  0.10125626639E+03  0.10611435089E+03  0.47000000000E+01 0.  1.
          5    1    3    3  503    0  0.58230732870E+02  0.13513161227E+02  0.57735524990E+02  0.83240042184E+02  0.47000000000E+01 0. -1.
         -5    1    4    4    0  502 -0.60792858460E+02  0.27936494424E+02  0.86100278998E+02  0.10914012738E+03  0.47000000000E+01 0.  1.
<mgrwt>
<rscale>  0 0.10278632E+03</rscale>
<asrwt>0</asrwt>
<pdfrwt beam="1">  1        1 0.59207588E-01 0.10284307E+03</pdfrwt>
<pdfrwt beam="2">  1       -1 0.42579844E-02 0.10284307E+03</pdfrwt>
<totfact> 0.13151303E+04</totfact>
</mgrwt>
</event>
<event>
 8    1  0.5224537E-004  0.2556101E+03  0.7546771E-02  0.1109864E+00
         -2   -1    0    0    0  501 -0.00000000000E+00  0.00000000000E+00  0.74174039828E+02  0.74174039828E+02  0.00000000000E+00 0.  1.
          2   -1    0    0  501    0  0.00000000000E+00 -0.00000000000E+00 -0.10277894266E+04  0.10277894266E+04  0.00000000000E+00 0. -1.
         23    2    1    2    0    0  0.22515637627E+03 -0.77275017650E+02 -0.26790206667E+03  0.37028103237E+03  0.93111242491E+02 0.  0.
         23    2    1    2    0    0 -0.22515637627E+03  0.77275017650E+02 -0.68571332011E+03  0.73168243407E+03  0.92139051511E+02 0.  0.
          5    1    3    3  502    0  0.12573176275E+03 -0.21506664571E+01 -0.17121938018E+03  0.21248827657E+03  0.47000000000E+01 0. -1.
         -5    1    3    3    0  502  0.99424613519E+02 -0.75124351193E+02 -0.96682686491E+02  0.15779275580E+03  0.47000000000E+01 0.  1.
          5    1    4    4  503    0 -0.14560453663E+03  0.90634315023E+02 -0.51463629751E+03  0.54248305860E+03  0.47000000000E+01 0. -1.
         -5    1    4    4    0  503 -0.79551839641E+02 -0.13359297372E+02 -0.17107702260E+03  0.18919937547E+03  0.47000000000E+01 0.  1.
<mgrwt>
<rscale>  0 0.25552193E+03</rscale>
<asrwt>0</asrwt>
<pdfrwt beam="1">  1        2 0.15812146E+00 0.25561010E+03</pdfrwt>
<pdfrwt beam="2">  1       -2 0.11411390E-01 0.25561010E+03</pdfrwt>
<totfact> 0.13553555E+03</totfact>
</mgrwt>
</event>
<event>
 8    1  0.5224537E-004  0.9765305E+02  0.7546771E-02  0.1286022E+00
          2   -1    0    0  501    0  0.00000000000E+00  0.00000000000E+00  0.26658889943E+02  0.26658889943E+02  0.00000000000E+00 0. -1.
         -2   -1    0    0    0  501 -0.00000000000E+00 -0.00000000000E+00 -0.59927542513E+03  0.59927542513E+03  0.00000000000E+00 0.  1.
         23    2    1    2    0    0 -0.12264744588E+02 -0.33137818878E+02 -0.48582182385E+03  0.49528424932E+03  0.89638742144E+02 0.  0.
         23    2    1    2    0    0  0.12264744588E+02  0.33137818878E+02 -0.86794711339E+02  0.13065006576E+03  0.91036139890E+02 0.  0.
          5    1    3    3  502    0 -0.19182029203E+02  0.25739286826E+02 -0.10658835690E+03  0.11141646628E+03  0.47000000000E+01 0. -1.
         -5    1    3    3    0  502  0.69172846149E+01 -0.58877105705E+02 -0.37923346695E+03  0.38386778304E+03  0.47000000000E+01 0.  1.
          5    1    4    4  503    0  0.30531630830E+02 -0.76505089913E+01  0.11972234657E+01  0.31847042453E+02  0.47000000000E+01 0. -1.
         -5    1    4    4    0  503 -0.18266886242E+02  0.40788327870E+02 -0.87991934804E+02  0.98803023304E+02  0.47000000000E+01 0.  1.
<mgrwt>
<rscale>  0 0.97326063E+02</rscale>
<asrwt>0</asrwt>
<pdfrwt beam="1">  1        2 0.41013675E-02 0.97653048E+02</pdfrwt>
<pdfrwt beam="2">  1       -2 0.92196223E-01 0.97653048E+02</pdfrwt>
<totfact> 0.19894736E+03</totfact>
</mgrwt>
</event>
<event>
 8    1  0.5224537E-004  0.1090307E+03  0.7546771E-02  0.1263961E+00
         -1   -1    0    0    0  501 -0.00000000000E+00  0.00000000000E+00  0.59206826057E+02  0.59206826057E+02  0.00000000000E+00 0.  1.
          1   -1    0    0  501    0  0.00000000000E+00 -0.00000000000E+00 -0.20272156325E+03  0.20272156325E+03  0.00000000000E+00 0. -1.
         23    2    1    2    0    0  0.37611315045E+02 -0.37785441415E+02 -0.96735514420E+02  0.14328608532E+03  0.91273171820E+02 0.  0.
         23    2    1    2    0    0 -0.37611315045E+02  0.37785441415E+02 -0.46779222771E+02  0.11864230398E+03  0.95107045003E+02 0.  0.
          5    1    3    3  502    0  0.22548535335E+02 -0.64030037328E+02 -0.88385332083E+02  0.11154523322E+03  0.47000000000E+01 0. -1.
         -5    1    4    4    0  503 -0.36270437462E+01  0.64533105294E+02 -0.34616864084E+02  0.73471725202E+02  0.47000000000E+01 0.  1.
          5    1    4    4  503    0 -0.33984271298E+02 -0.26747663879E+02 -0.12162358688E+02  0.45170578782E+02  0.47000000000E+01 0. -1.
         -5    1    3    3    0  502  0.15062779710E+02  0.26244595913E+02 -0.83501823374E+01  0.31740852104E+02  0.47000000000E+01 0.  1.
<mgrwt>
<rscale>  0 0.10818913E+03</rscale>
<asrwt>0</asrwt>
<pdfrwt beam="1">  1        1 0.31187933E-01 0.10903073E+03</pdfrwt>
<pdfrwt beam="2">  1       -1 0.91087424E-02 0.10903073E+03</pdfrwt>
<totfact> 0.94186723E+03</totfact>
</mgrwt>
</event>
<event>
 8    1  0.5224537E-004  0.1345238E+03  0.7546771E-02  0.1222226E+00
          2   -1    0    0  501    0  0.00000000000E+00  0.00000000000E+00  0.77469337469E+02  0.77469337469E+02  0.00000000000E+00 0. -1.
         -2   -1    0    0    0  501 -0.00000000000E+00 -0.00000000000E+00 -0.33637918525E+03  0.33637918525E+03  0.00000000000E+00 0.  1.
         23    2    1    2    0    0 -0.39034806994E+02  0.84291549173E+02 -0.24610669743E+03  0.27871679213E+03  0.92118197334E+02 0.  0.
         23    2    1    2    0    0  0.39034806994E+02 -0.84291549173E+02 -0.12803150353E+02  0.13513173059E+03  0.97303044829E+02 0.  0.
          5    1    4    4  502    0 -0.22321537407E+02 -0.65304932181E+02  0.13874483184E+01  0.69188150808E+02  0.47000000000E+01 0. -1.
         -5    1    4    4    0  502  0.61356344402E+02 -0.18986616991E+02 -0.14190598671E+02  0.65943579777E+02  0.47000000000E+01 0.  1.
          5    1    3    3  503    0 -0.68140798832E+02  0.70817879544E+02 -0.18706967887E+03  0.21136578550E+03  0.47000000000E+01 0. -1.
         -5    1    3    3    0  503  0.29105991838E+02  0.13473669628E+02 -0.59037018557E+02  0.67351006631E+02  0.47000000000E+01 0.  1.
<mgrwt>
<rscale>  0 0.13358882E+03</rscale>
<asrwt>0</asrwt>
<pdfrwt beam="1">  1        2 0.11918359E-01 0.13452384E+03</pdfrwt>
<pdfrwt beam="2">  1       -2 0.51750645E-01 0.13452384E+03</pdfrwt>
<totfact> 0.17889338E+03</totfact>
</mgrwt>
</event>
<event>
 8    1  0.5224537E-004  0.1212366E+03  0.7546771E-02  0.1241771E+00
         -1   -1    0    0    0  501 -0.00000000000E+00  0.00000000000E+00  0.68726055846E+02  0.68726055846E+02  0.00000000000E+00 0.  1.
          1   -1    0    0  501    0  0.00000000000E+00 -0.00000000000E+00 -0.51173370754E+03  0.51173370754E+03  0.00000000000E+00 0. -1.
         23    2    1    2    0    0  0.44794530042E+02 -0.67267191143E+02 -0.44468764047E+03  0.46091800283E+03  0.90370807361E+02 0.  0.
         23    2    1    2    0    0 -0.44794530042E+02  0.67267191143E+02  0.16799887771E+01  0.11954176055E+03  0.88068071555E+02 0.  0.
          5    1    3    3  502    0 -0.11292537431E+02 -0.54576212978E+02 -0.29966130013E+03  0.30483613503E+03  0.47000000000E+01 0.  1.
         -5    1    4    4    0  503 -0.26389303960E+02  0.28896066202E+02  0.44185585178E+02  0.59210083119E+02  0.47000000000E+01 0.  1.
          5    1    4    4  503    0 -0.18405226082E+02  0.38371124941E+02 -0.42505596401E+02  0.60331677432E+02  0.47000000000E+01 0. -1.
         -5    1    3    3    0  502  0.56087067472E+02 -0.12690978165E+02 -0.14502634034E+03  0.15608186780E+03  0.47000000000E+01 0. -1.
<mgrwt>
<rscale>  0 0.12080765E+03</rscale>
<asrwt>0</asrwt>
<pdfrwt beam="1">  1        1 0.78728262E-01 0.12123658E+03</pdfrwt>
<pdfrwt beam="2">  1       -1 0.10573240E-01 0.12123658E+03</pdfrwt>
<totfact> 0.23847353E+03</totfact>
</mgrwt>
</event>
<event>
 8    1  0.5224537E-004  0.9388347E+02  0.7546771E-02  0.1294835E+00
          1   -1    0    0  501    0  0.00000000000E+00  0.00000000000E+00  0.81124834751E+03  0.81124834751E+03  0.00000000000E+00 0. -1.
         -1   -1    0    0    0  501 -0.00000000000E+00 -0.00000000000E+00 -0.10775820054E+02  0.10775820054E+02  0.00000000000E+00 0.  1.
         23    2    1    2    0    0  0.15632599766E+02 -0.89238288528E+00  0.35017421249E+03  0.36204299610E+03  0.90597888538E+02 0.  0.
         23    2    1    2    0    0 -0.15632599766E+02  0.89238288528E+00  0.45029831497E+03  0.45998117147E+03  0.92568521217E+02 0.  0.
          5    1    3    3  502    0  0.34379237830E+02  0.36127866971E+02  0.18309011719E+03  0.18981895527E+03  0.47000000000E+01 0. -1.
         -5    1    3    3    0  502 -0.18746638064E+02 -0.37020249856E+02  0.16708409530E+03  0.17222404083E+03  0.47000000000E+01 0.  1.
          5    1    4    4  503    0  0.30953161374E+02 -0.36319557733E+01  0.69798753375E+02  0.76584889335E+02  0.47000000000E+01 0. -1.
         -5    1    4    4    0  503 -0.46585761140E+02  0.45243386586E+01  0.38049956159E+03  0.38339628213E+03  0.47000000000E+01 0.  1.
<mgrwt>
<rscale>  0 0.93394044E+02</rscale>
<asrwt>0</asrwt>
<pdfrwt beam="1">  1        1 0.12480739E+00 0.93883468E+02</pdfrwt>
<pdfrwt beam="2">  1       -1 0.16578191E-02 0.93883468E+02</pdfrwt>
<totfact> 0.18736073E+04</totfact>
</mgrwt>
</event>
<event>
 8    1  0.5224537E-004  0.9785583E+02  0.7546771E-02  0.1286718E+00
          1   -1    0    0  501    0  0.00000000000E+00  0.00000000000E+00  0.27373111519E+03  0.27373111519E+03  0.00000000000E+00 0. -1.
         -1   -1    0    0    0  501 -0.00000000000E+00 -0.00000000000E+00 -0.35710244132E+02  0.35710244132E+02  0.00000000000E+00 0.  1.
         23    2    1    2    0    0  0.21595165362E+02  0.31136900620E+02  0.81224211763E+02  0.12461453227E+03  0.86576852157E+02 0.  0.
         23    2    1    2    0    0 -0.21595165362E+02 -0.31136900620E+02  0.15679665929E+03  0.18482682705E+03  0.90221426968E+02 0.  0.
          5    1    4    4  502    0  0.13361012384E+02 -0.20674497443E+02  0.14355586153E+03  0.14572689139E+03  0.47000000000E+01 0. -1.
         -5    1    3    3    0  503 -0.12073499543E+01  0.21761613978E+02 -0.13873810311E+02  0.26260200863E+02  0.47000000000E+01 0.  1.
          5    1    3    3  503    0  0.22802515316E+02  0.93752866424E+01  0.95098022074E+02  0.98354331408E+02  0.47000000000E+01 0. -1.
         -5    1    4    4    0  502 -0.34956177746E+02 -0.10462403177E+02  0.13240797767E+02  0.39099935657E+02  0.47000000000E+01 0.  1.
<mgrwt>
<rscale>  0 0.97007437E+02</rscale>
<asrwt>0</asrwt>
<pdfrwt beam="1">  1        1 0.42112478E-01 0.97855831E+02</pdfrwt>
<pdfrwt beam="2">  1       -1 0.54938839E-02 0.97855831E+02</pdfrwt>
<totfact> 0.13703639E+04</totfact>
</mgrwt>
</event>
<event>
 8    1  0.5224537E-004  0.1127221E+03  0.7546771E-02  0.1256139E+00
         -1   -1    0    0    0  501 -0.00000000000E+00  0.00000000000E+00  0.33277878194E+03  0.33277878194E+03  0.00000000000E+00 0.  1.
          1   -1    0    0  501    0  0.00000000000E+00 -0.00000000000E+00 -0.46761907406E+02  0.46761907406E+02  0.00000000000E+00 0. -1.
         23    2    1    2    0    0 -0.64402624546E+02 -0.13181871793E+02  0.22675301427E+03  0.25322557863E+03  0.91568577590E+02 0.  0.
         23    2    1    2    0    0  0.64402624546E+02  0.13181871793E+02  0.59263860268E+02  0.12631511071E+03  0.90121264242E+02 0.  0.
          5    1    4    4  502    0  0.76338408208E+02 -0.16072098722E+02  0.50995937279E+02  0.93319561422E+02  0.47000000000E+01 0. -1.
         -5    1    3    3    0  503 -0.78994171164E+02 -0.30948600891E+02  0.20186461408E+03  0.21901896583E+03  0.47000000000E+01 0.  1.
          5    1    3    3  503    0  0.14591546618E+02  0.17766729098E+02  0.24888400182E+02  0.34206612798E+02  0.47000000000E+01 0. -1.
         -5    1    4    4    0  502 -0.11935783662E+02  0.29253970515E+02  0.82679229883E+01  0.32995549292E+02  0.47000000000E+01 0.  1.
<mgrwt>
<rscale>  0 0.11242779E+03</rscale>
<asrwt>0</asrwt>
<pdfrwt beam="1">  1        1 0.71941398E-02 0.11272207E+03</pdfrwt>
<pdfrwt beam="2">  1       -1 0.51196734E-01 0.11272207E+03</pdfrwt>
<totfact> 0.37494964E+03</totfact>
</mgrwt>
</event>
<event>
 8    1  0.5224537E-004  0.9716489E+02  0.7546771E-02  0.1288546E+00
         -1   -1    0    0    0  501 -0.00000000000E+00  0.00000000000E+00  0.15215892145E+03  0.15215892145E+03  0.00000000000E+00 0.  1.
          1   -1    0    0  501    0  0.00000000000E+00 -0.00000000000E+00 -0.88832114195E+02  0.88832114195E+02  0.00000000000E+00 0. -1.
         23    2    1    2    0    0  0.26000117583E+02 -0.90597759334E+01 -0.37029467921E+02  0.10398171386E+03  0.93182239017E+02 0.  0.
         23    2    1    2    0    0 -0.26000117583E+02  0.90597759334E+01  0.10035627518E+03  0.13700932179E+03  0.89118385504E+02 0.  0.
          5    1    3    3  502    0  0.48706686854E+02 -0.43319219135E+01  0.11087623150E+02  0.50360026597E+02  0.47000000000E+01 0.  1.
         -5    1    4    4    0  503  0.30077768500E+02  0.18948704930E+02  0.43926646796E+02  0.56704196275E+02  0.47000000000E+01 0.  1.
          5    1    4    4  503    0 -0.56077886084E+02 -0.98889289965E+01  0.56429628382E+02  0.80305125513E+02  0.47000000000E+01 0. -1.
         -5    1    3    3    0  502 -0.22706569270E+02 -0.47278540199E+01 -0.48117091071E+02  0.53621687262E+02  0.47000000000E+01 0. -1.
<mgrwt>
<rscale>  0 0.96177392E+02</rscale>
<asrwt>0</asrwt>
<pdfrwt beam="1">  1        1 0.13666479E-01 0.97164887E+02</pdfrwt>
<pdfrwt beam="2">  1       -1 0.23409065E-01 0.97164887E+02</pdfrwt>
<totfact> 0.60707165E+03</totfact>
</mgrwt>
</event>
<event>
 8    1  0.5224537E-004  0.1036461E+03  0.7546771E-02  0.1273151E+00
          3   -1    0    0  501    0  0.00000000000E+00  0.00000000000E+00  0.98461794779E+02  0.98461794779E+02  0.00000000000E+00 0. -1.
         -3   -1    0    0    0  501 -0.00000000000E+00 -0.00000000000E+00 -0.11679710912E+03  0.11679710912E+03  0.00000000000E+00 0.  1.
         23    2    1    2    0    0 -0.43356712522E+02  0.45755273907E+01 -0.38012363388E+02  0.10976151438E+03  0.93284030232E+02 0.  0.
         23    2    1    2    0    0  0.43356712522E+02 -0.45755273907E+01  0.19677049052E+02  0.10549738952E+03  0.94030702242E+02 0.  0.
          5    1    4    4  502    0  0.16576579664E+02 -0.43059901059E+02  0.32536734866E+02  0.56653924738E+02  0.47000000000E+01 0. -1.
         -5    1    4    4    0  502  0.26780132858E+02  0.38484373668E+02 -0.12859685813E+02  0.48843464780E+02  0.47000000000E+01 0.  1.
          5    1    3    3  503    0 -0.12215151987E+02 -0.29157380403E+02  0.18398948561E+02  0.36877826376E+02  0.47000000000E+01 0. -1.
         -5    1    3    3    0  503 -0.31141560535E+02  0.33732907794E+02 -0.56411311949E+02  0.72883688001E+02  0.47000000000E+01 0.  1.
<mgrwt>
<rscale>  0 0.10347645E+03</rscale>
<asrwt>0</asrwt>
<pdfrwt beam="1">  1        3 0.15147968E-01 0.10364609E+03</pdfrwt>
<pdfrwt beam="2">  1       -3 0.17968786E-01 0.10364609E+03</pdfrwt>
<totfact> 0.21556480E+03</totfact>
</mgrwt>
</event>
<event>
 8    1  0.5224537E-004  0.1116914E+03  0.7546771E-02  0.1266065E+00
         -1   -1    0    0    0  501 -0.00000000000E+00  0.00000000000E+00  0.18046822603E+02  0.18046822603E+02  0.00000000000E+00 0.  1.
          1   -1    0    0  501    0  0.00000000000E+00 -0.00000000000E+00 -0.62882576363E+03  0.62882576363E+03  0.00000000000E+00 0. -1.
         23    2    1    2    0    0  0.22909656803E+02  0.19378020715E+02 -0.19948776298E+03  0.22068554411E+03  0.89478387011E+02 0.  0.
         23    2    1    2    0    0 -0.22909656803E+02 -0.19378020715E+02 -0.41129117805E+03  0.42618704211E+03  0.10758532272E+03 0.  0.
          5    1    3    3  502    0  0.49842834534E+01 -0.29825372907E+02 -0.12997045656E+03  0.13352455029E+03  0.47000000000E+01 0. -1.
         -5    1    3    3    0  502  0.17925373350E+02  0.49203393622E+02 -0.69517306412E+02  0.87160993825E+02  0.47000000000E+01 0.  1.
          5    1    4    4  503    0 -0.20519458713E+02 -0.63654634415E+02 -0.24031638005E+03  0.24949351332E+03  0.47000000000E+01 0. -1.
         -5    1    4    4    0  503 -0.23901980904E+01  0.44276613700E+02 -0.17097479800E+03  0.17669352880E+03  0.47000000000E+01 0.  1.
<mgrwt>
<rscale>  0 0.10708523E+03</rscale>
<asrwt>0</asrwt>
<pdfrwt beam="1">  1        1 0.96742431E-01 0.11169137E+03</pdfrwt>
<pdfrwt beam="2">  1       -1 0.27764341E-02 0.11169137E+03</pdfrwt>
<totfact> 0.13053135E+04</totfact>
</mgrwt>
</event>
<event>
 8    1  0.5224537E-004  0.9534003E+02  0.7546771E-02  0.1290859E+00
          2   -1    0    0  501    0  0.00000000000E+00  0.00000000000E+00  0.34726547624E+03  0.34726547624E+03  0.00000000000E+00 0. -1.
         -2   -1    0    0    0  501 -0.00000000000E+00 -0.00000000000E+00 -0.15598093953E+03  0.15598093953E+03  0.00000000000E+00 0.  1.
         23    2    1    2    0    0  0.28713622544E+01  0.23084694387E+02 -0.13415814386E+03  0.16412599406E+03  0.91639437598E+02 0.  0.
         23    2    1    2    0    0 -0.28713622544E+01 -0.23084694387E+02  0.32544268057E+03  0.33912042172E+03  0.92458500155E+02 0.  0.
          5    1    3    3  502    0  0.88452079200E+01 -0.34756294503E+02 -0.53584114664E+02  0.64649710402E+02  0.47000000000E+01 0. -1.
         -5    1    4    4    0  503 -0.43453873831E+02  0.74392424384E+01  0.15335475692E+03  0.15963506178E+03  0.47000000000E+01 0.  1.
          5    1    4    4  503    0  0.40582511577E+02 -0.30523936825E+02  0.17208792365E+03  0.17948535994E+03  0.47000000000E+01 0. -1.
         -5    1    3    3    0  502 -0.59738456656E+01  0.57840988890E+02 -0.80574029201E+02  0.99476283653E+02  0.47000000000E+01 0.  1.
<mgrwt>
<rscale>  0 0.95140887E+02</rscale>
<asrwt>0</asrwt>
<pdfrwt beam="1">  1        2 0.53425458E-01 0.95340034E+02</pdfrwt>
<pdfrwt beam="2">  1       -2 0.23997068E-01 0.95340034E+02</pdfrwt>
<totfact> 0.13890500E+03</totfact>
</mgrwt>
</event>
<event>
 8    1  0.5224537E-004  0.9414358E+02  0.7546771E-02  0.1294488E+00
          1   -1    0    0  501    0  0.00000000000E+00  0.00000000000E+00  0.42735035112E+03  0.42735035112E+03  0.00000000000E+00 0. -1.
         -1   -1    0    0    0  501 -0.00000000000E+00 -0.00000000000E+00 -0.36218124878E+03  0.36218124878E+03  0.00000000000E+00 0.  1.
         23    2    1    2    0    0  0.99933420823E+00 -0.12970921154E+02 -0.35102496814E+03  0.36282266110E+03  0.90843335956E+02 0.  0.
         23    2    1    2    0    0 -0.99933420823E+00  0.12970921154E+02  0.41619407049E+03  0.42670893880E+03  0.93240391873E+02 0.  0.
          5    1    4    4  502    0  0.20587414273E+02 -0.33862710119E+02  0.23053262110E+03  0.23396133047E+03  0.47000000000E+01 0. -1.
         -5    1    4    4    0  502 -0.21586748482E+02  0.46833631273E+02  0.18566144939E+03  0.19274760833E+03  0.47000000000E+01 0.  1.
          5    1    3    3  503    0  0.20969053595E+02  0.34135652978E+02 -0.16055619943E+03  0.16554554415E+03  0.47000000000E+01 0. -1.
         -5    1    3    3    0  503 -0.19969719386E+02 -0.47106574132E+02 -0.19046876871E+03  0.19727711695E+03  0.47000000000E+01 0.  1.
<mgrwt>
<rscale>  0 0.93544524E+02</rscale>
<asrwt>0</asrwt>
<pdfrwt beam="1">  1        1 0.65746208E-01 0.94143583E+02</pdfrwt>
<pdfrwt beam="2">  1       -1 0.55720192E-01 0.94143583E+02</pdfrwt>
<totfact> 0.19413344E+02</totfact>
</mgrwt>
</event>
<event>
 8    1  0.5224537E-004  0.1037915E+03  0.7546771E-02  0.1277012E+00
          2   -1    0    0  501    0  0.00000000000E+00  0.00000000000E+00  0.34194505274E+03  0.34194505274E+03  0.00000000000E+00 0. -1.
         -2   -1    0    0    0  501 -0.00000000000E+00 -0.00000000000E+00 -0.10512193192E+03  0.10512193192E+03  0.00000000000E+00 0.  1.
         23    2    1    2    0    0  0.34086044376E+02  0.22168855697E+02 -0.70408243961E+02  0.12541927786E+03  0.95495328982E+02 0.  0.
         23    2    1    2    0    0 -0.34086044376E+02 -0.22168855697E+02  0.30723136478E+03  0.32164770680E+03  0.86097730503E+02 0.  0.
          5    1    3    3  502    0  0.33587602778E+02 -0.26195073475E+02 -0.38730464963E+01  0.43027891232E+02  0.47000000000E+01 0. -1.
         -5    1    3    3    0  502  0.49844159800E+00  0.48363929172E+02 -0.66535197464E+02  0.82391386629E+02  0.47000000000E+01 0.  1.
          5    1    4    4  503    0 -0.21982194705E+02 -0.54927915411E+02  0.17441718728E+03  0.18423826420E+03  0.47000000000E+01 0. -1.
         -5    1    4    4    0  503 -0.12103849672E+02  0.32759059714E+02  0.13281417750E+03  0.13740944260E+03  0.47000000000E+01 0.  1.
<mgrwt>
<rscale>  0 0.10157787E+03</rscale>
<asrwt>0</asrwt>
<pdfrwt beam="1">  1        2 0.52606931E-01 0.10379150E+03</pdfrwt>
<pdfrwt beam="2">  1       -2 0.16172605E-01 0.10379150E+03</pdfrwt>
<totfact> 0.27458604E+03</totfact>
</mgrwt>
</event>
<event>
 8    1  0.5224537E-004  0.1102349E+03  0.7546771E-02  0.1263247E+00
          1   -1    0    0  501    0  0.00000000000E+00  0.00000000000E+00  0.13666239765E+02  0.13666239765E+02  0.00000000000E+00 0. -1.
         -1   -1    0    0    0  501 -0.00000000000E+00 -0.00000000000E+00 -0.10030096166E+04  0.10030096166E+04  0.00000000000E+00 0.  1.
         23    2    1    2    0    0  0.38169085592E+02 -0.22200396666E+02 -0.71377258590E+03  0.72223475627E+03  0.10100496069E+03 0.  0.
         23    2    1    2    0    0 -0.38169085592E+02  0.22200396666E+02 -0.27557079099E+03  0.29444110014E+03  0.93843294377E+02 0.  0.
          5    1    4    4  502    0 -0.50166093527E+02  0.40975867192E+02 -0.11340652853E+03  0.13068584217E+03  0.47000000000E+01 0. -1.
         -5    1    4    4    0  502  0.11997007934E+02 -0.18775470526E+02 -0.16216426246E+03  0.16375525797E+03  0.47000000000E+01 0.  1.
          5    1    3    3  503    0 -0.90093585502E+01 -0.52807336675E+02 -0.35609881870E+03  0.36013642142E+03  0.47000000000E+01 0. -1.
         -5    1    3    3    0  503  0.47178444143E+02  0.30606940009E+02 -0.35767376719E+03  0.36209833486E+03  0.47000000000E+01 0.  1.
<mgrwt>
<rscale>  0 0.10856686E+03</rscale>
<asrwt>0</asrwt>
<pdfrwt beam="1">  1        1 0.21024980E-02 0.11023493E+03</pdfrwt>
<pdfrwt beam="2">  1       -1 0.15430920E+00 0.11023493E+03</pdfrwt>
<totfact> 0.18969568E+03</totfact>
</mgrwt>
</event>
<event>
 8    1  0.5224537E-004  0.9627708E+02  0.7546771E-02  0.1289076E+00
          2   -1    0    0  501    0  0.00000000000E+00  0.00000000000E+00  0.65010483418E+03  0.65010483418E+03  0.00000000000E+00 0. -1.
         -2   -1    0    0    0  501 -0.00000000000E+00 -0.00000000000E+00 -0.11902832763E+03  0.11902832763E+03  0.00000000000E+00 0.  1.
         23    2    1    2    0    0 -0.33143026381E+01 -0.32695045549E+02 -0.95380726850E+02  0.13552401952E+03  0.90494896032E+02 0.  0.
         23    2    1    2    0    0  0.33143026381E+01  0.32695045549E+02  0.62645723340E+03  0.63360914229E+03  0.89061379449E+02 0.  0.
          5    1    3    3  502    0 -0.21940772711E+02  0.25271521192E+02 -0.23280407805E+02  0.41037966301E+02  0.47000000000E+01 0. -1.
         -5    1    3    3    0  502  0.18626470073E+02 -0.57966566741E+02 -0.72100319045E+02  0.94486053222E+02  0.47000000000E+01 0.  1.
          5    1    4    4  503    0  0.24482721689E+02  0.56634417066E+02  0.44787856546E+03  0.45213290110E+03  0.47000000000E+01 0. -1.
         -5    1    4    4    0  503 -0.21168419051E+02 -0.23939371517E+02  0.17857866794E+03  0.18147624120E+03  0.47000000000E+01 0.  1.
<mgrwt>
<rscale>  0 0.95938764E+02</rscale>
<asrwt>0</asrwt>
<pdfrwt beam="1">  1        2 0.10001613E+00 0.96277084E+02</pdfrwt>
<pdfrwt beam="2">  1       -2 0.18312051E-01 0.96277084E+02</pdfrwt>
<totfact> 0.11132188E+03</totfact>
</mgrwt>
</event>
<event>
 8    1  0.5224537E-004  0.1014813E+03  0.7546771E-02  0.1279039E+00
         -1   -1    0    0    0  501 -0.00000000000E+00  0.00000000000E+00  0.21880181394E+03  0.21880181394E+03  0.00000000000E+00 0.  1.
          1   -1    0    0  501    0  0.00000000000E+00 -0.00000000000E+00 -0.87586168019E+02  0.87586168019E+02  0.00000000000E+00 0. -1.
         23    2    1    2    0    0  0.33316769555E+02 -0.21624944821E+02  0.17123861913E+03  0.19729951169E+03  0.89592339275E+02 0.  0.
         23    2    1    2    0    0 -0.33316769555E+02  0.21624944821E+02 -0.40022973213E+02  0.10908847027E+03  0.93385280368E+02 0.  0.
          5    1    3    3  502    0  0.21281998901E+02  0.20226346653E+02  0.11860462696E+02  0.32012328118E+02  0.47000000000E+01 0. -1.
         -5    1    4    4    0  503  0.74303095194E+01  0.48535430735E+02 -0.66864132756E+01  0.49776456871E+02  0.47000000000E+01 0.  1.
          5    1    4    4  503    0 -0.40747079074E+02 -0.26910485914E+02 -0.33336559937E+02  0.59312013401E+02  0.47000000000E+01 0. -1.
         -5    1    3    3    0  502  0.12034770654E+02 -0.41851291474E+02  0.15937815644E+03  0.16528718357E+03  0.47000000000E+01 0.  1.
<mgrwt>
<rscale>  0 0.10060012E+03</rscale>
<asrwt>0</asrwt>
<pdfrwt beam="1">  1        1 0.13474795E-01 0.10148131E+03</pdfrwt>
<pdfrwt beam="2">  1       -1 0.33661817E-01 0.10148131E+03</pdfrwt>
<totfact> 0.34019223E+03</totfact>
</mgrwt>
</event>
<event>
 8    1  0.5224537E-004  0.1067042E+03  0.7546771E-02  0.1273375E+00
         -1   -1    0    0    0  501 -0.00000000000E+00  0.00000000000E+00  0.59127817316E+02  0.59127817316E+02  0.00000000000E+00 0.  1.
          1   -1    0    0  501    0  0.00000000000E+00 -0.00000000000E+00 -0.17128033494E+03  0.17128033494E+03  0.00000000000E+00 0. -1.
         23    2    1    2    0    0  0.45057085694E+02 -0.17928148477E+02 -0.68528250678E+02  0.12681444957E+03  0.95048534971E+02 0.  0.
         23    2    1    2    0    0 -0.45057085694E+02  0.17928148477E+02 -0.43624266943E+02  0.10359370268E+03  0.80479929734E+02 0.  0.
          5    1    4    4  502    0 -0.10755213923E+02 -0.17981589763E+02 -0.48925861068E+02  0.53430722231E+02  0.47000000000E+01 0. -1.
         -5    1    4    4    0  502 -0.34301871771E+02  0.35909738240E+02  0.53015941247E+01  0.50162980451E+02  0.47000000000E+01 0.  1.
          5    1    3    3  503    0  0.37455609231E+01 -0.51098700452E+02 -0.21305307935E+02  0.55687633822E+02  0.47000000000E+01 0. -1.
         -5    1    3    3    0  503  0.41311524771E+02  0.33170551976E+02 -0.47222942743E+02  0.71126815749E+02  0.47000000000E+01 0.  1.
<mgrwt>
<rscale>  0 0.10336475E+03</rscale>
<asrwt>0</asrwt>
<pdfrwt beam="1">  1        1 0.26350820E-01 0.10670419E+03</pdfrwt>
<pdfrwt beam="2">  1       -1 0.90965874E-02 0.10670419E+03</pdfrwt>
<totfact> 0.11604212E+04</totfact>
</mgrwt>
</event>
<event>
 8    1  0.5224537E-004  0.1015053E+03  0.7546771E-02  0.1277410E+00
         -1   -1    0    0    0  501 -0.00000000000E+00  0.00000000000E+00  0.73308627474E+03  0.73308627474E+03  0.00000000000E+00 0.  1.
          1   -1    0    0  501    0  0.00000000000E+00 -0.00000000000E+00 -0.14273992527E+02  0.14273992527E+02  0.00000000000E+00 0. -1.
         23    2    1    2    0    0 -0.39519045086E+02  0.22217896426E+02  0.41310614132E+03  0.42539395398E+03  0.90818182309E+02 0.  0.
         23    2    1    2    0    0  0.39519045086E+02 -0.22217896426E+02  0.30570614089E+03  0.32196631329E+03  0.90281074805E+02 0.  0.
          5    1    4    4  502    0  0.33215977931E+02 -0.10638519035E+01  0.29514879072E+03  0.29705105897E+03  0.47000000000E+01 0.  1.
         -5    1    4    4    0  502  0.63030671555E+01 -0.21154044523E+02  0.10557350173E+02  0.24915254322E+02  0.47000000000E+01 0. -1.
          5    1    3    3  503    0 -0.58651481148E+02  0.34072284030E+02  0.20411198591E+03  0.21513881466E+03  0.47000000000E+01 0. -1.
         -5    1    3    3    0  503  0.19132436062E+02 -0.11854387604E+02  0.20899415541E+03  0.21025513932E+03  0.47000000000E+01 0.  1.
<mgrwt>
<rscale>  0 0.10138505E+03</rscale>
<asrwt>0</asrwt>
<pdfrwt beam="1">  1        1 0.21959994E-02 0.10150533E+03</pdfrwt>
<pdfrwt beam="2">  1       -1 0.11278247E+00 0.10150533E+03</pdfrwt>
<totfact> 0.38096138E+03</totfact>
</mgrwt>
</event>
<event>
 8    1  0.5224537E-004  0.1060499E+03  0.7546771E-02  0.1272372E+00
          1   -1    0    0  501    0  0.00000000000E+00  0.00000000000E+00  0.12579534053E+03  0.12579534053E+03  0.00000000000E+00 0. -1.
         -1   -1    0    0    0  501 -0.00000000000E+00 -0.00000000000E+00 -0.84926836907E+02  0.84926836907E+02  0.00000000000E+00 0.  1.
         23    2    1    2    0    0  0.15785660237E+02 -0.56844207381E+00  0.14653146994E+01  0.97588704235E+02  0.96290694522E+02 0.  0.
         23    2    1    2    0    0 -0.15785660237E+02  0.56844207381E+00  0.39403188920E+02  0.11313347320E+03  0.10486687401E+03 0.  0.
          5    1    3    3  502    0 -0.31667934835E+00 -0.30829401951E+02  0.36730599507E+02  0.48184844615E+02  0.47000000000E+01 0. -1.
         -5    1    3    3    0  502  0.16102339585E+02  0.30260959877E+02 -0.35265284808E+02  0.49403859620E+02  0.47000000000E+01 0.  1.
          5    1    4    4  503    0 -0.48200315705E+02 -0.29238838788E+02  0.39238050409E+02  0.68846893377E+02  0.47000000000E+01 0. -1.
         -5    1    4    4    0  503  0.32414655468E+02  0.29807280862E+02  0.16513851096E+00  0.44286579821E+02  0.47000000000E+01 0.  1.
<mgrwt>
<rscale>  0 0.10386523E+03</rscale>
<asrwt>0</asrwt>
<pdfrwt beam="1">  1        1 0.19353129E-01 0.10604985E+03</pdfrwt>
<pdfrwt beam="2">  1       -1 0.13065667E-01 0.10604985E+03</pdfrwt>
<totfact> 0.98313687E+03</totfact>
</mgrwt>
</event>
<event>
 8    1  0.5224537E-004  0.1781707E+03  0.7546771E-02  0.1169709E+00
         -1   -1    0    0    0  501 -0.00000000000E+00  0.00000000000E+00  0.19811515181E+03  0.19811515181E+03  0.00000000000E+00 0.  1.
          1   -1    0    0  501    0  0.00000000000E+00 -0.00000000000E+00 -0.23298257175E+03  0.23298257175E+03  0.00000000000E+00 0. -1.
         23    2    1    2    0    0  0.14778139653E+03  0.40160661515E+02 -0.13827203168E+03  0.22553034816E+03  0.91063512472E+02 0.  0.
         23    2    1    2    0    0 -0.14778139653E+03 -0.40160661515E+02  0.10340461174E+03  0.20556737540E+03  0.90073371254E+02 0.  0.
          5    1    4    4  502    0 -0.54488307120E+01 -0.28151102715E+02  0.39447230934E+02  0.48993350249E+02  0.47000000000E+01 0. -1.
         -5    1    4    4    0  502 -0.14233256582E+03 -0.12009558800E+02  0.63957380801E+02  0.15657402515E+03  0.47000000000E+01 0.  1.
          5    1    3    3  503    0  0.11907386408E+03 -0.35266355737E+01 -0.66179195583E+02  0.13635541131E+03  0.47000000000E+01 0. -1.
         -5    1    3    3    0  503  0.28707532449E+02  0.43687297089E+02 -0.72092836094E+02  0.89174936851E+02  0.47000000000E+01 0.  1.
<mgrwt>
<rscale>  0 0.17804452E+03</rscale>
<asrwt>0</asrwt>
<pdfrwt beam="1">  1        1 0.35843472E-01 0.17817066E+03</pdfrwt>
<pdfrwt beam="2">  1       -1 0.30479254E-01 0.17817066E+03</pdfrwt>
<totfact> 0.11931737E+03</totfact>
</mgrwt>
</event>
<event>
 8    1  0.5224537E-004  0.9642850E+02  0.7546771E-02  0.1290253E+00
          3   -1    0    0  501    0  0.00000000000E+00  0.00000000000E+00  0.38805483977E+02  0.38805483977E+02  0.00000000000E+00 0. -1.
         -3   -1    0    0    0  501 -0.00000000000E+00 -0.00000000000E+00 -0.23964545395E+03  0.23964545395E+03  0.00000000000E+00 0.  1.
         23    2    1    2    0    0  0.28096807297E+01 -0.12976515518E+01 -0.70116654131E+02  0.11601005634E+03  0.92371044054E+02 0.  0.
         23    2    1    2    0    0 -0.28096807297E+01  0.12976515518E+01 -0.13072331585E+03  0.16244088159E+03  0.96378817701E+02 0.  0.
          5    1    4    4  502    0 -0.18988983287E+02 -0.38257202770E+02 -0.28545259107E+02  0.51586014263E+02  0.47000000000E+01 0. -1.
         -5    1    4    4    0  502  0.16179302558E+02  0.39554854322E+02 -0.10217805674E+03  0.11085486733E+03  0.47000000000E+01 0.  1.
          5    1    3    3  503    0  0.34121732167E+02 -0.32413797201E+02 -0.43435704302E+02  0.64216020301E+02  0.47000000000E+01 0. -1.
         -5    1    3    3    0  503 -0.31312051437E+02  0.31116145649E+02 -0.26680949829E+02  0.51794036037E+02  0.47000000000E+01 0.  1.
<mgrwt>
<rscale>  0 0.95411102E+02</rscale>
<asrwt>0</asrwt>
<pdfrwt beam="1">  1        3 0.59700743E-02 0.96428495E+02</pdfrwt>
<pdfrwt beam="2">  1       -3 0.36868532E-01 0.96428495E+02</pdfrwt>
<totfact> 0.26702471E+03</totfact>
</mgrwt>
</event>
<event>
 7    1  0.5224537E-004  0.1946463E+03  0.7546771E-02  0.1183283E+00
         -1   -1    0    0    0  501 -0.00000000000E+00  0.00000000000E+00  0.58092880352E+02  0.58092880352E+02  0.00000000000E+00 0.  1.
          1   -1    0    0  501    0  0.00000000000E+00 -0.00000000000E+00 -0.44129748028E+03  0.44129748028E+03  0.00000000000E+00 0. -1.
         23    2    1    2    0    0 -0.60603444994E+01 -0.39251644228E+02 -0.46568431449E+02  0.11053165151E+03  0.92039164644E+02 0.  0.
          5    1    3    3  502    0  0.19021843396E+02  0.23724344570E+02 -0.58654539243E+01  0.31323610922E+02  0.47000000000E+01 0. -1.
         -5    1    1    2    0  503 -0.47150357706E+02 -0.36886895646E+01 -0.23140198855E+01  0.47583687862E+02  0.47000000000E+01 0.  1.
          5    1    1    2  503    0  0.53210702205E+02  0.42940333793E+02 -0.33432214859E+03  0.34127502126E+03  0.47000000000E+01 0. -1.
         -5    1    3    3    0  502 -0.25082187895E+02 -0.62975988798E+02 -0.40702977525E+02  0.79208040590E+02  0.47000000000E+01 0.  1.
<mgrwt>
<rscale>  0 0.16489139E+03</rscale>
<asrwt>0</asrwt>
<pdfrwt beam="1">  1        1 0.67891920E-01 0.19464631E+03</pdfrwt>
<pdfrwt beam="2">  1       -1 0.89373662E-02 0.19464631E+03</pdfrwt>
<totfact> 0.38033207E+03</totfact>
</mgrwt>
</event>
<event>
 8    1  0.5224537E-004  0.1130324E+03  0.7546771E-02  0.1255908E+00
          1   -1    0    0  501    0  0.00000000000E+00  0.00000000000E+00  0.56095893677E+03  0.56095893677E+03  0.00000000000E+00 0. -1.
         -1   -1    0    0    0  501 -0.00000000000E+00 -0.00000000000E+00 -0.24087684208E+02  0.24087684208E+02  0.00000000000E+00 0.  1.
         23    2    1    2    0    0 -0.58467843373E+02  0.22412294184E+02  0.19302524987E+03  0.22368522910E+03  0.94103852164E+02 0.  0.
         23    2    1    2    0    0  0.58467843373E+02 -0.22412294184E+02  0.34384600269E+03  0.36136139188E+03  0.91821469884E+02 0.  0.
          5    1    3    3  502    0  0.15339023925E+02 -0.21648607225E+02  0.46359148142E+02  0.53620970396E+02  0.47000000000E+01 0. -1.
         -5    1    4    4    0  503 -0.16729037586E+02 -0.30251564076E+02  0.12494946139E+03  0.12972846923E+03  0.47000000000E+01 0.  1.
          5    1    4    4  503    0  0.75196880959E+02  0.78392698915E+01  0.21889654131E+03  0.23163292265E+03  0.47000000000E+01 0. -1.
         -5    1    3    3    0  502 -0.73806867298E+02  0.44060901409E+02  0.14666610173E+03  0.17006425871E+03  0.47000000000E+01 0.  1.
<mgrwt>
<rscale>  0 0.11255620E+03</rscale>
<asrwt>0</asrwt>
<pdfrwt beam="1">  1        1 0.86301365E-01 0.11303245E+03</pdfrwt>
<pdfrwt beam="2">  1       -1 0.37057980E-02 0.11303245E+03</pdfrwt>
<totfact> 0.10021892E+04</totfact>
</mgrwt>
</event>
<event>
 8    1  0.5224537E-004  0.9896619E+02  0.7546771E-02  0.1282852E+00
          1   -1    0    0  501    0  0.00000000000E+00  0.00000000000E+00  0.10777059254E+03  0.10777059254E+03  0.00000000000E+00 0. -1.
         -1   -1    0    0    0  501 -0.00000000000E+00 -0.00000000000E+00 -0.12904095781E+03  0.12904095781E+03  0.00000000000E+00 0.  1.
         23    2    1    2    0    0  0.40070204982E+02  0.28782215518E+01 -0.75578132808E+02  0.12452453983E+03  0.90445571335E+02 0.  0.
         23    2    1    2    0    0 -0.40070204982E+02 -0.28782215518E+01  0.54307767537E+02  0.11228701053E+03  0.89694668913E+02 0.  0.
          5    1    3    3  502    0 -0.25801752479E+02  0.80581977555E+01 -0.52920699463E+01  0.27942100608E+02  0.47000000000E+01 0. -1.
         -5    1    3    3    0  502  0.65871957461E+02 -0.51799762037E+01 -0.70286062861E+02  0.96582439220E+02  0.47000000000E+01 0.  1.
          5    1    4    4  503    0 -0.19124703479E+02 -0.43763087849E+02  0.43702188086E+02  0.64907113515E+02  0.47000000000E+01 0. -1.
         -5    1    4    4    0  503 -0.20945501502E+02  0.40884866297E+02  0.10605579451E+02  0.47379897011E+02  0.47000000000E+01 0.  1.
<mgrwt>
<rscale>  0 0.98794298E+02</rscale>
<asrwt>0</asrwt>
<pdfrwt beam="1">  1        1 0.16580091E-01 0.98966190E+02</pdfrwt>
<pdfrwt beam="2">  1       -1 0.19852455E-01 0.98966190E+02</pdfrwt>
<totfact> 0.61812847E+03</totfact>
</mgrwt>
</event>
<event>
 8    1  0.5224537E-004  0.1292007E+03  0.7546771E-02  0.1237101E+00
          4   -1    0    0  501    0  0.00000000000E+00  0.00000000000E+00  0.15373529483E+03  0.15373529483E+03  0.00000000000E+00 0. -1.
         -4   -1    0    0    0  501 -0.00000000000E+00 -0.00000000000E+00 -0.96690697247E+02  0.96690697247E+02  0.00000000000E+00 0.  1.
         23    2    1    2    0    0  0.35240715161E+02  0.46587937663E+02  0.58486633359E+02  0.14182213681E+03  0.11524100081E+03 0.  0.
         23    2    1    2    0    0 -0.35240715161E+02 -0.46587937663E+02 -0.14420357791E+01  0.10860385526E+03  0.91544382512E+02 0.  0.
          5    1    4    4  502    0 -0.37585507054E+02  0.98150239532E+01  0.24639817421E+02  0.46240843832E+02  0.47000000000E+01 0. -1.
         -5    1    3    3    0  503  0.37279971674E+02 -0.38742137614E+01 -0.24169057255E+02  0.44844611146E+02  0.47000000000E+01 0.  1.
          5    1    3    3  503    0 -0.20392565127E+01  0.50462151424E+02  0.82655690615E+02  0.96977525667E+02  0.47000000000E+01 0. -1.
         -5    1    4    4    0  502  0.23447918930E+01 -0.56402961616E+02 -0.26081853201E+02  0.62363011429E+02  0.47000000000E+01 0.  1.
<mgrwt>
<rscale>  0 0.12370877E+03</rscale>
<asrwt>0</asrwt>
<pdfrwt beam="1">  1        4 0.23651584E-01 0.12920074E+03</pdfrwt>
<pdfrwt beam="2">  1       -4 0.14875492E-01 0.12920074E+03</pdfrwt>
<totfact> 0.10370570E+03</totfact>
</mgrwt>
</event>
<event>
 8    1  0.5224537E-004  0.1471245E+03  0.7546771E-02  0.1207746E+00
         -1   -1    0    0    0  501 -0.00000000000E+00  0.00000000000E+00  0.10318396648E+03  0.10318396648E+03  0.00000000000E+00 0.  1.
          1   -1    0    0  501    0  0.00000000000E+00 -0.00000000000E+00 -0.40025825603E+03  0.40025825603E+03  0.00000000000E+00 0. -1.
         23    2    1    2    0    0 -0.45343921207E+02 -0.90281041519E+02 -0.32628012136E+03  0.35344687009E+03  0.90880331950E+02 0.  0.
         23    2    1    2    0    0  0.45343921207E+02  0.90281041519E+02  0.29205831812E+02  0.14999535242E+03  0.10695273483E+03 0.  0.
          5    1    3    3  502    0 -0.35889573174E+02 -0.58760939847E+02 -0.83172442190E+02  0.10807707738E+03  0.47000000000E+01 0. -1.
         -5    1    3    3    0  502 -0.94543480332E+01 -0.31520101672E+02 -0.24310767917E+03  0.24536979272E+03  0.47000000000E+01 0.  1.
          5    1    4    4  503    0 -0.21460662805E+02  0.89599636438E+01 -0.22451033110E+02  0.32664658030E+02  0.47000000000E+01 0. -1.
         -5    1    4    4    0  503  0.66804584012E+02  0.81321077875E+02  0.51656864922E+02  0.11733069439E+03  0.47000000000E+01 0.  1.
<mgrwt>
<rscale>  0 0.14423157E+03</rscale>
<asrwt>0</asrwt>
<pdfrwt beam="1">  1        1 0.61578193E-01 0.14712452E+03</pdfrwt>
<pdfrwt beam="2">  1       -1 0.15874456E-01 0.14712452E+03</pdfrwt>
<totfact> 0.17503794E+03</totfact>
</mgrwt>
</event>
<event>
 8    1  0.5224537E-004  0.1108879E+03  0.7546771E-02  0.1259079E+00
         -2   -1    0    0    0  501 -0.00000000000E+00  0.00000000000E+00  0.40377194330E+02  0.40377194330E+02  0.00000000000E+00 0.  1.
          2   -1    0    0  501    0  0.00000000000E+00 -0.00000000000E+00 -0.44420954365E+03  0.44420954365E+03  0.00000000000E+00 0. -1.
         23    2    1    2    0    0  0.62987735398E+02  0.61388508415E+01 -0.33800656523E+03  0.35563260038E+03  0.90669553936E+02 0.  0.
         23    2    1    2    0    0 -0.62987735398E+02 -0.61388508415E+01 -0.65825784089E+02  0.12895413760E+03  0.91054903514E+02 0.  0.
          5    1    3    3  502    0  0.18473127358E+02  0.42675419188E+02 -0.21078439586E+03  0.21590414395E+03  0.47000000000E+01 0. -1.
         -5    1    3    3    0  502  0.44514608041E+02 -0.36536568347E+02 -0.12722216937E+03  0.13972845643E+03  0.47000000000E+01 0.  1.
          5    1    4    4  503    0 -0.45416189166E+02  0.27590501631E+02 -0.72544763822E+02  0.90048313569E+02  0.47000000000E+01 0. -1.
         -5    1    4    4    0  503 -0.17571546232E+02 -0.33729352473E+02  0.67189797323E+01  0.38905824036E+02  0.47000000000E+01 0.  1.
<mgrwt>
<rscale>  0 0.11080881E+03</rscale>
<asrwt>0</asrwt>
<pdfrwt beam="1">  1        2 0.68339934E-01 0.11088794E+03</pdfrwt>
<pdfrwt beam="2">  1       -2 0.62118757E-02 0.11088794E+03</pdfrwt>
<totfact> 0.93526928E+03</totfact>
</mgrwt>
</event>
<event>
 8    1  0.5224537E-004  0.1164681E+03  0.7546771E-02  0.1249219E+00
          1   -1    0    0  501    0  0.00000000000E+00  0.00000000000E+00  0.42513846708E+02  0.42513846708E+02  0.00000000000E+00 0. -1.
         -1   -1    0    0    0  501 -0.00000000000E+00 -0.00000000000E+00 -0.32842363468E+03  0.32842363468E+03  0.00000000000E+00 0.  1.
         23    2    1    2    0    0 -0.57168816963E+02 -0.46925109679E+02 -0.17635572158E+03  0.21134370498E+03  0.89969892470E+02 0.  0.
         23    2    1    2    0    0  0.57168816963E+02  0.46925109679E+02 -0.10955406639E+03  0.15959377640E+03  0.89430646046E+02 0.  0.
          5    1    4    4  502    0  0.32226110850E+02  0.45544239966E+02 -0.10038218198E+02  0.56882825520E+02  0.47000000000E+01 0. -1.
         -5    1    3    3    0  503 -0.53192613959E+02  0.63634162311E+01 -0.12910687962E+03  0.13985929934E+03  0.47000000000E+01 0.  1.
          5    1    3    3  503    0 -0.39762030040E+01 -0.53288525910E+02 -0.47248841957E+02  0.71484405644E+02  0.47000000000E+01 0. -1.
         -5    1    4    4    0  502  0.24942706113E+02  0.13808697133E+01 -0.99515848196E+02  0.10271095088E+03  0.47000000000E+01 0.  1.
<mgrwt>
<rscale>  0 0.11636396E+03</rscale>
<asrwt>0</asrwt>
<pdfrwt beam="1">  1        1 0.65405920E-02 0.11646811E+03</pdfrwt>
<pdfrwt beam="2">  1       -1 0.50526711E-01 0.11646811E+03</pdfrwt>
<totfact> 0.43743833E+03</totfact>
</mgrwt>
</event>
<event>
 8    1  0.5224537E-004  0.1905635E+03  0.7546771E-02  0.1158027E+00
          1   -1    0    0  501    0  0.00000000000E+00  0.00000000000E+00  0.12565396337E+03  0.12565396337E+03  0.00000000000E+00 0. -1.
         -1   -1    0    0    0  501 -0.00000000000E+00 -0.00000000000E+00 -0.29030952125E+03  0.29030952125E+03  0.00000000000E+00 0.  1.
         23    2    1    2    0    0 -0.16153033537E+03  0.42316570335E+02 -0.65880098326E+02  0.20132186954E+03  0.91145852513E+02 0.  0.
         23    2    1    2    0    0  0.16153033537E+03 -0.42316570335E+02 -0.98775459548E+02  0.21464161508E+03  0.91824235065E+02 0.  0.
          5    1    4    4  502    0  0.75606334184E+02 -0.66204547329E+02 -0.61157126966E+02  0.11773548333E+03  0.47000000000E+01 0. -1.
         -5    1    3    3    0  503 -0.24482466438E+02 -0.13886913045E+02  0.15263807385E+02  0.32362189863E+02  0.47000000000E+01 0.  1.
          5    1    3    3  503    0 -0.13704786893E+03  0.56203483380E+02 -0.81143905711E+02  0.16895967968E+03  0.47000000000E+01 0. -1.
         -5    1    4    4    0  502  0.85924001185E+02  0.23887976995E+02 -0.37618332583E+02  0.96906131751E+02  0.47000000000E+01 0.  1.
<mgrwt>
<rscale>  0 0.19048192E+03</rscale>
<asrwt>0</asrwt>
<pdfrwt beam="1">  1        1 0.19331379E-01 0.19056346E+03</pdfrwt>
<pdfrwt beam="2">  1       -1 0.44663002E-01 0.19056346E+03</pdfrwt>
<totfact> 0.13389517E+03</totfact>
</mgrwt>
</event>
<event>
 8    1  0.5224537E-004  0.1202209E+03  0.7546771E-02  0.1243497E+00
          2   -1    0    0  501    0  0.00000000000E+00  0.00000000000E+00  0.24586625476E+02  0.24586625476E+02  0.00000000000E+00 0. -1.
         -2   -1    0    0    0  501 -0.00000000000E+00 -0.00000000000E+00 -0.71610542260E+03  0.71610542260E+03  0.00000000000E+00 0.  1.
         23    2    1    2    0    0 -0.55482084403E+02 -0.53209765036E+02 -0.18147890900E+03  0.21667511378E+03  0.90022051371E+02 0.  0.
         23    2    1    2    0    0  0.55482084403E+02  0.53209765036E+02 -0.51003988812E+03  0.52401693430E+03  0.92431159091E+02 0.  0.
          5    1    4    4  502    0 -0.32553663658E+01  0.50502837438E+02 -0.34559856424E+03  0.34931589086E+03  0.47000000000E+01 0. -1.
         -5    1    3    3    0  503 -0.26068882960E+02  0.23217805433E+02 -0.68908657873E+02  0.77389574736E+02  0.47000000000E+01 0.  1.
          5    1    3    3  503    0 -0.29413201444E+02 -0.76427570469E+02 -0.11257025113E+03  0.13928553904E+03  0.47000000000E+01 0. -1.
         -5    1    4    4    0  502  0.58737450769E+02  0.27069275980E+01 -0.16444132388E+03  0.17470104344E+03  0.47000000000E+01 0.  1.
<mgrwt>
<rscale>  0 0.11975766E+03</rscale>
<asrwt>0</asrwt>
<pdfrwt beam="1">  1        2 0.37825579E-02 0.12022088E+03</pdfrwt>
<pdfrwt beam="2">  1       -2 0.11017006E+00 0.12022088E+03</pdfrwt>
<totfact> 0.14910525E+03</totfact>
</mgrwt>
</event>
<event>
 8    1  0.6027226E-004  0.9944277E+02  0.7546771E-02  0.1286496E+00
          1   -1    0    0  501    0  0.00000000000E+00  0.00000000000E+00  0.13761301394E+03  0.13761301394E+03  0.00000000000E+00 0. -1.
         -1   -1    0    0    0  501 -0.00000000000E+00 -0.00000000000E+00 -0.11656080338E+03  0.11656080338E+03  0.00000000000E+00 0.  1.
         23    2    1    2    0    0  0.11672941420E+02  0.14426135130E+02  0.94871368269E+02  0.13743886228E+03  0.97695923201E+02 0.  0.
         23    2    1    2    0    0 -0.11672941420E+02 -0.14426135130E+02 -0.73819157716E+02  0.11673495504E+03  0.88506557650E+02 0.  0.
          5    1    3    3  502    0 -0.23321950253E+02  0.43264665309E+02  0.28783148605E+02  0.57151590280E+02  0.47000000000E+01 0. -1.
         -5    1    3    3    0  502  0.34994891673E+02 -0.28838530179E+02  0.66088219664E+02  0.80287271995E+02  0.47000000000E+01 0.  1.
          5    1    4    4  503    0 -0.39514446077E+02  0.34189815682E+01 -0.50170475985E+01  0.40253467557E+02  0.47000000000E+01 0. -1.
         -5    1    4    4    0  503  0.27841504657E+02 -0.17845116698E+02 -0.68802110117E+02  0.76481487486E+02  0.47000000000E+01 0.  1.
<mgrwt>
<rscale>  0 0.97108970E+02</rscale>
<asrwt>0</asrwt>
<pdfrwt beam="1">  1        1 0.21171233E-01 0.99442769E+02</pdfrwt>
<pdfrwt beam="2">  1       -1 0.17932431E-01 0.99442769E+02</pdfrwt>
<totfact> 0.53331326E+03</totfact>
</mgrwt>
</event>
<event>
 8    1  0.5224537E-004  0.1063120E+03  0.7546771E-02  0.1268731E+00
          2   -1    0    0  501    0  0.00000000000E+00  0.00000000000E+00  0.18708504116E+03  0.18708504116E+03  0.00000000000E+00 0. -1.
         -2   -1    0    0    0  501 -0.00000000000E+00 -0.00000000000E+00 -0.88601004144E+02  0.88601004144E+02  0.00000000000E+00 0.  1.
         23    2    1    2    0    0 -0.27249535583E+02  0.46366558140E+02  0.12846034187E+03  0.16522869358E+03  0.88916066307E+02 0.  0.
         23    2    1    2    0    0  0.27249535583E+02 -0.46366558140E+02 -0.29976304853E+02  0.11045735172E+03  0.91705249539E+02 0.  0.
          5    1    3    3  502    0 -0.45466844034E+02 -0.51958089536E+01  0.78613580412E+02  0.91084660411E+02  0.47000000000E+01 0. -1.
         -5    1    3    3    0  502  0.18217308451E+02  0.51562367094E+02  0.49846761457E+02  0.74144033173E+02  0.47000000000E+01 0.  1.
          5    1    4    4  503    0 -0.14248286301E+02 -0.60371551169E+02 -0.15792567967E+02  0.64181251593E+02  0.47000000000E+01 0. -1.
         -5    1    4    4    0  503  0.41497821884E+02  0.14004993029E+02 -0.14183736886E+02  0.46276100126E+02  0.47000000000E+01 0.  1.
<mgrwt>
<rscale>  0 0.10570780E+03</rscale>
<asrwt>0</asrwt>
<pdfrwt beam="1">  1        2 0.28782314E-01 0.10631203E+03</pdfrwt>
<pdfrwt beam="2">  1       -2 0.13630924E-01 0.10631203E+03</pdfrwt>
<totfact> 0.68715675E+03</totfact>
</mgrwt>
</event>
<event>
 8    1  0.5224537E-004  0.1037125E+03  0.7546771E-02  0.1274332E+00
          1   -1    0    0  501    0  0.00000000000E+00  0.00000000000E+00  0.60606363950E+03  0.60606363950E+03  0.00000000000E+00 0. -1.
         -1   -1    0    0    0  501 -0.00000000000E+00 -0.00000000000E+00 -0.25655657237E+02  0.25655657237E+02  0.00000000000E+00 0.  1.
         23    2    1    2    0    0 -0.10750763333E+02  0.40989306787E+02  0.11194095406E+03  0.15260096595E+03  0.94660316027E+02 0.  0.
         23    2    1    2    0    0  0.10750763333E+02 -0.40989306787E+02  0.46846702820E+03  0.47911833078E+03  0.91089605329E+02 0.  0.
          5    1    3    3  502    0  0.24346624013E+02 -0.17821065827E+02  0.57040236516E+02  0.64699513675E+02  0.47000000000E+01 0. -1.
         -5    1    4    4    0  503 -0.35087068307E+02 -0.31659008354E+02  0.31655851946E+03  0.32010120496E+03  0.47000000000E+01 0.  1.
          5    1    4    4  503    0  0.45837831641E+02 -0.93302984330E+01  0.15190850874E+03  0.15901712582E+03  0.47000000000E+01 0. -1.
         -5    1    3    3    0  502 -0.35097387346E+02  0.58810372614E+02  0.54900717548E+02  0.87901452280E+02  0.47000000000E+01 0.  1.
<mgrwt>
<rscale>  0 0.10289064E+03</rscale>
<asrwt>0</asrwt>
<pdfrwt beam="1">  1        1 0.93240549E-01 0.10371248E+03</pdfrwt>
<pdfrwt beam="2">  1       -1 0.39470246E-02 0.10371248E+03</pdfrwt>
<totfact> 0.81918459E+03</totfact>
</mgrwt>
</event>
<event>
 8    1  0.5224537E-004  0.9381534E+02  0.7546771E-02  0.1293906E+00
          1   -1    0    0  501    0  0.00000000000E+00  0.00000000000E+00  0.44606707330E+03  0.44606707330E+03  0.00000000000E+00 0. -1.
         -1   -1    0    0    0  501 -0.00000000000E+00 -0.00000000000E+00 -0.91807094198E+02  0.91807094198E+02  0.00000000000E+00 0.  1.
         23    2    1    2    0    0  0.59734113026E+01 -0.24193308973E+02 -0.61199442401E+02  0.11195416427E+03  0.90373476777E+02 0.  0.
         23    2    1    2    0    0 -0.59734113026E+01  0.24193308973E+02  0.41545942150E+03  0.42592000323E+03  0.90445123673E+02 0.  0.
          5    1    4    4  502    0 -0.10981368005E+02  0.43996604792E+02  0.39125187930E+03  0.39389899052E+03  0.47000000000E+01 0. -1.
         -5    1    3    3    0  503  0.47886490056E+01 -0.58602086040E+02 -0.39403847100E+02  0.70935807698E+02  0.47000000000E+01 0.  1.
          5    1    3    3  503    0  0.11847622971E+01  0.34408777068E+02 -0.21795595301E+02  0.41018356568E+02  0.47000000000E+01 0. -1.
         -5    1    4    4    0  502  0.50079567024E+01 -0.19803295819E+02  0.24207542202E+02  0.32021012712E+02  0.47000000000E+01 0.  1.
<mgrwt>
<rscale>  0 0.93798069E+02</rscale>
<asrwt>0</asrwt>
<pdfrwt beam="1">  1        1 0.68625702E-01 0.93815341E+02</pdfrwt>
<pdfrwt beam="2">  1       -1 0.14124169E-01 0.93815341E+02</pdfrwt>
<totfact> 0.18073290E+03</totfact>
</mgrwt>
</event>
<event>
 8    1  0.5224537E-004  0.1389634E+03  0.7546771E-02  0.1219771E+00
         -3   -1    0    0    0  501 -0.00000000000E+00  0.00000000000E+00  0.95081718841E+02  0.95081718841E+02  0.00000000000E+00 0.  1.
          3   -1    0    0  501    0  0.00000000000E+00 -0.00000000000E+00 -0.21695823021E+03  0.21695823021E+03  0.00000000000E+00 0. -1.
         23    2    1    2    0    0  0.67723025759E+02  0.51666956480E+02  0.33294406663E+01  0.12499090397E+03  0.91409836948E+02 0.  0.
         23    2    1    2    0    0 -0.67723025759E+02 -0.51666956480E+02 -0.12520595203E+03  0.18704904508E+03  0.10979495539E+03 0.  0.
          5    1    4    4  502    0 -0.83001228920E+02 -0.70723683162E+02 -0.79560924272E+02  0.13506692428E+03  0.47000000000E+01 0. -1.
         -5    1    4    4    0  502  0.15278203161E+02  0.19056726682E+02 -0.45645027760E+02  0.51982120800E+02  0.47000000000E+01 0.  1.
          5    1    3    3  503    0  0.58652163665E+02 -0.57098519713E+01 -0.19720383084E+02  0.62319035785E+02  0.47000000000E+01 0. -1.
         -5    1    3    3    0  503  0.90708620933E+01  0.57376808452E+02  0.23049823750E+02  0.62671868188E+02  0.47000000000E+01 0.  1.
<mgrwt>
<rscale>  0 0.13531823E+03</rscale>
<asrwt>0</asrwt>
<pdfrwt beam="1">  1        3 0.33378189E-01 0.13896336E+03</pdfrwt>
<pdfrwt beam="2">  1       -3 0.14627957E-01 0.13896336E+03</pdfrwt>
<totfact> 0.78979410E+02</totfact>
</mgrwt>
</event>
<event>
 8    1  0.5224537E-004  0.1694722E+03  0.7546771E-02  0.1178846E+00
         -1   -1    0    0    0  501 -0.00000000000E+00  0.00000000000E+00  0.14541282607E+03  0.14541282607E+03  0.00000000000E+00 0.  1.
          1   -1    0    0  501    0  0.00000000000E+00 -0.00000000000E+00 -0.25232429249E+03  0.25232429249E+03  0.00000000000E+00 0. -1.
         23    2    1    2    0    0  0.98943556504E+02 -0.10044083521E+03 -0.14758659467E+03  0.22345202684E+03  0.90944030170E+02 0.  0.
         23    2    1    2    0    0 -0.98943556504E+02  0.10044083521E+03  0.40675128250E+02  0.17428509172E+03  0.94035303941E+02 0.  0.
          5    1    3    3  502    0  0.75431978500E+02 -0.10983705519E+03 -0.91409912073E+02  0.16165402593E+03  0.47000000000E+01 0. -1.
         -5    1    4    4    0  503 -0.81831840630E+02  0.11140942434E+03  0.55139833752E+02  0.14889929899E+03  0.47000000000E+01 0.  1.
          5    1    4    4  503    0 -0.17111715874E+02 -0.10968589128E+02 -0.14464705502E+02  0.25385792737E+02  0.47000000000E+01 0. -1.
         -5    1    3    3    0  502  0.23511578004E+02  0.93962199774E+01 -0.56176682596E+02  0.61798000919E+02  0.47000000000E+01 0.  1.
<mgrwt>
<rscale>  0 0.16904671E+03</rscale>
<asrwt>0</asrwt>
<pdfrwt beam="1">  1        1 0.38819121E-01 0.16947220E+03</pdfrwt>
<pdfrwt beam="2">  1       -1 0.22371204E-01 0.16947220E+03</pdfrwt>
<totfact> 0.18040246E+03</totfact>
</mgrwt>
</event>
<event>
 8    1  0.5224537E-004  0.9419035E+02  0.7546771E-02  0.1310986E+00
         -1   -1    0    0    0  501 -0.00000000000E+00  0.00000000000E+00  0.35561448467E+03  0.35561448467E+03  0.00000000000E+00 0.  1.
          1   -1    0    0  501    0  0.00000000000E+00 -0.00000000000E+00 -0.18798053399E+02  0.18798053399E+02  0.00000000000E+00 0. -1.
         23    2    1    2    0    0  0.23171983505E+02 -0.13031795526E+02  0.16931631924E+03  0.19375200229E+03  0.90360687884E+02 0.  0.
         23    2    1    2    0    0 -0.23171983505E+02  0.13031795526E+02  0.16750011203E+03  0.18066053578E+03  0.62250888705E+02 0.  0.
          5    1    3    3  502    0 -0.32742767593E+02 -0.18165795461E+02  0.63452264403E+02  0.73826586080E+02  0.47000000000E+01 0. -1.
         -5    1    4    4    0  503 -0.59767980081E+01 -0.24750296918E+02  0.66340090153E+02  0.71213740762E+02  0.47000000000E+01 0.  1.
          5    1    4    4  503    0 -0.17195185497E+02  0.37782092444E+02  0.10116002188E+03  0.10944679502E+03  0.47000000000E+01 0. -1.
         -5    1    3    3    0  502  0.55914751099E+02  0.51339999351E+01  0.10586405484E+03  0.11992541620E+03  0.47000000000E+01 0.  1.
<mgrwt>
<rscale>  0 0.86723343E+02</rscale>
<asrwt>0</asrwt>
<pdfrwt beam="1">  1        1 0.28920085E-02 0.94190352E+02</pdfrwt>
<pdfrwt beam="2">  1       -1 0.54709916E-01 0.94190352E+02</pdfrwt>
<totfact> 0.11277280E+04</totfact>
</mgrwt>
</event>
<event>
 8    1  0.5224537E-004  0.9278079E+02  0.7546771E-02  0.1296543E+00
          2   -1    0    0  501    0  0.00000000000E+00  0.00000000000E+00  0.15252523261E+03  0.15252523261E+03  0.00000000000E+00 0. -1.
         -2   -1    0    0    0  501 -0.00000000000E+00 -0.00000000000E+00 -0.58633981063E+02  0.58633981063E+02  0.00000000000E+00 0.  1.
         23    2    1    2    0    0  0.10645793835E+02  0.61244482956E+00  0.25037727784E+02  0.95620981886E+02  0.91666658875E+02 0.  0.
         23    2    1    2    0    0 -0.10645793835E+02 -0.61244482956E+00  0.68853523768E+02  0.11553823179E+03  0.92165976668E+02 0.  0.
          5    1    3    3  502    0 -0.34662750611E+02 -0.15155994813E+02 -0.55609700764E+01  0.38525638825E+02  0.47000000000E+01 0. -1.
         -5    1    4    4    0  503 -0.40298978588E+02  0.26626575803E+02  0.21153500785E+02  0.52939048062E+02  0.47000000000E+01 0.  1.
          5    1    4    4  503    0  0.29653184753E+02 -0.27239020632E+02  0.47700022983E+02  0.62599183729E+02  0.47000000000E+01 0. -1.
         -5    1    3    3    0  502  0.45308544446E+02  0.15768439642E+02  0.30598697860E+02  0.57095343061E+02  0.47000000000E+01 0.  1.
<mgrwt>
<rscale>  0 0.92656544E+02</rscale>
<asrwt>0</asrwt>
<pdfrwt beam="1">  1        2 0.23465420E-01 0.92780791E+02</pdfrwt>
<pdfrwt beam="2">  1       -2 0.90206126E-02 0.92780791E+02</pdfrwt>
<totfact> 0.16233703E+04</totfact>
</mgrwt>
</event>
<event>
 8    1  0.5224537E-004  0.1128202E+03  0.7546771E-02  0.1255627E+00
         -1   -1    0    0    0  501 -0.00000000000E+00  0.00000000000E+00  0.12009640432E+03  0.12009640432E+03  0.00000000000E+00 0.  1.
          1   -1    0    0  501    0  0.00000000000E+00 -0.00000000000E+00 -0.18000880465E+03  0.18000880465E+03  0.00000000000E+00 0. -1.
         23    2    1    2    0    0  0.16048572961E+02 -0.65103374718E+02  0.66495670185E+02  0.13095828941E+03  0.90732537259E+02 0.  0.
         23    2    1    2    0    0 -0.16048572961E+02  0.65103374718E+02 -0.12640807052E+03  0.16914691957E+03  0.90197971222E+02 0.  0.
          5    1    4    4  502    0 -0.52090494324E+02  0.48055225210E+02 -0.68445803515E+02  0.98638949141E+02  0.47000000000E+01 0. -1.
         -5    1    4    4    0  502  0.36041921363E+02  0.17048149508E+02 -0.57962267003E+02  0.70507970424E+02  0.47000000000E+01 0.  1.
          5    1    3    3  503    0  0.26160392930E+02 -0.46756192272E+02 -0.71415759166E+01  0.54254951669E+02  0.47000000000E+01 0. -1.
         -5    1    3    3    0  503 -0.10111819969E+02 -0.18347182446E+02  0.73637246102E+02  0.76703337739E+02  0.47000000000E+01 0.  1.
<mgrwt>
<rscale>  0 0.11271269E+03</rscale>
<asrwt>0</asrwt>
<pdfrwt beam="1">  1        1 0.27693662E-01 0.11282021E+03</pdfrwt>
<pdfrwt beam="2">  1       -1 0.18476370E-01 0.11282021E+03</pdfrwt>
<totfact> 0.36684312E+03</totfact>
</mgrwt>
</event>
<event>
 8    1  0.5224537E-004  0.1098342E+03  0.7546771E-02  0.1263107E+00
         -1   -1    0    0    0  501 -0.00000000000E+00  0.00000000000E+00  0.80614664165E+02  0.80614664165E+02  0.00000000000E+00 0.  1.
          1   -1    0    0  501    0  0.00000000000E+00 -0.00000000000E+00 -0.22105933867E+03  0.22105933867E+03  0.00000000000E+00 0. -1.
         23    2    1    2    0    0 -0.55713724751E+02 -0.79164994268E+01 -0.15866460556E+03  0.19033885362E+03  0.88812904747E+02 0.  0.
         23    2    1    2    0    0  0.55713724751E+02  0.79164994268E+01  0.18219931054E+02  0.11133514922E+03  0.94323165104E+02 0.  0.
          5    1    3    3  502    0 -0.24646570276E+02  0.26542892891E+02 -0.13126412783E+03  0.13625101778E+03  0.47000000000E+01 0. -1.
         -5    1    4    4    0  503  0.49777326615E+02 -0.38311683889E+02  0.10643321671E+02  0.63882217115E+02  0.47000000000E+01 0.  1.
          5    1    4    4  503    0  0.59363981361E+01  0.46228183316E+02  0.75766093834E+01  0.47452932104E+02  0.47000000000E+01 0. -1.
         -5    1    3    3    0  502 -0.31067154475E+02 -0.34459392317E+02 -0.27400477725E+02  0.54087835838E+02  0.47000000000E+01 0.  1.
<mgrwt>
<rscale>  0 0.10864135E+03</rscale>
<asrwt>0</asrwt>
<pdfrwt beam="1">  1        1 0.34009129E-01 0.10983419E+03</pdfrwt>
<pdfrwt beam="2">  1       -1 0.12402256E-01 0.10983419E+03</pdfrwt>
<totfact> 0.52933679E+03</totfact>
</mgrwt>
</event>
<event>
 8    1  0.5224537E-004  0.1957192E+03  0.7546771E-02  0.1153704E+00
          4   -1    0    0  501    0  0.00000000000E+00  0.00000000000E+00  0.50933435914E+03  0.50933435914E+03  0.00000000000E+00 0. -1.
         -4   -1    0    0    0  501 -0.00000000000E+00 -0.00000000000E+00 -0.80482488453E+02  0.80482488453E+02  0.00000000000E+00 0.  1.
         23    2    1    2    0    0  0.16907192758E+03  0.30469393298E+02  0.29292919410E+03  0.35152922095E+03  0.90838206738E+02 0.  0.
         23    2    1    2    0    0 -0.16907192758E+03 -0.30469393298E+02  0.13592267659E+03  0.23828762664E+03  0.93767363062E+02 0.  0.
          5    1    3    3  502    0  0.37181801123E+02  0.41973381006E+02  0.12917885787E+03  0.14090251371E+03  0.47000000000E+01 0. -1.
         -5    1    4    4    0  503 -0.15160869103E+03 -0.54556637902E+02  0.93787077655E+02  0.18649323813E+03  0.47000000000E+01 0.  1.
          5    1    4    4  503    0 -0.17463236553E+02  0.24087244604E+02  0.42135598931E+02  0.51794388506E+02  0.47000000000E+01 0. -1.
         -5    1    3    3    0  502  0.13189012646E+03 -0.11503987708E+02  0.16375033623E+03  0.21062670725E+03  0.47000000000E+01 0.  1.
<mgrwt>
<rscale>  0 0.19537173E+03</rscale>
<asrwt>0</asrwt>
<pdfrwt beam="1">  1        4 0.78359130E-01 0.19571924E+03</pdfrwt>
<pdfrwt beam="2">  1       -4 0.12381922E-01 0.19571924E+03</pdfrwt>
<totfact> 0.13886553E+02</totfact>
</mgrwt>
</event>
<event>
 8    1  0.5224537E-004  0.9447161E+02  0.7546771E-02  0.1294172E+00
          2   -1    0    0  501    0  0.00000000000E+00  0.00000000000E+00  0.84746707610E+03  0.84746707610E+03  0.00000000000E+00 0. -1.
         -2   -1    0    0    0  501 -0.00000000000E+00 -0.00000000000E+00 -0.10190277208E+02  0.10190277208E+02  0.00000000000E+00 0.  1.
         23    2    1    2    0    0 -0.11993574231E+02 -0.18562731766E+02  0.41737766470E+03  0.42793574233E+03  0.91850224519E+02 0.  0.
         23    2    1    2    0    0  0.11993574231E+02  0.18562731766E+02  0.41989913420E+03  0.42972161098E+03  0.88639490117E+02 0.  0.
          5    1    4    4  502    0  0.36858285162E+02  0.12760761494E+02  0.38059450147E+03  0.38261682500E+03  0.47000000000E+01 0. -1.
         -5    1    3    3    0  503 -0.32419484967E+02  0.25611690276E+02  0.13183973483E+03  0.13824177142E+03  0.47000000000E+01 0.  1.
          5    1    3    3  503    0  0.20425910737E+02 -0.44174422043E+02  0.28553792986E+03  0.28969397091E+03  0.47000000000E+01 0. -1.
         -5    1    4    4    0  502 -0.24864710932E+02  0.58019702727E+01  0.39304632726E+02  0.47104785983E+02  0.47000000000E+01 0.  1.
<mgrwt>
<rscale>  0 0.93682127E+02</rscale>
<asrwt>0</asrwt>
<pdfrwt beam="1">  1        2 0.13037950E+00 0.94471607E+02</pdfrwt>
<pdfrwt beam="2">  1       -2 0.15677356E-02 0.94471607E+02</pdfrwt>
<totfact> 0.33111959E+04</totfact>
</mgrwt>
</event>
<event>
 8    1  0.5224537E-004  0.1042147E+03  0.7546771E-02  0.1272838E+00
          1   -1    0    0  501    0  0.00000000000E+00  0.00000000000E+00  0.32568074512E+03  0.32568074512E+03  0.00000000000E+00 0. -1.
         -1   -1    0    0    0  501 -0.00000000000E+00 -0.00000000000E+00 -0.32645007804E+02  0.32645007804E+02  0.00000000000E+00 0.  1.
         23    2    1    2    0    0 -0.50518586696E+02 -0.26786627337E+01  0.14249359874E+03  0.17653647187E+03  0.91112004599E+02 0.  0.
         23    2    1    2    0    0  0.50518586696E+02  0.26786627337E+01  0.15054213858E+03  0.18178928106E+03  0.88459620078E+02 0.  0.
          5    1    4    4  502    0  0.32171779489E+01 -0.30847463051E+02  0.99751407348E+02  0.10456743986E+03  0.47000000000E+01 0. -1.
         -5    1    3    3    0  503 -0.20947913246E+02  0.35664319324E+02  0.11108788621E+03  0.11863122357E+03  0.47000000000E+01 0.  1.
          5    1    3    3  503    0 -0.29570673450E+02 -0.38342982058E+02  0.31405712526E+02  0.57905248300E+02  0.47000000000E+01 0. -1.
         -5    1    4    4    0  502  0.47301408747E+02  0.33526125785E+02  0.50790731235E+02  0.77221841205E+02  0.47000000000E+01 0.  1.
<mgrwt>
<rscale>  0 0.10363212E+03</rscale>
<asrwt>0</asrwt>
<pdfrwt beam="1">  1        1 0.50104728E-01 0.10421468E+03</pdfrwt>
<pdfrwt beam="2">  1       -1 0.50223091E-02 0.10421468E+03</pdfrwt>
<totfact> 0.12709790E+04</totfact>
</mgrwt>
</event>
<event>
 8    1  0.5224537E-004  0.1038018E+03  0.7546771E-02  0.1273079E+00
          2   -1    0    0  501    0  0.00000000000E+00  0.00000000000E+00  0.15125017222E+03  0.15125017222E+03  0.00000000000E+00 0. -1.
         -2   -1    0    0    0  501 -0.00000000000E+00 -0.00000000000E+00 -0.72522266105E+02  0.72522266105E+02  0.00000000000E+00 0.  1.
         23    2    1    2    0    0  0.44500074138E+02  0.18418741607E+02  0.20661518883E+02  0.10583818422E+03  0.91952793522E+02 0.  0.
         23    2    1    2    0    0 -0.44500074138E+02 -0.18418741607E+02  0.58066387231E+02  0.11793425410E+03  0.90649193731E+02 0.  0.
          5    1    3    3  502    0  0.71908655403E+01  0.21689569707E+02  0.51861345750E+02  0.56866819538E+02  0.47000000000E+01 0. -1.
         -5    1    3    3    0  502  0.37309208597E+02 -0.32708281001E+01 -0.31199826867E+02  0.48971364685E+02  0.47000000000E+01 0.  1.
          5    1    4    4  503    0  0.39324776191E+01  0.23695867127E+02 -0.79565455016E+01  0.25736260712E+02  0.47000000000E+01 0. -1.
         -5    1    4    4    0  503 -0.48432551757E+02 -0.42114608734E+02  0.66022932733E+02  0.92197993390E+02  0.47000000000E+01 0.  1.
<mgrwt>
<rscale>  0 0.10351238E+03</rscale>
<asrwt>0</asrwt>
<pdfrwt beam="1">  1        2 0.23269257E-01 0.10380184E+03</pdfrwt>
<pdfrwt beam="2">  1       -2 0.11157272E-01 0.10380184E+03</pdfrwt>
<totfact> 0.11891461E+04</totfact>
</mgrwt>
</event>
<event>
 8    1  0.5224537E-004  0.1698874E+03  0.7546771E-02  0.1179925E+00
          1   -1    0    0  501    0  0.00000000000E+00  0.00000000000E+00  0.75705040999E+03  0.75705040999E+03  0.00000000000E+00 0. -1.
         -1   -1    0    0    0  501 -0.00000000000E+00 -0.00000000000E+00 -0.37790502226E+02  0.37790502226E+02  0.00000000000E+00 0.  1.
         23    2    1    2    0    0  0.14357872607E+03  0.11307393813E+01  0.44082730579E+03  0.47243035428E+03  0.90805269483E+02 0.  0.
         23    2    1    2    0    0 -0.14357872607E+03 -0.11307393813E+01  0.27843260198E+03  0.32241055794E+03  0.76208430452E+02 0.  0.
          5    1    4    4  502    0 -0.95599503061E+02  0.31753550909E+02  0.20629515649E+03  0.22962433358E+03  0.47000000000E+01 0. -1.
         -5    1    3    3    0  503  0.75892038899E+01 -0.28823640099E+02  0.91284301345E+02  0.96142144330E+02  0.47000000000E+01 0.  1.
          5    1    3    3  503    0  0.13598952218E+03  0.29954379481E+02  0.34954300444E+03  0.37628820995E+03  0.47000000000E+01 0. -1.
         -5    1    4    4    0  502 -0.47979223014E+02 -0.32884290290E+02  0.72137445491E+02  0.92786224360E+02  0.47000000000E+01 0.  1.
<mgrwt>
<rscale>  0 0.16802364E+03</rscale>
<asrwt>0</asrwt>
<pdfrwt beam="1">  1        1 0.11646928E+00 0.16988739E+03</pdfrwt>
<pdfrwt beam="2">  1       -1 0.58139240E-02 0.16988739E+03</pdfrwt>
<totfact> 0.34608745E+03</totfact>
</mgrwt>
</event>
<event>
 8    1  0.5224537E-004  0.1075797E+03  0.7546771E-02  0.1265862E+00
          2   -1    0    0  501    0  0.00000000000E+00  0.00000000000E+00  0.75982233683E+02  0.75982233683E+02  0.00000000000E+00 0. -1.
         -2   -1    0    0    0  501 -0.00000000000E+00 -0.00000000000E+00 -0.17229068885E+03  0.17229068885E+03  0.00000000000E+00 0.  1.
         23    2    1    2    0    0  0.55469401237E+02 -0.54212833509E-01 -0.33366832888E+01  0.10608591237E+03  0.90367195020E+02 0.  0.
         23    2    1    2    0    0 -0.55469401237E+02  0.54212833509E-01 -0.92971771875E+02  0.14218701016E+03  0.92176667762E+02 0.  0.
          5    1    4    4  502    0  0.22345791560E+02 -0.14059677539E+02 -0.13698443012E+02  0.30112227980E+02  0.47000000000E+01 0. -1.
         -5    1    3    3    0  503  0.75922044278E+00  0.30273590339E+02 -0.25177998680E+02  0.39662177263E+02  0.47000000000E+01 0.  1.
          5    1    3    3  503    0  0.54710180794E+02 -0.30327803173E+02  0.21841315391E+02  0.66423735109E+02  0.47000000000E+01 0. -1.
         -5    1    4    4    0  502 -0.77815192797E+02  0.14113890372E+02 -0.79273328862E+02  0.11207478218E+03  0.47000000000E+01 0.  1.
<mgrwt>
<rscale>  0 0.10719104E+03</rscale>
<asrwt>0</asrwt>
<pdfrwt beam="1">  1        2 0.11689575E-01 0.10757972E+03</pdfrwt>
<pdfrwt beam="2">  1       -2 0.26506259E-01 0.10757972E+03</pdfrwt>
<totfact> 0.62849005E+03</totfact>
</mgrwt>
</event>
<event>
 8    1  0.5224537E-004  0.1210993E+03  0.7546771E-02  0.1242044E+00
          1   -1    0    0  501    0  0.00000000000E+00  0.00000000000E+00  0.63663849612E+03  0.63663849612E+03  0.00000000000E+00 0. -1.
         -1   -1    0    0    0  501 -0.00000000000E+00 -0.00000000000E+00 -0.22878707602E+02  0.22878707602E+02  0.00000000000E+00 0.  1.
         23    2    1    2    0    0 -0.24225614984E+02  0.75323351857E+02  0.33917004701E+03  0.36014074014E+03  0.91676300976E+02 0.  0.
         23    2    1    2    0    0  0.24225614984E+02 -0.75323351857E+02  0.27458974151E+03  0.29937646359E+03  0.89253868551E+02 0.  0.
          5    1    4    4  502    0  0.43143678403E+02 -0.34361728173E+02  0.22691086541E+03  0.23356527180E+03  0.47000000000E+01 0. -1.
         -5    1    3    3    0  503 -0.56874460239E+02  0.45868456818E+02  0.16630344128E+03  0.18170730348E+03  0.47000000000E+01 0.  1.
          5    1    3    3  503    0  0.32648845255E+02  0.29454895039E+02  0.17286660573E+03  0.17843343665E+03  0.47000000000E+01 0. -1.
         -5    1    4    4    0  502 -0.18918063419E+02 -0.40961623684E+02  0.47678876096E+02  0.65811191784E+02  0.47000000000E+01 0.  1.
<mgrwt>
<rscale>  0 0.12064083E+03</rscale>
<asrwt>0</asrwt>
<pdfrwt beam="1">  1        1 0.97944370E-01 0.12109926E+03</pdfrwt>
<pdfrwt beam="2">  1       -1 0.35198017E-02 0.12109926E+03</pdfrwt>
<totfact> 0.91475888E+03</totfact>
</mgrwt>
</event>
<event>
 8    1  0.5224537E-004  0.9756027E+02  0.7546771E-02  0.1286619E+00
         -1   -1    0    0    0  501 -0.00000000000E+00  0.00000000000E+00  0.20756806341E+02  0.20756806341E+02  0.00000000000E+00 0.  1.
          1   -1    0    0  501    0  0.00000000000E+00 -0.00000000000E+00 -0.48407271599E+03  0.48407271599E+03  0.00000000000E+00 0. -1.
         23    2    1    2    0    0  0.26345191827E+02 -0.22333518416E+02 -0.16159549485E+03  0.18772825420E+03  0.89083883451E+02 0.  0.
         23    2    1    2    0    0 -0.26345191827E+02  0.22333518416E+02 -0.30172041479E+03  0.31710126813E+03  0.91242261966E+02 0.  0.
          5    1    3    3  502    0  0.56450027820E+02 -0.12718828425E+02 -0.71298768845E+02  0.91945520152E+02  0.47000000000E+01 0. -1.
         -5    1    4    4    0  503 -0.43620755164E+02  0.39912657906E+02 -0.27110703878E+03  0.27751920117E+03  0.47000000000E+01 0.  1.
          5    1    4    4  503    0  0.17275563337E+02 -0.17579139490E+02 -0.30613376016E+02  0.39582066961E+02  0.47000000000E+01 0. -1.
         -5    1    3    3    0  502 -0.30104835992E+02 -0.96146899909E+01 -0.90296726005E+02  0.95782734044E+02  0.47000000000E+01 0.  1.
<mgrwt>
<rscale>  0 0.97052428E+02</rscale>
<asrwt>0</asrwt>
<pdfrwt beam="1">  1        1 0.74472727E-01 0.97560266E+02</pdfrwt>
<pdfrwt beam="2">  1       -1 0.31933548E-02 0.97560266E+02</pdfrwt>
<totfact> 0.14891726E+04</totfact>
</mgrwt>
</event>
<event>
 8    1  0.5224537E-004  0.1044801E+03  0.7546771E-02  0.1271545E+00
          1   -1    0    0  501    0  0.00000000000E+00  0.00000000000E+00  0.45209659511E+02  0.45209659511E+02  0.00000000000E+00 0. -1.
         -1   -1    0    0    0  501 -0.00000000000E+00 -0.00000000000E+00 -0.24904462859E+03  0.24904462859E+03  0.00000000000E+00 0.  1.
         23    2    1    2    0    0  0.22986649184E+01 -0.50473853101E+02 -0.72907894702E+02  0.12674906399E+03  0.90536569433E+02 0.  0.
         23    2    1    2    0    0 -0.22986649184E+01  0.50473853101E+02 -0.13092707437E+03  0.16750522411E+03  0.91450574590E+02 0.  0.
          5    1    3    3  502    0 -0.42846027582E+01  0.20492131853E+02 -0.45390343339E+02  0.50206160549E+02  0.47000000000E+01 0. -1.
         -5    1    4    4    0  503 -0.27369051201E+02  0.41439984541E+02 -0.13128542758E+03  0.14044319413E+03  0.47000000000E+01 0.  1.
          5    1    4    4  503    0  0.25070386283E+02  0.90338685608E+01  0.35835320859E+00  0.27062029979E+02  0.47000000000E+01 0. -1.
         -5    1    3    3    0  502  0.65832676765E+01 -0.70965984954E+02 -0.27517551363E+02  0.76542903439E+02  0.47000000000E+01 0.  1.
<mgrwt>
<rscale>  0 0.10427980E+03</rscale>
<asrwt>0</asrwt>
<pdfrwt beam="1">  1        1 0.69553322E-02 0.10448015E+03</pdfrwt>
<pdfrwt beam="2">  1       -1 0.38314558E-01 0.10448015E+03</pdfrwt>
<totfact> 0.65253583E+03</totfact>
</mgrwt>
</event>
<event>
 8    1  0.5224537E-004  0.1141879E+03  0.7546771E-02  0.1255687E+00
          1   -1    0    0  501    0  0.00000000000E+00  0.00000000000E+00  0.52017325892E+02  0.52017325892E+02  0.00000000000E+00 0. -1.
         -1   -1    0    0    0  501 -0.00000000000E+00 -0.00000000000E+00 -0.27772873484E+03  0.27772873484E+03  0.00000000000E+00 0.  1.
         23    2    1    2    0    0 -0.12980820761E+02  0.62006867043E+02 -0.52965332428E+02  0.12587371690E+03  0.95002699430E+02 0.  0.
         23    2    1    2    0    0  0.12980820761E+02 -0.62006867043E+02 -0.17274607652E+03  0.20387234383E+03  0.87803031601E+02 0.  0.
          5    1    3    3  502    0  0.18355987142E+02  0.26471270122E+02  0.20396732267E+02  0.38415974451E+02  0.47000000000E+01 0. -1.
         -5    1    3    3    0  502 -0.31336807903E+02  0.35535596921E+02 -0.73362064695E+02  0.87457742450E+02  0.47000000000E+01 0.  1.
          5    1    4    4  503    0  0.34617130385E+02  0.71460187307E+01 -0.56240018987E+02  0.66591598835E+02  0.47000000000E+01 0. -1.
         -5    1    4    4    0  503 -0.21636309624E+02 -0.69152885774E+02 -0.11650605753E+03  0.13728074500E+03  0.47000000000E+01 0.  1.
<mgrwt>
<rscale>  0 0.11267914E+03</rscale>
<asrwt>0</asrwt>
<pdfrwt beam="1">  1        1 0.80026655E-02 0.11418785E+03</pdfrwt>
<pdfrwt beam="2">  1       -1 0.42727498E-01 0.11418785E+03</pdfrwt>
<totfact> 0.45019019E+03</totfact>
</mgrwt>
</event>
<event>
 8    1  0.5224537E-004  0.9538450E+02  0.7546771E-02  0.1290566E+00
         -1   -1    0    0    0  501 -0.00000000000E+00  0.00000000000E+00  0.37071417906E+03  0.37071417906E+03  0.00000000000E+00 0.  1.
          1   -1    0    0  501    0  0.00000000000E+00 -0.00000000000E+00 -0.64489690989E+02  0.64489690989E+02  0.00000000000E+00 0. -1.
         23    2    1    2    0    0 -0.19497381303E+02  0.18544093443E+02  0.32476084403E+03  0.33847866805E+03  0.91510500115E+02 0.  0.
         23    2    1    2    0    0  0.19497381303E+02 -0.18544093443E+02 -0.18536355950E+02  0.96725202006E+02  0.91039205466E+02 0.  0.
          5    1    3    3  502    0  0.75229661169E+01 -0.33161039727E+02  0.15971690522E+03  0.16336410067E+03  0.47000000000E+01 0. -1.
         -5    1    3    3    0  502 -0.27020347420E+02  0.51705133170E+02  0.16504393880E+03  0.17511456737E+03  0.47000000000E+01 0.  1.
          5    1    4    4  503    0 -0.85289695297E+00 -0.43662136777E+02 -0.38528190765E+02  0.58426202211E+02  0.47000000000E+01 0. -1.
         -5    1    4    4    0  503  0.20350278256E+02  0.25118043334E+02  0.19991834815E+02  0.38298999795E+02  0.47000000000E+01 0.  1.
<mgrwt>
<rscale>  0 0.95271284E+02</rscale>
<asrwt>0</asrwt>
<pdfrwt beam="1">  1        1 0.99214912E-02 0.95384500E+02</pdfrwt>
<pdfrwt beam="2">  1       -1 0.57032949E-01 0.95384500E+02</pdfrwt>
<totfact> 0.19871509E+03</totfact>
</mgrwt>
</event>
<event>
 8    1  0.5224537E-004  0.9415107E+02  0.7546771E-02  0.1293750E+00
         -1   -1    0    0    0  501 -0.00000000000E+00  0.00000000000E+00  0.43937697522E+02  0.43937697522E+02  0.00000000000E+00 0.  1.
          1   -1    0    0  501    0  0.00000000000E+00 -0.00000000000E+00 -0.75851638447E+03  0.75851638447E+03  0.00000000000E+00 0. -1.
         23    2    1    2    0    0  0.19052758999E+02 -0.78689020541E+00 -0.13361634448E+02  0.95094466945E+02  0.92199769776E+02 0.  0.
         23    2    1    2    0    0 -0.19052758999E+02  0.78689020541E+00 -0.70121705250E+03  0.70735961505E+03  0.91041987346E+02 0.  0.
          5    1    3    3  502    0 -0.19429716577E+02  0.16582991732E+02 -0.37967308094E+02  0.46001260689E+02  0.47000000000E+01 0. -1.
         -5    1    4    4    0  503  0.87592719844E+01 -0.41204816279E+02 -0.33068460798E+03  0.33339010436E+03  0.47000000000E+01 0.  1.
          5    1    4    4  503    0 -0.27812030983E+02  0.41991706485E+02 -0.37053244452E+03  0.37396951069E+03  0.47000000000E+01 0. -1.
         -5    1    3    3    0  502  0.38482475575E+02 -0.17369881937E+02  0.24605673646E+02  0.49093206256E+02  0.47000000000E+01 0.  1.
<mgrwt>
<rscale>  0 0.93866411E+02</rscale>
<asrwt>0</asrwt>
<pdfrwt beam="1">  1        1 0.11669482E+00 0.94151072E+02</pdfrwt>
<pdfrwt beam="2">  1       -1 0.67596462E-02 0.94151072E+02</pdfrwt>
<totfact> 0.27024409E+03</totfact>
</mgrwt>
</event>
<event>
 8    1  0.5224537E-004  0.2059762E+03  0.7546771E-02  0.1144857E+00
          1   -1    0    0  501    0  0.00000000000E+00  0.00000000000E+00  0.47465908102E+03  0.47465908102E+03  0.00000000000E+00 0. -1.
         -1   -1    0    0    0  501 -0.00000000000E+00 -0.00000000000E+00 -0.14528758260E+03  0.14528758260E+03  0.00000000000E+00 0.  1.
         23    2    1    2    0    0  0.10061482129E+03 -0.15491917179E+03 -0.27753778796E+02  0.20783758980E+03  0.91120247168E+02 0.  0.
         23    2    1    2    0    0 -0.10061482129E+03  0.15491917179E+03  0.35712527722E+03  0.41210907382E+03  0.90399850897E+02 0.  0.
          5    1    3    3  502    0  0.34180018969E+02 -0.12051314784E+03  0.62771723430E+01  0.12551169425E+03  0.47000000000E+01 0. -1.
         -5    1    3    3    0  502  0.66434802318E+02 -0.34406023948E+02 -0.34030951139E+02  0.82325895552E+02  0.47000000000E+01 0.  1.
          5    1    4    4  503    0 -0.10382063819E+03  0.90089439630E+02  0.20750664369E+03  0.24894965198E+03  0.47000000000E+01 0. -1.
         -5    1    4    4    0  503  0.32058169016E+01  0.64829732161E+02  0.14961863353E+03  0.16315942184E+03  0.47000000000E+01 0.  1.
<mgrwt>
<rscale>  0 0.20589673E+03</rscale>
<asrwt>0</asrwt>
<pdfrwt beam="1">  1        1 0.73024473E-01 0.20597619E+03</pdfrwt>
<pdfrwt beam="2">  1       -1 0.22351936E-01 0.20597619E+03</pdfrwt>
<totfact> 0.81480720E+02</totfact>
</mgrwt>
</event>
<event>
 8    1  0.5224537E-004  0.1695565E+03  0.7546771E-02  0.1178449E+00
         -1   -1    0    0    0  501 -0.00000000000E+00  0.00000000000E+00  0.61968304775E+03  0.61968304775E+03  0.00000000000E+00 0.  1.
          1   -1    0    0  501    0  0.00000000000E+00 -0.00000000000E+00 -0.48713955679E+02  0.48713955679E+02  0.00000000000E+00 0. -1.
         23    2    1    2    0    0 -0.14241423359E+03 -0.23733197173E+00  0.20990595676E+03  0.26950352114E+03  0.91048157408E+02 0.  0.
         23    2    1    2    0    0  0.14241423359E+03  0.23733197173E+00  0.36106313531E+03  0.39889348229E+03  0.92019303824E+02 0.  0.
          5    1    4    4  502    0  0.22040892342E+02  0.33351977656E+02  0.13167262990E+03  0.13768778745E+03  0.47000000000E+01 0. -1.
         -5    1    4    4    0  502  0.12037334125E+03 -0.33114645684E+02  0.22939050542E+03  0.26120569484E+03  0.47000000000E+01 0.  1.
          5    1    3    3  503    0 -0.13419104464E+03  0.24398793226E+02  0.19817483790E+03  0.24061981204E+03  0.47000000000E+01 0. -1.
         -5    1    3    3    0  503 -0.82231889492E+01 -0.24636125198E+02  0.11731118862E+02  0.28883709094E+02  0.47000000000E+01 0.  1.
<mgrwt>
<rscale>  0 0.16942512E+03</rscale>
<asrwt>0</asrwt>
<pdfrwt beam="1">  1        1 0.74944551E-02 0.16955655E+03</pdfrwt>
<pdfrwt beam="2">  1       -1 0.95335848E-01 0.16955655E+03</pdfrwt>
<totfact> 0.10541807E+03</totfact>
</mgrwt>
</event>
<event>
 8    1  0.5224537E-004  0.1261342E+03  0.7546771E-02  0.1235229E+00
         -2   -1    0    0    0  501 -0.00000000000E+00  0.00000000000E+00  0.90834205331E+02  0.90834205331E+02  0.00000000000E+00 0.  1.
          2   -1    0    0  501    0  0.00000000000E+00 -0.00000000000E+00 -0.18372880900E+03  0.18372880900E+03  0.00000000000E+00 0. -1.
         23    2    1    2    0    0  0.78505629993E+02  0.35612529159E+02 -0.77043206927E+01  0.12636925924E+03  0.92078482552E+02 0.  0.
         23    2    1    2    0    0 -0.78505629993E+02 -0.35612529159E+02 -0.85190282975E+02  0.14819375509E+03  0.85279649165E+02 0.  0.
          5    1    3    3  502    0  0.17095137625E+02 -0.30791990798E+02 -0.87269954295E+00  0.35542116316E+02  0.47000000000E+01 0. -1.
         -5    1    3    3    0  502  0.61410492368E+02  0.66404519957E+02 -0.68316211497E+01  0.90827142921E+02  0.47000000000E+01 0.  1.
          5    1    4    4  503    0 -0.81447486284E+02 -0.14234712831E+02 -0.93220920650E+02  0.12469382550E+03  0.47000000000E+01 0. -1.
         -5    1    4    4    0  503  0.29418562912E+01 -0.21377816328E+02  0.80306376745E+01  0.23499929592E+02  0.47000000000E+01 0.  1.
<mgrwt>
<rscale>  0 0.12489759E+03</rscale>
<asrwt>0</asrwt>
<pdfrwt beam="1">  1        2 0.28265970E-01 0.12613419E+03</pdfrwt>
<pdfrwt beam="2">  1       -2 0.13974493E-01 0.12613419E+03</pdfrwt>
<totfact> 0.68163363E+03</totfact>
</mgrwt>
</event>
<event>
 8    1  0.5224537E-004  0.9502516E+02  0.7546771E-02  0.1291637E+00
          2   -1    0    0  501    0  0.00000000000E+00  0.00000000000E+00  0.22441571270E+03  0.22441571270E+03  0.00000000000E+00 0. -1.
         -2   -1    0    0    0  501 -0.00000000000E+00 -0.00000000000E+00 -0.44058173360E+02  0.44058173360E+02  0.00000000000E+00 0.  1.
         23    2    1    2    0    0 -0.34680383138E+01 -0.22216910612E+02  0.48302012354E+02  0.10578263429E+03  0.91385244503E+02 0.  0.
         23    2    1    2    0    0  0.34680383138E+01  0.22216910612E+02  0.13205552699E+03  0.16269125177E+03  0.92326392695E+02 0.  0.
          5    1    4    4  502    0  0.16207195146E+02 -0.25930701409E+02  0.96444076260E+02  0.10128486706E+03  0.47000000000E+01 0.  1.
         -5    1    4    4    0  502 -0.12739156832E+02  0.48147612021E+02  0.35611450726E+02  0.61406384708E+02  0.47000000000E+01 0. -1.
          5    1    3    3  503    0  0.15100407327E+02  0.31621885434E+02  0.91773351579E+01  0.36527789701E+02  0.47000000000E+01 0.  1.
         -5    1    3    3    0  503 -0.18568445641E+02 -0.53838796046E+02  0.39124677196E+02  0.69254844588E+02  0.47000000000E+01 0. -1.
<mgrwt>
<rscale>  0 0.94795793E+02</rscale>
<asrwt>0</asrwt>
<pdfrwt beam="1">  1        2 0.34525494E-01 0.95025161E+02</pdfrwt>
<pdfrwt beam="2">  1       -2 0.67781806E-02 0.95025161E+02</pdfrwt>
<totfact> 0.16614280E+04</totfact>
</mgrwt>
</event>
<event>
 8    1  0.5224537E-004  0.1184625E+03  0.7546771E-02  0.1248751E+00
         -2   -1    0    0    0  501 -0.00000000000E+00  0.00000000000E+00  0.13072819046E+02  0.13072819046E+02  0.00000000000E+00 0.  1.
          2   -1    0    0  501    0  0.00000000000E+00 -0.00000000000E+00 -0.10402714161E+04  0.10402714161E+04  0.00000000000E+00 0. -1.
         23    2    1    2    0    0 -0.24870194694E+02 -0.69542005688E+02 -0.40800105052E+03  0.42291662307E+03  0.83300634497E+02 0.  0.
         23    2    1    2    0    0  0.24870194694E+02  0.69542005688E+02 -0.61919754652E+03  0.63042761206E+03  0.92621570320E+02 0.  0.
          5    1    3    3  502    0 -0.54035586102E+02 -0.47569502410E+02 -0.30847637207E+03  0.31680035393E+03  0.47000000000E+01 0. -1.
         -5    1    4    4    0  503  0.46885894135E+02  0.84207086672E+01 -0.36013305379E+03  0.36330029155E+03  0.47000000000E+01 0.  1.
          5    1    4    4  503    0 -0.22015699442E+02  0.61121297021E+02 -0.25906449273E+03  0.26712732051E+03  0.47000000000E+01 0. -1.
         -5    1    3    3    0  502  0.29165391409E+02 -0.21972503279E+02 -0.99524678447E+02  0.10611626914E+03  0.47000000000E+01 0.  1.
<mgrwt>
<rscale>  0 0.11663678E+03</rscale>
<asrwt>0</asrwt>
<pdfrwt beam="1">  1        2 0.16004175E+00 0.11846254E+03</pdfrwt>
<pdfrwt beam="2">  1       -2 0.20112030E-02 0.11846254E+03</pdfrwt>
<totfact> 0.18009171E+04</totfact>
</mgrwt>
</event>
<event>
 8    1  0.5224537E-004  0.1078769E+03  0.7546771E-02  0.1264657E+00
          1   -1    0    0  501    0  0.00000000000E+00  0.00000000000E+00  0.31488555330E+02  0.31488555330E+02  0.00000000000E+00 0. -1.
         -1   -1    0    0    0  501 -0.00000000000E+00 -0.00000000000E+00 -0.40074366521E+03  0.40074366521E+03  0.00000000000E+00 0.  1.
         23    2    1    2    0    0 -0.62338570687E+01 -0.55880886586E+02 -0.12381115310E+03  0.16421519131E+03  0.92064613000E+02 0.  0.
         23    2    1    2    0    0  0.62338570687E+01  0.55880886586E+02 -0.24544395678E+03  0.26801702923E+03  0.91808809901E+02 0.  0.
          5    1    4    4  502    0  0.68835170215E+01 -0.25124998775E+02 -0.63667041796E+02  0.68950928790E+02  0.47000000000E+01 0. -1.
         -5    1    3    3    0  503  0.10847898000E+02  0.20296000198E+02 -0.86982481490E+01  0.25047036470E+02  0.47000000000E+01 0.  1.
          5    1    3    3  503    0 -0.17081755069E+02 -0.76176886785E+02 -0.11511290495E+03  0.13916815484E+03  0.47000000000E+01 0. -1.
         -5    1    4    4    0  502 -0.64965995286E+00  0.81005885361E+02 -0.18177691498E+03  0.19906610044E+03  0.47000000000E+01 0.  1.
<mgrwt>
<rscale>  0 0.10782231E+03</rscale>
<asrwt>0</asrwt>
<pdfrwt beam="1">  1        1 0.48443932E-02 0.10787691E+03</pdfrwt>
<pdfrwt beam="2">  1       -1 0.61652871E-01 0.10787691E+03</pdfrwt>
<totfact> 0.45111940E+03</totfact>
</mgrwt>
</event>
<event>
 8    1  0.5224537E-004  0.1036379E+03  0.7546771E-02  0.1273170E+00
          1   -1    0    0  501    0  0.00000000000E+00  0.00000000000E+00  0.16280896752E+02  0.16280896752E+02  0.00000000000E+00 0. -1.
         -1   -1    0    0    0  501 -0.00000000000E+00 -0.00000000000E+00 -0.72186878998E+03  0.72186878998E+03  0.00000000000E+00 0.  1.
         23    2    1    2    0    0 -0.40398959674E+02 -0.24100080884E+02 -0.24184144116E+03  0.26311233008E+03  0.92346768975E+02 0.  0.
         23    2    1    2    0    0  0.40398959674E+02  0.24100080884E+02 -0.46374645207E+03  0.47503735665E+03  0.91579629614E+02 0.  0.
          5    1    4    4  502    0  0.49357793397E+02  0.49755032916E+02 -0.39058844646E+03  0.39685410364E+03  0.47000000000E+01 0. -1.
         -5    1    3    3    0  503 -0.22659027330E+02 -0.14703226770E+02 -0.24091877345E+03  0.24247383735E+03  0.47000000000E+01 0.  1.
          5    1    3    3  503    0 -0.17739932344E+02 -0.93968541145E+01 -0.92266770779E+00  0.20638492738E+02  0.47000000000E+01 0. -1.
         -5    1    4    4    0  502 -0.89588337230E+01 -0.25654952032E+02 -0.73158005610E+02  0.78183253004E+02  0.47000000000E+01 0.  1.
<mgrwt>
<rscale>  0 0.10346674E+03</rscale>
<asrwt>0</asrwt>
<pdfrwt beam="1">  1        1 0.25047538E-02 0.10363791E+03</pdfrwt>
<pdfrwt beam="2">  1       -1 0.11105672E+00 0.10363791E+03</pdfrwt>
<totfact> 0.32953061E+03</totfact>
</mgrwt>
</event>
<event>
 8    1  0.5224537E-004  0.1209381E+03  0.7546771E-02  0.1241847E+00
         -4   -1    0    0    0  501 -0.00000000000E+00  0.00000000000E+00  0.29051100993E+03  0.29051100993E+03  0.00000000000E+00 0.  1.
          4   -1    0    0  501    0  0.00000000000E+00 -0.00000000000E+00 -0.57798847951E+02  0.57798847951E+02  0.00000000000E+00 0. -1.
         23    2    1    2    0    0  0.79011132711E+02  0.11045000670E+02  0.17982024856E+03  0.21631147606E+03  0.89947661177E+02 0.  0.
         23    2    1    2    0    0 -0.79011132711E+02 -0.11045000670E+02  0.52891913417E+02  0.13199838182E+03  0.90891513167E+02 0.  0.
          5    1    3    3  502    0 -0.90168041675E+01 -0.22372655701E+02  0.51702411348E+02  0.57245679485E+02  0.47000000000E+01 0. -1.
         -5    1    3    3    0  502  0.88027936879E+02  0.33417656371E+02  0.12811783722E+03  0.15906579658E+03  0.47000000000E+01 0.  1.
          5    1    4    4  503    0 -0.46720501607E+02 -0.18567437214E+02 -0.17991148394E+02  0.53603417948E+02  0.47000000000E+01 0. -1.
         -5    1    4    4    0  503 -0.32290631104E+02  0.75224365447E+01  0.70883061811E+02  0.78394963871E+02  0.47000000000E+01 0.  1.
<mgrwt>
<rscale>  0 0.12076075E+03</rscale>
<asrwt>0</asrwt>
<pdfrwt beam="1">  1        4 0.88921306E-02 0.12093808E+03</pdfrwt>
<pdfrwt beam="2">  1       -4 0.44694001E-01 0.12093808E+03</pdfrwt>
<totfact> 0.72826316E+02</totfact>
</mgrwt>
</event>
<event>
 8    1  0.5224537E-004  0.9279714E+02  0.7546771E-02  0.1297425E+00
          2   -1    0    0  501    0  0.00000000000E+00  0.00000000000E+00  0.41113041632E+02  0.41113041632E+02  0.00000000000E+00 0. -1.
         -2   -1    0    0    0  501 -0.00000000000E+00 -0.00000000000E+00 -0.22044703901E+03  0.22044703901E+03  0.00000000000E+00 0.  1.
         23    2    1    2    0    0  0.10952017230E+02 -0.73109064374E+01 -0.53938968029E+02  0.10556257417E+03  0.89781115831E+02 0.  0.
         23    2    1    2    0    0 -0.10952017230E+02  0.73109064374E+01 -0.12539502935E+03  0.15599750647E+03  0.91858111260E+02 0.  0.
          5    1    4    4  502    0  0.10720987571E+02  0.46039018959E+02 -0.55309655808E+02  0.72909388057E+02  0.47000000000E+01 0. -1.
         -5    1    3    3    0  503 -0.20090023341E+02 -0.13781441154E+00 -0.67526730712E+02  0.70608621225E+02  0.47000000000E+01 0.  1.
          5    1    3    3  503    0  0.31042040571E+02 -0.71730920259E+01  0.13587762683E+02  0.34953952949E+02  0.47000000000E+01 0. -1.
         -5    1    4    4    0  502 -0.21673004800E+02 -0.38728112522E+02 -0.70085373541E+02  0.83088118410E+02  0.47000000000E+01 0.  1.
<mgrwt>
<rscale>  0 0.92278938E+02</rscale>
<asrwt>0</asrwt>
<pdfrwt beam="1">  1        2 0.63250831E-02 0.92797137E+02</pdfrwt>
<pdfrwt beam="2">  1       -2 0.33914930E-01 0.92797137E+02</pdfrwt>
<totfact> 0.85216870E+03</totfact>
</mgrwt>
</event>
<event>
 8    1  0.5224537E-004  0.9394778E+02  0.7546771E-02  0.1293877E+00
          3   -1    0    0  501    0  0.00000000000E+00  0.00000000000E+00  0.29991990005E+03  0.29991990005E+03  0.00000000000E+00 0. -1.
         -3   -1    0    0    0  501 -0.00000000000E+00 -0.00000000000E+00 -0.39627278403E+02  0.39627278403E+02  0.00000000000E+00 0.  1.
         23    2    1    2    0    0  0.53338870318E+01  0.21885390839E+02  0.43578861627E+02  0.10356303778E+03  0.91207263587E+02 0.  0.
         23    2    1    2    0    0 -0.53338870318E+01 -0.21885390839E+02  0.21671376001E+03  0.23598414067E+03  0.90643478436E+02 0.  0.
          5    1    4    4  502    0  0.23372751105E+02 -0.94067072931E+01  0.19707422723E+03  0.19873377336E+03  0.47000000000E+01 0. -1.
         -5    1    4    4    0  502 -0.28706638137E+02 -0.12478683545E+02  0.19639532782E+02  0.37250367301E+02  0.47000000000E+01 0.  1.
          5    1    3    3  503    0  0.25460899391E+02 -0.57265246480E+01  0.59824551035E+02  0.65437889551E+02  0.47000000000E+01 0. -1.
         -5    1    3    3    0  503 -0.20127012359E+02  0.27611915487E+02 -0.16245689408E+02  0.38125148232E+02  0.47000000000E+01 0.  1.
<mgrwt>
<rscale>  0 0.93810671E+02</rscale>
<asrwt>0</asrwt>
<pdfrwt beam="1">  1        3 0.46141522E-01 0.93947781E+02</pdfrwt>
<pdfrwt beam="2">  1       -3 0.60965046E-02 0.93947781E+02</pdfrwt>
<totfact> 0.16709772E+03</totfact>
</mgrwt>
</event>
<event>
 8    1  0.5224537E-004  0.9324592E+02  0.7546771E-02  0.1295726E+00
         -2   -1    0    0    0  501 -0.00000000000E+00  0.00000000000E+00  0.19057837850E+02  0.19057837850E+02  0.00000000000E+00 0.  1.
          2   -1    0    0  501    0  0.00000000000E+00 -0.00000000000E+00 -0.74124857087E+03  0.74124857087E+03  0.00000000000E+00 0. -1.
         23    2    1    2    0    0  0.91416304626E+01 -0.14264066548E+02 -0.12234479292E+03  0.15325620258E+03  0.90731374239E+02 0.  0.
         23    2    1    2    0    0 -0.91416304626E+01  0.14264066548E+02 -0.59984594010E+03  0.60705020615E+03  0.91693881600E+02 0.  0.
          5    1    4    4  502    0  0.22996117305E+02  0.39634927354E+02 -0.42122377658E+03  0.42373495115E+03  0.47000000000E+01 0. -1.
         -5    1    3    3    0  503 -0.19325780477E+02 -0.30602598089E+02 -0.12599745879E+02  0.38611506019E+02  0.47000000000E+01 0.  1.
          5    1    3    3  503    0  0.28467410940E+02  0.16338531540E+02 -0.10974504704E+03  0.11464469656E+03  0.47000000000E+01 0. -1.
         -5    1    4    4    0  502 -0.32137747768E+02 -0.25370860806E+02 -0.17862216353E+03  0.18331525499E+03  0.47000000000E+01 0.  1.
<mgrwt>
<rscale>  0 0.93008430E+02</rscale>
<asrwt>0</asrwt>
<pdfrwt beam="1">  1        2 0.11403824E+00 0.93245916E+02</pdfrwt>
<pdfrwt beam="2">  1       -2 0.29319751E-02 0.93245916E+02</pdfrwt>
<totfact> 0.15800720E+04</totfact>
</mgrwt>
</event>
<event>
 8    1  0.5224537E-004  0.9751533E+02  0.7546771E-02  0.1287571E+00
         -1   -1    0    0    0  501 -0.00000000000E+00  0.00000000000E+00  0.18532006366E+02  0.18532006366E+02  0.00000000000E+00 0.  1.
          1   -1    0    0  501    0  0.00000000000E+00 -0.00000000000E+00 -0.50191308958E+03  0.50191308958E+03  0.00000000000E+00 0. -1.
         23    2    1    2    0    0 -0.16332417073E+02 -0.27017312810E+02 -0.27730650118E+03  0.29395260674E+03  0.92263515931E+02 0.  0.
         23    2    1    2    0    0  0.16332417073E+02  0.27017312810E+02 -0.20607458203E+03  0.22649248921E+03  0.88517971443E+02 0.  0.
          5    1    4    4  502    0 -0.17674315666E+02  0.36084134383E+02 -0.17400860097E+03  0.17864917968E+03  0.47000000000E+01 0. -1.
         -5    1    4    4    0  502  0.34006732739E+02 -0.90668215724E+01 -0.32065981060E+02  0.47843309526E+02  0.47000000000E+01 0.  1.
          5    1    3    3  503    0 -0.36906293751E+02  0.11314295819E+02 -0.54866419834E+02  0.67249548948E+02  0.47000000000E+01 0. -1.
         -5    1    3    3    0  503  0.20573876678E+02 -0.38331608629E+02 -0.22244008135E+03  0.22670305779E+03  0.47000000000E+01 0.  1.
<mgrwt>
<rscale>  0 0.96619048E+02</rscale>
<asrwt>0</asrwt>
<pdfrwt beam="1">  1        1 0.77217398E-01 0.97515329E+02</pdfrwt>
<pdfrwt beam="2">  1       -1 0.28510779E-02 0.97515329E+02</pdfrwt>
<totfact> 0.16742088E+04</totfact>
</mgrwt>
</event>
<event>
 8    1  0.5224537E-004  0.1253828E+03  0.7546771E-02  0.1234504E+00
          1   -1    0    0  501    0  0.00000000000E+00  0.00000000000E+00  0.50554100127E+02  0.50554100127E+02  0.00000000000E+00 0. -1.
         -1   -1    0    0    0  501 -0.00000000000E+00 -0.00000000000E+00 -0.31089364912E+03  0.31089364912E+03  0.00000000000E+00 0.  1.
         23    2    1    2    0    0  0.18432680747E+02 -0.83353101661E+02 -0.13377151006E+03  0.18328964186E+03  0.91721167870E+02 0.  0.
         23    2    1    2    0    0 -0.18432680747E+02  0.83353101661E+02 -0.12656803893E+03  0.17815810738E+03  0.91833215504E+02 0.  0.
          5    1    4    4  502    0  0.33568885459E+02  0.45135967439E+02 -0.82151094155E+02  0.99674559936E+02  0.47000000000E+01 0. -1.
         -5    1    3    3    0  503  0.35062606679E+02 -0.11605425319E+02 -0.90213868022E+02  0.97594591385E+02  0.47000000000E+01 0.  1.
          5    1    3    3  503    0 -0.16629925933E+02 -0.71747676342E+02 -0.43557642035E+02  0.85695050479E+02  0.47000000000E+01 0. -1.
         -5    1    4    4    0  502 -0.52001566206E+02  0.38217134222E+02 -0.44416944779E+02  0.78483547444E+02  0.47000000000E+01 0.  1.
<mgrwt>
<rscale>  0 0.12536227E+03</rscale>
<asrwt>0</asrwt>
<pdfrwt beam="1">  1        1 0.77775540E-02 0.12538278E+03</pdfrwt>
<pdfrwt beam="2">  1       -1 0.47829792E-01 0.12538278E+03</pdfrwt>
<totfact> 0.38473074E+03</totfact>
</mgrwt>
</event>
<event>
 8    1  0.5224537E-004  0.1380941E+03  0.7546771E-02  0.1216465E+00
          1   -1    0    0  501    0  0.00000000000E+00  0.00000000000E+00  0.22557854697E+03  0.22557854697E+03  0.00000000000E+00 0. -1.
         -1   -1    0    0    0  501 -0.00000000000E+00 -0.00000000000E+00 -0.90601047645E+02  0.90601047645E+02  0.00000000000E+00 0.  1.
         23    2    1    2    0    0 -0.95811897860E+02 -0.45392981084E+01  0.23801227573E+02  0.14013023346E+03  0.99345150350E+02 0.  0.
         23    2    1    2    0    0  0.95811897860E+02  0.45392981084E+01  0.11117627175E+03  0.17604936115E+03  0.97122032318E+02 0.  0.
          5    1    4    4  502    0  0.97230661881E+02 -0.25862758211E+02  0.10326975695E+03  0.14425469342E+03  0.47000000000E+01 0. -1.
         -5    1    3    3    0  503 -0.42273212399E+02 -0.14212706897E+02 -0.37193408487E+02  0.58262038745E+02  0.47000000000E+01 0.  1.
          5    1    3    3  503    0 -0.53538685461E+02  0.96734087888E+01  0.60994636060E+02  0.81868194719E+02  0.47000000000E+01 0. -1.
         -5    1    4    4    0  502 -0.14187640212E+01  0.30402056320E+02  0.79065147977E+01  0.31794667730E+02  0.47000000000E+01 0.  1.
<mgrwt>
<rscale>  0 0.13769474E+03</rscale>
<asrwt>0</asrwt>
<pdfrwt beam="1">  1        1 0.34704392E-01 0.13809411E+03</pdfrwt>
<pdfrwt beam="2">  1       -1 0.13938623E-01 0.13809411E+03</pdfrwt>
<totfact> 0.43689311E+03</totfact>
</mgrwt>
</event>
<event>
 8    1  0.5224537E-004  0.1538679E+03  0.7546771E-02  0.1196244E+00
         -1   -1    0    0    0  501 -0.00000000000E+00  0.00000000000E+00  0.32600048340E+03  0.32600048340E+03  0.00000000000E+00 0.  1.
          1   -1    0    0  501    0  0.00000000000E+00 -0.00000000000E+00 -0.71928667594E+02  0.71928667594E+02  0.00000000000E+00 0. -1.
         23    2    1    2    0    0 -0.39154142440E+01  0.12020490907E+03  0.12824955328E+03  0.19916651403E+03  0.93567097648E+02 0.  0.
         23    2    1    2    0    0  0.39154142440E+01 -0.12020490907E+03  0.12582226253E+03  0.19876263697E+03  0.95972878838E+02 0.  0.
          5    1    3    3  502    0 -0.82941870201E+01  0.30517615526E+02 -0.10653392484E+02  0.33700195357E+02  0.47000000000E+01 0. -1.
         -5    1    4    4    0  503 -0.37818431808E+02 -0.72074881393E+02  0.10201835590E+03  0.13059424663E+03  0.47000000000E+01 0.  1.
          5    1    4    4  503    0  0.41733846052E+02 -0.48130027676E+02  0.23803906634E+02  0.68168390339E+02  0.47000000000E+01 0. -1.
         -5    1    3    3    0  502  0.43787727761E+01  0.89687293544E+02  0.13890294576E+03  0.16546631867E+03  0.47000000000E+01 0.  1.
<mgrwt>
<rscale>  0 0.15349434E+03</rscale>
<asrwt>0</asrwt>
<pdfrwt beam="1">  1        1 0.11065949E-01 0.15386794E+03</pdfrwt>
<pdfrwt beam="2">  1       -1 0.50153920E-01 0.15386794E+03</pdfrwt>
<totfact> 0.22302969E+03</totfact>
</mgrwt>
</event>
<event>
 8    1  0.5224537E-004  0.1213890E+03  0.7546771E-02  0.1247403E+00
          1   -1    0    0  501    0  0.00000000000E+00  0.00000000000E+00  0.12688072424E+04  0.12688072424E+04  0.00000000000E+00 0. -1.
         -1   -1    0    0    0  501 -0.00000000000E+00 -0.00000000000E+00 -0.11082117483E+02  0.11082117483E+02  0.00000000000E+00 0.  1.
         23    2    1    2    0    0  0.14172868977E+02 -0.53612091491E+02  0.84594907623E+03  0.85461401912E+03  0.10798220006E+03 0.  0.
         23    2    1    2    0    0 -0.14172868977E+02  0.53612091491E+02  0.41177604867E+03  0.42527534074E+03  0.90688889179E+02 0.  0.
          5    1    3    3  502    0 -0.79532974511E+01  0.30918118278E+02  0.17119294240E+03  0.17420763044E+03  0.47000000000E+01 0. -1.
         -5    1    3    3    0  502  0.22126166428E+02 -0.84530209769E+02  0.67475613383E+03  0.68040638867E+03  0.47000000000E+01 0.  1.
          5    1    4    4  503    0  0.18983480485E+02  0.67135468991E+02  0.25716864150E+03  0.26650580462E+03  0.47000000000E+01 0. -1.
         -5    1    4    4    0  503 -0.33156349462E+02 -0.13523377500E+02  0.15460740717E+03  0.15876953612E+03  0.47000000000E+01 0.  1.
<mgrwt>
<rscale>  0 0.11742682E+03</rscale>
<asrwt>0</asrwt>
<pdfrwt beam="1">  1        1 0.19520100E+00 0.12138897E+03</pdfrwt>
<pdfrwt beam="2">  1       -1 0.17049421E-02 0.12138897E+03</pdfrwt>
<totfact> 0.85811109E+03</totfact>
</mgrwt>
</event>
<event>
 8    1  0.5224537E-004  0.9592809E+02  0.7546771E-02  0.1290162E+00
          1   -1    0    0  501    0  0.00000000000E+00  0.00000000000E+00  0.11560360620E+03  0.11560360620E+03  0.00000000000E+00 0. -1.
         -1   -1    0    0    0  501 -0.00000000000E+00 -0.00000000000E+00 -0.78216902498E+02  0.78216902498E+02  0.00000000000E+00 0.  1.
         23    2    1    2    0    0 -0.33897455912E+01 -0.23130506380E+02  0.14273102958E+02  0.96984117408E+02  0.93035943919E+02 0.  0.
         23    2    1    2    0    0  0.33897455912E+01  0.23130506380E+02  0.23113600739E+02  0.96836391285E+02  0.91085330529E+02 0.  0.
          5    1    4    4  502    0  0.45454724546E+02  0.14903748622E+02  0.23965208402E+02  0.53709169797E+02  0.47000000000E+01 0. -1.
         -5    1    3    3    0  503 -0.21262524042E+02 -0.49192029902E+02 -0.12581631807E+02  0.55247970039E+02  0.47000000000E+01 0.  1.
          5    1    3    3  503    0  0.17872778451E+02  0.26061523522E+02  0.26854734766E+02  0.41736147369E+02  0.47000000000E+01 0. -1.
         -5    1    4    4    0  502 -0.42064978955E+02  0.82267577581E+01 -0.85160766312E+00  0.43127221488E+02  0.47000000000E+01 0.  1.
<mgrwt>
<rscale>  0 0.95451901E+02</rscale>
<asrwt>0</asrwt>
<pdfrwt beam="1">  1        1 0.17785170E-01 0.95928085E+02</pdfrwt>
<pdfrwt beam="2">  1       -1 0.12033370E-01 0.95928085E+02</pdfrwt>
<totfact> 0.12300013E+04</totfact>
</mgrwt>
</event>
<event>
 8    1  0.5224537E-004  0.1654722E+03  0.7546771E-02  0.1183048E+00
         -1   -1    0    0    0  501 -0.00000000000E+00  0.00000000000E+00  0.82510952697E+02  0.82510952697E+02  0.00000000000E+00 0.  1.
          1   -1    0    0  501    0  0.00000000000E+00 -0.00000000000E+00 -0.86042894531E+03  0.86042894531E+03  0.00000000000E+00 0. -1.
         23    2    1    2    0    0 -0.11412312957E+03  0.74503712106E+02 -0.19068667548E+02  0.16656728809E+03  0.93841118709E+02 0.  0.
         23    2    1    2    0    0  0.11412312957E+03 -0.74503712106E+02 -0.75884932507E+03  0.77637260992E+03  0.91253709266E+02 0.  0.
          5    1    4    4  502    0  0.59296416643E+02 -0.85791830908E+02 -0.56432542043E+03  0.57390031663E+03  0.47000000000E+01 0. -1.
         -5    1    4    4    0  502  0.54826712924E+02  0.11288118803E+02 -0.19452390463E+03  0.20247229329E+03  0.47000000000E+01 0.  1.
          5    1    3    3  503    0 -0.96642855614E+02  0.17141494171E+02 -0.35053954214E+02  0.10432900876E+03  0.47000000000E+01 0. -1.
         -5    1    3    3    0  503 -0.17480273953E+02  0.57362217935E+02  0.15985286666E+02  0.62238279328E+02  0.47000000000E+01 0.  1.
<mgrwt>
<rscale>  0 0.16510762E+03</rscale>
<asrwt>0</asrwt>
<pdfrwt beam="1">  1        1 0.13237368E+00 0.16547220E+03</pdfrwt>
<pdfrwt beam="2">  1       -1 0.12693993E-01 0.16547220E+03</pdfrwt>
<totfact> 0.86618395E+02</totfact>
</mgrwt>
</event>
<event>
 8    1  0.5224537E-004  0.1321620E+03  0.7546771E-02  0.1224563E+00
          2   -1    0    0  501    0  0.00000000000E+00  0.00000000000E+00  0.12148423767E+03  0.12148423767E+03  0.00000000000E+00 0. -1.
         -2   -1    0    0    0  501 -0.00000000000E+00 -0.00000000000E+00 -0.14314160538E+03  0.14314160538E+03  0.00000000000E+00 0.  1.
         23    2    1    2    0    0  0.78922686927E+02 -0.54338784742E+02 -0.59045355342E+01  0.13229382382E+03  0.91023613647E+02 0.  0.
         23    2    1    2    0    0 -0.78922686927E+02  0.54338784742E+02 -0.15752832175E+02  0.13233201923E+03  0.89900598184E+02 0.  0.
          5    1    4    4  502    0 -0.32300811071E+02  0.42661263387E+02 -0.49796682695E+02  0.73247016301E+02  0.47000000000E+01 0. -1.
         -5    1    4    4    0  502 -0.46621875855E+02  0.11677521355E+02  0.34043850520E+02  0.59085002932E+02  0.47000000000E+01 0.  1.
          5    1    3    3  503    0 -0.14087898385E+02 -0.33614045918E+02 -0.10801390948E+01  0.36764516376E+02  0.47000000000E+01 0. -1.
         -5    1    3    3    0  503  0.93010585311E+02 -0.20724738824E+02 -0.48243964394E+01  0.95529307442E+02  0.47000000000E+01 0.  1.
<mgrwt>
<rscale>  0 0.13196884E+03</rscale>
<asrwt>0</asrwt>
<pdfrwt beam="1">  1        2 0.18689883E-01 0.13216199E+03</pdfrwt>
<pdfrwt beam="2">  1       -2 0.22021785E-01 0.13216199E+03</pdfrwt>
<totfact> 0.50836873E+03</totfact>
</mgrwt>
</event>
<event>
 8    1  0.5224537E-004  0.1485690E+03  0.7546771E-02  0.1207983E+00
          2   -1    0    0  501    0  0.00000000000E+00  0.00000000000E+00  0.63134832947E+02  0.63134832947E+02  0.00000000000E+00 0. -1.
         -2   -1    0    0    0  501 -0.00000000000E+00 -0.00000000000E+00 -0.32025847062E+03  0.32025847062E+03  0.00000000000E+00 0.  1.
         23    2    1    2    0    0 -0.93442990908E+02  0.22406811932E+02 -0.86880754675E+02  0.15743888881E+03  0.89471114932E+02 0.  0.
         23    2    1    2    0    0  0.93442990908E+02 -0.22406811932E+02 -0.17024288300E+03  0.22595441476E+03  0.11330975494E+03 0.  0.
          5    1    3    3  502    0 -0.73717604904E+02 -0.23072424946E+02 -0.71399252330E+02  0.10529275995E+03  0.47000000000E+01 0. -1.
         -5    1    4    4    0  503  0.73012269570E+02 -0.65869050858E+02 -0.13032945224E+03  0.16333211408E+03  0.47000000000E+01 0.  1.
          5    1    4    4  503    0  0.20430721338E+02  0.43462238926E+02 -0.39913430763E+02  0.62622300677E+02  0.47000000000E+01 0. -1.
         -5    1    3    3    0  502 -0.19725386004E+02  0.45479236878E+02 -0.15481502344E+02  0.52146128858E+02  0.47000000000E+01 0.  1.
<mgrwt>
<rscale>  0 0.14404872E+03</rscale>
<asrwt>0</asrwt>
<pdfrwt beam="1">  1        2 0.97130512E-02 0.14856904E+03</pdfrwt>
<pdfrwt beam="2">  1       -2 0.49270534E-01 0.14856904E+03</pdfrwt>
<totfact> 0.25430393E+03</totfact>
</mgrwt>
</event>
<event>
 8    1  0.5224537E-004  0.1032195E+03  0.7546771E-02  0.1274213E+00
         -2   -1    0    0    0  501 -0.00000000000E+00  0.00000000000E+00  0.17466314788E+03  0.17466314788E+03  0.00000000000E+00 0. -1.
          2   -1    0    0  501    0  0.00000000000E+00 -0.00000000000E+00 -0.81930062827E+02  0.81930062827E+02  0.00000000000E+00 0.  1.
         23    2    1    2    0    0 -0.35865043102E+02 -0.31050168464E+02  0.11200911187E+03  0.15158929096E+03  0.90459149418E+02 0.  0.
         23    2    1    2    0    0  0.35865043102E+02  0.31050168464E+02 -0.19276026820E+02  0.10500391974E+03  0.91672480458E+02 0.  0.
          5    1    4    4  502    0  0.66761804108E+02  0.20245255382E+02 -0.97990295897E+01  0.70605381056E+02  0.47000000000E+01 0. -1.
         -5    1    4    4    0  502 -0.30896761006E+02  0.10804913082E+02 -0.94769972300E+01  0.34398538688E+02  0.47000000000E+01 0.  1.
          5    1    3    3  503    0  0.28358990379E+02  0.36617254117E+01  0.32728936450E+02  0.43714000611E+02  0.47000000000E+01 0. -1.
         -5    1    3    3    0  503 -0.64224033482E+02 -0.34711893876E+02  0.79280175420E+02  0.10787529035E+03  0.47000000000E+01 0.  1.
<mgrwt>
<rscale>  0 0.10294939E+03</rscale>
<asrwt>0</asrwt>
<pdfrwt beam="1">  1        2 0.12604625E-01 0.10321946E+03</pdfrwt>
<pdfrwt beam="2">  1       -2 0.26871253E-01 0.10321946E+03</pdfrwt>
<totfact> 0.55903546E+03</totfact>
</mgrwt>
</event>
<event>
 8    1  0.5224537E-004  0.1143867E+03  0.7546771E-02  0.1253217E+00
          1   -1    0    0  501    0  0.00000000000E+00  0.00000000000E+00  0.24342505544E+03  0.24342505544E+03  0.00000000000E+00 0. -1.
         -1   -1    0    0    0  501 -0.00000000000E+00 -0.00000000000E+00 -0.53251461227E+02  0.53251461227E+02  0.00000000000E+00 0.  1.
         23    2    1    2    0    0  0.67315498695E+02  0.39417824258E+02  0.88274026709E+02  0.14348437190E+03  0.81916542613E+02 0.  0.
         23    2    1    2    0    0 -0.67315498695E+02 -0.39417824258E+02  0.10189956750E+03  0.15319214477E+03  0.83661043068E+02 0.  0.
          5    1    3    3  502    0  0.32271677924E+02  0.38903490083E+02  0.94790134424E+02  0.10752768165E+03  0.47000000000E+01 0. -1.
         -5    1    4    4    0  503 -0.34235264183E+02  0.20185192701E+02  0.15213964072E+02  0.42814133423E+02  0.47000000000E+01 0.  1.
          5    1    4    4  503    0 -0.33080234513E+02 -0.59603016959E+02  0.86685603429E+02  0.11037801134E+03  0.47000000000E+01 0. -1.
         -5    1    3    3    0  502  0.35043820772E+02  0.51433417541E+00 -0.65161077150E+01  0.35956690249E+02  0.47000000000E+01 0.  1.
<mgrwt>
<rscale>  0 0.11406793E+03</rscale>
<asrwt>0</asrwt>
<pdfrwt beam="1">  1        1 0.37450008E-01 0.11438667E+03</pdfrwt>
<pdfrwt beam="2">  1       -1 0.81925326E-02 0.11438667E+03</pdfrwt>
<totfact> 0.88539450E+03</totfact>
</mgrwt>
</event>
<event>
 8    1  0.5224537E-004  0.1031892E+03  0.7546771E-02  0.1274806E+00
         -1   -1    0    0    0  501 -0.00000000000E+00  0.00000000000E+00  0.76503145707E+02  0.76503145707E+02  0.00000000000E+00 0.  1.
          1   -1    0    0  501    0  0.00000000000E+00 -0.00000000000E+00 -0.15922175380E+03  0.15922175380E+03  0.00000000000E+00 0. -1.
         23    2    1    2    0    0 -0.28771109768E+02 -0.32093403960E+02  0.36784005303E+01  0.10114236151E+03  0.91424741321E+02 0.  0.
         23    2    1    2    0    0  0.28771109768E+02  0.32093403960E+02 -0.86397008628E+02  0.13458253800E+03  0.93756349656E+02 0.  0.
          5    1    3    3  502    0 -0.62491771054E+00  0.30554578567E+02  0.86931791331E+01  0.32119062206E+02  0.47000000000E+01 0. -1.
         -5    1    4    4    0  503 -0.25861573788E+02 -0.14287685605E+02 -0.15622546053E+02  0.33750746716E+02  0.47000000000E+01 0.  1.
          5    1    4    4  503    0  0.54632683556E+02  0.46381089565E+02 -0.70774462574E+02  0.10083179129E+03  0.47000000000E+01 0. -1.
         -5    1    3    3    0  502 -0.28146192057E+02 -0.62647982527E+02 -0.50147786028E+01  0.69023299301E+02  0.47000000000E+01 0.  1.
<mgrwt>
<rscale>  0 0.10265667E+03</rscale>
<asrwt>0</asrwt>
<pdfrwt beam="1">  1        1 0.24495654E-01 0.10318923E+03</pdfrwt>
<pdfrwt beam="2">  1       -1 0.11769715E-01 0.10318923E+03</pdfrwt>
<totfact> 0.85671977E+03</totfact>
</mgrwt>
</event>
<event>
 8    1  0.5224537E-004  0.9697816E+02  0.7546771E-02  0.1286856E+00
          2   -1    0    0  501    0  0.00000000000E+00  0.00000000000E+00  0.49258954188E+03  0.49258954188E+03  0.00000000000E+00 0. -1.
         -2   -1    0    0    0  501 -0.00000000000E+00 -0.00000000000E+00 -0.26021444363E+02  0.26021444363E+02  0.00000000000E+00 0.  1.
         23    2    1    2    0    0 -0.17833221530E+02 -0.30762681082E+02  0.99339358020E+02  0.13882748985E+03  0.90224151691E+02 0.  0.
         23    2    1    2    0    0  0.17833221530E+02  0.30762681082E+02  0.36722873950E+03  0.37978349639E+03  0.90078802632E+02 0.  0.
          5    1    3    3  502    0 -0.24793510645E+02 -0.56123370963E+02  0.92758216296E+02  0.11131364529E+03  0.47000000000E+01 0. -1.
         -5    1    3    3    0  502  0.69602891144E+01  0.25360689880E+02  0.65811417239E+01  0.27513844554E+02  0.47000000000E+01 0.  1.
          5    1    4    4  503    0 -0.18029497935E+02  0.35942355320E+02  0.30457516093E+03  0.30725402252E+03  0.47000000000E+01 0. -1.
         -5    1    4    4    0  503  0.35862719466E+02 -0.51796742377E+01  0.62653578570E+02  0.72529473873E+02  0.47000000000E+01 0.  1.
<mgrwt>
<rscale>  0 0.96944341E+02</rscale>
<asrwt>0</asrwt>
<pdfrwt beam="1">  1        2 0.75782999E-01 0.96978162E+02</pdfrwt>
<pdfrwt beam="2">  1       -2 0.40032995E-02 0.96978162E+02</pdfrwt>
<totfact> 0.15933936E+04</totfact>
</mgrwt>
</event>
<event>
 8    1  0.5224537E-004  0.1113325E+03  0.7546771E-02  0.1260692E+00
         -4   -1    0    0    0  501 -0.00000000000E+00  0.00000000000E+00  0.42923571107E+02  0.42923571107E+02  0.00000000000E+00 0. -1.
          4   -1    0    0  501    0  0.00000000000E+00 -0.00000000000E+00 -0.31837509692E+03  0.31837509692E+03  0.00000000000E+00 0.  1.
         23    2    1    2    0    0  0.45486606944E+02  0.35224478306E+02 -0.20160845716E+03  0.22770326708E+03  0.88842628051E+02 0.  0.
         23    2    1    2    0    0 -0.45486606944E+02 -0.35224478306E+02 -0.73843068656E+02  0.13359540095E+03  0.95315985449E+02 0.  0.
          5    1    4    4  502    0 -0.65612337058E+02 -0.50286137418E+02 -0.68519164403E+02  0.10747390512E+03  0.47000000000E+01 0. -1.
         -5    1    3    3    0  503  0.27900558344E+02 -0.37234659346E+01 -0.17463259269E+03  0.17694896943E+03  0.47000000000E+01 0.  1.
          5    1    3    3  503    0  0.17586048599E+02  0.38947944240E+02 -0.26975864469E+02  0.50754297648E+02  0.47000000000E+01 0. -1.
         -5    1    4    4    0  502  0.20125730114E+02  0.15061659112E+02 -0.53239042528E+01  0.26121495829E+02  0.47000000000E+01 0.  1.
<mgrwt>
<rscale>  0 0.10993410E+03</rscale>
<asrwt>0</asrwt>
<pdfrwt beam="1">  1        4 0.48980784E-01 0.11133253E+03</pdfrwt>
<pdfrwt beam="2">  1       -4 0.66036263E-02 0.11133253E+03</pdfrwt>
<totfact> 0.97123887E+02</totfact>
</mgrwt>
</event>
<event>
 8    1  0.8149331E-004  0.1173543E+03  0.7546771E-02  0.1247826E+00
          1   -1    0    0  501    0  0.00000000000E+00  0.00000000000E+00  0.22554034276E+03  0.22554034276E+03  0.00000000000E+00 0. -1.
         -1   -1    0    0    0  501 -0.00000000000E+00 -0.00000000000E+00 -0.15235091490E+03  0.15235091490E+03  0.00000000000E+00 0.  1.
         23    2    1    2    0    0 -0.45218473801E+02 -0.57007505314E+02  0.18318978054E+03  0.21755578276E+03  0.92073106176E+02 0.  0.
         23    2    1    2    0    0  0.45218473801E+02  0.57007505314E+02 -0.11000035268E+03  0.16033547491E+03  0.91174672411E+02 0.  0.
          5    1    4    4  502    0 -0.21737953234E+02  0.22410853256E+02 -0.65315157883E+01  0.32241830794E+02  0.47000000000E+01 0.  1.
         -5    1    3    3    0  503  0.27196730118E+02 -0.27644182042E+02  0.62155257376E+02  0.73411367984E+02  0.47000000000E+01 0.  1.
          5    1    3    3  503    0 -0.72415203918E+02 -0.29363323272E+02  0.12103452316E+03  0.14414441477E+03  0.47000000000E+01 0. -1.
         -5    1    4    4    0  502  0.66956427035E+02  0.34596652058E+02 -0.10346883689E+03  0.12809364411E+03  0.47000000000E+01 0.  1.
<mgrwt>
<rscale>  0 0.11717798E+03</rscale>
<asrwt>0</asrwt>
<pdfrwt beam="1">  1        1 0.34698514E-01 0.11735426E+03</pdfrwt>
<pdfrwt beam="2">  1       -1 0.23438602E-01 0.11735426E+03</pdfrwt>
<totfact> 0.18983603E+03</totfact>
</mgrwt>
</event>
<event>
 8    1  0.5224537E-004  0.1085557E+03  0.7546771E-02  0.1265094E+00
          2   -1    0    0  501    0  0.00000000000E+00  0.00000000000E+00  0.22937296474E+03  0.22937296474E+03  0.00000000000E+00 0. -1.
         -2   -1    0    0    0  501 -0.00000000000E+00 -0.00000000000E+00 -0.13459808620E+03  0.13459808620E+03  0.00000000000E+00 0.  1.
         23    2    1    2    0    0 -0.38061852989E+02 -0.47372730616E+02 -0.97539014390E+02  0.14313405139E+03  0.85326532103E+02 0.  0.
         23    2    1    2    0    0  0.38061852989E+02  0.47372730616E+02  0.19231389293E+03  0.22083699955E+03  0.89952580269E+02 0.  0.
          5    1    4    4  502    0  0.48524800324E+02  0.64549944425E+02  0.11359509744E+03  0.13945353253E+03  0.47000000000E+01 0. -1.
         -5    1    3    3    0  503 -0.57578794880E+02 -0.51899632246E+01 -0.55874096790E+02  0.80537308313E+02  0.47000000000E+01 0.  1.
          5    1    3    3  503    0  0.19516941891E+02 -0.42182767391E+02 -0.41664917599E+02  0.62596743079E+02  0.47000000000E+01 0. -1.
         -5    1    4    4    0  502 -0.10462947335E+02 -0.17177213810E+02  0.78718795489E+02  0.81383467021E+02  0.47000000000E+01 0.  1.
<mgrwt>
<rscale>  0 0.10759267E+03</rscale>
<asrwt>0</asrwt>
<pdfrwt beam="1">  1        2 0.35288148E-01 0.10855573E+03</pdfrwt>
<pdfrwt beam="2">  1       -2 0.20707398E-01 0.10855573E+03</pdfrwt>
<totfact> 0.27785499E+03</totfact>
</mgrwt>
</event>
<event>
 8    1  0.5224537E-004  0.1018302E+03  0.7546771E-02  0.1283268E+00
         -2   -1    0    0    0  501 -0.00000000000E+00  0.00000000000E+00  0.38149313305E+02  0.38149313305E+02  0.00000000000E+00 0.  1.
          2   -1    0    0  501    0  0.00000000000E+00 -0.00000000000E+00 -0.39285818212E+03  0.39285818212E+03  0.00000000000E+00 0. -1.
         23    2    1    2    0    0 -0.24454732443E+02 -0.34846592023E+02 -0.30467001304E+03  0.31754702874E+03  0.78739949867E+02 0.  0.
         23    2    1    2    0    0  0.24454732443E+02  0.34846592023E+02 -0.50038855777E+02  0.11346046668E+03  0.92504440421E+02 0.  0.
          5    1    3    3  502    0 -0.41762041919E+02  0.79922444689E+01 -0.15890820831E+03  0.16456564886E+03  0.47000000000E+01 0.  1.
         -5    1    4    4    0  503 -0.26632340813E+02  0.99459488957E+01 -0.48499011414E+02  0.56413186267E+02  0.47000000000E+01 0.  1.
          5    1    4    4  503    0  0.51087073256E+02  0.24900643127E+02 -0.15398443629E+01  0.57047280414E+02  0.47000000000E+01 0. -1.
         -5    1    3    3    0  502  0.17307309476E+02 -0.42838836492E+02 -0.14576180473E+03  0.15298137989E+03  0.47000000000E+01 0. -1.
<mgrwt>
<rscale>  0 0.98600042E+02</rscale>
<asrwt>0</asrwt>
<pdfrwt beam="1">  1        2 0.60439719E-01 0.10183020E+03</pdfrwt>
<pdfrwt beam="2">  1       -2 0.58691252E-02 0.10183020E+03</pdfrwt>
<totfact> 0.11531262E+04</totfact>
</mgrwt>
</event>
<event>
 8    1  0.5961422E-004  0.1228284E+03  0.7546771E-02  0.1246376E+00
          1   -1    0    0  501    0  0.00000000000E+00  0.00000000000E+00  0.30933169189E+03  0.30933169189E+03  0.00000000000E+00 0. -1.
         -1   -1    0    0    0  501 -0.00000000000E+00 -0.00000000000E+00 -0.95268064052E+02  0.95268064052E+02  0.00000000000E+00 0.  1.
         23    2    1    2    0    0 -0.28763158502E+02  0.38251978885E+02  0.26203381008E+03  0.28939340044E+03  0.11312068519E+03 0.  0.
         23    2    1    2    0    0  0.28763158502E+02 -0.38251978885E+02 -0.47970182240E+02  0.11520635550E+03  0.93170986838E+02 0.  0.
          5    1    4    4  502    0 -0.31079581942E+02 -0.29239679152E+02 -0.11700379329E+02  0.44495933826E+02  0.47000000000E+01 0. -1.
         -5    1    4    4    0  502  0.59842740444E+02 -0.90122997324E+01 -0.36269802912E+02  0.70710421676E+02  0.47000000000E+01 0.  1.
          5    1    3    3  503    0 -0.35735869415E+02 -0.48906841399E+01  0.23498378118E+03  0.23778233444E+03  0.47000000000E+01 0. -1.
         -5    1    3    3    0  503  0.69727109128E+01  0.43142663025E+02  0.27050028902E+02  0.51611066002E+02  0.47000000000E+01 0.  1.
<mgrwt>
<rscale>  0 0.11803390E+03</rscale>
<asrwt>0</asrwt>
<pdfrwt beam="1">  1        1 0.47589490E-01 0.12282843E+03</pdfrwt>
<pdfrwt beam="2">  1       -1 0.14656625E-01 0.12282843E+03</pdfrwt>
<totfact> 0.27192138E+03</totfact>
</mgrwt>
</event>
<event>
 8    1  0.5224537E-004  0.9465744E+02  0.7546771E-02  0.1294179E+00
          4   -1    0    0  501    0  0.00000000000E+00  0.00000000000E+00  0.13129778779E+04  0.13129778779E+04  0.00000000000E+00 0. -1.
         -4   -1    0    0    0  501 -0.00000000000E+00 -0.00000000000E+00 -0.65568601372E+01  0.65568601372E+01  0.00000000000E+00 0.  1.
         23    2    1    2    0    0 -0.15877399682E+02 -0.13738906876E+02  0.66219618655E+03  0.66839292300E+03  0.88342858475E+02 0.  0.
         23    2    1    2    0    0  0.15877399682E+02  0.13738906876E+02  0.64422483121E+03  0.65114181504E+03  0.92299408257E+02 0.  0.
          5    1    4    4  502    0 -0.31737856260E+02 -0.15887116978E+02  0.32803618725E+03  0.32998412409E+03  0.47000000000E+01 0. -1.
         -5    1    3    3    0  503  0.35892240270E+02 -0.12523533811E+02  0.31617605829E+03  0.31848780455E+03  0.47000000000E+01 0.  1.
          5    1    3    3  503    0 -0.51769639952E+02 -0.12153730656E+01  0.34602012826E+03  0.34990511845E+03  0.47000000000E+01 0. -1.
         -5    1    4    4    0  502  0.47615255942E+02  0.29626023854E+02  0.31618864396E+03  0.32115769095E+03  0.47000000000E+01 0.  1.
<mgrwt>
<rscale>  0 0.93678931E+02</rscale>
<asrwt>0</asrwt>
<pdfrwt beam="1">  1        4 0.20199639E+00 0.94657436E+02</pdfrwt>
<pdfrwt beam="2">  1       -4 0.10087488E-02 0.94657436E+02</pdfrwt>
<totfact> 0.63821809E+02</totfact>
</mgrwt>
</event>
<event>
 8    1  0.5224537E-004  0.1422684E+03  0.7546771E-02  0.1211298E+00
         -2   -1    0    0    0  501 -0.00000000000E+00  0.00000000000E+00  0.11568692045E+04  0.11568692045E+04  0.00000000000E+00 0.  1.
          2   -1    0    0  501    0  0.00000000000E+00 -0.00000000000E+00 -0.19214389885E+02  0.19214389885E+02  0.00000000000E+00 0. -1.
         23    2    1    2    0    0 -0.10476178530E+03 -0.23875403442E+02  0.76773479586E+03  0.78080536241E+03  0.93248220640E+02 0.  0.
         23    2    1    2    0    0  0.10476178530E+03  0.23875403442E+02  0.36992001880E+03  0.39527823201E+03  0.88650966413E+02 0.  0.
          5    1    4    4  502    0  0.11984718911E+01 -0.20581720728E+02  0.27076764382E+02  0.34355272265E+02  0.47000000000E+01 0. -1.
         -5    1    4    4    0  502  0.10356331341E+03  0.44457124170E+02  0.34284325441E+03  0.36092295975E+03  0.47000000000E+01 0.  1.
          5    1    3    3  503    0 -0.46724517420E+02 -0.52855853017E+02  0.51522249571E+03  0.52005118191E+03  0.47000000000E+01 0. -1.
         -5    1    3    3    0  503 -0.58037267883E+02  0.28980449575E+02  0.25251230015E+03  0.26075418050E+03  0.47000000000E+01 0.  1.
<mgrwt>
<rscale>  0 0.14152003E+03</rscale>
<asrwt>0</asrwt>
<pdfrwt beam="1">  1        2 0.29560609E-02 0.14226840E+03</pdfrwt>
<pdfrwt beam="2">  1       -2 0.17797982E+00 0.14226840E+03</pdfrwt>
<totfact> 0.62703181E+02</totfact>
</mgrwt>
</event>
<event>
 8    1  0.5224537E-004  0.1002474E+03  0.7546771E-02  0.1280440E+00
         -2   -1    0    0    0  501 -0.00000000000E+00  0.00000000000E+00  0.47985743992E+02  0.47985743992E+02  0.00000000000E+00 0.  1.
          2   -1    0    0  501    0  0.00000000000E+00 -0.00000000000E+00 -0.49109986539E+03  0.49109986539E+03  0.00000000000E+00 0. -1.
         23    2    1    2    0    0 -0.34961426968E+02 -0.64450964999E+01 -0.17067095876E+02  0.10168988298E+03  0.93732096399E+02 0.  0.
         23    2    1    2    0    0  0.34961426968E+02  0.64450964999E+01 -0.42604702552E+03  0.43739572639E+03  0.92385674587E+02 0.  0.
          5    1    4    4  502    0  0.54914217388E+02  0.28084483407E+02 -0.19877956041E+03  0.20818192312E+03  0.47000000000E+01 0. -1.
         -5    1    3    3    0  503  0.41397514484E+01 -0.21204670556E+02  0.30836159797E+02  0.37943831468E+02  0.47000000000E+01 0.  1.
          5    1    3    3  503    0 -0.39101178417E+02  0.14759574056E+02 -0.47903255673E+02  0.63746051517E+02  0.47000000000E+01 0. -1.
         -5    1    4    4    0  502 -0.19952790419E+02 -0.21639386907E+02 -0.22726746511E+03  0.22921380327E+03  0.47000000000E+01 0.  1.
<mgrwt>
<rscale>  0 0.99931496E+02</rscale>
<asrwt>0</asrwt>
<pdfrwt beam="1">  1        2 0.75553826E-01 0.10024743E+03</pdfrwt>
<pdfrwt beam="2">  1       -2 0.73824221E-02 0.10024743E+03</pdfrwt>
<totfact> 0.64142617E+03</totfact>
</mgrwt>
</event>
<event>
 8    1  0.5224537E-004  0.1005539E+03  0.7546771E-02  0.1279613E+00
         -4   -1    0    0    0  501 -0.00000000000E+00  0.00000000000E+00  0.10365465727E+03  0.10365465727E+03  0.00000000000E+00 0.  1.
          4   -1    0    0  501    0  0.00000000000E+00 -0.00000000000E+00 -0.99983446302E+02  0.99983446302E+02  0.00000000000E+00 0. -1.
         23    2    1    2    0    0 -0.40004502174E+02  0.53124404716E+01 -0.16704982225E+02  0.10193206943E+03  0.92100532730E+02 0.  0.
         23    2    1    2    0    0  0.40004502174E+02 -0.53124404716E+01  0.20376193197E+02  0.10170603415E+03  0.91106234225E+02 0.  0.
          5    1    4    4  502    0 -0.23029573851E+01  0.37325887692E+02  0.17039946199E+02  0.41363936843E+02  0.47000000000E+01 0. -1.
         -5    1    3    3    0  503  0.28397792311E+02 -0.96093143197E+01 -0.63600905443E+01  0.31005068643E+02  0.47000000000E+01 0.  1.
          5    1    3    3  503    0 -0.68402294484E+02  0.14921754791E+02 -0.10344891681E+02  0.70927000787E+02  0.47000000000E+01 0. -1.
         -5    1    4    4    0  502  0.42307459559E+02 -0.42638328163E+02  0.33362469980E+01  0.60342097303E+02  0.47000000000E+01 0.  1.
<mgrwt>
<rscale>  0 0.10032566E+03</rscale>
<asrwt>0</asrwt>
<pdfrwt beam="1">  1        4 0.15382069E-01 0.10055392E+03</pdfrwt>
<pdfrwt beam="2">  1       -4 0.15946870E-01 0.10055392E+03</pdfrwt>
<totfact> 0.18666865E+03</totfact>
</mgrwt>
</event>
<event>
 8    1  0.5224537E-004  0.1461997E+03  0.7546771E-02  0.1205281E+00
         -2   -1    0    0    0  501 -0.00000000000E+00  0.00000000000E+00  0.51528524160E+02  0.51528524160E+02  0.00000000000E+00 0.  1.
          2   -1    0    0  501    0  0.00000000000E+00 -0.00000000000E+00 -0.42365288887E+03  0.42365288887E+03  0.00000000000E+00 0. -1.
         23    2    1    2    0    0 -0.90524324250E+02  0.70554992497E+02 -0.15061703911E+03  0.20977636383E+03  0.90266107171E+02 0.  0.
         23    2    1    2    0    0  0.90524324250E+02 -0.70554992497E+02 -0.22150732561E+03  0.26540504921E+03  0.90563152550E+02 0.  0.
          5    1    4    4  502    0  0.61276876841E+02 -0.42541067913E+02 -0.21020218763E+03  0.22309560233E+03  0.47000000000E+01 0. -1.
         -5    1    3    3    0  503  0.99498838198E+01  0.38552236672E+02 -0.48315491319E+02  0.62783372335E+02  0.47000000000E+01 0.  1.
          5    1    3    3  503    0 -0.10047420807E+03  0.32002755825E+02 -0.10230154779E+03  0.14699299149E+03  0.47000000000E+01 0. -1.
         -5    1    4    4    0  502  0.29247447409E+02 -0.28013924584E+02 -0.11305137980E+02  0.42309446880E+02  0.47000000000E+01 0.  1.
<mgrwt>
<rscale>  0 0.14615370E+03</rscale>
<asrwt>0</asrwt>
<pdfrwt beam="1">  1        2 0.65177370E-01 0.14619967E+03</pdfrwt>
<pdfrwt beam="2">  1       -2 0.79274650E-02 0.14619967E+03</pdfrwt>
<totfact> 0.69050475E+03</totfact>
</mgrwt>
</event>
<event>
 8    1  0.5224537E-004  0.1014742E+03  0.7546771E-02  0.1278733E+00
          2   -1    0    0  501    0  0.00000000000E+00  0.00000000000E+00  0.17150191482E+03  0.17150191482E+03  0.00000000000E+00 0. -1.
         -2   -1    0    0    0  501 -0.00000000000E+00 -0.00000000000E+00 -0.15774351761E+03  0.15774351761E+03  0.00000000000E+00 0.  1.
         23    2    1    2    0    0 -0.79440396166E+01 -0.43646941048E+02 -0.12375444240E+03  0.16003805255E+03  0.91262549937E+02 0.  0.
         23    2    1    2    0    0  0.79440396166E+01  0.43646941048E+02  0.13751283961E+03  0.16920737989E+03  0.88052218152E+02 0.  0.
          5    1    3    3  502    0 -0.29596945487E+02  0.11697606306E+02 -0.79591241321E+02  0.85846775540E+02  0.47000000000E+01 0. -1.
         -5    1    4    4    0  503  0.26134290810E+02 -0.16047157836E+02  0.22688324608E+02  0.38436473619E+02  0.47000000000E+01 0.  1.
          5    1    4    4  503    0 -0.18190251193E+02  0.59694098884E+02  0.11482451500E+03  0.13077090627E+03  0.47000000000E+01 0. -1.
         -5    1    3    3    0  502  0.21652905871E+02 -0.55344547354E+02 -0.44163201080E+02  0.74191277008E+02  0.47000000000E+01 0.  1.
<mgrwt>
<rscale>  0 0.10074712E+03</rscale>
<asrwt>0</asrwt>
<pdfrwt beam="1">  1        2 0.26384910E-01 0.10147421E+03</pdfrwt>
<pdfrwt beam="2">  1       -2 0.24268233E-01 0.10147421E+03</pdfrwt>
<totfact> 0.28840935E+03</totfact>
</mgrwt>
</event>
<event>
 8    1  0.5224537E-004  0.1119462E+03  0.7546771E-02  0.1257057E+00
         -1   -1    0    0    0  501 -0.00000000000E+00  0.00000000000E+00  0.37354975471E+02  0.37354975471E+02  0.00000000000E+00 0.  1.
          1   -1    0    0  501    0  0.00000000000E+00 -0.00000000000E+00 -0.43354141555E+03  0.43354141555E+03  0.00000000000E+00 0. -1.
         23    2    1    2    0    0 -0.17836759700E+02  0.60704368331E+02 -0.85854993294E+02  0.14099099615E+03  0.92218277966E+02 0.  0.
         23    2    1    2    0    0  0.17836759700E+02 -0.60704368331E+02 -0.31033144678E+03  0.32990539487E+03  0.92351461113E+02 0.  0.
          5    1    4    4  502    0  0.11153353024E+02 -0.26755204057E+02 -0.28562423676E+03  0.28712981881E+03  0.47000000000E+01 0. -1.
         -5    1    4    4    0  502  0.66834066760E+01 -0.33949164274E+02 -0.24707210025E+02  0.42775576056E+02  0.47000000000E+01 0.  1.
          5    1    3    3  503    0 -0.41815120198E+02  0.20515823711E+02 -0.81199356773E+02  0.93727417761E+02  0.47000000000E+01 0. -1.
         -5    1    3    3    0  503  0.23978360497E+02  0.40188544620E+02 -0.46556365204E+01  0.47263578390E+02  0.47000000000E+01 0.  1.
<mgrwt>
<rscale>  0 0.11191878E+03</rscale>
<asrwt>0</asrwt>
<pdfrwt beam="1">  1        1 0.66698683E-01 0.11194625E+03</pdfrwt>
<pdfrwt beam="2">  1       -1 0.57469190E-02 0.11194625E+03</pdfrwt>
<totfact> 0.73388994E+03</totfact>
</mgrwt>
</event>
<event>
 8    1  0.5224537E-004  0.9286147E+02  0.7546771E-02  0.1308533E+00
         -2   -1    0    0    0  501 -0.00000000000E+00  0.00000000000E+00  0.36262677041E+02  0.36262677041E+02  0.00000000000E+00 0.  1.
          2   -1    0    0  501    0  0.00000000000E+00 -0.00000000000E+00 -0.28735759291E+03  0.28735759291E+03  0.00000000000E+00 0. -1.
         23    2    1    2    0    0  0.53149207846E+01 -0.14164693191E+00 -0.42099033218E+02  0.10195872560E+03  0.92709140227E+02 0.  0.
         23    2    1    2    0    0 -0.53149207846E+01  0.14164693191E+00 -0.20899588265E+03  0.22166154435E+03  0.73663375102E+02 0.  0.
          5    1    4    4  502    0 -0.13637636728E+01 -0.31243631775E+02 -0.16039307159E+03  0.16348104413E+03  0.47000000000E+01 0. -1.
         -5    1    3    3    0  503  0.28025092497E+02  0.26147164225E+02  0.93218466544E+01  0.39724889321E+02  0.47000000000E+01 0.  1.
          5    1    3    3  503    0 -0.22710171713E+02 -0.26288811157E+02 -0.51420879873E+02  0.62233836281E+02  0.47000000000E+01 0. -1.
         -5    1    4    4    0  502 -0.39511571118E+01  0.31385278707E+02 -0.48602811062E+02  0.58180500214E+02  0.47000000000E+01 0.  1.
<mgrwt>
<rscale>  0 0.87694358E+02</rscale>
<asrwt>0</asrwt>
<pdfrwt beam="1">  1        2 0.44208861E-01 0.92861473E+02</pdfrwt>
<pdfrwt beam="2">  1       -2 0.55788733E-02 0.92861473E+02</pdfrwt>
<totfact> 0.17129471E+04</totfact>
</mgrwt>
</event>
<event>
 8    1  0.5224537E-004  0.9838183E+02  0.7546771E-02  0.1283926E+00
          2   -1    0    0  501    0  0.00000000000E+00  0.00000000000E+00  0.68303844367E+03  0.68303844367E+03  0.00000000000E+00 0. -1.
         -2   -1    0    0    0  501 -0.00000000000E+00 -0.00000000000E+00 -0.18753722250E+02  0.18753722250E+02  0.00000000000E+00 0.  1.
         23    2    1    2    0    0  0.24185449904E+01  0.32612312262E+02  0.15726312621E+03  0.18531382005E+03  0.92412708898E+02 0.  0.
         23    2    1    2    0    0 -0.24185449904E+01 -0.32612312262E+02  0.50702159521E+03  0.51647834587E+03  0.92787776514E+02 0.  0.
          5    1    3    3  502    0  0.14363564983E+02  0.51361305222E+02  0.15312899001E+03  0.16221859713E+03  0.47000000000E+01 0. -1.
         -5    1    3    3    0  502 -0.11945019992E+02 -0.18748992961E+02  0.41341361987E+01  0.23095222921E+02  0.47000000000E+01 0.  1.
          5    1    4    4  503    0 -0.44255668470E+02 -0.17515945554E+02  0.17350436026E+03  0.17997562493E+03  0.47000000000E+01 0. -1.
         -5    1    4    4    0  503  0.41837123480E+02 -0.15096366707E+02  0.33351723495E+03  0.33650272093E+03  0.47000000000E+01 0.  1.
<mgrwt>
<rscale>  0 0.98293291E+02</rscale>
<asrwt>0</asrwt>
<pdfrwt beam="1">  1        2 0.10508282E+00 0.98381826E+02</pdfrwt>
<pdfrwt beam="2">  1       -2 0.28851886E-02 0.98381826E+02</pdfrwt>
<totfact> 0.17889318E+04</totfact>
</mgrwt>
</event>
<event>
 8    1  0.5224537E-004  0.1023916E+03  0.7546771E-02  0.1276653E+00
          1   -1    0    0  501    0  0.00000000000E+00  0.00000000000E+00  0.13955439222E+03  0.13955439222E+03  0.00000000000E+00 0. -1.
         -1   -1    0    0    0  501 -0.00000000000E+00 -0.00000000000E+00 -0.92471312660E+02  0.92471312660E+02  0.00000000000E+00 0.  1.
         23    2    1    2    0    0 -0.72500601245E+01  0.38639530473E+02 -0.29540769252E+02  0.10413806576E+03  0.91795985776E+02 0.  0.
         23    2    1    2    0    0  0.72500601245E+01 -0.38639530473E+02  0.76623848813E+02  0.12788763912E+03  0.94543415144E+02 0.  0.
          5    1    3    3  502    0  0.12080158466E+02 -0.16064583803E+02  0.19219955625E+02  0.28204570118E+02  0.47000000000E+01 0. -1.
         -5    1    4    4    0  503 -0.40244694476E+02 -0.36252436049E+02  0.36435600792E+02  0.65448587135E+02  0.47000000000E+01 0.  1.
          5    1    4    4  503    0  0.47494754600E+02 -0.23870944239E+01  0.40188248021E+02  0.62439051989E+02  0.47000000000E+01 0. -1.
         -5    1    3    3    0  502 -0.19330218590E+02  0.54704114275E+02 -0.48760724877E+02  0.75933495639E+02  0.47000000000E+01 0.  1.
<mgrwt>
<rscale>  0 0.10175280E+03</rscale>
<asrwt>0</asrwt>
<pdfrwt beam="1">  1        1 0.21469907E-01 0.10239157E+03</pdfrwt>
<pdfrwt beam="2">  1       -1 0.14226356E-01 0.10239157E+03</pdfrwt>
<totfact> 0.75408920E+03</totfact>
</mgrwt>
</event>
<event>
 8    1  0.5224537E-004  0.2094530E+03  0.7546771E-02  0.1143941E+00
         -4   -1    0    0    0  501 -0.00000000000E+00  0.00000000000E+00  0.28687104005E+03  0.28687104005E+03  0.00000000000E+00 0.  1.
          4   -1    0    0  501    0  0.00000000000E+00 -0.00000000000E+00 -0.15695628625E+03  0.15695628625E+03  0.00000000000E+00 0. -1.
         23    2    1    2    0    0  0.66370010583E+02 -0.16581936449E+03  0.50654971389E+01  0.19998738677E+03  0.89823469428E+02 0.  0.
         23    2    1    2    0    0 -0.66370010583E+02  0.16581936449E+03  0.12484925666E+03  0.24383993953E+03  0.10940538962E+03 0.  0.
          5    1    4    4  502    0 -0.12699531822E+02  0.25966842810E+02  0.83326709276E+02  0.88323187855E+02  0.47000000000E+01 0. -1.
         -5    1    3    3    0  503  0.32317193039E+02 -0.63334077063E+02  0.45533898077E+02  0.84563775681E+02  0.47000000000E+01 0.  1.
          5    1    3    3  503    0  0.34052817544E+02 -0.10248528743E+03 -0.40468400938E+02  0.11542361109E+03  0.47000000000E+01 0. -1.
         -5    1    4    4    0  502 -0.53670478761E+02  0.13985252168E+03  0.41522547379E+02  0.15551675168E+03  0.47000000000E+01 0.  1.
<mgrwt>
<rscale>  0 0.20702883E+03</rscale>
<asrwt>0</asrwt>
<pdfrwt beam="1">  1        4 0.24147121E-01 0.20945305E+03</pdfrwt>
<pdfrwt beam="2">  1       -4 0.44134006E-01 0.20945305E+03</pdfrwt>
<totfact> 0.14285144E+02</totfact>
</mgrwt>
</event>
<event>
 8    1  0.5224537E-004  0.1181966E+03  0.7546771E-02  0.1253728E+00
         -1   -1    0    0    0  501 -0.00000000000E+00  0.00000000000E+00  0.30069708465E+03  0.30069708465E+03  0.00000000000E+00 0.  1.
          1   -1    0    0  501    0  0.00000000000E+00 -0.00000000000E+00 -0.63001887067E+02  0.63001887067E+02  0.00000000000E+00 0. -1.
         23    2    1    2    0    0 -0.36716548845E+02  0.27638407503E+02  0.37156031919E+01  0.10155991980E+03  0.90491022063E+02 0.  0.
         23    2    1    2    0    0  0.36716548845E+02 -0.27638407503E+02  0.23397959439E+03  0.26213905192E+03  0.10889648948E+03 0.  0.
          5    1    3    3  502    0  0.17336255511E+02  0.15395842021E+02  0.31492932719E+02  0.39388735927E+02  0.47000000000E+01 0.  1.
         -5    1    3    3    0  502 -0.54052804356E+02  0.12242565482E+02 -0.27777329527E+02  0.62171183871E+02  0.47000000000E+01 0. -1.
          5    1    4    4  503    0  0.20146174626E+02 -0.45810654007E+02  0.34199773663E+02  0.60796372352E+02  0.47000000000E+01 0. -1.
         -5    1    4    4    0  503  0.16570374219E+02  0.18172246504E+02  0.19977982073E+03  0.20134267957E+03  0.47000000000E+01 0.  1.
<mgrwt>
<rscale>  0 0.11377886E+03</rscale>
<asrwt>0</asrwt>
<pdfrwt beam="1">  1        1 0.96925982E-02 0.11819658E+03</pdfrwt>
<pdfrwt beam="2">  1       -1 0.46261089E-01 0.11819658E+03</pdfrwt>
<totfact> 0.30367938E+03</totfact>
</mgrwt>
</event>
<event>
 8    1  0.5224537E-004  0.1118091E+03  0.7546771E-02  0.1257271E+00
         -3   -1    0    0    0  501 -0.00000000000E+00  0.00000000000E+00  0.23483330293E+03  0.23483330293E+03  0.00000000000E+00 0.  1.
          3   -1    0    0  501    0  0.00000000000E+00 -0.00000000000E+00 -0.57711227993E+02  0.57711227993E+02  0.00000000000E+00 0. -1.
         23    2    1    2    0    0 -0.61068254244E+02 -0.20462076695E+02  0.12936102715E+03  0.17096166068E+03  0.91354177891E+02 0.  0.
         23    2    1    2    0    0  0.61068254244E+02  0.20462076695E+02  0.47761047787E+02  0.12158287024E+03  0.91396107092E+02 0.  0.
          5    1    4    4  502    0  0.38524342264E+02  0.24142127586E+02 -0.20022701008E+02  0.49899557382E+02  0.47000000000E+01 0. -1.
         -5    1    3    3    0  503 -0.38103860380E+02 -0.49076984527E+02  0.11591964226E+03  0.13160512166E+03  0.47000000000E+01 0.  1.
          5    1    3    3  503    0 -0.22964393864E+02  0.28614907832E+02  0.13441384893E+02  0.39356539020E+02  0.47000000000E+01 0. -1.
         -5    1    4    4    0  502  0.22543911980E+02 -0.36800508912E+01  0.67783748795E+02  0.71683312860E+02  0.47000000000E+01 0.  1.
<mgrwt>
<rscale>  0 0.11180054E+03</rscale>
<asrwt>0</asrwt>
<pdfrwt beam="1">  1        3 0.88786506E-02 0.11180911E+03</pdfrwt>
<pdfrwt beam="2">  1       -3 0.36128200E-01 0.11180911E+03</pdfrwt>
<totfact> 0.15087332E+03</totfact>
</mgrwt>
</event>
<event>
 8    1  0.5224537E-004  0.1139928E+03  0.7546771E-02  0.1254466E+00
         -2   -1    0    0    0  501 -0.00000000000E+00  0.00000000000E+00  0.29584231476E+02  0.29584231476E+02  0.00000000000E+00 0.  1.
          2   -1    0    0  501    0  0.00000000000E+00 -0.00000000000E+00 -0.55320026733E+03  0.55320026733E+03  0.00000000000E+00 0. -1.
         23    2    1    2    0    0 -0.55873339146E+02  0.41845566229E+02 -0.12185927659E+03  0.16516881103E+03  0.86937744418E+02 0.  0.
         23    2    1    2    0    0  0.55873339146E+02 -0.41845566229E+02 -0.40175675926E+03  0.41761568778E+03  0.90119296634E+02 0.  0.
          5    1    4    4  502    0  0.48083678243E+02  0.95426912254E+01 -0.29151448487E+03  0.29564486797E+03  0.47000000000E+01 0. -1.
         -5    1    3    3    0  503 -0.28806457847E+02  0.66975583744E+02 -0.91756718256E+02  0.11728992359E+03  0.47000000000E+01 0.  1.
          5    1    3    3  503    0 -0.27066881299E+02 -0.25130017515E+02 -0.30102558338E+02  0.47878887435E+02  0.47000000000E+01 0. -1.
         -5    1    4    4    0  502  0.77896609028E+01 -0.51388257454E+02 -0.11024227439E+03  0.12197081981E+03  0.47000000000E+01 0.  1.
<mgrwt>
<rscale>  0 0.11336309E+03</rscale>
<asrwt>0</asrwt>
<pdfrwt beam="1">  1        2 0.85107722E-01 0.11399285E+03</pdfrwt>
<pdfrwt beam="2">  1       -2 0.45514208E-02 0.11399285E+03</pdfrwt>
<totfact> 0.11762683E+04</totfact>
</mgrwt>
</event>
<event>
 8    1  0.5224537E-004  0.9697154E+02  0.7546771E-02  0.1287176E+00
          2   -1    0    0  501    0  0.00000000000E+00  0.00000000000E+00  0.95781871892E+03  0.95781871892E+03  0.00000000000E+00 0. -1.
         -2   -1    0    0    0  501 -0.00000000000E+00 -0.00000000000E+00 -0.14213044009E+02  0.14213044009E+02  0.00000000000E+00 0.  1.
         23    2    1    2    0    0 -0.25580879308E+02  0.13418691896E+02  0.20054710245E+03  0.22276135062E+03  0.92569089600E+02 0.  0.
         23    2    1    2    0    0  0.25580879308E+02 -0.13418691896E+02  0.74305857246E+03  0.74927041231E+03  0.91845881680E+02 0.  0.
          5    1    3    3  502    0 -0.31301956475E+02 -0.35212533819E+02  0.10887522749E+03  0.11872506129E+03  0.47000000000E+01 0. -1.
         -5    1    3    3    0  502  0.57210771668E+01  0.48631225715E+02  0.91671874962E+02  0.10403628933E+03  0.47000000000E+01 0.  1.
          5    1    4    4  503    0 -0.30473363880E+02 -0.22097885848E+02  0.36244101138E+03  0.36442079962E+03  0.47000000000E+01 0. -1.
         -5    1    4    4    0  503  0.56054243189E+02  0.86791939518E+01  0.38061756108E+03  0.38484961269E+03  0.47000000000E+01 0.  1.
<mgrwt>
<rscale>  0 0.96798541E+02</rscale>
<asrwt>0</asrwt>
<pdfrwt beam="1">  1        2 0.14735668E+00 0.96971537E+02</pdfrwt>
<pdfrwt beam="2">  1       -2 0.21866229E-02 0.96971537E+02</pdfrwt>
<totfact> 0.17584339E+04</totfact>
</mgrwt>
</event>
<event>
 8    1  0.5224537E-004  0.9967766E+02  0.7546771E-02  0.1283617E+00
         -1   -1    0    0    0  501 -0.00000000000E+00  0.00000000000E+00  0.12025058208E+03  0.12025058208E+03  0.00000000000E+00 0.  1.
          1   -1    0    0  501    0  0.00000000000E+00 -0.00000000000E+00 -0.81840623708E+02  0.81840623708E+02  0.00000000000E+00 0. -1.
         23    2    1    2    0    0 -0.40855154212E+00  0.26803026314E+02 -0.12449834839E+01  0.94815157418E+02  0.90938412997E+02 0.  0.
         23    2    1    2    0    0  0.40855154212E+00 -0.26803026314E+02  0.39654941858E+02  0.10727604837E+03  0.96005557166E+02 0.  0.
          5    1    3    3  502    0  0.21925112818E+02  0.46602881371E+02 -0.23976689874E+02  0.57004480363E+02  0.47000000000E+01 0. -1.
         -5    1    4    4    0  503 -0.39641852122E+02 -0.18731349875E+01  0.44273593381E+02  0.59642486075E+02  0.47000000000E+01 0.  1.
          5    1    4    4  503    0  0.40050403664E+02 -0.24929891327E+02 -0.46186515232E+01  0.47633562297E+02  0.47000000000E+01 0. -1.
         -5    1    3    3    0  502 -0.22333664360E+02 -0.19799855056E+02  0.22731706390E+02  0.37810677056E+02  0.47000000000E+01 0.  1.
<mgrwt>
<rscale>  0 0.98437021E+02</rscale>
<asrwt>0</asrwt>
<pdfrwt beam="1">  1        1 0.12590865E-01 0.99677661E+02</pdfrwt>
<pdfrwt beam="2">  1       -1 0.18500090E-01 0.99677661E+02</pdfrwt>
<totfact> 0.98527207E+03</totfact>
</mgrwt>
</event>
<event>
 8    1  0.5224537E-004  0.1004739E+03  0.7546771E-02  0.1284193E+00
         -1   -1    0    0    0  501 -0.00000000000E+00  0.00000000000E+00  0.11366503207E+03  0.11366503207E+03  0.00000000000E+00 0.  1.
          1   -1    0    0  501    0  0.00000000000E+00 -0.00000000000E+00 -0.81831916412E+02  0.81831916412E+02  0.00000000000E+00 0. -1.
         23    2    1    2    0    0 -0.41409634078E+01  0.20016552361E+02  0.60486809814E+01  0.91767244081E+02  0.89257103910E+02 0.  0.
         23    2    1    2    0    0  0.41409634078E+01 -0.20016552361E+02  0.25784434680E+02  0.10372970440E+03  0.98372783623E+02 0.  0.
          5    1    3    3  502    0  0.34758040373E+02 -0.15686288890E+02  0.68369377900E-01  0.38422333402E+02  0.47000000000E+01 0. -1.
         -5    1    4    4    0  503 -0.84035792409E+00  0.30873277750E+02  0.39710659155E+02  0.50526150962E+02  0.47000000000E+01 0.  1.
          5    1    4    4  503    0  0.49813213318E+01 -0.50889830110E+02 -0.13926224475E+02  0.53203553443E+02  0.47000000000E+01 0. -1.
         -5    1    3    3    0  502 -0.38899003781E+02  0.35702841251E+02  0.59803116035E+01  0.53344910679E+02  0.47000000000E+01 0.  1.
<mgrwt>
<rscale>  0 0.98169293E+02</rscale>
<asrwt>0</asrwt>
<pdfrwt beam="1">  1        1 0.12589526E-01 0.10047395E+03</pdfrwt>
<pdfrwt beam="2">  1       -1 0.17486928E-01 0.10047395E+03</pdfrwt>
<totfact> 0.10777454E+04</totfact>
</mgrwt>
</event>
<event>
 8    1  0.5224537E-004  0.9450730E+02  0.7546771E-02  0.1292459E+00
         -1   -1    0    0    0  501 -0.00000000000E+00  0.00000000000E+00  0.73094415491E+03  0.73094415491E+03  0.00000000000E+00 0.  1.
          1   -1    0    0  501    0  0.00000000000E+00 -0.00000000000E+00 -0.14400168691E+02  0.14400168691E+02  0.00000000000E+00 0. -1.
         23    2    1    2    0    0 -0.73459034349E+01 -0.17535620214E+02  0.50409699113E+03  0.51282474361E+03  0.92271235603E+02 0.  0.
         23    2    1    2    0    0  0.73459034349E+01  0.17535620214E+02  0.21244699509E+03  0.23251957999E+03  0.92575207710E+02 0.  0.
          5    1    4    4  502    0  0.14735836793E+02  0.37735862022E+02  0.35089117982E+02  0.53800338004E+02  0.47000000000E+01 0. -1.
         -5    1    4    4    0  502 -0.73899333579E+01 -0.20200241808E+02  0.17735787711E+03  0.17871924199E+03  0.47000000000E+01 0.  1.
          5    1    3    3  503    0 -0.44623251717E+02  0.10241924008E+02  0.20523805818E+03  0.21033516617E+03  0.47000000000E+01 0. -1.
         -5    1    3    3    0  503  0.37277348282E+02 -0.27777544222E+02  0.29885893294E+03  0.30248957744E+03  0.47000000000E+01 0.  1.
<mgrwt>
<rscale>  0 0.94432775E+02</rscale>
<asrwt>0</asrwt>
<pdfrwt beam="1">  1        1 0.22154111E-02 0.94507298E+02</pdfrwt>
<pdfrwt beam="2">  1       -1 0.11245292E+00 0.94507298E+02</pdfrwt>
<totfact> 0.37682720E+03</totfact>
</mgrwt>
</event>
<event>
 7    1  0.5224537E-004  0.2513654E+03  0.7546771E-02  0.1120298E+00
         -2   -1    0    0    0  501 -0.00000000000E+00  0.00000000000E+00  0.46978882272E+02  0.46978882272E+02  0.00000000000E+00 0.  1.
          2   -1    0    0  501    0  0.00000000000E+00 -0.00000000000E+00 -0.11355209049E+04  0.11355209049E+04  0.00000000000E+00 0. -1.
         23    2    1    2    0    0 -0.12095178831E+03 -0.14259668153E+03 -0.57170645137E+03  0.60777934859E+03  0.87088009288E+02 0.  0.
          5    1    1    2  502    0  0.26243644456E+02 -0.36594913345E+02 -0.13517030076E+03  0.14255180379E+03  0.47000000000E+01 0. -1.
         -5    1    3    3    0  503 -0.10938060687E+02 -0.69918078042E+02 -0.15013796076E+03  0.16604721036E+03  0.47000000000E+01 0.  1.
          5    1    3    3  503    0 -0.11001372762E+03 -0.72678603491E+02 -0.42156849061E+03  0.44173213823E+03  0.47000000000E+01 0. -1.
         -5    1    1    2    0  502  0.94708143856E+02  0.17919159488E+03 -0.38166527052E+03  0.43216863481E+03  0.47000000000E+01 0.  1.
<mgrwt>
<rscale>  0 0.23924252E+03</rscale>
<asrwt>0</asrwt>
<pdfrwt beam="1">  1        2 0.17469551E+00 0.25136542E+03</pdfrwt>
<pdfrwt beam="2">  1       -2 0.72275207E-02 0.25136542E+03</pdfrwt>
<totfact> 0.24106885E+03</totfact>
</mgrwt>
</event>
<event>
 8    1  0.5224537E-004  0.1199742E+03  0.7546771E-02  0.1244463E+00
          2   -1    0    0  501    0  0.00000000000E+00  0.00000000000E+00  0.34555651455E+03  0.34555651455E+03  0.00000000000E+00 0. -1.
         -2   -1    0    0    0  501 -0.00000000000E+00 -0.00000000000E+00 -0.87061025463E+02  0.87061025463E+02  0.00000000000E+00 0.  1.
         23    2    1    2    0    0  0.60811705459E+02 -0.37543087874E+02  0.28812602518E+03  0.31210640841E+03  0.96365226175E+02 0.  0.
         23    2    1    2    0    0 -0.60811705459E+02  0.37543087874E+02 -0.29630536091E+02  0.12051113161E+03  0.92398145025E+02 0.  0.
          5    1    4    4  502    0  0.13563368100E+02  0.35382297487E+02  0.46266978028E+01  0.38462556627E+02  0.47000000000E+01 0.  1.
         -5    1    3    3    0  503  0.51526213533E+02 -0.56499702051E+02  0.11850468821E+03  0.14111207652E+03  0.47000000000E+01 0.  1.
          5    1    3    3  503    0  0.92854919262E+01  0.18956614177E+02  0.16962133697E+03  0.17099433189E+03  0.47000000000E+01 0. -1.
         -5    1    4    4    0  502 -0.74375073560E+02  0.21607903864E+01 -0.34257233894E+02  0.82048574980E+02  0.47000000000E+01 0.  1.
<mgrwt>
<rscale>  0 0.11917561E+03</rscale>
<asrwt>0</asrwt>
<pdfrwt beam="1">  1        2 0.53162540E-01 0.11997418E+03</pdfrwt>
<pdfrwt beam="2">  1       -2 0.13394004E-01 0.11997418E+03</pdfrwt>
<totfact> 0.37141011E+03</totfact>
</mgrwt>
</event>
<event>
 8    1  0.5224537E-004  0.9894864E+02  0.7546771E-02  0.1283144E+00
         -1   -1    0    0    0  501 -0.00000000000E+00  0.00000000000E+00  0.12082672790E+02  0.12082672790E+02  0.00000000000E+00 0.  1.
          1   -1    0    0  501    0  0.00000000000E+00 -0.00000000000E+00 -0.90792154595E+03  0.90792154595E+03  0.00000000000E+00 0. -1.
         23    2    1    2    0    0  0.29455538595E+02  0.21499420352E+02 -0.28763654576E+03  0.30380546443E+03  0.90736563373E+02 0.  0.
         23    2    1    2    0    0 -0.29455538595E+02 -0.21499420352E+02 -0.60820232741E+03  0.61619875431E+03  0.91983585086E+02 0.  0.
          5    1    4    4  502    0 -0.23264403224E+01 -0.53470263854E+02 -0.41360042595E+03  0.41707539341E+03  0.47000000000E+01 0. -1.
         -5    1    3    3    0  503 -0.15756518389E+02  0.27016734609E+02 -0.35499925826E+02  0.47544784723E+02  0.47000000000E+01 0.  1.
          5    1    3    3  503    0  0.45212056984E+02 -0.55173142574E+01 -0.25213661993E+03  0.25626067971E+03  0.47000000000E+01 0. -1.
         -5    1    4    4    0  502 -0.27129098272E+02  0.31970843503E+02 -0.19460190145E+03  0.19912336090E+03  0.47000000000E+01 0.  1.
<mgrwt>
<rscale>  0 0.98657822E+02</rscale>
<asrwt>0</asrwt>
<pdfrwt beam="1">  1        1 0.13968027E+00 0.98948642E+02</pdfrwt>
<pdfrwt beam="2">  1       -1 0.18588723E-02 0.98948642E+02</pdfrwt>
<totfact> 0.13447917E+04</totfact>
</mgrwt>
</event>
<event>
 8    1  0.5224537E-004  0.1218574E+03  0.7546771E-02  0.1243093E+00
          2   -1    0    0  501    0  0.00000000000E+00  0.00000000000E+00  0.94928729751E+03  0.94928729751E+03  0.00000000000E+00 0. -1.
         -2   -1    0    0    0  501 -0.00000000000E+00 -0.00000000000E+00 -0.36098744053E+02  0.36098744053E+02  0.00000000000E+00 0.  1.
         23    2    1    2    0    0 -0.67441412726E+02 -0.16590922852E+02  0.71845098165E+02  0.13526367667E+03  0.91164363787E+02 0.  0.
         23    2    1    2    0    0  0.67441412726E+02  0.16590922852E+02  0.84134345529E+03  0.85012236489E+03  0.10012803131E+03 0.  0.
          5    1    3    3  502    0 -0.57054749134E+02  0.31384685390E+02  0.40142332379E+02  0.76640327013E+02  0.47000000000E+01 0. -1.
         -5    1    4    4    0  503 -0.23442002893E+02  0.12647000969E+02  0.11766740802E+03  0.12073600558E+03  0.47000000000E+01 0.  1.
          5    1    4    4  503    0  0.90883415619E+02  0.39439218829E+01  0.72367604727E+03  0.72938635931E+03  0.47000000000E+01 0. -1.
         -5    1    3    3    0  502 -0.10386663592E+02 -0.47975608241E+02  0.31702765786E+02  0.58623349659E+02  0.47000000000E+01 0.  1.
<mgrwt>
<rscale>  0 0.12000264E+03</rscale>
<asrwt>0</asrwt>
<pdfrwt beam="1">  1        2 0.14604418E+00 0.12185740E+03</pdfrwt>
<pdfrwt beam="2">  1       -2 0.55536536E-02 0.12185740E+03</pdfrwt>
<totfact> 0.45792689E+03</totfact>
</mgrwt>
</event>
<event>
 8    1  0.5224537E-004  0.9079091E+02  0.7546771E-02  0.1301223E+00
         -1   -1    0    0    0  501 -0.00000000000E+00  0.00000000000E+00  0.97070593496E+02  0.97070593496E+02  0.00000000000E+00 0.  1.
          1   -1    0    0  501    0  0.00000000000E+00 -0.00000000000E+00 -0.11625723871E+03  0.11625723871E+03  0.00000000000E+00 0. -1.
         23    2    1    2    0    0 -0.66974054817E+01 -0.38162993759E+01 -0.65333471324E+02  0.11148227058E+03  0.90002304402E+02 0.  0.
         23    2    1    2    0    0  0.66974054817E+01  0.38162993759E+01  0.46146826111E+02  0.10184556162E+03  0.90463083528E+02 0.  0.
          5    1    3    3  502    0 -0.16631960788E+02  0.38726605314E+02 -0.15768331022E+02  0.45244915095E+02  0.47000000000E+01 0. -1.
         -5    1    4    4    0  503  0.40312329387E+01 -0.40434069000E+02  0.39334328611E+02  0.56748957543E+02  0.47000000000E+01 0.  1.
          5    1    4    4  503    0  0.26661725430E+01  0.44250368376E+02  0.68124974999E+01  0.45096604081E+02  0.47000000000E+01 0. -1.
         -5    1    3    3    0  502  0.99345553059E+01 -0.42542904690E+02 -0.49565140303E+02  0.66237355486E+02  0.47000000000E+01 0.  1.
<mgrwt>
<rscale>  0 0.90675912E+02</rscale>
<asrwt>0</asrwt>
<pdfrwt beam="1">  1        1 0.17885729E-01 0.90790907E+02</pdfrwt>
<pdfrwt beam="2">  1       -1 0.14933937E-01 0.90790907E+02</pdfrwt>
<totfact> 0.87151243E+03</totfact>
</mgrwt>
</event>
<event>
 8    1  0.5224537E-004  0.1116079E+03  0.7546771E-02  0.1258848E+00
         -1   -1    0    0    0  501 -0.00000000000E+00  0.00000000000E+00  0.50786227493E+02  0.50786227493E+02  0.00000000000E+00 0.  1.
          1   -1    0    0  501    0  0.00000000000E+00 -0.00000000000E+00 -0.30752911938E+03  0.30752911938E+03  0.00000000000E+00 0. -1.
         23    2    1    2    0    0 -0.25822839052E+02  0.59846183580E+02 -0.21387434792E+03  0.24124375894E+03  0.90597625948E+02 0.  0.
         23    2    1    2    0    0  0.25822839052E+02 -0.59846183580E+02 -0.42868543969E+02  0.11707158793E+03  0.87290663486E+02 0.  0.
          5    1    3    3  502    0  0.39174738531E+01  0.21032813372E+02 -0.18057368163E+03  0.18189741707E+03  0.47000000000E+01 0. -1.
         -5    1    4    4    0  503 -0.23035374855E+02 -0.32625324970E+02 -0.45699814292E+02  0.60873667135E+02  0.47000000000E+01 0.  1.
          5    1    4    4  503    0  0.48858213907E+02 -0.27220858611E+02  0.28312703227E+01  0.56197920792E+02  0.47000000000E+01 0. -1.
         -5    1    3    3    0  502 -0.29740312905E+02  0.38813370208E+02 -0.33300666285E+02  0.59346341872E+02  0.47000000000E+01 0.  1.
<mgrwt>
<rscale>  0 0.11093497E+03</rscale>
<asrwt>0</asrwt>
<pdfrwt beam="1">  1        1 0.47312171E-01 0.11160786E+03</pdfrwt>
<pdfrwt beam="2">  1       -1 0.78132659E-02 0.11160786E+03</pdfrwt>
<totfact> 0.71200169E+03</totfact>
</mgrwt>
</event>
<event>
 7    1  0.5224537E-004  0.2654370E+03  0.7546771E-02  0.1134172E+00
         -1   -1    0    0    0  501 -0.00000000000E+00  0.00000000000E+00  0.15477959202E+04  0.15477959202E+04  0.00000000000E+00 0.  1.
          1   -1    0    0  501    0  0.00000000000E+00 -0.00000000000E+00 -0.38621931366E+02  0.38621931366E+02  0.00000000000E+00 0. -1.
         23    2    1    2    0    0 -0.39480169950E+02 -0.73637436379E+02  0.12252681720E+03  0.17459378945E+03  0.92135848212E+02 0.  0.
          5    1    3    3  502    0 -0.34392347908E+02 -0.28818789532E+02  0.12700495528E+01  0.45133792778E+02  0.47000000000E+01 0. -1.
         -5    1    1    2    0  503 -0.85089437019E+02  0.85235954268E+02  0.41513863947E+03  0.43228180643E+03  0.47000000000E+01 0.  1.
          5    1    1    2  503    0  0.12456960697E+03 -0.11598517889E+02  0.97150853213E+03  0.97954225565E+03  0.47000000000E+01 0. -1.
         -5    1    3    3    0  502 -0.50878220426E+01 -0.44818646847E+02  0.12125676764E+03  0.12945999667E+03  0.47000000000E+01 0.  1.
<mgrwt>
<rscale>  0 0.21961297E+03</rscale>
<asrwt>0</asrwt>
<pdfrwt beam="1">  1        1 0.59418368E-02 0.26543701E+03</pdfrwt>
<pdfrwt beam="2">  1       -1 0.23812240E+00 0.26543701E+03</pdfrwt>
<totfact> 0.12367681E+02</totfact>
</mgrwt>
</event>
<event>
 8    1  0.5224537E-004  0.1086696E+03  0.7546771E-02  0.1264181E+00
         -1   -1    0    0    0  501 -0.00000000000E+00  0.00000000000E+00  0.67824672493E+02  0.67824672493E+02  0.00000000000E+00 0.  1.
          1   -1    0    0  501    0  0.00000000000E+00 -0.00000000000E+00 -0.17087393024E+03  0.17087393024E+03  0.00000000000E+00 0. -1.
         23    2    1    2    0    0  0.60019101351E+02 -0.28644501330E+01 -0.44277454859E+02  0.11515425748E+03  0.87689864895E+02 0.  0.
         23    2    1    2    0    0 -0.60019101351E+02  0.28644501330E+01 -0.58771802890E+02  0.12354434525E+03  0.90546026020E+02 0.  0.
          5    1    4    4  502    0 -0.43909252096E+02 -0.41805035365E+02 -0.36061462543E+02  0.70697966606E+02  0.47000000000E+01 0. -1.
         -5    1    3    3    0  503  0.28601161947E+02  0.42031422664E+02 -0.25237874780E+02  0.56953553702E+02  0.47000000000E+01 0.  1.
          5    1    3    3  503    0  0.31417939404E+02 -0.44895872797E+02 -0.19039580078E+02  0.58200703777E+02  0.47000000000E+01 0. -1.
         -5    1    4    4    0  502 -0.16109849255E+02  0.44669485498E+02 -0.22710340347E+02  0.52846378649E+02  0.47000000000E+01 0.  1.
<mgrwt>
<rscale>  0 0.10807267E+03</rscale>
<asrwt>0</asrwt>
<pdfrwt beam="1">  1        1 0.26288297E-01 0.10866959E+03</pdfrwt>
<pdfrwt beam="2">  1       -1 0.10434565E-01 0.10866959E+03</pdfrwt>
<totfact> 0.94695021E+03</totfact>
</mgrwt>
</event>
<event>
 8    1  0.5224537E-004  0.9048679E+02  0.7546771E-02  0.1302668E+00
         -3   -1    0    0    0  501 -0.00000000000E+00  0.00000000000E+00  0.40076287385E+02  0.40076287385E+02  0.00000000000E+00 0.  1.
          3   -1    0    0  501    0  0.00000000000E+00 -0.00000000000E+00 -0.48309666395E+03  0.48309666395E+03  0.00000000000E+00 0. -1.
         23    2    1    2    0    0 -0.33132967897E+01 -0.57240570821E+01 -0.20655521403E+02  0.91223960344E+02  0.88608225415E+02 0.  0.
         23    2    1    2    0    0  0.33132967897E+01  0.57240570821E+01 -0.42236485516E+03  0.43194899099E+03  0.90244762602E+02 0.  0.
          5    1    4    4  502    0  0.39069239692E+02 -0.53419166791E+01 -0.10344195371E+03  0.11080283999E+03  0.47000000000E+01 0. -1.
         -5    1    3    3    0  503 -0.23040021287E+02  0.31345716922E+02  0.82299978097E+01  0.40040222455E+02  0.47000000000E+01 0.  1.
          5    1    3    3  503    0  0.19726724498E+02 -0.37069774004E+02 -0.28885519212E+02  0.51183737889E+02  0.47000000000E+01 0. -1.
         -5    1    4    4    0  502 -0.35755942902E+02  0.11065973761E+02 -0.31892290145E+03  0.32114615100E+03  0.47000000000E+01 0.  1.
<mgrwt>
<rscale>  0 0.90075985E+02</rscale>
<asrwt>0</asrwt>
<pdfrwt beam="1">  1        3 0.74322564E-01 0.90486794E+02</pdfrwt>
<pdfrwt beam="2">  1       -3 0.61655827E-02 0.90486794E+02</pdfrwt>
<totfact> 0.61864575E+02</totfact>
</mgrwt>
</event>
<event>
 8    1  0.5224537E-004  0.1005064E+03  0.7546771E-02  0.1280492E+00
         -1   -1    0    0    0  501 -0.00000000000E+00  0.00000000000E+00  0.58278668435E+02  0.58278668435E+02  0.00000000000E+00 0.  1.
          1   -1    0    0  501    0  0.00000000000E+00 -0.00000000000E+00 -0.22157944823E+03  0.22157944823E+03  0.00000000000E+00 0. -1.
         23    2    1    2    0    0  0.63251854669E+01 -0.38112428458E+02 -0.12909853933E+02  0.98974263940E+02  0.90203522214E+02 0.  0.
         23    2    1    2    0    0 -0.63251854669E+01  0.38112428458E+02 -0.15039092587E+03  0.18088385273E+03  0.92784548395E+02 0.  0.
          5    1    3    3  502    0  0.33889355854E+02  0.15432882359E+02 -0.19709108924E+01  0.37585060700E+02  0.47000000000E+01 0. -1.
         -5    1    4    4    0  503 -0.37903591526E+02  0.12120802279E+02 -0.21285636692E+02  0.45373609376E+02  0.47000000000E+01 0.  1.
          5    1    4    4  503    0  0.31578406059E+02  0.25991626179E+02 -0.12910528917E+03  0.13551024335E+03  0.47000000000E+01 0. -1.
         -5    1    3    3    0  502 -0.27564170387E+02 -0.53545310817E+02 -0.10938943040E+02  0.61389203240E+02  0.47000000000E+01 0.  1.
<mgrwt>
<rscale>  0 0.99906630E+02</rscale>
<asrwt>0</asrwt>
<pdfrwt beam="1">  1        1 0.34089146E-01 0.10050641E+03</pdfrwt>
<pdfrwt beam="2">  1       -1 0.89659490E-02 0.10050641E+03</pdfrwt>
<totfact> 0.85873520E+03</totfact>
</mgrwt>
</event>
<event>
 8    1  0.5224537E-004  0.1056719E+03  0.7546771E-02  0.1268873E+00
          1   -1    0    0  501    0  0.00000000000E+00  0.00000000000E+00  0.68969214003E+02  0.68969214003E+02  0.00000000000E+00 0. -1.
         -1   -1    0    0    0  501 -0.00000000000E+00 -0.00000000000E+00 -0.16276110480E+03  0.16276110480E+03  0.00000000000E+00 0.  1.
         23    2    1    2    0    0  0.51542646457E+02 -0.11751269717E+01 -0.56365231847E+02  0.11976475293E+03  0.92241700739E+02 0.  0.
         23    2    1    2    0    0 -0.51542646457E+02  0.11751269717E+01 -0.37426658946E+02  0.11196556587E+03  0.92073382765E+02 0.  0.
          5    1    4    4  502    0 -0.20972463221E+02 -0.45036088953E+02 -0.16709718872E+02  0.52625072224E+02  0.47000000000E+01 0. -1.
         -5    1    3    3    0  503  0.14740281534E+02  0.37608032681E+02 -0.51862200095E+02  0.65904611528E+02  0.47000000000E+01 0.  1.
          5    1    3    3  503    0  0.36802364923E+02 -0.38783159653E+02 -0.45030317515E+01  0.53860141399E+02  0.47000000000E+01 0. -1.
         -5    1    4    4    0  502 -0.30570183236E+02  0.46211215925E+02 -0.20716940074E+02  0.59340493648E+02  0.47000000000E+01 0.  1.
<mgrwt>
<rscale>  0 0.10563519E+03</rscale>
<asrwt>0</asrwt>
<pdfrwt beam="1">  1        1 0.10610648E-01 0.10567193E+03</pdfrwt>
<pdfrwt beam="2">  1       -1 0.25040170E-01 0.10567193E+03</pdfrwt>
<totfact> 0.76140030E+03</totfact>
</mgrwt>
</event>
<event>
 8    1  0.5224537E-004  0.1036932E+03  0.7546771E-02  0.1274488E+00
          1   -1    0    0  501    0  0.00000000000E+00  0.00000000000E+00  0.70437719579E+03  0.70437719579E+03  0.00000000000E+00 0. -1.
         -1   -1    0    0    0  501 -0.00000000000E+00 -0.00000000000E+00 -0.28599456268E+02  0.28599456268E+02  0.00000000000E+00 0.  1.
         23    2    1    2    0    0 -0.43738443363E+02  0.23368416151E+02  0.85917210778E+02  0.13466273730E+03  0.91066741506E+02 0.  0.
         23    2    1    2    0    0  0.43738443363E+02 -0.23368416151E+02  0.58986052874E+03  0.59831391475E+03  0.87091692598E+02 0.  0.
          5    1    4    4  502    0 -0.87945495962E+01  0.20150639332E+02  0.60265781701E+02  0.64322988209E+02  0.47000000000E+01 0. -1.
         -5    1    4    4    0  502  0.52532992959E+02 -0.43519055483E+02  0.52959474704E+03  0.53399092654E+03  0.47000000000E+01 0.  1.
          5    1    3    3  503    0 -0.60245282900E+02  0.37475141299E+02  0.87071710477E+02  0.11241642715E+03  0.47000000000E+01 0. -1.
         -5    1    3    3    0  503  0.16506839538E+02 -0.14106725148E+02 -0.11544996988E+01  0.22246310154E+02  0.47000000000E+01 0.  1.
<mgrwt>
<rscale>  0 0.10281386E+03</rscale>
<asrwt>0</asrwt>
<pdfrwt beam="1">  1        1 0.10836571E+00 0.10369323E+03</pdfrwt>
<pdfrwt beam="2">  1       -1 0.43999169E-02 0.10369323E+03</pdfrwt>
<totfact> 0.56788059E+03</totfact>
</mgrwt>
</event>
<event>
 8    1  0.5224537E-004  0.1027668E+03  0.7546771E-02  0.1274838E+00
         -2   -1    0    0    0  501 -0.00000000000E+00  0.00000000000E+00  0.27118982752E+03  0.27118982752E+03  0.00000000000E+00 0.  1.
          2   -1    0    0  501    0  0.00000000000E+00 -0.00000000000E+00 -0.47806218042E+02  0.47806218042E+02  0.00000000000E+00 0. -1.
         23    2    1    2    0    0 -0.20622386314E+00  0.46860759918E+02  0.18087803120E+03  0.20778569593E+03  0.90895874019E+02 0.  0.
         23    2    1    2    0    0  0.20622386314E+00 -0.46860759918E+02  0.42505578276E+02  0.11121034963E+03  0.91460616290E+02 0.  0.
          5    1    3    3  502    0  0.36986762542E+02 -0.30179653102E+01  0.46897588225E+02  0.59988353031E+02  0.47000000000E+01 0. -1.
         -5    1    4    4    0  503  0.28148845638E+02  0.15343979452E+02  0.24216796870E+02  0.40451680643E+02  0.47000000000E+01 0.  1.
          5    1    4    4  503    0 -0.27942621775E+02 -0.62204739369E+02  0.18288781406E+02  0.70758668988E+02  0.47000000000E+01 0. -1.
         -5    1    3    3    0  502 -0.37192986406E+02  0.49878725228E+02  0.13398044297E+03  0.14779734290E+03  0.47000000000E+01 0.  1.
<mgrwt>
<rscale>  0 0.10264101E+03</rscale>
<asrwt>0</asrwt>
<pdfrwt beam="1">  1        2 0.73548029E-02 0.10276681E+03</pdfrwt>
<pdfrwt beam="2">  1       -2 0.41721511E-01 0.10276681E+03</pdfrwt>
<totfact> 0.48382167E+03</totfact>
</mgrwt>
</event>
<event>
 8    1  0.5224537E-004  0.9188932E+02  0.7546771E-02  0.1298398E+00
          1   -1    0    0  501    0  0.00000000000E+00  0.00000000000E+00  0.22783906731E+03  0.22783906731E+03  0.00000000000E+00 0. -1.
         -1   -1    0    0    0  501 -0.00000000000E+00 -0.00000000000E+00 -0.82278237480E+02  0.82278237480E+02  0.00000000000E+00 0.  1.
         23    2    1    2    0    0 -0.82178454335E+01 -0.11309281753E+02 -0.42238927773E+02  0.10104220857E+03  0.90719171381E+02 0.  0.
         23    2    1    2    0    0  0.82178454335E+01  0.11309281753E+02  0.18779975760E+03  0.20907509622E+03  0.90819678847E+02 0.  0.
          5    1    4    4  502    0  0.25784412529E+02 -0.30579433912E+02  0.12568749798E+03  0.13198247936E+03  0.47000000000E+01 0. -1.
         -5    1    4    4    0  502 -0.17566567096E+02  0.41888715664E+02  0.62112259619E+02  0.77092616861E+02  0.47000000000E+01 0.  1.
          5    1    3    3  503    0 -0.59411448709E+01 -0.35765101549E+02  0.14271818704E+02  0.39245566633E+02  0.47000000000E+01 0. -1.
         -5    1    3    3    0  503 -0.22767005627E+01  0.24455819797E+02 -0.56510746477E+02  0.61796641938E+02  0.47000000000E+01 0.  1.
<mgrwt>
<rscale>  0 0.91864475E+02</rscale>
<asrwt>0</asrwt>
<pdfrwt beam="1">  1        1 0.35052164E-01 0.91889319E+02</pdfrwt>
<pdfrwt beam="2">  1       -1 0.12658190E-01 0.91889319E+02</pdfrwt>
<totfact> 0.48840470E+03</totfact>
</mgrwt>
</event>
<event>
 8    1  0.5224537E-004  0.9517130E+02  0.7546771E-02  0.1291572E+00
         -1   -1    0    0    0  501 -0.00000000000E+00  0.00000000000E+00  0.13901819550E+03  0.13901819550E+03  0.00000000000E+00 0.  1.
          1   -1    0    0  501    0  0.00000000000E+00 -0.00000000000E+00 -0.69643362125E+02  0.69643362125E+02  0.00000000000E+00 0. -1.
         23    2    1    2    0    0  0.78544870779E+01 -0.16525388344E+02  0.57872565526E+01  0.95347096788E+02  0.93395905158E+02 0.  0.
         23    2    1    2    0    0 -0.78544870779E+01  0.16525388344E+02  0.63587576825E+02  0.11331446084E+03  0.91989160676E+02 0.  0.
          5    1    3    3  502    0 -0.19768391409E+02 -0.48537219364E+02  0.25162680633E+01  0.52678957540E+02  0.47000000000E+01 0. -1.
         -5    1    3    3    0  502  0.27622878487E+02  0.32011831020E+02  0.32709884894E+01  0.42668139248E+02  0.47000000000E+01 0.  1.
          5    1    4    4  503    0  0.23832157210E+02 -0.24290897539E+02  0.44463768782E+01  0.34639279552E+02  0.47000000000E+01 0. -1.
         -5    1    4    4    0  503 -0.31686644288E+02  0.40816285883E+02  0.59141199947E+02  0.78675181288E+02  0.47000000000E+01 0.  1.
<mgrwt>
<rscale>  0 0.94824381E+02</rscale>
<asrwt>0</asrwt>
<pdfrwt beam="1">  1        1 0.10714363E-01 0.95171301E+02</pdfrwt>
<pdfrwt beam="2">  1       -1 0.21387415E-01 0.95171301E+02</pdfrwt>
<totfact> 0.96104576E+03</totfact>
</mgrwt>
</event>
<event>
 8    1  0.5224537E-004  0.9792339E+02  0.7546771E-02  0.1285929E+00
         -3   -1    0    0    0  501 -0.00000000000E+00  0.00000000000E+00  0.73175621209E+02  0.73175621209E+02  0.00000000000E+00 0.  1.
          3   -1    0    0  501    0  0.00000000000E+00 -0.00000000000E+00 -0.14148941372E+03  0.14148941372E+03  0.00000000000E+00 0. -1.
         23    2    1    2    0    0  0.94033606767E+01 -0.27478588264E+02 -0.67508434920E+02  0.11893855443E+03  0.93517351011E+02 0.  0.
         23    2    1    2    0    0 -0.94033606767E+01  0.27478588264E+02 -0.80535758651E+00  0.95726480493E+02  0.91210824258E+02 0.  0.
          5    1    4    4  502    0  0.27831299624E+02  0.79109566452E+01 -0.31812887237E+02  0.43258690089E+02  0.47000000000E+01 0. -1.
         -5    1    3    3    0  503 -0.24769384614E+02  0.11299856898E+02 -0.60574029995E+02  0.66577115362E+02  0.47000000000E+01 0.  1.
          5    1    3    3  503    0  0.34172745291E+02 -0.38778445162E+02 -0.69344049252E+01  0.52361439071E+02  0.47000000000E+01 0. -1.
         -5    1    4    4    0  502 -0.37234660301E+02  0.19567631618E+02  0.31007529651E+02  0.52467790404E+02  0.47000000000E+01 0.  1.
<mgrwt>
<rscale>  0 0.97368621E+02</rscale>
<asrwt>0</asrwt>
<pdfrwt beam="1">  1        3 0.21767602E-01 0.97923393E+02</pdfrwt>
<pdfrwt beam="2">  1       -3 0.11257788E-01 0.97923393E+02</pdfrwt>
<totfact> 0.25086976E+03</totfact>
</mgrwt>
</event>
<event>
 8    1  0.5224537E-004  0.1071406E+03  0.7546771E-02  0.1266156E+00
         -2   -1    0    0    0  501 -0.00000000000E+00  0.00000000000E+00  0.17048743412E+02  0.17048743412E+02  0.00000000000E+00 0. -1.
          2   -1    0    0  501    0  0.00000000000E+00 -0.00000000000E+00 -0.70422865772E+03  0.70422865772E+03  0.00000000000E+00 0.  1.
         23    2    1    2    0    0  0.43173364668E+02  0.35356292381E+02 -0.42161813641E+03  0.43491718472E+03  0.90978556700E+02 0.  0.
         23    2    1    2    0    0 -0.43173364668E+02 -0.35356292381E+02 -0.26556177789E+03  0.28636021641E+03  0.91460968946E+02 0.  0.
          5    1    4    4  502    0 -0.32838015592E+02 -0.52734194241E+01 -0.24691759382E+03  0.24919175821E+03  0.47000000000E+01 0.  1.
         -5    1    3    3    0  503  0.37171867847E+02  0.59398025173E+02 -0.37853601154E+03  0.38499542229E+03  0.47000000000E+01 0.  1.
          5    1    3    3  503    0  0.60014968208E+01 -0.24041732792E+02 -0.43082124879E+02  0.49921762427E+02  0.47000000000E+01 0. -1.
         -5    1    4    4    0  502 -0.10335349076E+02 -0.30082872957E+02 -0.18644184072E+02  0.37168458208E+02  0.47000000000E+01 0. -1.
<mgrwt>
<rscale>  0 0.10703761E+03</rscale>
<asrwt>0</asrwt>
<pdfrwt beam="1">  1        2 0.10834286E+00 0.10714063E+03</pdfrwt>
<pdfrwt beam="2">  1       -2 0.26228839E-02 0.10714063E+03</pdfrwt>
<totfact> 0.19978429E+04</totfact>
</mgrwt>
</event>
<event>
 8    1  0.5224537E-004  0.1071546E+03  0.7546771E-02  0.1266300E+00
         -1   -1    0    0    0  501 -0.00000000000E+00  0.00000000000E+00  0.97299893899E+02  0.97299893899E+02  0.00000000000E+00 0.  1.
          1   -1    0    0  501    0  0.00000000000E+00 -0.00000000000E+00 -0.15153589566E+03  0.15153589566E+03  0.00000000000E+00 0. -1.
         23    2    1    2    0    0  0.14749300947E+02  0.55617072942E+02 -0.86295783636E+02  0.13698799971E+03  0.89487144939E+02 0.  0.
         23    2    1    2    0    0 -0.14749300947E+02 -0.55617072942E+02  0.32059781876E+02  0.11184778985E+03  0.90395231065E+02 0.  0.
          5    1    3    3  502    0 -0.43085767606E+01  0.64787718274E+02 -0.93697115847E+02  0.11409317153E+03  0.47000000000E+01 0. -1.
         -5    1    4    4    0  503 -0.48179350580E+02 -0.42225050285E+02  0.38605524929E+02  0.74944521140E+02  0.47000000000E+01 0.  1.
          5    1    4    4  503    0  0.33430049634E+02 -0.13392022657E+02 -0.65457430528E+01  0.36903268710E+02  0.47000000000E+01 0. -1.
         -5    1    3    3    0  502  0.19057877708E+02 -0.91706453320E+01  0.74013322116E+01  0.22894828172E+02  0.47000000000E+01 0.  1.
<mgrwt>
<rscale>  0 0.10696280E+03</rscale>
<asrwt>0</asrwt>
<pdfrwt beam="1">  1        1 0.23313215E-01 0.10715455E+03</pdfrwt>
<pdfrwt beam="2">  1       -1 0.14969214E-01 0.10715455E+03</pdfrwt>
<totfact> 0.63069961E+03</totfact>
</mgrwt>
</event>
<event>
 8    1  0.5224537E-004  0.9975821E+02  0.7546771E-02  0.1292837E+00
         -1   -1    0    0    0  501 -0.00000000000E+00  0.00000000000E+00  0.11165881940E+03  0.11165881940E+03  0.00000000000E+00 0.  1.
          1   -1    0    0  501    0  0.00000000000E+00 -0.00000000000E+00 -0.74128897478E+02  0.74128897478E+02  0.00000000000E+00 0. -1.
         23    2    1    2    0    0 -0.41409623399E+01 -0.41350738383E+02  0.50921681316E+01  0.99888085948E+02  0.90689957571E+02 0.  0.
         23    2    1    2    0    0  0.41409623399E+01  0.41350738383E+02  0.32437753789E+02  0.85899630929E+02  0.67819669632E+02 0.  0.
          5    1    3    3  502    0  0.11825557077E+02 -0.58233018215E+02 -0.22317634439E+02  0.63648212996E+02  0.47000000000E+01 0. -1.
         -5    1    3    3    0  502 -0.15966519416E+02  0.16882279832E+02  0.27409802571E+02  0.36239872952E+02  0.47000000000E+01 0.  1.
          5    1    4    4  503    0  0.26536021548E+02  0.47236143562E+02  0.14640734219E+02  0.56319222266E+02  0.47000000000E+01 0.  1.
         -5    1    4    4    0  503 -0.22395059208E+02 -0.58854051793E+01  0.17797019570E+02  0.29580408663E+02  0.47000000000E+01 0. -1.
<mgrwt>
<rscale>  0 0.94266470E+02</rscale>
<asrwt>0</asrwt>
<pdfrwt beam="1">  1        1 0.11404446E-01 0.99758205E+02</pdfrwt>
<pdfrwt beam="2">  1       -1 0.17178280E-01 0.99758205E+02</pdfrwt>
<totfact> 0.12595261E+04</totfact>
</mgrwt>
</event>
<event>
 8    1  0.5224537E-004  0.3439449E+03  0.7546771E-02  0.1065305E+00
         -1   -1    0    0    0  501 -0.00000000000E+00  0.00000000000E+00  0.19984337341E+03  0.19984337341E+03  0.00000000000E+00 0.  1.
          1   -1    0    0  501    0  0.00000000000E+00 -0.00000000000E+00 -0.19763294662E+04  0.19763294662E+04  0.00000000000E+00 0. -1.
         23    2    1    2    0    0 -0.25612929167E+03  0.20817850314E+03  0.22726608638E+02  0.34469491570E+03  0.96734600569E+02 0.  0.
         23    2    1    2    0    0  0.25612929167E+03 -0.20817850314E+03 -0.17992127015E+04  0.18314779240E+04  0.90578902662E+02 0.  0.
          5    1    3    3  502    0 -0.87935814656E+02  0.21834235062E+02 -0.10917795583E+02  0.91382326412E+02  0.47000000000E+01 0. -1.
         -5    1    4    4    0  503  0.81197001294E+02 -0.20167034622E+02 -0.37014770100E+03  0.37951425910E+03  0.47000000000E+01 0.  1.
          5    1    4    4  503    0  0.17493229037E+03 -0.18801146852E+03 -0.14290650005E+04  0.14519636649E+04  0.47000000000E+01 0. -1.
         -5    1    3    3    0  502 -0.16819347701E+03  0.18634426808E+03  0.33644404221E+02  0.25331258928E+03  0.47000000000E+01 0.  1.
<mgrwt>
<rscale>  0 0.34352404E+03</rscale>
<asrwt>0</asrwt>
<pdfrwt beam="1">  1        1 0.30405068E+00 0.34394489E+03</pdfrwt>
<pdfrwt beam="2">  1       -1 0.30745135E-01 0.34394489E+03</pdfrwt>
<totfact> 0.33818328E+01</totfact>
</mgrwt>
</event>
<event>
 8    1  0.5224537E-004  0.1370551E+03  0.7546771E-02  0.1217450E+00
         -2   -1    0    0    0  501 -0.00000000000E+00  0.00000000000E+00  0.66837435298E+02  0.66837435298E+02  0.00000000000E+00 0.  1.
          2   -1    0    0  501    0  0.00000000000E+00 -0.00000000000E+00 -0.36844888898E+03  0.36844888898E+03  0.00000000000E+00 0. -1.
         23    2    1    2    0    0  0.96528498154E+02 -0.36654452771E+02 -0.44309600309E+02  0.14375871247E+03  0.89676791126E+02 0.  0.
         23    2    1    2    0    0 -0.96528498154E+02  0.36654452771E+02 -0.25730185337E+03  0.29152761181E+03  0.90126604485E+02 0.  0.
          5    1    3    3  502    0  0.16589171983E+02  0.26341897837E+02  0.26028415746E+01  0.31590520619E+02  0.47000000000E+01 0. -1.
         -5    1    4    4    0  503 -0.50208810397E+01  0.38169286400E+02 -0.12275963053E+03  0.12874051638E+03  0.47000000000E+01 0.  1.
          5    1    4    4  503    0 -0.91507617114E+02 -0.15148336293E+01 -0.13454222284E+03  0.16278709543E+03  0.47000000000E+01 0. -1.
         -5    1    3    3    0  502  0.79939326171E+02 -0.62996350609E+02 -0.46912441883E+02  0.11216819185E+03  0.47000000000E+01 0.  1.
<mgrwt>
<rscale>  0 0.13698121E+03</rscale>
<asrwt>0</asrwt>
<pdfrwt beam="1">  1        2 0.56684443E-01 0.13705512E+03</pdfrwt>
<pdfrwt beam="2">  1       -2 0.10282683E-01 0.13705512E+03</pdfrwt>
<totfact> 0.53229371E+03</totfact>
</mgrwt>
</event>
<event>
 8    1  0.5224537E-004  0.1187862E+03  0.7546771E-02  0.1245596E+00
         -2   -1    0    0    0  501 -0.00000000000E+00  0.00000000000E+00  0.30569939214E+03  0.30569939214E+03  0.00000000000E+00 0.  1.
          2   -1    0    0  501    0  0.00000000000E+00 -0.00000000000E+00 -0.51580378058E+02  0.51580378058E+02  0.00000000000E+00 0. -1.
         23    2    1    2    0    0  0.42903871738E+01 -0.77165817355E+02  0.67349653665E+02  0.13655083019E+03  0.90206333402E+02 0.  0.
         23    2    1    2    0    0 -0.42903871738E+01  0.77165817355E+02  0.18676936041E+03  0.22072894001E+03  0.88687655156E+02 0.  0.
          5    1    3    3  502    0  0.18922274491E+02 -0.55241340630E+02 -0.55949289629E+01  0.58847696783E+02  0.47000000000E+01 0. -1.
         -5    1    4    4    0  503  0.22169858268E+02  0.69317443471E+02  0.71583810648E+02  0.10218973790E+03  0.47000000000E+01 0.  1.
          5    1    4    4  503    0 -0.26460245442E+02  0.78483738839E+01  0.11518554977E+03  0.11853920211E+03  0.47000000000E+01 0. -1.
         -5    1    3    3    0  502 -0.14631887317E+02 -0.21924476725E+02  0.72944582628E+02  0.77703133405E+02  0.47000000000E+01 0.  1.
<mgrwt>
<rscale>  0 0.11849783E+03</rscale>
<asrwt>0</asrwt>
<pdfrwt beam="1">  1        2 0.79354429E-02 0.11878617E+03</pdfrwt>
<pdfrwt beam="2">  1       -2 0.47030675E-01 0.11878617E+03</pdfrwt>
<totfact> 0.35323189E+03</totfact>
</mgrwt>
</event>
<event>
 8    1  0.5224537E-004  0.1029278E+03  0.7546771E-02  0.1274265E+00
          2   -1    0    0  501    0  0.00000000000E+00  0.00000000000E+00  0.13745448583E+03  0.13745448583E+03  0.00000000000E+00 0. -1.
         -2   -1    0    0    0  501 -0.00000000000E+00 -0.00000000000E+00 -0.26762458268E+03  0.26762458268E+03  0.00000000000E+00 0.  1.
         23    2    1    2    0    0 -0.37728349976E+02  0.15661525236E+02 -0.23599565886E+03  0.25746473567E+03  0.94474479888E+02 0.  0.
         23    2    1    2    0    0  0.37728349976E+02 -0.15661525236E+02  0.10582556201E+03  0.14761433283E+03  0.94457556176E+02 0.  0.
          5    1    3    3  502    0  0.25242744044E+02 -0.11742424495E+02 -0.34763776084E+02  0.44784939294E+02  0.47000000000E+01 0. -1.
         -5    1    4    4    0  503 -0.16026686719E+01  0.33923673624E+02  0.60799461438E+02  0.69800062250E+02  0.47000000000E+01 0.  1.
          5    1    4    4  503    0  0.39331018648E+02 -0.49585198860E+02  0.45026100573E+02  0.77814270585E+02  0.47000000000E+01 0. -1.
         -5    1    3    3    0  502 -0.62971094019E+02  0.27403949732E+02 -0.20123188277E+03  0.21267979638E+03  0.47000000000E+01 0.  1.
<mgrwt>
<rscale>  0 0.10292395E+03</rscale>
<asrwt>0</asrwt>
<pdfrwt beam="1">  1        2 0.21146844E-01 0.10292783E+03</pdfrwt>
<pdfrwt beam="2">  1       -2 0.41173012E-01 0.10292783E+03</pdfrwt>
<totfact> 0.14180554E+03</totfact>
</mgrwt>
</event>
<event>
 8    1  0.5224537E-004  0.1088456E+03  0.7546771E-02  0.1264087E+00
          2   -1    0    0  501    0  0.00000000000E+00  0.00000000000E+00  0.16129213905E+03  0.16129213905E+03  0.00000000000E+00 0. -1.
         -2   -1    0    0    0  501 -0.00000000000E+00 -0.00000000000E+00 -0.74732038813E+02  0.74732038813E+02  0.00000000000E+00 0.  1.
         23    2    1    2    0    0 -0.18623065115E+02  0.57491231861E+02  0.18313254539E+02  0.10755236465E+03  0.87063629346E+02 0.  0.
         23    2    1    2    0    0  0.18623065115E+02 -0.57491231861E+02  0.68246845699E+02  0.12847181321E+03  0.90527976601E+02 0.  0.
          5    1    3    3  502    0  0.22918928078E+02  0.24904583350E+02  0.37911941214E+02  0.51038424963E+02  0.47000000000E+01 0. -1.
         -5    1    3    3    0  502 -0.41541993193E+02  0.32586648511E+02 -0.19598686675E+02  0.56513939687E+02  0.47000000000E+01 0.  1.
          5    1    4    4  503    0  0.42533565607E+02 -0.13845842951E+02  0.64110374845E+02  0.78313739108E+02  0.47000000000E+01 0. -1.
         -5    1    4    4    0  503 -0.23910500493E+02 -0.43645388909E+02  0.41364708545E+01  0.50158074106E+02  0.47000000000E+01 0.  1.
<mgrwt>
<rscale>  0 0.10812250E+03</rscale>
<asrwt>0</asrwt>
<pdfrwt beam="1">  1        2 0.24814175E-01 0.10884565E+03</pdfrwt>
<pdfrwt beam="2">  1       -2 0.11497237E-01 0.10884565E+03</pdfrwt>
<totfact> 0.10612937E+04</totfact>
</mgrwt>
</event>
<event>
 8    1  0.5224537E-004  0.1086111E+03  0.7546771E-02  0.1265836E+00
         -2   -1    0    0    0  501 -0.00000000000E+00  0.00000000000E+00  0.10816555583E+02  0.10816555583E+02  0.00000000000E+00 0.  1.
          2   -1    0    0  501    0  0.00000000000E+00 -0.00000000000E+00 -0.12364794950E+04  0.12364794950E+04  0.00000000000E+00 0. -1.
         23    2    1    2    0    0 -0.42912484074E+02  0.26129596394E+02 -0.34831904707E+03  0.36325494647E+03  0.90020889179E+02 0.  0.
         23    2    1    2    0    0  0.42912484074E+02 -0.26129596394E+02 -0.87734389232E+03  0.88404110408E+03  0.96291906309E+02 0.  0.
          5    1    4    4  502    0 -0.15607561287E+02 -0.44102582154E+02 -0.40692375690E+03  0.40963113609E+03  0.47000000000E+01 0. -1.
         -5    1    4    4    0  502  0.58520045361E+02  0.17972985759E+02 -0.47042013541E+03  0.47440996799E+03  0.47000000000E+01 0.  1.
          5    1    3    3  503    0 -0.48594178146E+02 -0.20006089567E+02 -0.13644479632E+03  0.14629049939E+03  0.47000000000E+01 0. -1.
         -5    1    3    3    0  503  0.56816940723E+01  0.46135685961E+02 -0.21187425075E+03  0.21696444708E+03  0.47000000000E+01 0.  1.
<mgrwt>
<rscale>  0 0.10720426E+03</rscale>
<asrwt>0</asrwt>
<pdfrwt beam="1">  1        2 0.19022764E+00 0.10861109E+03</pdfrwt>
<pdfrwt beam="2">  1       -2 0.16640852E-02 0.10861109E+03</pdfrwt>
<totfact> 0.18256579E+04</totfact>
</mgrwt>
</event>
<event>
 8    1  0.5224537E-004  0.1219013E+03  0.7546771E-02  0.1243213E+00
         -2   -1    0    0    0  501 -0.00000000000E+00  0.00000000000E+00  0.63621691662E+03  0.63621691662E+03  0.00000000000E+00 0.  1.
          2   -1    0    0  501    0  0.00000000000E+00 -0.00000000000E+00 -0.21972798728E+02  0.21972798728E+02  0.00000000000E+00 0. -1.
         23    2    1    2    0    0  0.21398720380E+02  0.65522035866E+02  0.31540437056E+03  0.33544351116E+03  0.91057068873E+02 0.  0.
         23    2    1    2    0    0 -0.21398720380E+02 -0.65522035866E+02  0.29883974733E+03  0.32274620418E+03  0.10054290286E+03 0.  0.
          5    1    4    4  502    0  0.15715874082E+02 -0.66961944982E+02  0.10699718957E+03  0.12728463910E+03  0.47000000000E+01 0. -1.
         -5    1    3    3    0  503 -0.23342168098E+02  0.37366656887E+02  0.23474799920E+03  0.23889294043E+03  0.47000000000E+01 0.  1.
          5    1    3    3  503    0  0.44740888479E+02  0.28155378979E+02  0.80656371366E+02  0.96550570735E+02  0.47000000000E+01 0. -1.
         -5    1    4    4    0  502 -0.37114594462E+02  0.14399091151E+01  0.19184255776E+03  0.19546156509E+03  0.47000000000E+01 0.  1.
<mgrwt>
<rscale>  0 0.11992949E+03</rscale>
<asrwt>0</asrwt>
<pdfrwt beam="1">  1        2 0.33804310E-02 0.12190126E+03</pdfrwt>
<pdfrwt beam="2">  1       -2 0.97879512E-01 0.12190126E+03</pdfrwt>
<totfact> 0.22797982E+03</totfact>
</mgrwt>
</event>
<event>
 8    1  0.5224537E-004  0.9150486E+02  0.7546771E-02  0.1299452E+00
         -1   -1    0    0    0  501 -0.00000000000E+00  0.00000000000E+00  0.17305506559E+03  0.17305506559E+03  0.00000000000E+00 0.  1.
          1   -1    0    0  501    0  0.00000000000E+00 -0.00000000000E+00 -0.51408085353E+02  0.51408085353E+02  0.00000000000E+00 0. -1.
         23    2    1    2    0    0 -0.95805667386E+01 -0.27623209658E+01  0.32689600571E+02  0.96844362992E+02  0.90613481236E+02 0.  0.
         23    2    1    2    0    0  0.95805667386E+01  0.27623209658E+01  0.88957379664E+02  0.12761878795E+03  0.90960002004E+02 0.  0.
          5    1    3    3  502    0 -0.46702743660E+02 -0.69288410764E+00  0.36092130701E+02  0.59214510487E+02  0.47000000000E+01 0. -1.
         -5    1    3    3    0  502  0.37122176921E+02 -0.20694368581E+01 -0.34025301297E+01  0.37629852505E+02  0.47000000000E+01 0.  1.
          5    1    4    4  503    0  0.38856122679E+02  0.28141743139E+02  0.67898183885E+02  0.83270699237E+02  0.47000000000E+01 0. -1.
         -5    1    4    4    0  503 -0.29275555940E+02 -0.25379422173E+02  0.21059195779E+02  0.44348088711E+02  0.47000000000E+01 0.  1.
<mgrwt>
<rscale>  0 0.91418627E+02</rscale>
<asrwt>0</asrwt>
<pdfrwt beam="1">  1        1 0.79089363E-02 0.91504861E+02</pdfrwt>
<pdfrwt beam="2">  1       -1 0.26623856E-01 0.91504861E+02</pdfrwt>
<totfact> 0.10018411E+04</totfact>
</mgrwt>
</event>
<event>
 8    1  0.5224537E-004  0.1009110E+03  0.7546771E-02  0.1279069E+00
         -1   -1    0    0    0  501 -0.00000000000E+00  0.00000000000E+00  0.12065989985E+02  0.12065989985E+02  0.00000000000E+00 0.  1.
          1   -1    0    0  501    0  0.00000000000E+00 -0.00000000000E+00 -0.89865421595E+03  0.89865421595E+03  0.00000000000E+00 0. -1.
         23    2    1    2    0    0 -0.15476348907E+02 -0.35376414453E+02 -0.31770742216E+03  0.33295867022E+03  0.91828437335E+02 0.  0.
         23    2    1    2    0    0  0.15476348907E+02  0.35376414453E+02 -0.56888080381E+03  0.57776153572E+03  0.93230977360E+02 0.  0.
          5    1    4    4  502    0 -0.37360755058E+02  0.10265450185E+02 -0.30148519007E+03  0.30400101203E+03  0.47000000000E+01 0. -1.
         -5    1    3    3    0  503  0.37617879976E+02 -0.53085140778E+01 -0.13090362166E+03  0.13638597208E+03  0.47000000000E+01 0.  1.
          5    1    3    3  503    0 -0.53094228884E+02 -0.30067900375E+02 -0.18680380050E+03  0.19657269814E+03  0.47000000000E+01 0. -1.
         -5    1    4    4    0  502  0.52837103965E+02  0.25110964268E+02 -0.26739561374E+03  0.27376052369E+03  0.47000000000E+01 0.  1.
<mgrwt>
<rscale>  0 0.10058581E+03</rscale>
<asrwt>0</asrwt>
<pdfrwt beam="1">  1        1 0.13825454E+00 0.10091097E+03</pdfrwt>
<pdfrwt beam="2">  1       -1 0.18563055E-02 0.10091097E+03</pdfrwt>
<totfact> 0.13714697E+04</totfact>
</mgrwt>
</event>
<event>
 8    1  0.5224537E-004  0.1008655E+03  0.7546771E-02  0.1278699E+00
         -2   -1    0    0    0  501 -0.00000000000E+00  0.00000000000E+00  0.23637507958E+02  0.23637507958E+02  0.00000000000E+00 0.  1.
          2   -1    0    0  501    0  0.00000000000E+00 -0.00000000000E+00 -0.42877485824E+03  0.42877485824E+03  0.00000000000E+00 0. -1.
         23    2    1    2    0    0 -0.41553019916E+02  0.11034706930E+02 -0.19859406867E+03  0.22255595491E+03  0.90791688688E+02 0.  0.
         23    2    1    2    0    0  0.41553019916E+02 -0.11034706930E+02 -0.20654328161E+03  0.22985641128E+03  0.91243763669E+02 0.  0.
          5    1    4    4  502    0  0.34854293798E+02  0.33654247508E+02 -0.14770417748E+03  0.15551862980E+03  0.47000000000E+01 0. -1.
         -5    1    3    3    0  503 -0.37861142834E+02 -0.95591129560E+01 -0.22805925131E+02  0.45464744564E+02  0.47000000000E+01 0.  1.
          5    1    3    3  503    0 -0.36918770825E+01  0.20593819886E+02 -0.17578814354E+03  0.17709121035E+03  0.47000000000E+01 0. -1.
         -5    1    4    4    0  502  0.66987261179E+01 -0.44688954437E+02 -0.58839104135E+02  0.74337781482E+02  0.47000000000E+01 0.  1.
<mgrwt>
<rscale>  0 0.10076312E+03</rscale>
<asrwt>0</asrwt>
<pdfrwt beam="1">  1        2 0.65965363E-01 0.10086547E+03</pdfrwt>
<pdfrwt beam="2">  1       -2 0.36365397E-02 0.10086547E+03</pdfrwt>
<totfact> 0.21374878E+04</totfact>
</mgrwt>
</event>
<event>
 8    1  0.5224537E-004  0.2259371E+03  0.7546771E-02  0.1129979E+00
         -2   -1    0    0    0  501 -0.00000000000E+00  0.00000000000E+00  0.10642091838E+03  0.10642091838E+03  0.00000000000E+00 0.  1.
          2   -1    0    0  501    0  0.00000000000E+00 -0.00000000000E+00 -0.95933299266E+03  0.95933299266E+03  0.00000000000E+00 0. -1.
         23    2    1    2    0    0  0.18465264357E+03  0.86618932238E+02 -0.80644895773E+03  0.83750074652E+03  0.97201547285E+02 0.  0.
         23    2    1    2    0    0 -0.18465264357E+03 -0.86618932238E+02 -0.46463116546E+02  0.22825316452E+03  0.91330431496E+02 0.  0.
          5    1    3    3  502    0  0.62844190617E+02 -0.62158587227E+01 -0.35903807015E+03  0.36457983353E+03  0.47000000000E+01 0. -1.
         -5    1    4    4    0  503 -0.94988787202E+02 -0.69471853313E+02 -0.65669962991E+02  0.13484747731E+03  0.47000000000E+01 0.  1.
          5    1    4    4  503    0 -0.89663856366E+02 -0.17147078925E+02  0.19206846445E+02  0.93405687217E+02  0.47000000000E+01 0. -1.
         -5    1    3    3    0  502  0.12180845295E+03  0.92834790960E+02 -0.44741088758E+03  0.47292091299E+03  0.47000000000E+01 0.  1.
<mgrwt>
<rscale>  0 0.22531883E+03</rscale>
<asrwt>0</asrwt>
<pdfrwt beam="1">  1        2 0.14758969E+00 0.22593711E+03</pdfrwt>
<pdfrwt beam="2">  1       -2 0.16372449E-01 0.22593711E+03</pdfrwt>
<totfact> 0.82690449E+02</totfact>
</mgrwt>
</event>
<event>
 8    1  0.5224537E-004  0.1728516E+03  0.7546771E-02  0.1175049E+00
         -1   -1    0    0    0  501 -0.00000000000E+00  0.00000000000E+00  0.37643664911E+02  0.37643664911E+02  0.00000000000E+00 0.  1.
          1   -1    0    0  501    0  0.00000000000E+00 -0.00000000000E+00 -0.80506374594E+03  0.80506374594E+03  0.00000000000E+00 0. -1.
         23    2    1    2    0    0 -0.13583943645E+03 -0.56936306197E+02 -0.32768059774E+03  0.37021561633E+03  0.89392018569E+02 0.  0.
         23    2    1    2    0    0  0.13583943645E+03  0.56936306197E+02 -0.43973948329E+03  0.47249179452E+03  0.90463181821E+02 0.  0.
          5    1    3    3  502    0 -0.22180243795E+02 -0.26574855938E+02 -0.16930013566E+03  0.17286645747E+03  0.47000000000E+01 0. -1.
         -5    1    4    4    0  503  0.47573897186E+02 -0.22545700470E+02 -0.11156794690E+03  0.12345477342E+03  0.47000000000E+01 0.  1.
          5    1    4    4  503    0  0.88265539261E+02  0.79482006667E+02 -0.32817153639E+03  0.34903702111E+03  0.47000000000E+01 0. -1.
         -5    1    3    3    0  502 -0.11365919265E+03 -0.30361450259E+02 -0.15838046208E+03  0.19734915886E+03  0.47000000000E+01 0.  1.
<mgrwt>
<rscale>  0 0.17271191E+03</rscale>
<asrwt>0</asrwt>
<pdfrwt beam="1">  1        1 0.12385595E+00 0.17285162E+03</pdfrwt>
<pdfrwt beam="2">  1       -1 0.57913336E-02 0.17285162E+03</pdfrwt>
<totfact> 0.31751306E+03</totfact>
</mgrwt>
</event>
<event>
 8    1  0.5224537E-004  0.9435501E+02  0.7546771E-02  0.1293495E+00
         -2   -1    0    0    0  501 -0.00000000000E+00  0.00000000000E+00  0.37188494610E+02  0.37188494610E+02  0.00000000000E+00 0.  1.
          2   -1    0    0  501    0  0.00000000000E+00 -0.00000000000E+00 -0.42986215382E+03  0.42986215382E+03  0.00000000000E+00 0. -1.
         23    2    1    2    0    0  0.33372578080E+00  0.12393396661E+02 -0.40218025069E+02  0.10256878934E+03  0.93536941111E+02 0.  0.
         23    2    1    2    0    0 -0.33372578080E+00 -0.12393396661E+02 -0.35245563414E+03  0.36448185909E+03  0.92023605206E+02 0.  0.
          5    1    3    3  502    0  0.16558705663E+02 -0.37486949573E+02 -0.12765429203E+02  0.43179952574E+02  0.47000000000E+01 0. -1.
         -5    1    4    4    0  503 -0.42332227808E+01 -0.40819469081E+02 -0.75986139490E+02  0.86487759976E+02  0.47000000000E+01 0.  1.
          5    1    4    4  503    0  0.38994970000E+01  0.28426072419E+02 -0.27646949465E+03  0.27799409912E+03  0.47000000000E+01 0. -1.
         -5    1    3    3    0  502 -0.16224979883E+02  0.49880346234E+02 -0.27452595865E+02  0.59388836766E+02  0.47000000000E+01 0.  1.
<mgrwt>
<rscale>  0 0.93977748E+02</rscale>
<asrwt>0</asrwt>
<pdfrwt beam="1">  1        2 0.66132638E-01 0.94355005E+02</pdfrwt>
<pdfrwt beam="2">  1       -2 0.57213070E-02 0.94355005E+02</pdfrwt>
<totfact> 0.10823654E+04</totfact>
</mgrwt>
</event>
<event>
 8    1  0.5224537E-004  0.1148459E+03  0.7546771E-02  0.1252805E+00
         -2   -1    0    0    0  501 -0.00000000000E+00  0.00000000000E+00  0.42830000831E+03  0.42830000831E+03  0.00000000000E+00 0.  1.
          2   -1    0    0  501    0  0.00000000000E+00 -0.00000000000E+00 -0.59821932015E+02  0.59821932015E+02  0.00000000000E+00 0. -1.
         23    2    1    2    0    0  0.13808557878E+02 -0.64379480276E+02  0.11669804033E+02  0.11328635534E+03  0.91445176084E+02 0.  0.
         23    2    1    2    0    0 -0.13808557878E+02  0.64379480276E+02  0.35680827226E+03  0.37483558499E+03  0.94096646403E+02 0.  0.
          5    1    3    3  502    0  0.50875018788E+02 -0.50418179610E+02  0.14755175471E+02  0.73280731267E+02  0.47000000000E+01 0. -1.
         -5    1    4    4    0  503 -0.27241283010E+02  0.88682338276E+01  0.26516765770E+03  0.26675215043E+03  0.47000000000E+01 0.  1.
          5    1    4    4  503    0  0.13432725132E+02  0.55511246448E+02  0.91640614564E+02  0.10808343455E+03  0.47000000000E+01 0. -1.
         -5    1    3    3    0  502 -0.37066460910E+02 -0.13961300665E+02 -0.30853714382E+01  0.40005624074E+02  0.47000000000E+01 0.  1.
<mgrwt>
<rscale>  0 0.11430146E+03</rscale>
<asrwt>0</asrwt>
<pdfrwt beam="1">  1        2 0.92033744E-02 0.11484586E+03</pdfrwt>
<pdfrwt beam="2">  1       -2 0.65892307E-01 0.11484586E+03</pdfrwt>
<totfact> 0.14855226E+03</totfact>
</mgrwt>
</event>
<event>
 8    1  0.5224537E-004  0.9282443E+02  0.7546771E-02  0.1297482E+00
         -3   -1    0    0    0  501 -0.00000000000E+00  0.00000000000E+00  0.10164953740E+03  0.10164953740E+03  0.00000000000E+00 0.  1.
          3   -1    0    0  501    0  0.00000000000E+00 -0.00000000000E+00 -0.83376940555E+02  0.83376940555E+02  0.00000000000E+00 0. -1.
         23    2    1    2    0    0  0.10435138334E+02  0.15012820109E+02  0.17260490368E+02  0.92196529958E+02  0.88701740281E+02 0.  0.
         23    2    1    2    0    0 -0.10435138334E+02 -0.15012820109E+02  0.10121064785E+01  0.92829947998E+02  0.91006032801E+02 0.  0.
          5    1    3    3  502    0 -0.37406029579E+02  0.17776650564E+02  0.13862805827E+02  0.43925934703E+02  0.47000000000E+01 0. -1.
         -5    1    3    3    0  502  0.47841167913E+02 -0.27638304546E+01  0.33976845405E+01  0.48270595255E+02  0.47000000000E+01 0.  1.
          5    1    4    4  503    0  0.22241092683E+02  0.25076946837E+02 -0.16981934617E+02  0.37868133962E+02  0.47000000000E+01 0. -1.
         -5    1    4    4    0  503 -0.32676231017E+02 -0.40089766946E+02  0.17994041096E+02  0.54961814037E+02  0.47000000000E+01 0.  1.
<mgrwt>
<rscale>  0 0.92254703E+02</rscale>
<asrwt>0</asrwt>
<pdfrwt beam="1">  1        3 0.12827222E-01 0.92824430E+02</pdfrwt>
<pdfrwt beam="2">  1       -3 0.15638390E-01 0.92824430E+02</pdfrwt>
<totfact> 0.35410015E+03</totfact>
</mgrwt>
</event>
<event>
 8    1  0.5224537E-004  0.1630439E+03  0.7546771E-02  0.1185391E+00
          2   -1    0    0  501    0  0.00000000000E+00  0.00000000000E+00  0.32769892916E+03  0.32769892916E+03  0.00000000000E+00 0. -1.
         -2   -1    0    0    0  501 -0.00000000000E+00 -0.00000000000E+00 -0.81280761255E+02  0.81280761255E+02  0.00000000000E+00 0.  1.
         23    2    1    2    0    0 -0.11435773995E+03  0.71669901526E+02  0.11049556987E+03  0.19695830150E+03  0.91482425089E+02 0.  0.
         23    2    1    2    0    0  0.11435773995E+03 -0.71669901526E+02  0.13592259804E+03  0.21202138891E+03  0.90905716146E+02 0.  0.
          5    1    4    4  502    0 -0.14459966390E+01 -0.42047671906E+02  0.44849437840E+02  0.61673816921E+02  0.47000000000E+01 0. -1.
         -5    1    4    4    0  502  0.11580373659E+03 -0.29622229620E+02  0.91073160196E+02  0.15034757199E+03  0.47000000000E+01 0.  1.
          5    1    3    3  503    0 -0.48432338904E+02  0.54852282996E+02  0.10563072633E+03  0.12858617635E+03  0.47000000000E+01 0. -1.
         -5    1    3    3    0  503 -0.65925401044E+02  0.16817618530E+02  0.48648435331E+01  0.68372125157E+02  0.47000000000E+01 0.  1.
<mgrwt>
<rscale>  0 0.16296308E+03</rscale>
<asrwt>0</asrwt>
<pdfrwt beam="1">  1        2 0.50415219E-01 0.16304386E+03</pdfrwt>
<pdfrwt beam="2">  1       -2 0.12504733E-01 0.16304386E+03</pdfrwt>
<totfact> 0.44580360E+03</totfact>
</mgrwt>
</event>
<event>
 8    1  0.5224537E-004  0.1135018E+03  0.7546771E-02  0.1255066E+00
          1   -1    0    0  501    0  0.00000000000E+00  0.00000000000E+00  0.68130790119E+02  0.68130790119E+02  0.00000000000E+00 0. -1.
         -1   -1    0    0    0  501 -0.00000000000E+00 -0.00000000000E+00 -0.19441303772E+03  0.19441303772E+03  0.00000000000E+00 0.  1.
         23    2    1    2    0    0 -0.64572566539E+02 -0.19689633741E+02 -0.36263837717E+02  0.11915422796E+03  0.91243444081E+02 0.  0.
         23    2    1    2    0    0  0.64572566539E+02  0.19689633741E+02 -0.90018409886E+02  0.14338959988E+03  0.88881748464E+02 0.  0.
          5    1    3    3  502    0 -0.15984414286E+02  0.27029679448E+02 -0.40487464050E+02  0.51453180818E+02  0.47000000000E+01 0. -1.
         -5    1    3    3    0  502 -0.48588152254E+02 -0.46719313189E+02  0.42236263329E+01  0.67701047139E+02  0.47000000000E+01 0.  1.
          5    1    4    4  503    0 -0.68665744705E+00  0.28051214331E+02  0.38014228580E+01  0.28703361121E+02  0.47000000000E+01 0. -1.
         -5    1    4    4    0  503  0.65259223986E+02 -0.83615805908E+01 -0.93819832744E+02  0.11468623876E+03  0.47000000000E+01 0.  1.
<mgrwt>
<rscale>  0 0.11302642E+03</rscale>
<asrwt>0</asrwt>
<pdfrwt beam="1">  1        1 0.10481660E-01 0.11350182E+03</pdfrwt>
<pdfrwt beam="2">  1       -1 0.29909698E-01 0.11350182E+03</pdfrwt>
<totfact> 0.58023224E+03</totfact>
</mgrwt>
</event>
<event>
 8    1  0.5224537E-004  0.1036125E+03  0.7546771E-02  0.1273932E+00
          1   -1    0    0  501    0  0.00000000000E+00  0.00000000000E+00  0.23867399885E+03  0.23867399885E+03  0.00000000000E+00 0. -1.
         -1   -1    0    0    0  501 -0.00000000000E+00 -0.00000000000E+00 -0.44082123009E+02  0.44082123009E+02  0.00000000000E+00 0.  1.
         23    2    1    2    0    0  0.13029830503E+02 -0.41714527297E+02  0.97848321504E+02  0.14251259147E+03  0.93945018152E+02 0.  0.
         23    2    1    2    0    0 -0.13029830503E+02  0.41714527297E+02  0.96743554333E+02  0.14024353039E+03  0.91646354207E+02 0.  0.
          5    1    3    3  502    0  0.26653652532E+02  0.19226252676E+02  0.62070211198E+02  0.70390816897E+02  0.47000000000E+01 0. -1.
         -5    1    4    4    0  503 -0.29999539203E+02  0.12442720067E+02 -0.47478241347E+01  0.33157585392E+02  0.47000000000E+01 0.  1.
          5    1    4    4  503    0  0.16969708700E+02  0.29271807230E+02  0.10149137847E+03  0.10708594499E+03  0.47000000000E+01 0. -1.
         -5    1    3    3    0  502 -0.13623822029E+02 -0.60940779973E+02  0.35778110306E+02  0.72121774572E+02  0.47000000000E+01 0.  1.
<mgrwt>
<rscale>  0 0.10308862E+03</rscale>
<asrwt>0</asrwt>
<pdfrwt beam="1">  1        1 0.36719076E-01 0.10361247E+03</pdfrwt>
<pdfrwt beam="2">  1       -1 0.67818652E-02 0.10361247E+03</pdfrwt>
<totfact> 0.11932118E+04</totfact>
</mgrwt>
</event>
<event>
 8    1  0.5224537E-004  0.1894233E+03  0.7546771E-02  0.1160390E+00
          3   -1    0    0  501    0  0.00000000000E+00  0.00000000000E+00  0.30811739810E+03  0.30811739810E+03  0.00000000000E+00 0. -1.
         -3   -1    0    0    0  501 -0.00000000000E+00 -0.00000000000E+00 -0.15341675395E+03  0.15341675395E+03  0.00000000000E+00 0.  1.
         23    2    1    2    0    0 -0.31210508702E+02 -0.16353073264E+03 -0.42413450316E+02  0.18815683006E+03  0.76731320575E+02 0.  0.
         23    2    1    2    0    0  0.31210508702E+02  0.16353073264E+03  0.19711409446E+03  0.27337732199E+03  0.90359269441E+02 0.  0.
          5    1    4    4  502    0  0.16801791561E+02  0.71390842337E+02  0.15377058789E+03  0.17043015070E+03  0.47000000000E+01 0. -1.
         -5    1    3    3    0  503  0.18774488148E+02 -0.71707056682E+02 -0.37955695721E+02  0.83409281383E+02  0.47000000000E+01 0.  1.
          5    1    3    3  503    0 -0.49984996851E+02 -0.91823675959E+02 -0.44577545952E+01  0.10474754867E+03  0.47000000000E+01 0. -1.
         -5    1    4    4    0  502  0.14408717141E+02  0.92139890304E+02  0.43343506573E+02  0.10294717129E+03  0.47000000000E+01 0.  1.
<mgrwt>
<rscale>  0 0.18787721E+03</rscale>
<asrwt>0</asrwt>
<pdfrwt beam="1">  1        3 0.47402677E-01 0.18942332E+03</pdfrwt>
<pdfrwt beam="2">  1       -3 0.23602578E-01 0.18942332E+03</pdfrwt>
<totfact> 0.18015269E+02</totfact>
</mgrwt>
</event>
<event>
 8    1  0.5224537E-004  0.1187477E+03  0.7546771E-02  0.1245379E+00
         -1   -1    0    0    0  501 -0.00000000000E+00  0.00000000000E+00  0.10697942534E+03  0.10697942534E+03  0.00000000000E+00 0.  1.
          1   -1    0    0  501    0  0.00000000000E+00 -0.00000000000E+00 -0.13874348020E+03  0.13874348020E+03  0.00000000000E+00 0. -1.
         23    2    1    2    0    0 -0.52209647226E+02 -0.55974594942E+02 -0.44350706096E+02  0.12630998750E+03  0.90156670680E+02 0.  0.
         23    2    1    2    0    0  0.52209647226E+02  0.55974594942E+02  0.12586651236E+02  0.11941291804E+03  0.90785564180E+02 0.  0.
          5    1    3    3  502    0  0.17959530600E+01  0.21969502001E+02 -0.29373436248E+01  0.22728890275E+02  0.47000000000E+01 0. -1.
         -5    1    4    4    0  503 -0.18711905000E+02 -0.10014516014E+02  0.13955076603E+01  0.21782179903E+02  0.47000000000E+01 0.  1.
          5    1    4    4  503    0  0.70921552226E+02  0.65989110956E+02  0.11191143575E+02  0.97630738138E+02  0.47000000000E+01 0. -1.
         -5    1    3    3    0  502 -0.54005600286E+02 -0.77944096943E+02 -0.41413362471E+02  0.10358109722E+03  0.47000000000E+01 0.  1.
<mgrwt>
<rscale>  0 0.11862751E+03</rscale>
<asrwt>0</asrwt>
<pdfrwt beam="1">  1        1 0.21345151E-01 0.11874772E+03</pdfrwt>
<pdfrwt beam="2">  1       -1 0.16458373E-01 0.11874772E+03</pdfrwt>
<totfact> 0.61190140E+03</totfact>
</mgrwt>
</event>
<event>
 8    1  0.5224537E-004  0.1022154E+03  0.7546771E-02  0.1279699E+00
          1   -1    0    0  501    0  0.00000000000E+00  0.00000000000E+00  0.22923855256E+03  0.22923855256E+03  0.00000000000E+00 0. -1.
         -1   -1    0    0    0  501 -0.00000000000E+00 -0.00000000000E+00 -0.27760799968E+03  0.27760799968E+03  0.00000000000E+00 0.  1.
         23    2    1    2    0    0  0.61979568553E+00  0.22999299762E+02 -0.25762244412E+03  0.27715937722E+03  0.99592392936E+02 0.  0.
         23    2    1    2    0    0 -0.61979568553E+00 -0.22999299762E+02  0.20925299700E+03  0.22968717502E+03  0.91869634133E+02 0.  0.
          5    1    3    3  502    0 -0.19218647090E+02 -0.15265147282E+02 -0.11966824781E+02  0.27706966864E+02  0.47000000000E+01 0. -1.
         -5    1    4    4    0  503  0.52605874200E+01  0.33085254686E+02  0.47450019188E+02  0.58274369826E+02  0.47000000000E+01 0.  1.
          5    1    4    4  503    0 -0.58803831056E+01 -0.56084554449E+02  0.16180297782E+03  0.17141280519E+03  0.47000000000E+01 0. -1.
         -5    1    3    3    0  502  0.19838442775E+02  0.38264447044E+02 -0.24565561934E+03  0.24945241036E+03  0.47000000000E+01 0.  1.
<mgrwt>
<rscale>  0 0.10028424E+03</rscale>
<asrwt>0</asrwt>
<pdfrwt beam="1">  1        1 0.35267469E-01 0.10221544E+03</pdfrwt>
<pdfrwt beam="2">  1       -1 0.42708923E-01 0.10221544E+03</pdfrwt>
<totfact> 0.67446731E+02</totfact>
</mgrwt>
</event>
<event>
 8    1  0.8818599E-004  0.3494015E+03  0.7546771E-02  0.1062965E+00
         -2   -1    0    0    0  501 -0.00000000000E+00  0.00000000000E+00  0.62259519572E+03  0.62259519572E+03  0.00000000000E+00 0.  1.
          2   -1    0    0  501    0  0.00000000000E+00 -0.00000000000E+00 -0.58376530147E+03  0.58376530147E+03  0.00000000000E+00 0. -1.
         23    2    1    2    0    0  0.33497994074E+03 -0.16260928924E+02 -0.47250131470E+03  0.58705362751E+03  0.94331811581E+02 0.  0.
         23    2    1    2    0    0 -0.33497994074E+03  0.16260928924E+02  0.51133120896E+03  0.61930686967E+03  0.98007219465E+02 0.  0.
          5    1    3    3  502    0  0.23448879211E+03 -0.43773901145E+02 -0.37384367871E+03  0.44348882078E+03  0.47000000000E+01 0. -1.
         -5    1    4    4    0  503 -0.26924242425E+03  0.29803714321E+02  0.46307838135E+03  0.53651041152E+03  0.47000000000E+01 0.  1.
          5    1    4    4  503    0 -0.65737516483E+02 -0.13542785397E+02  0.48252827613E+02  0.82796458150E+02  0.47000000000E+01 0. -1.
         -5    1    3    3    0  502  0.10049114863E+03  0.27512972221E+02 -0.98657635998E+02  0.14356480674E+03  0.47000000000E+01 0.  1.
<mgrwt>
<rscale>  0 0.34914793E+03</rscale>
<asrwt>0</asrwt>
<pdfrwt beam="1">  1        2 0.89810046E-01 0.34940148E+03</pdfrwt>
<pdfrwt beam="2">  1       -2 0.95783877E-01 0.34940148E+03</pdfrwt>
<totfact> 0.49394928E+01</totfact>
</mgrwt>
</event>
<event>
 8    1  0.9567942E-004  0.1214281E+03  0.7546771E-02  0.1246439E+00
         -1   -1    0    0    0  501 -0.00000000000E+00  0.00000000000E+00  0.16063712921E+03  0.16063712921E+03  0.00000000000E+00 0.  1.
          1   -1    0    0  501    0  0.00000000000E+00 -0.00000000000E+00 -0.28359651381E+03  0.28359651381E+03  0.00000000000E+00 0. -1.
         23    2    1    2    0    0  0.78581260410E+02 -0.13283392256E+02 -0.24759007230E+03  0.27022905945E+03  0.73290092580E+02 0.  0.
         23    2    1    2    0    0 -0.78581260410E+02  0.13283392256E+02  0.12463068770E+03  0.17400458357E+03  0.91615084957E+02 0.  0.
          5    1    4    4  502    0 -0.14091495083E+02 -0.26055284693E+02  0.22066554364E+01  0.30073367325E+02  0.47000000000E+01 0. -1.
         -5    1    3    3    0  503  0.55834716729E+02  0.99135345148E+00 -0.65907402275E+02  0.86512276866E+02  0.47000000000E+01 0.  1.
          5    1    3    3  503    0  0.22746543681E+02 -0.14274745708E+02 -0.18168267003E+03  0.18371678258E+03  0.47000000000E+01 0. -1.
         -5    1    4    4    0  502 -0.64489765327E+02  0.39338676949E+02  0.12242403226E+03  0.14393121625E+03  0.47000000000E+01 0.  1.
<mgrwt>
<rscale>  0 0.11799642E+03</rscale>
<asrwt>0</asrwt>
<pdfrwt beam="1">  1        1 0.43630233E-01 0.12142811E+03</pdfrwt>
<pdfrwt beam="2">  1       -1 0.24713405E-01 0.12142811E+03</pdfrwt>
<totfact> 0.13147405E+03</totfact>
</mgrwt>
</event>
<event>
 8    1  0.5224537E-004  0.9689679E+02  0.7546771E-02  0.1287342E+00
          1   -1    0    0  501    0  0.00000000000E+00  0.00000000000E+00  0.82655537531E+03  0.82655537531E+03  0.00000000000E+00 0. -1.
         -1   -1    0    0    0  501 -0.00000000000E+00 -0.00000000000E+00 -0.12951089125E+02  0.12951089125E+02  0.00000000000E+00 0.  1.
         23    2    1    2    0    0  0.31693308716E+02  0.35898238732E+00  0.55639904587E+03  0.56465464271E+03  0.90831561678E+02 0.  0.
         23    2    1    2    0    0 -0.31693308716E+02 -0.35898238732E+00  0.25720524031E+03  0.27485182173E+03  0.91566334303E+02 0.  0.
          5    1    4    4  502    0 -0.55559816109E+02 -0.21717429619E+01  0.90129213307E+02  0.10600459766E+03  0.47000000000E+01 0.  1.
         -5    1    3    3    0  503 -0.16452861311E+02  0.32667397405E+02  0.17485336564E+03  0.17869987402E+03  0.47000000000E+01 0.  1.
          5    1    3    3  503    0  0.48146170027E+02 -0.32308415018E+02  0.38154568023E+03  0.38595476869E+03  0.47000000000E+01 0. -1.
         -5    1    4    4    0  502  0.23866507393E+02  0.18127605746E+01  0.16707602700E+03  0.16884722407E+03  0.47000000000E+01 0. -1.
<mgrwt>
<rscale>  0 0.96722811E+02</rscale>
<asrwt>0</asrwt>
<pdfrwt beam="1">  1        1 0.12716232E+00 0.96896792E+02</pdfrwt>
<pdfrwt beam="2">  1       -1 0.19924759E-02 0.96896792E+02</pdfrwt>
<totfact> 0.14053212E+04</totfact>
</mgrwt>
</event>
<event>
 8    1  0.5224537E-004  0.1251103E+03  0.7546771E-02  0.1245482E+00
          1   -1    0    0  501    0  0.00000000000E+00  0.00000000000E+00  0.19474879749E+03  0.19474879749E+03  0.00000000000E+00 0. -1.
         -1   -1    0    0    0  501 -0.00000000000E+00 -0.00000000000E+00 -0.65938495135E+02  0.65938495135E+02  0.00000000000E+00 0.  1.
         23    2    1    2    0    0 -0.33339108044E+02  0.23226585431E+02  0.80795490107E+02  0.14893117911E+03  0.11832841795E+03 0.  0.
         23    2    1    2    0    0  0.33339108044E+02 -0.23226585431E+02  0.48014812247E+02  0.11175611351E+03  0.92374435407E+02 0.  0.
          5    1    3    3  502    0 -0.48915405892E+02  0.62228226311E+02  0.35169223966E+02  0.86741186282E+02  0.47000000000E+01 0. -1.
         -5    1    4    4    0  503  0.65476060679E+02 -0.13889415378E+02  0.30785870069E+02  0.73823371485E+02  0.47000000000E+01 0.  1.
          5    1    4    4  503    0 -0.32136952635E+02 -0.93371700530E+01  0.17228942178E+02  0.37932742029E+02  0.47000000000E+01 0. -1.
         -5    1    3    3    0  502  0.15576297848E+02 -0.39001640880E+02  0.45626266142E+02  0.62189992828E+02  0.47000000000E+01 0.  1.
<mgrwt>
<rscale>  0 0.11856585E+03</rscale>
<asrwt>0</asrwt>
<pdfrwt beam="1">  1        1 0.29961353E-01 0.12511029E+03</pdfrwt>
<pdfrwt beam="2">  1       -1 0.10144384E-01 0.12511029E+03</pdfrwt>
<totfact> 0.84980450E+03</totfact>
</mgrwt>
</event>
<event>
 8    1  0.5224537E-004  0.9147123E+02  0.7546771E-02  0.1300312E+00
         -1   -1    0    0    0  501 -0.00000000000E+00  0.00000000000E+00  0.18468903236E+02  0.18468903236E+02  0.00000000000E+00 0.  1.
          1   -1    0    0  501    0  0.00000000000E+00 -0.00000000000E+00 -0.47144825445E+03  0.47144825445E+03  0.00000000000E+00 0. -1.
         23    2    1    2    0    0 -0.10827587919E+00 -0.42723273999E+01 -0.28265953143E+03  0.29658887195E+03  0.89723373515E+02 0.  0.
         23    2    1    2    0    0  0.10827587919E+00  0.42723273999E+01 -0.17031981979E+03  0.19332828573E+03  0.91371333287E+02 0.  0.
          5    1    4    4  502    0 -0.17287369625E+01  0.43951282089E+02 -0.12643578712E+03  0.13395074465E+03  0.47000000000E+01 0. -1.
         -5    1    3    3    0  503  0.21213960037E+02 -0.28412379934E+02 -0.48962098650E+02  0.60635571558E+02  0.47000000000E+01 0.  1.
          5    1    3    3  503    0 -0.21322235916E+02  0.24140052534E+02 -0.23369743278E+03  0.23595330040E+03  0.47000000000E+01 0. -1.
         -5    1    4    4    0  502  0.18370128417E+01 -0.39678954689E+02 -0.43884032670E+02  0.59377541080E+02  0.47000000000E+01 0.  1.
<mgrwt>
<rscale>  0 0.91056887E+02</rscale>
<asrwt>0</asrwt>
<pdfrwt beam="1">  1        1 0.72530495E-01 0.91471225E+02</pdfrwt>
<pdfrwt beam="2">  1       -1 0.28413699E-02 0.91471225E+02</pdfrwt>
<totfact> 0.18117697E+04</totfact>
</mgrwt>
</event>
<event>
 8    1  0.5224537E-004  0.9289299E+02  0.7546771E-02  0.1296122E+00
         -1   -1    0    0    0  501 -0.00000000000E+00  0.00000000000E+00  0.12066031603E+03  0.12066031603E+03  0.00000000000E+00 0.  1.
          1   -1    0    0  501    0  0.00000000000E+00 -0.00000000000E+00 -0.85015787349E+02  0.85015787349E+02  0.00000000000E+00 0. -1.
         23    2    1    2    0    0  0.12059873296E+02 -0.20667900339E+00  0.59077464001E+02  0.11008748617E+03  0.92106593669E+02 0.  0.
         23    2    1    2    0    0 -0.12059873296E+02  0.20667900339E+00 -0.23432935324E+02  0.95588617210E+02  0.91883611282E+02 0.  0.
          5    1    4    4  502    0 -0.32328445146E+02  0.37372196210E+02 -0.17246628680E+02  0.52548507267E+02  0.47000000000E+01 0. -1.
         -5    1    3    3    0  503  0.10344300259E+02 -0.22686248832E+02  0.76893169518E+02  0.80971105664E+02  0.47000000000E+01 0.  1.
          5    1    3    3  503    0  0.17155730367E+01  0.22479569828E+02 -0.17815705516E+02  0.29116380502E+02  0.47000000000E+01 0. -1.
         -5    1    4    4    0  502  0.20268571850E+02 -0.37165517207E+02 -0.61863066436E+01  0.43040109944E+02  0.47000000000E+01 0.  1.
<mgrwt>
<rscale>  0 0.92837669E+02</rscale>
<asrwt>0</asrwt>
<pdfrwt beam="1">  1        1 0.13079352E-01 0.92892991E+02</pdfrwt>
<pdfrwt beam="2">  1       -1 0.18563126E-01 0.92892991E+02</pdfrwt>
<totfact> 0.92697194E+03</totfact>
</mgrwt>
</event>
<event>
 8    1  0.5224537E-004  0.1018297E+03  0.7546771E-02  0.1276764E+00
         -1   -1    0    0    0  501 -0.00000000000E+00  0.00000000000E+00  0.13685041557E+03  0.13685041557E+03  0.00000000000E+00 0.  1.
          1   -1    0    0  501    0  0.00000000000E+00 -0.00000000000E+00 -0.75576535546E+02  0.75576535546E+02  0.00000000000E+00 0. -1.
         23    2    1    2    0    0 -0.47659212743E+01  0.43322686705E+02  0.35954040385E+02  0.10749658147E+03  0.91450821863E+02 0.  0.
         23    2    1    2    0    0  0.47659212743E+01 -0.43322686705E+02  0.25319839636E+02  0.10493036964E+03  0.92031076298E+02 0.  0.
          5    1    3    3  502    0  0.43041949577E+02  0.18287305663E+02  0.13953257268E+02  0.49028750343E+02  0.47000000000E+01 0. -1.
         -5    1    3    3    0  502 -0.47807870851E+02  0.25035381042E+02  0.22000783117E+02  0.58467831130E+02  0.47000000000E+01 0.  1.
          5    1    4    4  503    0 -0.12852580792E+02 -0.68133817013E+02  0.89801529920E+01  0.70072384015E+02  0.47000000000E+01 0. -1.
         -5    1    4    4    0  503  0.17618502066E+02  0.24811130307E+02  0.16339686644E+02  0.34857985625E+02  0.47000000000E+01 0.  1.
<mgrwt>
<rscale>  0 0.10169842E+03</rscale>
<asrwt>0</asrwt>
<pdfrwt beam="1">  1        1 0.11627159E-01 0.10182970E+03</pdfrwt>
<pdfrwt beam="2">  1       -1 0.21053910E-01 0.10182970E+03</pdfrwt>
<totfact> 0.89122718E+03</totfact>
</mgrwt>
</event>
<event>
 8    1  0.5224537E-004  0.1004917E+03  0.7546771E-02  0.1279682E+00
          1   -1    0    0  501    0  0.00000000000E+00  0.00000000000E+00  0.63857543682E+03  0.63857543682E+03  0.00000000000E+00 0. -1.
         -1   -1    0    0    0  501 -0.00000000000E+00 -0.00000000000E+00 -0.55137004391E+02  0.55137004391E+02  0.00000000000E+00 0.  1.
         23    2    1    2    0    0  0.45181235885E+02  0.25608940051E+01 -0.19939057749E+01  0.99717821056E+02  0.88835611788E+02 0.  0.
         23    2    1    2    0    0 -0.45181235885E+02 -0.25608940051E+01  0.58543233821E+03  0.59399462016E+03  0.89725603393E+02 0.  0.
          5    1    4    4  502    0 -0.30080768771E+02  0.34816123319E+02  0.45621906122E+03  0.45855745214E+03  0.47000000000E+01 0. -1.
         -5    1    4    4    0  502 -0.15100467114E+02 -0.37377017324E+02  0.12921327699E+03  0.13543716802E+03  0.47000000000E+01 0.  1.
          5    1    3    3  503    0  0.35415567345E+02  0.20289202597E+02  0.37156529692E+02  0.55395052587E+02  0.47000000000E+01 0. -1.
         -5    1    3    3    0  503  0.97656685406E+01 -0.17728308592E+02 -0.39150435467E+02  0.44322768469E+02  0.47000000000E+01 0.  1.
<mgrwt>
<rscale>  0 0.10029267E+03</rscale>
<asrwt>0</asrwt>
<pdfrwt beam="1">  1        1 0.98242370E-01 0.10049172E+03</pdfrwt>
<pdfrwt beam="2">  1       -1 0.84826165E-02 0.10049172E+03</pdfrwt>
<totfact> 0.24604565E+03</totfact>
</mgrwt>
</event>
<event>
 8    1  0.5224537E-004  0.1029743E+03  0.7546771E-02  0.1274413E+00
         -2   -1    0    0    0  501 -0.00000000000E+00  0.00000000000E+00  0.29506865701E+02  0.29506865701E+02  0.00000000000E+00 0.  1.
          2   -1    0    0  501    0  0.00000000000E+00 -0.00000000000E+00 -0.69487548063E+03  0.69487548063E+03  0.00000000000E+00 0. -1.
         23    2    1    2    0    0  0.44888188312E+02  0.37364090470E+01 -0.79956389237E+02  0.12998250343E+03  0.92051707292E+02 0.  0.
         23    2    1    2    0    0 -0.44888188312E+02 -0.37364090470E+01 -0.58541222570E+03  0.59439984291E+03  0.92600156857E+02 0.  0.
          5    1    3    3  502    0 -0.77273618992E+01  0.33779865302E+02 -0.53009930646E+02  0.63505386928E+02  0.47000000000E+01 0. -1.
         -5    1    4    4    0  503  0.40969163828E+01  0.32949636786E+02 -0.10877927930E+03  0.11383094875E+03  0.47000000000E+01 0.  1.
          5    1    4    4  503    0 -0.48985104694E+02 -0.36686045833E+02 -0.47663294640E+03  0.48056889416E+03  0.47000000000E+01 0. -1.
         -5    1    3    3    0  502  0.52615550211E+02 -0.30043456255E+02 -0.26946458591E+02  0.66477116501E+02  0.47000000000E+01 0.  1.
<mgrwt>
<rscale>  0 0.10285081E+03</rscale>
<asrwt>0</asrwt>
<pdfrwt beam="1">  1        2 0.10690391E+00 0.10297427E+03</pdfrwt>
<pdfrwt beam="2">  1       -2 0.45395182E-02 0.10297427E+03</pdfrwt>
<totfact> 0.90435923E+03</totfact>
</mgrwt>
</event>
<event>
 8    1  0.5224537E-004  0.9619263E+02  0.7546771E-02  0.1289633E+00
          2   -1    0    0  501    0  0.00000000000E+00  0.00000000000E+00  0.15708732486E+02  0.15708732486E+02  0.00000000000E+00 0. -1.
         -2   -1    0    0    0  501 -0.00000000000E+00 -0.00000000000E+00 -0.59432641546E+03  0.59432641546E+03  0.00000000000E+00 0.  1.
         23    2    1    2    0    0  0.17547278105E+02  0.27562161486E+02 -0.23995868782E+03  0.25852116685E+03  0.90473433296E+02 0.  0.
         23    2    1    2    0    0 -0.17547278105E+02 -0.27562161486E+02 -0.33865899515E+03  0.35151398110E+03  0.88343557751E+02 0.  0.
          5    1    4    4  502    0  0.44710139093E+01  0.24449382007E+02 -0.38602996917E+02  0.46152395571E+02  0.47000000000E+01 0.  1.
         -5    1    4    4    0  502 -0.22018292014E+02 -0.52011543494E+02 -0.30005599823E+03  0.30536158553E+03  0.47000000000E+01 0. -1.
          5    1    3    3  503    0  0.52588765267E+02  0.13039788095E+02 -0.17385618366E+03  0.18216387376E+03  0.47000000000E+01 0. -1.
         -5    1    3    3    0  503 -0.35041487162E+02  0.14522373392E+02 -0.66102504162E+02  0.76357293089E+02  0.47000000000E+01 0.  1.
<mgrwt>
<rscale>  0 0.95688565E+02</rscale>
<asrwt>0</asrwt>
<pdfrwt beam="1">  1        2 0.24167275E-02 0.96192629E+02</pdfrwt>
<pdfrwt beam="2">  1       -2 0.91434855E-01 0.96192629E+02</pdfrwt>
<totfact> 0.40836807E+03</totfact>
</mgrwt>
</event>
<event>
 8    1  0.5224537E-004  0.1172676E+03  0.7546771E-02  0.1249039E+00
          1   -1    0    0  501    0  0.00000000000E+00  0.00000000000E+00  0.20682039210E+03  0.20682039210E+03  0.00000000000E+00 0. -1.
         -1   -1    0    0    0  501 -0.00000000000E+00 -0.00000000000E+00 -0.91301600450E+02  0.91301600450E+02  0.00000000000E+00 0.  1.
         23    2    1    2    0    0  0.28525165785E+02 -0.61374384554E+02 -0.22120929379E+02  0.11933577977E+03  0.95766344058E+02 0.  0.
         23    2    1    2    0    0 -0.28525165785E+02  0.61374384554E+02  0.13763972103E+03  0.17878621278E+03  0.91865754843E+02 0.  0.
          5    1    3    3  502    0  0.50694437391E+02 -0.35032693719E+02  0.19791420920E+02  0.64892264205E+02  0.47000000000E+01 0. -1.
         -5    1    3    3    0  502 -0.22169271605E+02 -0.26341690835E+02 -0.41912350299E+02  0.54443515566E+02  0.47000000000E+01 0.  1.
          5    1    4    4  503    0  0.14081443578E+02  0.65827297883E+02  0.10462056328E+03  0.12449527084E+03  0.47000000000E+01 0. -1.
         -5    1    4    4    0  503 -0.42606609364E+02 -0.44529133292E+01  0.33019157750E+02  0.54290941944E+02  0.47000000000E+01 0.  1.
<mgrwt>
<rscale>  0 0.11646868E+03</rscale>
<asrwt>0</asrwt>
<pdfrwt beam="1">  1        1 0.31818522E-01 0.11726761E+03</pdfrwt>
<pdfrwt beam="2">  1       -1 0.14046400E-01 0.11726761E+03</pdfrwt>
<totfact> 0.47602328E+03</totfact>
</mgrwt>
</event>
<event>
 8    1  0.5224537E-004  0.9759013E+02  0.7546771E-02  0.1287371E+00
          1   -1    0    0  501    0  0.00000000000E+00  0.00000000000E+00  0.34918965094E+02  0.34918965094E+02  0.00000000000E+00 0. -1.
         -1   -1    0    0    0  501 -0.00000000000E+00 -0.00000000000E+00 -0.26395089010E+03  0.26395089010E+03  0.00000000000E+00 0.  1.
         23    2    1    2    0    0  0.24441661964E+02 -0.43458472891E+01 -0.12083709372E+03  0.15316483072E+03  0.90783153298E+02 0.  0.
         23    2    1    2    0    0 -0.24441661964E+02  0.43458472891E+01 -0.10819483129E+03  0.14570502447E+03  0.94379825236E+02 0.  0.
          5    1    3    3  502    0 -0.22367489048E+02 -0.31336849670E+02 -0.39139109210E+02  0.55102291997E+02  0.47000000000E+01 0. -1.
         -5    1    4    4    0  503 -0.83611305460E+00  0.27645066242E+02 -0.10863953813E+03  0.11220333336E+03  0.47000000000E+01 0.  1.
          5    1    4    4  503    0 -0.23605548909E+02 -0.23299218953E+02  0.44470684424E+00  0.33501691111E+02  0.47000000000E+01 0. -1.
         -5    1    3    3    0  502  0.46809151012E+02  0.26991002381E+02 -0.81697984508E+02  0.98062538722E+02  0.47000000000E+01 0.  1.
<mgrwt>
<rscale>  0 0.96709808E+02</rscale>
<asrwt>0</asrwt>
<pdfrwt beam="1">  1        1 0.53721484E-02 0.97590126E+02</pdfrwt>
<pdfrwt beam="2">  1       -1 0.40607830E-01 0.97590126E+02</pdfrwt>
<totfact> 0.82999506E+03</totfact>
</mgrwt>
</event>
<event>
 8    1  0.5224537E-004  0.1171198E+03  0.7546771E-02  0.1249014E+00
         -1   -1    0    0    0  501 -0.00000000000E+00  0.00000000000E+00  0.12795923426E+02  0.12795923426E+02  0.00000000000E+00 0.  1.
          1   -1    0    0  501    0  0.00000000000E+00 -0.00000000000E+00 -0.10584805808E+04  0.10584805808E+04  0.00000000000E+00 0. -1.
         23    2    1    2    0    0  0.44352531433E+02 -0.56590486444E+02 -0.47779092515E+03  0.49193618634E+03  0.92452220489E+02 0.  0.
         23    2    1    2    0    0 -0.44352531433E+02  0.56590486444E+02 -0.56789373224E+03  0.57934031790E+03  0.89231623484E+02 0.  0.
          5    1    4    4  502    0 -0.39801263159E+02 -0.92277856651E+01 -0.32537170076E+03  0.32796055591E+03  0.47000000000E+01 0. -1.
         -5    1    3    3    0  503  0.58398157378E+02 -0.40941130054E+01 -0.18468881638E+03  0.19380184582E+03  0.47000000000E+01 0.  1.
          5    1    3    3  503    0 -0.14045625946E+02 -0.52496373438E+02 -0.29310210877E+03  0.29813434053E+03  0.47000000000E+01 0. -1.
         -5    1    4    4    0  502 -0.45512682735E+01  0.65818272109E+02 -0.24252203148E+03  0.25137976199E+03  0.47000000000E+01 0.  1.
<mgrwt>
<rscale>  0 0.11648331E+03</rscale>
<asrwt>0</asrwt>
<pdfrwt beam="1">  1        1 0.16284323E+00 0.11711978E+03</pdfrwt>
<pdfrwt beam="2">  1       -1 0.19686028E-02 0.11711978E+03</pdfrwt>
<totfact> 0.97237813E+03</totfact>
</mgrwt>
</event>
<event>
 8    1  0.5224537E-004  0.1490274E+03  0.7546771E-02  0.1208553E+00
          2   -1    0    0  501    0  0.00000000000E+00  0.00000000000E+00  0.74061930536E+02  0.74061930536E+02  0.00000000000E+00 0. -1.
         -2   -1    0    0    0  501 -0.00000000000E+00 -0.00000000000E+00 -0.26028962912E+03  0.26028962912E+03  0.00000000000E+00 0.  1.
         23    2    1    2    0    0 -0.22301580103E+02  0.91538855790E+02 -0.91726115013E+02  0.15788708132E+03  0.87395238301E+02 0.  0.
         23    2    1    2    0    0  0.22301580103E+02 -0.91538855790E+02 -0.94501583567E+02  0.17646447833E+03  0.11546618649E+03 0.  0.
          5    1    3    3  502    0 -0.48751468658E+02  0.65975020439E+02 -0.33242360750E+02  0.88637201932E+02  0.47000000000E+01 0. -1.
         -5    1    4    4    0  503  0.55366753082E+02 -0.49566804436E+01 -0.28981814598E+02  0.62865583631E+02  0.47000000000E+01 0.  1.
          5    1    4    4  503    0 -0.33065172979E+02 -0.86582175347E+02 -0.65519768969E+02  0.11359889470E+03  0.47000000000E+01 0. -1.
         -5    1    3    3    0  502  0.26449888554E+02  0.25563835352E+02 -0.58483754263E+02  0.69249879387E+02  0.47000000000E+01 0.  1.
<mgrwt>
<rscale>  0 0.14360952E+03</rscale>
<asrwt>0</asrwt>
<pdfrwt beam="1">  1        2 0.11394143E-01 0.14902739E+03</pdfrwt>
<pdfrwt beam="2">  1       -2 0.40044559E-01 0.14902739E+03</pdfrwt>
<totfact> 0.31250429E+03</totfact>
</mgrwt>
</event>
<event>
 8    1  0.5224537E-004  0.1020247E+03  0.7546771E-02  0.1277559E+00
         -1   -1    0    0    0  501 -0.00000000000E+00  0.00000000000E+00  0.36948870646E+02  0.36948870646E+02  0.00000000000E+00 0.  1.
          1   -1    0    0  501    0  0.00000000000E+00 -0.00000000000E+00 -0.27526994809E+03  0.27526994809E+03  0.00000000000E+00 0. -1.
         23    2    1    2    0    0  0.43608162445E+02 -0.93481379094E+01 -0.13147142756E+03  0.16641447251E+03  0.91760453804E+02 0.  0.
         23    2    1    2    0    0 -0.43608162445E+02  0.93481379094E+01 -0.10684964988E+03  0.14580434623E+03  0.88617155131E+02 0.  0.
          5    1    4    4  502    0 -0.58051287946E+01 -0.27956005015E+02 -0.82046928447E+02  0.87000150599E+02  0.47000000000E+01 0. -1.
         -5    1    4    4    0  502 -0.37803033651E+02  0.37304142924E+02 -0.24802721438E+02  0.58804195626E+02  0.47000000000E+01 0.  1.
          5    1    3    3  503    0 -0.27819340796E-01 -0.38849610855E+02 -0.22131249024E+02  0.44957482368E+02  0.47000000000E+01 0. -1.
         -5    1    3    3    0  503  0.43635981786E+02  0.29501472945E+02 -0.10934017854E+03  0.12145699015E+03  0.47000000000E+01 0.  1.
<mgrwt>
<rscale>  0 0.10131290E+03</rscale>
<asrwt>0</asrwt>
<pdfrwt beam="1">  1        1 0.42349221E-01 0.10202470E+03</pdfrwt>
<pdfrwt beam="2">  1       -1 0.56844419E-02 0.10202470E+03</pdfrwt>
<totfact> 0.12993432E+04</totfact>
</mgrwt>
</event>
<event>
 8    1  0.5224537E-004  0.9594480E+02  0.7546771E-02  0.1297878E+00
         -1   -1    0    0    0  501 -0.00000000000E+00  0.00000000000E+00  0.12844863637E+03  0.12844863637E+03  0.00000000000E+00 0.  1.
          1   -1    0    0  501    0  0.00000000000E+00 -0.00000000000E+00 -0.62311450385E+02  0.62311450385E+02  0.00000000000E+00 0. -1.
         23    2    1    2    0    0  0.14287299301E+02  0.16432420326E+02  0.17845992611E+02  0.83347596328E+02  0.78448652011E+02 0.  0.
         23    2    1    2    0    0 -0.14287299301E+02 -0.16432420326E+02  0.48291193378E+02  0.10741249043E+03  0.93441170709E+02 0.  0.
          5    1    3    3  502    0  0.13156614960E+02  0.42406646788E+02 -0.91475487391E+01  0.45576176419E+02  0.47000000000E+01 0.  1.
         -5    1    3    3    0  502  0.11306843408E+01 -0.25974226462E+02  0.26993541350E+02  0.37771419909E+02  0.47000000000E+01 0. -1.
          5    1    4    4  503    0 -0.30233292162E+02 -0.49907971758E+02  0.28193472868E+02  0.64975530104E+02  0.47000000000E+01 0. -1.
         -5    1    4    4    0  503  0.15945992862E+02  0.33475551432E+02  0.20097720510E+02  0.42436960326E+02  0.47000000000E+01 0.  1.
<mgrwt>
<rscale>  0 0.92085591E+02</rscale>
<asrwt>0</asrwt>
<pdfrwt beam="1">  1        1 0.95863770E-02 0.95944795E+02</pdfrwt>
<pdfrwt beam="2">  1       -1 0.19761329E-01 0.95944795E+02</pdfrwt>
<totfact> 0.12623583E+04</totfact>
</mgrwt>
</event>
<event>
 8    1  0.5224537E-004  0.1110053E+03  0.7546771E-02  0.1259320E+00
         -1   -1    0    0    0  501 -0.00000000000E+00  0.00000000000E+00  0.13820309576E+02  0.13820309576E+02  0.00000000000E+00 0.  1.
          1   -1    0    0  501    0  0.00000000000E+00 -0.00000000000E+00 -0.90398050860E+03  0.90398050860E+03  0.00000000000E+00 0. -1.
         23    2    1    2    0    0  0.35918660348E+02 -0.53785091489E+02 -0.51544602623E+03  0.52699026828E+03  0.88606719182E+02 0.  0.
         23    2    1    2    0    0 -0.35918660348E+02  0.53785091489E+02 -0.37471417280E+03  0.39081054989E+03  0.90217450560E+02 0.  0.
          5    1    3    3  502    0 -0.15435879481E+02 -0.54224752815E+02 -0.22515436613E+03  0.23215333032E+03  0.47000000000E+01 0. -1.
         -5    1    4    4    0  503  0.14585502683E+02 -0.15992673207E+02 -0.47405296593E+02  0.52324512705E+02  0.47000000000E+01 0.  1.
          5    1    4    4  503    0 -0.50504163031E+02  0.69777764696E+02 -0.32730887620E+03  0.33848603719E+03  0.47000000000E+01 0. -1.
         -5    1    3    3    0  502  0.51354539829E+02  0.43966132555E+00 -0.29029166010E+03  0.29483693796E+03  0.47000000000E+01 0.  1.
<mgrwt>
<rscale>  0 0.11067757E+03</rscale>
<asrwt>0</asrwt>
<pdfrwt beam="1">  1        1 0.13907394E+00 0.11100529E+03</pdfrwt>
<pdfrwt beam="2">  1       -1 0.21262012E-02 0.11100529E+03</pdfrwt>
<totfact> 0.11263688E+04</totfact>
</mgrwt>
</event>
<event>
 8    1  0.5224537E-004  0.1350326E+03  0.7546771E-02  0.1220342E+00
          2   -1    0    0  501    0  0.00000000000E+00  0.00000000000E+00  0.15750179536E+04  0.15750179536E+04  0.00000000000E+00 0. -1.
         -2   -1    0    0    0  501 -0.00000000000E+00 -0.00000000000E+00 -0.11550217872E+02  0.11550217872E+02  0.00000000000E+00 0.  1.
         23    2    1    2    0    0 -0.71068229441E+02  0.69485787299E+02  0.80799645252E+03  0.81912393218E+03  0.90701604776E+02 0.  0.
         23    2    1    2    0    0  0.71068229441E+02 -0.69485787299E+02  0.75547128323E+03  0.76744423932E+03  0.91404774502E+02 0.  0.
          5    1    4    4  502    0  0.62411717192E+02 -0.90649824091E+02  0.57369930416E+03  0.58417941991E+03  0.47000000000E+01 0. -1.
         -5    1    4    4    0  502  0.86565122494E+01  0.21164036791E+02  0.18177197907E+03  0.18326481941E+03  0.47000000000E+01 0.  1.
          5    1    3    3  503    0 -0.43260688473E+01  0.63753356943E+02  0.48554134205E+03  0.48975064087E+03  0.47000000000E+01 0. -1.
         -5    1    3    3    0  503 -0.66742160594E+02  0.57324303560E+01  0.32245511048E+03  0.32937329132E+03  0.47000000000E+01 0.  1.
<mgrwt>
<rscale>  0 0.13491369E+03</rscale>
<asrwt>0</asrwt>
<pdfrwt beam="1">  1        2 0.24231028E+00 0.13503259E+03</pdfrwt>
<pdfrwt beam="2">  1       -2 0.17769578E-02 0.13503259E+03</pdfrwt>
<totfact> 0.11154025E+04</totfact>
</mgrwt>
</event>
<event>
 8    1  0.5224537E-004  0.1059544E+03  0.7546771E-02  0.1269195E+00
          1   -1    0    0  501    0  0.00000000000E+00  0.00000000000E+00  0.33924651593E+03  0.33924651593E+03  0.00000000000E+00 0. -1.
         -1   -1    0    0    0  501 -0.00000000000E+00 -0.00000000000E+00 -0.60886350979E+02  0.60886350979E+02  0.00000000000E+00 0.  1.
         23    2    1    2    0    0  0.27875444371E+01 -0.55880923723E+02  0.27511611652E+03  0.29412885289E+03  0.87706650206E+02 0.  0.
         23    2    1    2    0    0 -0.27875444371E+01  0.55880923723E+02  0.32440484306E+01  0.10600401402E+03  0.89977103192E+02 0.  0.
          5    1    3    3  502    0 -0.17164969360E+02 -0.25162355885E+02  0.24370792608E+03  0.24564898445E+03  0.47000000000E+01 0. -1.
         -5    1    3    3    0  502  0.19952513797E+02 -0.30718567838E+02  0.31408190440E+02  0.48479868436E+02  0.47000000000E+01 0.  1.
          5    1    4    4  503    0 -0.30525776104E+02 -0.93970438273E+01 -0.97927519040E+01  0.33735966405E+02  0.47000000000E+01 0. -1.
         -5    1    4    4    0  503  0.27738231667E+02  0.65277967551E+02  0.13036800335E+02  0.72268047618E+02  0.47000000000E+01 0.  1.
<mgrwt>
<rscale>  0 0.10547077E+03</rscale>
<asrwt>0</asrwt>
<pdfrwt beam="1">  1        1 0.52191771E-01 0.10595436E+03</pdfrwt>
<pdfrwt beam="2">  1       -1 0.93671311E-02 0.10595436E+03</pdfrwt>
<totfact> 0.47852012E+03</totfact>
</mgrwt>
</event>
<event>
 8    1  0.5224537E-004  0.1077816E+03  0.7546771E-02  0.1265855E+00
          2   -1    0    0  501    0  0.00000000000E+00  0.00000000000E+00  0.38211259187E+02  0.38211259187E+02  0.00000000000E+00 0. -1.
         -2   -1    0    0    0  501 -0.00000000000E+00 -0.00000000000E+00 -0.34315447952E+03  0.34315447952E+03  0.00000000000E+00 0.  1.
         23    2    1    2    0    0 -0.22572435625E+02 -0.45799959052E+02 -0.81466210903E+02  0.13325517566E+03  0.92266175942E+02 0.  0.
         23    2    1    2    0    0  0.22572435625E+02  0.45799959052E+02 -0.22347700943E+03  0.24811056305E+03  0.94919579912E+02 0.  0.
          5    1    4    4  502    0  0.37902572998E+02  0.69417887671E+02 -0.16523429059E+03  0.18324821678E+03  0.47000000000E+01 0. -1.
         -5    1    3    3    0  503 -0.54432549432E+02 -0.87887879269E+01 -0.52512679437E+02  0.76287723341E+02  0.47000000000E+01 0.  1.
          5    1    3    3  503    0  0.31860113807E+02 -0.37011171125E+02 -0.28953531467E+02  0.56967452323E+02  0.47000000000E+01 0. -1.
         -5    1    4    4    0  502 -0.15330137373E+02 -0.23617928619E+02 -0.58242718844E+02  0.64862346261E+02  0.47000000000E+01 0.  1.
<mgrwt>
<rscale>  0 0.10719452E+03</rscale>
<asrwt>0</asrwt>
<pdfrwt beam="1">  1        2 0.58786552E-02 0.10778162E+03</pdfrwt>
<pdfrwt beam="2">  1       -2 0.52792998E-01 0.10778162E+03</pdfrwt>
<totfact> 0.40844386E+03</totfact>
</mgrwt>
</event>
<event>
 8    1  0.5224537E-004  0.9948636E+02  0.7546771E-02  0.1282660E+00
         -1   -1    0    0    0  501 -0.00000000000E+00  0.00000000000E+00  0.24038232941E+03  0.24038232941E+03  0.00000000000E+00 0.  1.
          1   -1    0    0  501    0  0.00000000000E+00 -0.00000000000E+00 -0.69657594393E+02  0.69657594393E+02  0.00000000000E+00 0. -1.
         23    2    1    2    0    0  0.25012657984E+02  0.26392620659E+02 -0.14857951309E+02  0.10058973841E+03  0.92603095373E+02 0.  0.
         23    2    1    2    0    0 -0.25012657984E+02 -0.26392620659E+02  0.18558268633E+03  0.20945018539E+03  0.90034677819E+02 0.  0.
          5    1    4    4  502    0  0.20123263750E+02 -0.40857806345E+02  0.11966512708E+03  0.12812548038E+03  0.47000000000E+01 0. -1.
         -5    1    3    3    0  503 -0.28275785339E+02  0.34872705783E+02 -0.97850417248E+01  0.46189421805E+02  0.47000000000E+01 0.  1.
          5    1    3    3  503    0  0.53288443324E+02 -0.84800851235E+01 -0.50729095845E+01  0.54400316610E+02  0.47000000000E+01 0. -1.
         -5    1    4    4    0  502 -0.45135921734E+02  0.14465185686E+02  0.65917559246E+02  0.81324705009E+02  0.47000000000E+01 0.  1.
<mgrwt>
<rscale>  0 0.98884379E+02</rscale>
<asrwt>0</asrwt>
<pdfrwt beam="1">  1        1 0.10716553E-01 0.99486365E+02</pdfrwt>
<pdfrwt beam="2">  1       -1 0.36981897E-01 0.99486365E+02</pdfrwt>
<totfact> 0.38981302E+03</totfact>
</mgrwt>
</event>
<event>
 8    1  0.5224537E-004  0.1309890E+03  0.7546771E-02  0.1227161E+00
          2   -1    0    0  501    0  0.00000000000E+00  0.00000000000E+00  0.42811857445E+03  0.42811857445E+03  0.00000000000E+00 0. -1.
         -2   -1    0    0    0  501 -0.00000000000E+00 -0.00000000000E+00 -0.46130180952E+02  0.46130180952E+02  0.00000000000E+00 0.  1.
         23    2    1    2    0    0  0.82185652455E+02 -0.34026649326E+02  0.28535269476E+03  0.31398134690E+03  0.96155246655E+02 0.  0.
         23    2    1    2    0    0 -0.82185652455E+02  0.34026649326E+02  0.96635698735E+02  0.16026740850E+03  0.91841655166E+02 0.  0.
          5    1    4    4  502    0 -0.23441922193E+02  0.58875371127E+02  0.54133618378E+02  0.83476773297E+02  0.47000000000E+01 0. -1.
         -5    1    4    4    0  502 -0.58743730262E+02 -0.24848721801E+02  0.42502080357E+02  0.76790635203E+02  0.47000000000E+01 0.  1.
          5    1    3    3  503    0  0.21466688872E+02  0.28280293578E+02  0.14006978247E+03  0.14457602739E+03  0.47000000000E+01 0. -1.
         -5    1    3    3    0  503  0.60718963584E+02 -0.62306942904E+02  0.14528291229E+03  0.16940531951E+03  0.47000000000E+01 0.  1.
<mgrwt>
<rscale>  0 0.13019867E+03</rscale>
<asrwt>0</asrwt>
<pdfrwt beam="1">  1        2 0.65864393E-01 0.13098903E+03</pdfrwt>
<pdfrwt beam="2">  1       -2 0.70969512E-02 0.13098903E+03</pdfrwt>
<totfact> 0.80392332E+03</totfact>
</mgrwt>
</event>
<event>
 8    1  0.5224537E-004  0.1241032E+03  0.7546771E-02  0.1236526E+00
         -2   -1    0    0    0  501 -0.00000000000E+00  0.00000000000E+00  0.18774088552E+02  0.18774088552E+02  0.00000000000E+00 0.  1.
          2   -1    0    0  501    0  0.00000000000E+00 -0.00000000000E+00 -0.89335724816E+03  0.89335724816E+03  0.00000000000E+00 0. -1.
         23    2    1    2    0    0  0.25895750774E+02  0.80097510766E+02 -0.56857434006E+03  0.58196081595E+03  0.91188869850E+02 0.  0.
         23    2    1    2    0    0 -0.25895750774E+02 -0.80097510766E+02 -0.30600881955E+03  0.33017052076E+03  0.91021832553E+02 0.  0.
          5    1    3    3  502    0 -0.13853433474E+02  0.61752243477E+02 -0.17920474308E+03  0.19010967134E+03  0.47000000000E+01 0. -1.
         -5    1    4    4    0  503 -0.48627719926E+01 -0.57343178946E+02 -0.64227288737E+02  0.86366204858E+02  0.47000000000E+01 0.  1.
          5    1    4    4  503    0 -0.21032978782E+02 -0.22754331821E+02 -0.24178153081E+03  0.24380431591E+03  0.47000000000E+01 0. -1.
         -5    1    3    3    0  502  0.39749184248E+02  0.18345267290E+02 -0.38936959698E+03  0.39185114461E+03  0.47000000000E+01 0.  1.
<mgrwt>
<rscale>  0 0.12407255E+03</rscale>
<asrwt>0</asrwt>
<pdfrwt beam="1">  1        2 0.13743953E+00 0.12410323E+03</pdfrwt>
<pdfrwt beam="2">  1       -2 0.28883224E-02 0.12410323E+03</pdfrwt>
<totfact> 0.13092892E+04</totfact>
</mgrwt>
</event>
<event>
 8    1  0.5224537E-004  0.1284296E+03  0.7546771E-02  0.1244527E+00
         -2   -1    0    0    0  501 -0.00000000000E+00  0.00000000000E+00  0.47196602987E+02  0.47196602987E+02  0.00000000000E+00 0.  1.
          2   -1    0    0  501    0  0.00000000000E+00 -0.00000000000E+00 -0.40391232953E+03  0.40391232953E+03  0.00000000000E+00 0. -1.
         23    2    1    2    0    0 -0.61771496316E+01 -0.31288682822E+02 -0.29471723310E+02  0.99565487480E+02  0.89596679469E+02 0.  0.
         23    2    1    2    0    0  0.61771496316E+01  0.31288682822E+02 -0.32724400323E+03  0.35154344504E+03  0.12440666078E+03 0.  0.
          5    1    3    3  502    0  0.25310470530E+00  0.31148208450E+02 -0.15419251835E+02  0.35073042053E+02  0.47000000000E+01 0. -1.
         -5    1    3    3    0  502 -0.64302543369E+01 -0.62436891273E+02 -0.14052471474E+02  0.64492445427E+02  0.47000000000E+01 0.  1.
          5    1    4    4  503    0  0.43516651001E+02 -0.32041674594E+02 -0.15454247609E+03  0.16378594183E+03  0.47000000000E+01 0. -1.
         -5    1    4    4    0  503 -0.37339501369E+02  0.63330357416E+02 -0.17270152714E+03  0.18775750321E+03  0.47000000000E+01 0.  1.
<mgrwt>
<rscale>  0 0.11913739E+03</rscale>
<asrwt>0</asrwt>
<pdfrwt beam="1">  1        2 0.62140358E-01 0.12842958E+03</pdfrwt>
<pdfrwt beam="2">  1       -2 0.72610158E-02 0.12842958E+03</pdfrwt>
<totfact> 0.82507504E+03</totfact>
</mgrwt>
</event>
<event>
 8    1  0.5224537E-004  0.1287437E+03  0.7546771E-02  0.1229667E+00
          1   -1    0    0  501    0  0.00000000000E+00  0.00000000000E+00  0.95263336943E+03  0.95263336943E+03  0.00000000000E+00 0. -1.
         -1   -1    0    0    0  501 -0.00000000000E+00 -0.00000000000E+00 -0.29157393407E+02  0.29157393407E+02  0.00000000000E+00 0.  1.
         23    2    1    2    0    0  0.59113099404E+02 -0.67648149939E+02  0.14936564733E+03  0.19719286215E+03  0.92218748467E+02 0.  0.
         23    2    1    2    0    0 -0.59113099404E+02  0.67648149939E+02  0.77411032869E+03  0.78459790069E+03  0.90974908993E+02 0.  0.
          5    1    4    4  502    0 -0.80546859395E+02  0.57367168702E+02  0.69002128445E+03  0.69708697563E+03  0.47000000000E+01 0. -1.
         -5    1    4    4    0  502  0.21433759991E+02  0.10280981237E+02  0.84089044240E+02  0.87510925054E+02  0.47000000000E+01 0.  1.
          5    1    3    3  503    0 -0.94247624789E+01 -0.19344713818E+02  0.94136994738E+02  0.96679407729E+02  0.47000000000E+01 0. -1.
         -5    1    3    3    0  503  0.68537861883E+02 -0.48303436121E+02  0.55228652597E+02  0.10051345442E+03  0.47000000000E+01 0.  1.
<mgrwt>
<rscale>  0 0.12852107E+03</rscale>
<asrwt>0</asrwt>
<pdfrwt beam="1">  1        1 0.14655896E+00 0.12874365E+03</pdfrwt>
<pdfrwt beam="2">  1       -1 0.44857536E-02 0.12874365E+03</pdfrwt>
<totfact> 0.35250927E+03</totfact>
</mgrwt>
</event>
<event>
 8    1  0.5224537E-004  0.1832230E+03  0.7546771E-02  0.1164788E+00
         -2   -1    0    0    0  501 -0.00000000000E+00  0.00000000000E+00  0.45924092157E+02  0.45924092157E+02  0.00000000000E+00 0.  1.
          2   -1    0    0  501    0  0.00000000000E+00 -0.00000000000E+00 -0.80734822844E+03  0.80734822844E+03  0.00000000000E+00 0. -1.
         23    2    1    2    0    0 -0.12696341887E+03 -0.89575375808E+02 -0.51262544675E+03  0.54428773879E+03  0.96544478146E+02 0.  0.
         23    2    1    2    0    0  0.12696341887E+03  0.89575375808E+02 -0.24879868953E+03  0.30898458180E+03  0.97093904024E+02 0.  0.
          5    1    3    3  502    0  0.58586102186E+01 -0.27294667397E+02 -0.15754146776E+03  0.16006475642E+03  0.47000000000E+01 0. -1.
         -5    1    4    4    0  503  0.17856661419E+02 -0.20056426389E+02 -0.25648426756E+02  0.37430634400E+02  0.47000000000E+01 0.  1.
          5    1    4    4  503    0  0.10910675745E+03  0.10963180220E+03 -0.22315026277E+03  0.27155394740E+03  0.47000000000E+01 0. -1.
         -5    1    3    3    0  502 -0.13282202909E+03 -0.62280708410E+02 -0.35508397899E+03  0.38422298238E+03  0.47000000000E+01 0.  1.
<mgrwt>
<rscale>  0 0.18315036E+03</rscale>
<asrwt>0</asrwt>
<pdfrwt beam="1">  1        2 0.12420741E+00 0.18322304E+03</pdfrwt>
<pdfrwt beam="2">  1       -2 0.70652454E-02 0.18322304E+03</pdfrwt>
<totfact> 0.39711535E+03</totfact>
</mgrwt>
</event>
<event>
 8    1  0.5224537E-004  0.1149891E+03  0.7546771E-02  0.1252383E+00
         -1   -1    0    0    0  501 -0.00000000000E+00  0.00000000000E+00  0.28902204775E+02  0.28902204775E+02  0.00000000000E+00 0.  1.
          1   -1    0    0  501    0  0.00000000000E+00 -0.00000000000E+00 -0.46652894241E+03  0.46652894241E+03  0.00000000000E+00 0. -1.
         23    2    1    2    0    0  0.63906793074E+02  0.21243754716E+02 -0.26645694724E+03  0.29020993590E+03  0.93204757639E+02 0.  0.
         23    2    1    2    0    0 -0.63906793074E+02 -0.21243754716E+02 -0.17116979039E+03  0.20522121129E+03  0.91001500550E+02 0.  0.
          5    1    3    3  502    0  0.20031275051E+02  0.54327858563E+02 -0.11141793140E+03  0.12565354604E+03  0.47000000000E+01 0. -1.
         -5    1    4    4    0  503 -0.21734733354E+02 -0.37598212393E+02 -0.21289470267E+02  0.48593783073E+02  0.47000000000E+01 0.  1.
          5    1    4    4  503    0 -0.42172059721E+02  0.16354457677E+02 -0.14988032013E+03  0.15662742821E+03  0.47000000000E+01 0. -1.
         -5    1    3    3    0  502  0.43875518023E+02 -0.33084103847E+02 -0.15503901585E+03  0.16455638986E+03  0.47000000000E+01 0.  1.
<mgrwt>
<rscale>  0 0.11454191E+03</rscale>
<asrwt>0</asrwt>
<pdfrwt beam="1">  1        1 0.71773669E-01 0.11498914E+03</pdfrwt>
<pdfrwt beam="2">  1       -1 0.44464939E-02 0.11498914E+03</pdfrwt>
<totfact> 0.97736064E+03</totfact>
</mgrwt>
</event>
<event>
 8    1  0.5224537E-004  0.1671695E+03  0.7546771E-02  0.1181023E+00
         -3   -1    0    0    0  501 -0.00000000000E+00  0.00000000000E+00  0.46850787500E+02  0.46850787500E+02  0.00000000000E+00 0.  1.
          3   -1    0    0  501    0  0.00000000000E+00 -0.00000000000E+00 -0.64162226471E+03  0.64162226471E+03  0.00000000000E+00 0. -1.
         23    2    1    2    0    0 -0.10295629375E+03  0.94792301759E+02 -0.39181447637E+03  0.42598619819E+03  0.91433463581E+02 0.  0.
         23    2    1    2    0    0  0.10295629375E+03 -0.94792301759E+02 -0.20295700084E+03  0.26248685402E+03  0.90123390126E+02 0.  0.
          5    1    4    4  502    0 -0.44950495176E+00 -0.48369706250E+02 -0.35350021275E+02  0.60096127508E+02  0.47000000000E+01 0. -1.
         -5    1    4    4    0  502  0.10340579870E+03 -0.46422595509E+02 -0.16760697957E+03  0.20239072651E+03  0.47000000000E+01 0.  1.
          5    1    3    3  503    0 -0.61583228199E+02  0.90307640519E+02 -0.35041517095E+03  0.36709786974E+03  0.47000000000E+01 0. -1.
         -5    1    3    3    0  503 -0.41373065548E+02  0.44846612394E+01 -0.41399305418E+02  0.58888328456E+02  0.47000000000E+01 0.  1.
<mgrwt>
<rscale>  0 0.16699103E+03</rscale>
<asrwt>0</asrwt>
<pdfrwt beam="1">  1        3 0.98711109E-01 0.16716955E+03</pdfrwt>
<pdfrwt beam="2">  1       -3 0.72078141E-02 0.16716955E+03</pdfrwt>
<totfact> 0.28272750E+02</totfact>
</mgrwt>
</event>
<event>
 8    1  0.5224537E-004  0.1286524E+03  0.7546771E-02  0.1229821E+00
          1   -1    0    0  501    0  0.00000000000E+00  0.00000000000E+00  0.89478588969E+02  0.89478588969E+02  0.00000000000E+00 0. -1.
         -1   -1    0    0    0  501 -0.00000000000E+00 -0.00000000000E+00 -0.18388777666E+03  0.18388777666E+03  0.00000000000E+00 0.  1.
         23    2    1    2    0    0 -0.14847371112E+01  0.91139956520E+02 -0.52072277982E+02  0.13792688991E+03  0.89462890111E+02 0.  0.
         23    2    1    2    0    0  0.14847371112E+01 -0.91139956520E+02 -0.42336909706E+02  0.13543947572E+03  0.90789545324E+02 0.  0.
          5    1    3    3  502    0  0.36845830249E+02  0.66378693389E+02 -0.11980481713E+02  0.77002390124E+02  0.47000000000E+01 0. -1.
         -5    1    4    4    0  503  0.38310927082E+02 -0.46202473867E+02  0.49144786062E+01  0.60403955378E+02  0.47000000000E+01 0.  1.
          5    1    4    4  503    0 -0.36826189971E+02 -0.44937482653E+02 -0.47251388312E+02  0.75035520338E+02  0.47000000000E+01 0. -1.
         -5    1    3    3    0  502 -0.38330567360E+02  0.24761263131E+02 -0.40091796269E+02  0.60924499785E+02  0.47000000000E+01 0.  1.
<mgrwt>
<rscale>  0 0.12841856E+03</rscale>
<asrwt>0</asrwt>
<pdfrwt beam="1">  1        1 0.13765937E-01 0.12865239E+03</pdfrwt>
<pdfrwt beam="2">  1       -1 0.28290427E-01 0.12865239E+03</pdfrwt>
<totfact> 0.44965642E+03</totfact>
</mgrwt>
</event>
<event>
 8    1  0.5224537E-004  0.9511317E+02  0.7546771E-02  0.1293104E+00
          3   -1    0    0  501    0  0.00000000000E+00  0.00000000000E+00  0.47085670002E+03  0.47085670002E+03  0.00000000000E+00 0. -1.
         -3   -1    0    0    0  501 -0.00000000000E+00 -0.00000000000E+00 -0.18678543242E+02  0.18678543242E+02  0.00000000000E+00 0.  1.
         23    2    1    2    0    0  0.10425618235E+02  0.20877283095E+01  0.24840032644E+03  0.26465323107E+03  0.90694864336E+02 0.  0.
         23    2    1    2    0    0 -0.10425618235E+02 -0.20877283095E+01  0.20377783034E+03  0.22488201219E+03  0.94516999232E+02 0.  0.
          5    1    3    3  502    0 -0.34934866682E+02 -0.18539640167E+02  0.87279830931E+02  0.95937594586E+02  0.47000000000E+01 0. -1.
         -5    1    3    3    0  502  0.45360484917E+02  0.20627368477E+02  0.16112049551E+03  0.16871563649E+03  0.47000000000E+01 0.  1.
          5    1    4    4  503    0  0.20721827762E+02 -0.18731548742E+02  0.17961358035E+03  0.18183342187E+03  0.47000000000E+01 0. -1.
         -5    1    4    4    0  503 -0.31147445997E+02  0.16643820432E+02  0.24164249990E+02  0.43048590317E+02  0.47000000000E+01 0.  1.
<mgrwt>
<rscale>  0 0.94149324E+02</rscale>
<asrwt>0</asrwt>
<pdfrwt beam="1">  1        3 0.72439484E-01 0.95113171E+02</pdfrwt>
<pdfrwt beam="2">  1       -3 0.28736224E-02 0.95113171E+02</pdfrwt>
<totfact> 0.21619951E+03</totfact>
</mgrwt>
</event>
<event>
 8    1  0.5224537E-004  0.9428614E+02  0.7546771E-02  0.1293472E+00
         -3   -1    0    0    0  501 -0.00000000000E+00  0.00000000000E+00  0.18125219916E+03  0.18125219916E+03  0.00000000000E+00 0.  1.
          3   -1    0    0  501    0  0.00000000000E+00 -0.00000000000E+00 -0.66505709123E+02  0.66505709123E+02  0.00000000000E+00 0. -1.
         23    2    1    2    0    0 -0.10801532020E+02  0.17030752735E+02 -0.74713555931E+01  0.93397688305E+02  0.90887773620E+02 0.  0.
         23    2    1    2    0    0  0.10801532020E+02 -0.17030752735E+02  0.12221784563E+03  0.15436021998E+03  0.92104050337E+02 0.  0.
          5    1    3    3  502    0  0.29066506385E+02  0.24739568996E+02 -0.28080810484E+02  0.47618588649E+02  0.47000000000E+01 0. -1.
         -5    1    3    3    0  502 -0.39868038405E+02 -0.77088162605E+01  0.20609454891E+02  0.45779099656E+02  0.47000000000E+01 0.  1.
          5    1    4    4  503    0  0.13652599043E+02 -0.53761507505E+02  0.59574317032E+02  0.81534547277E+02  0.47000000000E+01 0. -1.
         -5    1    4    4    0  503 -0.28510670226E+01  0.36730754770E+02  0.62643528596E+02  0.72825672699E+02  0.47000000000E+01 0.  1.
<mgrwt>
<rscale>  0 0.93987783E+02</rscale>
<asrwt>0</asrwt>
<pdfrwt beam="1">  1        3 0.10231648E-01 0.94286137E+02</pdfrwt>
<pdfrwt beam="2">  1       -3 0.27884954E-01 0.94286137E+02</pdfrwt>
<totfact> 0.18712367E+03</totfact>
</mgrwt>
</event>
<event>
 8    1  0.5224537E-004  0.1243895E+03  0.7546771E-02  0.1236330E+00
          2   -1    0    0  501    0  0.00000000000E+00  0.00000000000E+00  0.19963512574E+03  0.19963512574E+03  0.00000000000E+00 0. -1.
         -2   -1    0    0    0  501 -0.00000000000E+00 -0.00000000000E+00 -0.14669156210E+03  0.14669156210E+03  0.00000000000E+00 0.  1.
         23    2    1    2    0    0 -0.25460873953E+02  0.79766066051E+02 -0.92818455451E+02  0.15520316174E+03  0.91988446813E+02 0.  0.
         23    2    1    2    0    0  0.25460873953E+02 -0.79766066051E+02  0.14576201909E+03  0.19112352610E+03  0.90943689306E+02 0.  0.
          5    1    4    4  502    0 -0.76278341955E+01 -0.84519437176E+02  0.77731239143E+02  0.11517792607E+03  0.47000000000E+01 0. -1.
         -5    1    3    3    0  503 -0.56678139146E+02  0.55645843803E+02 -0.81484928211E+02  0.11388922212E+03  0.47000000000E+01 0.  1.
          5    1    3    3  503    0  0.31217265193E+02  0.24120222248E+02 -0.11333527239E+02  0.41313939622E+02  0.47000000000E+01 0. -1.
         -5    1    4    4    0  502  0.33088708148E+02  0.47533711251E+01  0.68030779947E+02  0.75945600032E+02  0.47000000000E+01 0.  1.
<mgrwt>
<rscale>  0 0.12419643E+03</rscale>
<asrwt>0</asrwt>
<pdfrwt beam="1">  1        2 0.30713096E-01 0.12438953E+03</pdfrwt>
<pdfrwt beam="2">  1       -2 0.22567933E-01 0.12438953E+03</pdfrwt>
<totfact> 0.28030692E+03</totfact>
</mgrwt>
</event>
<event>
 8    1  0.5224537E-004  0.1025309E+03  0.7546771E-02  0.1277814E+00
          1   -1    0    0  501    0  0.00000000000E+00  0.00000000000E+00  0.20505051706E+02  0.20505051706E+02  0.00000000000E+00 0. -1.
         -1   -1    0    0    0  501 -0.00000000000E+00 -0.00000000000E+00 -0.70927781605E+03  0.70927781605E+03  0.00000000000E+00 0.  1.
         23    2    1    2    0    0  0.33744550067E+02 -0.10872460065E+02 -0.54251501453E+03  0.55116617858E+03  0.90579856356E+02 0.  0.
         23    2    1    2    0    0 -0.33744550067E+02  0.10872460065E+02 -0.14625774981E+03  0.17861668917E+03  0.96206482228E+02 0.  0.
          5    1    3    3  502    0 -0.20114162573E+02  0.22643580679E+02 -0.24620703604E+03  0.24810744825E+03  0.47000000000E+01 0. -1.
         -5    1    3    3    0  502  0.53858712639E+02 -0.33516040744E+02 -0.29630797849E+03  0.30305873033E+03  0.47000000000E+01 0.  1.
          5    1    4    4  503    0 -0.65348689011E+02  0.18557235000E+02 -0.83236356206E+02  0.10754163436E+03  0.47000000000E+01 0. -1.
         -5    1    4    4    0  503  0.31604138944E+02 -0.76847749345E+01 -0.63021393607E+02  0.71075054811E+02  0.47000000000E+01 0.  1.
<mgrwt>
<rscale>  0 0.10118982E+03</rscale>
<asrwt>0</asrwt>
<pdfrwt beam="1">  1        1 0.31546231E-02 0.10253093E+03</pdfrwt>
<pdfrwt beam="2">  1       -1 0.10911967E+00 0.10253093E+03</pdfrwt>
<totfact> 0.24945507E+03</totfact>
</mgrwt>
</event>
<event>
 8    1  0.5224537E-004  0.1401831E+03  0.7546771E-02  0.1215175E+00
          1   -1    0    0  501    0  0.00000000000E+00  0.00000000000E+00  0.54672398282E+03  0.54672398282E+03  0.00000000000E+00 0. -1.
         -1   -1    0    0    0  501 -0.00000000000E+00 -0.00000000000E+00 -0.34773867744E+02  0.34773867744E+02  0.00000000000E+00 0.  1.
         23    2    1    2    0    0 -0.26534931695E+02 -0.94523636639E+02  0.29169767052E+03  0.32363380976E+03  0.10006243725E+03 0.  0.
         23    2    1    2    0    0  0.26534931695E+02  0.94523636639E+02  0.22025244455E+03  0.25786404080E+03  0.91344970984E+02 0.  0.
          5    1    4    4  502    0 -0.23811507460E+00  0.26432225509E+02  0.12077191682E+01  0.26875041018E+02  0.47000000000E+01 0. -1.
         -5    1    4    4    0  502  0.26773046770E+02  0.68091411131E+02  0.21904472538E+03  0.23098899978E+03  0.47000000000E+01 0.  1.
          5    1    3    3  503    0  0.53946863317E+01 -0.42214202878E+02  0.23859779854E+03  0.24240903662E+03  0.47000000000E+01 0. -1.
         -5    1    3    3    0  503 -0.31929618027E+02 -0.52309433761E+02  0.53099871984E+02  0.81224773146E+02  0.47000000000E+01 0.  1.
<mgrwt>
<rscale>  0 0.13863688E+03</rscale>
<asrwt>0</asrwt>
<pdfrwt beam="1">  1        1 0.84111376E-01 0.14018314E+03</pdfrwt>
<pdfrwt beam="2">  1       -1 0.53498262E-02 0.14018314E+03</pdfrwt>
<totfact> 0.61275543E+03</totfact>
</mgrwt>
</event>
<event>
 8    1  0.5224537E-004  0.1023825E+03  0.7546771E-02  0.1275542E+00
         -2   -1    0    0    0  501 -0.00000000000E+00  0.00000000000E+00  0.54528895569E+03  0.54528895569E+03  0.00000000000E+00 0.  1.
          2   -1    0    0  501    0  0.00000000000E+00 -0.00000000000E+00 -0.22994805555E+02  0.22994805555E+02  0.00000000000E+00 0. -1.
         23    2    1    2    0    0 -0.46466978733E+02 -0.16280711093E+01  0.14545027476E+03  0.17787060828E+03  0.91215898470E+02 0.  0.
         23    2    1    2    0    0  0.46466978733E+02  0.16280711093E+01  0.37684387537E+03  0.39041315297E+03  0.90825617938E+02 0.  0.
          5    1    3    3  502    0 -0.73734513958E+02 -0.59170931109E+01  0.99728892159E+02  0.12425672002E+03  0.47000000000E+01 0. -1.
         -5    1    4    4    0  503  0.34691542332E+02 -0.27427058471E+02  0.33488521497E+03  0.33782531558E+03  0.47000000000E+01 0.  1.
          5    1    4    4  503    0  0.11775436401E+02  0.29055129581E+02  0.41958660407E+02  0.52587837382E+02  0.47000000000E+01 0. -1.
         -5    1    3    3    0  502  0.27267535225E+02  0.42890220016E+01  0.45721382602E+02  0.53613888257E+02  0.47000000000E+01 0.  1.
<mgrwt>
<rscale>  0 0.10229547E+03</rscale>
<asrwt>0</asrwt>
<pdfrwt beam="1">  1        2 0.35376628E-02 0.10238247E+03</pdfrwt>
<pdfrwt beam="2">  1       -2 0.83890599E-01 0.10238247E+03</pdfrwt>
<totfact> 0.29912953E+03</totfact>
</mgrwt>
</event>
<event>
 8    1  0.5224537E-004  0.2018817E+03  0.7546771E-02  0.1148672E+00
          1   -1    0    0  501    0  0.00000000000E+00  0.00000000000E+00  0.37258227682E+03  0.37258227682E+03  0.00000000000E+00 0. -1.
         -1   -1    0    0    0  501 -0.00000000000E+00 -0.00000000000E+00 -0.11620158055E+03  0.11620158055E+03  0.00000000000E+00 0.  1.
         23    2    1    2    0    0  0.12750364681E+03 -0.12646792913E+03  0.19210977366E+03  0.27691840808E+03  0.86754380572E+02 0.  0.
         23    2    1    2    0    0 -0.12750364681E+03  0.12646792913E+03  0.64270922613E+02  0.21186544930E+03  0.92222015072E+02 0.  0.
          5    1    3    3  502    0  0.19522025098E+02 -0.56506661346E+02  0.22666005993E+02  0.64108892270E+02  0.47000000000E+01 0. -1.
         -5    1    3    3    0  502  0.10798162171E+03 -0.69961267787E+02  0.16944376767E+03  0.21280951581E+03  0.47000000000E+01 0.  1.
          5    1    4    4  503    0 -0.12179766253E+03  0.89614853874E+02  0.18154868178E+02  0.15237185393E+03  0.47000000000E+01 0. -1.
         -5    1    4    4    0  503 -0.57059842784E+01  0.36853075258E+02  0.46116054435E+02  0.59493595363E+02  0.47000000000E+01 0.  1.
<mgrwt>
<rscale>  0 0.20126932E+03</rscale>
<asrwt>0</asrwt>
<pdfrwt beam="1">  1        1 0.57320350E-01 0.20188169E+03</pdfrwt>
<pdfrwt beam="2">  1       -1 0.17877166E-01 0.20188169E+03</pdfrwt>
<totfact> 0.15982143E+03</totfact>
</mgrwt>
</event>
<event>
 8    1  0.5224537E-004  0.1025351E+03  0.7546771E-02  0.1278495E+00
         -1   -1    0    0    0  501 -0.00000000000E+00  0.00000000000E+00  0.41910739416E+03  0.41910739416E+03  0.00000000000E+00 0.  1.
          1   -1    0    0  501    0  0.00000000000E+00 -0.00000000000E+00 -0.24472618688E+02  0.24472618688E+02  0.00000000000E+00 0. -1.
         23    2    1    2    0    0 -0.13540863751E+02 -0.47598420596E+02  0.14717476133E+03  0.17571828728E+03  0.82265068378E+02 0.  0.
         23    2    1    2    0    0  0.13540863751E+02  0.47598420596E+02  0.24746001414E+03  0.26786172558E+03  0.89802454281E+02 0.  0.
          5    1    4    4  502    0  0.38354703303E+02 -0.95558976321E+01  0.10543259095E+03  0.11269658238E+03  0.47000000000E+01 0. -1.
         -5    1    4    4    0  502 -0.24813839552E+02  0.57154318228E+02  0.14202742319E+03  0.15516514320E+03  0.47000000000E+01 0.  1.
          5    1    3    3  503    0  0.12919335769E+02 -0.61872419353E+02  0.80737550151E+02  0.10264378947E+03  0.47000000000E+01 0. -1.
         -5    1    3    3    0  503 -0.26460199521E+02  0.14273998757E+02  0.66437211183E+02  0.73074497801E+02  0.47000000000E+01 0.  1.
<mgrwt>
<rscale>  0 0.10086145E+03</rscale>
<asrwt>0</asrwt>
<pdfrwt beam="1">  1        1 0.37650186E-02 0.10253509E+03</pdfrwt>
<pdfrwt beam="2">  1       -1 0.64478055E-01 0.10253509E+03</pdfrwt>
<totfact> 0.58160652E+03</totfact>
</mgrwt>
</event>
<event>
 8    1  0.5224537E-004  0.9568003E+02  0.7546771E-02  0.1292570E+00
         -1   -1    0    0    0  501 -0.00000000000E+00  0.00000000000E+00  0.97365609333E+02  0.97365609333E+02  0.00000000000E+00 0.  1.
          1   -1    0    0  501    0  0.00000000000E+00 -0.00000000000E+00 -0.89241715956E+02  0.89241715956E+02  0.00000000000E+00 0. -1.
         23    2    1    2    0    0  0.48191592273E+01 -0.68156563114E+01  0.19502226473E+00  0.90599334134E+02  0.90213767492E+02 0.  0.
         23    2    1    2    0    0 -0.48191592273E+01  0.68156563114E+01  0.79288711130E+01  0.96007991155E+02  0.95315213381E+02 0.  0.
          5    1    4    4  502    0  0.11367158763E+02  0.36153213974E+02 -0.27468440247E+02  0.47041177585E+02  0.47000000000E+01 0. -1.
         -5    1    4    4    0  502 -0.16186317990E+02 -0.29337557663E+02  0.35397311360E+02  0.48966813570E+02  0.47000000000E+01 0.  1.
          5    1    3    3  503    0 -0.19705763625E+02  0.14474110250E+02 -0.34693731362E+02  0.42703184698E+02  0.47000000000E+01 0. -1.
         -5    1    3    3    0  503  0.24524922852E+02 -0.21289766562E+02  0.34888753626E+02  0.47896149436E+02  0.47000000000E+01 0.  1.
<mgrwt>
<rscale>  0 0.94383692E+02</rscale>
<asrwt>0</asrwt>
<pdfrwt beam="1">  1        1 0.13729495E-01 0.95680026E+02</pdfrwt>
<pdfrwt beam="2">  1       -1 0.14979325E-01 0.95680026E+02</pdfrwt>
<totfact> 0.12215156E+04</totfact>
</mgrwt>
</event>
<event>
 8    1  0.5224537E-004  0.3219813E+03  0.7546771E-02  0.1074844E+00
         -3   -1    0    0    0  501 -0.00000000000E+00  0.00000000000E+00  0.50546863589E+03  0.50546863589E+03  0.00000000000E+00 0.  1.
          3   -1    0    0  501    0  0.00000000000E+00 -0.00000000000E+00 -0.24900185351E+03  0.24900185351E+03  0.00000000000E+00 0. -1.
         23    2    1    2    0    0  0.23823322821E+03  0.19602375313E+03  0.28751796119E+03  0.43099544646E+03  0.88938821942E+02 0.  0.
         23    2    1    2    0    0 -0.23823322821E+03 -0.19602375313E+03 -0.31051178813E+02  0.32347504294E+03  0.92149578849E+02 0.  0.
          5    1    3    3  502    0  0.14400840468E+02  0.49756625593E+02  0.31676638908E+02  0.60898320577E+02  0.47000000000E+01 0. -1.
         -5    1    3    3    0  502  0.22383238775E+03  0.14626712754E+03  0.25584132228E+03  0.37009712588E+03  0.47000000000E+01 0.  1.
          5    1    4    4  503    0 -0.21475740603E+03 -0.17861630109E+03  0.16407315026E+01  0.27937306324E+03  0.47000000000E+01 0. -1.
         -5    1    4    4    0  503 -0.23475822178E+02 -0.17407452037E+02 -0.32691910316E+02  0.44101979700E+02  0.47000000000E+01 0.  1.
<mgrwt>
<rscale>  0 0.32175497E+03</rscale>
<asrwt>0</asrwt>
<pdfrwt beam="1">  1        3 0.38307978E-01 0.32198125E+03</pdfrwt>
<pdfrwt beam="2">  1       -3 0.77764405E-01 0.32198125E+03</pdfrwt>
<totfact> 0.26845295E+01</totfact>
</mgrwt>
</event>
<event>
 8    1  0.5224537E-004  0.9191122E+02  0.7546771E-02  0.1299001E+00
          3   -1    0    0  501    0  0.00000000000E+00  0.00000000000E+00  0.11512836716E+03  0.11512836716E+03  0.00000000000E+00 0. -1.
         -3   -1    0    0    0  501 -0.00000000000E+00 -0.00000000000E+00 -0.72453108480E+02  0.72453108480E+02  0.00000000000E+00 0.  1.
         23    2    1    2    0    0 -0.13850294784E+01 -0.80193117198E+01  0.23501688205E+02  0.94868336922E+02  0.91550228480E+02 0.  0.
         23    2    1    2    0    0  0.13850294784E+01  0.80193117198E+01  0.19173570478E+02  0.92713138721E+02  0.90343082854E+02 0.  0.
          5    1    4    4  502    0 -0.98998990125E+01 -0.21207419836E+02  0.45591720549E+02  0.51463167792E+02  0.47000000000E+01 0. -1.
         -5    1    4    4    0  502  0.11284928491E+02  0.29226731556E+02 -0.26418150071E+02  0.41249970929E+02  0.47000000000E+01 0.  1.
          5    1    3    3  503    0 -0.35870325102E+02 -0.25332461265E+02  0.32663290390E+02  0.54930814264E+02  0.47000000000E+01 0. -1.
         -5    1    3    3    0  503  0.34485295623E+02  0.17313149545E+02 -0.91616021848E+01  0.39937522657E+02  0.47000000000E+01 0.  1.
<mgrwt>
<rscale>  0 0.91609147E+02</rscale>
<asrwt>0</asrwt>
<pdfrwt beam="1">  1        3 0.17712057E-01 0.91911218E+02</pdfrwt>
<pdfrwt beam="2">  1       -3 0.11146632E-01 0.91911218E+02</pdfrwt>
<totfact> 0.36054480E+03</totfact>
</mgrwt>
</event>
<event>
 8    1  0.5224537E-004  0.9867529E+02  0.7546771E-02  0.1288699E+00
          1   -1    0    0  501    0  0.00000000000E+00  0.00000000000E+00  0.47361896101E+02  0.47361896101E+02  0.00000000000E+00 0. -1.
         -1   -1    0    0    0  501 -0.00000000000E+00 -0.00000000000E+00 -0.22779264371E+03  0.22779264371E+03  0.00000000000E+00 0.  1.
         23    2    1    2    0    0  0.34207913115E+02  0.85883553394E+01 -0.27150073840E+02  0.92858689310E+02  0.81496432460E+02 0.  0.
         23    2    1    2    0    0 -0.34207913115E+02 -0.85883553394E+01 -0.15328067377E+03  0.18229585050E+03  0.92156773987E+02 0.  0.
          5    1    4    4  502    0  0.22485511676E+02 -0.13730445345E+02 -0.10227164657E+03  0.10571519785E+03  0.47000000000E+01 0. -1.
         -5    1    3    3    0  503 -0.55042079373E+01 -0.27224497424E+02  0.72659994033E+01  0.29092169262E+02  0.47000000000E+01 0.  1.
          5    1    3    3  503    0  0.39712121053E+02  0.35812852764E+02 -0.34416073243E+02  0.63766520048E+02  0.47000000000E+01 0. -1.
         -5    1    4    4    0  502 -0.56693424792E+02  0.51420900057E+01 -0.51009027195E+02  0.76580652645E+02  0.47000000000E+01 0.  1.
<mgrwt>
<rscale>  0 0.96108258E+02</rscale>
<asrwt>0</asrwt>
<pdfrwt beam="1">  1        1 0.72864456E-02 0.98675286E+02</pdfrwt>
<pdfrwt beam="2">  1       -1 0.35045022E-01 0.98675286E+02</pdfrwt>
<totfact> 0.71112827E+03</totfact>
</mgrwt>
</event>
<event>
 8    1  0.5224537E-004  0.1010912E+03  0.7546771E-02  0.1280196E+00
          1   -1    0    0  501    0  0.00000000000E+00  0.00000000000E+00  0.31604704529E+02  0.31604704529E+02  0.00000000000E+00 0. -1.
         -1   -1    0    0    0  501 -0.00000000000E+00 -0.00000000000E+00 -0.31955575771E+03  0.31955575771E+03  0.00000000000E+00 0.  1.
         23    2    1    2    0    0  0.25365923589E+02 -0.21696934416E+02 -0.11706217415E+03  0.15467053699E+03  0.95421356900E+02 0.  0.
         23    2    1    2    0    0 -0.25365923589E+02  0.21696934416E+02 -0.17088887902E+03  0.19648992524E+03  0.91055448524E+02 0.  0.
          5    1    4    4  502    0 -0.53301922923E+02 -0.76212786530E+01 -0.11732600747E+03  0.12917685902E+03  0.47000000000E+01 0. -1.
         -5    1    3    3    0  503 -0.19853060773E+02 -0.39152934835E+02 -0.86668068286E+02  0.97265309276E+02  0.47000000000E+01 0.  1.
          5    1    3    3  503    0  0.45218984362E+02  0.17456000420E+02 -0.30394105868E+02  0.57405227714E+02  0.47000000000E+01 0. -1.
         -5    1    4    4    0  502  0.27935999334E+02  0.29318213069E+02 -0.53562871551E+02  0.67313066229E+02  0.47000000000E+01 0.  1.
<mgrwt>
<rscale>  0 0.10004753E+03</rscale>
<asrwt>0</asrwt>
<pdfrwt beam="1">  1        1 0.48622619E-02 0.10109116E+03</pdfrwt>
<pdfrwt beam="2">  1       -1 0.49162428E-01 0.10109116E+03</pdfrwt>
<totfact> 0.67895060E+03</totfact>
</mgrwt>
</event>
<event>
 8    1  0.5224537E-004  0.1278472E+03  0.7546771E-02  0.1236449E+00
          2   -1    0    0  501    0  0.00000000000E+00  0.00000000000E+00  0.33986545775E+03  0.33986545775E+03  0.00000000000E+00 0.  1.
         -2   -1    0    0    0  501 -0.00000000000E+00 -0.00000000000E+00 -0.59678583885E+02  0.59678583885E+02  0.00000000000E+00 0. -1.
         23    2    1    2    0    0  0.43851140536E+02 -0.49358047312E+02  0.28278788379E+02  0.11705053806E+03  0.92422936697E+02 0.  0.
         23    2    1    2    0    0 -0.43851140536E+02  0.49358047312E+02  0.25190808548E+03  0.28249350357E+03  0.10947948058E+03 0.  0.
          5    1    4    4  502    0 -0.24619787691E+01  0.64495378986E+02  0.70278405781E+02  0.95534598806E+02  0.47000000000E+01 0. -1.
         -5    1    3    3    0  503  0.17872461648E+02  0.18134847067E+02  0.35807647845E+02  0.44187953197E+02  0.47000000000E+01 0.  1.
          5    1    3    3  503    0  0.25978678887E+02 -0.67492894379E+02 -0.75288594660E+01  0.72862584865E+02  0.47000000000E+01 0. -1.
         -5    1    4    4    0  502 -0.41389161767E+02 -0.15137331674E+02  0.18162967970E+03  0.18695890476E+03  0.47000000000E+01 0.  1.
<mgrwt>
<rscale>  0 0.12412144E+03</rscale>
<asrwt>0</asrwt>
<pdfrwt beam="1">  1        2 0.52286992E-01 0.12784716E+03</pdfrwt>
<pdfrwt beam="2">  1       -2 0.91813208E-02 0.12784716E+03</pdfrwt>
<totfact> 0.68965386E+03</totfact>
</mgrwt>
</event>
<event>
 8    1  0.5224537E-004  0.9288871E+02  0.7546771E-02  0.1300589E+00
         -1   -1    0    0    0  501 -0.00000000000E+00  0.00000000000E+00  0.42024974196E+02  0.42024974196E+02  0.00000000000E+00 0.  1.
          1   -1    0    0  501    0  0.00000000000E+00 -0.00000000000E+00 -0.36169652498E+03  0.36169652498E+03  0.00000000000E+00 0. -1.
         23    2    1    2    0    0  0.15039759542E+02  0.13758129603E+02 -0.16867507820E+02  0.86990381277E+02  0.82869373821E+02 0.  0.
         23    2    1    2    0    0 -0.15039759542E+02 -0.13758129603E+02 -0.30280404296E+03  0.31673111790E+03  0.90624677171E+02 0.  0.
          5    1    4    4  502    0 -0.44499802774E+02 -0.34196770868E+02 -0.19858462971E+03  0.20641607675E+03  0.47000000000E+01 0. -1.
         -5    1    4    4    0  502  0.29460043232E+02  0.20438641265E+02 -0.10421941325E+03  0.11031504115E+03  0.47000000000E+01 0.  1.
          5    1    3    3  503    0 -0.18723103452E+02  0.32108634799E+02 -0.27926536802E+02  0.46727941205E+02  0.47000000000E+01 0. -1.
         -5    1    3    3    0  503  0.33762862994E+02 -0.18350505196E+02  0.11059028982E+02  0.40262440072E+02  0.47000000000E+01 0.  1.
<mgrwt>
<rscale>  0 0.90940974E+02</rscale>
<asrwt>0</asrwt>
<pdfrwt beam="1">  1        1 0.55645620E-01 0.92888711E+02</pdfrwt>
<pdfrwt beam="2">  1       -1 0.64653805E-02 0.92888711E+02</pdfrwt>
<totfact> 0.76245965E+03</totfact>
</mgrwt>
</event>
<event>
 8    1  0.5224537E-004  0.1043583E+03  0.7546771E-02  0.1271582E+00
          2   -1    0    0  501    0  0.00000000000E+00  0.00000000000E+00  0.82651707175E+03  0.82651707175E+03  0.00000000000E+00 0. -1.
         -2   -1    0    0    0  501 -0.00000000000E+00 -0.00000000000E+00 -0.13414977248E+02  0.13414977248E+02  0.00000000000E+00 0.  1.
         23    2    1    2    0    0  0.41590553035E+02  0.30984645499E+02  0.46726451121E+03  0.47869210354E+03  0.90112064678E+02 0.  0.
         23    2    1    2    0    0 -0.41590553035E+02 -0.30984645499E+02  0.34583758330E+03  0.36123994546E+03  0.90558499417E+02 0.  0.
          5    1    4    4  502    0 -0.27654544952E+02 -0.63022130891E+02  0.22043547172E+03  0.23097716344E+03  0.47000000000E+01 0. -1.
         -5    1    4    4    0  502 -0.13936008083E+02  0.32037485391E+02  0.12540211158E+03  0.13026278202E+03  0.47000000000E+01 0.  1.
          5    1    3    3  503    0  0.56224613028E+02 -0.84419874335E+01  0.19553300796E+03  0.20368534916E+03  0.47000000000E+01 0. -1.
         -5    1    3    3    0  503 -0.14634059993E+02  0.39426632933E+02  0.27173150325E+03  0.27500675438E+03  0.47000000000E+01 0.  1.
<mgrwt>
<rscale>  0 0.10426142E+03</rscale>
<asrwt>0</asrwt>
<pdfrwt beam="1">  1        2 0.12715643E+00 0.10435835E+03</pdfrwt>
<pdfrwt beam="2">  1       -2 0.20638433E-02 0.10435835E+03</pdfrwt>
<totfact> 0.23238978E+04</totfact>
</mgrwt>
</event>
<event>
 8    1  0.5224537E-004  0.1917686E+03  0.7546771E-02  0.1157133E+00
          3   -1    0    0  501    0  0.00000000000E+00  0.00000000000E+00  0.83129458845E+02  0.83129458845E+02  0.00000000000E+00 0. -1.
         -3   -1    0    0    0  501 -0.00000000000E+00 -0.00000000000E+00 -0.48274929881E+03  0.48274929881E+03  0.00000000000E+00 0.  1.
         23    2    1    2    0    0 -0.10352813058E+03 -0.13294980222E+03 -0.28371841230E+03  0.34180656838E+03  0.89117164306E+02 0.  0.
         23    2    1    2    0    0  0.10352813058E+03  0.13294980222E+03 -0.11590142766E+03  0.22407218928E+03  0.91550430591E+02 0.  0.
          5    1    3    3  502    0 -0.88326344546E+01 -0.65170227300E+02 -0.58172011553E+02  0.87927509267E+02  0.47000000000E+01 0. -1.
         -5    1    4    4    0  503  0.53656929344E+02  0.17843834039E+02 -0.70689630488E+02  0.90645365786E+02  0.47000000000E+01 0.  1.
          5    1    4    4  503    0  0.49871201240E+02  0.11510596818E+03 -0.45211797174E+02  0.13342682349E+03  0.47000000000E+01 0. -1.
         -5    1    3    3    0  502 -0.94695496130E+02 -0.67779574917E+02 -0.22554640075E+03  0.25387905911E+03  0.47000000000E+01 0.  1.
<mgrwt>
<rscale>  0 0.19148056E+03</rscale>
<asrwt>0</asrwt>
<pdfrwt beam="1">  1        3 0.12789147E-01 0.19176862E+03</pdfrwt>
<pdfrwt beam="2">  1       -3 0.74269125E-01 0.19176862E+03</pdfrwt>
<totfact> 0.20779812E+02</totfact>
</mgrwt>
</event>
<event>
 8    1  0.5224537E-004  0.9250768E+02  0.7546771E-02  0.1299305E+00
          4   -1    0    0  501    0  0.00000000000E+00  0.00000000000E+00  0.20640871229E+02  0.20640871229E+02  0.00000000000E+00 0. -1.
         -4   -1    0    0    0  501 -0.00000000000E+00 -0.00000000000E+00 -0.70152930564E+03  0.70152930564E+03  0.00000000000E+00 0.  1.
         23    2    1    2    0    0 -0.16309832896E+02  0.24675813413E+00 -0.57413835073E+03  0.58091419879E+03  0.86950497684E+02 0.  0.
         23    2    1    2    0    0  0.16309832896E+02 -0.24675813413E+00 -0.10675008368E+03  0.14125597808E+03  0.91058220039E+02 0.  0.
          5    1    3    3  502    0  0.14131221167E+02 -0.37125784268E+02 -0.26798654060E+03  0.27095551519E+03  0.47000000000E+01 0. -1.
         -5    1    4    4    0  503  0.53744061060E+02  0.56163357252E+01 -0.65630480140E+02  0.85143509733E+02  0.47000000000E+01 0.  1.
          5    1    4    4  503    0 -0.37434228164E+02 -0.58630938593E+01 -0.41119603545E+02  0.56112468343E+02  0.47000000000E+01 0. -1.
         -5    1    3    3    0  502 -0.30441054062E+02  0.37372542402E+02 -0.30615181012E+03  0.30995868360E+03  0.47000000000E+01 0.  1.
<mgrwt>
<rscale>  0 0.91480603E+02</rscale>
<asrwt>0</asrwt>
<pdfrwt beam="1">  1        4 0.31755191E-02 0.92507681E+02</pdfrwt>
<pdfrwt beam="2">  1       -4 0.10792757E+00 0.92507681E+02</pdfrwt>
<totfact> 0.54028236E+02</totfact>
</mgrwt>
</event>
<event>
 8    1  0.5224537E-004  0.1312650E+03  0.7546771E-02  0.1227409E+00
          1   -1    0    0  501    0  0.00000000000E+00  0.00000000000E+00  0.15105484834E+03  0.15105484834E+03  0.00000000000E+00 0. -1.
         -1   -1    0    0    0  501 -0.00000000000E+00 -0.00000000000E+00 -0.15675740376E+03  0.15675740376E+03  0.00000000000E+00 0.  1.
         23    2    1    2    0    0 -0.87805140699E+02  0.34251004791E+02 -0.87041808208E+02  0.15750168336E+03  0.91365364456E+02 0.  0.
         23    2    1    2    0    0  0.87805140699E+02 -0.34251004791E+02  0.81339252790E+02  0.15031056874E+03  0.84227780263E+02 0.  0.
          5    1    4    4  502    0 -0.47407597339E+01 -0.32142809398E+02  0.13733384508E+02  0.35585542695E+02  0.47000000000E+01 0. -1.
         -5    1    4    4    0  502  0.92545900433E+02 -0.21081953929E+01  0.67605868283E+02  0.11472502604E+03  0.47000000000E+01 0. -1.
          5    1    3    3  503    0 -0.49744395068E+02  0.64844720960E+02 -0.59891399106E+02  0.10143181140E+03  0.47000000000E+01 0. -1.
         -5    1    3    3    0  503 -0.38060745631E+02 -0.30593716169E+02 -0.27150409102E+02  0.56069871958E+02  0.47000000000E+01 0.  1.
<mgrwt>
<rscale>  0 0.13003172E+03</rscale>
<asrwt>0</asrwt>
<pdfrwt beam="1">  1        1 0.23239207E-01 0.13126501E+03</pdfrwt>
<pdfrwt beam="2">  1       -1 0.24116524E-01 0.13126501E+03</pdfrwt>
<totfact> 0.29988340E+03</totfact>
</mgrwt>
</event>
<event>
 8    1  0.5224537E-004  0.9806027E+02  0.7546771E-02  0.1284808E+00
          1   -1    0    0  501    0  0.00000000000E+00  0.00000000000E+00  0.63156088635E+03  0.63156088635E+03  0.00000000000E+00 0. -1.
         -1   -1    0    0    0  501 -0.00000000000E+00 -0.00000000000E+00 -0.25430205608E+02  0.25430205608E+02  0.00000000000E+00 0.  1.
         23    2    1    2    0    0  0.29431549347E+02 -0.14693652398E+02  0.51161415942E+03  0.52079568374E+03  0.91635018240E+02 0.  0.
         23    2    1    2    0    0 -0.29431549347E+02  0.14693652398E+02  0.94516521322E+02  0.13619540822E+03  0.92378010904E+02 0.  0.
          5    1    4    4  502    0  0.25457517664E+02  0.25969843731E+02  0.59685417082E+02  0.70049675240E+02  0.47000000000E+01 0. -1.
         -5    1    4    4    0  502 -0.54889067010E+02 -0.11276191334E+02  0.34831104240E+02  0.66145732976E+02  0.47000000000E+01 0.  1.
          5    1    3    3  503    0 -0.78059580429E+01  0.26261894223E+02  0.64384046448E+02  0.70128564125E+02  0.47000000000E+01 0.  1.
         -5    1    3    3    0  503  0.37237507390E+02 -0.40955546621E+02  0.44723011297E+03  0.45066711962E+03  0.47000000000E+01 0. -1.
<mgrwt>
<rscale>  0 0.97884894E+02</rscale>
<asrwt>0</asrwt>
<pdfrwt beam="1">  1        1 0.97163202E-01 0.98060269E+02</pdfrwt>
<pdfrwt beam="2">  1       -1 0.39123398E-02 0.98060269E+02</pdfrwt>
<totfact> 0.78161208E+03</totfact>
</mgrwt>
</event>
<event>
 8    1  0.5224537E-004  0.9833361E+02  0.7546771E-02  0.1284367E+00
         -2   -1    0    0    0  501 -0.00000000000E+00  0.00000000000E+00  0.60826801789E+02  0.60826801789E+02  0.00000000000E+00 0.  1.
          2   -1    0    0  501    0  0.00000000000E+00 -0.00000000000E+00 -0.15920438136E+03  0.15920438136E+03  0.00000000000E+00 0. -1.
         23    2    1    2    0    0  0.30069585844E+02 -0.14425136457E+02 -0.61157772919E+02  0.11580056948E+03  0.92505319569E+02 0.  0.
         23    2    1    2    0    0 -0.30069585844E+02  0.14425136457E+02 -0.37219806651E+02  0.10423061367E+03  0.91468258232E+02 0.  0.
          5    1    4    4  502    0  0.56483414721E+01 -0.34091929238E+02 -0.24103300106E+02  0.42393660806E+02  0.47000000000E+01 0. -1.
         -5    1    4    4    0  502 -0.35717927316E+02  0.48517065695E+02 -0.13116506545E+02  0.61836952863E+02  0.47000000000E+01 0.  1.
          5    1    3    3  503    0  0.49580661196E+02 -0.33818665099E+02 -0.15293061626E+02  0.62112090672E+02  0.47000000000E+01 0. -1.
         -5    1    3    3    0  503 -0.19511075352E+02  0.19393528642E+02 -0.45864711293E+02  0.53688478806E+02  0.47000000000E+01 0.  1.
<mgrwt>
<rscale>  0 0.98088958E+02</rscale>
<asrwt>0</asrwt>
<pdfrwt beam="1">  1        2 0.24492981E-01 0.98333609E+02</pdfrwt>
<pdfrwt beam="2">  1       -2 0.93579696E-02 0.98333609E+02</pdfrwt>
<totfact> 0.14719038E+04</totfact>
</mgrwt>
</event>
<event>
 8    1  0.5224537E-004  0.2178576E+03  0.7546771E-02  0.1135549E+00
          2   -1    0    0  501    0  0.00000000000E+00  0.00000000000E+00  0.23253459780E+03  0.23253459780E+03  0.00000000000E+00 0. -1.
         -2   -1    0    0    0  501 -0.00000000000E+00 -0.00000000000E+00 -0.21119274705E+03  0.21119274705E+03  0.00000000000E+00 0.  1.
         23    2    1    2    0    0  0.19012382872E+03  0.63477912768E+02 -0.30806446211E+02  0.21971529456E+03  0.84553284262E+02 0.  0.
         23    2    1    2    0    0 -0.19012382872E+03 -0.63477912768E+02  0.52148296960E+02  0.22401205029E+03  0.85354778084E+02 0.  0.
          5    1    4    4  502    0 -0.12090350445E+03 -0.70665739109E+02  0.62627294189E+02  0.15347824618E+03  0.47000000000E+01 0. -1.
         -5    1    3    3    0  503  0.31378718349E+02  0.20999667097E+02 -0.39813953443E+02  0.55071325317E+02  0.47000000000E+01 0.  1.
          5    1    3    3  503    0  0.15874511037E+03  0.42478245671E+02  0.90075072321E+01  0.16464396924E+03  0.47000000000E+01 0. -1.
         -5    1    4    4    0  502 -0.69220324263E+02  0.71878263414E+01 -0.10478997229E+02  0.70533804105E+02  0.47000000000E+01 0.  1.
<mgrwt>
<rscale>  0 0.21777941E+03</rscale>
<asrwt>0</asrwt>
<pdfrwt beam="1">  1        2 0.35774554E-01 0.21785765E+03</pdfrwt>
<pdfrwt beam="2">  1       -2 0.32491192E-01 0.21785765E+03</pdfrwt>
<totfact> 0.12686892E+03</totfact>
</mgrwt>
</event>
<event>
 8    1  0.5224537E-004  0.9972715E+02  0.7546771E-02  0.1281157E+00
          2   -1    0    0  501    0  0.00000000000E+00  0.00000000000E+00  0.25975195357E+03  0.25975195357E+03  0.00000000000E+00 0. -1.
         -2   -1    0    0    0  501 -0.00000000000E+00 -0.00000000000E+00 -0.38274578358E+02  0.38274578358E+02  0.00000000000E+00 0.  1.
         23    2    1    2    0    0  0.42033814135E+02  0.11024970701E+01  0.10044727138E+03  0.14154561010E+03  0.90429245149E+02 0.  0.
         23    2    1    2    0    0 -0.42033814135E+02 -0.11024970701E+01  0.12103010382E+03  0.15648092183E+03  0.89832821587E+02 0.  0.
          5    1    4    4  502    0  0.23182354783E+02 -0.17962162747E+02  0.52208862191E+02  0.60065931734E+02  0.47000000000E+01 0. -1.
         -5    1    3    3    0  503  0.48214511773E+02  0.37485361369E+02  0.51244675548E+02  0.79861744499E+02  0.47000000000E+01 0.  1.
          5    1    3    3  503    0 -0.61806976379E+01 -0.36382864299E+02  0.49202595837E+02  0.61683865597E+02  0.47000000000E+01 0. -1.
         -5    1    4    4    0  502 -0.65216168918E+02  0.16859665677E+02  0.68821241633E+02  0.96414990095E+02  0.47000000000E+01 0.  1.
<mgrwt>
<rscale>  0 0.99591755E+02</rscale>
<asrwt>0</asrwt>
<pdfrwt beam="1">  1        2 0.39961838E-01 0.99727155E+02</pdfrwt>
<pdfrwt beam="2">  1       -2 0.58883968E-02 0.99727155E+02</pdfrwt>
<totfact> 0.17687260E+04</totfact>
</mgrwt>
</event>
<event>
 8    1  0.5224537E-004  0.1048720E+03  0.7546771E-02  0.1270778E+00
         -2   -1    0    0    0  501 -0.00000000000E+00  0.00000000000E+00  0.89014571524E+02  0.89014571524E+02  0.00000000000E+00 0.  1.
          2   -1    0    0  501    0  0.00000000000E+00 -0.00000000000E+00 -0.13771895169E+03  0.13771895169E+03  0.00000000000E+00 0. -1.
         23    2    1    2    0    0 -0.51858271252E+02 -0.12932337426E+02 -0.61839273672E+02  0.12104218620E+03  0.89278157596E+02 0.  0.
         23    2    1    2    0    0  0.51858271252E+02  0.12932337426E+02  0.13134893510E+02  0.10569133701E+03  0.90230857485E+02 0.  0.
          5    1    3    3  502    0  0.31154704811E+01 -0.35117312059E+02 -0.48420355545E+02  0.60079552209E+02  0.47000000000E+01 0. -1.
         -5    1    3    3    0  502 -0.54973741733E+02  0.22184974634E+02 -0.13418918127E+02  0.60962633993E+02  0.47000000000E+01 0.  1.
          5    1    4    4  503    0  0.21016985677E+02 -0.34705631783E+02 -0.13238101201E+02  0.42936370222E+02  0.47000000000E+01 0. -1.
         -5    1    4    4    0  503  0.30841285575E+02  0.47637969209E+02  0.26372994711E+02  0.62754966786E+02  0.47000000000E+01 0.  1.
<mgrwt>
<rscale>  0 0.10466674E+03</rscale>
<asrwt>0</asrwt>
<pdfrwt beam="1">  1        2 0.21187531E-01 0.10487199E+03</pdfrwt>
<pdfrwt beam="2">  1       -2 0.13694550E-01 0.10487199E+03</pdfrwt>
<totfact> 0.95313093E+03</totfact>
</mgrwt>
</event>
<event>
 8    1  0.5224537E-004  0.9988620E+02  0.7546771E-02  0.1281237E+00
         -1   -1    0    0    0  501 -0.00000000000E+00  0.00000000000E+00  0.33700070138E+03  0.33700070138E+03  0.00000000000E+00 0.  1.
          1   -1    0    0  501    0  0.00000000000E+00 -0.00000000000E+00 -0.34008635646E+02  0.34008635646E+02  0.00000000000E+00 0. -1.
         23    2    1    2    0    0 -0.30924565196E+02  0.20705656879E+02  0.82719960000E+02  0.12969134444E+03  0.92694121064E+02 0.  0.
         23    2    1    2    0    0  0.30924565196E+02 -0.20705656879E+02  0.22027210573E+03  0.24131799259E+03  0.91266204173E+02 0.  0.
          5    1    4    4  502    0 -0.57975627397E+01 -0.36122072678E+02  0.32028739438E+02  0.48850240718E+02  0.47000000000E+01 0. -1.
         -5    1    4    4    0  502  0.36722127935E+02  0.15416415799E+02  0.18824336629E+03  0.19246775187E+03  0.47000000000E+01 0.  1.
          5    1    3    3  503    0 -0.42593195111E+02 -0.23561480113E+02  0.62674337225E+02  0.79495195839E+02  0.47000000000E+01 0. -1.
         -5    1    3    3    0  503  0.11668629915E+02  0.44267136992E+02  0.20045622775E+02  0.50196148597E+02  0.47000000000E+01 0.  1.
<mgrwt>
<rscale>  0 0.99553626E+02</rscale>
<asrwt>0</asrwt>
<pdfrwt beam="1">  1        1 0.52320980E-02 0.99886200E+02</pdfrwt>
<pdfrwt beam="2">  1       -1 0.51846260E-01 0.99886200E+02</pdfrwt>
<totfact> 0.55769468E+03</totfact>
</mgrwt>
</event>
<event>
 8    1  0.5224537E-004  0.1172025E+03  0.7546771E-02  0.1251438E+00
         -2   -1    0    0    0  501 -0.00000000000E+00  0.00000000000E+00  0.18173375573E+02  0.18173375573E+02  0.00000000000E+00 0.  1.
          2   -1    0    0  501    0  0.00000000000E+00 -0.00000000000E+00 -0.70674778671E+03  0.70674778671E+03  0.00000000000E+00 0. -1.
         23    2    1    2    0    0  0.50668400426E+02  0.31700942407E+02 -0.35608956008E+03  0.37238380165E+03  0.91091626298E+02 0.  0.
         23    2    1    2    0    0 -0.50668400426E+02 -0.31700942407E+02 -0.33248485106E+03  0.35253736064E+03  0.10081754763E+03 0.  0.
          5    1    4    4  502    0 -0.38231558201E+02 -0.59113497432E+02 -0.29923267426E+03  0.30743835312E+03  0.47000000000E+01 0. -1.
         -5    1    4    4    0  502 -0.12436842225E+02  0.27412555025E+02 -0.33252176799E+02  0.45099007521E+02  0.47000000000E+01 0.  1.
          5    1    3    3  503    0  0.46718306248E+00  0.37465595237E+02 -0.26859459948E+03  0.27123612952E+03  0.47000000000E+01 0. -1.
         -5    1    3    3    0  503  0.50201217364E+02 -0.57646528299E+01 -0.87494960601E+02  0.10114767213E+03  0.47000000000E+01 0.  1.
<mgrwt>
<rscale>  0 0.11508229E+03</rscale>
<asrwt>0</asrwt>
<pdfrwt beam="1">  1        2 0.10873042E+00 0.11720245E+03</pdfrwt>
<pdfrwt beam="2">  1       -2 0.27959043E-02 0.11720245E+03</pdfrwt>
<totfact> 0.18264693E+04</totfact>
</mgrwt>
</event>
<event>
 8    1  0.5224537E-004  0.1239037E+03  0.7546771E-02  0.1239880E+00
         -1   -1    0    0    0  501 -0.00000000000E+00  0.00000000000E+00  0.29557523833E+02  0.29557523833E+02  0.00000000000E+00 0.  1.
          1   -1    0    0  501    0  0.00000000000E+00 -0.00000000000E+00 -0.71272877154E+03  0.71272877154E+03  0.00000000000E+00 0. -1.
         23    2    1    2    0    0  0.64678078100E+02  0.31538064235E+02 -0.55716634038E+03  0.57077705852E+03  0.10086732076E+03 0.  0.
         23    2    1    2    0    0 -0.64678078100E+02 -0.31538064235E+02 -0.12600490733E+03  0.17150923685E+03  0.91434557873E+02 0.  0.
          5    1    4    4  502    0 -0.19378760788E+02  0.96371378816E+01 -0.10393216191E+03  0.10626568155E+03  0.47000000000E+01 0. -1.
         -5    1    3    3    0  503  0.56327301061E+02 -0.23236915448E+02 -0.19457745577E+03  0.20394900191E+03  0.47000000000E+01 0.  1.
          5    1    3    3  503    0  0.83507770386E+01  0.54774979683E+02 -0.36258888461E+03  0.36682805661E+03  0.47000000000E+01 0. -1.
         -5    1    4    4    0  502 -0.45299317312E+02 -0.41175202117E+02 -0.22072745416E+02  0.65243555303E+02  0.47000000000E+01 0.  1.
<mgrwt>
<rscale>  0 0.12197145E+03</rscale>
<asrwt>0</asrwt>
<pdfrwt beam="1">  1        1 0.10965057E+00 0.12390367E+03</pdfrwt>
<pdfrwt beam="2">  1       -1 0.45473117E-02 0.12390367E+03</pdfrwt>
<totfact> 0.53714827E+03</totfact>
</mgrwt>
</event>
<event>
 8    1  0.5224537E-004  0.9426246E+02  0.7546771E-02  0.1295087E+00
         -1   -1    0    0    0  501 -0.00000000000E+00  0.00000000000E+00  0.50816791320E+03  0.50816791320E+03  0.00000000000E+00 0.  1.
          1   -1    0    0  501    0  0.00000000000E+00 -0.00000000000E+00 -0.16871439648E+02  0.16871439648E+02  0.00000000000E+00 0. -1.
         23    2    1    2    0    0 -0.11821404451E+02  0.14423735049E+02  0.26007738777E+03  0.27534418413E+03  0.88466843343E+02 0.  0.
         23    2    1    2    0    0  0.11821404451E+02 -0.14423735049E+02  0.23121908578E+03  0.24969516871E+03  0.92399252773E+02 0.  0.
          5    1    3    3  502    0 -0.23729556385E+02  0.42483664016E+02  0.21653399891E+03  0.22198427025E+03  0.47000000000E+01 0. -1.
         -5    1    4    4    0  503  0.18471785751E+02  0.19871820119E+02  0.20211940485E+03  0.20398637190E+03  0.47000000000E+01 0.  1.
          5    1    4    4  503    0 -0.66503813002E+01 -0.34295555168E+02  0.29099680926E+02  0.45708796809E+02  0.47000000000E+01 0. -1.
         -5    1    3    3    0  502  0.11908151934E+02 -0.28059928968E+02  0.43543388854E+02  0.53359913877E+02  0.47000000000E+01 0.  1.
<mgrwt>
<rscale>  0 0.93284514E+02</rscale>
<asrwt>0</asrwt>
<pdfrwt beam="1">  1        1 0.25956065E-02 0.94262462E+02</pdfrwt>
<pdfrwt beam="2">  1       -1 0.78179667E-01 0.94262462E+02</pdfrwt>
<totfact> 0.65843791E+03</totfact>
</mgrwt>
</event>
<event>
 8    1  0.5224537E-004  0.1080937E+03  0.7546771E-02  0.1269351E+00
         -2   -1    0    0    0  501 -0.00000000000E+00  0.00000000000E+00  0.25404428706E+02  0.25404428706E+02  0.00000000000E+00 0.  1.
          2   -1    0    0  501    0  0.00000000000E+00 -0.00000000000E+00 -0.47318226979E+03  0.47318226979E+03  0.00000000000E+00 0. -1.
         23    2    1    2    0    0  0.31031097183E+02  0.58961769406E+01 -0.12787370496E+03  0.16091390875E+03  0.92433260865E+02 0.  0.
         23    2    1    2    0    0 -0.31031097183E+02 -0.58961769406E+01 -0.31990413613E+03  0.33767278975E+03  0.10337583243E+03 0.  0.
          5    1    3    3  502    0 -0.12073659000E+02  0.39087935114E+02 -0.39693632911E+02  0.57195405469E+02  0.47000000000E+01 0. -1.
         -5    1    3    3    0  502  0.43104756183E+02 -0.33191758174E+02 -0.88180072047E+02  0.10371850328E+03  0.47000000000E+01 0.  1.
          5    1    4    4  503    0 -0.92713021862E+01  0.47251076173E+02 -0.11361143693E+03  0.12348388496E+03  0.47000000000E+01 0. -1.
         -5    1    4    4    0  503 -0.21759794997E+02 -0.53147253114E+02 -0.20629269920E+03  0.21418890479E+03  0.47000000000E+01 0.  1.
<mgrwt>
<rscale>  0 0.10539089E+03</rscale>
<asrwt>0</asrwt>
<pdfrwt beam="1">  1        2 0.72797269E-01 0.10809374E+03</pdfrwt>
<pdfrwt beam="2">  1       -2 0.39083738E-02 0.10809374E+03</pdfrwt>
<totfact> 0.17411749E+04</totfact>
</mgrwt>
</event>
<event>
 8    1  0.5224537E-004  0.9554460E+02  0.7546771E-02  0.1290217E+00
          2   -1    0    0  501    0  0.00000000000E+00  0.00000000000E+00  0.56024009635E+03  0.56024009635E+03  0.00000000000E+00 0. -1.
         -2   -1    0    0    0  501 -0.00000000000E+00 -0.00000000000E+00 -0.31184561417E+02  0.31184561417E+02  0.00000000000E+00 0.  1.
         23    2    1    2    0    0 -0.15747306738E+02  0.24160719486E+02  0.46907446560E+03  0.47861287152E+03  0.90596404288E+02 0.  0.
         23    2    1    2    0    0  0.15747306738E+02 -0.24160719486E+02  0.59981069334E+02  0.11281178625E+03  0.91088157314E+02 0.  0.
          5    1    4    4  502    0 -0.30786280183E+02 -0.26614313566E+02  0.50500904175E+02  0.65027287015E+02  0.47000000000E+01 0. -1.
         -5    1    4    4    0  502  0.46533586921E+02  0.24535940795E+01  0.94801651587E+01  0.47784499234E+02  0.47000000000E+01 0.  1.
          5    1    3    3  503    0  0.22985127952E+02 -0.23312242482E+02  0.18955202903E+03  0.19241579578E+03  0.47000000000E+01 0.  1.
         -5    1    3    3    0  503 -0.38732434690E+02  0.47472961969E+02  0.27952243657E+03  0.28619707574E+03  0.47000000000E+01 0. -1.
<mgrwt>
<rscale>  0 0.95427208E+02</rscale>
<asrwt>0</asrwt>
<pdfrwt beam="1">  1        2 0.86190776E-01 0.95544599E+02</pdfrwt>
<pdfrwt beam="2">  1       -2 0.47976253E-02 0.95544599E+02</pdfrwt>
<totfact> 0.10580259E+04</totfact>
</mgrwt>
</event>
<event>
 8    1  0.5224537E-004  0.1195536E+03  0.7546771E-02  0.1245657E+00
          1   -1    0    0  501    0  0.00000000000E+00  0.00000000000E+00  0.17443475936E+03  0.17443475936E+03  0.00000000000E+00 0. -1.
         -1   -1    0    0    0  501 -0.00000000000E+00 -0.00000000000E+00 -0.15100839348E+03  0.15100839348E+03  0.00000000000E+00 0.  1.
         23    2    1    2    0    0 -0.32104055568E+02 -0.69223360898E+02  0.12394730273E+03  0.16924607023E+03  0.86364080247E+02 0.  0.
         23    2    1    2    0    0  0.32104055568E+02  0.69223360898E+02 -0.10052093685E+03  0.15619708260E+03  0.92035459422E+02 0.  0.
          5    1    3    3  502    0 -0.42056558345E+02 -0.38928026536E+01  0.77328495583E+02  0.88236581085E+02  0.47000000000E+01 0. -1.
         -5    1    4    4    0  503  0.58849880771E+02  0.55129636805E+02 -0.44137918501E+02  0.92047982979E+02  0.47000000000E+01 0.  1.
          5    1    4    4  503    0 -0.26745825203E+02  0.14093724093E+02 -0.56383018349E+02  0.64149099626E+02  0.47000000000E+01 0. -1.
         -5    1    3    3    0  502  0.99525027771E+01 -0.65330558245E+02  0.46618807147E+02  0.81009489147E+02  0.47000000000E+01 0.  1.
<mgrwt>
<rscale>  0 0.11846147E+03</rscale>
<asrwt>0</asrwt>
<pdfrwt beam="1">  1        1 0.26836117E-01 0.11955363E+03</pdfrwt>
<pdfrwt beam="2">  1       -1 0.23232061E-01 0.11955363E+03</pdfrwt>
<totfact> 0.26493262E+03</totfact>
</mgrwt>
</event>
<event>
 8    1  0.5224537E-004  0.9213039E+02  0.7546771E-02  0.1299553E+00
          3   -1    0    0  501    0  0.00000000000E+00  0.00000000000E+00  0.90512124338E+02  0.90512124338E+02  0.00000000000E+00 0. -1.
         -3   -1    0    0    0  501 -0.00000000000E+00 -0.00000000000E+00 -0.19432344504E+03  0.19432344504E+03  0.00000000000E+00 0.  1.
         23    2    1    2    0    0 -0.28138728219E+01  0.17002521274E+02  0.51653871302E+02  0.10562258817E+03  0.90504171736E+02 0.  0.
         23    2    1    2    0    0  0.28138728219E+01 -0.17002521274E+02 -0.15546519200E+03  0.17921298121E+03  0.87469212287E+02 0.  0.
          5    1    3    3  502    0 -0.21353711059E+02  0.41537810697E+02  0.57228853388E+02  0.74017581382E+02  0.47000000000E+01 0. -1.
         -5    1    4    4    0  503 -0.13661351976E+02 -0.45319606825E+02 -0.12680093829E+03  0.13542919646E+03  0.47000000000E+01 0.  1.
          5    1    4    4  503    0  0.16475224798E+02  0.28317085551E+02 -0.28664253710E+02  0.43783784750E+02  0.47000000000E+01 0. -1.
         -5    1    3    3    0  502  0.18539838237E+02 -0.24535289423E+02 -0.55749820855E+01  0.31605006790E+02  0.47000000000E+01 0.  1.
<mgrwt>
<rscale>  0 0.91376286E+02</rscale>
<asrwt>0</asrwt>
<pdfrwt beam="1">  1        3 0.13924942E-01 0.92130390E+02</pdfrwt>
<pdfrwt beam="2">  1       -3 0.29895915E-01 0.92130390E+02</pdfrwt>
<totfact> 0.98330801E+02</totfact>
</mgrwt>
</event>
<event>
 8    1  0.5224537E-004  0.9723584E+02  0.7546771E-02  0.1287918E+00
          1   -1    0    0  501    0  0.00000000000E+00  0.00000000000E+00  0.29435853786E+02  0.29435853786E+02  0.00000000000E+00 0. -1.
         -1   -1    0    0    0  501 -0.00000000000E+00 -0.00000000000E+00 -0.44568477282E+03  0.44568477282E+03  0.00000000000E+00 0.  1.
         23    2    1    2    0    0  0.44099747043E+00 -0.18182451357E+02 -0.75300270292E+02  0.12057755579E+03  0.92401408201E+02 0.  0.
         23    2    1    2    0    0 -0.44099747043E+00  0.18182451357E+02 -0.34094864874E+03  0.35454307082E+03  0.95519694152E+02 0.  0.
          5    1    3    3  502    0 -0.17918891030E+02  0.28037937277E+02 -0.44667699540E+01  0.33900658051E+02  0.47000000000E+01 0. -1.
         -5    1    3    3    0  502  0.18359888500E+02 -0.46220388633E+02 -0.70833500338E+02  0.86676897737E+02  0.47000000000E+01 0.  1.
          5    1    4    4  503    0 -0.10448518894E+02  0.51983582116E+02 -0.12771787687E+03  0.13836694124E+03  0.47000000000E+01 0. -1.
         -5    1    4    4    0  503  0.10007521424E+02 -0.33801130759E+02 -0.21323077187E+03  0.21617612957E+03  0.47000000000E+01 0.  1.
<mgrwt>
<rscale>  0 0.96461270E+02</rscale>
<asrwt>0</asrwt>
<pdfrwt beam="1">  1        1 0.45285929E-02 0.97235837E+02</pdfrwt>
<pdfrwt beam="2">  1       -1 0.68566887E-01 0.97235837E+02</pdfrwt>
<totfact> 0.39992787E+03</totfact>
</mgrwt>
</event>
<event>
 8    1  0.5224537E-004  0.1169435E+03  0.7546771E-02  0.1259534E+00
         -1   -1    0    0    0  501 -0.00000000000E+00  0.00000000000E+00  0.13787025447E+03  0.13787025447E+03  0.00000000000E+00 0.  1.
          1   -1    0    0  501    0  0.00000000000E+00 -0.00000000000E+00 -0.82409311332E+02  0.82409311332E+02  0.00000000000E+00 0. -1.
         23    2    1    2    0    0 -0.41364996016E+01  0.18561591175E+02  0.42430087018E+02  0.10261229490E+03  0.91473097047E+02 0.  0.
         23    2    1    2    0    0  0.41364996016E+01 -0.18561591175E+02  0.13030856116E+02  0.11766727090E+03  0.11538691492E+03 0.  0.
          5    1    4    4  502    0  0.40231222829E+02 -0.10181340159E+02 -0.36613012004E+02  0.55541098528E+02  0.47000000000E+01 0. -1.
         -5    1    3    3    0  503 -0.23184758612E+02  0.47651944754E+02  0.41566212815E+02  0.67513560997E+02  0.47000000000E+01 0.  1.
          5    1    3    3  503    0  0.19048259010E+02 -0.29090353579E+02  0.86387420321E+00  0.35098733899E+02  0.47000000000E+01 0. -1.
         -5    1    4    4    0  502 -0.36094723227E+02 -0.83802510161E+01  0.49643868120E+02  0.62126172374E+02  0.47000000000E+01 0.  1.
<mgrwt>
<rscale>  0 0.11056113E+03</rscale>
<asrwt>0</asrwt>
<pdfrwt beam="1">  1        1 0.12678356E-01 0.11694351E+03</pdfrwt>
<pdfrwt beam="2">  1       -1 0.21210808E-01 0.11694351E+03</pdfrwt>
<totfact> 0.79603202E+03</totfact>
</mgrwt>
</event>
<event>
 8    1  0.5224537E-004  0.1290876E+03  0.7546771E-02  0.1238018E+00
         -2   -1    0    0    0  501 -0.00000000000E+00  0.00000000000E+00  0.46787127576E+02  0.46787127576E+02  0.00000000000E+00 0.  1.
          2   -1    0    0  501    0  0.00000000000E+00 -0.00000000000E+00 -0.30338448764E+03  0.30338448764E+03  0.00000000000E+00 0. -1.
         23    2    1    2    0    0  0.54825982977E+01 -0.49589333580E+02 -0.92131571501E+02  0.14109599043E+03  0.94502334151E+02 0.  0.
         23    2    1    2    0    0 -0.54825982977E+01  0.49589333580E+02 -0.16446578856E+03  0.20907562478E+03  0.11905654279E+03 0.  0.
          5    1    4    4  502    0  0.28503405795E+02  0.75231501270E+02 -0.75932151988E+02  0.11072490520E+03  0.47000000000E+01 0. -1.
         -5    1    4    4    0  502 -0.33986004093E+02 -0.25642167691E+02 -0.88533636576E+02  0.98350719588E+02  0.47000000000E+01 0.  1.
          5    1    3    3  503    0 -0.34806261581E+02 -0.58700323837E+01 -0.68002887924E+02  0.76762073262E+02  0.47000000000E+01 0. -1.
         -5    1    3    3    0  503  0.40288859879E+02 -0.43719301196E+02 -0.24128683577E+02  0.64333917171E+02  0.47000000000E+01 0.  1.
<mgrwt>
<rscale>  0 0.12313204E+03</rscale>
<asrwt>0</asrwt>
<pdfrwt beam="1">  1        2 0.46674535E-01 0.12908765E+03</pdfrwt>
<pdfrwt beam="2">  1       -2 0.71980199E-02 0.12908765E+03</pdfrwt>
<totfact> 0.11332404E+04</totfact>
</mgrwt>
</event>
<event>
 8    1  0.5224537E-004  0.9368599E+02  0.7546771E-02  0.1294933E+00
          2   -1    0    0  501    0  0.00000000000E+00  0.00000000000E+00  0.61033132212E+03  0.61033132212E+03  0.00000000000E+00 0. -1.
         -2   -1    0    0    0  501 -0.00000000000E+00 -0.00000000000E+00 -0.14184113806E+02  0.14184113806E+02  0.00000000000E+00 0.  1.
         23    2    1    2    0    0  0.81892351197E+00 -0.14361109651E+02  0.30713671079E+03  0.32110749465E+03  0.92575114875E+02 0.  0.
         23    2    1    2    0    0 -0.81892351197E+00  0.14361109651E+02  0.28901049752E+03  0.30340794128E+03  0.91227183716E+02 0.  0.
          5    1    3    3  502    0  0.14458155627E+02  0.21376302088E+02  0.25461666150E+03  0.25596429217E+03  0.47000000000E+01 0. -1.
         -5    1    4    4    0  503  0.27134920432E+02 -0.29050746166E+02  0.11081936596E+03  0.11782729579E+03  0.47000000000E+01 0.  1.
          5    1    4    4  503    0 -0.27953843944E+02  0.43411855816E+02  0.17819113155E+03  0.18558064549E+03  0.47000000000E+01 0. -1.
         -5    1    3    3    0  502 -0.13639232115E+02 -0.35737411738E+02  0.52520049298E+02  0.65143202475E+02  0.47000000000E+01 0.  1.
<mgrwt>
<rscale>  0 0.93351268E+02</rscale>
<asrwt>0</asrwt>
<pdfrwt beam="1">  1        2 0.93897106E-01 0.93685986E+02</pdfrwt>
<pdfrwt beam="2">  1       -2 0.21821718E-02 0.93685986E+02</pdfrwt>
<totfact> 0.30339674E+04</totfact>
</mgrwt>
</event>
<event>
 8    1  0.5224537E-004  0.1005957E+03  0.7546771E-02  0.1280210E+00
          1   -1    0    0  501    0  0.00000000000E+00  0.00000000000E+00  0.45930013625E+03  0.45930013625E+03  0.00000000000E+00 0. -1.
         -1   -1    0    0    0  501 -0.00000000000E+00 -0.00000000000E+00 -0.31508470736E+02  0.31508470736E+02  0.00000000000E+00 0.  1.
         23    2    1    2    0    0 -0.35747324400E+02  0.26189624208E+02  0.77576381683E+02  0.12703379239E+03  0.90309034957E+02 0.  0.
         23    2    1    2    0    0  0.35747324400E+02 -0.26189624208E+02  0.35021528383E+03  0.36377481460E+03  0.87849889535E+02 0.  0.
          5    1    3    3  502    0 -0.19593449539E+02  0.52073184590E+02  0.78282745321E+02  0.96155072842E+02  0.47000000000E+01 0. -1.
         -5    1    3    3    0  502 -0.16153874861E+02 -0.25883560382E+02 -0.70636363812E+00  0.30878719544E+02  0.47000000000E+01 0.  1.
          5    1    4    4  503    0 -0.22205399104E+02 -0.24066314628E+02  0.19940779187E+03  0.20213318557E+03  0.47000000000E+01 0. -1.
         -5    1    4    4    0  503  0.57952723504E+02 -0.21233095799E+01  0.15080749196E+03  0.16164162903E+03  0.47000000000E+01 0.  1.
<mgrwt>
<rscale>  0 0.10004067E+03</rscale>
<asrwt>0</asrwt>
<pdfrwt beam="1">  1        1 0.70661554E-01 0.10059567E+03</pdfrwt>
<pdfrwt beam="2">  1       -1 0.48474574E-02 0.10059567E+03</pdfrwt>
<totfact> 0.86964925E+03</totfact>
</mgrwt>
</event>
<event>
 8    1  0.5224537E-004  0.1131041E+03  0.7546771E-02  0.1257367E+00
         -2   -1    0    0    0  501 -0.00000000000E+00  0.00000000000E+00  0.54068787079E+02  0.54068787079E+02  0.00000000000E+00 0.  1.
          2   -1    0    0  501    0  0.00000000000E+00 -0.00000000000E+00 -0.23033057481E+03  0.23033057481E+03  0.00000000000E+00 0. -1.
         23    2    1    2    0    0 -0.28288708719E+01 -0.55268858371E+02 -0.11062401032E+03  0.15820937552E+03  0.98640182609E+02 0.  0.
         23    2    1    2    0    0  0.28288708719E+01  0.55268858371E+02 -0.65637777409E+02  0.12618998637E+03  0.92482136770E+02 0.  0.
          5    1    4    4  502    0 -0.67103146866E+01  0.34243490254E+02 -0.87331571180E+02  0.94162297512E+02  0.47000000000E+01 0. -1.
         -5    1    4    4    0  502  0.95391855586E+01  0.21025368118E+02  0.21693793771E+02  0.32027688861E+02  0.47000000000E+01 0.  1.
          5    1    3    3  503    0 -0.45635887827E+02 -0.51059262669E+02 -0.78752823320E+02  0.10446903724E+03  0.47000000000E+01 0. -1.
         -5    1    3    3    0  503  0.42807016955E+02 -0.42095957023E+01 -0.31871187005E+02  0.53740338272E+02  0.47000000000E+01 0.  1.
<mgrwt>
<rscale>  0 0.11174778E+03</rscale>
<asrwt>0</asrwt>
<pdfrwt beam="1">  1        2 0.35435474E-01 0.11310409E+03</pdfrwt>
<pdfrwt beam="2">  1       -2 0.83182748E-02 0.11310409E+03</pdfrwt>
<totfact> 0.12016502E+04</totfact>
</mgrwt>
</event>
<event>
 8    1  0.5224537E-004  0.9438882E+02  0.7546771E-02  0.1292977E+00
         -2   -1    0    0    0  501 -0.00000000000E+00  0.00000000000E+00  0.24871516114E+02  0.24871516114E+02  0.00000000000E+00 0.  1.
          2   -1    0    0  501    0  0.00000000000E+00 -0.00000000000E+00 -0.44460803826E+03  0.44460803826E+03  0.00000000000E+00 0. -1.
         23    2    1    2    0    0 -0.17296767650E+02 -0.13666749801E+02 -0.31434287803E+03  0.32799785872E+03  0.91023030801E+02 0.  0.
         23    2    1    2    0    0  0.17296767650E+02  0.13666749801E+02 -0.10539364412E+03  0.14148169565E+03  0.91778492926E+02 0.  0.
          5    1    4    4  502    0 -0.24267947506E+02  0.36319642489E+02 -0.68074556595E+02  0.81020275007E+02  0.47000000000E+01 0. -1.
         -5    1    4    4    0  502  0.41564715156E+02 -0.22652892688E+02 -0.37319087520E+02  0.60461420646E+02  0.47000000000E+01 0.  1.
          5    1    3    3  503    0 -0.46610748629E+02  0.17747233016E+02 -0.15483813888E+03  0.16274048489E+03  0.47000000000E+01 0. -1.
         -5    1    3    3    0  503  0.29313980979E+02 -0.31413982817E+02 -0.15950473915E+03  0.16525737384E+03  0.47000000000E+01 0.  1.
<mgrwt>
<rscale>  0 0.94204684E+02</rscale>
<asrwt>0</asrwt>
<pdfrwt beam="1">  1        2 0.68401235E-01 0.94388823E+02</pdfrwt>
<pdfrwt beam="2">  1       -2 0.38263872E-02 0.94388823E+02</pdfrwt>
<totfact> 0.18960283E+04</totfact>
</mgrwt>
</event>
<event>
 8    1  0.5224537E-004  0.9418095E+02  0.7546771E-02  0.1293270E+00
          2   -1    0    0  501    0  0.00000000000E+00  0.00000000000E+00  0.67582188886E+03  0.67582188886E+03  0.00000000000E+00 0. -1.
         -2   -1    0    0    0  501 -0.00000000000E+00 -0.00000000000E+00 -0.22510979339E+02  0.22510979339E+02  0.00000000000E+00 0.  1.
         23    2    1    2    0    0  0.12132424652E+02 -0.19363639234E+01  0.10007183470E+03  0.13713457457E+03  0.92954689011E+02 0.  0.
         23    2    1    2    0    0 -0.12132424652E+02  0.19363639234E+01  0.55323907482E+03  0.56119829363E+03  0.93376151293E+02 0.  0.
          5    1    4    4  502    0 -0.34429751246E+02 -0.34948687263E+02  0.34419172296E+03  0.34770224427E+03  0.47000000000E+01 0. -1.
         -5    1    4    4    0  502  0.22297326594E+02  0.36885051186E+02  0.20904735185E+03  0.21349604936E+03  0.47000000000E+01 0.  1.
          5    1    3    3  503    0 -0.15709453717E+02 -0.38578233246E+02  0.71145216795E+02  0.82576018851E+02  0.47000000000E+01 0. -1.
         -5    1    3    3    0  503  0.27841878369E+02  0.36641869323E+02  0.28926617902E+02  0.54558555717E+02  0.47000000000E+01 0.  1.
<mgrwt>
<rscale>  0 0.94076312E+02</rscale>
<asrwt>0</asrwt>
<pdfrwt beam="1">  1        2 0.10397258E+00 0.94180947E+02</pdfrwt>
<pdfrwt beam="2">  1       -2 0.34632281E-02 0.94180947E+02</pdfrwt>
<totfact> 0.13823320E+04</totfact>
</mgrwt>
</event>
<event>
 8    1  0.5224537E-004  0.9779778E+02  0.7546771E-02  0.1285924E+00
         -2   -1    0    0    0  501 -0.00000000000E+00  0.00000000000E+00  0.88744438143E+01  0.88744438143E+01  0.00000000000E+00 0.  1.
          2   -1    0    0  501    0  0.00000000000E+00 -0.00000000000E+00 -0.11983382872E+04  0.11983382872E+04  0.00000000000E+00 0. -1.
         23    2    1    2    0    0 -0.36818818795E+02 -0.22717759681E+01 -0.80505041478E+03  0.81096891147E+03  0.90573829903E+02 0.  0.
         23    2    1    2    0    0  0.36818818795E+02  0.22717759681E+01 -0.38441342861E+03  0.39624381954E+03  0.88739472867E+02 0.  0.
          5    1    3    3  502    0 -0.54541832643E+02 -0.31215966340E+02 -0.48049141491E+03  0.48460637415E+03  0.47000000000E+01 0. -1.
         -5    1    3    3    0  502  0.17723013848E+02  0.28944190371E+02 -0.32455899986E+03  0.32636253732E+03  0.47000000000E+01 0.  1.
          5    1    4    4  503    0 -0.23259855336E+02 -0.13955324520E+02 -0.61871275119E+02  0.67719396317E+02  0.47000000000E+01 0. -1.
         -5    1    4    4    0  503  0.60078674131E+02  0.16227100488E+02 -0.32254215349E+03  0.32852442323E+03  0.47000000000E+01 0.  1.
<mgrwt>
<rscale>  0 0.97370897E+02</rscale>
<asrwt>0</asrwt>
<pdfrwt beam="1">  1        2 0.18435968E+00 0.97797776E+02</pdfrwt>
<pdfrwt beam="2">  1       -2 0.13652995E-02 0.97797776E+02</pdfrwt>
<totfact> 0.25216776E+04</totfact>
</mgrwt>
</event>
<event>
 8    1  0.5224537E-004  0.1138284E+03  0.7546771E-02  0.1253944E+00
          2   -1    0    0  501    0  0.00000000000E+00  0.00000000000E+00  0.50377437427E+02  0.50377437427E+02  0.00000000000E+00 0. -1.
         -2   -1    0    0    0  501 -0.00000000000E+00 -0.00000000000E+00 -0.41882821119E+03  0.41882821119E+03  0.00000000000E+00 0.  1.
         23    2    1    2    0    0 -0.65250128233E+01  0.66052759749E+02 -0.33032082444E+03  0.34916062680E+03  0.91628343776E+02 0.  0.
         23    2    1    2    0    0  0.65250128233E+01 -0.66052759749E+02 -0.38129949321E+02  0.12004502182E+03  0.92473625243E+02 0.  0.
          5    1    4    4  502    0  0.38854824659E+02 -0.15305001808E+02 -0.42197466106E+02  0.59553812853E+02  0.47000000000E+01 0.  1.
         -5    1    3    3    0  503 -0.45792097052E+02  0.52649441648E+02 -0.23275276606E+03  0.24303254919E+03  0.47000000000E+01 0.  1.
          5    1    3    3  503    0  0.39267084228E+02  0.13403318101E+02 -0.97568058386E+02  0.10612807761E+03  0.47000000000E+01 0. -1.
         -5    1    4    4    0  502 -0.32329811836E+02 -0.50747757942E+02  0.40675167846E+01  0.60491208967E+02  0.47000000000E+01 0. -1.
<mgrwt>
<rscale>  0 0.11365665E+03</rscale>
<asrwt>0</asrwt>
<pdfrwt beam="1">  1        2 0.77503748E-02 0.11382844E+03</pdfrwt>
<pdfrwt beam="2">  1       -2 0.64435111E-01 0.11382844E+03</pdfrwt>
<totfact> 0.19257738E+03</totfact>
</mgrwt>
</event>
<event>
 8    1  0.5224537E-004  0.1194502E+03  0.7546771E-02  0.1244839E+00
         -1   -1    0    0    0  501 -0.00000000000E+00  0.00000000000E+00  0.92471855819E+02  0.92471855819E+02  0.00000000000E+00 0.  1.
          1   -1    0    0  501    0  0.00000000000E+00 -0.00000000000E+00 -0.16002562525E+03  0.16002562525E+03  0.00000000000E+00 0. -1.
         23    2    1    2    0    0  0.73164553579E+02  0.14714786304E+02 -0.47885270007E+01  0.11756114351E+03  0.90708961165E+02 0.  0.
         23    2    1    2    0    0 -0.73164553579E+02 -0.14714786304E+02 -0.62765242432E+02  0.13493633756E+03  0.93267157676E+02 0.  0.
          5    1    4    4  502    0 -0.15055805633E+02 -0.39889544449E+02 -0.56768467508E+02  0.71151963732E+02  0.47000000000E+01 0. -1.
         -5    1    4    4    0  502 -0.58108747946E+02  0.25174758146E+02 -0.59967749241E+01  0.63784373831E+02  0.47000000000E+01 0.  1.
          5    1    3    3  503    0 -0.18275731001E+02  0.14874705228E+02 -0.95971690760E+01  0.25873825645E+02  0.47000000000E+01 0. -1.
         -5    1    3    3    0  503  0.91440284580E+02 -0.15991892493E+00  0.48086420754E+01  0.91687317862E+02  0.47000000000E+01 0.  1.
<mgrwt>
<rscale>  0 0.11895038E+03</rscale>
<asrwt>0</asrwt>
<pdfrwt beam="1">  1        1 0.24619327E-01 0.11945016E+03</pdfrwt>
<pdfrwt beam="2">  1       -1 0.14226439E-01 0.11945016E+03</pdfrwt>
<totfact> 0.64270291E+03</totfact>
</mgrwt>
</event>
<event>
 8    1  0.5224537E-004  0.1418520E+03  0.7546771E-02  0.1211352E+00
         -1   -1    0    0    0  501 -0.00000000000E+00  0.00000000000E+00  0.14489950697E+02  0.14489950697E+02  0.00000000000E+00 0.  1.
          1   -1    0    0  501    0  0.00000000000E+00 -0.00000000000E+00 -0.13746518129E+04  0.13746518129E+04  0.00000000000E+00 0. -1.
         23    2    1    2    0    0  0.99597962302E+02  0.41977357408E+02 -0.66367730684E+03  0.67835858969E+03  0.89559789912E+02 0.  0.
         23    2    1    2    0    0 -0.99597962302E+02 -0.41977357408E+02 -0.69648455534E+03  0.71078317388E+03  0.91870190002E+02 0.  0.
          5    1    4    4  502    0 -0.61490879021E+02  0.23310148739E+02 -0.30621154362E+03  0.31322849596E+03  0.47000000000E+01 0. -1.
         -5    1    4    4    0  502 -0.38107083281E+02 -0.65287506147E+02 -0.39027301172E+03  0.39755467792E+03  0.47000000000E+01 0.  1.
          5    1    3    3  503    0  0.19131371513E+02  0.48451621688E+02 -0.16279334945E+03  0.17098927933E+03  0.47000000000E+01 0. -1.
         -5    1    3    3    0  503  0.80466590789E+02 -0.64742642795E+01 -0.50088395739E+03  0.50736931036E+03  0.47000000000E+01 0.  1.
<mgrwt>
<rscale>  0 0.14147919E+03</rscale>
<asrwt>0</asrwt>
<pdfrwt beam="1">  1        1 0.21148482E+00 0.14185198E+03</pdfrwt>
<pdfrwt beam="2">  1       -1 0.22292239E-02 0.14185198E+03</pdfrwt>
<totfact> 0.49912076E+03</totfact>
</mgrwt>
</event>
<event>
 8    1  0.5224537E-004  0.1302914E+03  0.7546771E-02  0.1227577E+00
         -1   -1    0    0    0  501 -0.00000000000E+00  0.00000000000E+00  0.41304444505E+02  0.41304444505E+02  0.00000000000E+00 0.  1.
          1   -1    0    0  501    0  0.00000000000E+00 -0.00000000000E+00 -0.52873447419E+03  0.52873447419E+03  0.00000000000E+00 0. -1.
         23    2    1    2    0    0  0.81538927306E+02 -0.37210302149E+02 -0.38192815538E+03  0.40354052735E+03  0.94565522749E+02 0.  0.
         23    2    1    2    0    0 -0.81538927306E+02  0.37210302149E+02 -0.10550187431E+03  0.16649839135E+03  0.92508732484E+02 0.  0.
          5    1    3    3  502    0  0.65903775061E+02 -0.51280737017E+02 -0.36910352483E+03  0.37846072927E+03  0.47000000000E+01 0. -1.
         -5    1    3    3    0  502  0.15635152246E+02  0.14070434867E+02 -0.12824630542E+02  0.25079798078E+02  0.47000000000E+01 0.  1.
          5    1    4    4  503    0 -0.91704859942E+02  0.55293517293E+01 -0.59598099362E+02  0.10961012050E+03  0.47000000000E+01 0.  1.
         -5    1    4    4    0  503  0.10165932636E+02  0.31680950420E+02 -0.45903774948E+02  0.56888270851E+02  0.47000000000E+01 0. -1.
<mgrwt>
<rscale>  0 0.12991851E+03</rscale>
<asrwt>0</asrwt>
<pdfrwt beam="1">  1        1 0.81343759E-01 0.13029137E+03</pdfrwt>
<pdfrwt beam="2">  1       -1 0.63545304E-02 0.13029137E+03</pdfrwt>
<totfact> 0.49389962E+03</totfact>
</mgrwt>
</event>
<event>
 8    1  0.5224537E-004  0.1066171E+03  0.7546771E-02  0.1267618E+00
         -2   -1    0    0    0  501 -0.00000000000E+00  0.00000000000E+00  0.41606581886E+03  0.41606581886E+03  0.00000000000E+00 0.  1.
          2   -1    0    0  501    0  0.00000000000E+00 -0.00000000000E+00 -0.27375906879E+02  0.27375906879E+02  0.00000000000E+00 0. -1.
         23    2    1    2    0    0  0.79796422790E+01 -0.47933814361E+02  0.22229388684E+03  0.24653962409E+03  0.94899361802E+02 0.  0.
         23    2    1    2    0    0 -0.79796422790E+01  0.47933814361E+02  0.16639602514E+03  0.19690210165E+03  0.93388838736E+02 0.  0.
          5    1    3    3  502    0  0.45138634551E+02 -0.17269879043E+02  0.60035206389E+02  0.77214383747E+02  0.47000000000E+01 0. -1.
         -5    1    4    4    0  503  0.21924712112E+02  0.50807929415E+02  0.44195389922E+02  0.70975074378E+02  0.47000000000E+01 0.  1.
          5    1    4    4  503    0 -0.29904354391E+02 -0.28741150536E+01  0.12220063522E+03  0.12592702727E+03  0.47000000000E+01 0. -1.
         -5    1    3    3    0  502 -0.37158992272E+02 -0.30663935318E+02  0.16225868045E+03  0.16932524034E+03  0.47000000000E+01 0.  1.
<mgrwt>
<rscale>  0 0.10627998E+03</rscale>
<asrwt>0</asrwt>
<pdfrwt beam="1">  1        2 0.42116783E-02 0.10661714E+03</pdfrwt>
<pdfrwt beam="2">  1       -2 0.64010122E-01 0.10661714E+03</pdfrwt>
<totfact> 0.42512225E+03</totfact>
</mgrwt>
</event>
<event>
 8    1  0.5224537E-004  0.1215535E+03  0.7546771E-02  0.1243217E+00
         -1   -1    0    0    0  501 -0.00000000000E+00  0.00000000000E+00  0.26381382252E+03  0.26381382252E+03  0.00000000000E+00 0.  1.
          1   -1    0    0  501    0  0.00000000000E+00 -0.00000000000E+00 -0.58415138190E+02  0.58415138190E+02  0.00000000000E+00 0. -1.
         23    2    1    2    0    0  0.12161330003E+02 -0.79237682686E+02  0.14873286291E+03  0.18811606551E+03  0.82702365677E+02 0.  0.
         23    2    1    2    0    0 -0.12161330003E+02  0.79237682686E+02  0.56665821412E+02  0.13411289519E+03  0.91371467298E+02 0.  0.
          5    1    3    3  502    0  0.46431154368E+02 -0.58288729616E+02  0.93326470708E+02  0.11952132961E+03  0.47000000000E+01 0. -1.
         -5    1    3    3    0  502 -0.34269824365E+02 -0.20948953070E+02  0.55406392207E+02  0.68594735907E+02  0.47000000000E+01 0.  1.
          5    1    4    4  503    0  0.33516368190E+02  0.64296409815E+02  0.27438886447E+02  0.77668254397E+02  0.47000000000E+01 0. -1.
         -5    1    4    4    0  503 -0.45677698193E+02  0.14941272872E+02  0.29226934965E+02  0.56444640797E+02  0.47000000000E+01 0.  1.
<mgrwt>
<rscale>  0 0.11992753E+03</rscale>
<asrwt>0</asrwt>
<pdfrwt beam="1">  1        1 0.89869445E-02 0.12155350E+03</pdfrwt>
<pdfrwt beam="2">  1       -1 0.40586741E-01 0.12155350E+03</pdfrwt>
<totfact> 0.42400547E+03</totfact>
</mgrwt>
</event>
<event>
 8    1  0.5224537E-004  0.1131396E+03  0.7546771E-02  0.1255681E+00
         -1   -1    0    0    0  501 -0.00000000000E+00  0.00000000000E+00  0.71274605955E+02  0.71274605955E+02  0.00000000000E+00 0.  1.
          1   -1    0    0  501    0  0.00000000000E+00 -0.00000000000E+00 -0.18730148800E+03  0.18730148800E+03  0.00000000000E+00 0. -1.
         23    2    1    2    0    0  0.37174833588E+02  0.44110142228E+02 -0.26844182378E+02  0.11451321609E+03  0.95210260121E+02 0.  0.
         23    2    1    2    0    0 -0.37174833588E+02 -0.44110142228E+02 -0.89182699664E+02  0.14406287786E+03  0.97328751964E+02 0.  0.
          5    1    4    4  502    0 -0.67596301903E+02 -0.46466813266E+02 -0.67559781473E+02  0.10637123126E+03  0.47000000000E+01 0. -1.
         -5    1    3    3    0  503 -0.20224051896E+02  0.49168989038E+02 -0.10055514507E+02  0.54312108504E+02  0.47000000000E+01 0.  1.
          5    1    3    3  503    0  0.57398885484E+02 -0.50588468104E+01 -0.16788667871E+02  0.60201107587E+02  0.47000000000E+01 0. -1.
         -5    1    4    4    0  502  0.30421468315E+02  0.23566710377E+01 -0.21622918191E+02  0.37691646607E+02  0.47000000000E+01 0.  1.
<mgrwt>
<rscale>  0 0.11268249E+03</rscale>
<asrwt>0</asrwt>
<pdfrwt beam="1">  1        1 0.28815614E-01 0.11313955E+03</pdfrwt>
<pdfrwt beam="2">  1       -1 0.10965324E-01 0.11313955E+03</pdfrwt>
<totfact> 0.78599032E+03</totfact>
</mgrwt>
</event>
<event>
 7    1  0.5224537E-004  0.1594138E+03  0.7546771E-02  0.1208519E+00
         -1   -1    0    0    0  501 -0.00000000000E+00  0.00000000000E+00  0.37333731070E+02  0.37333731070E+02  0.00000000000E+00 0.  1.
          1   -1    0    0  501    0  0.00000000000E+00 -0.00000000000E+00 -0.47118489280E+03  0.47118489280E+03  0.00000000000E+00 0. -1.
         23    2    1    2    0    0  0.37281414295E+02  0.41283499634E+02 -0.19168808947E+03  0.21859496540E+03  0.89135874147E+02 0.  0.
          5    1    1    2  502    0  0.29471627836E+02 -0.41996902672E+02 -0.20895946952E+03  0.21521725438E+03  0.47000000000E+01 0. -1.
         -5    1    3    3    0  503 -0.28299404178E+02  0.22759689412E+02 -0.72374900911E+02  0.81111503628E+02  0.47000000000E+01 0.  1.
          5    1    3    3  503    0  0.65580818474E+02  0.18523810222E+02 -0.11931318856E+03  0.13748346177E+03  0.47000000000E+01 0. -1.
         -5    1    1    2    0  502 -0.66753042131E+02  0.71340303777E+00 -0.33203602750E+02  0.74706404098E+02  0.47000000000E+01 0.  1.
<mgrwt>
<rscale>  0 0.14363586E+03</rscale>
<asrwt>0</asrwt>
<pdfrwt beam="1">  1        1 0.72489983E-01 0.15941385E+03</pdfrwt>
<pdfrwt beam="2">  1       -1 0.57436510E-02 0.15941385E+03</pdfrwt>
<totfact> 0.67500638E+03</totfact>
</mgrwt>
</event>
<event>
 8    1  0.5224537E-004  0.9162628E+02  0.7546771E-02  0.1300148E+00
         -1   -1    0    0    0  501 -0.00000000000E+00  0.00000000000E+00  0.98499535233E+01  0.98499535233E+01  0.00000000000E+00 0.  1.
          1   -1    0    0  501    0  0.00000000000E+00 -0.00000000000E+00 -0.83521372597E+03  0.83521372597E+03  0.00000000000E+00 0. -1.
         23    2    1    2    0    0 -0.22402202720E+01  0.50698738485E+01 -0.42456902734E+03  0.43392890431E+03  0.89469060609E+02 0.  0.
         23    2    1    2    0    0  0.22402202720E+01 -0.50698738485E+01 -0.40079474510E+03  0.41113477518E+03  0.91458479417E+02 0.  0.
          5    1    4    4  502    0  0.43540787101E+01 -0.41495054709E+02 -0.31499400751E+03  0.31777997472E+03  0.47000000000E+01 0. -1.
         -5    1    4    4    0  502 -0.21138584382E+01  0.36425180860E+02 -0.85800737587E+02  0.93354800458E+02  0.47000000000E+01 0.  1.
          5    1    3    3  503    0  0.31489071509E+02  0.31177034629E+02 -0.16866572919E+03  0.17445282261E+03  0.47000000000E+01 0. -1.
         -5    1    3    3    0  503 -0.33729291781E+02 -0.26107160781E+02 -0.25590329815E+03  0.25947608170E+03  0.47000000000E+01 0.  1.
<mgrwt>
<rscale>  0 0.91125773E+02</rscale>
<asrwt>0</asrwt>
<pdfrwt beam="1">  1        1 0.12849441E+00 0.91626283E+02</pdfrwt>
<pdfrwt beam="2">  1       -1 0.15153776E-02 0.91626283E+02</pdfrwt>
<totfact> 0.20332144E+04</totfact>
</mgrwt>
</event>
<event>
 8    1  0.5224537E-004  0.1091592E+03  0.7546771E-02  0.1262975E+00
         -1   -1    0    0    0  501 -0.00000000000E+00  0.00000000000E+00  0.63899381784E+02  0.63899381784E+02  0.00000000000E+00 0.  1.
          1   -1    0    0  501    0  0.00000000000E+00 -0.00000000000E+00 -0.30084383249E+03  0.30084383249E+03  0.00000000000E+00 0. -1.
         23    2    1    2    0    0 -0.57492645758E+02  0.16059735170E+02 -0.39577918609E+01  0.10745250936E+03  0.89258379110E+02 0.  0.
         23    2    1    2    0    0  0.57492645758E+02 -0.16059735170E+02 -0.23298665884E+03  0.25729070491E+03  0.91391488803E+02 0.  0.
          5    1    3    3  502    0 -0.31064840002E+00 -0.28770106657E+02 -0.16604791301E+02  0.33550329859E+02  0.47000000000E+01 0. -1.
         -5    1    4    4    0  503 -0.21962760718E+02  0.56676605047E+01 -0.28108768606E+02  0.36423592718E+02  0.47000000000E+01 0.  1.
          5    1    4    4  503    0  0.79455406476E+02 -0.21727395675E+02 -0.20487789023E+03  0.22086711219E+03  0.47000000000E+01 0. -1.
         -5    1    3    3    0  502 -0.57181997358E+02  0.44829841827E+02  0.12646999440E+02  0.73902179501E+02  0.47000000000E+01 0.  1.
<mgrwt>
<rscale>  0 0.10871153E+03</rscale>
<asrwt>0</asrwt>
<pdfrwt beam="1">  1        1 0.46283666E-01 0.10915917E+03</pdfrwt>
<pdfrwt beam="2">  1       -1 0.98306742E-02 0.10915917E+03</pdfrwt>
<totfact> 0.51668391E+03</totfact>
</mgrwt>
</event>
<event>
 8    1  0.5224537E-004  0.3036270E+03  0.7546771E-02  0.1083580E+00
          2   -1    0    0  501    0  0.00000000000E+00  0.00000000000E+00  0.98823424038E+03  0.98823424038E+03  0.00000000000E+00 0. -1.
         -2   -1    0    0    0  501 -0.00000000000E+00 -0.00000000000E+00 -0.13290534038E+03  0.13290534038E+03  0.00000000000E+00 0.  1.
         23    2    1    2    0    0  0.28525871567E+03  0.48205480210E+02  0.73560369835E+03  0.79580282211E+03  0.92157622856E+02 0.  0.
         23    2    1    2    0    0 -0.28525871567E+03 -0.48205480210E+02  0.11972520165E+03  0.32533675865E+03  0.88394453632E+02 0.  0.
          5    1    3    3  502    0  0.25014664971E+03  0.36821171146E+02  0.53474187305E+03  0.59152354628E+03  0.47000000000E+01 0. -1.
         -5    1    4    4    0  503 -0.19480797654E+03 -0.43053415217E+02  0.12323827171E+03  0.23454958090E+03  0.47000000000E+01 0.  1.
          5    1    4    4  503    0 -0.90450739136E+02 -0.51520649935E+01 -0.35130700651E+01  0.90787177758E+02  0.47000000000E+01 0. -1.
         -5    1    3    3    0  502  0.35112065961E+02  0.11384309064E+02  0.20086182531E+03  0.20427927583E+03  0.47000000000E+01 0.  1.
<mgrwt>
<rscale>  0 0.30334633E+03</rscale>
<asrwt>0</asrwt>
<pdfrwt beam="1">  1        2 0.15203603E+00 0.30362696E+03</pdfrwt>
<pdfrwt beam="2">  1       -2 0.20446976E-01 0.30362696E+03</pdfrwt>
<totfact> 0.54140874E+02</totfact>
</mgrwt>
</event>
<event>
 8    1  0.5224537E-004  0.1314509E+03  0.7546771E-02  0.1228014E+00
         -1   -1    0    0    0  501 -0.00000000000E+00  0.00000000000E+00  0.12460892685E+03  0.12460892685E+03  0.00000000000E+00 0.  1.
          1   -1    0    0  501    0  0.00000000000E+00 -0.00000000000E+00 -0.13237840803E+03  0.13237840803E+03  0.00000000000E+00 0. -1.
         23    2    1    2    0    0  0.80590097964E+02 -0.27948202814E+02  0.79970003213E+01  0.13169388223E+03  0.10001730187E+03 0.  0.
         23    2    1    2    0    0 -0.80590097964E+02  0.27948202814E+02 -0.15766481499E+02  0.12529345265E+03  0.90410184208E+02 0.  0.
          5    1    4    4  502    0 -0.14293636296E+02  0.45175932592E+02  0.15187297447E+02  0.49979164938E+02  0.47000000000E+01 0. -1.
         -5    1    3    3    0  503  0.85426307407E+01 -0.39045570544E+02  0.35475338168E+02  0.53648138246E+02  0.47000000000E+01 0.  1.
          5    1    3    3  503    0  0.72047467223E+02  0.11097367730E+02 -0.27478337847E+02  0.78045743988E+02  0.47000000000E+01 0. -1.
         -5    1    4    4    0  502 -0.66296461668E+02 -0.17227729778E+02 -0.30953778946E+02  0.75314287715E+02  0.47000000000E+01 0.  1.
<mgrwt>
<rscale>  0 0.12962481E+03</rscale>
<asrwt>0</asrwt>
<pdfrwt beam="1">  1        1 0.20365909E-01 0.13145085E+03</pdfrwt>
<pdfrwt beam="2">  1       -1 0.19170604E-01 0.13145085E+03</pdfrwt>
<totfact> 0.51341937E+03</totfact>
</mgrwt>
</event>
<event>
 8    1  0.5224537E-004  0.1045812E+03  0.7546771E-02  0.1271870E+00
         -3   -1    0    0    0  501 -0.00000000000E+00  0.00000000000E+00  0.21907804946E+03  0.21907804946E+03  0.00000000000E+00 0.  1.
          3   -1    0    0  501    0  0.00000000000E+00 -0.00000000000E+00 -0.54949747922E+02  0.54949747922E+02  0.00000000000E+00 0. -1.
         23    2    1    2    0    0 -0.28579480006E+02  0.39778067214E+02  0.37808418565E+02  0.11120572739E+03  0.92402142733E+02 0.  0.
         23    2    1    2    0    0  0.28579480006E+02 -0.39778067214E+02  0.12631988298E+03  0.16282206999E+03  0.90306324988E+02 0.  0.
          5    1    3    3  502    0 -0.23663750612E+01  0.65743353649E+02  0.15210939647E+02  0.67684938981E+02  0.47000000000E+01 0. -1.
         -5    1    4    4    0  503  0.14926487549E+02 -0.24044613172E+02  0.13627403080E+03  0.13926106751E+03  0.47000000000E+01 0.  1.
          5    1    4    4  503    0  0.13652992457E+02 -0.15733454042E+02 -0.99541478241E+01  0.23561002484E+02  0.47000000000E+01 0. -1.
         -5    1    3    3    0  502 -0.26213104945E+02 -0.25965286435E+02  0.22597478918E+02  0.43520788411E+02  0.47000000000E+01 0. -1.
<mgrwt>
<rscale>  0 0.10411639E+03</rscale>
<asrwt>0</asrwt>
<pdfrwt beam="1">  1        3 0.84538075E-02 0.10458125E+03</pdfrwt>
<pdfrwt beam="2">  1       -3 0.33704315E-01 0.10458125E+03</pdfrwt>
<totfact> 0.18386584E+03</totfact>
</mgrwt>
</event>
<event>
 8    1  0.8063562E-004  0.1005402E+03  0.7546771E-02  0.1279654E+00
          1   -1    0    0  501    0  0.00000000000E+00  0.00000000000E+00  0.35066636982E+02  0.35066636982E+02  0.00000000000E+00 0. -1.
         -1   -1    0    0    0  501 -0.00000000000E+00 -0.00000000000E+00 -0.81405968557E+03  0.81405968557E+03  0.00000000000E+00 0.  1.
         23    2    1    2    0    0 -0.69718097933E-01 -0.43552022664E+02 -0.48058082451E+02  0.11143564617E+03  0.90617550228E+02 0.  0.
         23    2    1    2    0    0  0.69718097933E-01  0.43552022664E+02 -0.73093496614E+03  0.73769067638E+03  0.89581391838E+02 0.  0.
          5    1    4    4  502    0  0.69056521528E+01 -0.26403524220E+02 -0.26790547786E+03  0.26933300798E+03  0.47000000000E+01 0. -1.
         -5    1    3    3    0  503 -0.19954924574E+02  0.14531376721E+02 -0.42809441657E+02  0.49639683914E+02  0.47000000000E+01 0.  1.
          5    1    3    3  503    0  0.19885206476E+02 -0.58083399384E+02 -0.52486407939E+01  0.61795962253E+02  0.47000000000E+01 0. -1.
         -5    1    4    4    0  502 -0.68359340548E+01  0.69955546883E+02 -0.46302948828E+03  0.46835766840E+03  0.47000000000E+01 0.  1.
<mgrwt>
<rscale>  0 0.10030612E+03</rscale>
<asrwt>0</asrwt>
<pdfrwt beam="1">  1        1 0.53948669E-02 0.10054016E+03</pdfrwt>
<pdfrwt beam="2">  1       -1 0.12523996E+00 0.10054016E+03</pdfrwt>
<totfact> 0.87249975E+02</totfact>
</mgrwt>
</event>
<event>
 8    1  0.5224537E-004  0.1275595E+03  0.7546771E-02  0.1234317E+00
          4   -1    0    0  501    0  0.00000000000E+00  0.00000000000E+00  0.33028705478E+02  0.33028705478E+02  0.00000000000E+00 0. -1.
         -4   -1    0    0    0  501 -0.00000000000E+00 -0.00000000000E+00 -0.61721229279E+03  0.61721229279E+03  0.00000000000E+00 0.  1.
         23    2    1    2    0    0  0.76260093499E+02  0.26196796752E+02 -0.13620480960E+03  0.18660967648E+03  0.98841019706E+02 0.  0.
         23    2    1    2    0    0 -0.76260093499E+02 -0.26196796752E+02 -0.44797877772E+03  0.46363132179E+03  0.88131397599E+02 0.  0.
          5    1    4    4  502    0 -0.39052699688E+02 -0.72893383231E+01 -0.52883088633E+02  0.66309568461E+02  0.47000000000E+01 0.  1.
         -5    1    4    4    0  502 -0.37207393811E+02 -0.18907458429E+02 -0.39509568909E+03  0.39732175333E+03  0.47000000000E+01 0.  1.
          5    1    3    3  503    0  0.49012564461E+02 -0.19543304501E+02 -0.11933194148E+03  0.13056176501E+03  0.47000000000E+01 0. -1.
         -5    1    3    3    0  503  0.27247529038E+02  0.45740101253E+02 -0.16872868123E+02  0.56047911469E+02  0.47000000000E+01 0. -1.
<mgrwt>
<rscale>  0 0.12548269E+03</rscale>
<asrwt>0</asrwt>
<pdfrwt beam="1">  1        4 0.50813392E-02 0.12755948E+03</pdfrwt>
<pdfrwt beam="2">  1       -4 0.94955740E-01 0.12755948E+03</pdfrwt>
<totfact> 0.36915932E+02</totfact>
</mgrwt>
</event>
<event>
 8    1  0.5224537E-004  0.1135229E+03  0.7546771E-02  0.1254833E+00
          1   -1    0    0  501    0  0.00000000000E+00  0.00000000000E+00  0.10486593369E+03  0.10486593369E+03  0.00000000000E+00 0. -1.
         -1   -1    0    0    0  501 -0.00000000000E+00 -0.00000000000E+00 -0.12269891843E+03  0.12269891843E+03  0.00000000000E+00 0.  1.
         23    2    1    2    0    0  0.25855574586E+02  0.59013265507E+02  0.30801144738E+01  0.11356469426E+03  0.93468585285E+02 0.  0.
         23    2    1    2    0    0 -0.25855574586E+02 -0.59013265507E+02 -0.20913099217E+02  0.11400015786E+03  0.91692976990E+02 0.  0.
          5    1    3    3  502    0 -0.14378547090E+02  0.37632221170E+02  0.38300606196E+02  0.55784882555E+02  0.47000000000E+01 0. -1.
         -5    1    3    3    0  502  0.40234121676E+02  0.21381044336E+02 -0.35220491722E+02  0.57779811709E+02  0.47000000000E+01 0.  1.
          5    1    4    4  503    0 -0.88235679502E+01 -0.72256414960E+02  0.12442389660E+02  0.73998296702E+02  0.47000000000E+01 0. -1.
         -5    1    4    4    0  503 -0.17032006636E+02  0.13243149454E+02 -0.33355488877E+02  0.40001861154E+02  0.47000000000E+01 0.  1.
<mgrwt>
<rscale>  0 0.11315680E+03</rscale>
<asrwt>0</asrwt>
<pdfrwt beam="1">  1        1 0.16133221E-01 0.11352292E+03</pdfrwt>
<pdfrwt beam="2">  1       -1 0.18876757E-01 0.11352292E+03</pdfrwt>
<totfact> 0.70093656E+03</totfact>
</mgrwt>
</event>
<event>
 8    1  0.5224537E-004  0.1376141E+03  0.7546771E-02  0.1216651E+00
          3   -1    0    0  501    0  0.00000000000E+00  0.00000000000E+00  0.87940376713E+02  0.87940376713E+02  0.00000000000E+00 0. -1.
         -3   -1    0    0    0  501 -0.00000000000E+00 -0.00000000000E+00 -0.22482043979E+03  0.22482043979E+03  0.00000000000E+00 0.  1.
         23    2    1    2    0    0 -0.15530622461E+01 -0.10461090389E+03 -0.10106604520E+03  0.17056281334E+03  0.89058826557E+02 0.  0.
         23    2    1    2    0    0  0.15530622461E+01  0.10461090389E+03 -0.35814017874E+02  0.14219800316E+03  0.89396728186E+02 0.  0.
          5    1    3    3  502    0 -0.28183472301E+02 -0.10995985360E+02 -0.62481830495E+00  0.30621890909E+02  0.47000000000E+01 0. -1.
         -5    1    4    4    0  503 -0.26598849761E+02  0.63064379107E+02 -0.55339307671E+02  0.88142746124E+02  0.47000000000E+01 0.  1.
          5    1    4    4  503    0  0.28151912007E+02  0.41546524784E+02  0.19525289797E+02  0.54055257033E+02  0.47000000000E+01 0. -1.
         -5    1    3    3    0  502  0.26630410054E+02 -0.93614918531E+02 -0.10044122689E+03  0.13994092243E+03  0.47000000000E+01 0.  1.
<mgrwt>
<rscale>  0 0.13755921E+03</rscale>
<asrwt>0</asrwt>
<pdfrwt beam="1">  1        3 0.13529289E-01 0.13761406E+03</pdfrwt>
<pdfrwt beam="2">  1       -3 0.34587760E-01 0.13761406E+03</pdfrwt>
<totfact> 0.84212772E+02</totfact>
</mgrwt>
</event>
<event>
 8    1  0.5224537E-004  0.1013088E+03  0.7546771E-02  0.1280808E+00
         -1   -1    0    0    0  501 -0.00000000000E+00  0.00000000000E+00  0.66820348056E+03  0.66820348056E+03  0.00000000000E+00 0.  1.
          1   -1    0    0  501    0  0.00000000000E+00 -0.00000000000E+00 -0.74524543523E+02  0.74524543523E+02  0.00000000000E+00 0. -1.
         23    2    1    2    0    0  0.75493418570E+00 -0.28207944270E+02  0.63199728151E+03  0.64006564886E+03  0.97299604144E+02 0.  0.
         23    2    1    2    0    0 -0.75493418570E+00  0.28207944270E+02 -0.38318344475E+02  0.10266237522E+03  0.90967080404E+02 0.  0.
          5    1    3    3  502    0 -0.21677926720E+02  0.28683684979E+02  0.15746470853E+03  0.16158561423E+03  0.47000000000E+01 0. -1.
         -5    1    3    3    0  502  0.22432860905E+02 -0.56891629250E+02  0.47453257298E+03  0.47848003464E+03  0.47000000000E+01 0.  1.
          5    1    4    4  503    0  0.35123464898E+02  0.36479241818E+02 -0.41172762608E+02  0.65434541726E+02  0.47000000000E+01 0. -1.
         -5    1    4    4    0  503 -0.35878399084E+02 -0.82712975481E+01  0.28544181324E+01  0.37227833496E+02  0.47000000000E+01 0.  1.
<mgrwt>
<rscale>  0 0.99757107E+02</rscale>
<asrwt>0</asrwt>
<pdfrwt beam="1">  1        1 0.11465315E-01 0.10130879E+03</pdfrwt>
<pdfrwt beam="2">  1       -1 0.10280053E+00 0.10130879E+03</pdfrwt>
<totfact> 0.50299040E+02</totfact>
</mgrwt>
</event>
<event>
 8    1  0.5224537E-004  0.1813848E+03  0.7546771E-02  0.1166861E+00
         -1   -1    0    0    0  501 -0.00000000000E+00  0.00000000000E+00  0.20695134978E+02  0.20695134978E+02  0.00000000000E+00 0.  1.
          1   -1    0    0  501    0  0.00000000000E+00 -0.00000000000E+00 -0.15962661013E+04  0.15962661013E+04  0.00000000000E+00 0. -1.
         23    2    1    2    0    0 -0.14773093451E+03 -0.46562910427E+02 -0.69914886791E+03  0.72229466251E+03  0.94381705561E+02 0.  0.
         23    2    1    2    0    0  0.14773093451E+03  0.46562910427E+02 -0.87642209837E+03  0.89466657373E+03  0.91214308117E+02 0.  0.
          5    1    3    3  502    0 -0.10841560959E+03 -0.50799535777E+02 -0.63914675037E+03  0.65028085912E+03  0.47000000000E+01 0. -1.
         -5    1    4    4    0  503  0.34128171559E+02  0.55895726071E+02 -0.32579577440E+03  0.33234626657E+03  0.47000000000E+01 0.  1.
          5    1    4    4  503    0  0.11360276295E+03 -0.93328156434E+01 -0.55062632397E+03  0.56232030716E+03  0.47000000000E+01 0. -1.
         -5    1    3    3    0  502 -0.39315324919E+02  0.42366253504E+01 -0.60002117547E+02  0.72013803385E+02  0.47000000000E+01 0.  1.
<mgrwt>
<rscale>  0 0.18097646E+03</rscale>
<asrwt>0</asrwt>
<pdfrwt beam="1">  1        1 0.24557951E+00 0.18138478E+03</pdfrwt>
<pdfrwt beam="2">  1       -1 0.31838655E-02 0.18138478E+03</pdfrwt>
<totfact> 0.21349210E+03</totfact>
</mgrwt>
</event>
<event>
 8    1  0.5224537E-004  0.9713828E+02  0.7546771E-02  0.1286966E+00
         -2   -1    0    0    0  501 -0.00000000000E+00  0.00000000000E+00  0.31363988087E+02  0.31363988087E+02  0.00000000000E+00 0.  1.
          2   -1    0    0  501    0  0.00000000000E+00 -0.00000000000E+00 -0.33868685198E+03  0.33868685198E+03  0.00000000000E+00 0. -1.
         23    2    1    2    0    0 -0.34382869667E+02  0.42984836772E+01 -0.21859248556E+03  0.23920392928E+03  0.90747927536E+02 0.  0.
         23    2    1    2    0    0  0.34382869667E+02 -0.42984836772E+01 -0.88730378332E+02  0.13084691078E+03  0.89706049596E+02 0.  0.
          5    1    3    3  502    0  0.12006968080E+02 -0.25730763846E+02 -0.26002200236E+02  0.38787161635E+02  0.47000000000E+01 0. -1.
         -5    1    3    3    0  502 -0.46389837747E+02  0.30029247523E+02 -0.19259028533E+03  0.20041676765E+03  0.47000000000E+01 0.  1.
          5    1    4    4  503    0 -0.14250616214E+02 -0.21241565596E+02 -0.71905905933E+02  0.76464589710E+02  0.47000000000E+01 0. -1.
         -5    1    4    4    0  503  0.48633485881E+02  0.16943081919E+02 -0.16824472399E+02  0.54382321074E+02  0.47000000000E+01 0.  1.
<mgrwt>
<rscale>  0 0.96894205E+02</rscale>
<asrwt>0</asrwt>
<pdfrwt beam="1">  1        2 0.52105672E-01 0.97138278E+02</pdfrwt>
<pdfrwt beam="2">  1       -2 0.48252287E-02 0.97138278E+02</pdfrwt>
<totfact> 0.17984109E+04</totfact>
</mgrwt>
</event>
<event>
 8    1  0.5224537E-004  0.9193504E+02  0.7546771E-02  0.1309171E+00
         -1   -1    0    0    0  501 -0.00000000000E+00  0.00000000000E+00  0.61967805981E+02  0.61967805981E+02  0.00000000000E+00 0.  1.
          1   -1    0    0  501    0  0.00000000000E+00 -0.00000000000E+00 -0.12495703907E+03  0.12495703907E+03  0.00000000000E+00 0. -1.
         23    2    1    2    0    0  0.79375805667E+01 -0.19324578597E+02 -0.63425624020E+02  0.11169091982E+03  0.89529923857E+02 0.  0.
         23    2    1    2    0    0 -0.79375805667E+01  0.19324578597E+02  0.43639092943E+00  0.75233925229E+02  0.72273844128E+02 0.  0.
          5    1    4    4  502    0 -0.22057134962E+02 -0.12964913527E+02 -0.21248858108E+02  0.33588839759E+02  0.47000000000E+01 0. -1.
         -5    1    4    4    0  502  0.14119554395E+02  0.32289492124E+02  0.21685249037E+02  0.41645085469E+02  0.47000000000E+01 0.  1.
          5    1    3    3  503    0 -0.26055681346E+02 -0.10667884700E+02 -0.70087897567E+02  0.75677643196E+02  0.47000000000E+01 0. -1.
         -5    1    3    3    0  503  0.33993261913E+02 -0.86566938970E+01  0.66622735469E+01  0.36013276629E+02  0.47000000000E+01 0.  1.
<mgrwt>
<rscale>  0 0.87440455E+02</rscale>
<asrwt>0</asrwt>
<pdfrwt beam="1">  1        1 0.19224160E-01 0.91935041E+02</pdfrwt>
<pdfrwt beam="2">  1       -1 0.95335086E-02 0.91935041E+02</pdfrwt>
<totfact> 0.15806644E+04</totfact>
</mgrwt>
</event>
<event>
 8    1  0.5224537E-004  0.1017820E+03  0.7546771E-02  0.1280261E+00
         -2   -1    0    0    0  501 -0.00000000000E+00  0.00000000000E+00  0.30301390255E+02  0.30301390255E+02  0.00000000000E+00 0.  1.
          2   -1    0    0  501    0  0.00000000000E+00 -0.00000000000E+00 -0.32594618300E+03  0.32594618300E+03  0.00000000000E+00 0. -1.
         23    2    1    2    0    0  0.45587849627E+01  0.25975247457E+02 -0.12721060555E+03  0.16291751125E+03  0.98306059359E+02 0.  0.
         23    2    1    2    0    0 -0.45587849627E+01 -0.25975247457E+02 -0.16843418719E+03  0.19333006200E+03  0.91164365068E+02 0.  0.
          5    1    3    3  502    0 -0.21831401407E+02 -0.15941079086E+02 -0.12269315353E+01  0.27464949496E+02  0.47000000000E+01 0. -1.
         -5    1    4    4    0  503  0.32349633830E+02 -0.53015588455E+01 -0.19495805652E+02  0.38428918449E+02  0.47000000000E+01 0.  1.
          5    1    4    4  503    0 -0.36908418793E+02 -0.20673688611E+02 -0.14893838153E+03  0.15490114355E+03  0.47000000000E+01 0. -1.
         -5    1    3    3    0  502  0.26390186370E+02  0.41916326542E+02 -0.12598367402E+03  0.13545256176E+03  0.47000000000E+01 0.  1.
<mgrwt>
<rscale>  0 0.10001667E+03</rscale>
<asrwt>0</asrwt>
<pdfrwt beam="1">  1        2 0.50145569E-01 0.10178201E+03</pdfrwt>
<pdfrwt beam="2">  1       -2 0.46617521E-02 0.10178201E+03</pdfrwt>
<totfact> 0.19797413E+04</totfact>
</mgrwt>
</event>
<event>
 8    1  0.5224537E-004  0.2567088E+03  0.7546771E-02  0.1109268E+00
          1   -1    0    0  501    0  0.00000000000E+00  0.00000000000E+00  0.55724702308E+03  0.55724702308E+03  0.00000000000E+00 0. -1.
         -1   -1    0    0    0  501 -0.00000000000E+00 -0.00000000000E+00 -0.13498108323E+03  0.13498108323E+03  0.00000000000E+00 0.  1.
         23    2    1    2    0    0 -0.15653667445E+03 -0.18052709366E+03  0.88191032986E+02  0.27143523653E+03  0.93838517334E+02 0.  0.
         23    2    1    2    0    0  0.15653667445E+03  0.18052709366E+03  0.33407490686E+03  0.42079286979E+03  0.91470398901E+02 0.  0.
          5    1    4    4  502    0  0.13585280498E+03  0.97883148025E+02  0.25059042575E+03  0.30142121154E+03  0.47000000000E+01 0. -1.
         -5    1    4    4    0  502  0.20683869474E+02  0.82643945635E+02  0.83484481110E+02  0.11937165825E+03  0.47000000000E+01 0.  1.
          5    1    3    3  503    0 -0.10876407489E+02 -0.76630666538E+02  0.31462539849E+02  0.83681161008E+02  0.47000000000E+01 0. -1.
         -5    1    3    3    0  503 -0.14566026696E+03 -0.10389642712E+03  0.56728493137E+02  0.18775407552E+03  0.47000000000E+01 0.  1.
<mgrwt>
<rscale>  0 0.25649453E+03</rscale>
<asrwt>0</asrwt>
<pdfrwt beam="1">  1        1 0.85730310E-01 0.25670884E+03</pdfrwt>
<pdfrwt beam="2">  1       -1 0.20766321E-01 0.25670884E+03</pdfrwt>
<totfact> 0.74149066E+02</totfact>
</mgrwt>
</event>
<event>
 8    1  0.5224537E-004  0.8648804E+02  0.7546771E-02  0.1314232E+00
         -3   -1    0    0    0  501 -0.00000000000E+00  0.00000000000E+00  0.10885068626E+03  0.10885068626E+03  0.00000000000E+00 0.  1.
          3   -1    0    0  501    0  0.00000000000E+00 -0.00000000000E+00 -0.76552028108E+02  0.76552028108E+02  0.00000000000E+00 0. -1.
         23    2    1    2    0    0  0.32657689862E+02  0.92777085384E+01  0.51614976076E+02  0.10071885047E+03  0.79546090425E+02 0.  0.
         23    2    1    2    0    0 -0.32657689862E+02 -0.92777085384E+01 -0.19316317926E+02  0.84683863895E+02  0.75137447941E+02 0.  0.
          5    1    3    3  502    0  0.11586253901E+02  0.42665971189E+02  0.15734095189E+02  0.47162253216E+02  0.47000000000E+01 0. -1.
         -5    1    4    4    0  503 -0.86949018670E+01  0.30885788197E+02 -0.19186107816E+02  0.37679304189E+02  0.47000000000E+01 0. -1.
          5    1    4    4  503    0 -0.23962787995E+02 -0.40163496735E+02 -0.13021010989E+00  0.47004559706E+02  0.47000000000E+01 0.  1.
         -5    1    3    3    0  502  0.21071435961E+02 -0.33388262651E+02  0.35880880886E+02  0.53556597254E+02  0.47000000000E+01 0.  1.
<mgrwt>
<rscale>  0 0.85460726E+02</rscale>
<asrwt>0</asrwt>
<pdfrwt beam="1">  1        3 0.11777235E-01 0.86488040E+02</pdfrwt>
<pdfrwt beam="2">  1       -3 0.16746259E-01 0.86488040E+02</pdfrwt>
<totfact> 0.35759951E+03</totfact>
</mgrwt>
</event>
<event>
 8    1  0.6331403E-004  0.1008959E+03  0.7546771E-02  0.1278719E+00
         -4   -1    0    0    0  501 -0.00000000000E+00  0.00000000000E+00  0.14016720721E+03  0.14016720721E+03  0.00000000000E+00 0.  1.
          4   -1    0    0  501    0  0.00000000000E+00 -0.00000000000E+00 -0.20275707647E+03  0.20275707647E+03  0.00000000000E+00 0. -1.
         23    2    1    2    0    0  0.29815173916E+02  0.29529860631E+02 -0.16890424690E+03  0.19674507662E+03  0.91755235756E+02 0.  0.
         23    2    1    2    0    0 -0.29815173916E+02 -0.29529860631E+02  0.10631437764E+03  0.14617920706E+03  0.91129887630E+02 0.  0.
          5    1    3    3  502    0  0.75027116903E+01  0.46910164528E+02 -0.15962430134E+03  0.16660990906E+03  0.47000000000E+01 0. -1.
         -5    1    3    3    0  502  0.22312462226E+02 -0.17380303897E+02 -0.92799455578E+01  0.30135167557E+02  0.47000000000E+01 0.  1.
          5    1    4    4  503    0  0.30432540151E+02  0.25670397119E+01  0.43027450372E+02  0.52973395950E+02  0.47000000000E+01 0. -1.
         -5    1    4    4    0  503 -0.60247714067E+02 -0.32096900343E+02  0.63286927266E+02  0.93205811110E+02  0.47000000000E+01 0.  1.
<mgrwt>
<rscale>  0 0.10075350E+03</rscale>
<asrwt>0</asrwt>
<pdfrwt beam="1">  1        4 0.31193396E-01 0.10089589E+03</pdfrwt>
<pdfrwt beam="2">  1       -4 0.21564186E-01 0.10089589E+03</pdfrwt>
<totfact> 0.30469175E+02</totfact>
</mgrwt>
</event>
<event>
 8    1  0.5224537E-004  0.9624997E+02  0.7546771E-02  0.1293188E+00
         -3   -1    0    0    0  501 -0.00000000000E+00  0.00000000000E+00  0.31474515320E+03  0.31474515320E+03  0.00000000000E+00 0.  1.
          3   -1    0    0  501    0  0.00000000000E+00 -0.00000000000E+00 -0.34705511321E+02  0.34705511321E+02  0.00000000000E+00 0. -1.
         23    2    1    2    0    0 -0.18423186022E+02 -0.63195639195E+01  0.22738748485E+03  0.24691926784E+03  0.94258717866E+02 0.  0.
         23    2    1    2    0    0  0.18423186022E+02  0.63195639195E+01  0.52652157034E+02  0.10253139668E+03  0.85796777296E+02 0.  0.
          5    1    3    3  502    0 -0.62994590746E+01 -0.42647896888E+02  0.53833870768E+02  0.69128155880E+02  0.47000000000E+01 0. -1.
         -5    1    4    4    0  503 -0.12842544680E+02 -0.24916796501E+02  0.50603323208E+02  0.58039331676E+02  0.47000000000E+01 0.  1.
          5    1    4    4  503    0  0.31265730702E+02  0.31236360420E+02  0.20488338255E+01  0.44492065008E+02  0.47000000000E+01 0. -1.
         -5    1    3    3    0  502 -0.12123726948E+02  0.36328332969E+02  0.17355361408E+03  0.17779111196E+03  0.47000000000E+01 0.  1.
<mgrwt>
<rscale>  0 0.94112246E+02</rscale>
<asrwt>0</asrwt>
<pdfrwt beam="1">  1        3 0.53393096E-02 0.96249969E+02</pdfrwt>
<pdfrwt beam="2">  1       -3 0.48422329E-01 0.96249969E+02</pdfrwt>
<totfact> 0.18824474E+03</totfact>
</mgrwt>
</event>
<event>
 8    1  0.5224537E-004  0.1096192E+03  0.7546771E-02  0.1261828E+00
         -1   -1    0    0    0  501 -0.00000000000E+00  0.00000000000E+00  0.10456249537E+03  0.10456249537E+03  0.00000000000E+00 0.  1.
          1   -1    0    0  501    0  0.00000000000E+00 -0.00000000000E+00 -0.11539299948E+03  0.11539299948E+03  0.00000000000E+00 0. -1.
         23    2    1    2    0    0  0.56179466644E+02 -0.33177831714E+02  0.79843310240E+01  0.10873335347E+03  0.86615770072E+02 0.  0.
         23    2    1    2    0    0 -0.56179466644E+02  0.33177831714E+02 -0.18814835135E+02  0.11122214138E+03  0.88087829589E+02 0.  0.
          5    1    3    3  502    0  0.63380584384E+02 -0.55462110224E+01  0.31774459757E+02  0.71271068650E+02  0.47000000000E+01 0. -1.
         -5    1    4    4    0  503 -0.55404481571E+02  0.36239174918E+01  0.22592367921E+02  0.60127318619E+02  0.47000000000E+01 0.  1.
          5    1    4    4  503    0 -0.77498507329E+00  0.29553914222E+02 -0.41407203056E+02  0.51094822757E+02  0.47000000000E+01 0. -1.
         -5    1    3    3    0  502 -0.72011177402E+01 -0.27631620691E+02 -0.23790128733E+02  0.37462284819E+02  0.47000000000E+01 0.  1.
<mgrwt>
<rscale>  0 0.10932315E+03</rscale>
<asrwt>0</asrwt>
<pdfrwt beam="1">  1        1 0.17752769E-01 0.10961919E+03</pdfrwt>
<pdfrwt beam="2">  1       -1 0.16086538E-01 0.10961919E+03</pdfrwt>
<totfact> 0.79623232E+03</totfact>
</mgrwt>
</event>
<event>
 8    1  0.5224537E-004  0.1130321E+03  0.7546771E-02  0.1255108E+00
          1   -1    0    0  501    0  0.00000000000E+00  0.00000000000E+00  0.36582217235E+02  0.36582217235E+02  0.00000000000E+00 0. -1.
         -1   -1    0    0    0  501 -0.00000000000E+00 -0.00000000000E+00 -0.37520912382E+03  0.37520912382E+03  0.00000000000E+00 0.  1.
         23    2    1    2    0    0 -0.65677941963E+02  0.18818061233E+02 -0.11486162090E+03  0.16115040527E+03  0.90047485667E+02 0.  0.
         23    2    1    2    0    0  0.65677941963E+02 -0.18818061233E+02 -0.22376528569E+03  0.25064093579E+03  0.89901413353E+02 0.  0.
          5    1    3    3  502    0 -0.76996744665E+01 -0.27973004844E+02 -0.74096061585E+01  0.30311157192E+02  0.47000000000E+01 0. -1.
         -5    1    3    3    0  502 -0.57978267497E+02  0.46791066077E+02 -0.10745201474E+03  0.13083924808E+03  0.47000000000E+01 0.  1.
          5    1    4    4  503    0 -0.83724743417E+01  0.23010755363E+02 -0.30195288951E+02  0.39159145340E+02  0.47000000000E+01 0. -1.
         -5    1    4    4    0  503  0.74050416305E+02 -0.41828816596E+02 -0.19356999674E+03  0.21148179045E+03  0.47000000000E+01 0.  1.
<mgrwt>
<rscale>  0 0.11300303E+03</rscale>
<asrwt>0</asrwt>
<pdfrwt beam="1">  1        1 0.56280333E-02 0.11303212E+03</pdfrwt>
<pdfrwt beam="2">  1       -1 0.57724482E-01 0.11303212E+03</pdfrwt>
<totfact> 0.41817484E+03</totfact>
</mgrwt>
</event>
<event>
 8    1  0.5224537E-004  0.1011733E+03  0.7546771E-02  0.1278656E+00
         -1   -1    0    0    0  501 -0.00000000000E+00  0.00000000000E+00  0.14542665498E+03  0.14542665498E+03  0.00000000000E+00 0.  1.
          1   -1    0    0  501    0  0.00000000000E+00 -0.00000000000E+00 -0.90130992208E+02  0.90130992208E+02  0.00000000000E+00 0. -1.
         23    2    1    2    0    0  0.44015393273E+02 -0.16672081340E+01  0.84415449397E+02  0.13176495167E+03  0.91081831138E+02 0.  0.
         23    2    1    2    0    0 -0.44015393273E+02  0.16672081340E+01 -0.29119786626E+02  0.10379269552E+03  0.89357860549E+02 0.  0.
          5    1    3    3  502    0 -0.82681737796E+01 -0.33757857127E+02  0.50576941757E+02  0.61547320436E+02  0.47000000000E+01 0. -1.
         -5    1    4    4    0  503 -0.25458504455E+02  0.17537852690E+02  0.27697285954E+02  0.41772495440E+02  0.47000000000E+01 0.  1.
          5    1    4    4  503    0 -0.18556888818E+02 -0.15870644556E+02 -0.56817072580E+02  0.62020200079E+02  0.47000000000E+01 0. -1.
         -5    1    3    3    0  502  0.52283567053E+02  0.32090648993E+02  0.33838507640E+02  0.70217631232E+02  0.47000000000E+01 0.  1.
<mgrwt>
<rscale>  0 0.10078375E+03</rscale>
<asrwt>0</asrwt>
<pdfrwt beam="1">  1        1 0.13866307E-01 0.10117329E+03</pdfrwt>
<pdfrwt beam="2">  1       -1 0.22373332E-01 0.10117329E+03</pdfrwt>
<totfact> 0.64299414E+03</totfact>
</mgrwt>
</event>
<event>
 8    1  0.5224537E-004  0.9550272E+02  0.7546771E-02  0.1291440E+00
          1   -1    0    0  501    0  0.00000000000E+00  0.00000000000E+00  0.57325169500E+02  0.57325169500E+02  0.00000000000E+00 0. -1.
         -1   -1    0    0    0  501 -0.00000000000E+00 -0.00000000000E+00 -0.15504904882E+03  0.15504904882E+03  0.00000000000E+00 0.  1.
         23    2    1    2    0    0 -0.28719541458E+01 -0.10508409625E+02 -0.47568139003E+02  0.10450221762E+03  0.92408391638E+02 0.  0.
         23    2    1    2    0    0  0.28719541458E+01  0.10508409625E+02 -0.50155740312E+02  0.10787200070E+03  0.94879373180E+02 0.  0.
          5    1    3    3  502    0  0.22232411858E+02 -0.43621652171E+02 -0.36483360622E+02  0.61239319701E+02  0.47000000000E+01 0. -1.
         -5    1    4    4    0  503 -0.27611436761E+02  0.79588638716E+01 -0.66700119071E+02  0.72778642734E+02  0.47000000000E+01 0.  1.
          5    1    4    4  503    0  0.30483390907E+02  0.25495457538E+01  0.16544378758E+02  0.35093357965E+02  0.47000000000E+01 0. -1.
         -5    1    3    3    0  502 -0.25104366004E+02  0.33113242545E+02 -0.11084778380E+02  0.43262897916E+02  0.47000000000E+01 0.  1.
<mgrwt>
<rscale>  0 0.94883113E+02</rscale>
<asrwt>0</asrwt>
<pdfrwt beam="1">  1        1 0.88192571E-02 0.95502724E+02</pdfrwt>
<pdfrwt beam="2">  1       -1 0.23853699E-01 0.95502724E+02</pdfrwt>
<totfact> 0.10414420E+04</totfact>
</mgrwt>
</event>
<event>
 8    1  0.5224537E-004  0.1093526E+03  0.7546771E-02  0.1263027E+00
         -2   -1    0    0    0  501 -0.00000000000E+00  0.00000000000E+00  0.19640708200E+02  0.19640708200E+02  0.00000000000E+00 0.  1.
          2   -1    0    0  501    0  0.00000000000E+00 -0.00000000000E+00 -0.61311276610E+03  0.61311276610E+03  0.00000000000E+00 0. -1.
         23    2    1    2    0    0 -0.24754937110E+02 -0.49816531698E+02 -0.24465803307E+03  0.26798421679E+03  0.94146128759E+02 0.  0.
         23    2    1    2    0    0  0.24754937110E+02  0.49816531698E+02 -0.34881402483E+03  0.36476925751E+03  0.91054344022E+02 0.  0.
          5    1    4    4  502    0  0.56924782226E+02  0.46168827666E+02 -0.22366267426E+03  0.23541255985E+03  0.47000000000E+01 0. -1.
         -5    1    3    3    0  503 -0.83420193789E+01 -0.64433171826E+02 -0.86748199266E+02  0.10848300786E+03  0.47000000000E+01 0.  1.
          5    1    3    3  503    0 -0.16412917731E+02  0.14616640128E+02 -0.15790983380E+03  0.15950120892E+03  0.47000000000E+01 0. -1.
         -5    1    4    4    0  502 -0.32169845115E+02  0.36477040319E+01 -0.12515135057E+03  0.12935669766E+03  0.47000000000E+01 0.  1.
<mgrwt>
<rscale>  0 0.10868391E+03</rscale>
<asrwt>0</asrwt>
<pdfrwt beam="1">  1        2 0.94325040E-01 0.10935258E+03</pdfrwt>
<pdfrwt beam="2">  1       -2 0.30216474E-02 0.10935258E+03</pdfrwt>
<totfact> 0.19108526E+04</totfact>
</mgrwt>
</event>
<event>
 8    1  0.5224537E-004  0.1111391E+03  0.7546771E-02  0.1259723E+00
         -1   -1    0    0    0  501 -0.00000000000E+00  0.00000000000E+00  0.39743815979E+02  0.39743815979E+02  0.00000000000E+00 0.  1.
          1   -1    0    0  501    0  0.00000000000E+00 -0.00000000000E+00 -0.30487308409E+03  0.30487308409E+03  0.00000000000E+00 0. -1.
         23    2    1    2    0    0  0.60098846551E+02  0.19115796653E+02 -0.12178203833E+03  0.16487196345E+03  0.91512919486E+02 0.  0.
         23    2    1    2    0    0 -0.60098846551E+02 -0.19115796653E+02 -0.14334722979E+03  0.17974493662E+03  0.88218642682E+02 0.  0.
          5    1    4    4  502    0 -0.53799406349E+02  0.27363418649E+02 -0.91026810987E+02  0.10932110099E+03  0.47000000000E+01 0. -1.
         -5    1    3    3    0  503  0.46982743734E+02 -0.32665126338E+02 -0.66487228681E+02  0.87846629219E+02  0.47000000000E+01 0.  1.
          5    1    3    3  503    0  0.13116102817E+02  0.51780922991E+02 -0.55294809647E+02  0.77025334227E+02  0.47000000000E+01 0. -1.
         -5    1    4    4    0  502 -0.62994402017E+01 -0.46479215302E+02 -0.52320418798E+02  0.70423835632E+02  0.47000000000E+01 0.  1.
<mgrwt>
<rscale>  0 0.11045877E+03</rscale>
<asrwt>0</asrwt>
<pdfrwt beam="1">  1        1 0.46903553E-01 0.11113910E+03</pdfrwt>
<pdfrwt beam="2">  1       -1 0.61144331E-02 0.11113910E+03</pdfrwt>
<totfact> 0.10368415E+04</totfact>
</mgrwt>
</event>
<event>
 8    1  0.5224537E-004  0.9961168E+02  0.7546771E-02  0.1281804E+00
         -2   -1    0    0    0  501 -0.00000000000E+00  0.00000000000E+00  0.50192954665E+03  0.50192954665E+03  0.00000000000E+00 0.  1.
          2   -1    0    0  501    0  0.00000000000E+00 -0.00000000000E+00 -0.19580460372E+02  0.19580460372E+02  0.00000000000E+00 0. -1.
         23    2    1    2    0    0  0.44325614858E+01 -0.39531259873E+02  0.25811630089E+03  0.27667040092E+03  0.91324245688E+02 0.  0.
         23    2    1    2    0    0 -0.44325614858E+01  0.39531259873E+02  0.22423278539E+03  0.24483960611E+03  0.89909524332E+02 0.  0.
          5    1    3    3  502    0 -0.16598802048E+02 -0.63636537880E+02  0.19332673169E+03  0.20426072645E+03  0.47000000000E+01 0.  1.
         -5    1    3    3    0  502  0.21031363534E+02  0.24105278006E+02  0.64789569196E+02  0.72409674467E+02  0.47000000000E+01 0. -1.
          5    1    4    4  503    0  0.37710932541E+02  0.22078564055E+02  0.60321276873E+02  0.74634602346E+02  0.47000000000E+01 0. -1.
         -5    1    4    4    0  503 -0.42143494027E+02  0.17452695819E+02  0.16391150852E+03  0.17020500376E+03  0.47000000000E+01 0.  1.
<mgrwt>
<rscale>  0 0.99286235E+02</rscale>
<asrwt>0</asrwt>
<pdfrwt beam="1">  1        2 0.30123789E-02 0.99611676E+02</pdfrwt>
<pdfrwt beam="2">  1       -2 0.77219920E-01 0.99611676E+02</pdfrwt>
<totfact> 0.44243212E+03</totfact>
</mgrwt>
</event>
<event>
 8    1  0.5224537E-004  0.1558080E+03  0.7546771E-02  0.1193920E+00
          1   -1    0    0  501    0  0.00000000000E+00  0.00000000000E+00  0.26749497601E+03  0.26749497601E+03  0.00000000000E+00 0. -1.
         -1   -1    0    0    0  501 -0.00000000000E+00 -0.00000000000E+00 -0.10113976117E+03  0.10113976117E+03  0.00000000000E+00 0.  1.
         23    2    1    2    0    0  0.12196631299E+03 -0.26040945569E+02  0.14482439581E+03  0.21272102574E+03  0.93392809257E+02 0.  0.
         23    2    1    2    0    0 -0.12196631299E+03  0.26040945569E+02  0.21530819030E+02  0.15591371144E+03  0.91058206082E+02 0.  0.
          5    1    4    4  502    0 -0.42441172106E+02  0.39871618069E+02  0.42664442324E+02  0.72341852727E+02  0.47000000000E+01 0. -1.
         -5    1    3    3    0  503  0.11276407724E+03 -0.59585276281E+01  0.15164535945E+03  0.18912864990E+03  0.47000000000E+01 0.  1.
          5    1    3    3  503    0  0.92022357467E+01 -0.20082417941E+02 -0.68209636424E+01  0.23592375847E+02  0.47000000000E+01 0. -1.
         -5    1    4    4    0  502 -0.79525140884E+02 -0.13830672500E+02 -0.21133623293E+02  0.83571858709E+02  0.47000000000E+01 0.  1.
<mgrwt>
<rscale>  0 0.15545980E+03</rscale>
<asrwt>0</asrwt>
<pdfrwt beam="1">  1        1 0.41153073E-01 0.15580799E+03</pdfrwt>
<pdfrwt beam="2">  1       -1 0.15559963E-01 0.15580799E+03</pdfrwt>
<totfact> 0.29939443E+03</totfact>
</mgrwt>
</event>
<event>
 8    1  0.7880700E-004  0.9236681E+02  0.7546771E-02  0.1297352E+00
          2   -1    0    0  501    0  0.00000000000E+00  0.00000000000E+00  0.66909216347E+03  0.66909216347E+03  0.00000000000E+00 0. -1.
         -2   -1    0    0    0  501 -0.00000000000E+00 -0.00000000000E+00 -0.26387903650E+02  0.26387903650E+02  0.00000000000E+00 0.  1.
         23    2    1    2    0    0 -0.65178566107E+01 -0.27449023806E+01  0.57143053405E+03  0.57881142492E+03  0.91868348321E+02 0.  0.
         23    2    1    2    0    0  0.65178566107E+01  0.27449023806E+01  0.71273725765E+02  0.11666864220E+03  0.92095663006E+02 0.  0.
          5    1    4    4  502    0  0.33753441387E+02  0.35559168877E+02  0.42015281753E+02  0.64738884741E+02  0.47000000000E+01 0. -1.
         -5    1    3    3    0  503 -0.48200959567E+02 -0.12995660908E+01  0.24988126937E+03  0.25453439877E+03  0.47000000000E+01 0.  1.
          5    1    3    3  503    0  0.41683102956E+02 -0.14453362898E+01  0.32154926468E+03  0.32427702615E+03  0.47000000000E+01 0. -1.
         -5    1    4    4    0  502 -0.27235584777E+02 -0.32814266496E+02  0.29258444012E+02  0.51929757460E+02  0.47000000000E+01 0.  1.
<mgrwt>
<rscale>  0 0.92310099E+02</rscale>
<asrwt>0</asrwt>
<pdfrwt beam="1">  1        2 0.10293724E+00 0.92366813E+02</pdfrwt>
<pdfrwt beam="2">  1       -2 0.40596780E-02 0.92366813E+02</pdfrwt>
<totfact> 0.11058581E+04</totfact>
</mgrwt>
</event>
<event>
 8    1  0.5224537E-004  0.9075671E+02  0.7546771E-02  0.1301356E+00
         -2   -1    0    0    0  501 -0.00000000000E+00  0.00000000000E+00  0.53405156670E+02  0.53405156670E+02  0.00000000000E+00 0.  1.
          2   -1    0    0  501    0  0.00000000000E+00 -0.00000000000E+00 -0.15416670991E+03  0.15416670991E+03  0.00000000000E+00 0. -1.
         23    2    1    2    0    0 -0.57517900635E+01  0.20180203178E+01 -0.42492965941E+02  0.99720073827E+02  0.90007141243E+02 0.  0.
         23    2    1    2    0    0  0.57517900635E+01 -0.20180203178E+01 -0.58268587295E+02  0.10785179275E+03  0.90551783188E+02 0.  0.
          5    1    4    4  502    0  0.29300603893E+02  0.17232523238E+02 -0.67498453492E+02  0.75720647577E+02  0.47000000000E+01 0. -1.
         -5    1    4    4    0  502 -0.23548813830E+02 -0.19250543556E+02  0.92298661971E+01  0.32131145171E+02  0.47000000000E+01 0.  1.
          5    1    3    3  503    0  0.17684315220E+02  0.23972912130E+02  0.15012269707E+02  0.33688184317E+02  0.47000000000E+01 0. -1.
         -5    1    3    3    0  503 -0.23436105284E+02 -0.21954891813E+02 -0.57505235648E+02  0.66031889510E+02  0.47000000000E+01 0.  1.
<mgrwt>
<rscale>  0 0.90620556E+02</rscale>
<asrwt>0</asrwt>
<pdfrwt beam="1">  1        2 0.23717955E-01 0.90756713E+02</pdfrwt>
<pdfrwt beam="2">  1       -2 0.82161782E-02 0.90756713E+02</pdfrwt>
<totfact> 0.18478674E+04</totfact>
</mgrwt>
</event>
<event>
 8    1  0.5224537E-004  0.1257610E+03  0.7546771E-02  0.1234057E+00
          1   -1    0    0  501    0  0.00000000000E+00  0.00000000000E+00  0.11501940755E+04  0.11501940755E+04  0.00000000000E+00 0. -1.
         -1   -1    0    0    0  501 -0.00000000000E+00 -0.00000000000E+00 -0.87352174267E+02  0.87352174267E+02  0.00000000000E+00 0.  1.
         23    2    1    2    0    0  0.44088535013E+02 -0.73396468829E+02 -0.36605348246E+02  0.13098007188E+03  0.92113989993E+02 0.  0.
         23    2    1    2    0    0 -0.44088535013E+02  0.73396468829E+02  0.10994472495E+04  0.11065661779E+04  0.91507437449E+02 0.  0.
          5    1    4    4  502    0 -0.21438287785E+02  0.92092560763E+02  0.88917795133E+03  0.89420364518E+03  0.47000000000E+01 0. -1.
         -5    1    3    3    0  503  0.14236235520E+02 -0.58286564418E+02  0.21380622820E+02  0.63868732769E+02  0.47000000000E+01 0. -1.
          5    1    3    3  503    0  0.29852299493E+02 -0.15109904412E+02 -0.57985971066E+02  0.67111339107E+02  0.47000000000E+01 0.  1.
         -5    1    4    4    0  502 -0.22650247228E+02 -0.18696091934E+02  0.21026929819E+03  0.21236253275E+03  0.47000000000E+01 0.  1.
<mgrwt>
<rscale>  0 0.12564995E+03</rscale>
<asrwt>0</asrwt>
<pdfrwt beam="1">  1        1 0.17695292E+00 0.12576099E+03</pdfrwt>
<pdfrwt beam="2">  1       -1 0.13438797E-01 0.12576099E+03</pdfrwt>
<totfact> 0.48726284E+02</totfact>
</mgrwt>
</event>
<event>
 8    1  0.5224537E-004  0.1074429E+03  0.7546771E-02  0.1265883E+00
         -2   -1    0    0    0  501 -0.00000000000E+00  0.00000000000E+00  0.38831392293E+02  0.38831392293E+02  0.00000000000E+00 0.  1.
          2   -1    0    0  501    0  0.00000000000E+00 -0.00000000000E+00 -0.30613789320E+03  0.30613789320E+03  0.00000000000E+00 0. -1.
         23    2    1    2    0    0 -0.56318556698E+02  0.15482087154E+02 -0.16680451057E+03  0.19784817085E+03  0.88930754566E+02 0.  0.
         23    2    1    2    0    0  0.56318556698E+02 -0.15482087154E+02 -0.10050199033E+03  0.14712111465E+03  0.90180360739E+02 0.  0.
          5    1    4    4  502    0  0.79091020154E+02 -0.24341926830E+01 -0.85230049462E+02  0.11639401228E+03  0.47000000000E+01 0. -1.
         -5    1    3    3    0  503 -0.76181282355E+02  0.16599535142E+01 -0.94668353766E+02  0.12161632469E+03  0.47000000000E+01 0.  1.
          5    1    3    3  503    0  0.19862725656E+02  0.13822133640E+02 -0.72136156808E+02  0.76231846153E+02  0.47000000000E+01 0. -1.
         -5    1    4    4    0  502 -0.22772463456E+02 -0.13047894471E+02 -0.15271940869E+02  0.30727102367E+02  0.47000000000E+01 0.  1.
<mgrwt>
<rscale>  0 0.10718025E+03</rscale>
<asrwt>0</asrwt>
<pdfrwt beam="1">  1        2 0.47098139E-01 0.10744288E+03</pdfrwt>
<pdfrwt beam="2">  1       -2 0.59740602E-02 0.10744288E+03</pdfrwt>
<totfact> 0.14667950E+04</totfact>
</mgrwt>
</event>
<event>
 8    1  0.5224537E-004  0.9784836E+02  0.7546771E-02  0.1285869E+00
          1   -1    0    0  501    0  0.00000000000E+00  0.00000000000E+00  0.31369071771E+03  0.31369071771E+03  0.00000000000E+00 0. -1.
         -1   -1    0    0    0  501 -0.00000000000E+00 -0.00000000000E+00 -0.31168977411E+02  0.31168977411E+02  0.00000000000E+00 0.  1.
         23    2    1    2    0    0 -0.13028908799E+02 -0.35563031298E+02  0.17390890297E+03  0.19867129131E+03  0.88269438646E+02 0.  0.
         23    2    1    2    0    0  0.13028908799E+02  0.35563031298E+02  0.10861283732E+03  0.14618840380E+03  0.90220947214E+02 0.  0.
          5    1    3    3  502    0  0.35299242765E+02 -0.30610726438E+02  0.92929840214E+02  0.10412059506E+03  0.47000000000E+01 0. -1.
         -5    1    3    3    0  502 -0.48328151564E+02 -0.49523048605E+01  0.80979062761E+02  0.94550696257E+02  0.47000000000E+01 0.  1.
          5    1    4    4  503    0  0.44086505159E+02 -0.16711280981E+01  0.74525295690E+02  0.86732475486E+02  0.47000000000E+01 0. -1.
         -5    1    4    4    0  503 -0.31057596360E+02  0.37234159396E+02  0.34087541630E+02  0.59455928317E+02  0.47000000000E+01 0.  1.
<mgrwt>
<rscale>  0 0.97396128E+02</rscale>
<asrwt>0</asrwt>
<pdfrwt beam="1">  1        1 0.48260108E-01 0.97848357E+02</pdfrwt>
<pdfrwt beam="2">  1       -1 0.47952275E-02 0.97848357E+02</pdfrwt>
<totfact> 0.14161747E+04</totfact>
</mgrwt>
</event>
<event>
 8    1  0.5224537E-004  0.1293487E+03  0.7546771E-02  0.1228597E+00
          1   -1    0    0  501    0  0.00000000000E+00  0.00000000000E+00  0.46788785015E+03  0.46788785015E+03  0.00000000000E+00 0. -1.
         -1   -1    0    0    0  501 -0.00000000000E+00 -0.00000000000E+00 -0.47382555259E+02  0.47382555259E+02  0.00000000000E+00 0.  1.
         23    2    1    2    0    0  0.29333434746E+02  0.85992970594E+02  0.82233251343E+02  0.15327558938E+03  0.92064419229E+02 0.  0.
         23    2    1    2    0    0 -0.29333434746E+02 -0.85992970594E+02  0.33827204354E+03  0.36199481602E+03  0.91416792763E+02 0.  0.
          5    1    3    3  502    0  0.31605589056E+02 -0.83454185268E+01  0.10521829446E+02  0.34660614029E+02  0.47000000000E+01 0. -1.
         -5    1    4    4    0  503 -0.34278026703E+02 -0.61530713297E+02  0.10018208353E+03  0.12255428044E+03  0.47000000000E+01 0.  1.
          5    1    4    4  503    0  0.49445919576E+01 -0.24462257297E+02  0.23808996001E+03  0.23944053559E+03  0.47000000000E+01 0. -1.
         -5    1    3    3    0  502 -0.22721543108E+01  0.94338389121E+02  0.71711421896E+02  0.11861497535E+03  0.47000000000E+01 0.  1.
<mgrwt>
<rscale>  0 0.12923356E+03</rscale>
<asrwt>0</asrwt>
<pdfrwt beam="1">  1        1 0.71982743E-01 0.12934875E+03</pdfrwt>
<pdfrwt beam="2">  1       -1 0.72896242E-02 0.12934875E+03</pdfrwt>
<totfact> 0.47137566E+03</totfact>
</mgrwt>
</event>
<event>
 8    1  0.5224537E-004  0.1269915E+03  0.7546771E-02  0.1232415E+00
         -2   -1    0    0    0  501 -0.00000000000E+00  0.00000000000E+00  0.14789546707E+03  0.14789546707E+03  0.00000000000E+00 0.  1.
          2   -1    0    0  501    0  0.00000000000E+00 -0.00000000000E+00 -0.17571515167E+03  0.17571515167E+03  0.00000000000E+00 0. -1.
         23    2    1    2    0    0  0.78605185103E+02  0.27307046520E+02 -0.11424874776E+03  0.16999801767E+03  0.94456867054E+02 0.  0.
         23    2    1    2    0    0 -0.78605185103E+02 -0.27307046520E+02  0.86429063157E+02  0.15361260107E+03  0.95929131836E+02 0.  0.
          5    1    4    4  502    0 -0.45876816322E+02  0.21967739553E+02  0.29170350688E+01  0.51165055951E+02  0.47000000000E+01 0. -1.
         -5    1    4    4    0  502 -0.32728368781E+02 -0.49274786073E+02  0.83512028089E+02  0.10244754512E+03  0.47000000000E+01 0.  1.
          5    1    3    3  503    0  0.27266738606E+02  0.20839921776E+02 -0.11282356076E+03  0.11802128298E+03  0.47000000000E+01 0. -1.
         -5    1    3    3    0  503  0.51338446497E+02  0.64671247438E+01 -0.14251869970E+01  0.51976734692E+02  0.47000000000E+01 0.  1.
<mgrwt>
<rscale>  0 0.12671350E+03</rscale>
<asrwt>0</asrwt>
<pdfrwt beam="1">  1        2 0.27033100E-01 0.12699153E+03</pdfrwt>
<pdfrwt beam="2">  1       -2 0.22753149E-01 0.12699153E+03</pdfrwt>
<totfact> 0.31776583E+03</totfact>
</mgrwt>
</event>
<event>
 8    1  0.5224537E-004  0.2016622E+03  0.7546771E-02  0.1148392E+00
          2   -1    0    0  501    0  0.00000000000E+00  0.00000000000E+00  0.13592983897E+04  0.13592983897E+04  0.00000000000E+00 0. -1.
         -2   -1    0    0    0  501 -0.00000000000E+00 -0.00000000000E+00 -0.62213621367E+02  0.62213621367E+02  0.00000000000E+00 0.  1.
         23    2    1    2    0    0  0.96664090572E+02 -0.15152445355E+03  0.13600586062E+03  0.24305035571E+03  0.90952047032E+02 0.  0.
         23    2    1    2    0    0 -0.96664090572E+02  0.15152445355E+03  0.11610789077E+04  0.11784616554E+04  0.91455108003E+02 0.  0.
          5    1    3    3  502    0  0.52391581413E+02 -0.36000652020E+02  0.91446961532E+02  0.11147000279E+03  0.47000000000E+01 0. -1.
         -5    1    4    4    0  503 -0.89039474400E+02  0.56518625203E+02  0.56178536167E+03  0.57161811166E+03  0.47000000000E+01 0.  1.
          5    1    4    4  503    0 -0.76246161717E+01  0.95005828347E+02  0.59929354606E+03  0.60684354370E+03  0.47000000000E+01 0. -1.
         -5    1    3    3    0  502  0.44272509159E+02 -0.11552380153E+03  0.44558899092E+02  0.13158035292E+03  0.47000000000E+01 0.  1.
<mgrwt>
<rscale>  0 0.20160527E+03</rscale>
<asrwt>0</asrwt>
<pdfrwt beam="1">  1        2 0.20912281E+00 0.20166220E+03</pdfrwt>
<pdfrwt beam="2">  1       -2 0.95713274E-02 0.20166220E+03</pdfrwt>
<totfact> 0.11643258E+03</totfact>
</mgrwt>
</event>
<event>
 8    1  0.5224537E-004  0.1153262E+03  0.7546771E-02  0.1251859E+00
         -3   -1    0    0    0  501 -0.00000000000E+00  0.00000000000E+00  0.25981599173E+03  0.25981599173E+03  0.00000000000E+00 0.  1.
          3   -1    0    0  501    0  0.00000000000E+00 -0.00000000000E+00 -0.16287888078E+03  0.16287888078E+03  0.00000000000E+00 0. -1.
         23    2    1    2    0    0 -0.37894158767E+02  0.59780572202E+02  0.22427171667E+03  0.25218630111E+03  0.91051872525E+02 0.  0.
         23    2    1    2    0    0  0.37894158767E+02 -0.59780572202E+02 -0.12733460572E+03  0.17050857139E+03  0.88596766427E+02 0.  0.
          5    1    4    4  502    0  0.19458632010E+02 -0.36690436698E+02 -0.13356190927E+03  0.13994891966E+03  0.47000000000E+01 0. -1.
         -5    1    3    3    0  503 -0.63099753487E+02  0.62378557360E+02  0.18473103293E+03  0.20498855538E+03  0.47000000000E+01 0.  1.
          5    1    3    3  503    0  0.25205594720E+02 -0.25979851574E+01  0.39540683742E+02  0.47197745739E+02  0.47000000000E+01 0. -1.
         -5    1    4    4    0  502  0.18435526757E+02 -0.23090135504E+02  0.62273035509E+01  0.30559651731E+02  0.47000000000E+01 0.  1.
<mgrwt>
<rscale>  0 0.11484104E+03</rscale>
<asrwt>0</asrwt>
<pdfrwt beam="1">  1        3 0.25058289E-01 0.11532618E+03</pdfrwt>
<pdfrwt beam="2">  1       -3 0.39971691E-01 0.11532618E+03</pdfrwt>
<totfact> 0.21283268E+02</totfact>
</mgrwt>
</event>
<event>
 8    1  0.5224537E-004  0.1399397E+03  0.7546771E-02  0.1222906E+00
          1   -1    0    0  501    0  0.00000000000E+00  0.00000000000E+00  0.10234255845E+04  0.10234255845E+04  0.00000000000E+00 0. -1.
         -1   -1    0    0    0  501 -0.00000000000E+00 -0.00000000000E+00 -0.42264872126E+02  0.42264872126E+02  0.00000000000E+00 0.  1.
         23    2    1    2    0    0 -0.25957401529E+02  0.64569155975E+02  0.88213503883E+02  0.16542294866E+03  0.12140908977E+03 0.  0.
         23    2    1    2    0    0  0.25957401529E+02 -0.64569155975E+02  0.89294720852E+03  0.90026750799E+03  0.91015966434E+02 0.  0.
          5    1    3    3  502    0  0.17450847661E+02 -0.30320667939E+02  0.26069892700E+02  0.43881707962E+02  0.47000000000E+01 0. -1.
         -5    1    4    4    0  503  0.13051385591E+02  0.21489129545E+02  0.14251570473E+03  0.14479273963E+03  0.47000000000E+01 0.  1.
          5    1    4    4  503    0  0.12906015938E+02 -0.86058285520E+02  0.75043150379E+03  0.75547476836E+03  0.47000000000E+01 0. -1.
         -5    1    3    3    0  502 -0.43408249190E+02  0.94889823913E+02  0.62143611183E+02  0.12154124070E+03  0.47000000000E+01 0.  1.
<mgrwt>
<rscale>  0 0.13311467E+03</rscale>
<asrwt>0</asrwt>
<pdfrwt beam="1">  1        1 0.15745007E+00 0.13993974E+03</pdfrwt>
<pdfrwt beam="2">  1       -1 0.65022888E-02 0.13993974E+03</pdfrwt>
<totfact> 0.18061686E+03</totfact>
</mgrwt>
</event>
<event>
 8    1  0.5224537E-004  0.1039654E+03  0.7546771E-02  0.1279098E+00
          1   -1    0    0  501    0  0.00000000000E+00  0.00000000000E+00  0.11973404793E+03  0.11973404793E+03  0.00000000000E+00 0. -1.
         -1   -1    0    0    0  501 -0.00000000000E+00 -0.00000000000E+00 -0.81736323512E+02  0.81736323512E+02  0.00000000000E+00 0.  1.
         23    2    1    2    0    0 -0.29639883872E+02 -0.55890379732E+01  0.34767587046E+02  0.97454837050E+02  0.85900524410E+02 0.  0.
         23    2    1    2    0    0  0.29639883872E+02  0.55890379732E+01  0.32301373741E+01  0.10401553439E+03  0.99493907082E+02 0.  0.
          5    1    3    3  502    0 -0.37292075358E+02 -0.40207968933E+02  0.17622810987E+02  0.57793019624E+02  0.47000000000E+01 0. -1.
         -5    1    3    3    0  502  0.76521914858E+01  0.34618930960E+02  0.17144776059E+02  0.39661817425E+02  0.47000000000E+01 0.  1.
          5    1    4    4  503    0 -0.27849394904E+02  0.28392763949E+02  0.10934483853E+02  0.41513742042E+02  0.47000000000E+01 0. -1.
         -5    1    4    4    0  503  0.57489278776E+02 -0.22803725976E+02 -0.77043464789E+01  0.62501792352E+02  0.47000000000E+01 0.  1.
<mgrwt>
<rscale>  0 0.10057199E+03</rscale>
<asrwt>0</asrwt>
<pdfrwt beam="1">  1        1 0.18420623E-01 0.10396537E+03</pdfrwt>
<pdfrwt beam="2">  1       -1 0.12574819E-01 0.10396537E+03</pdfrwt>
<totfact> 0.11080899E+04</totfact>
</mgrwt>
</event>
<event>
 8    1  0.5224537E-004  0.1018238E+03  0.7546771E-02  0.1277469E+00
         -1   -1    0    0    0  501 -0.00000000000E+00  0.00000000000E+00  0.23902584269E+03  0.23902584269E+03  0.00000000000E+00 0.  1.
          1   -1    0    0  501    0  0.00000000000E+00 -0.00000000000E+00 -0.50455636784E+02  0.50455636784E+02  0.00000000000E+00 0. -1.
         23    2    1    2    0    0  0.32002799906E+02  0.30357395977E+02  0.37868486776E+02  0.10863751775E+03  0.91773292843E+02 0.  0.
         23    2    1    2    0    0 -0.32002799906E+02 -0.30357395977E+02  0.15070171913E+03  0.18084396173E+03  0.89709417857E+02 0.  0.
          5    1    3    3  502    0  0.29999663133E+02  0.56034096448E+02  0.48796494961E+02  0.80268223310E+02  0.47000000000E+01 0. -1.
         -5    1    4    4    0  503 -0.22632907847E+02 -0.54813687137E+02  0.53300778019E+02  0.79873974188E+02  0.47000000000E+01 0.  1.
          5    1    4    4  503    0 -0.93698920586E+01  0.24456291159E+02  0.97400941109E+02  0.10096998754E+03  0.47000000000E+01 0. -1.
         -5    1    3    3    0  502  0.20031367722E+01 -0.25676700471E+02 -0.10928008185E+02  0.28369294437E+02  0.47000000000E+01 0.  1.
<mgrwt>
<rscale>  0 0.10135656E+03</rscale>
<asrwt>0</asrwt>
<pdfrwt beam="1">  1        1 0.77624058E-02 0.10182381E+03</pdfrwt>
<pdfrwt beam="2">  1       -1 0.36773206E-01 0.10182381E+03</pdfrwt>
<totfact> 0.60357152E+03</totfact>
</mgrwt>
</event>
<event>
 7    1  0.5224537E-004  0.1575201E+03  0.7546771E-02  0.1199214E+00
         -2   -1    0    0    0  501 -0.00000000000E+00  0.00000000000E+00  0.95879523881E+02  0.95879523881E+02  0.00000000000E+00 0.  1.
          2   -1    0    0  501    0  0.00000000000E+00 -0.00000000000E+00 -0.32442700931E+03  0.32442700931E+03  0.00000000000E+00 0. -1.
         23    2    1    2    0    0 -0.71576507266E+02 -0.12793497397E+02  0.11041482348E+02  0.13357413736E+03  0.11150455538E+03 0.  0.
          5    1    3    3  502    0  0.16113308012E+02  0.28825373597E+02 -0.85626779881E+01  0.34437629309E+02  0.47000000000E+01 0. -1.
         -5    1    3    3    0  502 -0.87689815278E+02 -0.41618870994E+02  0.19604160336E+02  0.99136508052E+02  0.47000000000E+01 0.  1.
          5    1    1    2  503    0  0.44426215495E+02  0.72264102003E+02 -0.17589593659E+03  0.19533883272E+03  0.47000000000E+01 0. -1.
         -5    1    1    2    0  503  0.27150291771E+02 -0.59470604606E+02 -0.63693031192E+02  0.91393563110E+02  0.47000000000E+01 0.  1.
<mgrwt>
<rscale>  0 0.15102903E+03</rscale>
<asrwt>0</asrwt>
<pdfrwt beam="1">  1        2 0.49911847E-01 0.15752014E+03</pdfrwt>
<pdfrwt beam="2">  1       -2 0.14750696E-01 0.15752014E+03</pdfrwt>
<totfact> 0.34406421E+03</totfact>
</mgrwt>
</event>
<event>
 8    1  0.5224537E-004  0.1030789E+03  0.7546771E-02  0.1274947E+00
         -2   -1    0    0    0  501 -0.00000000000E+00  0.00000000000E+00  0.18919376754E+03  0.18919376754E+03  0.00000000000E+00 0.  1.
          2   -1    0    0  501    0  0.00000000000E+00 -0.00000000000E+00 -0.56406073740E+02  0.56406073740E+02  0.00000000000E+00 0. -1.
         23    2    1    2    0    0 -0.32981755305E+02  0.25101655911E+02  0.85683136877E+02  0.13404054639E+03  0.94378910885E+02 0.  0.
         23    2    1    2    0    0  0.32981755305E+02 -0.25101655911E+02  0.47104556927E+02  0.11155929489E+03  0.92242873333E+02 0.  0.
          5    1    4    4  502    0  0.41428251982E+02 -0.54839590929E+02  0.25083934122E+02  0.73314217902E+02  0.47000000000E+01 0. -1.
         -5    1    4    4    0  502 -0.84464966768E+01  0.29737935017E+02  0.22020622805E+02  0.38245076990E+02  0.47000000000E+01 0.  1.
          5    1    3    3  503    0  0.28026332585E+02 -0.84885778237E+01  0.42953714413E+02  0.52198111590E+02  0.47000000000E+01 0. -1.
         -5    1    3    3    0  503 -0.61008087891E+02  0.33590233735E+02  0.42729422464E+02  0.81842434803E+02  0.47000000000E+01 0.  1.
<mgrwt>
<rscale>  0 0.10258741E+03</rscale>
<asrwt>0</asrwt>
<pdfrwt beam="1">  1        2 0.86778576E-02 0.10307894E+03</pdfrwt>
<pdfrwt beam="2">  1       -2 0.29106733E-01 0.10307894E+03</pdfrwt>
<totfact> 0.76265923E+03</totfact>
</mgrwt>
</event>
<event>
 8    1  0.5224537E-004  0.1280856E+03  0.7546771E-02  0.1230843E+00
         -1   -1    0    0    0  501 -0.00000000000E+00  0.00000000000E+00  0.91275888381E+03  0.91275888381E+03  0.00000000000E+00 0.  1.
          1   -1    0    0  501    0  0.00000000000E+00 -0.00000000000E+00 -0.36301955613E+02  0.36301955613E+02  0.00000000000E+00 0. -1.
         23    2    1    2    0    0  0.39852179712E+02  0.79200378961E+02  0.98154872192E+02  0.16028963176E+03  0.90539995917E+02 0.  0.
         23    2    1    2    0    0 -0.39852179712E+02 -0.79200378961E+02  0.77830205600E+03  0.78877120766E+03  0.92439339001E+02 0.  0.
          5    1    3    3  502    0  0.68592955274E+02  0.63355421063E+02  0.70016650145E+02  0.11680464113E+03  0.47000000000E+01 0. -1.
         -5    1    3    3    0  502 -0.28740775562E+02  0.15844957898E+02  0.28138222047E+02  0.43484990637E+02  0.47000000000E+01 0.  1.
          5    1    4    4  503    0  0.29290286962E+02 -0.13693909075E+02  0.18908840872E+03  0.19189049056E+03  0.47000000000E+01 0. -1.
         -5    1    4    4    0  503 -0.69142466674E+02 -0.65506469886E+02  0.58921364729E+03  0.59688071710E+03  0.47000000000E+01 0.  1.
<mgrwt>
<rscale>  0 0.12774327E+03</rscale>
<asrwt>0</asrwt>
<pdfrwt beam="1">  1        1 0.55849169E-02 0.12808563E+03</pdfrwt>
<pdfrwt beam="2">  1       -1 0.14042443E+00 0.12808563E+03</pdfrwt>
<totfact> 0.63373541E+02</totfact>
</mgrwt>
</event>
<event>
 8    1  0.5224537E-004  0.1139429E+03  0.7546771E-02  0.1256780E+00
         -1   -1    0    0    0  501 -0.00000000000E+00  0.00000000000E+00  0.17582499858E+02  0.17582499858E+02  0.00000000000E+00 0.  1.
          1   -1    0    0  501    0  0.00000000000E+00 -0.00000000000E+00 -0.11510994603E+04  0.11510994603E+04  0.00000000000E+00 0. -1.
         23    2    1    2    0    0 -0.57887485170E+02  0.29841877860E+02 -0.18650959640E+03  0.21484447983E+03  0.84444196658E+02 0.  0.
         23    2    1    2    0    0  0.57887485170E+02 -0.29841877860E+02 -0.94700736409E+03  0.95383748038E+03  0.93495950308E+02 0.  0.
          5    1    3    3  502    0 -0.34407349458E+02  0.35833431772E+01 -0.17353605543E+03  0.17701287687E+03  0.47000000000E+01 0. -1.
         -5    1    3    3    0  502 -0.23480135711E+02  0.26258534683E+02 -0.12973540971E+02  0.37831602954E+02  0.47000000000E+01 0.  1.
          5    1    4    4  503    0  0.62649407125E+02  0.16526588978E+02 -0.63801754711E+03  0.64131626891E+03  0.47000000000E+01 0. -1.
         -5    1    4    4    0  503 -0.47619219554E+01 -0.46368466838E+02 -0.30898981698E+03  0.31252121147E+03  0.47000000000E+01 0.  1.
<mgrwt>
<rscale>  0 0.11207188E+03</rscale>
<asrwt>0</asrwt>
<pdfrwt beam="1">  1        1 0.17709228E+00 0.11394293E+03</pdfrwt>
<pdfrwt beam="2">  1       -1 0.27049992E-02 0.11394293E+03</pdfrwt>
<totfact> 0.52920896E+03</totfact>
</mgrwt>
</event>
<event>
 8    1  0.5224537E-004  0.1044730E+03  0.7546771E-02  0.1271549E+00
         -1   -1    0    0    0  501 -0.00000000000E+00  0.00000000000E+00  0.33881967331E+03  0.33881967331E+03  0.00000000000E+00 0.  1.
          1   -1    0    0  501    0  0.00000000000E+00 -0.00000000000E+00 -0.36426582060E+02  0.36426582060E+02  0.00000000000E+00 0. -1.
         23    2    1    2    0    0 -0.28159637390E+02 -0.39313096260E+02  0.21629537112E+03  0.23986746686E+03  0.91729108659E+02 0.  0.
         23    2    1    2    0    0  0.28159637390E+02  0.39313096260E+02  0.86097720126E+02  0.13537878850E+03  0.92607312078E+02 0.  0.
          5    1    3    3  502    0 -0.25219533900E+02 -0.27192792051E+00  0.65916452028E+01  0.26488462043E+02  0.47000000000E+01 0. -1.
         -5    1    4    4    0  503  0.59895487682E+02  0.10814593651E+02  0.43866603534E+02  0.75171761893E+02  0.47000000000E+01 0.  1.
          5    1    4    4  503    0 -0.31735850291E+02  0.28498502610E+02  0.42231116593E+02  0.60207026611E+02  0.47000000000E+01 0. -1.
         -5    1    3    3    0  502 -0.29401034903E+01 -0.39041168340E+02  0.20970372592E+03  0.21337900482E+03  0.47000000000E+01 0.  1.
<mgrwt>
<rscale>  0 0.10427800E+03</rscale>
<asrwt>0</asrwt>
<pdfrwt beam="1">  1        1 0.56040898E-02 0.10447296E+03</pdfrwt>
<pdfrwt beam="2">  1       -1 0.52126102E-01 0.10447296E+03</pdfrwt>
<totfact> 0.50506174E+03</totfact>
</mgrwt>
</event>
<event>
 8    1  0.5224537E-004  0.1020032E+03  0.7546771E-02  0.1277973E+00
          1   -1    0    0  501    0  0.00000000000E+00  0.00000000000E+00  0.38337077871E+03  0.38337077871E+03  0.00000000000E+00 0. -1.
         -1   -1    0    0    0  501 -0.00000000000E+00 -0.00000000000E+00 -0.26859151316E+02  0.26859151316E+02  0.00000000000E+00 0.  1.
         23    2    1    2    0    0 -0.29441985829E+01  0.49665385814E+02  0.21312546205E+03  0.23627764148E+03  0.89046855303E+02 0.  0.
         23    2    1    2    0    0  0.29441985829E+01 -0.49665385814E+02  0.14338616535E+03  0.17395228854E+03  0.84996984787E+02 0.  0.
          5    1    4    4  502    0 -0.19355937857E+02 -0.43611739021E+02  0.14250635316E+03  0.15035553465E+03  0.47000000000E+01 0. -1.
         -5    1    3    3    0  503  0.32981056612E+02 -0.10660965175E+01  0.11741766850E+03  0.12205689466E+03  0.47000000000E+01 0.  1.
          5    1    3    3  503    0 -0.35925255195E+02  0.50731482332E+02  0.95707793546E+02  0.11422074683E+03  0.47000000000E+01 0. -1.
         -5    1    4    4    0  502  0.22300136440E+02 -0.60536467928E+01  0.87981219234E+00  0.23596753891E+02  0.47000000000E+01 0.  1.
<mgrwt>
<rscale>  0 0.10111274E+03</rscale>
<asrwt>0</asrwt>
<pdfrwt beam="1">  1        1 0.58980116E-01 0.10200324E+03</pdfrwt>
<pdfrwt beam="2">  1       -1 0.41321774E-02 0.10200324E+03</pdfrwt>
<totfact> 0.13795437E+04</totfact>
</mgrwt>
</event>
<event>
 8    1  0.5224537E-004  0.9706856E+02  0.7546771E-02  0.1287496E+00
         -1   -1    0    0    0  501 -0.00000000000E+00  0.00000000000E+00  0.51309194401E+03  0.51309194401E+03  0.00000000000E+00 0.  1.
          1   -1    0    0  501    0  0.00000000000E+00 -0.00000000000E+00 -0.12016325874E+03  0.12016325874E+03  0.00000000000E+00 0. -1.
         23    2    1    2    0    0  0.12798107195E+02  0.17794493193E+02  0.48859201987E+03  0.49814101149E+03  0.94561461000E+02 0.  0.
         23    2    1    2    0    0 -0.12798107195E+02 -0.17794493193E+02 -0.95663334604E+02  0.13511419126E+03  0.92865147164E+02 0.  0.
          5    1    3    3  502    0 -0.40886569993E+02  0.61247198389E+01  0.19033343387E+03  0.19482846262E+03  0.47000000000E+01 0. -1.
         -5    1    4    4    0  503 -0.46294464025E+02 -0.11270638450E+02 -0.19827365936E+02  0.51821029808E+02  0.47000000000E+01 0.  1.
          5    1    4    4  503    0  0.33496356830E+02 -0.65238547430E+01 -0.75835968668E+02  0.83293161456E+02  0.47000000000E+01 0. -1.
         -5    1    3    3    0  502  0.53684677187E+02  0.11669773355E+02  0.29825858601E+03  0.30331254887E+03  0.47000000000E+01 0.  1.
<mgrwt>
<rscale>  0 0.96652966E+02</rscale>
<asrwt>0</asrwt>
<pdfrwt beam="1">  1        1 0.18486655E-01 0.97068561E+02</pdfrwt>
<pdfrwt beam="2">  1       -1 0.78937221E-01 0.97068561E+02</pdfrwt>
<totfact> 0.47501351E+02</totfact>
</mgrwt>
</event>
<event>
 8    1  0.5224537E-004  0.9434715E+02  0.7546771E-02  0.1293673E+00
          1   -1    0    0  501    0  0.00000000000E+00  0.00000000000E+00  0.21077271340E+03  0.21077271340E+03  0.00000000000E+00 0. -1.
         -1   -1    0    0    0  501 -0.00000000000E+00 -0.00000000000E+00 -0.56655280263E+02  0.56655280263E+02  0.00000000000E+00 0.  1.
         23    2    1    2    0    0  0.99438027997E+01  0.39908449434E+01  0.14581351334E+03  0.17271611785E+03  0.91948195395E+02 0.  0.
         23    2    1    2    0    0 -0.99438027997E+01 -0.39908449434E+01  0.83039197971E+01  0.94711875809E+02  0.93736749879E+02 0.  0.
          5    1    4    4  502    0 -0.39830652814E+02  0.26494378353E+02 -0.80822642395E+01  0.48742650555E+02  0.47000000000E+01 0. -1.
         -5    1    3    3    0  503  0.46544811230E+02  0.16011586054E+02  0.55007965684E+02  0.73964563334E+02  0.47000000000E+01 0.  1.
          5    1    3    3  503    0 -0.36601008431E+02 -0.12020741111E+02  0.90805547655E+02  0.98751554519E+02  0.47000000000E+01 0. -1.
         -5    1    4    4    0  502  0.29886850014E+02 -0.30485223296E+02  0.16386184037E+02  0.45969225254E+02  0.47000000000E+01 0.  1.
<mgrwt>
<rscale>  0 0.93899786E+02</rscale>
<asrwt>0</asrwt>
<pdfrwt beam="1">  1        1 0.32426571E-01 0.94347148E+02</pdfrwt>
<pdfrwt beam="2">  1       -1 0.87161971E-02 0.94347148E+02</pdfrwt>
<totfact> 0.94760984E+03</totfact>
</mgrwt>
</event>
<event>
 8    1  0.5224537E-004  0.1176404E+03  0.7546771E-02  0.1250991E+00
          1   -1    0    0  501    0  0.00000000000E+00  0.00000000000E+00  0.26098500902E+02  0.26098500902E+02  0.00000000000E+00 0. -1.
         -1   -1    0    0    0  501 -0.00000000000E+00 -0.00000000000E+00 -0.58461191457E+03  0.58461191457E+03  0.00000000000E+00 0.  1.
         23    2    1    2    0    0 -0.60872457661E+02  0.60610220724E+01 -0.39227788424E+03  0.40705996036E+03  0.89853663095E+02 0.  0.
         23    2    1    2    0    0  0.60872457661E+02 -0.60610220724E+01 -0.16623552943E+03  0.20365045511E+03  0.10048415066E+03 0.  0.
          5    1    4    4  502    0  0.25121148594E+02 -0.48630581336E+02 -0.11694458973E+03  0.12920577624E+03  0.47000000000E+01 0. -1.
         -5    1    3    3    0  503  0.12013809244E+02 -0.25029628560E+02 -0.13089042415E+03  0.13388505164E+03  0.47000000000E+01 0.  1.
          5    1    3    3  503    0 -0.72886266906E+02  0.31090650633E+02 -0.26138746009E+03  0.27317490872E+03  0.47000000000E+01 0. -1.
         -5    1    4    4    0  502  0.35751309067E+02  0.42569559263E+02 -0.49290939697E+02  0.74444678870E+02  0.47000000000E+01 0.  1.
<mgrwt>
<rscale>  0 0.11533882E+03</rscale>
<asrwt>0</asrwt>
<pdfrwt beam="1">  1        1 0.40151542E-02 0.11764037E+03</pdfrwt>
<pdfrwt beam="2">  1       -1 0.89940289E-01 0.11764037E+03</pdfrwt>
<totfact> 0.27545152E+03</totfact>
</mgrwt>
</event>
<event>
 8    1  0.5224537E-004  0.1045060E+03  0.7546771E-02  0.1272880E+00
          2   -1    0    0  501    0  0.00000000000E+00  0.00000000000E+00  0.19448947199E+03  0.19448947199E+03  0.00000000000E+00 0. -1.
         -2   -1    0    0    0  501 -0.00000000000E+00 -0.00000000000E+00 -0.60436155278E+02  0.60436155278E+02  0.00000000000E+00 0.  1.
         23    2    1    2    0    0 -0.27807927980E+02  0.39718118829E+02  0.25289405622E+02  0.10409097557E+03  0.88569562131E+02 0.  0.
         23    2    1    2    0    0  0.27807927980E+02 -0.39718118829E+02  0.10876391109E+03  0.15083465170E+03  0.92578042626E+02 0.  0.
          5    1    3    3  502    0 -0.46460542157E+01  0.31942976384E+02  0.55853192016E+02  0.64680821102E+02  0.47000000000E+01 0. -1.
         -5    1    4    4    0  503 -0.27056903742E+02 -0.10217755116E+02  0.50112994590E+01  0.29726783916E+02  0.47000000000E+01 0.  1.
          5    1    4    4  503    0  0.54864831722E+02 -0.29500363713E+02  0.10375261163E+03  0.12110786779E+03  0.47000000000E+01 0. -1.
         -5    1    3    3    0  502 -0.23161873764E+02  0.77751424446E+01 -0.30563786393E+02  0.39410154466E+02  0.47000000000E+01 0.  1.
<mgrwt>
<rscale>  0 0.10361111E+03</rscale>
<asrwt>0</asrwt>
<pdfrwt beam="1">  1        2 0.29921457E-01 0.10450600E+03</pdfrwt>
<pdfrwt beam="2">  1       -2 0.92978701E-02 0.10450600E+03</pdfrwt>
<totfact> 0.12035808E+04</totfact>
</mgrwt>
</event>
<event>
 8    1  0.5224537E-004  0.9605126E+02  0.7546771E-02  0.1289818E+00
         -3   -1    0    0    0  501 -0.00000000000E+00  0.00000000000E+00  0.12303366892E+03  0.12303366892E+03  0.00000000000E+00 0.  1.
          3   -1    0    0  501    0  0.00000000000E+00 -0.00000000000E+00 -0.88623005951E+02  0.88623005951E+02  0.00000000000E+00 0. -1.
         23    2    1    2    0    0 -0.15231311719E+02 -0.23709365137E+02  0.60893957757E+02  0.11372739059E+03  0.91824389071E+02 0.  0.
         23    2    1    2    0    0  0.15231311719E+02  0.23709365137E+02 -0.26483294791E+02  0.97929284274E+02  0.89970289338E+02 0.  0.
          5    1    3    3  502    0  0.34033765659E+02 -0.29963311715E+02  0.35336498449E+02  0.57678898884E+02  0.47000000000E+01 0. -1.
         -5    1    3    3    0  502 -0.49265077377E+02  0.62539465775E+01  0.25557459309E+02  0.56048491711E+02  0.47000000000E+01 0.  1.
          5    1    4    4  503    0  0.67536246963E+01  0.51219621968E+02 -0.40265197773E+02  0.65669150084E+02  0.47000000000E+01 0. -1.
         -5    1    4    4    0  503  0.84776870223E+01 -0.27510256831E+02  0.13781902982E+02  0.32260134190E+02  0.47000000000E+01 0.  1.
<mgrwt>
<rscale>  0 0.95605435E+02</rscale>
<asrwt>0</asrwt>
<pdfrwt beam="1">  1        3 0.13634309E-01 0.96051264E+02</pdfrwt>
<pdfrwt beam="2">  1       -3 0.18928257E-01 0.96051264E+02</pdfrwt>
<totfact> 0.23186523E+03</totfact>
</mgrwt>
</event>
<event>
 8    1  0.5224537E-004  0.9457088E+02  0.7546771E-02  0.1292221E+00
         -1   -1    0    0    0  501 -0.00000000000E+00  0.00000000000E+00  0.70232422792E+01  0.70232422792E+01  0.00000000000E+00 0.  1.
          1   -1    0    0  501    0  0.00000000000E+00 -0.00000000000E+00 -0.12765377810E+04  0.12765377810E+04  0.00000000000E+00 0. -1.
         23    2    1    2    0    0 -0.32852571891E+02  0.85453872122E+00 -0.59545840289E+03  0.60292152116E+03  0.88677107470E+02 0.  0.
         23    2    1    2    0    0  0.32852571891E+02 -0.85453872122E+00 -0.67405613581E+03  0.68063950209E+03  0.88534941562E+02 0.  0.
          5    1    4    4  502    0 -0.17018584694E+02 -0.28353692238E+02 -0.16219783093E+03  0.16560129965E+03  0.47000000000E+01 0. -1.
         -5    1    3    3    0  503  0.28229229577E+02 -0.13471590197E+02 -0.20588851806E+03  0.20830397263E+03  0.47000000000E+01 0.  1.
          5    1    3    3  503    0 -0.61081801469E+02  0.14326128918E+02 -0.38956988483E+03  0.39461754853E+03  0.47000000000E+01 0. -1.
         -5    1    4    4    0  502  0.49871156585E+02  0.27499153516E+02 -0.51185830488E+03  0.51503820244E+03  0.47000000000E+01 0.  1.
<mgrwt>
<rscale>  0 0.94537538E+02</rscale>
<asrwt>0</asrwt>
<pdfrwt beam="1">  1        1 0.19639046E+00 0.94570879E+02</pdfrwt>
<pdfrwt beam="2">  1       -1 0.10804987E-02 0.94570879E+02</pdfrwt>
<totfact> 0.15980800E+04</totfact>
</mgrwt>
</event>
<event>
 8    1  0.5224537E-004  0.9250197E+02  0.7546771E-02  0.1297479E+00
         -1   -1    0    0    0  501 -0.00000000000E+00  0.00000000000E+00  0.86927558406E+02  0.86927558406E+02  0.00000000000E+00 0.  1.
          1   -1    0    0  501    0  0.00000000000E+00 -0.00000000000E+00 -0.10405211352E+03  0.10405211352E+03  0.00000000000E+00 0. -1.
         23    2    1    2    0    0 -0.26406807543E+01  0.10270167729E+02  0.15550704908E+02  0.93799995446E+02  0.91892138850E+02 0.  0.
         23    2    1    2    0    0  0.26406807543E+01 -0.10270167729E+02 -0.32675260027E+02  0.97179676485E+02  0.90905265875E+02 0.  0.
          5    1    3    3  502    0  0.27343296699E+02  0.37560206586E+01 -0.28473669742E+02  0.39932485950E+02  0.47000000000E+01 0. -1.
         -5    1    3    3    0  502 -0.29983977453E+02  0.65141470709E+01  0.44024374650E+02  0.53867509496E+02  0.47000000000E+01 0.  1.
          5    1    4    4  503    0  0.25272527683E+02 -0.43073138501E+02 -0.26002894283E+02  0.56499879884E+02  0.47000000000E+01 0. -1.
         -5    1    4    4    0  503 -0.22631846929E+02  0.32802970772E+02 -0.66723657442E+01  0.40679796601E+02  0.47000000000E+01 0.  1.
<mgrwt>
<rscale>  0 0.92255917E+02</rscale>
<asrwt>0</asrwt>
<pdfrwt beam="1">  1        1 0.16008017E-01 0.92501971E+02</pdfrwt>
<pdfrwt beam="2">  1       -1 0.13373471E-01 0.92501971E+02</pdfrwt>
<totfact> 0.11917004E+04</totfact>
</mgrwt>
</event>
<event>
 8    1  0.5224537E-004  0.9703639E+02  0.7546771E-02  0.1289081E+00
         -3   -1    0    0    0  501 -0.00000000000E+00  0.00000000000E+00  0.76291541545E+02  0.76291541545E+02  0.00000000000E+00 0.  1.
          3   -1    0    0  501    0  0.00000000000E+00 -0.00000000000E+00 -0.14030496323E+03  0.14030496323E+03  0.00000000000E+00 0. -1.
         23    2    1    2    0    0 -0.24916725240E+02  0.24240840795E+02  0.11795171548E+02  0.93458357013E+02  0.85946942148E+02 0.  0.
         23    2    1    2    0    0  0.24916725240E+02 -0.24240840795E+02 -0.75808593237E+02  0.12313814777E+03  0.90595800497E+02 0.  0.
          5    1    4    4  502    0  0.32289780678E+02 -0.54891993403E+02 -0.40730844039E+02  0.75742012992E+02  0.47000000000E+01 0. -1.
         -5    1    4    4    0  502 -0.73730554382E+01  0.30651152608E+02 -0.35077749198E+02  0.47396134774E+02  0.47000000000E+01 0.  1.
          5    1    3    3  503    0  0.16879508442E+02  0.29048499301E+02 -0.21008988282E+02  0.39902389722E+02  0.47000000000E+01 0. -1.
         -5    1    3    3    0  503 -0.41796233682E+02 -0.48076585054E+01  0.32804159830E+02  0.53555967291E+02  0.47000000000E+01 0.  1.
<mgrwt>
<rscale>  0 0.95936493E+02</rscale>
<asrwt>0</asrwt>
<pdfrwt beam="1">  1        3 0.21585379E-01 0.97036388E+02</pdfrwt>
<pdfrwt beam="2">  1       -3 0.11737160E-01 0.97036388E+02</pdfrwt>
<totfact> 0.23717651E+03</totfact>
</mgrwt>
</event>
<event>
 8    1  0.5224537E-004  0.1255096E+03  0.7546771E-02  0.1237832E+00
          1   -1    0    0  501    0  0.00000000000E+00  0.00000000000E+00  0.72301643242E+02  0.72301643242E+02  0.00000000000E+00 0. -1.
         -1   -1    0    0    0  501 -0.00000000000E+00 -0.00000000000E+00 -0.24862963174E+03  0.24862963174E+03  0.00000000000E+00 0.  1.
         23    2    1    2    0    0  0.11367120639E+02 -0.74521928863E+02 -0.15958869341E+03  0.20303008644E+03  0.10034906887E+03 0.  0.
         23    2    1    2    0    0 -0.11367120639E+02  0.74521928863E+02 -0.16739295087E+02  0.11790118854E+03  0.89094090411E+02 0.  0.
          5    1    4    4  502    0  0.21346106495E+02  0.52319192434E+02  0.23422600000E+02  0.61348694772E+02  0.47000000000E+01 0. -1.
         -5    1    4    4    0  502 -0.32713227133E+02  0.22202736429E+02 -0.40161895087E+02  0.56552493768E+02  0.47000000000E+01 0.  1.
          5    1    3    3  503    0  0.31742633764E+02 -0.22537345814E+02 -0.61643890950E+01  0.39694035415E+02  0.47000000000E+01 0. -1.
         -5    1    3    3    0  503 -0.20375513125E+02 -0.51984583049E+02 -0.15342430431E+03  0.16333605102E+03  0.47000000000E+01 0.  1.
<mgrwt>
<rscale>  0 0.12324856E+03</rscale>
<asrwt>0</asrwt>
<pdfrwt beam="1">  1        1 0.11123330E-01 0.12550962E+03</pdfrwt>
<pdfrwt beam="2">  1       -1 0.38250712E-01 0.12550962E+03</pdfrwt>
<totfact> 0.35537249E+03</totfact>
</mgrwt>
</event>
<event>
 8    1  0.5224537E-004  0.1176049E+03  0.7546771E-02  0.1247261E+00
          3   -1    0    0  501    0  0.00000000000E+00  0.00000000000E+00  0.54146464605E+02  0.54146464605E+02  0.00000000000E+00 0. -1.
         -3   -1    0    0    0  501 -0.00000000000E+00 -0.00000000000E+00 -0.27866893851E+03  0.27866893851E+03  0.00000000000E+00 0.  1.
         23    2    1    2    0    0  0.60359177501E+02 -0.38475805327E+02 -0.16130948335E+03  0.19962878980E+03  0.93312841539E+02 0.  0.
         23    2    1    2    0    0 -0.60359177501E+02  0.38475805327E+02 -0.63212990554E+02  0.13318661331E+03  0.92839506063E+02 0.  0.
          5    1    3    3  502    0  0.51181308888E+01 -0.31695177106E+02 -0.39946898619E+01  0.32692920681E+02  0.47000000000E+01 0. -1.
         -5    1    4    4    0  503  0.39051341401E+01  0.46253038193E+02 -0.67120786244E+01  0.47135290539E+02  0.47000000000E+01 0.  1.
          5    1    4    4  503    0 -0.64264311641E+02 -0.77772328661E+01 -0.56500911930E+02  0.86051322771E+02  0.47000000000E+01 0. -1.
         -5    1    3    3    0  502  0.55241046612E+02 -0.67806282205E+01 -0.15731479349E+03  0.16693586912E+03  0.47000000000E+01 0.  1.
<mgrwt>
<rscale>  0 0.11751095E+03</rscale>
<asrwt>0</asrwt>
<pdfrwt beam="1">  1        3 0.83302252E-02 0.11760487E+03</pdfrwt>
<pdfrwt beam="2">  1       -3 0.42872145E-01 0.11760487E+03</pdfrwt>
<totfact> 0.12167184E+03</totfact>
</mgrwt>
</event>
<event>
 8    1  0.5224537E-004  0.1075018E+03  0.7546771E-02  0.1266998E+00
          2   -1    0    0  501    0  0.00000000000E+00  0.00000000000E+00  0.52998656802E+03  0.52998656802E+03  0.00000000000E+00 0. -1.
         -2   -1    0    0    0  501 -0.00000000000E+00 -0.00000000000E+00 -0.45697942621E+02  0.45697942621E+02  0.00000000000E+00 0.  1.
         23    2    1    2    0    0  0.28504987875E+02  0.39101598755E+02  0.32812827969E+02  0.11239802285E+03  0.95995648350E+02 0.  0.
         23    2    1    2    0    0 -0.28504987875E+02 -0.39101598755E+02  0.45147579743E+03  0.46328648780E+03  0.91991873259E+02 0.  0.
          5    1    3    3  502    0  0.43673903102E+02 -0.17845456627E+02  0.22120883216E+02  0.52319151452E+02  0.47000000000E+01 0. -1.
         -5    1    4    4    0  503  0.16569370168E+02 -0.52726220001E+02  0.20894883948E+03  0.21618581318E+03  0.47000000000E+01 0.  1.
          5    1    4    4  503    0 -0.45074358044E+02  0.13624621246E+02  0.24252695796E+03  0.24710067461E+03  0.47000000000E+01 0. -1.
         -5    1    3    3    0  502 -0.15168915226E+02  0.56947055382E+02  0.10691944753E+02  0.60078871398E+02  0.47000000000E+01 0.  1.
<mgrwt>
<rscale>  0 0.10660061E+03</rscale>
<asrwt>0</asrwt>
<pdfrwt beam="1">  1        2 0.81536391E-01 0.10750179E+03</pdfrwt>
<pdfrwt beam="2">  1       -2 0.70304530E-02 0.10750179E+03</pdfrwt>
<totfact> 0.63874778E+03</totfact>
</mgrwt>
</event>
<event>
 8    1  0.5224537E-004  0.1093595E+03  0.7546771E-02  0.1270270E+00
          1   -1    0    0  501    0  0.00000000000E+00  0.00000000000E+00  0.43498499139E+03  0.43498499139E+03  0.00000000000E+00 0. -1.
         -1   -1    0    0    0  501 -0.00000000000E+00 -0.00000000000E+00 -0.23465739810E+02  0.23465739810E+02  0.00000000000E+00 0.  1.
         23    2    1    2    0    0 -0.18480166861E+02 -0.15413889414E+02  0.18444422820E+03  0.20641389162E+03  0.89486964324E+02 0.  0.
         23    2    1    2    0    0  0.18480166861E+02  0.15413889414E+02  0.22707502338E+03  0.25203683958E+03  0.10667894688E+03 0.  0.
          5    1    4    4  502    0  0.57650431745E+02  0.20890724446E+02  0.87920922563E+02  0.10729479611E+03  0.47000000000E+01 0. -1.
         -5    1    4    4    0  502 -0.39170264883E+02 -0.54768350330E+01  0.13915410082E+03  0.14474204347E+03  0.47000000000E+01 0.  1.
          5    1    3    3  503    0 -0.33974467117E+02 -0.45448085483E+02  0.95981655437E+02  0.11159910874E+03  0.47000000000E+01 0. -1.
         -5    1    3    3    0  503  0.15494300255E+02  0.30034196070E+02  0.88462572762E+02  0.94814782885E+02  0.47000000000E+01 0.  1.
<mgrwt>
<rscale>  0 0.10492349E+03</rscale>
<asrwt>0</asrwt>
<pdfrwt beam="1">  1        1 0.66920762E-01 0.10935951E+03</pdfrwt>
<pdfrwt beam="2">  1       -1 0.36101141E-02 0.10935951E+03</pdfrwt>
<totfact> 0.14427312E+04</totfact>
</mgrwt>
</event>
<event>
 8    1  0.5224537E-004  0.1032249E+03  0.7546771E-02  0.1274125E+00
          1   -1    0    0  501    0  0.00000000000E+00  0.00000000000E+00  0.55751311696E+03  0.55751311696E+03  0.00000000000E+00 0. -1.
         -1   -1    0    0    0  501 -0.00000000000E+00 -0.00000000000E+00 -0.18994379014E+02  0.18994379014E+02  0.00000000000E+00 0.  1.
         23    2    1    2    0    0  0.34685515802E+02  0.36622523835E+02  0.28567523880E+03  0.30375274352E+03  0.90061605974E+02 0.  0.
         23    2    1    2    0    0 -0.34685515802E+02 -0.36622523835E+02  0.25284349914E+03  0.27275475246E+03  0.89000144217E+02 0.  0.
          5    1    4    4  502    0 -0.13411808815E+02  0.25225170084E+02  0.13329881426E+03  0.13640692690E+03  0.47000000000E+01 0. -1.
         -5    1    4    4    0  502 -0.21273706987E+02 -0.61847693919E+02  0.11954468488E+03  0.13634782556E+03  0.47000000000E+01 0.  1.
          5    1    3    3  503    0 -0.28657010489E+02  0.25168289245E+02  0.96468827066E+02  0.10384118465E+03  0.47000000000E+01 0. -1.
         -5    1    3    3    0  503  0.63342526291E+02  0.11454234590E+02  0.18920641174E+03  0.19991155887E+03  0.47000000000E+01 0.  1.
<mgrwt>
<rscale>  0 0.10299296E+03</rscale>
<asrwt>0</asrwt>
<pdfrwt beam="1">  1        1 0.85771236E-01 0.10322493E+03</pdfrwt>
<pdfrwt beam="2">  1       -1 0.29222126E-02 0.10322493E+03</pdfrwt>
<totfact> 0.14159696E+04</totfact>
</mgrwt>
</event>
<event>
 8    1  0.5224537E-004  0.1379754E+03  0.7546771E-02  0.1216464E+00
         -1   -1    0    0    0  501 -0.00000000000E+00  0.00000000000E+00  0.26689571143E+02  0.26689571143E+02  0.00000000000E+00 0.  1.
          1   -1    0    0  501    0  0.00000000000E+00 -0.00000000000E+00 -0.74265186352E+03  0.74265186352E+03  0.00000000000E+00 0. -1.
         23    2    1    2    0    0 -0.23023805140E+02  0.99245190438E+02 -0.27570003273E+03  0.30829812130E+03  0.93045795834E+02 0.  0.
         23    2    1    2    0    0  0.23023805140E+02 -0.99245190438E+02 -0.44026225964E+03  0.46104331336E+03  0.91380392304E+02 0.  0.
          5    1    4    4  502    0  0.14244749005E+02 -0.80839534642E+02 -0.42989961891E+03  0.43769134738E+03  0.47000000000E+01 0. -1.
         -5    1    4    4    0  502  0.87790561352E+01 -0.18405655796E+02 -0.10362640734E+02  0.23351965975E+02  0.47000000000E+01 0.  1.
          5    1    3    3  503    0  0.24008585614E+02 -0.32047454529E+01 -0.40254586369E+02  0.47214450122E+02  0.47000000000E+01 0. -1.
         -5    1    3    3    0  503 -0.47032390754E+02  0.10244993589E+03 -0.23544544636E+03  0.26108367118E+03  0.47000000000E+01 0.  1.
<mgrwt>
<rscale>  0 0.13769520E+03</rscale>
<asrwt>0</asrwt>
<pdfrwt beam="1">  1        1 0.11425413E+00 0.13797545E+03</pdfrwt>
<pdfrwt beam="2">  1       -1 0.41060878E-02 0.13797545E+03</pdfrwt>
<totfact> 0.59124909E+03</totfact>
</mgrwt>
</event>
<event>
 8    1  0.5224537E-004  0.1911047E+03  0.7546771E-02  0.1157665E+00
          2   -1    0    0  501    0  0.00000000000E+00  0.00000000000E+00  0.68370581595E+03  0.68370581595E+03  0.00000000000E+00 0. -1.
         -2   -1    0    0    0  501 -0.00000000000E+00 -0.00000000000E+00 -0.64048032490E+02  0.64048032490E+02  0.00000000000E+00 0.  1.
         23    2    1    2    0    0 -0.69071368478E+02 -0.15239954882E+03  0.15516862424E+03  0.24548780094E+03  0.90501281975E+02 0.  0.
         23    2    1    2    0    0  0.69071368478E+02  0.15239954882E+03  0.46448915922E+03  0.50226604750E+03  0.92328365183E+02 0.  0.
          5    1    3    3  502    0 -0.70212660637E+02 -0.51522266171E+02  0.89820290160E+02  0.12519639032E+03  0.47000000000E+01 0. -1.
         -5    1    3    3    0  502  0.11412921596E+01 -0.10087728264E+03  0.65348334085E+02  0.12029141062E+03  0.47000000000E+01 0.  1.
          5    1    4    4  503    0  0.59218635451E+02  0.10530246081E+03  0.41822698929E+03  0.43535199507E+03  0.47000000000E+01 0. -1.
         -5    1    4    4    0  503  0.98527330265E+01  0.47097088003E+02  0.46262169924E+02  0.66914052429E+02  0.47000000000E+01 0.  1.
<mgrwt>
<rscale>  0 0.19088532E+03</rscale>
<asrwt>0</asrwt>
<pdfrwt beam="1">  1        2 0.10518550E+00 0.19110469E+03</pdfrwt>
<pdfrwt beam="2">  1       -2 0.98535440E-02 0.19110469E+03</pdfrwt>
<totfact> 0.29007183E+03</totfact>
</mgrwt>
</event>
<event>
 8    1  0.5224537E-004  0.9204845E+02  0.7546771E-02  0.1298991E+00
         -1   -1    0    0    0  501 -0.00000000000E+00  0.00000000000E+00  0.15353194734E+03  0.15353194734E+03  0.00000000000E+00 0.  1.
          1   -1    0    0  501    0  0.00000000000E+00 -0.00000000000E+00 -0.98569246163E+02  0.98569246163E+02  0.00000000000E+00 0. -1.
         23    2    1    2    0    0 -0.82090839834E+01 -0.12295511994E+02 -0.56985423878E+02  0.10826013059E+03  0.90853446088E+02 0.  0.
         23    2    1    2    0    0  0.82090839834E+01  0.12295511994E+02  0.11194812505E+03  0.14384106291E+03  0.89102749682E+02 0.  0.
          5    1    3    3  502    0 -0.12309402550E+02 -0.50642615622E+02 -0.25285679226E+02  0.58117566038E+02  0.47000000000E+01 0. -1.
         -5    1    3    3    0  502  0.41003185670E+01  0.38347103629E+02 -0.31699744653E+02  0.50142564554E+02  0.47000000000E+01 0.  1.
          5    1    4    4  503    0 -0.33108489204E+02 -0.12499039529E+02  0.74574175034E+02  0.82678870508E+02  0.47000000000E+01 0. -1.
         -5    1    4    4    0  503  0.41317573187E+02  0.24794551523E+02  0.37373950020E+02  0.61162192402E+02  0.47000000000E+01 0.  1.
<mgrwt>
<rscale>  0 0.91613495E+02</rscale>
<asrwt>0</asrwt>
<pdfrwt beam="1">  1        1 0.15164500E-01 0.92048451E+02</pdfrwt>
<pdfrwt beam="2">  1       -1 0.23620299E-01 0.92048451E+02</pdfrwt>
<totfact> 0.52141217E+03</totfact>
</mgrwt>
</event>
<event>
 8    1  0.5224537E-004  0.9252851E+02  0.7546771E-02  0.1297046E+00
          1   -1    0    0  501    0  0.00000000000E+00  0.00000000000E+00  0.10849054785E+03  0.10849054785E+03  0.00000000000E+00 0. -1.
         -1   -1    0    0    0  501 -0.00000000000E+00 -0.00000000000E+00 -0.78621581012E+02  0.78621581012E+02  0.00000000000E+00 0.  1.
         23    2    1    2    0    0 -0.14560914872E+02 -0.68981128723E+00  0.15678811668E+02  0.93847482476E+02  0.91373019815E+02 0.  0.
         23    2    1    2    0    0  0.14560914872E+02  0.68981128723E+00  0.14190155173E+02  0.93264646389E+02  0.91018886396E+02 0.  0.
          5    1    4    4  502    0  0.20789196933E+02 -0.28896712968E+02  0.39626280237E+02  0.53474693219E+02  0.47000000000E+01 0. -1.
         -5    1    4    4    0  502 -0.62282820615E+01  0.29586524255E+02 -0.25436125065E+02  0.39789953169E+02  0.47000000000E+01 0.  1.
          5    1    3    3  503    0 -0.24588132150E+02 -0.41436535223E+02 -0.10677553605E+01  0.48423060575E+02  0.47000000000E+01 0. -1.
         -5    1    3    3    0  503  0.10027217279E+02  0.40746723935E+02  0.16746567028E+02  0.45424421901E+02  0.47000000000E+01 0.  1.
<mgrwt>
<rscale>  0 0.92440960E+02</rscale>
<asrwt>0</asrwt>
<pdfrwt beam="1">  1        1 0.16690854E-01 0.92528508E+02</pdfrwt>
<pdfrwt beam="2">  1       -1 0.12095628E-01 0.92528508E+02</pdfrwt>
<totfact> 0.13181247E+04</totfact>
</mgrwt>
</event>
<event>
 8    1  0.5224537E-004  0.9159372E+02  0.7546771E-02  0.1299890E+00
          1   -1    0    0  501    0  0.00000000000E+00  0.00000000000E+00  0.65610752846E+02  0.65610752846E+02  0.00000000000E+00 0. -1.
         -1   -1    0    0    0  501 -0.00000000000E+00 -0.00000000000E+00 -0.15190670973E+03  0.15190670973E+03  0.00000000000E+00 0.  1.
         23    2    1    2    0    0 -0.10904192613E+02 -0.31233710575E+01 -0.87884051176E+02  0.12590997707E+03  0.89448638957E+02 0.  0.
         23    2    1    2    0    0  0.10904192613E+02  0.31233710575E+01  0.15880942881E+01  0.91607485509E+02  0.90888681883E+02 0.  0.
          5    1    3    3  502    0  0.16784116086E+02  0.36703065232E+02 -0.48366966299E+02  0.63168623376E+02  0.47000000000E+01 0. -1.
         -5    1    4    4    0  503 -0.33651789547E+02  0.23395582127E+02 -0.65246234194E+01  0.41766696225E+02  0.47000000000E+01 0.  1.
          5    1    4    4  503    0  0.44555982160E+02 -0.20272211069E+02  0.81127177075E+01  0.49840789284E+02  0.47000000000E+01 0. -1.
         -5    1    3    3    0  502 -0.27688308699E+02 -0.39826436290E+02 -0.39517084876E+02  0.62741353693E+02  0.47000000000E+01 0.  1.
<mgrwt>
<rscale>  0 0.91234415E+02</rscale>
<asrwt>0</asrwt>
<pdfrwt beam="1">  1        1 0.10093962E-01 0.91593719E+02</pdfrwt>
<pdfrwt beam="2">  1       -1 0.23370263E-01 0.91593719E+02</pdfrwt>
<totfact> 0.89789707E+03</totfact>
</mgrwt>
</event>
<event>
 8    1  0.5224537E-004  0.9713435E+02  0.7546771E-02  0.1287060E+00
          2   -1    0    0  501    0  0.00000000000E+00  0.00000000000E+00  0.36473264294E+03  0.36473264294E+03  0.00000000000E+00 0. -1.
         -2   -1    0    0    0  501 -0.00000000000E+00 -0.00000000000E+00 -0.70921381658E+02  0.70921381658E+02  0.00000000000E+00 0.  1.
         23    2    1    2    0    0 -0.25478683290E+02 -0.14858257508E+02 -0.26973718993E+02  0.10081003242E+03  0.92548095611E+02 0.  0.
         23    2    1    2    0    0  0.25478683290E+02  0.14858257508E+02  0.32078498028E+03  0.33484399218E+03  0.91365006492E+02 0.  0.
          5    1    4    4  502    0  0.57880586946E+02  0.21759477010E+02  0.19100272501E+03  0.20081774859E+03  0.47000000000E+01 0. -1.
         -5    1    4    4    0  502 -0.32401903656E+02 -0.69012195029E+01  0.12978225526E+03  0.13402624359E+03  0.47000000000E+01 0.  1.
          5    1    3    3  503    0  0.24592374641E+02  0.69642148950E+01  0.16551357460E+02  0.30811079393E+02  0.47000000000E+01 0. -1.
         -5    1    3    3    0  503 -0.50071057931E+02 -0.21822472403E+02 -0.43525076453E+02  0.69998953023E+02  0.47000000000E+01 0.  1.
<mgrwt>
<rscale>  0 0.96851473E+02</rscale>
<asrwt>0</asrwt>
<pdfrwt beam="1">  1        2 0.56112713E-01 0.97134346E+02</pdfrwt>
<pdfrwt beam="2">  1       -2 0.10910982E-01 0.97134346E+02</pdfrwt>
<totfact> 0.48016576E+03</totfact>
</mgrwt>
</event>
<event>
 8    1  0.5224537E-004  0.1755044E+03  0.7546771E-02  0.1172694E+00
         -1   -1    0    0    0  501 -0.00000000000E+00  0.00000000000E+00  0.83177969836E+02  0.83177969836E+02  0.00000000000E+00 0.  1.
          1   -1    0    0  501    0  0.00000000000E+00 -0.00000000000E+00 -0.43735450109E+03  0.43735450109E+03  0.00000000000E+00 0. -1.
         23    2    1    2    0    0 -0.27012959254E+01  0.14983661774E+03 -0.71462927804E+02  0.18777312325E+03  0.87712523326E+02 0.  0.
         23    2    1    2    0    0  0.27012959254E+01 -0.14983661774E+03 -0.28271360345E+03  0.33275934768E+03  0.91342722058E+02 0.  0.
          5    1    3    3  502    0 -0.27789051721E+02  0.16597499641E+02 -0.33679520687E+02  0.46947933966E+02  0.47000000000E+01 0. -1.
         -5    1    4    4    0  503 -0.31878821905E+02 -0.20327014551E+02 -0.38671731109E+02  0.54286642865E+02  0.47000000000E+01 0.  1.
          5    1    4    4  503    0  0.34580117831E+02 -0.12950960319E+03 -0.24404187234E+03  0.27847270481E+03  0.47000000000E+01 0. -1.
         -5    1    3    3    0  502  0.25087755796E+02  0.13323911810E+03 -0.37783407117E+02  0.14082518928E+03  0.47000000000E+01 0.  1.
<mgrwt>
<rscale>  0 0.17503713E+03</rscale>
<asrwt>0</asrwt>
<pdfrwt beam="1">  1        1 0.67285307E-01 0.17550442E+03</pdfrwt>
<pdfrwt beam="2">  1       -1 0.12796611E-01 0.17550442E+03</pdfrwt>
<totfact> 0.22025005E+03</totfact>
</mgrwt>
</event>
<event>
 8    1  0.5224537E-004  0.1117880E+03  0.7546771E-02  0.1257530E+00
          2   -1    0    0  501    0  0.00000000000E+00  0.00000000000E+00  0.34290597427E+03  0.34290597427E+03  0.00000000000E+00 0. -1.
         -2   -1    0    0    0  501 -0.00000000000E+00 -0.00000000000E+00 -0.40468910234E+02  0.40468910234E+02  0.00000000000E+00 0.  1.
         23    2    1    2    0    0 -0.79403935037E+01  0.63500332379E+02  0.89817767982E+02  0.14340080665E+03  0.91658157534E+02 0.  0.
         23    2    1    2    0    0  0.79403935037E+01 -0.63500332379E+02  0.21261929606E+03  0.23997407785E+03  0.91023353731E+02 0.  0.
          5    1    3    3  502    0 -0.44852639576E+02  0.37837985923E+02  0.24037946127E+02  0.63587619154E+02  0.47000000000E+01 0. -1.
         -5    1    4    4    0  503  0.33198193670E+02 -0.32524213798E+01  0.27105605401E+02  0.43237739903E+02  0.47000000000E+01 0.  1.
          5    1    4    4  503    0 -0.25257800166E+02 -0.60247911000E+02  0.18551369066E+03  0.19673633795E+03  0.47000000000E+01 0. -1.
         -5    1    3    3    0  502  0.36912246072E+02  0.25662346456E+02  0.65779821855E+02  0.79813187500E+02  0.47000000000E+01 0.  1.
<mgrwt>
<rscale>  0 0.11165781E+03</rscale>
<asrwt>0</asrwt>
<pdfrwt beam="1">  1        2 0.52754763E-01 0.11178801E+03</pdfrwt>
<pdfrwt beam="2">  1       -2 0.62259864E-02 0.11178801E+03</pdfrwt>
<totfact> 0.12273398E+04</totfact>
</mgrwt>
</event>
<event>
 8    1  0.5224537E-004  0.1182942E+03  0.7546771E-02  0.1247548E+00
          2   -1    0    0  501    0  0.00000000000E+00  0.00000000000E+00  0.54435158098E+02  0.54435158098E+02  0.00000000000E+00 0. -1.
         -2   -1    0    0    0  501 -0.00000000000E+00 -0.00000000000E+00 -0.28117637794E+03  0.28117637794E+03  0.00000000000E+00 0.  1.
         23    2    1    2    0    0  0.34987247342E+02 -0.60804812316E+02 -0.16854984035E+03  0.20377920756E+03  0.90529465234E+02 0.  0.
         23    2    1    2    0    0 -0.34987247342E+02  0.60804812316E+02 -0.58191379493E+02  0.13183232848E+03  0.95248063008E+02 0.  0.
          5    1    3    3  502    0  0.76800929191E+01  0.19201042990E+02 -0.87635015955E+01  0.22946739188E+02  0.47000000000E+01 0. -1.
         -5    1    3    3    0  502  0.27307154423E+02 -0.80005855306E+02 -0.15978633876E+03  0.18083246838E+03  0.47000000000E+01 0.  1.
          5    1    4    4  503    0 -0.63872645342E+02  0.59772894589E+02 -0.34454466115E+02  0.94136677155E+02  0.47000000000E+01 0. -1.
         -5    1    4    4    0  503  0.28885398000E+02  0.10319177276E+01 -0.23736913378E+02  0.37695651322E+02  0.47000000000E+01 0.  1.
<mgrwt>
<rscale>  0 0.11734151E+03</rscale>
<asrwt>0</asrwt>
<pdfrwt beam="1">  1        2 0.83746395E-02 0.11829424E+03</pdfrwt>
<pdfrwt beam="2">  1       -2 0.43257905E-01 0.11829424E+03</pdfrwt>
<totfact> 0.38805456E+03</totfact>
</mgrwt>
</event>
<event>
 8    1  0.5224537E-004  0.9488644E+02  0.7546771E-02  0.1291745E+00
         -1   -1    0    0    0  501 -0.00000000000E+00  0.00000000000E+00  0.64655787563E+03  0.64655787563E+03  0.00000000000E+00 0.  1.
          1   -1    0    0  501    0  0.00000000000E+00 -0.00000000000E+00 -0.10926972615E+03  0.10926972615E+03  0.00000000000E+00 0. -1.
         23    2    1    2    0    0 -0.10808749026E+02 -0.24319582343E+02  0.62190642639E+03  0.62910336152E+03  0.91077797254E+02 0.  0.
         23    2    1    2    0    0  0.10808749026E+02  0.24319582343E+02 -0.84618276908E+02  0.12672424025E+03  0.90501431700E+02 0.  0.
          5    1    4    4  502    0  0.19405281184E+02 -0.24177315788E+02 -0.67400610328E+02  0.74337337920E+02  0.47000000000E+01 0. -1.
         -5    1    4    4    0  502 -0.85965321579E+01  0.48496898131E+02 -0.17217666580E+02  0.52386902332E+02  0.47000000000E+01 0.  1.
          5    1    3    3  503    0 -0.33955150646E+02  0.23139585989E+02  0.24042964612E+03  0.24396085225E+03  0.47000000000E+01 0. -1.
         -5    1    3    3    0  503  0.23146401619E+02 -0.47459168332E+02  0.38147678027E+03  0.38514250927E+03  0.47000000000E+01 0.  1.
<mgrwt>
<rscale>  0 0.94747863E+02</rscale>
<asrwt>0</asrwt>
<pdfrwt beam="1">  1        1 0.16810727E-01 0.94886439E+02</pdfrwt>
<pdfrwt beam="2">  1       -1 0.99470440E-01 0.94886439E+02</pdfrwt>
<totfact> 0.33014286E+02</totfact>
</mgrwt>
</event>
<event>
 8    1  0.5224537E-004  0.1340476E+03  0.7546771E-02  0.1221821E+00
         -1   -1    0    0    0  501 -0.00000000000E+00  0.00000000000E+00  0.15694185269E+03  0.15694185269E+03  0.00000000000E+00 0.  1.
          1   -1    0    0  501    0  0.00000000000E+00 -0.00000000000E+00 -0.15046543858E+03  0.15046543858E+03  0.00000000000E+00 0. -1.
         23    2    1    2    0    0  0.76978770660E+02 -0.60312807599E+02  0.79020832111E+02  0.15560539179E+03  0.91680860350E+02 0.  0.
         23    2    1    2    0    0 -0.76978770660E+02  0.60312807599E+02 -0.72544417998E+02  0.15180189948E+03  0.90651851670E+02 0.  0.
          5    1    3    3  502    0 -0.57489003476E+01 -0.47179278243E+02  0.14958828743E+02  0.50047884152E+02  0.47000000000E+01 0. -1.
         -5    1    3    3    0  502  0.82727671007E+02 -0.13133529356E+02  0.64062003368E+02  0.10555750764E+03  0.47000000000E+01 0.  1.
          5    1    4    4  503    0 -0.85387097124E+02  0.15612138277E+02 -0.54752561423E+02  0.10273572017E+03  0.47000000000E+01 0. -1.
         -5    1    4    4    0  503  0.84083264647E+01  0.44700669322E+02 -0.17791856575E+02  0.49066179311E+02  0.47000000000E+01 0.  1.
<mgrwt>
<rscale>  0 0.13387179E+03</rscale>
<asrwt>0</asrwt>
<pdfrwt beam="1">  1        1 0.23148529E-01 0.13404755E+03</pdfrwt>
<pdfrwt beam="2">  1       -1 0.24144900E-01 0.13404755E+03</pdfrwt>
<totfact> 0.30109494E+03</totfact>
</mgrwt>
</event>
<event>
 8    1  0.5224537E-004  0.1211952E+03  0.7546771E-02  0.1242994E+00
         -1   -1    0    0    0  501 -0.00000000000E+00  0.00000000000E+00  0.39321888474E+02  0.39321888474E+02  0.00000000000E+00 0.  1.
          1   -1    0    0  501    0  0.00000000000E+00 -0.00000000000E+00 -0.39005930190E+03  0.39005930190E+03  0.00000000000E+00 0. -1.
         23    2    1    2    0    0 -0.21948534840E+02 -0.66557450399E+02 -0.23809783817E+03  0.26716823233E+03  0.98876951006E+02 0.  0.
         23    2    1    2    0    0  0.21948534840E+02  0.66557450399E+02 -0.11263957526E+03  0.16221295804E+03  0.93347401988E+02 0.  0.
          5    1    3    3  502    0 -0.34080640333E+02 -0.46317057152E+02 -0.46600203038E+02  0.74164875459E+02  0.47000000000E+01 0. -1.
         -5    1    3    3    0  502  0.12132105493E+02 -0.20240393247E+02 -0.19149763513E+03  0.19300335687E+03  0.47000000000E+01 0.  1.
          5    1    4    4  503    0 -0.21650546975E+02 -0.12924547558E+02 -0.29817959291E+02  0.39331804055E+02  0.47000000000E+01 0. -1.
         -5    1    4    4    0  503  0.43599081815E+02  0.79481997957E+02 -0.82821615965E+02  0.12288115399E+03  0.47000000000E+01 0.  1.
<mgrwt>
<rscale>  0 0.12006258E+03</rscale>
<asrwt>0</asrwt>
<pdfrwt beam="1">  1        1 0.60009124E-01 0.12119523E+03</pdfrwt>
<pdfrwt beam="2">  1       -1 0.60495213E-02 0.12119523E+03</pdfrwt>
<totfact> 0.78108865E+03</totfact>
</mgrwt>
</event>
<event>
 8    1  0.5224537E-004  0.9211281E+02  0.7546771E-02  0.1300808E+00
         -3   -1    0    0    0  501 -0.00000000000E+00  0.00000000000E+00  0.31721612768E+02  0.31721612768E+02  0.00000000000E+00 0.  1.
          3   -1    0    0  501    0  0.00000000000E+00 -0.00000000000E+00 -0.25495315079E+03  0.25495315079E+03  0.00000000000E+00 0. -1.
         23    2    1    2    0    0  0.24632485541E+02  0.24472964515E+02 -0.12623842859E+03  0.15627191147E+03  0.85317548754E+02 0.  0.
         23    2    1    2    0    0 -0.24632485541E+02 -0.24472964515E+02 -0.96993109431E+02  0.13040285209E+03  0.79947202696E+02 0.  0.
          5    1    4    4  502    0 -0.11077260612E+02  0.26714063706E+02 -0.56258838428E+02  0.63431016101E+02  0.47000000000E+01 0. -1.
         -5    1    4    4    0  502 -0.13555224929E+02 -0.51187028222E+02 -0.40734271004E+02  0.66971835985E+02  0.47000000000E+01 0.  1.
          5    1    3    3  503    0 -0.25106382497E+02 -0.13815827844E+02 -0.43749793219E+02  0.52510398473E+02  0.47000000000E+01 0. -1.
         -5    1    3    3    0  503  0.49738868038E+02  0.38288792359E+02 -0.82488635367E+02  0.10376151299E+03  0.47000000000E+01 0.  1.
<mgrwt>
<rscale>  0 0.90849387E+02</rscale>
<asrwt>0</asrwt>
<pdfrwt beam="1">  1        3 0.39223562E-01 0.92112808E+02</pdfrwt>
<pdfrwt beam="2">  1       -3 0.48802480E-02 0.92112808E+02</pdfrwt>
<totfact> 0.32319387E+03</totfact>
</mgrwt>
</event>
<event>
 8    1  0.5224537E-004  0.1058051E+03  0.7546771E-02  0.1272680E+00
          2   -1    0    0  501    0  0.00000000000E+00  0.00000000000E+00  0.16918207827E+03  0.16918207827E+03  0.00000000000E+00 0. -1.
         -2   -1    0    0    0  501 -0.00000000000E+00 -0.00000000000E+00 -0.68953461887E+02  0.68953461887E+02  0.00000000000E+00 0.  1.
         23    2    1    2    0    0 -0.13760692443E+02 -0.28073013210E+02  0.11948411006E+02  0.10647766428E+03  0.10108055074E+03 0.  0.
         23    2    1    2    0    0  0.13760692443E+02  0.28073013210E+02  0.88280205380E+02  0.13165787588E+03  0.92536213946E+02 0.  0.
          5    1    3    3  502    0  0.19248770282E+02 -0.43436868402E+02 -0.25423917713E+02  0.54090131132E+02  0.47000000000E+01 0. -1.
         -5    1    3    3    0  502 -0.33009462725E+02  0.15363855192E+02  0.37372328719E+02  0.52387533151E+02  0.47000000000E+01 0.  1.
          5    1    4    4  503    0  0.16149442492E+02  0.49967285517E+02  0.94572269453E+02  0.10827528926E+03  0.47000000000E+01 0. -1.
         -5    1    4    4    0  503 -0.23887500499E+01 -0.21894272307E+02 -0.62920640728E+01  0.23382586618E+02  0.47000000000E+01 0.  1.
<mgrwt>
<rscale>  0 0.10371126E+03</rscale>
<asrwt>0</asrwt>
<pdfrwt beam="1">  1        2 0.26028012E-01 0.10580514E+03</pdfrwt>
<pdfrwt beam="2">  1       -2 0.10608225E-01 0.10580514E+03</pdfrwt>
<totfact> 0.11405479E+04</totfact>
</mgrwt>
</event>
<event>
 8    1  0.5224537E-004  0.1096646E+03  0.7546771E-02  0.1267584E+00
          1   -1    0    0  501    0  0.00000000000E+00  0.00000000000E+00  0.55729636999E+02  0.55729636999E+02  0.00000000000E+00 0. -1.
         -1   -1    0    0    0  501 -0.00000000000E+00 -0.00000000000E+00 -0.19353855797E+03  0.19353855797E+03  0.00000000000E+00 0.  1.
         23    2    1    2    0    0 -0.15953905366E+02 -0.28407188863E+02 -0.51086415065E+02  0.10945717696E+03  0.91156767765E+02 0.  0.
         23    2    1    2    0    0  0.15953905366E+02  0.28407188863E+02 -0.86722505911E+02  0.13981101801E+03  0.10471309493E+03 0.  0.
          5    1    4    4  502    0 -0.23178357465E+02 -0.29833440343E+02 -0.40897619462E+02  0.55874642685E+02  0.47000000000E+01 0. -1.
         -5    1    3    3    0  503  0.15117297094E+02  0.18605367218E+02 -0.46743939292E+02  0.52742565555E+02  0.47000000000E+01 0.  1.
          5    1    3    3  503    0 -0.31071202460E+02 -0.47012556081E+02 -0.43424757726E+01  0.56714611410E+02  0.47000000000E+01 0. -1.
         -5    1    4    4    0  502  0.39132262831E+02  0.58240629206E+02 -0.45824886449E+02  0.83936375324E+02  0.47000000000E+01 0.  1.
<mgrwt>
<rscale>  0 0.10629759E+03</rscale>
<asrwt>0</asrwt>
<pdfrwt beam="1">  1        1 0.85737906E-02 0.10966461E+03</pdfrwt>
<pdfrwt beam="2">  1       -1 0.29775162E-01 0.10966461E+03</pdfrwt>
<totfact> 0.76042726E+03</totfact>
</mgrwt>
</event>
<event>
 8    1  0.5224537E-004  0.9217454E+02  0.7546771E-02  0.1297680E+00
         -2   -1    0    0    0  501 -0.00000000000E+00  0.00000000000E+00  0.17234082723E+02  0.17234082723E+02  0.00000000000E+00 0.  1.
          2   -1    0    0  501    0  0.00000000000E+00 -0.00000000000E+00 -0.58057212940E+03  0.58057212940E+03  0.00000000000E+00 0. -1.
         23    2    1    2    0    0 -0.69192563651E+01  0.72053973197E+01 -0.39780778077E+03  0.40834272082E+03  0.91613063198E+02 0.  0.
         23    2    1    2    0    0  0.69192563651E+01 -0.72053973197E+01 -0.16553026591E+03  0.18946349130E+03  0.91631608877E+02 0.  0.
          5    1    4    4  502    0  0.37060213669E+02  0.54457897391E+01 -0.14663233523E+03  0.15141415984E+03  0.47000000000E+01 0. -1.
         -5    1    3    3    0  503 -0.43847526590E+02  0.10914587534E+02 -0.12534561198E+03  0.13332421480E+03  0.47000000000E+01 0.  1.
          5    1    3    3  503    0  0.36928270225E+02 -0.37091902141E+01 -0.27246216878E+03  0.27501850602E+03  0.47000000000E+01 0. -1.
         -5    1    4    4    0  502 -0.30140957304E+02 -0.12651187059E+02 -0.18897930676E+02  0.38049331466E+02  0.47000000000E+01 0.  1.
<mgrwt>
<rscale>  0 0.92169929E+02</rscale>
<asrwt>0</asrwt>
<pdfrwt beam="1">  1        2 0.89318780E-01 0.92174539E+02</pdfrwt>
<pdfrwt beam="2">  1       -2 0.26513976E-02 0.92174539E+02</pdfrwt>
<totfact> 0.24174369E+04</totfact>
</mgrwt>
</event>
<event>
 8    1  0.5224537E-004  0.1014986E+03  0.7546771E-02  0.1277665E+00
          2   -1    0    0  501    0  0.00000000000E+00  0.00000000000E+00  0.28071376653E+03  0.28071376653E+03  0.00000000000E+00 0. -1.
         -2   -1    0    0    0  501 -0.00000000000E+00 -0.00000000000E+00 -0.29300832903E+03  0.29300832903E+03  0.00000000000E+00 0.  1.
         23    2    1    2    0    0 -0.30578050896E+02 -0.28370322016E+02 -0.27462455207E+03  0.29278083773E+03  0.92531518815E+02 0.  0.
         23    2    1    2    0    0  0.30578050896E+02  0.28370322016E+02  0.26232998956E+03  0.28094125783E+03  0.91493576623E+02 0.  0.
          5    1    3    3  502    0  0.76297296674E+00  0.23215356069E+02 -0.19855925230E+02  0.30917351955E+02  0.47000000000E+01 0. -1.
         -5    1    3    3    0  502 -0.31341023863E+02 -0.51585678085E+02 -0.25476862684E+03  0.26186348577E+03  0.47000000000E+01 0.  1.
          5    1    4    4  503    0  0.37479284352E+02 -0.17923984592E+02  0.19081471072E+03  0.19534152095E+03  0.47000000000E+01 0. -1.
         -5    1    4    4    0  503 -0.69012334555E+01  0.46294306608E+02  0.71515278841E+02  0.85599736888E+02  0.47000000000E+01 0.  1.
<mgrwt>
<rscale>  0 0.10126148E+03</rscale>
<asrwt>0</asrwt>
<pdfrwt beam="1">  1        2 0.43186733E-01 0.10149864E+03</pdfrwt>
<pdfrwt beam="2">  1       -2 0.45078204E-01 0.10149864E+03</pdfrwt>
<totfact> 0.55298785E+02</totfact>
</mgrwt>
</event>
<event>
 8    1  0.5224537E-004  0.1861166E+03  0.7546771E-02  0.1162236E+00
         -2   -1    0    0    0  501 -0.00000000000E+00  0.00000000000E+00  0.72193061032E+03  0.72193061032E+03  0.00000000000E+00 0.  1.
          2   -1    0    0  501    0  0.00000000000E+00 -0.00000000000E+00 -0.47912183092E+02  0.47912183092E+02  0.00000000000E+00 0. -1.
         23    2    1    2    0    0  0.15595994223E+03  0.42176421145E+02  0.31258390817E+03  0.36330337091E+03  0.90433874101E+02 0.  0.
         23    2    1    2    0    0 -0.15595994223E+03 -0.42176421145E+02  0.36143451906E+03  0.40653942251E+03  0.92396084349E+02 0.  0.
          5    1    4    4  502    0 -0.98667687902E+02  0.13627031076E+02  0.14701494093E+03  0.17764146889E+03  0.47000000000E+01 0. -1.
         -5    1    3    3    0  503  0.40050847242E+02 -0.26180929867E+02  0.58273384034E+02  0.75547261633E+02  0.47000000000E+01 0.  1.
          5    1    3    3  503    0  0.11590909499E+03  0.68357351012E+02  0.25431052414E+03  0.28775610927E+03  0.47000000000E+01 0. -1.
         -5    1    4    4    0  502 -0.57292254328E+02 -0.55803452221E+02  0.21441957813E+03  0.22889795362E+03  0.47000000000E+01 0.  1.
<mgrwt>
<rscale>  0 0.18587456E+03</rscale>
<asrwt>0</asrwt>
<pdfrwt beam="1">  1        2 0.73711056E-02 0.18611660E+03</pdfrwt>
<pdfrwt beam="2">  1       -2 0.11106624E+00 0.18611660E+03</pdfrwt>
<totfact> 0.62579701E+02</totfact>
</mgrwt>
</event>
<event>
 8    1  0.5224537E-004  0.1149800E+03  0.7546771E-02  0.1252112E+00
          1   -1    0    0  501    0  0.00000000000E+00  0.00000000000E+00  0.10374168625E+03  0.10374168625E+03  0.00000000000E+00 0. -1.
         -1   -1    0    0    0  501 -0.00000000000E+00 -0.00000000000E+00 -0.12781774039E+03  0.12781774039E+03  0.00000000000E+00 0.  1.
         23    2    1    2    0    0 -0.61761242242E+02  0.26733597869E+02  0.98530072277E+00  0.11498425573E+03  0.93226991529E+02 0.  0.
         23    2    1    2    0    0  0.61761242242E+02 -0.26733597869E+02 -0.25061354863E+02  0.11657517091E+03  0.91828985986E+02 0.  0.
          5    1    4    4  502    0  0.31208549912E+02 -0.13254640929E+02  0.34201657069E+02  0.48389073560E+02  0.47000000000E+01 0. -1.
         -5    1    4    4    0  502  0.30552692330E+02 -0.13478956940E+02 -0.59263011932E+02  0.68186097351E+02  0.47000000000E+01 0.  1.
          5    1    3    3  503    0 -0.54886128559E+01  0.45102939442E+02 -0.22756327905E+02  0.51032739267E+02  0.47000000000E+01 0. -1.
         -5    1    3    3    0  503 -0.56272629386E+02 -0.18369341573E+02  0.23741628627E+02  0.63951516461E+02  0.47000000000E+01 0.  1.
<mgrwt>
<rscale>  0 0.11469634E+03</rscale>
<asrwt>0</asrwt>
<pdfrwt beam="1">  1        1 0.15960259E-01 0.11498003E+03</pdfrwt>
<pdfrwt beam="2">  1       -1 0.19664268E-01 0.11498003E+03</pdfrwt>
<totfact> 0.66653311E+03</totfact>
</mgrwt>
</event>
<event>
 8    1  0.5224537E-004  0.9906911E+02  0.7546771E-02  0.1286556E+00
         -1   -1    0    0    0  501 -0.00000000000E+00  0.00000000000E+00  0.12053683147E+03  0.12053683147E+03  0.00000000000E+00 0.  1.
          1   -1    0    0  501    0  0.00000000000E+00 -0.00000000000E+00 -0.10060851509E+03  0.10060851509E+03  0.00000000000E+00 0. -1.
         23    2    1    2    0    0  0.13304072581E+02  0.14638441608E+02  0.65187756174E+02  0.11222746293E+03  0.89186756643E+02 0.  0.
         23    2    1    2    0    0 -0.13304072581E+02 -0.14638441608E+02 -0.45259439798E+02  0.10891788363E+03  0.97074230176E+02 0.  0.
          5    1    3    3  502    0 -0.22699424869E+02  0.18920183277E+02 -0.75134581494E+01  0.30850920213E+02  0.47000000000E+01 0. -1.
         -5    1    3    3    0  502  0.36003497450E+02 -0.42817416689E+01  0.72701214323E+02  0.81376542716E+02  0.47000000000E+01 0.  1.
          5    1    4    4  503    0 -0.52069037231E+02 -0.19764166979E+02 -0.40973179784E+02  0.69301503563E+02  0.47000000000E+01 0. -1.
         -5    1    4    4    0  503  0.38764964650E+02  0.51257253711E+01 -0.42862600139E+01  0.39616380070E+02  0.47000000000E+01 0.  1.
<mgrwt>
<rscale>  0 0.97081310E+02</rscale>
<asrwt>0</asrwt>
<pdfrwt beam="1">  1        1 0.15478233E-01 0.99069110E+02</pdfrwt>
<pdfrwt beam="2">  1       -1 0.18544128E-01 0.99069110E+02</pdfrwt>
<totfact> 0.75198780E+03</totfact>
</mgrwt>
</event>
<event>
 8    1  0.5224537E-004  0.9703616E+02  0.7546771E-02  0.1287714E+00
          4   -1    0    0  501    0  0.00000000000E+00  0.00000000000E+00  0.37927719901E+02  0.37927719901E+02  0.00000000000E+00 0. -1.
         -4   -1    0    0    0  501 -0.00000000000E+00 -0.00000000000E+00 -0.24788240504E+03  0.24788240504E+03  0.00000000000E+00 0.  1.
         23    2    1    2    0    0 -0.30673125836E+02  0.42945624541E+01 -0.86760732570E+02  0.13016697131E+03  0.91960490371E+02 0.  0.
         23    2    1    2    0    0  0.30673125836E+02 -0.42945624541E+01 -0.12319395257E+03  0.15564315363E+03  0.89937519462E+02 0.  0.
          5    1    4    4  502    0 -0.15759523004E+02 -0.25386953285E+02 -0.89159503405E+02  0.94150767442E+02  0.47000000000E+01 0. -1.
         -5    1    4    4    0  502  0.46432648840E+02  0.21092390830E+02 -0.34034449167E+02  0.61492386190E+02  0.47000000000E+01 0.  1.
          5    1    3    3  503    0 -0.46961338639E+02  0.31824654572E+02 -0.28789463601E+02  0.63789491139E+02  0.47000000000E+01 0. -1.
         -5    1    3    3    0  503  0.16288212803E+02 -0.27530092117E+02 -0.57971268969E+02  0.66377480174E+02  0.47000000000E+01 0.  1.
<mgrwt>
<rscale>  0 0.96553831E+02</rscale>
<asrwt>0</asrwt>
<pdfrwt beam="1">  1        4 0.58350337E-02 0.97036157E+02</pdfrwt>
<pdfrwt beam="2">  1       -4 0.38135756E-01 0.97036157E+02</pdfrwt>
<totfact> 0.18841868E+03</totfact>
</mgrwt>
</event>
<event>
 8    1  0.5224537E-004  0.1019683E+03  0.7546771E-02  0.1276898E+00
          1   -1    0    0  501    0  0.00000000000E+00  0.00000000000E+00  0.20213377022E+03  0.20213377022E+03  0.00000000000E+00 0. -1.
         -1   -1    0    0    0  501 -0.00000000000E+00 -0.00000000000E+00 -0.50823022674E+02  0.50823022674E+02  0.00000000000E+00 0.  1.
         23    2    1    2    0    0 -0.14316043591E+02  0.35871205032E+02  0.79286524200E+02  0.12811676418E+03  0.92929327390E+02 0.  0.
         23    2    1    2    0    0  0.14316043591E+02 -0.35871205032E+02  0.72024223347E+02  0.12484002872E+03  0.94370819466E+02 0.  0.
          5    1    3    3  502    0 -0.27900250928E+02 -0.23742686532E+02  0.43693883360E+02  0.57213500231E+02  0.47000000000E+01 0. -1.
         -5    1    3    3    0  502  0.13584207337E+02  0.59613891564E+02  0.35592640840E+02  0.70903263947E+02  0.47000000000E+01 0.  1.
          5    1    4    4  503    0  0.40210807157E+02 -0.47658046028E+02  0.72829804052E+02  0.95992024261E+02  0.47000000000E+01 0. -1.
         -5    1    4    4    0  503 -0.25894763566E+02  0.11786840996E+02 -0.80558070512E+00  0.28848004456E+02  0.47000000000E+01 0.  1.
<mgrwt>
<rscale>  0 0.10163355E+03</rscale>
<asrwt>0</asrwt>
<pdfrwt beam="1">  1        1 0.31097503E-01 0.10196835E+03</pdfrwt>
<pdfrwt beam="2">  1       -1 0.78189267E-02 0.10196835E+03</pdfrwt>
<totfact> 0.11819833E+04</totfact>
</mgrwt>
</event>
<event>
 8    1  0.5224537E-004  0.1001396E+03  0.7546771E-02  0.1280631E+00
          1   -1    0    0  501    0  0.00000000000E+00  0.00000000000E+00  0.54625408804E+03  0.54625408804E+03  0.00000000000E+00 0. -1.
         -1   -1    0    0    0  501 -0.00000000000E+00 -0.00000000000E+00 -0.29696694879E+02  0.29696694879E+02  0.00000000000E+00 0.  1.
         23    2    1    2    0    0 -0.37071995234E+02  0.98898978089E+01  0.77695111404E+02  0.12580853352E+03  0.91209176402E+02 0.  0.
         23    2    1    2    0    0  0.37071995234E+02 -0.98898978089E+01  0.43886228175E+03  0.45014224940E+03  0.92497564503E+02 0.  0.
          5    1    3    3  502    0  0.23947304269E+02  0.22274157394E+02  0.43475438194E+02  0.54605999629E+02  0.47000000000E+01 0. -1.
         -5    1    3    3    0  502 -0.61019299503E+02 -0.12384259585E+02  0.34219673210E+02  0.71202533887E+02  0.47000000000E+01 0.  1.
          5    1    4    4  503    0  0.50078213545E+02  0.29528867272E+02  0.24942970017E+03  0.25615824562E+03  0.47000000000E+01 0. -1.
         -5    1    4    4    0  503 -0.13006218312E+02 -0.39418765081E+02  0.18943258158E+03  0.19398400377E+03  0.47000000000E+01 0.  1.
<mgrwt>
<rscale>  0 0.99841073E+02</rscale>
<asrwt>0</asrwt>
<pdfrwt beam="1">  1        1 0.84039083E-01 0.10013961E+03</pdfrwt>
<pdfrwt beam="2">  1       -1 0.45687227E-02 0.10013961E+03</pdfrwt>
<totfact> 0.75801285E+03</totfact>
</mgrwt>
</event>
<event>
 8    1  0.5224537E-004  0.1024265E+03  0.7546771E-02  0.1275496E+00
         -1   -1    0    0    0  501 -0.00000000000E+00  0.00000000000E+00  0.72202012971E+02  0.72202012971E+02  0.00000000000E+00 0.  1.
          1   -1    0    0  501    0  0.00000000000E+00 -0.00000000000E+00 -0.14546412865E+03  0.14546412865E+03  0.00000000000E+00 0. -1.
         23    2    1    2    0    0 -0.17449087841E+02  0.46230056519E+02 -0.44503735466E+02  0.11127895708E+03  0.89222951231E+02 0.  0.
         23    2    1    2    0    0  0.17449087841E+02 -0.46230056519E+02 -0.28758380212E+02  0.10638718454E+03  0.89719004727E+02 0.  0.
          5    1    3    3  502    0  0.27702977158E+01 -0.24378911425E+02 -0.24548067519E+02  0.35024327126E+02  0.47000000000E+01 0. -1.
         -5    1    3    3    0  502 -0.20219385557E+02  0.70608967944E+02 -0.19955667947E+02  0.76254629955E+02  0.47000000000E+01 0.  1.
          5    1    4    4  503    0 -0.19412915418E+01 -0.70633939277E+02 -0.17856019982E+02  0.73033207791E+02  0.47000000000E+01 0. -1.
         -5    1    4    4    0  503  0.19390379383E+02  0.24403882758E+02 -0.10902360230E+02  0.33353976747E+02  0.47000000000E+01 0.  1.
<mgrwt>
<rscale>  0 0.10231777E+03</rscale>
<asrwt>0</asrwt>
<pdfrwt beam="1">  1        1 0.22379096E-01 0.10242650E+03</pdfrwt>
<pdfrwt beam="2">  1       -1 0.11108002E-01 0.10242650E+03</pdfrwt>
<totfact> 0.10469930E+04</totfact>
</mgrwt>
</event>
<event>
 8    1  0.5224537E-004  0.9702209E+02  0.7546771E-02  0.1288661E+00
          2   -1    0    0  501    0  0.00000000000E+00  0.00000000000E+00  0.77205044300E+02  0.77205044300E+02  0.00000000000E+00 0. -1.
         -2   -1    0    0    0  501 -0.00000000000E+00 -0.00000000000E+00 -0.14211272623E+03  0.14211272623E+03  0.00000000000E+00 0.  1.
         23    2    1    2    0    0  0.85792290259E+01  0.30816488013E+02 -0.78560705813E+02  0.12484018147E+03  0.91597092237E+02 0.  0.
         23    2    1    2    0    0 -0.85792290259E+01 -0.30816488013E+02  0.13653023880E+02  0.94477589068E+02  0.87842761061E+02 0.  0.
          5    1    3    3  502    0 -0.14351816367E+02 -0.14749797132E+02  0.93540981201E+01  0.23089398002E+02  0.47000000000E+01 0. -1.
         -5    1    3    3    0  502  0.22931045393E+02  0.45566285146E+02 -0.87914803933E+02  0.10175078346E+03  0.47000000000E+01 0.  1.
          5    1    4    4  503    0 -0.14942746263E+02  0.27738720735E+02  0.15359808849E+02  0.35365746447E+02  0.47000000000E+01 0. -1.
         -5    1    4    4    0  503  0.63635172369E+01 -0.58555208748E+02 -0.17067849690E+01  0.59111842621E+02  0.47000000000E+01 0.  1.
<mgrwt>
<rscale>  0 0.96125693E+02</rscale>
<asrwt>0</asrwt>
<pdfrwt beam="1">  1        2 0.11877699E-01 0.97022092E+02</pdfrwt>
<pdfrwt beam="2">  1       -2 0.21863496E-01 0.97022092E+02</pdfrwt>
<totfact> 0.85205251E+03</totfact>
</mgrwt>
</event>
<event>
 8    1  0.5224537E-004  0.1121654E+03  0.7546771E-02  0.1259445E+00
          2   -1    0    0  501    0  0.00000000000E+00  0.00000000000E+00  0.19690547021E+03  0.19690547021E+03  0.00000000000E+00 0. -1.
         -2   -1    0    0    0  501 -0.00000000000E+00 -0.00000000000E+00 -0.80215605346E+02  0.80215605346E+02  0.00000000000E+00 0.  1.
         23    2    1    2    0    0  0.41877395257E+02  0.37112197021E+01  0.12830061937E+03  0.17041749571E+03  0.10398838651E+03 0.  0.
         23    2    1    2    0    0 -0.41877395257E+02 -0.37112197021E+01 -0.11610754508E+02  0.10670357984E+03  0.97382518686E+02 0.  0.
          5    1    3    3  502    0  0.55505341636E+02 -0.36167469737E+02  0.57296212640E+02  0.87714735365E+02  0.47000000000E+01 0. -1.
         -5    1    3    3    0  502 -0.13627946379E+02  0.39878689439E+02  0.71004406728E+02  0.82702760345E+02  0.47000000000E+01 0.  1.
          5    1    4    4  503    0 -0.46036065599E+02 -0.32543832796E+02  0.23133349673E+02  0.61120064267E+02  0.47000000000E+01 0. -1.
         -5    1    4    4    0  503  0.41586703425E+01  0.28832613094E+02 -0.34744104181E+02  0.45583515575E+02  0.47000000000E+01 0.  1.
<mgrwt>
<rscale>  0 0.11060946E+03</rscale>
<asrwt>0</asrwt>
<pdfrwt beam="1">  1        2 0.30293149E-01 0.11216539E+03</pdfrwt>
<pdfrwt beam="2">  1       -2 0.12340862E-01 0.11216539E+03</pdfrwt>
<totfact> 0.76561165E+03</totfact>
</mgrwt>
</event>
<event>
 8    1  0.5224537E-004  0.9264185E+02  0.7546771E-02  0.1298183E+00
          1   -1    0    0  501    0  0.00000000000E+00  0.00000000000E+00  0.48322843032E+03  0.48322843032E+03  0.00000000000E+00 0. -1.
         -1   -1    0    0    0  501 -0.00000000000E+00 -0.00000000000E+00 -0.31943116056E+02  0.31943116056E+02  0.00000000000E+00 0.  1.
         23    2    1    2    0    0 -0.34234288817E+01  0.13121566302E+02  0.49111054822E+02  0.10246505527E+03  0.88900486373E+02 0.  0.
         23    2    1    2    0    0  0.34234288817E+01 -0.13121566302E+02  0.40217425944E+03  0.41270649111E+03  0.91643971323E+02 0.  0.
          5    1    3    3  502    0  0.32699001142E+02 -0.21678747097E+02  0.20124144956E+02  0.44342575045E+02  0.47000000000E+01 0. -1.
         -5    1    3    3    0  502 -0.36122430024E+02  0.34800313398E+02  0.28986909866E+02  0.58122480221E+02  0.47000000000E+01 0.  1.
          5    1    4    4  503    0 -0.22178194263E+02 -0.45120480508E+02  0.24947189775E+03  0.25453103510E+03  0.47000000000E+01 0. -1.
         -5    1    4    4    0  503  0.25601623145E+02  0.31998914206E+02  0.15270236170E+03  0.15817545602E+03  0.47000000000E+01 0.  1.
<mgrwt>
<rscale>  0 0.91956015E+02</rscale>
<asrwt>0</asrwt>
<pdfrwt beam="1">  1        1 0.74342830E-01 0.92641853E+02</pdfrwt>
<pdfrwt beam="2">  1       -1 0.49143259E-02 0.92641853E+02</pdfrwt>
<totfact> 0.79408435E+03</totfact>
</mgrwt>
</event>
<event>
 8    1  0.5224537E-004  0.1284780E+03  0.7546771E-02  0.1229778E+00
          1   -1    0    0  501    0  0.00000000000E+00  0.00000000000E+00  0.30884313834E+03  0.30884313834E+03  0.00000000000E+00 0. -1.
         -1   -1    0    0    0  501 -0.00000000000E+00 -0.00000000000E+00 -0.31851045962E+03  0.31851045962E+03  0.00000000000E+00 0.  1.
         23    2    1    2    0    0  0.28191052513E+02  0.84555111307E+02 -0.29101278144E+03  0.31811166939E+03  0.92532658851E+02 0.  0.
         23    2    1    2    0    0 -0.28191052513E+02 -0.84555111307E+02  0.28134546015E+03  0.30924192857E+03  0.92363413468E+02 0.  0.
          5    1    4    4  502    0  0.75920696471E+01 -0.43619660664E+02  0.23013946656E+03  0.23440686506E+03  0.47000000000E+01 0. -1.
         -5    1    3    3    0  503  0.53634704003E+02  0.78428039808E+02 -0.26210589334E+03  0.27883548595E+03  0.47000000000E+01 0.  1.
          5    1    3    3  503    0 -0.25443651490E+02  0.61270714987E+01 -0.28906888098E+02  0.39276183443E+02  0.47000000000E+01 0. -1.
         -5    1    4    4    0  502 -0.35783122160E+02 -0.40935450642E+02  0.51205993588E+02  0.74835063507E+02  0.47000000000E+01 0.  1.
<mgrwt>
<rscale>  0 0.12844752E+03</rscale>
<asrwt>0</asrwt>
<pdfrwt beam="1">  1        1 0.47514329E-01 0.12847800E+03</pdfrwt>
<pdfrwt beam="2">  1       -1 0.49001609E-01 0.12847800E+03</pdfrwt>
<totfact> 0.36578389E+02</totfact>
</mgrwt>
</event>
<event>
 8    1  0.5224537E-004  0.1195789E+03  0.7546771E-02  0.1243969E+00
         -2   -1    0    0    0  501 -0.00000000000E+00  0.00000000000E+00  0.66900336711E+03  0.66900336711E+03  0.00000000000E+00 0.  1.
          2   -1    0    0  501    0  0.00000000000E+00 -0.00000000000E+00 -0.81812284057E+02  0.81812284057E+02  0.00000000000E+00 0. -1.
         23    2    1    2    0    0  0.55146060125E+01  0.75961148357E+02 -0.29134867497E+02  0.12307707145E+03  0.92187949714E+02 0.  0.
         23    2    1    2    0    0 -0.55146060125E+01 -0.75961148357E+02  0.61632595055E+03  0.62773857972E+03  0.91638093656E+02 0.  0.
          5    1    4    4  502    0 -0.14446207178E+02  0.18582097834E+02  0.13329823204E+03  0.13544185442E+03  0.47000000000E+01 0. -1.
         -5    1    4    4    0  502  0.89316011653E+01 -0.94543246191E+02  0.48302771851E+03  0.49229672531E+03  0.47000000000E+01 0.  1.
          5    1    3    3  503    0  0.13667313742E+02  0.53066655466E+02 -0.61386626974E+02  0.82421316166E+02  0.47000000000E+01 0. -1.
         -5    1    3    3    0  503 -0.81527077292E+01  0.22894492890E+02  0.32251759477E+02  0.40655755280E+02  0.47000000000E+01 0.  1.
<mgrwt>
<rscale>  0 0.11947296E+03</rscale>
<asrwt>0</asrwt>
<pdfrwt beam="1">  1        2 0.12586506E-01 0.11957895E+03</pdfrwt>
<pdfrwt beam="2">  1       -2 0.10292359E+00 0.11957895E+03</pdfrwt>
<totfact> 0.38213814E+02</totfact>
</mgrwt>
</event>
<event>
 8    1  0.5224537E-004  0.1070252E+03  0.7546771E-02  0.1267903E+00
         -4   -1    0    0    0  501 -0.00000000000E+00  0.00000000000E+00  0.37654499655E+03  0.37654499655E+03  0.00000000000E+00 0.  1.
          4   -1    0    0  501    0  0.00000000000E+00 -0.00000000000E+00 -0.47480613960E+02  0.47480613960E+02  0.00000000000E+00 0. -1.
         23    2    1    2    0    0  0.47510600040E+01 -0.49979240575E+02  0.32100504382E+02  0.10836448095E+03  0.90509233181E+02 0.  0.
         23    2    1    2    0    0 -0.47510600040E+01  0.49979240575E+02  0.29696387820E+03  0.31566112955E+03  0.94519345604E+02 0.  0.
          5    1    4    4  502    0 -0.20297421752E+02  0.86125310513E+01  0.89778048124E+01  0.24266272893E+02  0.47000000000E+01 0. -1.
         -5    1    4    4    0  502  0.15546361748E+02  0.41366709524E+02  0.28798607339E+03  0.29139485666E+03  0.47000000000E+01 0.  1.
          5    1    3    3  503    0 -0.21189048449E+02 -0.62511714790E+02  0.41004415364E+02  0.77846916056E+02  0.47000000000E+01 0. -1.
         -5    1    3    3    0  503  0.25940108453E+02  0.12532474215E+02 -0.89039109812E+01  0.30517564897E+02  0.47000000000E+01 0.  1.
<mgrwt>
<rscale>  0 0.10613304E+03</rscale>
<asrwt>0</asrwt>
<pdfrwt beam="1">  1        4 0.73047101E-02 0.10702525E+03</pdfrwt>
<pdfrwt beam="2">  1       -4 0.57929998E-01 0.10702525E+03</pdfrwt>
<totfact> 0.57893433E+02</totfact>
</mgrwt>
</event>
<event>
 8    1  0.5224537E-004  0.1007979E+03  0.7546771E-02  0.1279558E+00
          3   -1    0    0  501    0  0.00000000000E+00  0.00000000000E+00  0.28452608514E+02  0.28452608514E+02  0.00000000000E+00 0. -1.
         -3   -1    0    0    0  501 -0.00000000000E+00 -0.00000000000E+00 -0.44528092396E+03  0.44528092396E+03  0.00000000000E+00 0.  1.
         23    2    1    2    0    0  0.27087471339E+02 -0.33343736884E+02 -0.31603918804E+03  0.33118999836E+03  0.89221694364E+02 0.  0.
         23    2    1    2    0    0 -0.27087471339E+02  0.33343736884E+02 -0.10078912741E+03  0.14254353411E+03  0.91184839863E+02 0.  0.
          5    1    4    4  502    0 -0.56657564749E+02  0.39052862314E+02 -0.58661756226E+02  0.90545553958E+02  0.47000000000E+01 0. -1.
         -5    1    4    4    0  502  0.29570093410E+02 -0.57091254294E+01 -0.42127371183E+02  0.51997980155E+02  0.47000000000E+01 0.  1.
          5    1    3    3  503    0 -0.27600309582E+02  0.73300058417E+01 -0.67729539484E+02  0.73653829455E+02  0.47000000000E+01 0. -1.
         -5    1    3    3    0  503  0.54687780921E+02 -0.40673742726E+02 -0.24830964855E+03  0.25753616891E+03  0.47000000000E+01 0.  1.
<mgrwt>
<rscale>  0 0.10035182E+03</rscale>
<asrwt>0</asrwt>
<pdfrwt beam="1">  1        3 0.43773242E-02 0.10079787E+03</pdfrwt>
<pdfrwt beam="2">  1       -3 0.68504761E-01 0.10079787E+03</pdfrwt>
<totfact> 0.12818481E+03</totfact>
</mgrwt>
</event>
<event>
 8    1  0.5224537E-004  0.1206851E+03  0.7546771E-02  0.1247454E+00
         -2   -1    0    0    0  501 -0.00000000000E+00  0.00000000000E+00  0.13557178722E+03  0.13557178722E+03  0.00000000000E+00 0. -1.
          2   -1    0    0  501    0  0.00000000000E+00 -0.00000000000E+00 -0.19243722529E+03  0.19243722529E+03  0.00000000000E+00 0.  1.
         23    2    1    2    0    0  0.58653504945E+02  0.15050777260E+02  0.86497834451E+02  0.14848152443E+03  0.10439410038E+03 0.  0.
         23    2    1    2    0    0 -0.58653504945E+02 -0.15050777260E+02 -0.14336327252E+03  0.17952748809E+03  0.89500455485E+02 0.  0.
          5    1    4    4  502    0  0.75114161831E+01 -0.28797390492E+02 -0.84757575615E+02  0.89953586345E+02  0.47000000000E+01 0. -1.
         -5    1    3    3    0  503 -0.11412427841E+02  0.32359824270E+02 -0.13888345230E+01  0.34661514643E+02  0.47000000000E+01 0.  1.
          5    1    3    3  503    0  0.70065932786E+02 -0.17309047010E+02  0.87886668974E+02  0.11382000979E+03  0.47000000000E+01 0. -1.
         -5    1    4    4    0  502 -0.66164921128E+02  0.13746613232E+02 -0.58605696905E+02  0.89573901740E+02  0.47000000000E+01 0.  1.
<mgrwt>
<rscale>  0 0.11739700E+03</rscale>
<asrwt>0</asrwt>
<pdfrwt beam="1">  1        2 0.29605727E-01 0.12068508E+03</pdfrwt>
<pdfrwt beam="2">  1       -2 0.20857198E-01 0.12068508E+03</pdfrwt>
<totfact> 0.33311715E+03</totfact>
</mgrwt>
</event>
<event>
 8    1  0.5224537E-004  0.1049797E+03  0.7546771E-02  0.1272773E+00
         -1   -1    0    0    0  501 -0.00000000000E+00  0.00000000000E+00  0.41055234402E+03  0.41055234402E+03  0.00000000000E+00 0.  1.
          1   -1    0    0  501    0  0.00000000000E+00 -0.00000000000E+00 -0.64688559569E+02  0.64688559569E+02  0.00000000000E+00 0. -1.
         23    2    1    2    0    0  0.29799496351E+02  0.41111285310E+02  0.35948278513E+03  0.37449781179E+03  0.91883570185E+02 0.  0.
         23    2    1    2    0    0 -0.29799496351E+02 -0.41111285310E+02 -0.13619000672E+02  0.10074309180E+03  0.85939197133E+02 0.  0.
          5    1    3    3  502    0  0.20268375106E+02 -0.12348653668E+02  0.22190708026E+02  0.32830074619E+02  0.47000000000E+01 0. -1.
         -5    1    3    3    0  502  0.95311212459E+01  0.53459938978E+02  0.33729207710E+03  0.34166773717E+03  0.47000000000E+01 0.  1.
          5    1    4    4  503    0  0.59619758936E+01 -0.34013019502E+02 -0.41800870130E+02  0.54422728669E+02  0.47000000000E+01 0. -1.
         -5    1    4    4    0  503 -0.35761472245E+02 -0.70982658085E+01  0.28181869458E+02  0.46320363133E+02  0.47000000000E+01 0.  1.
<mgrwt>
<rscale>  0 0.10366486E+03</rscale>
<asrwt>0</asrwt>
<pdfrwt beam="1">  1        1 0.99520863E-02 0.10497970E+03</pdfrwt>
<pdfrwt beam="2">  1       -1 0.63161897E-01 0.10497970E+03</pdfrwt>
<totfact> 0.16400290E+03</totfact>
</mgrwt>
</event>
<event>
 8    1  0.5224537E-004  0.9227175E+02  0.7546771E-02  0.1297800E+00
         -2   -1    0    0    0  501 -0.00000000000E+00  0.00000000000E+00  0.12179837384E+02  0.12179837384E+02  0.00000000000E+00 0.  1.
          2   -1    0    0  501    0  0.00000000000E+00 -0.00000000000E+00 -0.76221359216E+03  0.76221359216E+03  0.00000000000E+00 0. -1.
         23    2    1    2    0    0  0.88210847434E+01 -0.41378469285E+01 -0.48936079729E+03  0.49787133922E+03  0.91142455415E+02 0.  0.
         23    2    1    2    0    0 -0.88210847434E+01  0.41378469285E+01 -0.26067295748E+03  0.27652209032E+03  0.91755884603E+02 0.  0.
          5    1    4    4  502    0 -0.48569223340E+02 -0.72141676934E+01 -0.16449442668E+03  0.17173095260E+03  0.47000000000E+01 0. -1.
         -5    1    3    3    0  503  0.24163055450E+02 -0.42754427286E+02 -0.29076471875E+03  0.29492033835E+03  0.47000000000E+01 0.  1.
          5    1    3    3  503    0 -0.15341970706E+02  0.38616580357E+02 -0.19859607855E+03  0.20295100088E+03  0.47000000000E+01 0. -1.
         -5    1    4    4    0  502  0.39748138597E+02  0.11352014622E+02 -0.96178530801E+02  0.10479113772E+03  0.47000000000E+01 0.  1.
<mgrwt>
<rscale>  0 0.92118875E+02</rscale>
<asrwt>0</asrwt>
<pdfrwt beam="1">  1        2 0.11726361E+00 0.92271749E+02</pdfrwt>
<pdfrwt beam="2">  1       -2 0.18738214E-02 0.92271749E+02</pdfrwt>
<totfact> 0.29139394E+04</totfact>
</mgrwt>
</event>
<event>
 8    1  0.5224537E-004  0.1336464E+03  0.7546771E-02  0.1222793E+00
         -2   -1    0    0    0  501 -0.00000000000E+00  0.00000000000E+00  0.11127147969E+03  0.11127147969E+03  0.00000000000E+00 0.  1.
          2   -1    0    0  501    0  0.00000000000E+00 -0.00000000000E+00 -0.19336494631E+03  0.19336494631E+03  0.00000000000E+00 0. -1.
         23    2    1    2    0    0  0.44077927686E+02  0.86822721685E+02  0.23530362567E+02  0.13570204464E+03  0.91544078169E+02 0.  0.
         23    2    1    2    0    0 -0.44077927686E+02 -0.86822721685E+02 -0.10562382918E+03  0.16893438136E+03  0.88889724964E+02 0.  0.
          5    1    4    4  502    0 -0.41595387816E+01 -0.40606617330E+02 -0.99170864966E+02  0.10734593421E+03  0.47000000000E+01 0. -1.
         -5    1    4    4    0  502 -0.39918388904E+02 -0.46216104355E+02 -0.64529642127E+01  0.61588447144E+02  0.47000000000E+01 0.  1.
          5    1    3    3  503    0  0.47815407467E+02  0.23047833195E+02 -0.21436090910E+02  0.57437895154E+02  0.47000000000E+01 0. -1.
         -5    1    3    3    0  503 -0.37374797808E+01  0.63774888490E+02  0.44966453476E+02  0.78264149489E+02  0.47000000000E+01 0.  1.
<mgrwt>
<rscale>  0 0.13319313E+03</rscale>
<asrwt>0</asrwt>
<pdfrwt beam="1">  1        2 0.29748453E-01 0.13364643E+03</pdfrwt>
<pdfrwt beam="2">  1       -2 0.17118689E-01 0.13364643E+03</pdfrwt>
<totfact> 0.46427897E+03</totfact>
</mgrwt>
</event>
<event>
 8    1  0.5224537E-004  0.1082450E+03  0.7546771E-02  0.1265909E+00
          2   -1    0    0  501    0  0.00000000000E+00  0.00000000000E+00  0.20671159022E+03  0.20671159022E+03  0.00000000000E+00 0. -1.
         -2   -1    0    0    0  501 -0.00000000000E+00 -0.00000000000E+00 -0.99908034026E+02  0.99908034026E+02  0.00000000000E+00 0.  1.
         23    2    1    2    0    0 -0.17009190861E+02 -0.45574861650E+02 -0.50549633857E+02  0.11563008772E+03  0.91916653090E+02 0.  0.
         23    2    1    2    0    0  0.17009190861E+02  0.45574861650E+02  0.15735319005E+03  0.19098953652E+03  0.96698480104E+02 0.  0.
          5    1    4    4  502    0  0.43866577435E+02  0.22772877524E+02  0.14515518204E+03  0.15341120376E+03  0.47000000000E+01 0. -1.
         -5    1    4    4    0  502 -0.26857386574E+02  0.22801984126E+02  0.12198008008E+02  0.37578332760E+02  0.47000000000E+01 0.  1.
          5    1    3    3  503    0 -0.36862575832E+02 -0.33649457108E+02  0.95657782456E+01  0.51036551354E+02  0.47000000000E+01 0. -1.
         -5    1    3    3    0  503  0.19853384971E+02 -0.11925404542E+02 -0.60115412102E+02  0.64593536368E+02  0.47000000000E+01 0.  1.
<mgrwt>
<rscale>  0 0.10716659E+03</rscale>
<asrwt>0</asrwt>
<pdfrwt beam="1">  1        2 0.31801783E-01 0.10824498E+03</pdfrwt>
<pdfrwt beam="2">  1       -2 0.15370467E-01 0.10824498E+03</pdfrwt>
<totfact> 0.50893278E+03</totfact>
</mgrwt>
</event>
<event>
 8    1  0.5224537E-004  0.9808116E+02  0.7546771E-02  0.1284947E+00
          1   -1    0    0  501    0  0.00000000000E+00  0.00000000000E+00  0.10315713771E+03  0.10315713771E+03  0.00000000000E+00 0. -1.
         -1   -1    0    0    0  501 -0.00000000000E+00 -0.00000000000E+00 -0.14662078789E+03  0.14662078789E+03  0.00000000000E+00 0.  1.
         23    2    1    2    0    0 -0.93651773509E+01  0.34391686233E+02  0.54378358180E+02  0.11123922326E+03  0.90258873939E+02 0.  0.
         23    2    1    2    0    0  0.93651773509E+01 -0.34391686233E+02 -0.97842008362E+02  0.13853870234E+03  0.91375154271E+02 0.  0.
          5    1    4    4  502    0 -0.27021986852E+02  0.17321098432E+02 -0.47781559682E+02  0.57752711364E+02  0.47000000000E+01 0. -1.
         -5    1    3    3    0  503  0.27591048840E+02  0.44257178964E+01 -0.10869822947E+02  0.30349563521E+02  0.47000000000E+01 0.  1.
          5    1    3    3  503    0 -0.36956226191E+02  0.29965968337E+02  0.65248181128E+02  0.80889659741E+02  0.47000000000E+01 0. -1.
         -5    1    4    4    0  502  0.36387164203E+02 -0.51712784665E+02 -0.50060448680E+02  0.80785990980E+02  0.47000000000E+01 0.  1.
<mgrwt>
<rscale>  0 0.97820341E+02</rscale>
<asrwt>0</asrwt>
<pdfrwt beam="1">  1        1 0.15870329E-01 0.98081157E+02</pdfrwt>
<pdfrwt beam="2">  1       -1 0.22557044E-01 0.98081157E+02</pdfrwt>
<totfact> 0.53239168E+03</totfact>
</mgrwt>
</event>
<event>
 8    1  0.5224537E-004  0.1192698E+03  0.7546771E-02  0.1244757E+00
         -2   -1    0    0    0  501 -0.00000000000E+00  0.00000000000E+00  0.40141065060E+02  0.40141065060E+02  0.00000000000E+00 0.  1.
          2   -1    0    0  501    0  0.00000000000E+00 -0.00000000000E+00 -0.45698462219E+03  0.45698462219E+03  0.00000000000E+00 0. -1.
         23    2    1    2    0    0  0.73226619014E+02 -0.21589031270E+02 -0.88099338903E+02  0.14741431734E+03  0.90228950109E+02 0.  0.
         23    2    1    2    0    0 -0.73226619014E+02  0.21589031270E+02 -0.32874421823E+03  0.34971136991E+03  0.91635458336E+02 0.  0.
          5    1    4    4  502    0 -0.38556938278E+02  0.14411744068E+02 -0.30266632712E+03  0.30548867643E+03  0.47000000000E+01 0. -1.
         -5    1    3    3    0  503  0.84759054300E+02 -0.39196121652E+02 -0.56791230223E+02  0.10939729004E+03  0.47000000000E+01 0.  1.
          5    1    3    3  503    0 -0.11532435286E+02  0.17607090381E+02 -0.31308108680E+02  0.38017027296E+02  0.47000000000E+01 0. -1.
         -5    1    4    4    0  502 -0.34669680736E+02  0.71772872026E+01 -0.26077891107E+02  0.44222693478E+02  0.47000000000E+01 0.  1.
<mgrwt>
<rscale>  0 0.11899957E+03</rscale>
<asrwt>0</asrwt>
<pdfrwt beam="1">  1        2 0.70305326E-01 0.11926978E+03</pdfrwt>
<pdfrwt beam="2">  1       -2 0.61755485E-02 0.11926978E+03</pdfrwt>
<totfact> 0.92007309E+03</totfact>
</mgrwt>
</event>
<event>
 8    1  0.6149126E-004  0.9961051E+02  0.7546771E-02  0.1296274E+00
          1   -1    0    0  501    0  0.00000000000E+00  0.00000000000E+00  0.75661848587E+03  0.75661848587E+03  0.00000000000E+00 0. -1.
         -1   -1    0    0    0  501 -0.00000000000E+00 -0.00000000000E+00 -0.15230375750E+02  0.15230375750E+02  0.00000000000E+00 0.  1.
         23    2    1    2    0    0  0.24933335771E+02 -0.21062590460E+02  0.55926829638E+03  0.56426784202E+03  0.67467519998E+02 0.  0.
         23    2    1    2    0    0 -0.24933335771E+02  0.21062590460E+02  0.18211981374E+03  0.20758101959E+03  0.94111365895E+02 0.  0.
          5    1    4    4  502    0 -0.30954616345E+01  0.55948401078E+02  0.12456481418E+03  0.13666853477E+03  0.47000000000E+01 0. -1.
         -5    1    3    3    0  503 -0.50967766896E+01 -0.38746649453E+02  0.26542025439E+03  0.26832309147E+03  0.47000000000E+01 0.  1.
          5    1    3    3  503    0  0.30030112460E+02  0.17684058993E+02  0.29384804199E+03  0.29594475055E+03  0.47000000000E+01 0. -1.
         -5    1    4    4    0  502 -0.21837874136E+02 -0.34885810618E+02  0.57554999556E+02  0.70912484818E+02  0.47000000000E+01 0.  1.
<mgrwt>
<rscale>  0 0.92772351E+02</rscale>
<asrwt>0</asrwt>
<pdfrwt beam="1">  1        1 0.11640281E+00 0.99610507E+02</pdfrwt>
<pdfrwt beam="2">  1       -1 0.23431353E-02 0.99610507E+02</pdfrwt>
<totfact> 0.12726707E+04</totfact>
</mgrwt>
</event>
<event>
 8    1  0.5224537E-004  0.1047356E+03  0.7546771E-02  0.1271073E+00
          1   -1    0    0  501    0  0.00000000000E+00  0.00000000000E+00  0.11372634634E+03  0.11372634634E+03  0.00000000000E+00 0. -1.
         -1   -1    0    0    0  501 -0.00000000000E+00 -0.00000000000E+00 -0.21445655596E+03  0.21445655596E+03  0.00000000000E+00 0.  1.
         23    2    1    2    0    0 -0.22059864261E+01 -0.50271881436E+02 -0.17240129394E+03  0.20127237706E+03  0.90863827658E+02 0.  0.
         23    2    1    2    0    0  0.22059864261E+01  0.50271881436E+02  0.71671084327E+02  0.12691052524E+03  0.91855368100E+02 0.  0.
          5    1    4    4  502    0  0.29203091967E+02 -0.11915689758E+02  0.42059941983E+02  0.52781937843E+02  0.47000000000E+01 0. -1.
         -5    1    3    3    0  503 -0.44699231394E+02 -0.20171858498E+02 -0.62621867680E+02  0.79677559414E+02  0.47000000000E+01 0.  1.
          5    1    3    3  503    0  0.42493244968E+02 -0.30100022938E+02 -0.10977942626E+03  0.12159481765E+03  0.47000000000E+01 0. -1.
         -5    1    4    4    0  502 -0.26997105541E+02  0.62187571193E+02  0.29611142344E+02  0.74128587397E+02  0.47000000000E+01 0.  1.
<mgrwt>
<rscale>  0 0.10451775E+03</rscale>
<asrwt>0</asrwt>
<pdfrwt beam="1">  1        1 0.17496361E-01 0.10473556E+03</pdfrwt>
<pdfrwt beam="2">  1       -1 0.32993316E-01 0.10473556E+03</pdfrwt>
<totfact> 0.25226444E+03</totfact>
</mgrwt>
</event>
<event>
 8    1  0.5224537E-004  0.9703838E+02  0.7546771E-02  0.1288362E+00
         -2   -1    0    0    0  501 -0.00000000000E+00  0.00000000000E+00  0.15922302991E+03  0.15922302991E+03  0.00000000000E+00 0.  1.
          2   -1    0    0  501    0  0.00000000000E+00 -0.00000000000E+00 -0.28103867025E+03  0.28103867025E+03  0.00000000000E+00 0. -1.
         23    2    1    2    0    0 -0.22098332178E+02  0.65417683416E+01  0.13530750709E+03  0.16650696448E+03  0.94261958013E+02 0.  0.
         23    2    1    2    0    0  0.22098332178E+02 -0.65417683416E+01 -0.25712314743E+03  0.27375473567E+03  0.91094518730E+02 0.  0.
          5    1    4    4  502    0  0.23337345778E+02 -0.46982647160E+02 -0.15963698631E+03  0.16810133325E+03  0.47000000000E+01 0. -1.
         -5    1    4    4    0  502 -0.12390136003E+01  0.40440878819E+02 -0.97486161111E+02  0.10565340242E+03  0.47000000000E+01 0.  1.
          5    1    3    3  503    0  0.32850448325E+02  0.23071781121E+01  0.20511640529E+02  0.39080588829E+02  0.47000000000E+01 0. -1.
         -5    1    3    3    0  503 -0.54948780503E+02  0.42345902296E+01  0.11479586656E+03  0.12742637565E+03  0.47000000000E+01 0.  1.
<mgrwt>
<rscale>  0 0.96260632E+02</rscale>
<asrwt>0</asrwt>
<pdfrwt beam="1">  1        2 0.43236718E-01 0.97038383E+02</pdfrwt>
<pdfrwt beam="2">  1       -2 0.24495851E-01 0.97038383E+02</pdfrwt>
<totfact> 0.16742831E+03</totfact>
</mgrwt>
</event>
<event>
 8    1  0.5224537E-004  0.1015812E+03  0.7546771E-02  0.1277734E+00
         -1   -1    0    0    0  501 -0.00000000000E+00  0.00000000000E+00  0.57489399365E+03  0.57489399365E+03  0.00000000000E+00 0.  1.
          1   -1    0    0  501    0  0.00000000000E+00 -0.00000000000E+00 -0.24047139195E+02  0.24047139195E+02  0.00000000000E+00 0. -1.
         23    2    1    2    0    0  0.71306901349E+01  0.41281523876E+02  0.43066805196E+03  0.44248583673E+03  0.92540443995E+02 0.  0.
         23    2    1    2    0    0 -0.71306901349E+01 -0.41281523876E+02  0.12017880250E+03  0.15645529611E+03  0.90996176608E+02 0.  0.
          5    1    4    4  502    0  0.40171300262E+02 -0.12526522749E+02  0.68793516368E+02  0.80779236386E+02  0.47000000000E+01 0. -1.
         -5    1    3    3    0  503  0.90189471433E+01 -0.25939354711E+02  0.20739516143E+03  0.20925829616E+03  0.47000000000E+01 0.  1.
          5    1    3    3  503    0 -0.18882570084E+01  0.67220878587E+02  0.22327289053E+03  0.23322754057E+03  0.47000000000E+01 0. -1.
         -5    1    4    4    0  502 -0.47301990397E+02 -0.28755001127E+02  0.51385286130E+02  0.75676059728E+02  0.47000000000E+01 0.  1.
<mgrwt>
<rscale>  0 0.10122819E+03</rscale>
<asrwt>0</asrwt>
<pdfrwt beam="1">  1        1 0.36995603E-02 0.10158122E+03</pdfrwt>
<pdfrwt beam="2">  1       -1 0.88445219E-01 0.10158122E+03</pdfrwt>
<totfact> 0.31622597E+03</totfact>
</mgrwt>
</event>
<event>
 8    1  0.5224537E-004  0.1492012E+03  0.7546771E-02  0.1201524E+00
          1   -1    0    0  501    0  0.00000000000E+00  0.00000000000E+00  0.72895153560E+03  0.72895153560E+03  0.00000000000E+00 0. -1.
         -1   -1    0    0    0  501 -0.00000000000E+00 -0.00000000000E+00 -0.37808088646E+03  0.37808088646E+03  0.00000000000E+00 0.  1.
         23    2    1    2    0    0 -0.95471268730E+02 -0.69114250438E+02 -0.35529919717E+03  0.38527287585E+03  0.91137953599E+02 0.  0.
         23    2    1    2    0    0  0.95471268730E+02  0.69114250438E+02  0.70616984631E+03  0.72175954622E+03  0.91484686976E+02 0.  0.
          5    1    3    3  502    0 -0.14186426678E+02 -0.17073971982E+02 -0.68928826526E+01  0.23714490346E+02  0.47000000000E+01 0. -1.
         -5    1    3    3    0  502 -0.81284842052E+02 -0.52040278456E+02 -0.34840631452E+03  0.36155838550E+03  0.47000000000E+01 0.  1.
          5    1    4    4  503    0  0.76926839959E+02  0.68082572340E+01  0.48686710524E+03  0.49297642868E+03  0.47000000000E+01 0. -1.
         -5    1    4    4    0  503  0.18544428771E+02  0.62305993204E+02  0.21930274108E+03  0.22878311754E+03  0.47000000000E+01 0.  1.
<mgrwt>
<rscale>  0 0.14914806E+03</rscale>
<asrwt>0</asrwt>
<pdfrwt beam="1">  1        1 0.11214639E+00 0.14920118E+03</pdfrwt>
<pdfrwt beam="2">  1       -1 0.58166290E-01 0.14920118E+03</pdfrwt>
<totfact> 0.86010207E+01</totfact>
</mgrwt>
</event>
<event>
 8    1  0.5224537E-004  0.9162627E+02  0.7546771E-02  0.1299415E+00
         -1   -1    0    0    0  501 -0.00000000000E+00  0.00000000000E+00  0.18693970348E+02  0.18693970348E+02  0.00000000000E+00 0.  1.
          1   -1    0    0  501    0  0.00000000000E+00 -0.00000000000E+00 -0.44906478391E+03  0.44906478391E+03  0.00000000000E+00 0. -1.
         23    2    1    2    0    0  0.15878510766E+01  0.41360268006E+01 -0.23555356987E+03  0.25247026711E+03  0.90753090878E+02 0.  0.
         23    2    1    2    0    0 -0.15878510766E+01 -0.41360268006E+01 -0.19481724369E+03  0.21528848715E+03  0.91519103320E+02 0.  0.
          5    1    3    3  502    0 -0.24722015042E+02  0.12128836185E+02 -0.21740033627E+03  0.21918778001E+03  0.47000000000E+01 0. -1.
         -5    1    3    3    0  502  0.26309866119E+02 -0.79928093846E+01 -0.18153233601E+02  0.33282487095E+02  0.47000000000E+01 0.  1.
          5    1    4    4  503    0  0.33638950936E+02  0.17651478026E+02 -0.41730057615E+02  0.56627214351E+02  0.47000000000E+01 0. -1.
         -5    1    4    4    0  503 -0.35226802013E+02 -0.21787504826E+02 -0.15308718607E+03  0.15866127280E+03  0.47000000000E+01 0.  1.
<mgrwt>
<rscale>  0 0.91434396E+02</rscale>
<asrwt>0</asrwt>
<pdfrwt beam="1">  1        1 0.69086894E-01 0.91626275E+02</pdfrwt>
<pdfrwt beam="2">  1       -1 0.28759953E-02 0.91626275E+02</pdfrwt>
<totfact> 0.18939114E+04</totfact>
</mgrwt>
</event>
<event>
 8    1  0.5224537E-004  0.1064499E+03  0.7546771E-02  0.1267945E+00
         -1   -1    0    0    0  501 -0.00000000000E+00  0.00000000000E+00  0.72912951563E+02  0.72912951563E+02  0.00000000000E+00 0.  1.
          1   -1    0    0  501    0  0.00000000000E+00 -0.00000000000E+00 -0.16821234571E+03  0.16821234571E+03  0.00000000000E+00 0. -1.
         23    2    1    2    0    0  0.48214811565E+02 -0.20268592543E+02 -0.12212125903E+02  0.10714815320E+03  0.92715191942E+02 0.  0.
         23    2    1    2    0    0 -0.48214811565E+02  0.20268592543E+02 -0.83087268249E+02  0.13397714408E+03  0.91164121740E+02 0.  0.
          5    1    3    3  502    0 -0.25656523408E+02  0.46077146844E+01 -0.11951139756E+02  0.29058698688E+02  0.47000000000E+01 0. -1.
         -5    1    4    4    0  503  0.12742971635E+02 -0.25130739058E+02 -0.17701275740E+02  0.33605989564E+02  0.47000000000E+01 0.  1.
          5    1    4    4  503    0 -0.60957783200E+02  0.45399331601E+02 -0.65385992509E+02  0.10037115452E+03  0.47000000000E+01 0. -1.
         -5    1    3    3    0  502  0.73871334972E+02 -0.24876307227E+02 -0.26098614728E+00  0.78089454510E+02  0.47000000000E+01 0.  1.
<mgrwt>
<rscale>  0 0.10611129E+03</rscale>
<asrwt>0</asrwt>
<pdfrwt beam="1">  1        1 0.25878822E-01 0.10644994E+03</pdfrwt>
<pdfrwt beam="2">  1       -1 0.11217377E-01 0.10644994E+03</pdfrwt>
<totfact> 0.86332695E+03</totfact>
</mgrwt>
</event>
<event>
 8    1  0.5224537E-004  0.9414212E+02  0.7546771E-02  0.1293445E+00
          2   -1    0    0  501    0  0.00000000000E+00  0.00000000000E+00  0.30687693876E+03  0.30687693876E+03  0.00000000000E+00 0. -1.
         -2   -1    0    0    0  501 -0.00000000000E+00 -0.00000000000E+00 -0.28960019748E+02  0.28960019748E+02  0.00000000000E+00 0.  1.
         23    2    1    2    0    0 -0.22758137841E+02  0.94249573424E+00  0.12366588070E+03  0.15542197021E+03  0.91345047145E+02 0.  0.
         23    2    1    2    0    0  0.22758137841E+02 -0.94249573424E+00  0.15425103831E+03  0.18041498830E+03  0.90759925333E+02 0.  0.
          5    1    4    4  502    0 -0.30977688124E+02  0.74137317089E+00  0.24153920811E+02  0.39568531514E+02  0.47000000000E+01 0. -1.
         -5    1    3    3    0  503  0.30639958336E+02  0.20036513198E+02  0.55083255662E+02  0.66306289010E+02  0.47000000000E+01 0.  1.
          5    1    3    3  503    0 -0.53398096177E+02 -0.19094017464E+02  0.68582625039E+02  0.89115681199E+02  0.47000000000E+01 0. -1.
         -5    1    4    4    0  502  0.53735825965E+02 -0.16838689051E+01  0.13009711750E+03  0.14084645678E+03  0.47000000000E+01 0.  1.
<mgrwt>
<rscale>  0 0.93999891E+02</rscale>
<asrwt>0</asrwt>
<pdfrwt beam="1">  1        2 0.47211834E-01 0.94142120E+02</pdfrwt>
<pdfrwt beam="2">  1       -2 0.44553879E-02 0.94142120E+02</pdfrwt>
<totfact> 0.22371376E+04</totfact>
</mgrwt>
</event>
<event>
 8    1  0.5224537E-004  0.1587991E+03  0.7546771E-02  0.1190524E+00
         -1   -1    0    0    0  501 -0.00000000000E+00  0.00000000000E+00  0.79041388191E+02  0.79041388191E+02  0.00000000000E+00 0.  1.
          1   -1    0    0  501    0  0.00000000000E+00 -0.00000000000E+00 -0.72505363437E+03  0.72505363437E+03  0.00000000000E+00 0. -1.
         23    2    1    2    0    0  0.51706943235E+02  0.12170727383E+03 -0.62578823975E+03  0.64562224289E+03  0.87925485653E+02 0.  0.
         23    2    1    2    0    0 -0.51706943235E+02 -0.12170727383E+03 -0.20224006435E+02  0.15847277967E+03  0.84960832037E+02 0.  0.
          5    1    4    4  502    0 -0.33162398695E+02 -0.12567974993E+02  0.19524935259E+02  0.40755512259E+02  0.47000000000E+01 0. -1.
         -5    1    3    3    0  503  0.47910605068E+02  0.47069214503E+02 -0.44305037004E+03  0.44813687353E+03  0.47000000000E+01 0.  1.
          5    1    3    3  503    0  0.37963381665E+01  0.74638059322E+02 -0.18273786971E+03  0.19748536935E+03  0.47000000000E+01 0. -1.
         -5    1    4    4    0  502 -0.18544544540E+02 -0.10913929883E+03 -0.39748941694E+02  0.11771726741E+03  0.47000000000E+01 0.  1.
<mgrwt>
<rscale>  0 0.15839203E+03</rscale>
<asrwt>0</asrwt>
<pdfrwt beam="1">  1        1 0.11154671E+00 0.15879912E+03</pdfrwt>
<pdfrwt beam="2">  1       -1 0.12160214E-01 0.15879912E+03</pdfrwt>
<totfact> 0.11990136E+03</totfact>
</mgrwt>
</event>
<event>
 8    1  0.5224537E-004  0.3591923E+03  0.7546771E-02  0.1059009E+00
          1   -1    0    0  501    0  0.00000000000E+00  0.00000000000E+00  0.21243750519E+04  0.21243750519E+04  0.00000000000E+00 0. -1.
         -1   -1    0    0    0  501 -0.00000000000E+00 -0.00000000000E+00 -0.11870734926E+03  0.11870734926E+03  0.00000000000E+00 0.  1.
         23    2    1    2    0    0 -0.17819354610E+03  0.29629258327E+03  0.21860016000E+03  0.42048206297E+03  0.97349373695E+02 0.  0.
         23    2    1    2    0    0  0.17819354610E+03 -0.29629258327E+03  0.17870675427E+04  0.18226003382E+04  0.93377492220E+02 0.  0.
          5    1    3    3  502    0 -0.78540807554E+02  0.15049556444E+03  0.16271007579E+03  0.23518977897E+03  0.47000000000E+01 0. -1.
         -5    1    3    3    0  502 -0.99652738544E+02  0.14579701883E+03  0.55890084209E+02  0.18529228400E+03  0.47000000000E+01 0.  1.
          5    1    4    4  503    0  0.86521578192E+02 -0.68813982103E+02  0.46648632290E+03  0.47942979369E+03  0.47000000000E+01 0. -1.
         -5    1    4    4    0  503  0.91671967906E+02 -0.22747860116E+03  0.13205812198E+04  0.13431705445E+04  0.47000000000E+01 0.  1.
<mgrwt>
<rscale>  0 0.35892803E+03</rscale>
<asrwt>0</asrwt>
<pdfrwt beam="1">  1        1 0.32682690E+00 0.35919234E+03</pdfrwt>
<pdfrwt beam="2">  1       -1 0.18262671E-01 0.35919234E+03</pdfrwt>
<totfact> 0.64350145E+01</totfact>
</mgrwt>
</event>
<event>
 8    1  0.5224537E-004  0.1006487E+03  0.7546771E-02  0.1279129E+00
         -1   -1    0    0    0  501 -0.00000000000E+00  0.00000000000E+00  0.56854621250E+02  0.56854621250E+02  0.00000000000E+00 0.  1.
          1   -1    0    0  501    0  0.00000000000E+00 -0.00000000000E+00 -0.19275562699E+03  0.19275562699E+03  0.00000000000E+00 0. -1.
         23    2    1    2    0    0  0.27808132945E+02 -0.33126439126E+02 -0.32987189431E+02  0.10591659355E+03  0.90881884315E+02 0.  0.
         23    2    1    2    0    0 -0.27808132945E+02  0.33126439126E+02 -0.10291381631E+03  0.14369365469E+03  0.90476292931E+02 0.  0.
          5    1    3    3  502    0 -0.23188113402E+02  0.14988823361E+02 -0.20103225962E+02  0.34475833898E+02  0.47000000000E+01 0. -1.
         -5    1    4    4    0  503 -0.57808332367E+02  0.41860737228E+01 -0.55455234001E+02  0.80353590352E+02  0.47000000000E+01 0.  1.
          5    1    4    4  503    0  0.30000199423E+02  0.28940365404E+02 -0.47458582311E+02  0.63340064336E+02  0.47000000000E+01 0. -1.
         -5    1    3    3    0  502  0.50996246346E+02 -0.48115262488E+02 -0.12883963469E+02  0.71440759657E+02  0.47000000000E+01 0.  1.
<mgrwt>
<rscale>  0 0.10055710E+03</rscale>
<asrwt>0</asrwt>
<pdfrwt beam="1">  1        1 0.29654712E-01 0.10064875E+03</pdfrwt>
<pdfrwt beam="2">  1       -1 0.87468649E-02 0.10064875E+03</pdfrwt>
<totfact> 0.10580274E+04</totfact>
</mgrwt>
</event>
<event>
 8    1  0.5224537E-004  0.9426893E+02  0.7546771E-02  0.1293225E+00
         -1   -1    0    0    0  501 -0.00000000000E+00  0.00000000000E+00  0.32990742621E+03  0.32990742621E+03  0.00000000000E+00 0.  1.
          1   -1    0    0  501    0  0.00000000000E+00 -0.00000000000E+00 -0.29897839735E+02  0.29897839735E+02  0.00000000000E+00 0. -1.
         23    2    1    2    0    0  0.15854220918E+02 -0.11380517216E+02  0.20896215361E+03  0.22924182184E+03  0.92226670478E+02 0.  0.
         23    2    1    2    0    0 -0.15854220918E+02  0.11380517216E+02  0.91047432867E+02  0.13056344410E+03  0.91522158036E+02 0.  0.
          5    1    3    3  502    0  0.18417557570E+02  0.23470706298E+02  0.18229294518E+02  0.35277154925E+02  0.47000000000E+01 0. -1.
         -5    1    4    4    0  503  0.25309580137E+02 -0.18485531436E+02  0.66988036610E+02  0.74106523114E+02  0.47000000000E+01 0.  1.
          5    1    4    4  503    0 -0.41163801055E+02  0.29866048652E+02  0.24059396257E+02  0.56456920990E+02  0.47000000000E+01 0. -1.
         -5    1    3    3    0  502 -0.25633366512E+01 -0.34851223515E+02  0.19073285909E+03  0.19396466692E+03  0.47000000000E+01 0.  1.
<mgrwt>
<rscale>  0 0.94096172E+02</rscale>
<asrwt>0</asrwt>
<pdfrwt beam="1">  1        1 0.45996679E-02 0.94268930E+02</pdfrwt>
<pdfrwt beam="2">  1       -1 0.50754986E-01 0.94268930E+02</pdfrwt>
<totfact> 0.68683538E+03</totfact>
</mgrwt>
</event>
<event>
 8    1  0.5224537E-004  0.1283659E+03  0.7546771E-02  0.1231741E+00
         -1   -1    0    0    0  501 -0.00000000000E+00  0.00000000000E+00  0.34300837274E+02  0.34300837274E+02  0.00000000000E+00 0.  1.
          1   -1    0    0  501    0  0.00000000000E+00 -0.00000000000E+00 -0.56219056050E+03  0.56219056050E+03  0.00000000000E+00 0. -1.
         23    2    1    2    0    0  0.43794987283E+02  0.70774873919E+02 -0.14260030925E+03  0.19186622253E+03  0.97727761979E+02 0.  0.
         23    2    1    2    0    0 -0.43794987283E+02 -0.70774873919E+02 -0.38528941398E+03  0.40462517524E+03  0.91359270066E+02 0.  0.
          5    1    3    3  502    0  0.21806519278E+01  0.42419938086E+02 -0.13389221656E+03  0.14054686779E+03  0.47000000000E+01 0. -1.
         -5    1    3    3    0  502  0.41614335356E+02  0.28354935833E+02 -0.87080926915E+01  0.51319354746E+02  0.47000000000E+01 0.  1.
          5    1    4    4  503    0 -0.59301751458E+02 -0.24705524752E+02 -0.29524729003E+03  0.30219217884E+03  0.47000000000E+01 0. -1.
         -5    1    4    4    0  503  0.15506764174E+02 -0.46069349167E+02 -0.90042123948E+02  0.10243299641E+03  0.47000000000E+01 0.  1.
<mgrwt>
<rscale>  0 0.12715396E+03</rscale>
<asrwt>0</asrwt>
<pdfrwt beam="1">  1        1 0.86490851E-01 0.12836588E+03</pdfrwt>
<pdfrwt beam="2">  1       -1 0.52770522E-02 0.12836588E+03</pdfrwt>
<totfact> 0.59954520E+03</totfact>
</mgrwt>
</event>
<event>
 8    1  0.5224537E-004  0.1060519E+03  0.7546771E-02  0.1273598E+00
          2   -1    0    0  501    0  0.00000000000E+00  0.00000000000E+00  0.27348308733E+03  0.27348308733E+03  0.00000000000E+00 0. -1.
         -2   -1    0    0    0  501 -0.00000000000E+00 -0.00000000000E+00 -0.10847230421E+03  0.10847230421E+03  0.00000000000E+00 0.  1.
         23    2    1    2    0    0 -0.15594830910E+02 -0.24787820403E+02 -0.70869667214E+02  0.12755199986E+03  0.10192824999E+03 0.  0.
         23    2    1    2    0    0  0.15594830910E+02  0.24787820403E+02  0.23588045034E+03  0.25440339169E+03  0.90685522864E+02 0.  0.
          5    1    3    3  502    0 -0.57332627034E+01  0.38960616188E+02 -0.16111656063E+02  0.42807421974E+02  0.47000000000E+01 0. -1.
         -5    1    4    4    0  503 -0.23611790094E+02 -0.81599871237E+01  0.19617646103E+02  0.32109874804E+02  0.47000000000E+01 0.  1.
          5    1    4    4  503    0  0.39206621004E+02  0.32947807527E+02  0.21626280424E+03  0.22229351688E+03  0.47000000000E+01 0. -1.
         -5    1    3    3    0  502 -0.98615682066E+01 -0.63748436591E+02 -0.54758011151E+02  0.84744577883E+02  0.47000000000E+01 0.  1.
<mgrwt>
<rscale>  0 0.10325438E+03</rscale>
<asrwt>0</asrwt>
<pdfrwt beam="1">  1        2 0.42074321E-01 0.10605189E+03</pdfrwt>
<pdfrwt beam="2">  1       -2 0.16688047E-01 0.10605189E+03</pdfrwt>
<totfact> 0.33017484E+03</totfact>
</mgrwt>
</event>
<event>
 8    1  0.5224537E-004  0.1232558E+03  0.7546771E-02  0.1237846E+00
          1   -1    0    0  501    0  0.00000000000E+00  0.00000000000E+00  0.16678033322E+02  0.16678033322E+02  0.00000000000E+00 0. -1.
         -1   -1    0    0    0  501 -0.00000000000E+00 -0.00000000000E+00 -0.94142955635E+03  0.94142955635E+03  0.00000000000E+00 0.  1.
         23    2    1    2    0    0 -0.77711098089E+02  0.31435409432E+02 -0.54919925777E+03  0.56284628949E+03  0.90271374922E+02 0.  0.
         23    2    1    2    0    0  0.77711098089E+02 -0.31435409432E+02 -0.37555226526E+03  0.39526130018E+03  0.90359237186E+02 0.  0.
          5    1    3    3  502    0 -0.34138078481E+02  0.56698880803E+02 -0.22013994456E+03  0.22992141414E+03  0.47000000000E+01 0. -1.
         -5    1    4    4    0  503  0.68197314471E+01  0.26526319592E+02 -0.13491331036E+03  0.13774558316E+03  0.47000000000E+01 0.  1.
          5    1    4    4  503    0  0.70891366642E+02 -0.57961729024E+02 -0.24063895490E+03  0.25751571701E+03  0.47000000000E+01 0. -1.
         -5    1    3    3    0  502 -0.43573019608E+02 -0.25263471370E+02 -0.32905931321E+03  0.33292487536E+03  0.47000000000E+01 0.  1.
<mgrwt>
<rscale>  0 0.12323969E+03</rscale>
<asrwt>0</asrwt>
<pdfrwt beam="1">  1        1 0.25658506E-02 0.12325580E+03</pdfrwt>
<pdfrwt beam="2">  1       -1 0.14483536E+00 0.12325580E+03</pdfrwt>
<totfact> 0.17043924E+03</totfact>
</mgrwt>
</event>
<event>
 8    1  0.5224537E-004  0.1331983E+03  0.7546771E-02  0.1223081E+00
          1   -1    0    0  501    0  0.00000000000E+00  0.00000000000E+00  0.84211538267E+02  0.84211538267E+02  0.00000000000E+00 0. -1.
         -1   -1    0    0    0  501 -0.00000000000E+00 -0.00000000000E+00 -0.25286820891E+03  0.25286820891E+03  0.00000000000E+00 0.  1.
         23    2    1    2    0    0  0.96773517264E+02 -0.54613016614E+01 -0.15443249304E+03  0.20393914496E+03  0.91361044661E+02 0.  0.
         23    2    1    2    0    0 -0.96773517264E+02  0.54613016614E+01 -0.14224177604E+02  0.13314060222E+03  0.90161817142E+02 0.  0.
          5    1    4    4  502    0 -0.42618881047E+02 -0.38367829634E+02  0.11593142225E+02  0.58693699143E+02  0.47000000000E+01 0. -1.
         -5    1    3    3    0  503  0.85776871685E+02  0.26873076971E+02 -0.14027504493E+03  0.16667036993E+03  0.47000000000E+01 0.  1.
          5    1    3    3  503    0  0.10996645579E+02 -0.32334378632E+02 -0.14157448111E+02  0.37268775034E+02  0.47000000000E+01 0. -1.
         -5    1    4    4    0  502 -0.54154636218E+02  0.43829131295E+02 -0.25817319829E+02  0.74446903072E+02  0.47000000000E+01 0.  1.
<mgrwt>
<rscale>  0 0.13299288E+03</rscale>
<asrwt>0</asrwt>
<pdfrwt beam="1">  1        1 0.12955622E-01 0.13319827E+03</pdfrwt>
<pdfrwt beam="2">  1       -1 0.38902800E-01 0.13319827E+03</pdfrwt>
<totfact> 0.28351676E+03</totfact>
</mgrwt>
</event>
<event>
 8    1  0.5224537E-004  0.1013914E+03  0.7546771E-02  0.1279048E+00
         -1   -1    0    0    0  501 -0.00000000000E+00  0.00000000000E+00  0.46003621342E+03  0.46003621342E+03  0.00000000000E+00 0.  1.
          1   -1    0    0  501    0  0.00000000000E+00 -0.00000000000E+00 -0.29813573884E+02  0.29813573884E+02  0.00000000000E+00 0. -1.
         23    2    1    2    0    0 -0.38588305831E+02  0.32614039068E+01  0.34565927978E+03  0.36022292592E+03  0.93704453224E+02 0.  0.
         23    2    1    2    0    0  0.38588305831E+02 -0.32614039068E+01  0.84563359749E+02  0.12962686138E+03  0.90291014380E+02 0.  0.
          5    1    3    3  502    0  0.24743411615E+02  0.47348461056E+01  0.19560705135E+03  0.19727864487E+03  0.47000000000E+01 0. -1.
         -5    1    3    3    0  502 -0.63331717447E+02 -0.14734421988E+01  0.15005222844E+03  0.16294428105E+03  0.47000000000E+01 0.  1.
          5    1    4    4  503    0  0.25936373757E+02 -0.21133290834E+02 -0.77278698429E+01  0.34657198927E+02  0.47000000000E+01 0. -1.
         -5    1    4    4    0  503  0.12651932074E+02  0.17871886927E+02  0.92291229591E+02  0.94969662456E+02  0.47000000000E+01 0.  1.
<mgrwt>
<rscale>  0 0.10059559E+03</rscale>
<asrwt>0</asrwt>
<pdfrwt beam="1">  1        1 0.45867040E-02 0.10139141E+03</pdfrwt>
<pdfrwt beam="2">  1       -1 0.70774797E-01 0.10139141E+03</pdfrwt>
<totfact> 0.37055544E+03</totfact>
</mgrwt>
</event>
<event>
 8    1  0.5224537E-004  0.9588497E+02  0.7546771E-02  0.1290588E+00
         -1   -1    0    0    0  501 -0.00000000000E+00  0.00000000000E+00  0.11684457850E+03  0.11684457850E+03  0.00000000000E+00 0.  1.
          1   -1    0    0  501    0  0.00000000000E+00 -0.00000000000E+00 -0.78786885360E+02  0.78786885360E+02  0.00000000000E+00 0. -1.
         23    2    1    2    0    0 -0.18363073865E+02 -0.66614287337E+01  0.34812245470E+02  0.99691583741E+02  0.91350655825E+02 0.  0.
         23    2    1    2    0    0  0.18363073865E+02  0.66614287337E+01  0.32454476744E+01  0.95939880123E+02  0.93874120784E+02 0.  0.
          5    1    3    3  502    0  0.33603476586E+02 -0.18663836994E+02  0.22376558668E+02  0.44725080523E+02  0.47000000000E+01 0. -1.
         -5    1    3    3    0  502 -0.51966550451E+02  0.12002408260E+02  0.12435686802E+02  0.54966503218E+02  0.47000000000E+01 0.  1.
          5    1    4    4  503    0  0.15998189927E+02 -0.37631129492E+02 -0.19866681165E+02  0.45703599511E+02  0.47000000000E+01 0. -1.
         -5    1    4    4    0  503  0.23648839386E+01  0.44292558226E+02  0.23112128840E+02  0.50236280612E+02  0.47000000000E+01 0.  1.
<mgrwt>
<rscale>  0 0.95261637E+02</rscale>
<asrwt>0</asrwt>
<pdfrwt beam="1">  1        1 0.12121059E-01 0.95884971E+02</pdfrwt>
<pdfrwt beam="2">  1       -1 0.17976089E-01 0.95884971E+02</pdfrwt>
<totfact> 0.10792084E+04</totfact>
</mgrwt>
</event>
<event>
 8    1  0.5224537E-004  0.1108743E+03  0.7546771E-02  0.1259098E+00
          2   -1    0    0  501    0  0.00000000000E+00  0.00000000000E+00  0.38164883027E+03  0.38164883027E+03  0.00000000000E+00 0. -1.
         -2   -1    0    0    0  501 -0.00000000000E+00 -0.00000000000E+00 -0.54269314790E+02  0.54269314790E+02  0.00000000000E+00 0.  1.
         23    2    1    2    0    0 -0.16041874085E+02  0.60416967558E+02  0.24320980134E+02  0.11321459772E+03  0.91205720049E+02 0.  0.
         23    2    1    2    0    0  0.16041874085E+02 -0.60416967558E+02  0.30305853535E+03  0.32270354734E+03  0.91572659266E+02 0.  0.
          5    1    4    4  502    0  0.24801150956E+02 -0.94142755126E+01  0.23762501676E+03  0.23914736934E+03  0.47000000000E+01 0. -1.
         -5    1    4    4    0  502 -0.87592768713E+01 -0.51002692045E+02  0.65433518594E+02  0.83556178005E+02  0.47000000000E+01 0.  1.
          5    1    3    3  503    0  0.33294309030E+02  0.18191758298E+01  0.46931751250E+01  0.33999063329E+02  0.47000000000E+01 0. -1.
         -5    1    3    3    0  503 -0.49336183115E+02  0.58597791728E+02  0.19627805009E+02  0.79215534393E+02  0.47000000000E+01 0.  1.
<mgrwt>
<rscale>  0 0.11079848E+03</rscale>
<asrwt>0</asrwt>
<pdfrwt beam="1">  1        2 0.58715203E-01 0.11087427E+03</pdfrwt>
<pdfrwt beam="2">  1       -2 0.83491256E-02 0.11087427E+03</pdfrwt>
<totfact> 0.70005916E+03</totfact>
</mgrwt>
</event>
<event>
 8    1  0.5224537E-004  0.1223564E+03  0.7546771E-02  0.1240105E+00
          1   -1    0    0  501    0  0.00000000000E+00  0.00000000000E+00  0.41903450328E+02  0.41903450328E+02  0.00000000000E+00 0. -1.
         -1   -1    0    0    0  501 -0.00000000000E+00 -0.00000000000E+00 -0.35743468488E+03  0.35743468488E+03  0.00000000000E+00 0.  1.
         23    2    1    2    0    0  0.81099671763E+02 -0.15351877328E+01 -0.18543315335E+03  0.22216333865E+03  0.91605573617E+02 0.  0.
         23    2    1    2    0    0 -0.81099671763E+02  0.15351877328E+01 -0.13009808121E+03  0.17717479656E+03  0.88802501325E+02 0.  0.
          5    1    3    3  502    0  0.59944896649E+02  0.37784400981E+02 -0.14622326364E+03  0.16255578864E+03  0.47000000000E+01 0. -1.
         -5    1    3    3    0  502  0.21154775114E+02 -0.39319588714E+02 -0.39209889703E+02  0.59607550002E+02  0.47000000000E+01 0.  1.
          5    1    4    4  503    0 -0.47286954937E+02 -0.18583291409E+02 -0.11736857026E+02  0.52356839474E+02  0.47000000000E+01 0. -1.
         -5    1    4    4    0  503 -0.33812716826E+02  0.20118479142E+02 -0.11836122418E+03  0.12481795709E+03  0.47000000000E+01 0.  1.
<mgrwt>
<rscale>  0 0.12183200E+03</rscale>
<asrwt>0</asrwt>
<pdfrwt beam="1">  1        1 0.64466847E-02 0.12235642E+03</pdfrwt>
<pdfrwt beam="2">  1       -1 0.54989952E-01 0.12235642E+03</pdfrwt>
<totfact> 0.38299409E+03</totfact>
</mgrwt>
</event>
<event>
 8    1  0.5224537E-004  0.9690090E+02  0.7546771E-02  0.1288979E+00
          2   -1    0    0  501    0  0.00000000000E+00  0.00000000000E+00  0.76487245492E+02  0.76487245492E+02  0.00000000000E+00 0. -1.
         -2   -1    0    0    0  501 -0.00000000000E+00 -0.00000000000E+00 -0.12992625127E+03  0.12992625127E+03  0.00000000000E+00 0.  1.
         23    2    1    2    0    0  0.20215202344E+02 -0.22447685276E+02  0.47217338431E+01  0.93398208007E+02  0.88251784731E+02 0.  0.
         23    2    1    2    0    0 -0.20215202344E+02  0.22447685276E+02 -0.58160739623E+02  0.11301528876E+03  0.92071878873E+02 0.  0.
          5    1    4    4  502    0  0.28597642465E+02 -0.32750820167E+01  0.43680951741E+01  0.29491042237E+02  0.47000000000E+01 0. -1.
         -5    1    4    4    0  502 -0.48812844809E+02  0.25722767293E+02 -0.62528834797E+02  0.83524246520E+02  0.47000000000E+01 0.  1.
          5    1    3    3  503    0 -0.12417184685E+02 -0.37857921275E+02 -0.24252980360E+02  0.46879694273E+02  0.47000000000E+01 0. -1.
         -5    1    3    3    0  503  0.32632387030E+02  0.15410235999E+02  0.28974714203E+02  0.46518513733E+02  0.47000000000E+01 0.  1.
<mgrwt>
<rscale>  0 0.95982390E+02</rscale>
<asrwt>0</asrwt>
<pdfrwt beam="1">  1        2 0.11767269E-01 0.96900897E+02</pdfrwt>
<pdfrwt beam="2">  1       -2 0.19988654E-01 0.96900897E+02</pdfrwt>
<totfact> 0.10023346E+04</totfact>
</mgrwt>
</event>
<event>
 8    1  0.5224537E-004  0.1005609E+03  0.7546771E-02  0.1279373E+00
         -2   -1    0    0    0  501 -0.00000000000E+00  0.00000000000E+00  0.20231443814E+02  0.20231443814E+02  0.00000000000E+00 0.  1.
          2   -1    0    0  501    0  0.00000000000E+00 -0.00000000000E+00 -0.50147425542E+03  0.50147425542E+03  0.00000000000E+00 0. -1.
         23    2    1    2    0    0  0.40188738668E+02 -0.95462803035E+01 -0.26341366222E+03  0.28178482880E+03  0.91157370053E+02 0.  0.
         23    2    1    2    0    0 -0.40188738668E+02  0.95462803035E+01 -0.21782914939E+03  0.23992087044E+03  0.91685438124E+02 0.  0.
          5    1    3    3  502    0  0.66321125125E+02 -0.19423373841E+02 -0.15577846405E+03  0.17048395511E+03  0.47000000000E+01 0. -1.
         -5    1    4    4    0  503 -0.45959394226E+02  0.43381802814E+02 -0.16492908288E+03  0.17668599014E+03  0.47000000000E+01 0.  1.
          5    1    4    4  503    0  0.57706555580E+01 -0.33835522511E+02 -0.52900066512E+02  0.63234880297E+02  0.47000000000E+01 0. -1.
         -5    1    3    3    0  502 -0.26132386456E+02  0.98770935371E+01 -0.10763519817E+03  0.11130087369E+03  0.47000000000E+01 0.  1.
<mgrwt>
<rscale>  0 0.10044033E+03</rscale>
<asrwt>0</asrwt>
<pdfrwt beam="1">  1        2 0.77149880E-01 0.10056086E+03</pdfrwt>
<pdfrwt beam="2">  1       -2 0.31125300E-02 0.10056086E+03</pdfrwt>
<totfact> 0.22681570E+04</totfact>
</mgrwt>
</event>
<event>
 8    1  0.5224537E-004  0.9499734E+02  0.7546771E-02  0.1293403E+00
          1   -1    0    0  501    0  0.00000000000E+00  0.00000000000E+00  0.21264506712E+03  0.21264506712E+03  0.00000000000E+00 0. -1.
         -1   -1    0    0    0  501 -0.00000000000E+00 -0.00000000000E+00 -0.49609808056E+02  0.49609808056E+02  0.00000000000E+00 0.  1.
         23    2    1    2    0    0  0.48348910744E+00 -0.17637430257E+02  0.13835877112E+03  0.16783219313E+03  0.93344430995E+02 0.  0.
         23    2    1    2    0    0 -0.48348910744E+00  0.17637430257E+02  0.24676487941E+02  0.94422682043E+02  0.89417006880E+02 0.  0.
          5    1    4    4  502    0  0.17139807085E+02  0.50487907944E+02  0.15911521655E+02  0.55839666518E+02  0.47000000000E+01 0. -1.
         -5    1    4    4    0  502 -0.17623296193E+02 -0.32850477687E+02  0.87649662866E+01  0.38583015525E+02  0.47000000000E+01 0.  1.
          5    1    3    3  503    0  0.32917349234E+02  0.14969285433E+02  0.10407046142E+03  0.11027412356E+03  0.47000000000E+01 0. -1.
         -5    1    3    3    0  503 -0.32433860127E+02 -0.32606715690E+02  0.34288309707E+02  0.57558069576E+02  0.47000000000E+01 0.  1.
<mgrwt>
<rscale>  0 0.94018270E+02</rscale>
<asrwt>0</asrwt>
<pdfrwt beam="1">  1        1 0.32714625E-01 0.94997345E+02</pdfrwt>
<pdfrwt beam="2">  1       -1 0.76322783E-02 0.94997345E+02</pdfrwt>
<totfact> 0.11440041E+04</totfact>
</mgrwt>
</event>
<event>
 8    1  0.5224537E-004  0.1238144E+03  0.7546771E-02  0.1237695E+00
          1   -1    0    0  501    0  0.00000000000E+00  0.00000000000E+00  0.15333931203E+03  0.15333931203E+03  0.00000000000E+00 0. -1.
         -1   -1    0    0    0  501 -0.00000000000E+00 -0.00000000000E+00 -0.99926360343E+02  0.99926360343E+02  0.00000000000E+00 0.  1.
         23    2    1    2    0    0 -0.82214163568E+02 -0.16927517538E+02  0.11469290792E+02  0.12434447096E+03  0.91018093174E+02 0.  0.
         23    2    1    2    0    0  0.82214163568E+02  0.16927517538E+02  0.41943660892E+02  0.12892120141E+03  0.88406424789E+02 0.  0.
          5    1    4    4  502    0  0.40609848873E+02  0.43781023049E+02 -0.55387328282E+01  0.60155676092E+02  0.47000000000E+01 0. -1.
         -5    1    4    4    0  502  0.41604314695E+02 -0.26853505511E+02  0.47482393720E+02  0.68765525323E+02  0.47000000000E+01 0.  1.
          5    1    3    3  503    0 -0.37537663843E+02 -0.43471158907E+02  0.34656321929E+02  0.67245583596E+02  0.47000000000E+01 0. -1.
         -5    1    3    3    0  503 -0.44676499725E+02  0.26543641369E+02 -0.23187031137E+02  0.57098887360E+02  0.47000000000E+01 0.  1.
<mgrwt>
<rscale>  0 0.12333485E+03</rscale>
<asrwt>0</asrwt>
<pdfrwt beam="1">  1        1 0.23590663E-01 0.12381439E+03</pdfrwt>
<pdfrwt beam="2">  1       -1 0.15373286E-01 0.12381439E+03</pdfrwt>
<totfact> 0.60225416E+03</totfact>
</mgrwt>
</event>
<event>
 8    1  0.5224537E-004  0.1076434E+03  0.7546771E-02  0.1265242E+00
         -1   -1    0    0    0  501 -0.00000000000E+00  0.00000000000E+00  0.42017691044E+02  0.42017691044E+02  0.00000000000E+00 0.  1.
          1   -1    0    0  501    0  0.00000000000E+00 -0.00000000000E+00 -0.28296356035E+03  0.28296356035E+03  0.00000000000E+00 0. -1.
         23    2    1    2    0    0  0.12113543306E+02 -0.56222731082E+02 -0.14836805630E+03  0.18300325340E+03  0.90384607113E+02 0.  0.
         23    2    1    2    0    0 -0.12113543306E+02  0.56222731082E+02 -0.92577813005E+02  0.14197799799E+03  0.90991027204E+02 0.  0.
          5    1    4    4  502    0 -0.24775436785E+02  0.75908302673E+02 -0.85489726339E+02  0.11707465991E+03  0.47000000000E+01 0. -1.
         -5    1    3    3    0  503  0.50708261017E+02 -0.40923943683E+02 -0.92142794845E+02  0.11295344857E+03  0.47000000000E+01 0.  1.
          5    1    3    3  503    0 -0.38594717711E+02 -0.15298787399E+02 -0.56225261458E+02  0.70049804833E+02  0.47000000000E+01 0. -1.
         -5    1    4    4    0  502  0.12661893479E+02 -0.19685571591E+02 -0.70880866654E+01  0.24903338087E+02  0.47000000000E+01 0.  1.
<mgrwt>
<rscale>  0 0.10751514E+03</rscale>
<asrwt>0</asrwt>
<pdfrwt beam="1">  1        1 0.43532854E-01 0.10764339E+03</pdfrwt>
<pdfrwt beam="2">  1       -1 0.64642603E-02 0.10764339E+03</pdfrwt>
<totfact> 0.10434862E+04</totfact>
</mgrwt>
</event>
<event>
 8    1  0.5224537E-004  0.9448213E+02  0.7546771E-02  0.1294173E+00
         -1   -1    0    0    0  501 -0.00000000000E+00  0.00000000000E+00  0.14057786811E+02  0.14057786811E+02  0.00000000000E+00 0.  1.
          1   -1    0    0  501    0  0.00000000000E+00 -0.00000000000E+00 -0.72235204069E+03  0.72235204069E+03  0.00000000000E+00 0. -1.
         23    2    1    2    0    0 -0.24542085377E+01 -0.13448267380E+02 -0.20640043272E+03  0.22570024161E+03  0.90291646368E+02 0.  0.
         23    2    1    2    0    0  0.24542085377E+01  0.13448267380E+02 -0.50189382116E+03  0.51070958589E+03  0.93487936978E+02 0.  0.
          5    1    4    4  502    0 -0.25298245503E+02  0.44394729365E+02 -0.31835769499E+03  0.32246644040E+03  0.47000000000E+01 0. -1.
         -5    1    4    4    0  502  0.27752454040E+02 -0.30946461984E+02 -0.18353612617E+03  0.18824314549E+03  0.47000000000E+01 0.  1.
          5    1    3    3  503    0 -0.63068896670E+01  0.28993987355E+02 -0.24355243020E+02  0.38674229438E+02  0.47000000000E+01 0. -1.
         -5    1    3    3    0  503  0.38526811294E+01 -0.42442254736E+02 -0.18204518969E+03  0.18702601217E+03  0.47000000000E+01 0.  1.
<mgrwt>
<rscale>  0 0.93681645E+02</rscale>
<asrwt>0</asrwt>
<pdfrwt beam="1">  1        1 0.11113111E+00 0.94482133E+02</pdfrwt>
<pdfrwt beam="2">  1       -1 0.21627359E-02 0.94482133E+02</pdfrwt>
<totfact> 0.15193481E+04</totfact>
</mgrwt>
</event>
<event>
 8    1  0.5224537E-004  0.1001094E+03  0.7546771E-02  0.1280296E+00
         -1   -1    0    0    0  501 -0.00000000000E+00  0.00000000000E+00  0.44486035606E+02  0.44486035606E+02  0.00000000000E+00 0.  1.
          1   -1    0    0  501    0  0.00000000000E+00 -0.00000000000E+00 -0.27213920760E+03  0.27213920760E+03  0.00000000000E+00 0. -1.
         23    2    1    2    0    0  0.34162777831E+02  0.22149228300E+02 -0.17999738092E+03  0.20575161920E+03  0.90977953163E+02 0.  0.
         23    2    1    2    0    0 -0.34162777831E+02 -0.22149228300E+02 -0.47655791077E+02  0.11087362401E+03  0.91456013332E+02 0.  0.
          5    1    4    4  502    0 -0.13595583701E+02  0.28825317918E+02 -0.45388382158E+02  0.55659088064E+02  0.47000000000E+01 0. -1.
         -5    1    4    4    0  502 -0.20567194130E+02 -0.50974546218E+02 -0.22674089199E+01  0.55214535946E+02  0.47000000000E+01 0.  1.
          5    1    3    3  503    0  0.60848141198E+02 -0.43151484158E+01 -0.99814450882E+02  0.11707318821E+03  0.47000000000E+01 0. -1.
         -5    1    3    3    0  503 -0.26685363367E+02  0.26464376716E+02 -0.80182930038E+02  0.88678430988E+02  0.47000000000E+01 0.  1.
<mgrwt>
<rscale>  0 0.10000005E+03</rscale>
<asrwt>0</asrwt>
<pdfrwt beam="1">  1        1 0.41867571E-01 0.10010937E+03</pdfrwt>
<pdfrwt beam="2">  1       -1 0.68440054E-02 0.10010937E+03</pdfrwt>
<totfact> 0.99938291E+03</totfact>
</mgrwt>
</event>
<event>
 8    1  0.5224537E-004  0.1012368E+03  0.7546771E-02  0.1278410E+00
          2   -1    0    0  501    0  0.00000000000E+00  0.00000000000E+00  0.11175021989E+03  0.11175021989E+03  0.00000000000E+00 0. -1.
         -2   -1    0    0    0  501 -0.00000000000E+00 -0.00000000000E+00 -0.91770652452E+02  0.91770652452E+02  0.00000000000E+00 0.  1.
         23    2    1    2    0    0  0.40301204414E+02  0.62698325915E+01  0.21980835968E+02  0.10359559393E+03  0.92657390709E+02 0.  0.
         23    2    1    2    0    0 -0.40301204414E+02 -0.62698325915E+01 -0.20012685335E+01  0.99925278412E+02  0.91200648638E+02 0.  0.
          5    1    4    4  502    0 -0.13609041377E+01  0.38191330089E+02 -0.10792962062E+02  0.39987595378E+02  0.47000000000E+01 0. -1.
         -5    1    3    3    0  503  0.56677405955E+02 -0.27208973608E+02  0.81707034046E+01  0.63572847857E+02  0.47000000000E+01 0.  1.
          5    1    3    3  503    0 -0.16376201541E+02  0.33478806199E+02  0.13810132564E+02  0.40022746069E+02  0.47000000000E+01 0. -1.
         -5    1    4    4    0  502 -0.38940300276E+02 -0.44461162680E+02  0.87916935281E+01  0.59937683035E+02  0.47000000000E+01 0.  1.
<mgrwt>
<rscale>  0 0.10090226E+03</rscale>
<asrwt>0</asrwt>
<pdfrwt beam="1">  1        2 0.17192341E-01 0.10123680E+03</pdfrwt>
<pdfrwt beam="2">  1       -2 0.14118562E-01 0.10123680E+03</pdfrwt>
<totfact> 0.11449187E+04</totfact>
</mgrwt>
</event>
<event>
 8    1  0.5224537E-004  0.1051776E+03  0.7546771E-02  0.1269958E+00
          2   -1    0    0  501    0  0.00000000000E+00  0.00000000000E+00  0.62692188271E+02  0.62692188271E+02  0.00000000000E+00 0. -1.
         -2   -1    0    0    0  501 -0.00000000000E+00 -0.00000000000E+00 -0.17718691443E+03  0.17718691443E+03  0.00000000000E+00 0.  1.
         23    2    1    2    0    0  0.45739006128E+02  0.28611603857E+02 -0.67698161083E+02  0.12476072233E+03  0.89841617668E+02 0.  0.
         23    2    1    2    0    0 -0.45739006128E+02 -0.28611603857E+02 -0.46796565073E+02  0.11511838037E+03  0.90286446598E+02 0.  0.
          5    1    4    4  502    0 -0.41802507735E+02  0.70518282502E+00  0.16422414507E+02  0.45163399273E+02  0.47000000000E+01 0. -1.
         -5    1    3    3    0  503  0.49520328915E+02  0.49202591136E+02 -0.74547268687E+02  0.10223768004E+03  0.47000000000E+01 0.  1.
          5    1    3    3  503    0 -0.37813227867E+01 -0.20590987279E+02  0.68491076045E+01  0.22523042293E+02  0.47000000000E+01 0. -1.
         -5    1    4    4    0  502 -0.39364983938E+01 -0.29316786682E+02 -0.63218979580E+02  0.69954981096E+02  0.47000000000E+01 0.  1.
<mgrwt>
<rscale>  0 0.10508205E+03</rscale>
<asrwt>0</asrwt>
<pdfrwt beam="1">  1        2 0.96449521E-02 0.10517758E+03</pdfrwt>
<pdfrwt beam="2">  1       -2 0.27259525E-01 0.10517758E+03</pdfrwt>
<totfact> 0.75355650E+03</totfact>
</mgrwt>
</event>
<event>
 8    1  0.5224537E-004  0.1029634E+03  0.7546771E-02  0.1276704E+00
         -1   -1    0    0    0  501 -0.00000000000E+00  0.00000000000E+00  0.11528311251E+03  0.11528311251E+03  0.00000000000E+00 0.  1.
          1   -1    0    0  501    0  0.00000000000E+00 -0.00000000000E+00 -0.95216365244E+02  0.95216365244E+02  0.00000000000E+00 0. -1.
         23    2    1    2    0    0 -0.33220700823E+02 -0.23222619017E+02  0.39867620542E+02  0.11041238755E+03  0.94649686525E+02 0.  0.
         23    2    1    2    0    0  0.33220700823E+02  0.23222619017E+02 -0.19800873279E+02  0.10008709020E+03  0.89344535621E+02 0.  0.
          5    1    4    4  502    0  0.94006327257E+01  0.54481445397E+02 -0.23658456776E+02  0.60319253685E+02  0.47000000000E+01 0. -1.
         -5    1    4    4    0  502  0.23820068097E+02 -0.31258826380E+02  0.38575834965E+01  0.39767836517E+02  0.47000000000E+01 0.  1.
          5    1    3    3  503    0  0.17856040081E+02  0.25195598412E+02  0.46746846805E+01  0.31584791017E+02  0.47000000000E+01 0. -1.
         -5    1    3    3    0  503 -0.51076740904E+02 -0.48418217428E+02  0.35192935861E+02  0.78827596531E+02  0.47000000000E+01 0.  1.
<mgrwt>
<rscale>  0 0.10172772E+03</rscale>
<asrwt>0</asrwt>
<pdfrwt beam="1">  1        1 0.14648672E-01 0.10296343E+03</pdfrwt>
<pdfrwt beam="2">  1       -1 0.17735863E-01 0.10296343E+03</pdfrwt>
<totfact> 0.86870418E+03</totfact>
</mgrwt>
</event>
<event>
 8    1  0.5224537E-004  0.9911555E+02  0.7546771E-02  0.1282716E+00
         -2   -1    0    0    0  501 -0.00000000000E+00  0.00000000000E+00  0.18011497923E+02  0.18011497923E+02  0.00000000000E+00 0.  1.
          2   -1    0    0  501    0  0.00000000000E+00 -0.00000000000E+00 -0.55739296616E+03  0.55739296616E+03  0.00000000000E+00 0. -1.
         23    2    1    2    0    0  0.63969523190E+01 -0.35098653959E+02 -0.21992722194E+03  0.24122992386E+03  0.92471923900E+02 0.  0.
         23    2    1    2    0    0 -0.63969523190E+01  0.35098653959E+02 -0.31945424629E+03  0.33417454021E+03  0.91371611249E+02 0.  0.
          5    1    4    4  502    0  0.19525015367E+02 -0.22833550230E+02 -0.63188340164E+02  0.70124557566E+02  0.47000000000E+01 0. -1.
         -5    1    3    3    0  503  0.31217899086E+02  0.18303049011E+02 -0.11694794031E+03  0.12250905913E+03  0.47000000000E+01 0.  1.
          5    1    3    3  503    0 -0.24820946767E+02 -0.53401702969E+02 -0.10297928162E+03  0.11872086473E+03  0.47000000000E+01 0. -1.
         -5    1    4    4    0  502 -0.25921967686E+02  0.57932204188E+02 -0.25626590613E+03  0.26404998265E+03  0.47000000000E+01 0.  1.
<mgrwt>
<rscale>  0 0.98858114E+02</rscale>
<asrwt>0</asrwt>
<pdfrwt beam="1">  1        2 0.85752764E-01 0.99115555E+02</pdfrwt>
<pdfrwt beam="2">  1       -2 0.27709997E-02 0.99115555E+02</pdfrwt>
<totfact> 0.23894816E+04</totfact>
</mgrwt>
</event>
<event>
 8    1  0.5224537E-004  0.9475548E+02  0.7546771E-02  0.1294823E+00
          1   -1    0    0  501    0  0.00000000000E+00  0.00000000000E+00  0.19426308168E+03  0.19426308168E+03  0.00000000000E+00 0. -1.
         -1   -1    0    0    0  501 -0.00000000000E+00 -0.00000000000E+00 -0.45431205286E+02  0.45431205286E+02  0.00000000000E+00 0.  1.
         23    2    1    2    0    0  0.98410950740E-01  0.22278915430E+02  0.95977531574E+02  0.13119459631E+03  0.86625491495E+02 0.  0.
         23    2    1    2    0    0 -0.98410950740E-01 -0.22278915430E+02  0.52854344815E+02  0.10849969065E+03  0.92099084403E+02 0.  0.
          5    1    3    3  502    0  0.84040886243E+00  0.53241633504E+02  0.79496477958E+02  0.95797483437E+02  0.47000000000E+01 0. -1.
         -5    1    4    4    0  503 -0.40738589987E+02  0.10204538984E+01  0.49270199632E+01  0.41316335341E+02  0.47000000000E+01 0.  1.
          5    1    4    4  503    0  0.40640179036E+02 -0.23299369328E+02  0.47927324852E+02  0.67183355309E+02  0.47000000000E+01 0. -1.
         -5    1    3    3    0  502 -0.74199791169E+00 -0.30962718075E+02  0.16481053617E+02  0.35397112874E+02  0.47000000000E+01 0.  1.
<mgrwt>
<rscale>  0 0.93398904E+02</rscale>
<asrwt>0</asrwt>
<pdfrwt beam="1">  1        1 0.29886628E-01 0.94755481E+02</pdfrwt>
<pdfrwt beam="2">  1       -1 0.69894163E-02 0.94755481E+02</pdfrwt>
<totfact> 0.14567736E+04</totfact>
</mgrwt>
</event>
<event>
 8    1  0.5224537E-004  0.1234040E+03  0.7546771E-02  0.1237974E+00
          2   -1    0    0  501    0  0.00000000000E+00  0.00000000000E+00  0.69194524556E+02  0.69194524556E+02  0.00000000000E+00 0. -1.
         -2   -1    0    0    0  501 -0.00000000000E+00 -0.00000000000E+00 -0.21836108775E+03  0.21836108775E+03  0.00000000000E+00 0.  1.
         23    2    1    2    0    0  0.40676478957E+02  0.72164324961E+02 -0.73242045518E+02  0.14266576230E+03  0.90149080777E+02 0.  0.
         23    2    1    2    0    0 -0.40676478957E+02 -0.72164324961E+02 -0.75924517681E+02  0.14488985001E+03  0.91467319367E+02 0.  0.
          5    1    3    3  502    0  0.34385536241E+02  0.39736532263E+02  0.93576971326E+01  0.53581840156E+02  0.47000000000E+01 0. -1.
         -5    1    4    4    0  503  0.24211188527E+02  0.66617966510E+00 -0.23401130962E+02  0.34004828709E+02  0.47000000000E+01 0.  1.
          5    1    4    4  503    0 -0.64887667484E+02 -0.72830504627E+02 -0.52523386719E+02  0.11088502130E+03  0.47000000000E+01 0. -1.
         -5    1    3    3    0  502  0.62909427163E+01  0.32427792699E+02 -0.82599742650E+02  0.89083922149E+02  0.47000000000E+01 0.  1.
<mgrwt>
<rscale>  0 0.12315976E+03</rscale>
<asrwt>0</asrwt>
<pdfrwt beam="1">  1        2 0.10645311E-01 0.12340396E+03</pdfrwt>
<pdfrwt beam="2">  1       -2 0.33594014E-01 0.12340396E+03</pdfrwt>
<totfact> 0.46507238E+03</totfact>
</mgrwt>
</event>
<event>
 7    1  0.5224537E-004  0.2741882E+03  0.7546771E-02  0.1098906E+00
          1   -1    0    0  501    0  0.00000000000E+00  0.00000000000E+00  0.19795277752E+03  0.19795277752E+03  0.00000000000E+00 0. -1.
         -1   -1    0    0    0  501 -0.00000000000E+00 -0.00000000000E+00 -0.94945813986E+02  0.94945813986E+02  0.00000000000E+00 0.  1.
         23    2    1    2    0    0  0.48735467300E+02  0.26357075627E+02 -0.42773376263E+01  0.10650742308E+03  0.90860851560E+02 0.  0.
          5    1    3    3  502    0  0.17432387677E+02 -0.26546755381E+02  0.22591076717E+02  0.39256402135E+02  0.47000000000E+01 0. -1.
         -5    1    1    2    0  503  0.42473650894E+02  0.25066102727E+01  0.31722582973E+00  0.42807531435E+02  0.47000000000E+01 0.  1.
          5    1    1    2  503    0 -0.91209118194E+02 -0.28863685900E+02  0.10696707533E+03  0.14358363698E+03  0.47000000000E+01 0. -1.
         -5    1    3    3    0  502  0.31303079623E+02  0.52903831008E+02 -0.26868414343E+02  0.67251020948E+02  0.47000000000E+01 0.  1.
<mgrwt>
<rscale>  0 0.27418817E+03</rscale>
<asrwt>0</asrwt>
<pdfrwt beam="1">  1        1 0.30454273E-01 0.27418817E+03</pdfrwt>
<pdfrwt beam="2">  1       -1 0.14607048E-01 0.27418817E+03</pdfrwt>
<totfact> 0.49482747E+03</totfact>
</mgrwt>
</event>
<event>
 8    1  0.5224537E-004  0.1149829E+03  0.7546771E-02  0.1252147E+00
          2   -1    0    0  501    0  0.00000000000E+00  0.00000000000E+00  0.61068582096E+03  0.61068582096E+03  0.00000000000E+00 0. -1.
         -2   -1    0    0    0  501 -0.00000000000E+00 -0.00000000000E+00 -0.26532722449E+02  0.26532722449E+02  0.00000000000E+00 0.  1.
         23    2    1    2    0    0  0.64623360861E+02 -0.30032155881E+02  0.43319434984E+03  0.44819461311E+03  0.90238336280E+02 0.  0.
         23    2    1    2    0    0 -0.64623360861E+02  0.30032155881E+02  0.15095874867E+03  0.18902393030E+03  0.88675776108E+02 0.  0.
          5    1    4    4  502    0 -0.18577682643E+02 -0.22277601133E+02  0.95254942202E+02  0.99684581649E+02  0.47000000000E+01 0. -1.
         -5    1    4    4    0  502 -0.46045678218E+02  0.52309757015E+02  0.55703806468E+02  0.89339348646E+02  0.47000000000E+01 0.  1.
          5    1    3    3  503    0  0.73315444609E+02  0.23664431655E+01  0.21107073599E+03  0.22350324397E+03  0.47000000000E+01 0. -1.
         -5    1    3    3    0  503 -0.86920837475E+01 -0.32398599047E+02  0.22212361385E+03  0.22469136914E+03  0.47000000000E+01 0.  1.
<mgrwt>
<rscale>  0 0.11467613E+03</rscale>
<asrwt>0</asrwt>
<pdfrwt beam="1">  1        2 0.93951654E-01 0.11498290E+03</pdfrwt>
<pdfrwt beam="2">  1       -2 0.40819577E-02 0.11498290E+03</pdfrwt>
<totfact> 0.12382236E+04</totfact>
</mgrwt>
</event>
<event>
 8    1  0.5224537E-004  0.1037509E+03  0.7546771E-02  0.1272643E+00
          2   -1    0    0  501    0  0.00000000000E+00  0.00000000000E+00  0.97354273497E+02  0.97354273497E+02  0.00000000000E+00 0. -1.
         -2   -1    0    0    0  501 -0.00000000000E+00 -0.00000000000E+00 -0.39866503518E+03  0.39866503518E+03  0.00000000000E+00 0.  1.
         23    2    1    2    0    0  0.27547597782E+02 -0.40592182710E+02 -0.36150235378E+03  0.37607230171E+03  0.91322663555E+02 0.  0.
         23    2    1    2    0    0 -0.27547597782E+02  0.40592182710E+02  0.60191592098E+02  0.11994700697E+03  0.91420245468E+02 0.  0.
          5    1    4    4  502    0 -0.50901473497E+02  0.99390857582E+01  0.62141611228E+02  0.81076601285E+02  0.47000000000E+01 0. -1.
         -5    1    3    3    0  503  0.22038279956E+02  0.26943425510E+02 -0.14334967802E+03  0.14759015601E+03  0.47000000000E+01 0.  1.
          5    1    3    3  503    0  0.55093178260E+01 -0.67535608221E+02 -0.21815267576E+03  0.22848214570E+03  0.47000000000E+01 0. -1.
         -5    1    4    4    0  502  0.23353875715E+02  0.30653096952E+02 -0.19500191294E+01  0.38870405687E+02  0.47000000000E+01 0.  1.
<mgrwt>
<rscale>  0 0.10372944E+03</rscale>
<asrwt>0</asrwt>
<pdfrwt beam="1">  1        2 0.14977581E-01 0.10375094E+03</pdfrwt>
<pdfrwt beam="2">  1       -2 0.61333082E-01 0.10375094E+03</pdfrwt>
<totfact> 0.95769369E+02</totfact>
</mgrwt>
</event>
<event>
 8    1  0.5224537E-004  0.9440356E+02  0.7546771E-02  0.1292563E+00
          1   -1    0    0  501    0  0.00000000000E+00  0.00000000000E+00  0.22339883459E+03  0.22339883459E+03  0.00000000000E+00 0. -1.
         -1   -1    0    0    0  501 -0.00000000000E+00 -0.00000000000E+00 -0.41172014115E+02  0.41172014115E+02  0.00000000000E+00 0.  1.
         23    2    1    2    0    0  0.11787756939E+02  0.21585446964E+02  0.11471324569E+03  0.14856366016E+03  0.91143566133E+02 0.  0.
         23    2    1    2    0    0 -0.11787756939E+02 -0.21585446964E+02  0.67513574781E+02  0.11600718855E+03  0.91075256137E+02 0.  0.
          5    1    3    3  502    0  0.42739307694E+02  0.18065890758E+02  0.10610910351E+03  0.11590624090E+03  0.47000000000E+01 0. -1.
         -5    1    4    4    0  503 -0.41165062532E+02 -0.20440843822E+01  0.68856860790E+02  0.80387175171E+02  0.47000000000E+01 0.  1.
          5    1    4    4  503    0  0.29377305593E+02 -0.19541362582E+02 -0.13432860090E+01  0.35620013374E+02  0.47000000000E+01 0. -1.
         -5    1    3    3    0  502 -0.30951550755E+02  0.35195562069E+01  0.86041421827E+01  0.32657419260E+02  0.47000000000E+01 0.  1.
<mgrwt>
<rscale>  0 0.94387070E+02</rscale>
<asrwt>0</asrwt>
<pdfrwt beam="1">  1        1 0.34369051E-01 0.94403561E+02</pdfrwt>
<pdfrwt beam="2">  1       -1 0.63341562E-02 0.94403561E+02</pdfrwt>
<totfact> 0.14194235E+04</totfact>
</mgrwt>
</event>
<event>
 8    1  0.5224537E-004  0.9143148E+02  0.7546771E-02  0.1299565E+00
         -3   -1    0    0    0  501 -0.00000000000E+00  0.00000000000E+00  0.13463053668E+02  0.13463053668E+02  0.00000000000E+00 0.  1.
          3   -1    0    0  501    0  0.00000000000E+00 -0.00000000000E+00 -0.62087516090E+03  0.62087516090E+03  0.00000000000E+00 0. -1.
         23    2    1    2    0    0 -0.12546527593E+02  0.77212207787E+01 -0.28811031004E+03  0.30227018745E+03  0.90236815449E+02 0.  0.
         23    2    1    2    0    0  0.12546527593E+02 -0.77212207787E+01 -0.31930179719E+03  0.33206802712E+03  0.89991690406E+02 0.  0.
          5    1    4    4  502    0  0.40256141051E+02 -0.32673505721E+02 -0.15450460746E+03  0.16303950010E+03  0.47000000000E+01 0. -1.
         -5    1    4    4    0  502 -0.27709613459E+02  0.24952284942E+02 -0.16479718974E+03  0.16902852702E+03  0.47000000000E+01 0.  1.
          5    1    3    3  503    0  0.92800747728E+01  0.30558630861E+02 -0.25201340915E+03  0.25407242687E+03  0.47000000000E+01 0. -1.
         -5    1    3    3    0  503 -0.21826602365E+02 -0.22837410082E+02 -0.36096900893E+02  0.48197760572E+02  0.47000000000E+01 0.  1.
<mgrwt>
<rscale>  0 0.91370941E+02</rscale>
<asrwt>0</asrwt>
<pdfrwt beam="1">  1        3 0.95519253E-01 0.91431480E+02</pdfrwt>
<pdfrwt beam="2">  1       -3 0.20712391E-02 0.91431480E+02</pdfrwt>
<totfact> 0.19389538E+03</totfact>
</mgrwt>
</event>
<event>
 8    1  0.5224537E-004  0.1074936E+03  0.7546771E-02  0.1274477E+00
         -1   -1    0    0    0  501 -0.00000000000E+00  0.00000000000E+00  0.86888217163E+02  0.86888217163E+02  0.00000000000E+00 0.  1.
          1   -1    0    0  501    0  0.00000000000E+00 -0.00000000000E+00 -0.12327797194E+03  0.12327797194E+03  0.00000000000E+00 0. -1.
         23    2    1    2    0    0 -0.25120790451E+02  0.96247708821E+00 -0.48111904866E+02  0.10203529105E+03  0.86397133953E+02 0.  0.
         23    2    1    2    0    0  0.25120790451E+02 -0.96247708821E+00  0.11722150092E+02  0.10813089805E+03  0.10451268743E+03 0.  0.
          5    1    3    3  502    0 -0.14013443605E+02 -0.38216422803E+02 -0.30070366008E+01  0.41085323933E+02  0.47000000000E+01 0. -1.
         -5    1    4    4    0  503  0.28140304051E+02  0.44384356536E+02 -0.15441736650E+02  0.54976222570E+02  0.47000000000E+01 0.  1.
          5    1    4    4  503    0 -0.30195136004E+01 -0.45346833625E+02  0.27163886743E+02  0.53154675478E+02  0.47000000000E+01 0.  1.
         -5    1    3    3    0  502 -0.11107346847E+02  0.39178899892E+02 -0.45104868265E+02  0.60949967120E+02  0.47000000000E+01 0. -1.
<mgrwt>
<rscale>  0 0.10281912E+03</rscale>
<asrwt>0</asrwt>
<pdfrwt beam="1">  1        1 0.18965842E-01 0.10749364E+03</pdfrwt>
<pdfrwt beam="2">  1       -1 0.13367418E-01 0.10749364E+03</pdfrwt>
<totfact> 0.97485392E+03</totfact>
</mgrwt>
</event>
<event>
 8    1  0.5224537E-004  0.1036781E+03  0.7546771E-02  0.1276238E+00
          3   -1    0    0  501    0  0.00000000000E+00  0.00000000000E+00  0.11819965818E+03  0.11819965818E+03  0.00000000000E+00 0. -1.
         -3   -1    0    0    0  501 -0.00000000000E+00 -0.00000000000E+00 -0.90187664748E+02  0.90187664748E+02  0.00000000000E+00 0.  1.
         23    2    1    2    0    0  0.16763237307E+02  0.32910524900E+02 -0.11077329010E+02  0.97585106289E+02  0.89643945569E+02 0.  0.
         23    2    1    2    0    0 -0.16763237307E+02 -0.32910524900E+02  0.39089322443E+02  0.11080221664E+03  0.96876453842E+02 0.  0.
          5    1    4    4  502    0  0.59514420742E+01 -0.38267000155E+02  0.64879090544E+02  0.75704487010E+02  0.47000000000E+01 0. -1.
         -5    1    4    4    0  502 -0.22714679381E+02  0.53564752551E+01 -0.25789768100E+02  0.35097729631E+02  0.47000000000E+01 0.  1.
          5    1    3    3  503    0 -0.39199291823E+01 -0.28320144481E+02  0.79578283716E+01  0.30046854421E+02  0.47000000000E+01 0. -1.
         -5    1    3    3    0  503  0.20683166489E+02  0.61230669380E+02 -0.19035157382E+02  0.67538251868E+02  0.47000000000E+01 0.  1.
<mgrwt>
<rscale>  0 0.10195469E+03</rscale>
<asrwt>0</asrwt>
<pdfrwt beam="1">  1        3 0.18184563E-01 0.10367814E+03</pdfrwt>
<pdfrwt beam="2">  1       -3 0.13875025E-01 0.10367814E+03</pdfrwt>
<totfact> 0.24503308E+03</totfact>
</mgrwt>
</event>
<event>
 8    1  0.5224537E-004  0.1020852E+03  0.7546771E-02  0.1276272E+00
         -3   -1    0    0    0  501 -0.00000000000E+00  0.00000000000E+00  0.38796883683E+03  0.38796883683E+03  0.00000000000E+00 0.  1.
          3   -1    0    0  501    0  0.00000000000E+00 -0.00000000000E+00 -0.31612349632E+02  0.31612349632E+02  0.00000000000E+00 0. -1.
         23    2    1    2    0    0 -0.28659286430E+02 -0.36654192684E+02  0.95106621388E+02  0.13909433938E+03  0.90205771854E+02 0.  0.
         23    2    1    2    0    0  0.28659286430E+02  0.36654192684E+02  0.26124986581E+03  0.28048684709E+03  0.90865254414E+02 0.  0.
          5    1    3    3  502    0 -0.13230251400E+02 -0.62818639254E+02  0.85238912965E+02  0.10681284227E+03  0.47000000000E+01 0. -1.
         -5    1    4    4    0  503  0.13092728076E+02  0.57296387561E+02  0.23865645447E+03  0.24583183036E+03  0.47000000000E+01 0.  1.
          5    1    4    4  503    0  0.15566558355E+02 -0.20642194877E+02  0.22593411346E+02  0.34655016731E+02  0.47000000000E+01 0. -1.
         -5    1    3    3    0  502 -0.15429035030E+02  0.26164446570E+02  0.98677084224E+01  0.32281497112E+02  0.47000000000E+01 0.  1.
<mgrwt>
<rscale>  0 0.10193820E+03</rscale>
<asrwt>0</asrwt>
<pdfrwt beam="1">  1        3 0.48634387E-02 0.10208516E+03</pdfrwt>
<pdfrwt beam="2">  1       -3 0.59687510E-01 0.10208516E+03</pdfrwt>
<totfact> 0.14490958E+03</totfact>
</mgrwt>
</event>
<event>
 8    1  0.5224537E-004  0.1418494E+03  0.7546771E-02  0.1218699E+00
          2   -1    0    0  501    0  0.00000000000E+00  0.00000000000E+00  0.56790603390E+03  0.56790603390E+03  0.00000000000E+00 0. -1.
         -2   -1    0    0    0  501 -0.00000000000E+00 -0.00000000000E+00 -0.30563964710E+02  0.30563964710E+02  0.00000000000E+00 0.  1.
         23    2    1    2    0    0 -0.66752442297E+01  0.76530321382E+02  0.25895330459E+03  0.29525931987E+03  0.11924681561E+03 0.  0.
         23    2    1    2    0    0  0.66752442297E+01 -0.76530321382E+02  0.27838876460E+03  0.30321067874E+03  0.92384860625E+02 0.  0.
          5    1    4    4  502    0 -0.18026010884E+02  0.11236699103E+02  0.21524882320E+02  0.30604101588E+02  0.47000000000E+01 0. -1.
         -5    1    4    4    0  502  0.24701255113E+02 -0.87767020485E+02  0.25686388228E+03  0.27260657715E+03  0.47000000000E+01 0.  1.
          5    1    3    3  503    0  0.37189075429E+02  0.87523794201E+02  0.19224436583E+03  0.21453071592E+03  0.47000000000E+01 0. -1.
         -5    1    3    3    0  503 -0.43864319658E+02 -0.10993472819E+02  0.66708938764E+02  0.80728603944E+02  0.47000000000E+01 0.  1.
<mgrwt>
<rscale>  0 0.13608274E+03</rscale>
<asrwt>0</asrwt>
<pdfrwt beam="1">  1        2 0.87370151E-01 0.14184940E+03</pdfrwt>
<pdfrwt beam="2">  1       -2 0.47021488E-02 0.14184940E+03</pdfrwt>
<totfact> 0.11053228E+04</totfact>
</mgrwt>
</event>
<event>
 8    1  0.5224537E-004  0.1050482E+03  0.7546771E-02  0.1271156E+00
          1   -1    0    0  501    0  0.00000000000E+00  0.00000000000E+00  0.10210197636E+04  0.10210197636E+04  0.00000000000E+00 0. -1.
         -1   -1    0    0    0  501 -0.00000000000E+00 -0.00000000000E+00 -0.11383838587E+02  0.11383838587E+02  0.00000000000E+00 0.  1.
         23    2    1    2    0    0 -0.38077017697E+02  0.31283830168E+02  0.36215859818E+03  0.37646000150E+03  0.90192822278E+02 0.  0.
         23    2    1    2    0    0  0.38077017697E+02 -0.31283830168E+02  0.64747732687E+03  0.65594360072E+03  0.92771661665E+02 0.  0.
          5    1    3    3  502    0 -0.35095772734E+02  0.60236986164E+02  0.20558603535E+03  0.21713570802E+03  0.47000000000E+01 0. -1.
         -5    1    4    4    0  503  0.65615803287E+02 -0.32079792620E+02  0.37795806256E+03  0.38497913423E+03  0.47000000000E+01 0.  1.
          5    1    4    4  503    0 -0.27538785590E+02  0.79596245130E+00  0.26951926431E+03  0.27096446649E+03  0.47000000000E+01 0. -1.
         -5    1    3    3    0  502 -0.29812449632E+01 -0.28953155996E+02  0.15657256283E+03  0.15932429348E+03  0.47000000000E+01 0.  1.
<mgrwt>
<rscale>  0 0.10447593E+03</rscale>
<asrwt>0</asrwt>
<pdfrwt beam="1">  1        1 0.15707989E+00 0.10504817E+03</pdfrwt>
<pdfrwt beam="2">  1       -1 0.17513606E-02 0.10504817E+03</pdfrwt>
<totfact> 0.12142636E+04</totfact>
</mgrwt>
</event>
<event>
 8    1  0.1470828E-003  0.2275614E+03  0.7546771E-02  0.1129759E+00
          2   -1    0    0  501    0  0.00000000000E+00  0.00000000000E+00  0.13971591390E+04  0.13971591390E+04  0.00000000000E+00 0. -1.
         -2   -1    0    0    0  501 -0.00000000000E+00 -0.00000000000E+00 -0.11189538685E+03  0.11189538685E+03  0.00000000000E+00 0.  1.
         23    2    1    2    0    0 -0.17060659128E+03 -0.10485347262E+03  0.12682384511E+04  0.12884925172E+04  0.10808949259E+03 0.  0.
         23    2    1    2    0    0  0.17060659128E+03  0.10485347262E+03  0.17025301038E+02  0.22056200861E+03  0.90867370699E+02 0.  0.
          5    1    3    3  502    0 -0.14609984904E+03 -0.12730966321E+03  0.10639160726E+04  0.10814307263E+04  0.47000000000E+01 0. -1.
         -5    1    4    4    0  503  0.14130284640E+03  0.12095273139E+03  0.16561404505E+02  0.18679514916E+03  0.47000000000E+01 0.  1.
          5    1    4    4  503    0  0.29303744880E+02 -0.16099258770E+02  0.46389653320E+00  0.33766859447E+02  0.47000000000E+01 0. -1.
         -5    1    3    3    0  502 -0.24506742234E+02  0.22456190589E+02  0.20432237845E+03  0.20706179089E+03  0.47000000000E+01 0.  1.
<mgrwt>
<rscale>  0 0.22562240E+03</rscale>
<asrwt>0</asrwt>
<pdfrwt beam="1">  1        2 0.21494755E+00 0.22756142E+03</pdfrwt>
<pdfrwt beam="2">  1       -2 0.17214676E-01 0.22756142E+03</pdfrwt>
<totfact> 0.42634366E+02</totfact>
</mgrwt>
</event>
<event>
 8    1  0.5224537E-004  0.9278890E+02  0.7546771E-02  0.1297739E+00
         -2   -1    0    0    0  501 -0.00000000000E+00  0.00000000000E+00  0.15206587854E+02  0.15206587854E+02  0.00000000000E+00 0.  1.
          2   -1    0    0  501    0  0.00000000000E+00 -0.00000000000E+00 -0.55095141704E+03  0.55095141704E+03  0.00000000000E+00 0. -1.
         23    2    1    2    0    0 -0.61079663425E+01 -0.21423015319E+02 -0.26963936421E+03  0.28433909319E+03  0.87447586264E+02 0.  0.
         23    2    1    2    0    0  0.61079663425E+01  0.21423015319E+02 -0.26610546498E+03  0.28181891171E+03  0.90075122362E+02 0.  0.
          5    1    3    3  502    0  0.22785164930E+02  0.25559382249E+02 -0.92175716999E+02  0.98442361644E+02  0.47000000000E+01 0. -1.
         -5    1    4    4    0  503 -0.79236137769E+01  0.48949310074E+02 -0.22348598017E+03  0.22896919432E+03  0.47000000000E+01 0. -1.
          5    1    4    4  503    0  0.14031580119E+02 -0.27526294755E+02 -0.42619484802E+02  0.52849717392E+02  0.47000000000E+01 0.  1.
         -5    1    3    3    0  502 -0.28893131273E+02 -0.46982397568E+02 -0.17746364721E+03  0.18589673154E+03  0.47000000000E+01 0.  1.
<mgrwt>
<rscale>  0 0.92145113E+02</rscale>
<asrwt>0</asrwt>
<pdfrwt beam="1">  1        2 0.84761745E-01 0.92788903E+02</pdfrwt>
<pdfrwt beam="2">  1       -2 0.23394754E-02 0.92788903E+02</pdfrwt>
<totfact> 0.30717532E+04</totfact>
</mgrwt>
</event>
<event>
 8    1  0.5224537E-004  0.9973986E+02  0.7546771E-02  0.1281403E+00
         -1   -1    0    0    0  501 -0.00000000000E+00  0.00000000000E+00  0.38017708985E+03  0.38017708985E+03  0.00000000000E+00 0.  1.
          1   -1    0    0  501    0  0.00000000000E+00 -0.00000000000E+00 -0.28443660899E+02  0.28443660899E+02  0.00000000000E+00 0. -1.
         23    2    1    2    0    0  0.37463174798E+02  0.54863255845E+01  0.11551232346E+03  0.15261433948E+03  0.92273780172E+02 0.  0.
         23    2    1    2    0    0 -0.37463174798E+02 -0.54863255845E+01  0.23622110549E+03  0.25600641127E+03  0.91133323768E+02 0.  0.
          5    1    4    4  502    0  0.96928794378E+01  0.33268425038E+02  0.59901500051E+02  0.69361514723E+02  0.47000000000E+01 0. -1.
         -5    1    4    4    0  502 -0.47156054236E+02 -0.38754750623E+02  0.17631960544E+03  0.18664489655E+03  0.47000000000E+01 0.  1.
          5    1    3    3  503    0  0.35019286254E+02 -0.24936028321E+02  0.11373913385E+03  0.12168334515E+03  0.47000000000E+01 0. -1.
         -5    1    3    3    0  503  0.24438885437E+01  0.30422353905E+02  0.17731896109E+01  0.30930994322E+02  0.47000000000E+01 0.  1.
<mgrwt>
<rscale>  0 0.99475275E+02</rscale>
<asrwt>0</asrwt>
<pdfrwt beam="1">  1        1 0.43759481E-02 0.99739860E+02</pdfrwt>
<pdfrwt beam="2">  1       -1 0.58488779E-01 0.99739860E+02</pdfrwt>
<totfact> 0.56867077E+03</totfact>
</mgrwt>
</event>
<event>
 8    1  0.5224537E-004  0.1084830E+03  0.7546771E-02  0.1263458E+00
         -1   -1    0    0    0  501 -0.00000000000E+00  0.00000000000E+00  0.19984329479E+03  0.19984329479E+03  0.00000000000E+00 0.  1.
          1   -1    0    0  501    0  0.00000000000E+00 -0.00000000000E+00 -0.62625559985E+02  0.62625559985E+02  0.00000000000E+00 0. -1.
         23    2    1    2    0    0 -0.46600632868E+02 -0.37250803960E+02  0.36328348196E+02  0.11440415688E+03  0.90605302543E+02 0.  0.
         23    2    1    2    0    0  0.46600632868E+02  0.37250803960E+02  0.10088938661E+03  0.14806469790E+03  0.90472344136E+02 0.  0.
          5    1    4    4  502    0  0.50049644154E+02  0.63449376614E+02  0.82139587062E+02  0.11532472430E+03  0.47000000000E+01 0. -1.
         -5    1    3    3    0  503 -0.22204217219E+02 -0.49086323772E+02  0.58055367167E+02  0.79341099694E+02  0.47000000000E+01 0.  1.
          5    1    3    3  503    0 -0.24396415649E+02  0.11835519812E+02 -0.21727018971E+02  0.35063057184E+02  0.47000000000E+01 0. -1.
         -5    1    4    4    0  502 -0.34490112855E+01 -0.26198572653E+02  0.18749799547E+02  0.32739973595E+02  0.47000000000E+01 0.  1.
<mgrwt>
<rscale>  0 0.10845524E+03</rscale>
<asrwt>0</asrwt>
<pdfrwt beam="1">  1        1 0.96347016E-02 0.10848300E+03</pdfrwt>
<pdfrwt beam="2">  1       -1 0.30745122E-01 0.10848300E+03</pdfrwt>
<totfact> 0.61704265E+03</totfact>
</mgrwt>
</event>
<event>
 8    1  0.5224537E-004  0.2998789E+03  0.7546771E-02  0.1086666E+00
          2   -1    0    0  501    0  0.00000000000E+00  0.00000000000E+00  0.12012691921E+04  0.12012691921E+04  0.00000000000E+00 0. -1.
         -2   -1    0    0    0  501 -0.00000000000E+00 -0.00000000000E+00 -0.83540378164E+02  0.83540378164E+02  0.00000000000E+00 0.  1.
         23    2    1    2    0    0  0.16196726344E+02 -0.27382511205E+03  0.78662117744E+03  0.83808861794E+03  0.91526656198E+02 0.  0.
         23    2    1    2    0    0 -0.16196726344E+02  0.27382511205E+03  0.33110763653E+03  0.44672095236E+03  0.12118092412E+03 0.  0.
          5    1    4    4  502    0 -0.68417098149E+02  0.13362307494E+03  0.16569936470E+03  0.22363898349E+03  0.47000000000E+01 0. -1.
         -5    1    3    3    0  503 -0.20013325832E+02 -0.16932315572E+03  0.56772613212E+03  0.59279500281E+03  0.47000000000E+01 0.  1.
          5    1    3    3  503    0  0.36210052177E+02 -0.10450195633E+03  0.21889504532E+03  0.24529361513E+03  0.47000000000E+01 0. -1.
         -5    1    4    4    0  502  0.52220371805E+02  0.14020203711E+03  0.16540827183E+03  0.22308196886E+03  0.47000000000E+01 0.  1.
<mgrwt>
<rscale>  0 0.29716520E+03</rscale>
<asrwt>0</asrwt>
<pdfrwt beam="1">  1        2 0.18481063E+00 0.29987888E+03</pdfrwt>
<pdfrwt beam="2">  1       -2 0.12852367E-01 0.29987888E+03</pdfrwt>
<totfact> 0.88210917E+02</totfact>
</mgrwt>
</event>
<event>
 8    1  0.5224537E-004  0.9341644E+02  0.7546771E-02  0.1294938E+00
          4   -1    0    0  501    0  0.00000000000E+00  0.00000000000E+00  0.34474972917E+02  0.34474972917E+02  0.00000000000E+00 0. -1.
         -4   -1    0    0    0  501 -0.00000000000E+00 -0.00000000000E+00 -0.36816931162E+03  0.36816931162E+03  0.00000000000E+00 0.  1.
         23    2    1    2    0    0  0.42313899208E+01  0.16602558244E+02 -0.53790009434E+02  0.10756282935E+03  0.91557891748E+02 0.  0.
         23    2    1    2    0    0 -0.42313899208E+01 -0.16602558244E+02 -0.27990432927E+03  0.29508145519E+03  0.91831813943E+02 0.  0.
          5    1    3    3  502    0  0.24483470724E+02  0.40303260485E+02 -0.26237053806E+01  0.47463322411E+02  0.47000000000E+01 0. -1.
         -5    1    3    3    0  502 -0.20252080803E+02 -0.23700702240E+02 -0.51166304054E+02  0.60099506937E+02  0.47000000000E+01 0.  1.
          5    1    4    4  503    0 -0.33008015855E+02  0.25300373456E+02 -0.11087914200E+03  0.11851545105E+03  0.47000000000E+01 0. -1.
         -5    1    4    4    0  503  0.28776625934E+02 -0.41902931700E+02 -0.16902518727E+03  0.17656600414E+03  0.47000000000E+01 0.  1.
<mgrwt>
<rscale>  0 0.93349054E+02</rscale>
<asrwt>0</asrwt>
<pdfrwt beam="1">  1        4 0.53038421E-02 0.93416442E+02</pdfrwt>
<pdfrwt beam="2">  1       -4 0.56641432E-01 0.93416442E+02</pdfrwt>
<totfact> 0.98670079E+02</totfact>
</mgrwt>
</event>
<event>
 8    1  0.5224537E-004  0.9516283E+02  0.7546771E-02  0.1293491E+00
          1   -1    0    0  501    0  0.00000000000E+00  0.00000000000E+00  0.35539581103E+02  0.35539581103E+02  0.00000000000E+00 0. -1.
         -1   -1    0    0    0  501 -0.00000000000E+00 -0.00000000000E+00 -0.24303749081E+03  0.24303749081E+03  0.00000000000E+00 0.  1.
         23    2    1    2    0    0 -0.94721227398E+01 -0.23310346618E+02 -0.11272026952E+03  0.14751889067E+03  0.91776198303E+02 0.  0.
         23    2    1    2    0    0  0.94721227398E+01  0.23310346618E+02 -0.94777640181E+02  0.13105818124E+03  0.86950287077E+02 0.  0.
          5    1    3    3  502    0  0.16450478839E+02 -0.51291075972E+02 -0.48274292419E+02  0.72483722566E+02  0.47000000000E+01 0. -1.
         -5    1    4    4    0  503 -0.24042296577E+02  0.44267654228E+02 -0.49711890068E+02  0.70929678201E+02  0.47000000000E+01 0.  1.
          5    1    4    4  503    0  0.33514419316E+02 -0.20957307610E+02 -0.45065750112E+02  0.60128503038E+02  0.47000000000E+01 0. -1.
         -5    1    3    3    0  502 -0.25922601579E+02  0.27980729354E+02 -0.64445977102E+02  0.75035168104E+02  0.47000000000E+01 0.  1.
<mgrwt>
<rscale>  0 0.93979651E+02</rscale>
<asrwt>0</asrwt>
<pdfrwt beam="1">  1        1 0.54676281E-02 0.95162829E+02</pdfrwt>
<pdfrwt beam="2">  1       -1 0.37390382E-01 0.95162829E+02</pdfrwt>
<totfact> 0.93268926E+03</totfact>
</mgrwt>
</event>
<event>
 8    1  0.5224537E-004  0.9738711E+02  0.7546771E-02  0.1289289E+00
         -2   -1    0    0    0  501 -0.00000000000E+00  0.00000000000E+00  0.11993940293E+02  0.11993940293E+02  0.00000000000E+00 0.  1.
          2   -1    0    0  501    0  0.00000000000E+00 -0.00000000000E+00 -0.82588004746E+03  0.82588004746E+03  0.00000000000E+00 0. -1.
         23    2    1    2    0    0  0.85976332367E+01  0.22376070959E+01 -0.26223216952E+03  0.27768980761E+03  0.90923002262E+02 0.  0.
         23    2    1    2    0    0 -0.85976332367E+01 -0.22376070959E+01 -0.55165393765E+03  0.56018418014E+03  0.96981042327E+02 0.  0.
          5    1    3    3  502    0  0.40481350111E+02  0.28543272498E+02 -0.14295376691E+03  0.15136488227E+03  0.47000000000E+01 0.  1.
         -5    1    3    3    0  502 -0.31883716874E+02 -0.26305665402E+02 -0.11927840261E+03  0.12632492534E+03  0.47000000000E+01 0. -1.
          5    1    4    4  503    0 -0.31606780942E+02  0.38686579806E+02 -0.29082539682E+03  0.29512224839E+03  0.47000000000E+01 0. -1.
         -5    1    4    4    0  503  0.23009147706E+02 -0.40924186902E+02 -0.26082854084E+03  0.26506193176E+03  0.47000000000E+01 0.  1.
<mgrwt>
<rscale>  0 0.95842993E+02</rscale>
<asrwt>0</asrwt>
<pdfrwt beam="1">  1        2 0.12705849E+00 0.97387108E+02</pdfrwt>
<pdfrwt beam="2">  1       -2 0.18452212E-02 0.97387108E+02</pdfrwt>
<totfact> 0.27154955E+04</totfact>
</mgrwt>
</event>
<event>
 8    1  0.5224537E-004  0.1066129E+03  0.7546771E-02  0.1269037E+00
         -1   -1    0    0    0  501 -0.00000000000E+00  0.00000000000E+00  0.13488595853E+02  0.13488595853E+02  0.00000000000E+00 0.  1.
          1   -1    0    0  501    0  0.00000000000E+00 -0.00000000000E+00 -0.82953949038E+03  0.82953949038E+03  0.00000000000E+00 0. -1.
         23    2    1    2    0    0 -0.37803943442E+02  0.34466301409E+02 -0.33525149156E+03  0.35055029608E+03  0.88740539866E+02 0.  0.
         23    2    1    2    0    0  0.37803943442E+02 -0.34466301409E+02 -0.48079940297E+03  0.49247779016E+03  0.93537392670E+02 0.  0.
          5    1    3    3  502    0  0.20410511317E+02  0.26002013396E+02 -0.20302547989E+03  0.20575259211E+03  0.47000000000E+01 0. -1.
         -5    1    4    4    0  503 -0.26216751294E+02 -0.21966793656E+02 -0.92977899960E+02  0.99180834604E+02  0.47000000000E+01 0.  1.
          5    1    4    4  503    0  0.64020694735E+02 -0.12499507753E+02 -0.38782150301E+03  0.39329695555E+03  0.47000000000E+01 0. -1.
         -5    1    3    3    0  502 -0.58214454758E+02  0.84642880132E+01 -0.13222601166E+03  0.14479770397E+03  0.47000000000E+01 0.  1.
<mgrwt>
<rscale>  0 0.10555147E+03</rscale>
<asrwt>0</asrwt>
<pdfrwt beam="1">  1        1 0.12762147E+00 0.10661289E+03</pdfrwt>
<pdfrwt beam="2">  1       -1 0.20751684E-02 0.10661289E+03</pdfrwt>
<totfact> 0.13285146E+04</totfact>
</mgrwt>
</event>
<event>
 8    1  0.5224537E-004  0.1767717E+03  0.7546771E-02  0.1174257E+00
          1   -1    0    0  501    0  0.00000000000E+00  0.00000000000E+00  0.47978929536E+03  0.47978929536E+03  0.00000000000E+00 0. -1.
         -1   -1    0    0    0  501 -0.00000000000E+00 -0.00000000000E+00 -0.65543878487E+02  0.65543878487E+02  0.00000000000E+00 0.  1.
         23    2    1    2    0    0  0.80081322860E+02 -0.11066068184E+03  0.13876912701E+03  0.22473337336E+03  0.11220255663E+03 0.  0.
         23    2    1    2    0    0 -0.80081322860E+02  0.11066068184E+03  0.27547628986E+03  0.32059980049E+03  0.90764756497E+02 0.  0.
          5    1    3    3  502    0  0.10016136118E+03 -0.62892747422E+02  0.66754622979E+02  0.13588990265E+03  0.47000000000E+01 0. -1.
         -5    1    4    4    0  503 -0.65668426857E+02  0.31787816934E+02  0.75492632975E+02  0.10509060484E+03  0.47000000000E+01 0.  1.
          5    1    4    4  503    0 -0.14412896004E+02  0.78872864902E+02  0.19998365689E+03  0.21550919565E+03  0.47000000000E+01 0. -1.
         -5    1    3    3    0  502 -0.20080038321E+02 -0.47767934414E+02  0.72014504032E+02  0.88843470712E+02  0.47000000000E+01 0.  1.
<mgrwt>
<rscale>  0 0.17348924E+03</rscale>
<asrwt>0</asrwt>
<pdfrwt beam="1">  1        1 0.73813736E-01 0.17677166E+03</pdfrwt>
<pdfrwt beam="2">  1       -1 0.10083674E-01 0.17677166E+03</pdfrwt>
<totfact> 0.28252960E+03</totfact>
</mgrwt>
</event>
<event>
 8    1  0.5224537E-004  0.1220838E+03  0.7546771E-02  0.1248709E+00
          3   -1    0    0  501    0  0.00000000000E+00  0.00000000000E+00  0.12061205839E+03  0.12061205839E+03  0.00000000000E+00 0. -1.
         -3   -1    0    0    0  501 -0.00000000000E+00 -0.00000000000E+00 -0.16461483365E+03  0.16461483365E+03  0.00000000000E+00 0.  1.
         23    2    1    2    0    0 -0.20926723171E+02 -0.34742680180E+02  0.63132963621E+02  0.13744170433E+03  0.11514976953E+03 0.  0.
         23    2    1    2    0    0  0.20926723171E+02  0.34742680180E+02 -0.10713573889E+03  0.14778518771E+03  0.93367090518E+02 0.  0.
          5    1    3    3  502    0 -0.29822179961E+01 -0.43682087538E+02  0.91992686991E+02  0.10198903302E+03  0.47000000000E+01 0. -1.
         -5    1    3    3    0  502 -0.17944505175E+02  0.89394073585E+01 -0.28859723370E+02  0.35452671308E+02  0.47000000000E+01 0.  1.
          5    1    4    4  503    0  0.47717338425E+02  0.25496347607E+02 -0.23172010018E+02  0.59042697906E+02  0.47000000000E+01 0. -1.
         -5    1    4    4    0  503 -0.26790615254E+02  0.92463325726E+01 -0.83963728869E+02  0.88742489808E+02  0.47000000000E+01 0.  1.
<mgrwt>
<rscale>  0 0.11666109E+03</rscale>
<asrwt>0</asrwt>
<pdfrwt beam="1">  1        3 0.18555701E-01 0.12208379E+03</pdfrwt>
<pdfrwt beam="2">  1       -3 0.25325359E-01 0.12208379E+03</pdfrwt>
<totfact> 0.85352924E+02</totfact>
</mgrwt>
</event>
<event>
 8    1  0.5224537E-004  0.1564049E+03  0.7546771E-02  0.1193175E+00
          1   -1    0    0  501    0  0.00000000000E+00  0.00000000000E+00  0.36502802088E+03  0.36502802088E+03  0.00000000000E+00 0. -1.
         -1   -1    0    0    0  501 -0.00000000000E+00 -0.00000000000E+00 -0.74012655383E+02  0.74012655383E+02  0.00000000000E+00 0.  1.
         23    2    1    2    0    0 -0.12135054190E+03  0.24234832480E+02  0.75006297867E+02  0.17235284669E+03  0.93628403379E+02 0.  0.
         23    2    1    2    0    0  0.12135054190E+03 -0.24234832480E+02  0.21600906763E+03  0.26668782958E+03  0.95651450694E+02 0.  0.
          5    1    4    4  502    0  0.11721934984E+03 -0.49458713521E+02  0.15645110742E+03  0.20170666655E+03  0.47000000000E+01 0. -1.
         -5    1    4    4    0  502  0.41311920560E+01  0.25223881041E+02  0.59557960217E+02  0.64981163022E+02  0.47000000000E+01 0.  1.
          5    1    3    3  503    0 -0.18264927273E+02  0.39160303083E+02  0.47775970669E+02  0.64589242751E+02  0.47000000000E+01 0. -1.
         -5    1    3    3    0  503 -0.10308561462E+03 -0.14925470603E+02  0.27230327198E+02  0.10776360394E+03  0.47000000000E+01 0.  1.
<mgrwt>
<rscale>  0 0.15609671E+03</rscale>
<asrwt>0</asrwt>
<pdfrwt beam="1">  1        1 0.56158156E-01 0.15640486E+03</pdfrwt>
<pdfrwt beam="2">  1       -1 0.11386563E-01 0.15640486E+03</pdfrwt>
<totfact> 0.33076090E+03</totfact>
</mgrwt>
</event>
<event>
 8    1  0.5224537E-004  0.1373083E+03  0.7546771E-02  0.1217139E+00
          3   -1    0    0  501    0  0.00000000000E+00  0.00000000000E+00  0.38429338614E+03  0.38429338614E+03  0.00000000000E+00 0. -1.
         -3   -1    0    0    0  501 -0.00000000000E+00 -0.00000000000E+00 -0.48945636909E+02  0.48945636909E+02  0.00000000000E+00 0.  1.
         23    2    1    2    0    0  0.21482354268E+02 -0.99921121005E+02  0.16191106475E+03  0.21202903052E+03  0.91079058676E+02 0.  0.
         23    2    1    2    0    0 -0.21482354268E+02  0.99921121005E+02  0.17343668448E+03  0.22120999253E+03  0.91694358066E+02 0.  0.
          5    1    4    4  502    0  0.68536542787E+01  0.10381921863E+03  0.15538714294E+03  0.18706324312E+03  0.47000000000E+01 0. -1.
         -5    1    4    4    0  502 -0.28336008546E+02 -0.38980976235E+01  0.18049541542E+02  0.34146749410E+02  0.47000000000E+01 0.  1.
          5    1    3    3  503    0  0.33150296723E+01 -0.35785753112E+02  0.13535094925E+03  0.14011987371E+03  0.47000000000E+01 0. -1.
         -5    1    3    3    0  503  0.18167324595E+02 -0.64135367893E+02  0.26560115501E+02  0.71909156810E+02  0.47000000000E+01 0.  1.
<mgrwt>
<rscale>  0 0.13720568E+03</rscale>
<asrwt>0</asrwt>
<pdfrwt beam="1">  1        3 0.59122057E-01 0.13730833E+03</pdfrwt>
<pdfrwt beam="2">  1       -3 0.75300982E-02 0.13730833E+03</pdfrwt>
<totfact> 0.77452618E+02</totfact>
</mgrwt>
</event>
<event>
 8    1  0.5224537E-004  0.1265096E+03  0.7546771E-02  0.1233850E+00
          1   -1    0    0  501    0  0.00000000000E+00  0.00000000000E+00  0.13658122736E+03  0.13658122736E+03  0.00000000000E+00 0. -1.
         -1   -1    0    0    0  501 -0.00000000000E+00 -0.00000000000E+00 -0.12044728221E+03  0.12044728221E+03  0.00000000000E+00 0.  1.
         23    2    1    2    0    0  0.83029213928E+02 -0.20335261141E+02 -0.20333473592E+02  0.12813326439E+03  0.93259369956E+02 0.  0.
         23    2    1    2    0    0 -0.83029213928E+02  0.20335261141E+02  0.36467418735E+02  0.12889524518E+03  0.89312588074E+02 0.  0.
          5    1    3    3  502    0  0.64327282470E+02 -0.31193785917E+02 -0.52688419064E+02  0.88933745301E+02  0.47000000000E+01 0. -1.
         -5    1    4    4    0  503 -0.21383485739E+02  0.49708473374E+02  0.86039954420E+01  0.54993677138E+02  0.47000000000E+01 0. -1.
          5    1    4    4  503    0 -0.61645728189E+02 -0.29373212234E+02  0.27863423293E+02  0.73901568038E+02  0.47000000000E+01 0.  1.
         -5    1    3    3    0  502  0.18701931458E+02  0.10858524777E+02  0.32354945472E+02  0.39199519092E+02  0.47000000000E+01 0.  1.
<mgrwt>
<rscale>  0 0.12578321E+03</rscale>
<asrwt>0</asrwt>
<pdfrwt beam="1">  1        1 0.21012497E-01 0.12650962E+03</pdfrwt>
<pdfrwt beam="2">  1       -1 0.18530351E-01 0.12650962E+03</pdfrwt>
<totfact> 0.51964896E+03</totfact>
</mgrwt>
</event>
<event>
 8    1  0.5224537E-004  0.2119083E+03  0.7546771E-02  0.1140091E+00
         -1   -1    0    0    0  501 -0.00000000000E+00  0.00000000000E+00  0.62329875303E+02  0.62329875303E+02  0.00000000000E+00 0.  1.
          1   -1    0    0  501    0  0.00000000000E+00 -0.00000000000E+00 -0.74275131746E+03  0.74275131746E+03  0.00000000000E+00 0. -1.
         23    2    1    2    0    0  0.18991837221E+03  0.22458348303E+02 -0.41082257350E+03  0.46225566824E+03  0.91278422454E+02 0.  0.
         23    2    1    2    0    0 -0.18991837221E+03 -0.22458348303E+02 -0.26959886865E+03  0.34282552452E+03  0.90952871180E+02 0.  0.
          5    1    3    3  502    0  0.40541051344E+02 -0.28514022971E+02 -0.63234820193E+02  0.80482040449E+02  0.47000000000E+01 0. -1.
         -5    1    3    3    0  502  0.14937732087E+03  0.50972371274E+02 -0.34758775331E+03  0.38177362779E+03  0.47000000000E+01 0.  1.
          5    1    4    4  503    0 -0.75556050005E+02  0.27800917901E+02 -0.14736559253E+03  0.16798903414E+03  0.47000000000E+01 0. -1.
         -5    1    4    4    0  503 -0.11436232220E+03 -0.50259266203E+02 -0.12223327612E+03  0.17483649038E+03  0.47000000000E+01 0.  1.
<mgrwt>
<rscale>  0 0.21187326E+03</rscale>
<asrwt>0</asrwt>
<pdfrwt beam="1">  1        1 0.11426944E+00 0.21190827E+03</pdfrwt>
<pdfrwt beam="2">  1       -1 0.95892110E-02 0.21190827E+03</pdfrwt>
<totfact> 0.16745722E+03</totfact>
</mgrwt>
</event>
<event>
 8    1  0.5224537E-004  0.1031180E+03  0.7546771E-02  0.1274455E+00
          3   -1    0    0  501    0  0.00000000000E+00  0.00000000000E+00  0.93620490026E+02  0.93620490026E+02  0.00000000000E+00 0. -1.
         -3   -1    0    0    0  501 -0.00000000000E+00 -0.00000000000E+00 -0.23489375014E+03  0.23489375014E+03  0.00000000000E+00 0.  1.
         23    2    1    2    0    0 -0.42389119632E+02 -0.16197383676E+02 -0.18948034018E+03  0.21572230502E+03  0.92596548891E+02 0.  0.
         23    2    1    2    0    0  0.42389119632E+02  0.16197383676E+02  0.48207080071E+02  0.11279193514E+03  0.91317607083E+02 0.  0.
          5    1    3    3  502    0 -0.38705005253E+01 -0.50739050804E+02 -0.90163375550E+02  0.10363858520E+03  0.47000000000E+01 0. -1.
         -5    1    4    4    0  503  0.50194496310E+02  0.46834919412E+02  0.24683008762E+02  0.73104979705E+02  0.47000000000E+01 0.  1.
          5    1    4    4  503    0 -0.78053766775E+01 -0.30637535736E+02  0.23524071309E+02  0.39686955439E+02  0.47000000000E+01 0. -1.
         -5    1    3    3    0  502 -0.38518619107E+02  0.34541667128E+02 -0.99316964633E+02  0.11208371983E+03  0.47000000000E+01 0.  1.
<mgrwt>
<rscale>  0 0.10283003E+03</rscale>
<asrwt>0</asrwt>
<pdfrwt beam="1">  1        3 0.14403152E-01 0.10311796E+03</pdfrwt>
<pdfrwt beam="2">  1       -3 0.36137500E-01 0.10311796E+03</pdfrwt>
<totfact> 0.66587936E+02</totfact>
</mgrwt>
</event>
<event>
 8    1  0.5224537E-004  0.1440651E+03  0.7546771E-02  0.1209678E+00
         -1   -1    0    0    0  501 -0.00000000000E+00  0.00000000000E+00  0.25099466484E+02  0.25099466484E+02  0.00000000000E+00 0.  1.
          1   -1    0    0  501    0  0.00000000000E+00 -0.00000000000E+00 -0.85454654772E+03  0.85454654772E+03  0.00000000000E+00 0. -1.
         23    2    1    2    0    0 -0.10474194254E+03  0.45357072282E+01 -0.30805721548E+03  0.34007941215E+03  0.98809470161E+02 0.  0.
         23    2    1    2    0    0  0.10474194254E+03 -0.45357072282E+01 -0.52138986575E+03  0.53956660205E+03  0.91067440768E+02 0.  0.
          5    1    4    4  502    0  0.82785666847E+02 -0.18557402838E+02 -0.49481148438E+03  0.50205411951E+03  0.47000000000E+01 0. -1.
         -5    1    3    3    0  503  0.12679277562E+02  0.21418870566E+02 -0.55927999063E+02  0.61396768441E+02  0.47000000000E+01 0.  1.
          5    1    3    3  503    0 -0.11742122010E+03 -0.16883163338E+02 -0.25212921642E+03  0.27868264371E+03  0.47000000000E+01 0. -1.
         -5    1    4    4    0  502  0.21956275695E+02  0.14021695610E+02 -0.26578381367E+02  0.37512482539E+02  0.47000000000E+01 0.  1.
<mgrwt>
<rscale>  0 0.14274826E+03</rscale>
<asrwt>0</asrwt>
<pdfrwt beam="1">  1        1 0.13146870E+00 0.14406512E+03</pdfrwt>
<pdfrwt beam="2">  1       -1 0.38614563E-02 0.14406512E+03</pdfrwt>
<totfact> 0.52478341E+03</totfact>
</mgrwt>
</event>
<event>
 8    1  0.5224537E-004  0.1024288E+03  0.7546771E-02  0.1279639E+00
         -1   -1    0    0    0  501 -0.00000000000E+00  0.00000000000E+00  0.54327054551E+02  0.54327054551E+02  0.00000000000E+00 0.  1.
          1   -1    0    0  501    0  0.00000000000E+00 -0.00000000000E+00 -0.27863689070E+03  0.27863689070E+03  0.00000000000E+00 0. -1.
         23    2    1    2    0    0  0.20554024158E+02 -0.50035339721E+02 -0.21515815906E+03  0.23829539474E+03  0.86980794506E+02 0.  0.
         23    2    1    2    0    0 -0.20554024158E+02  0.50035339721E+02 -0.91516770875E+01  0.94668550513E+02  0.77151656706E+02 0.  0.
          5    1    4    4  502    0 -0.33815467027E+02 -0.74098377110E+01 -0.59536566702E+01  0.35439067889E+02  0.47000000000E+01 0. -1.
         -5    1    3    3    0  503 -0.22820614988E+02 -0.22757412674E+02 -0.24334558848E+02  0.40656377782E+02  0.47000000000E+01 0.  1.
          5    1    3    3  503    0  0.43374639146E+02 -0.27277927047E+02 -0.19082360022E+03  0.19763901696E+03  0.47000000000E+01 0. -1.
         -5    1    4    4    0  502  0.13261442869E+02  0.57445177432E+02 -0.31980204173E+01  0.59229482623E+02  0.47000000000E+01 0.  1.
<mgrwt>
<rscale>  0 0.10031326E+03</rscale>
<asrwt>0</asrwt>
<pdfrwt beam="1">  1        1 0.42867215E-01 0.10242881E+03</pdfrwt>
<pdfrwt beam="2">  1       -1 0.83580082E-02 0.10242881E+03</pdfrwt>
<totfact> 0.72180161E+03</totfact>
</mgrwt>
</event>
<event>
 8    1  0.5224537E-004  0.1102973E+03  0.7546771E-02  0.1263269E+00
         -1   -1    0    0    0  501 -0.00000000000E+00  0.00000000000E+00  0.39078227374E+02  0.39078227374E+02  0.00000000000E+00 0.  1.
          1   -1    0    0  501    0  0.00000000000E+00 -0.00000000000E+00 -0.59127258366E+03  0.59127258366E+03  0.00000000000E+00 0. -1.
         23    2    1    2    0    0 -0.56046636092E+02  0.16158918250E+02 -0.49577400426E+03  0.50646073801E+03  0.85488477482E+02 0.  0.
         23    2    1    2    0    0  0.56046636092E+02 -0.16158918250E+02 -0.56420352023E+02  0.12389007303E+03  0.93611740804E+02 0.  0.
          5    1    3    3  502    0 -0.33927382490E+02 -0.32521016125E+02 -0.17669802582E+03  0.18290152023E+03  0.47000000000E+01 0. -1.
         -5    1    4    4    0  503  0.80158813127E+02 -0.10586376266E+02 -0.27489176123E+02  0.85529243469E+02  0.47000000000E+01 0.  1.
          5    1    4    4  503    0 -0.24112177036E+02 -0.55725419833E+01 -0.28931175900E+02  0.38360829560E+02  0.47000000000E+01 0. -1.
         -5    1    3    3    0  502 -0.22119253602E+02  0.48679934375E+02 -0.31907597844E+03  0.32355921778E+03  0.47000000000E+01 0.  1.
<mgrwt>
<rscale>  0 0.10855516E+03</rscale>
<asrwt>0</asrwt>
<pdfrwt beam="1">  1        1 0.90965002E-01 0.11029730E+03</pdfrwt>
<pdfrwt beam="2">  1       -1 0.60120357E-02 0.11029730E+03</pdfrwt>
<totfact> 0.45820181E+03</totfact>
</mgrwt>
</event>
<event>
 8    1  0.5224537E-004  0.9406321E+02  0.7546771E-02  0.1293498E+00
          3   -1    0    0  501    0  0.00000000000E+00  0.00000000000E+00  0.25589755933E+02  0.25589755933E+02  0.00000000000E+00 0. -1.
         -3   -1    0    0    0  501 -0.00000000000E+00 -0.00000000000E+00 -0.38745844864E+03  0.38745844864E+03  0.00000000000E+00 0.  1.
         23    2    1    2    0    0 -0.64733956937E-01  0.25804314028E+02 -0.11186201512E+03  0.14593170134E+03  0.90094862326E+02 0.  0.
         23    2    1    2    0    0  0.64733956937E-01 -0.25804314028E+02 -0.25000667758E+03  0.26711650323E+03  0.90454522532E+02 0.  0.
          5    1    4    4  502    0  0.37382728720E+02 -0.34432483928E+02 -0.10060977921E+03  0.11281614259E+03  0.47000000000E+01 0. -1.
         -5    1    4    4    0  502 -0.37317994763E+02  0.86281699003E+01 -0.14939689838E+03  0.15430036064E+03  0.47000000000E+01 0.  1.
          5    1    3    3  503    0 -0.28838056708E+02 -0.22783524258E+02 -0.44719934742E+02  0.58074822906E+02  0.47000000000E+01 0. -1.
         -5    1    3    3    0  503  0.28773322751E+02  0.48587838285E+02 -0.67142080378E+02  0.87856878438E+02  0.47000000000E+01 0.  1.
<mgrwt>
<rscale>  0 0.93976638E+02</rscale>
<asrwt>0</asrwt>
<pdfrwt beam="1">  1        3 0.39368859E-02 0.94063210E+02</pdfrwt>
<pdfrwt beam="2">  1       -3 0.59608986E-01 0.94063210E+02</pdfrwt>
<totfact> 0.19888850E+03</totfact>
</mgrwt>
</event>
<event>
 8    1  0.5224537E-004  0.1096827E+03  0.7546771E-02  0.1262142E+00
          1   -1    0    0  501    0  0.00000000000E+00  0.00000000000E+00  0.65743796824E+02  0.65743796824E+02  0.00000000000E+00 0. -1.
         -1   -1    0    0    0  501 -0.00000000000E+00 -0.00000000000E+00 -0.19083414173E+03  0.19083414173E+03  0.00000000000E+00 0.  1.
         23    2    1    2    0    0  0.56562306003E+01 -0.56731822783E+02 -0.93225699970E+02  0.14236042064E+03  0.91241249267E+02 0.  0.
         23    2    1    2    0    0 -0.56562306003E+01  0.56731822783E+02 -0.31864644940E+02  0.11421751792E+03  0.93700550385E+02 0.  0.
          5    1    4    4  502    0 -0.22272887940E+02  0.37890262458E+01 -0.50476766947E+02  0.55501641945E+02  0.47000000000E+01 0. -1.
         -5    1    4    4    0  502  0.16616657340E+02  0.52942796538E+02  0.18612122007E+02  0.58715875979E+02  0.47000000000E+01 0.  1.
          5    1    3    3  503    0  0.47523380931E+02 -0.20492339496E+02 -0.47241157106E+02  0.70229798788E+02  0.47000000000E+01 0. -1.
         -5    1    3    3    0  503 -0.41867150330E+02 -0.36239483288E+02 -0.45984542863E+02  0.72130621847E+02  0.47000000000E+01 0.  1.
<mgrwt>
<rscale>  0 0.10915553E+03</rscale>
<asrwt>0</asrwt>
<pdfrwt beam="1">  1        1 0.10114430E-01 0.10968266E+03</pdfrwt>
<pdfrwt beam="2">  1       -1 0.29359098E-01 0.10968266E+03</pdfrwt>
<totfact> 0.62567219E+03</totfact>
</mgrwt>
</event>
<event>
 8    1  0.5224537E-004  0.1013434E+03  0.7546771E-02  0.1278309E+00
          4   -1    0    0  501    0  0.00000000000E+00  0.00000000000E+00  0.42105770016E+03  0.42105770016E+03  0.00000000000E+00 0. -1.
         -4   -1    0    0    0  501 -0.00000000000E+00 -0.00000000000E+00 -0.41868305575E+02  0.41868305575E+02  0.00000000000E+00 0.  1.
         23    2    1    2    0    0  0.44336648007E+02 -0.49781217065E+01  0.37617924348E+02  0.10663742879E+03  0.89251963197E+02 0.  0.
         23    2    1    2    0    0 -0.44336648007E+02  0.49781217065E+01  0.34157147024E+03  0.35628857695E+03  0.90994289540E+02 0.  0.
          5    1    3    3  502    0 -0.16904791613E+02 -0.26901980564E+02  0.23793330619E+02  0.39971253666E+02  0.47000000000E+01 0. -1.
         -5    1    3    3    0  502  0.61241439619E+02  0.21923858857E+02  0.13824593728E+02  0.66666175124E+02  0.47000000000E+01 0.  1.
          5    1    4    4  503    0 -0.15677420697E+02  0.36698909573E+02  0.26857756159E+03  0.27156691270E+03  0.47000000000E+01 0. -1.
         -5    1    4    4    0  503 -0.28659227309E+02 -0.31720787866E+02  0.72993908648E+02  0.84721664245E+02  0.47000000000E+01 0.  1.
<mgrwt>
<rscale>  0 0.10095074E+03</rscale>
<asrwt>0</asrwt>
<pdfrwt beam="1">  1        4 0.64778105E-01 0.10134338E+03</pdfrwt>
<pdfrwt beam="2">  1       -4 0.64412781E-02 0.10134338E+03</pdfrwt>
<totfact> 0.55555739E+02</totfact>
</mgrwt>
</event>
<event>
 8    1  0.5224537E-004  0.1251967E+03  0.7546771E-02  0.1235623E+00
          2   -1    0    0  501    0  0.00000000000E+00  0.00000000000E+00  0.22413183505E+03  0.22413183505E+03  0.00000000000E+00 0. -1.
         -2   -1    0    0    0  501 -0.00000000000E+00 -0.00000000000E+00 -0.86783961793E+02  0.86783961793E+02  0.00000000000E+00 0.  1.
         23    2    1    2    0    0 -0.36018170994E+02 -0.73383868447E+02  0.13912330038E+03  0.18570646433E+03  0.91918971906E+02 0.  0.
         23    2    1    2    0    0  0.36018170994E+02  0.73383868447E+02 -0.17754271230E+01  0.12520933251E+03  0.94824701508E+02 0.  0.
          5    1    4    4  502    0 -0.28077981027E+01 -0.20545496118E+02 -0.92535525101E+01  0.23188776919E+02  0.47000000000E+01 0. -1.
         -5    1    4    4    0  502  0.38825969097E+02  0.93929364565E+02  0.74781253871E+01  0.10202055559E+03  0.47000000000E+01 0.  1.
          5    1    3    3  503    0 -0.21143196543E+02 -0.48422417797E+02  0.14612043197E+03  0.15545107251E+03  0.47000000000E+01 0. -1.
         -5    1    3    3    0  503 -0.14874974451E+02 -0.24961450649E+02 -0.69971315961E+01  0.30255391817E+02  0.47000000000E+01 0.  1.
<mgrwt>
<rscale>  0 0.12464658E+03</rscale>
<asrwt>0</asrwt>
<pdfrwt beam="1">  1        2 0.34481821E-01 0.12519674E+03</pdfrwt>
<pdfrwt beam="2">  1       -2 0.13351379E-01 0.12519674E+03</pdfrwt>
<totfact> 0.59199756E+03</totfact>
</mgrwt>
</event>
<event>
 8    1  0.5224537E-004  0.1031836E+03  0.7546771E-02  0.1282186E+00
         -1   -1    0    0    0  501 -0.00000000000E+00  0.00000000000E+00  0.69969699935E+02  0.69969699935E+02  0.00000000000E+00 0.  1.
          1   -1    0    0  501    0  0.00000000000E+00 -0.00000000000E+00 -0.30182070379E+03  0.30182070379E+03  0.00000000000E+00 0. -1.
         23    2    1    2    0    0 -0.23264228273E+01 -0.43768506742E+02  0.19968217631E+02  0.10509796502E+03  0.93411766448E+02 0.  0.
         23    2    1    2    0    0  0.23264228273E+01  0.43768506742E+02 -0.25181922149E+03  0.26669243870E+03  0.76097582916E+02 0.  0.
          5    1    4    4  502    0 -0.16387626070E+02  0.35338845949E+02 -0.23865708254E+03  0.24186087192E+03  0.47000000000E+01 0. -1.
         -5    1    4    4    0  502  0.18714048897E+02  0.84296607931E+01 -0.13162138954E+02  0.24831566786E+02  0.47000000000E+01 0.  1.
          5    1    3    3  503    0 -0.46029645921E+02 -0.33700646420E+02  0.17829918229E+02  0.59953797684E+02  0.47000000000E+01 0. -1.
         -5    1    3    3    0  503  0.43703223094E+02 -0.10067860323E+02  0.21382994022E+01  0.45144167338E+02  0.47000000000E+01 0.  1.
<mgrwt>
<rscale>  0 0.99106787E+02</rscale>
<asrwt>0</asrwt>
<pdfrwt beam="1">  1        1 0.46433954E-01 0.10318359E+03</pdfrwt>
<pdfrwt beam="2">  1       -1 0.10764569E-01 0.10318359E+03</pdfrwt>
<totfact> 0.44677099E+03</totfact>
</mgrwt>
</event>
<event>
 8    1  0.5224537E-004  0.1043119E+03  0.7546771E-02  0.1272307E+00
         -1   -1    0    0    0  501 -0.00000000000E+00  0.00000000000E+00  0.16023597111E+03  0.16023597111E+03  0.00000000000E+00 0.  1.
          1   -1    0    0  501    0  0.00000000000E+00 -0.00000000000E+00 -0.52383645431E+03  0.52383645431E+03  0.00000000000E+00 0. -1.
         23    2    1    2    0    0  0.14471735833E+02 -0.46071401434E+02  0.13785450826E+03  0.17188293054E+03  0.90597302358E+02 0.  0.
         23    2    1    2    0    0 -0.14471735833E+02  0.46071401434E+02 -0.50145499146E+03  0.51218949488E+03  0.92460613422E+02 0.  0.
          5    1    4    4  502    0 -0.34417184704E+02  0.50629633467E+02 -0.47223759469E+03  0.47621249272E+03  0.47000000000E+01 0. -1.
         -5    1    3    3    0  503  0.33109670896E+02 -0.53542933952E+02  0.13745311231E+03  0.15125655082E+03  0.47000000000E+01 0.  1.
          5    1    3    3  503    0 -0.18637935063E+02  0.74715325181E+01  0.40139595396E+00  0.20626379718E+02  0.47000000000E+01 0. -1.
         -5    1    4    4    0  502  0.19945448870E+02 -0.45582320327E+01 -0.29217396769E+02  0.35977002152E+02  0.47000000000E+01 0.  1.
<mgrwt>
<rscale>  0 0.10389743E+03</rscale>
<asrwt>0</asrwt>
<pdfrwt beam="1">  1        1 0.80590225E-01 0.10431189E+03</pdfrwt>
<pdfrwt beam="2">  1       -1 0.24651687E-01 0.10431189E+03</pdfrwt>
<totfact> 0.61001908E+02</totfact>
</mgrwt>
</event>
<event>
 8    1  0.5224537E-004  0.9440675E+02  0.7546771E-02  0.1292569E+00
         -1   -1    0    0    0  501 -0.00000000000E+00  0.00000000000E+00  0.33727750399E+03  0.33727750399E+03  0.00000000000E+00 0.  1.
          1   -1    0    0  501    0  0.00000000000E+00 -0.00000000000E+00 -0.59394264495E+02  0.59394264495E+02  0.00000000000E+00 0. -1.
         23    2    1    2    0    0  0.10177429946E+02  0.22730203094E+02  0.28673733581E+03  0.30185072769E+03  0.90968785004E+02 0.  0.
         23    2    1    2    0    0 -0.10177429946E+02 -0.22730203094E+02 -0.88540963110E+01  0.94821040802E+02  0.91062574883E+02 0.  0.
          5    1    3    3  502    0 -0.38554459313E+02  0.76477074128E+01  0.85894121334E+02  0.94577078837E+02  0.47000000000E+01 0. -1.
         -5    1    3    3    0  502  0.48731889259E+02  0.15082495682E+02  0.20084321447E+03  0.20727364885E+03  0.47000000000E+01 0.  1.
          5    1    4    4  503    0 -0.21124339808E+02 -0.54665268262E+02 -0.13768737059E+02  0.60383751181E+02  0.47000000000E+01 0. -1.
         -5    1    4    4    0  503  0.10946909862E+02  0.31935065167E+02  0.49146407477E+01  0.34437289621E+02  0.47000000000E+01 0.  1.
<mgrwt>
<rscale>  0 0.94384127E+02</rscale>
<asrwt>0</asrwt>
<pdfrwt beam="1">  1        1 0.91375794E-02 0.94406752E+02</pdfrwt>
<pdfrwt beam="2">  1       -1 0.51888846E-01 0.94406752E+02</pdfrwt>
<totfact> 0.26335134E+03</totfact>
</mgrwt>
</event>
<event>
 8    1  0.5224537E-004  0.9835010E+02  0.7546771E-02  0.1283874E+00
          1   -1    0    0  501    0  0.00000000000E+00  0.00000000000E+00  0.12365318544E+03  0.12365318544E+03  0.00000000000E+00 0. -1.
         -1   -1    0    0    0  501 -0.00000000000E+00 -0.00000000000E+00 -0.79562378692E+02  0.79562378692E+02  0.00000000000E+00 0.  1.
         23    2    1    2    0    0 -0.27075482106E+02  0.19221755683E+02  0.83893672402E+01  0.98707259710E+02  0.92575288355E+02 0.  0.
         23    2    1    2    0    0  0.27075482106E+02 -0.19221755683E+02  0.35701439511E+02  0.10450830442E+03  0.92438278260E+02 0.  0.
          5    1    4    4  502    0  0.25293709561E+02 -0.54195231667E+02  0.10006533835E+02  0.60820355131E+02  0.47000000000E+01 0. -1.
         -5    1    3    3    0  503  0.18750134002E+02  0.24818524830E+02  0.33490959429E+02  0.45948460946E+02  0.47000000000E+01 0.  1.
          5    1    3    3  503    0 -0.45825616108E+02 -0.55967691469E+01 -0.25101592189E+02  0.52758798764E+02  0.47000000000E+01 0. -1.
         -5    1    4    4    0  502  0.17817725444E+01  0.34973475984E+02  0.25694905676E+02  0.43687949294E+02  0.47000000000E+01 0.  1.
<mgrwt>
<rscale>  0 0.98317843E+02</rscale>
<asrwt>0</asrwt>
<pdfrwt beam="1">  1        1 0.19023567E-01 0.98350097E+02</pdfrwt>
<pdfrwt beam="2">  1       -1 0.12240366E-01 0.98350097E+02</pdfrwt>
<totfact> 0.11030895E+04</totfact>
</mgrwt>
</event>
<event>
 7    1  0.5224537E-004  0.1059169E+03  0.7546771E-02  0.1288223E+00
          2   -1    0    0  501    0  0.00000000000E+00  0.00000000000E+00  0.46534452248E+03  0.46534452248E+03  0.00000000000E+00 0. -1.
         -2   -1    0    0    0  501 -0.00000000000E+00 -0.00000000000E+00 -0.60605042632E+02  0.60605042632E+02  0.00000000000E+00 0.  1.
         23    2    1    2    0    0  0.44848399823E+02 -0.30206918530E+02  0.43479755527E+03  0.44751234642E+03  0.91074415940E+02 0.  0.
          5    1    3    3  502    0  0.40346463340E+02 -0.56033714213E+02  0.38368387463E+03  0.38987564669E+03  0.47000000000E+01 0. -1.
         -5    1    3    3    0  502  0.45019364835E+01  0.25826795683E+02  0.51113680637E+02  0.57636699729E+02  0.47000000000E+01 0.  1.
          5    1    1    2  503    0 -0.17064454648E+02 -0.11455873958E+02 -0.29179046192E+01  0.21284661800E+02  0.47000000000E+01 0. -1.
         -5    1    1    2    0  503 -0.27783945175E+02  0.41662792488E+02 -0.27140170805E+02  0.57152556887E+02  0.47000000000E+01 0.  1.
<mgrwt>
<rscale>  0 0.96323561E+02</rscale>
<asrwt>0</asrwt>
<pdfrwt beam="1">  1        2 0.71591463E-01 0.10591688E+03</pdfrwt>
<pdfrwt beam="2">  1       -2 0.93238530E-02 0.10591688E+03</pdfrwt>
<totfact> 0.47637593E+03</totfact>
</mgrwt>
</event>
<event>
 8    1  0.5224537E-004  0.1076131E+03  0.7546771E-02  0.1265564E+00
         -2   -1    0    0    0  501 -0.00000000000E+00  0.00000000000E+00  0.26909862454E+02  0.26909862454E+02  0.00000000000E+00 0.  1.
          2   -1    0    0  501    0  0.00000000000E+00 -0.00000000000E+00 -0.50842107061E+03  0.50842107061E+03  0.00000000000E+00 0. -1.
         23    2    1    2    0    0  0.54194959051E+02  0.78644418247E+01 -0.13205645706E+03  0.16968191684E+03  0.91400776915E+02 0.  0.
         23    2    1    2    0    0 -0.54194959051E+02 -0.78644418247E+01 -0.34945475110E+03  0.36564901622E+03  0.92637125207E+02 0.  0.
          5    1    3    3  502    0  0.47134114985E+02  0.31006137371E+02 -0.13348407267E+03  0.14499342401E+03  0.47000000000E+01 0. -1.
         -5    1    4    4    0  503 -0.25310236361E+02 -0.38748948806E+02 -0.28260137741E+03  0.28640481422E+03  0.47000000000E+01 0.  1.
          5    1    4    4  503    0 -0.28884722690E+02  0.30884506981E+02 -0.66853373694E+02  0.79244202000E+02  0.47000000000E+01 0. -1.
         -5    1    3    3    0  502  0.70608440656E+01 -0.23141695546E+02  0.14276156168E+01  0.24688492826E+02  0.47000000000E+01 0.  1.
<mgrwt>
<rscale>  0 0.10734651E+03</rscale>
<asrwt>0</asrwt>
<pdfrwt beam="1">  1        2 0.78218625E-01 0.10761310E+03</pdfrwt>
<pdfrwt beam="2">  1       -2 0.41399789E-02 0.10761310E+03</pdfrwt>
<totfact> 0.14786984E+04</totfact>
</mgrwt>
</event>
<event>
 8    1  0.5224537E-004  0.9694626E+02  0.7546771E-02  0.1287242E+00
          1   -1    0    0  501    0  0.00000000000E+00  0.00000000000E+00  0.19935218639E+03  0.19935218639E+03  0.00000000000E+00 0. -1.
         -1   -1    0    0    0  501 -0.00000000000E+00 -0.00000000000E+00 -0.28225812859E+03  0.28225812859E+03  0.00000000000E+00 0.  1.
         23    2    1    2    0    0  0.13251848593E+01  0.29490696795E+02 -0.26141478256E+03  0.27881224265E+03  0.92342410588E+02 0.  0.
         23    2    1    2    0    0 -0.13251848593E+01 -0.29490696795E+02  0.17850884037E+03  0.20279807233E+03  0.91598006194E+02 0.  0.
          5    1    3    3  502    0 -0.13392824909E+02 -0.25213231142E+02 -0.35202859537E+02  0.45567599271E+02  0.47000000000E+01 0. -1.
         -5    1    3    3    0  502  0.14718009769E+02  0.54703927937E+02 -0.22621192303E+03  0.23324464337E+03  0.47000000000E+01 0.  1.
          5    1    4    4  503    0 -0.22398149541E+02 -0.53170010655E+02  0.14642666883E+03  0.15745344226E+03  0.47000000000E+01 0. -1.
         -5    1    4    4    0  503  0.21072964682E+02  0.23679313860E+02  0.32082171543E+02  0.45344630071E+02  0.47000000000E+01 0.  1.
<mgrwt>
<rscale>  0 0.96768579E+02</rscale>
<asrwt>0</asrwt>
<pdfrwt beam="1">  1        1 0.30669567E-01 0.96946264E+02</pdfrwt>
<pdfrwt beam="2">  1       -1 0.43424327E-01 0.96946264E+02</pdfrwt>
<totfact> 0.77698662E+02</totfact>
</mgrwt>
</event>
<event>
 8    1  0.5224537E-004  0.1053130E+03  0.7546771E-02  0.1269734E+00
         -2   -1    0    0    0  501 -0.00000000000E+00  0.00000000000E+00  0.12615972792E+02  0.12615972792E+02  0.00000000000E+00 0.  1.
          2   -1    0    0  501    0  0.00000000000E+00 -0.00000000000E+00 -0.91945825511E+03  0.91945825511E+03  0.00000000000E+00 0. -1.
         23    2    1    2    0    0 -0.46226597843E+02 -0.25023358092E+02 -0.35215450437E+03  0.36756444396E+03  0.91256554400E+02 0.  0.
         23    2    1    2    0    0  0.46226597843E+02  0.25023358092E+02 -0.55468777795E+03  0.56450978394E+03  0.90717684918E+02 0.  0.
          5    1    3    3  502    0 -0.60353821265E+02 -0.46485332951E+02 -0.29517152154E+03  0.30487995515E+03  0.47000000000E+01 0. -1.
         -5    1    3    3    0  502  0.14127223421E+02  0.21461974859E+02 -0.56982982826E+02  0.62684488817E+02  0.47000000000E+01 0.  1.
          5    1    4    4  503    0  0.15220333062E+02 -0.30649137431E+02 -0.29770697149E+03  0.29970411915E+03  0.47000000000E+01 0. -1.
         -5    1    4    4    0  503  0.31006264781E+02  0.55672495523E+02 -0.25698080646E+03  0.26480566479E+03  0.47000000000E+01 0.  1.
<mgrwt>
<rscale>  0 0.10519614E+03</rscale>
<asrwt>0</asrwt>
<pdfrwt beam="1">  1        2 0.14145517E+00 0.10531299E+03</pdfrwt>
<pdfrwt beam="2">  1       -2 0.19409181E-02 0.10531299E+03</pdfrwt>
<totfact> 0.22185433E+04</totfact>
</mgrwt>
</event>
<event>
 8    1  0.5224537E-004  0.9185231E+02  0.7546771E-02  0.1298616E+00
         -1   -1    0    0    0  501 -0.00000000000E+00  0.00000000000E+00  0.19319198761E+02  0.19319198761E+02  0.00000000000E+00 0.  1.
          1   -1    0    0  501    0  0.00000000000E+00 -0.00000000000E+00 -0.48493278890E+03  0.48493278890E+03  0.00000000000E+00 0. -1.
         23    2    1    2    0    0 -0.80000987032E+01 -0.67410811554E+01 -0.31392780115E+03  0.32708945451E+03  0.91254606273E+02 0.  0.
         23    2    1    2    0    0  0.80000987032E+01  0.67410811554E+01 -0.15168578900E+03  0.17716253315E+03  0.90931517171E+02 0.  0.
          5    1    4    4  502    0  0.96127987128E+01  0.39472253132E+02 -0.13300262275E+03  0.13914831053E+03  0.47000000000E+01 0. -1.
         -5    1    3    3    0  503 -0.28303894408E+02  0.19605725162E+02 -0.49177156805E+02  0.60216091281E+02  0.47000000000E+01 0.  1.
          5    1    3    3  503    0  0.20303795704E+02 -0.26346806317E+02 -0.26475064434E+03  0.26687336323E+03  0.47000000000E+01 0. -1.
         -5    1    4    4    0  502 -0.16127000096E+01 -0.32731171977E+02 -0.18683166249E+02  0.38014222620E+02  0.47000000000E+01 0.  1.
<mgrwt>
<rscale>  0 0.91771960E+02</rscale>
<asrwt>0</asrwt>
<pdfrwt beam="1">  1        1 0.74605039E-01 0.91852310E+02</pdfrwt>
<pdfrwt beam="2">  1       -1 0.29721847E-02 0.91852310E+02</pdfrwt>
<totfact> 0.16388047E+04</totfact>
</mgrwt>
</event>
<event>
 8    1  0.5224537E-004  0.1019924E+03  0.7546771E-02  0.1276481E+00
         -2   -1    0    0    0  501 -0.00000000000E+00  0.00000000000E+00  0.40632343983E+02  0.40632343983E+02  0.00000000000E+00 0.  1.
          2   -1    0    0  501    0  0.00000000000E+00 -0.00000000000E+00 -0.34590860710E+03  0.34590860710E+03  0.00000000000E+00 0. -1.
         23    2    1    2    0    0  0.42995655451E+02  0.17276018293E+02 -0.25167120736E+03  0.27131964875E+03  0.90160235088E+02 0.  0.
         23    2    1    2    0    0 -0.42995655451E+02 -0.17276018293E+02 -0.53605055763E+02  0.11522130233E+03  0.90859007877E+02 0.  0.
          5    1    3    3  502    0 -0.96343119868E+01  0.33083370355E+02 -0.42067280413E+02  0.54580907310E+02  0.47000000000E+01 0. -1.
         -5    1    3    3    0  502  0.52629967437E+02 -0.15807352062E+02 -0.20960392694E+03  0.21673874144E+03  0.47000000000E+01 0.  1.
          5    1    4    4  503    0  0.20875202776E+02  0.86472490106E+01 -0.37889997586E+02  0.44365424865E+02  0.47000000000E+01 0.  1.
         -5    1    4    4    0  503 -0.63870858227E+02 -0.25923267303E+02 -0.15715058177E+02  0.70855877468E+02  0.47000000000E+01 0.  1.
<mgrwt>
<rscale>  0 0.10183653E+03</rscale>
<asrwt>0</asrwt>
<pdfrwt beam="1">  1        2 0.53216710E-01 0.10199238E+03</pdfrwt>
<pdfrwt beam="2">  1       -2 0.62511297E-02 0.10199238E+03</pdfrwt>
<totfact> 0.11992936E+04</totfact>
</mgrwt>
</event>
<event>
 8    1  0.5224537E-004  0.1198179E+03  0.7546771E-02  0.1251128E+00
         -1   -1    0    0    0  501 -0.00000000000E+00  0.00000000000E+00  0.17614267494E+02  0.17614267494E+02  0.00000000000E+00 0.  1.
          1   -1    0    0  501    0  0.00000000000E+00 -0.00000000000E+00 -0.10598702227E+04  0.10598702227E+04  0.00000000000E+00 0. -1.
         23    2    1    2    0    0 -0.12778175642E+02  0.43960496306E+02 -0.18202666375E+03  0.20895080403E+03  0.91820069598E+02 0.  0.
         23    2    1    2    0    0  0.12778175642E+02 -0.43960496306E+02 -0.86022929141E+03  0.86853368612E+03  0.11072724647E+03 0.  0.
          5    1    3    3  502    0 -0.51512554082E+02  0.14539523665E+02 -0.95839326185E+02  0.10987359747E+03  0.47000000000E+01 0. -1.
         -5    1    4    4    0  503 -0.45667333337E+02 -0.29575132600E+01 -0.25803242874E+03  0.26210127146E+03  0.47000000000E+01 0.  1.
          5    1    4    4  503    0  0.58445508979E+02 -0.41002983046E+02 -0.60219686268E+03  0.60643241466E+03  0.47000000000E+01 0. -1.
         -5    1    3    3    0  502  0.38734378439E+02  0.29420972641E+02 -0.86187337567E+02  0.99077206567E+02  0.47000000000E+01 0.  1.
<mgrwt>
<rscale>  0 0.11525983E+03</rscale>
<asrwt>0</asrwt>
<pdfrwt beam="1">  1        1 0.16305694E+00 0.11981790E+03</pdfrwt>
<pdfrwt beam="2">  1       -1 0.27098875E-02 0.11981790E+03</pdfrwt>
<totfact> 0.61270703E+03</totfact>
</mgrwt>
</event>
<event>
 8    1  0.5224537E-004  0.1028973E+03  0.7546771E-02  0.1274751E+00
          1   -1    0    0  501    0  0.00000000000E+00  0.00000000000E+00  0.79199241152E+03  0.79199241152E+03  0.00000000000E+00 0. -1.
         -1   -1    0    0    0  501 -0.00000000000E+00 -0.00000000000E+00 -0.17750201156E+02  0.17750201156E+02  0.00000000000E+00 0.  1.
         23    2    1    2    0    0 -0.96093878741E+01  0.44750008248E+02  0.59199440201E+03  0.60087039490E+03  0.92157234540E+02 0.  0.
         23    2    1    2    0    0  0.96093878741E+01 -0.44750008248E+02  0.18224780835E+03  0.20887221778E+03  0.91205461114E+02 0.  0.
          5    1    3    3  502    0 -0.46678947816E+02  0.45438385699E+02  0.35762326092E+03  0.36353824808E+03  0.47000000000E+01 0. -1.
         -5    1    3    3    0  502  0.37069559942E+02 -0.68837745063E+00  0.23437114109E+03  0.23733214682E+03  0.47000000000E+01 0.  1.
          5    1    4    4  503    0 -0.83353655318E+01 -0.65475052064E+02  0.16036891138E+03  0.17348411598E+03  0.47000000000E+01 0. -1.
         -5    1    4    4    0  503  0.17944753406E+02  0.20725043815E+02  0.21878896972E+02  0.35388101795E+02  0.47000000000E+01 0.  1.
<mgrwt>
<rscale>  0 0.10268377E+03</rscale>
<asrwt>0</asrwt>
<pdfrwt beam="1">  1        1 0.12184496E+00 0.10289732E+03</pdfrwt>
<pdfrwt beam="2">  1       -1 0.27308008E-02 0.10289732E+03</pdfrwt>
<totfact> 0.95710915E+03</totfact>
</mgrwt>
</event>
<event>
 8    1  0.5224537E-004  0.9723071E+02  0.7546771E-02  0.1287271E+00
          1   -1    0    0  501    0  0.00000000000E+00  0.00000000000E+00  0.97491444088E+03  0.97491444088E+03  0.00000000000E+00 0. -1.
         -1   -1    0    0    0  501 -0.00000000000E+00 -0.00000000000E+00 -0.10930223693E+02  0.10930223693E+02  0.00000000000E+00 0.  1.
         23    2    1    2    0    0  0.28833602025E+02  0.28026896750E+01  0.65557379741E+03  0.66247058092E+03  0.90835208283E+02 0.  0.
         23    2    1    2    0    0 -0.28833602025E+02 -0.28026896750E+01  0.30841041978E+03  0.32337408366E+03  0.92814757843E+02 0.  0.
          5    1    4    4  502    0 -0.45242120177E+02 -0.15260092809E+02  0.29378195770E+03  0.29767372833E+03  0.47000000000E+01 0. -1.
         -5    1    3    3    0  503  0.17638237298E+02  0.45345086662E+02  0.41435384841E+03  0.41722713957E+03  0.47000000000E+01 0.  1.
          5    1    3    3  503    0  0.11195364727E+02 -0.42542396987E+02  0.24121994900E+03  0.24524344135E+03  0.47000000000E+01 0. -1.
         -5    1    4    4    0  502  0.16408518151E+02  0.12457403134E+02  0.14628462088E+02  0.25700355325E+02  0.47000000000E+01 0.  1.
<mgrwt>
<rscale>  0 0.96755279E+02</rscale>
<asrwt>0</asrwt>
<pdfrwt beam="1">  1        1 0.14998677E+00 0.97230710E+02</pdfrwt>
<pdfrwt beam="2">  1       -1 0.16815736E-02 0.97230710E+02</pdfrwt>
<totfact> 0.13817967E+04</totfact>
</mgrwt>
</event>
<event>
 8    1  0.5224537E-004  0.1169258E+03  0.7546771E-02  0.1248738E+00
          2   -1    0    0  501    0  0.00000000000E+00  0.00000000000E+00  0.12076586105E+03  0.12076586105E+03  0.00000000000E+00 0. -1.
         -2   -1    0    0    0  501 -0.00000000000E+00 -0.00000000000E+00 -0.15626907024E+03  0.15626907024E+03  0.00000000000E+00 0.  1.
         23    2    1    2    0    0  0.36889707103E+02  0.59786977035E+02 -0.91311530856E+02  0.14747335523E+03  0.92061184668E+02 0.  0.
         23    2    1    2    0    0 -0.36889707103E+02 -0.59786977035E+02  0.55808321665E+02  0.12956157607E+03  0.93468177009E+02 0.  0.
          5    1    3    3  502    0 -0.29802473281E+02  0.29438868345E+02 -0.28903999851E+02  0.51111305897E+02  0.47000000000E+01 0. -1.
         -5    1    4    4    0  503 -0.22000076940E+02  0.23216284990E+02  0.12652746050E+02  0.34715720599E+02  0.47000000000E+01 0.  1.
          5    1    4    4  503    0 -0.14889630163E+02 -0.83003262025E+02  0.43155575615E+02  0.94845855470E+02  0.47000000000E+01 0. -1.
         -5    1    3    3    0  502  0.66692180384E+02  0.30348108690E+02 -0.62407531005E+02  0.96362049333E+02  0.47000000000E+01 0.  1.
<mgrwt>
<rscale>  0 0.11664434E+03</rscale>
<asrwt>0</asrwt>
<pdfrwt beam="1">  1        2 0.18579363E-01 0.11692576E+03</pdfrwt>
<pdfrwt beam="2">  1       -2 0.24041395E-01 0.11692576E+03</pdfrwt>
<totfact> 0.43648671E+03</totfact>
</mgrwt>
</event>
<event>
 8    1  0.5224537E-004  0.9893814E+02  0.7546771E-02  0.1286686E+00
          1   -1    0    0  501    0  0.00000000000E+00  0.00000000000E+00  0.13396314733E+02  0.13396314733E+02  0.00000000000E+00 0. -1.
         -1   -1    0    0    0  501 -0.00000000000E+00 -0.00000000000E+00 -0.67676480781E+03  0.67676480781E+03  0.00000000000E+00 0.  1.
         23    2    1    2    0    0 -0.11911609780E+02 -0.19814999807E+02 -0.34305784862E+03  0.35703983317E+03  0.96198930898E+02 0.  0.
         23    2    1    2    0    0  0.11911609780E+02  0.19814999807E+02 -0.32031064446E+03  0.33312128938E+03  0.88523238849E+02 0.  0.
          5    1    4    4  502    0  0.45264494257E+02  0.46522670784E+01 -0.10310754672E+03  0.11279970842E+03  0.47000000000E+01 0. -1.
         -5    1    3    3    0  503  0.25052846259E+01  0.38015503090E+02 -0.11307241702E+03  0.11941070478E+03  0.47000000000E+01 0.  1.
          5    1    3    3  503    0 -0.14416894405E+02 -0.57830502897E+02 -0.22998543160E+03  0.23762912838E+03  0.47000000000E+01 0. -1.
         -5    1    4    4    0  502 -0.33352884477E+02  0.15162732728E+02 -0.21720309774E+03  0.22032158096E+03  0.47000000000E+01 0.  1.
<mgrwt>
<rscale>  0 0.97021775E+02</rscale>
<asrwt>0</asrwt>
<pdfrwt beam="1">  1        1 0.20609719E-02 0.98938137E+02</pdfrwt>
<pdfrwt beam="2">  1       -1 0.10411764E+00 0.98938137E+02</pdfrwt>
<totfact> 0.49661195E+03</totfact>
</mgrwt>
</event>
<event>
 8    1  0.5224537E-004  0.1063495E+03  0.7546771E-02  0.1267836E+00
          3   -1    0    0  501    0  0.00000000000E+00  0.00000000000E+00  0.42648856462E+02  0.42648856462E+02  0.00000000000E+00 0. -1.
         -3   -1    0    0    0  501 -0.00000000000E+00 -0.00000000000E+00 -0.44326979944E+03  0.44326979944E+03  0.00000000000E+00 0.  1.
         23    2    1    2    0    0 -0.46825647641E+02  0.28122077927E+02 -0.35467471247E+03  0.37006840442E+03  0.90404533832E+02 0.  0.
         23    2    1    2    0    0  0.46825647641E+02 -0.28122077927E+02 -0.45946230510E+02  0.11585025149E+03  0.91250929463E+02 0.  0.
          5    1    3    3  502    0 -0.60218487123E+01 -0.30581677610E+02 -0.14823837703E+03  0.15155265782E+03  0.47000000000E+01 0.  1.
         -5    1    4    4    0  503  0.30656747707E+02 -0.60209436887E+02 -0.17973163501E+02  0.70072370279E+02  0.47000000000E+01 0.  1.
          5    1    4    4  503    0  0.16168899933E+02  0.32087358960E+02 -0.27973067009E+02  0.45777881209E+02  0.47000000000E+01 0. -1.
         -5    1    3    3    0  502 -0.40803798928E+02  0.58703755538E+02 -0.20643633544E+03  0.21851574660E+03  0.47000000000E+01 0. -1.
<mgrwt>
<rscale>  0 0.10616774E+03</rscale>
<asrwt>0</asrwt>
<pdfrwt beam="1">  1        3 0.65613621E-02 0.10634954E+03</pdfrwt>
<pdfrwt beam="2">  1       -3 0.68195358E-01 0.10634954E+03</pdfrwt>
<totfact> 0.68965999E+02</totfact>
</mgrwt>
</event>
<event>
 8    1  0.5224537E-004  0.1042449E+03  0.7546771E-02  0.1273415E+00
         -2   -1    0    0    0  501 -0.00000000000E+00  0.00000000000E+00  0.12270814560E+03  0.12270814560E+03  0.00000000000E+00 0.  1.
          2   -1    0    0  501    0  0.00000000000E+00 -0.00000000000E+00 -0.10698300783E+03  0.10698300783E+03  0.00000000000E+00 0. -1.
         23    2    1    2    0    0 -0.10918125106E+02 -0.42069022024E+02  0.59131120027E+02  0.11677047830E+03  0.90828669361E+02 0.  0.
         23    2    1    2    0    0  0.10918125106E+02  0.42069022024E+02 -0.43405982252E+02  0.11292067512E+03  0.94752263854E+02 0.  0.
          5    1    3    3  502    0 -0.37926005169E+02  0.11262742478E+02  0.16137454197E+02  0.42985330802E+02  0.47000000000E+01 0. -1.
         -5    1    3    3    0  502  0.27007880063E+02 -0.53331764501E+02  0.42993665830E+02  0.73785147502E+02  0.47000000000E+01 0.  1.
          5    1    4    4  503    0 -0.36769469132E+02  0.27747469555E+02 -0.42573391166E+02  0.62900711938E+02  0.47000000000E+01 0. -1.
         -5    1    4    4    0  503  0.47687594237E+02  0.14321552469E+02 -0.83259108646E+00  0.50019963187E+02  0.47000000000E+01 0.  1.
<mgrwt>
<rscale>  0 0.10334506E+03</rscale>
<asrwt>0</asrwt>
<pdfrwt beam="1">  1        2 0.16458924E-01 0.10424490E+03</pdfrwt>
<pdfrwt beam="2">  1       -2 0.18878176E-01 0.10424490E+03</pdfrwt>
<totfact> 0.74954023E+03</totfact>
</mgrwt>
</event>
<event>
 8    1  0.5224537E-004  0.9150693E+02  0.7546771E-02  0.1299596E+00
         -1   -1    0    0    0  501 -0.00000000000E+00  0.00000000000E+00  0.57707986158E+02  0.57707986158E+02  0.00000000000E+00 0.  1.
          1   -1    0    0  501    0  0.00000000000E+00 -0.00000000000E+00 -0.27172533204E+03  0.27172533204E+03  0.00000000000E+00 0. -1.
         23    2    1    2    0    0  0.16793753390E+01  0.15264532184E+02  0.60352365371E+01  0.91112824796E+02  0.89606341952E+02 0.  0.
         23    2    1    2    0    0 -0.16793753390E+01 -0.15264532184E+02 -0.22005258242E+03  0.23832049340E+03  0.90209158633E+02 0.  0.
          5    1    4    4  502    0  0.13654813485E+02 -0.28238995707E+02 -0.21467025982E+03  0.21700070336E+03  0.47000000000E+01 0. -1.
         -5    1    4    4    0  502 -0.15334188824E+02  0.12974463522E+02 -0.53823225975E+01  0.21319790035E+02  0.47000000000E+01 0.  1.
          5    1    3    3  503    0 -0.29334223254E+02 -0.25705404467E+02  0.14878371362E+01  0.39313714300E+02  0.47000000000E+01 0. -1.
         -5    1    3    3    0  503  0.31013598593E+02  0.40969936652E+02  0.45473994009E+01  0.51799110496E+02  0.47000000000E+01 0.  1.
<mgrwt>
<rscale>  0 0.91358016E+02</rscale>
<asrwt>0</asrwt>
<pdfrwt beam="1">  1        1 0.41803897E-01 0.91506932E+02</pdfrwt>
<pdfrwt beam="2">  1       -1 0.88781517E-02 0.91506932E+02</pdfrwt>
<totfact> 0.67410722E+03</totfact>
</mgrwt>
</event>
<event>
 8    1  0.5224537E-004  0.1445752E+03  0.7546771E-02  0.1207467E+00
          1   -1    0    0  501    0  0.00000000000E+00  0.00000000000E+00  0.10889605075E+03  0.10889605075E+03  0.00000000000E+00 0. -1.
         -1   -1    0    0    0  501 -0.00000000000E+00 -0.00000000000E+00 -0.19135593261E+03  0.19135593261E+03  0.00000000000E+00 0.  1.
         23    2    1    2    0    0  0.10964769135E+03  0.23075387351E+02 -0.44409804781E+02  0.15075347709E+03  0.90549933039E+02 0.  0.
         23    2    1    2    0    0 -0.10964769135E+03 -0.23075387351E+02 -0.38050077084E+02  0.14949850627E+03  0.91361399351E+02 0.  0.
          5    1    4    4  502    0 -0.14482673612E+02 -0.23447408399E+02  0.23113656908E+02  0.36274783683E+02  0.47000000000E+01 0. -1.
         -5    1    4    4    0  502 -0.95165017739E+02  0.37202104851E+00 -0.61163733992E+02  0.11322372259E+03  0.47000000000E+01 0.  1.
          5    1    3    3  503    0  0.31312691585E+02 -0.33401488893E+02 -0.48183527088E+01  0.46275810499E+02  0.47000000000E+01 0. -1.
         -5    1    3    3    0  503  0.78334999765E+02  0.56476876243E+02 -0.39591452072E+02  0.10447766659E+03  0.47000000000E+01 0.  1.
<mgrwt>
<rscale>  0 0.14444720E+03</rscale>
<asrwt>0</asrwt>
<pdfrwt beam="1">  1        1 0.16753239E-01 0.14457522E+03</pdfrwt>
<pdfrwt beam="2">  1       -1 0.29439374E-01 0.14457522E+03</pdfrwt>
<totfact> 0.32849109E+03</totfact>
</mgrwt>
</event>
<event>
 8    1  0.5224537E-004  0.1111937E+03  0.7546771E-02  0.1259761E+00
          1   -1    0    0  501    0  0.00000000000E+00  0.00000000000E+00  0.38279018263E+02  0.38279018263E+02  0.00000000000E+00 0. -1.
         -1   -1    0    0    0  501 -0.00000000000E+00 -0.00000000000E+00 -0.35232462342E+03  0.35232462342E+03  0.00000000000E+00 0.  1.
         23    2    1    2    0    0  0.49793413969E+02  0.12534224275E+02 -0.22303661641E+03  0.24921753622E+03  0.98628379507E+02 0.  0.
         23    2    1    2    0    0 -0.49793413969E+02 -0.12534224275E+02 -0.91008988745E+02  0.14138610547E+03  0.95241293219E+02 0.  0.
          5    1    3    3  502    0  0.46352311222E+02  0.48447757185E+02 -0.18381904143E+03  0.19572238483E+03  0.47000000000E+01 0. -1.
         -5    1    4    4    0  503 -0.54197314531E+02 -0.47424839105E+02 -0.67554988881E+02  0.98854594173E+02  0.47000000000E+01 0.  1.
          5    1    4    4  503    0  0.44039005626E+01  0.34890614829E+02 -0.23453999864E+02  0.42531511294E+02  0.47000000000E+01 0. -1.
         -5    1    3    3    0  502  0.34411027466E+01 -0.35913532910E+02 -0.39217574984E+02  0.53495151386E+02  0.47000000000E+01 0.  1.
<mgrwt>
<rscale>  0 0.11043781E+03</rscale>
<asrwt>0</asrwt>
<pdfrwt beam="1">  1        1 0.58890796E-02 0.11119374E+03</pdfrwt>
<pdfrwt beam="2">  1       -1 0.54203789E-01 0.11119374E+03</pdfrwt>
<totfact> 0.44163536E+03</totfact>
</mgrwt>
</event>
<event>
 8    1  0.5224537E-004  0.9370262E+02  0.7546771E-02  0.1294425E+00
         -2   -1    0    0    0  501 -0.00000000000E+00  0.00000000000E+00  0.23089798871E+03  0.23089798871E+03  0.00000000000E+00 0.  1.
          2   -1    0    0  501    0  0.00000000000E+00 -0.00000000000E+00 -0.52192364978E+02  0.52192364978E+02  0.00000000000E+00 0. -1.
         23    2    1    2    0    0  0.25813546429E+02 -0.54103763563E+01  0.16382396194E+03  0.18872856341E+03  0.89914230177E+02 0.  0.
         23    2    1    2    0    0 -0.25813546429E+02  0.54103763563E+01  0.14881661794E+02  0.94361790283E+02  0.89370421596E+02 0.  0.
          5    1    3    3  502    0  0.14018241802E+02  0.42026630036E+02  0.75037882362E+02  0.87266961244E+02  0.47000000000E+01 0. -1.
         -5    1    4    4    0  503  0.29211475493E+02  0.12787259385E+02  0.20756102765E+02  0.38337059160E+02  0.47000000000E+01 0.  1.
          5    1    4    4  503    0 -0.55025021922E+02 -0.73768830290E+01 -0.58744409702E+01  0.56024731124E+02  0.47000000000E+01 0. -1.
         -5    1    3    3    0  502  0.11795304627E+02 -0.47437006392E+02  0.88786079579E+02  0.10146160216E+03  0.47000000000E+01 0.  1.
<mgrwt>
<rscale>  0 0.93571918E+02</rscale>
<asrwt>0</asrwt>
<pdfrwt beam="1">  1        2 0.80295947E-02 0.93702615E+02</pdfrwt>
<pdfrwt beam="2">  1       -2 0.35522767E-01 0.93702615E+02</pdfrwt>
<totfact> 0.58095137E+03</totfact>
</mgrwt>
</event>
<event>
 8    1  0.5224537E-004  0.1200136E+03  0.7546771E-02  0.1243900E+00
          2   -1    0    0  501    0  0.00000000000E+00  0.00000000000E+00  0.36693328522E+03  0.36693328522E+03  0.00000000000E+00 0. -1.
         -2   -1    0    0    0  501 -0.00000000000E+00 -0.00000000000E+00 -0.84055374610E+02  0.84055374610E+02  0.00000000000E+00 0.  1.
         23    2    1    2    0    0 -0.67165241392E+02  0.26953248359E+02 -0.23827515900E+02  0.12235609640E+03  0.95737226637E+02 0.  0.
         23    2    1    2    0    0  0.67165241392E+02 -0.26953248359E+02  0.30670542651E+03  0.32863256343E+03  0.93238918092E+02 0.  0.
          5    1    4    4  502    0  0.82028044269E+02 -0.44711062958E+02  0.25948508598E+03  0.27583016340E+03  0.47000000000E+01 0. -1.
         -5    1    4    4    0  502 -0.14862802877E+02  0.17757814599E+02  0.47220340535E+02  0.52802400030E+02  0.47000000000E+01 0.  1.
          5    1    3    3  503    0  0.10509608743E+02 -0.23333908905E+02 -0.12963442152E+02  0.29069984746E+02  0.47000000000E+01 0. -1.
         -5    1    3    3    0  503 -0.77674850135E+02  0.50287157264E+02 -0.10864073748E+02  0.93286111654E+02  0.47000000000E+01 0.  1.
<mgrwt>
<rscale>  0 0.11951466E+03</rscale>
<asrwt>0</asrwt>
<pdfrwt beam="1">  1        2 0.56451274E-01 0.12001360E+03</pdfrwt>
<pdfrwt beam="2">  1       -2 0.12931596E-01 0.12001360E+03</pdfrwt>
<totfact> 0.36879126E+03</totfact>
</mgrwt>
</event>
<event>
 8    1  0.5224537E-004  0.1165787E+03  0.7546771E-02  0.1250337E+00
          2   -1    0    0  501    0  0.00000000000E+00  0.00000000000E+00  0.94042000797E+02  0.94042000797E+02  0.00000000000E+00 0. -1.
         -2   -1    0    0    0  501 -0.00000000000E+00 -0.00000000000E+00 -0.14061165771E+03  0.14061165771E+03  0.00000000000E+00 0.  1.
         23    2    1    2    0    0  0.16313133696E+02  0.63935182085E+02 -0.17543949861E+02  0.11451590050E+03  0.91936257542E+02 0.  0.
         23    2    1    2    0    0 -0.16313133696E+02 -0.63935182085E+02 -0.29025707053E+02  0.12013775801E+03  0.96108081817E+02 0.  0.
          5    1    4    4  502    0 -0.44230199081E+02 -0.57009060742E+02  0.82984558176E+01  0.72782538335E+02  0.47000000000E+01 0. -1.
         -5    1    3    3    0  503 -0.11756694282E+02  0.66657560891E+02 -0.39461971002E+02  0.78490683776E+02  0.47000000000E+01 0.  1.
          5    1    3    3  503    0  0.28069827979E+02 -0.27223788053E+01  0.21918021140E+02  0.36025216722E+02  0.47000000000E+01 0. -1.
         -5    1    4    4    0  502  0.27917065385E+02 -0.69261213434E+01 -0.37324162871E+02  0.47355219676E+02  0.47000000000E+01 0.  1.
<mgrwt>
<rscale>  0 0.11571548E+03</rscale>
<asrwt>0</asrwt>
<pdfrwt beam="1">  1        2 0.14468000E-01 0.11657868E+03</pdfrwt>
<pdfrwt beam="2">  1       -2 0.21632563E-01 0.11657868E+03</pdfrwt>
<totfact> 0.69801915E+03</totfact>
</mgrwt>
</event>
<event>
 8    1  0.5224537E-004  0.9089660E+02  0.7546771E-02  0.1301086E+00
          2   -1    0    0  501    0  0.00000000000E+00  0.00000000000E+00  0.48656364784E+03  0.48656364784E+03  0.00000000000E+00 0. -1.
         -2   -1    0    0    0  501 -0.00000000000E+00 -0.00000000000E+00 -0.41675778315E+02  0.41675778315E+02  0.00000000000E+00 0.  1.
         23    2    1    2    0    0  0.51799343452E+01  0.37711323558E+01  0.18307213287E+02  0.92082058949E+02  0.90016100576E+02 0.  0.
         23    2    1    2    0    0 -0.51799343452E+01 -0.37711323558E+01  0.42658065623E+03  0.43615736720E+03  0.90670499799E+02 0.  0.
          5    1    3    3  502    0 -0.14570873135E+02 -0.38327296182E+02  0.18774167806E+02  0.45341497035E+02  0.47000000000E+01 0. -1.
         -5    1    4    4    0  503 -0.30567470789E+02  0.22039836425E+02  0.34109291085E+03  0.34320050771E+03  0.47000000000E+01 0.  1.
          5    1    4    4  503    0  0.25387536444E+02 -0.25810968781E+02  0.85487745383E+02  0.92956859493E+02  0.47000000000E+01 0. -1.
         -5    1    3    3    0  502  0.19750807480E+02  0.42098428538E+02 -0.46695451872E+00  0.46740561914E+02  0.47000000000E+01 0.  1.
<mgrwt>
<rscale>  0 0.90732973E+02</rscale>
<asrwt>0</asrwt>
<pdfrwt beam="1">  1        2 0.74855942E-01 0.90896604E+02</pdfrwt>
<pdfrwt beam="2">  1       -2 0.64116585E-02 0.90896604E+02</pdfrwt>
<totfact> 0.79675778E+03</totfact>
</mgrwt>
</event>
<event>
 8    1  0.5224537E-004  0.9637556E+02  0.7546771E-02  0.1290414E+00
         -1   -1    0    0    0  501 -0.00000000000E+00  0.00000000000E+00  0.30939462014E+03  0.30939462014E+03  0.00000000000E+00 0.  1.
          1   -1    0    0  501    0  0.00000000000E+00 -0.00000000000E+00 -0.26320914696E+03  0.26320914696E+03  0.00000000000E+00 0. -1.
         23    2    1    2    0    0  0.97272028404E+01  0.24716201899E+02  0.29323706372E+03  0.30741942326E+03  0.88392404370E+02 0.  0.
         23    2    1    2    0    0 -0.97272028404E+01 -0.24716201899E+02 -0.24705159054E+03  0.26518434383E+03  0.92643071602E+02 0.  0.
          5    1    4    4  502    0 -0.36429669424E+02 -0.48047597941E+02 -0.14859547767E+03  0.16043191225E+03  0.47000000000E+01 0. -1.
         -5    1    4    4    0  502  0.26702466584E+02  0.23331396042E+02 -0.98456112862E+02  0.10475243158E+03  0.47000000000E+01 0.  1.
          5    1    3    3  503    0  0.17199033314E+02  0.56411375726E+02  0.19870580451E+03  0.20732616044E+03  0.47000000000E+01 0. -1.
         -5    1    3    3    0  503 -0.74718304740E+01 -0.31695173827E+02  0.94531259209E+02  0.10009326282E+03  0.47000000000E+01 0.  1.
<mgrwt>
<rscale>  0 0.95339310E+02</rscale>
<asrwt>0</asrwt>
<pdfrwt beam="1">  1        1 0.40493715E-01 0.96375556E+02</pdfrwt>
<pdfrwt beam="2">  1       -1 0.47599172E-01 0.96375556E+02</pdfrwt>
<totfact> 0.46957275E+02</totfact>
</mgrwt>
</event>
<event>
 8    1  0.5224537E-004  0.1018729E+03  0.7546771E-02  0.1279010E+00
          1   -1    0    0  501    0  0.00000000000E+00  0.00000000000E+00  0.29407338229E+02  0.29407338229E+02  0.00000000000E+00 0. -1.
         -1   -1    0    0    0  501 -0.00000000000E+00 -0.00000000000E+00 -0.71776077588E+03  0.71776077588E+03  0.00000000000E+00 0.  1.
         23    2    1    2    0    0  0.25452157018E+02 -0.23635719996E+02 -0.61258856953E+03  0.62020985545E+03  0.90493368341E+02 0.  0.
         23    2    1    2    0    0 -0.25452157018E+02  0.23635719996E+02 -0.75764868118E+02  0.12695825866E+03  0.95768599474E+02 0.  0.
          5    1    3    3  502    0 -0.14624955198E+02  0.17369700673E+02 -0.55370538546E+02  0.60029845534E+02  0.47000000000E+01 0.  1.
         -5    1    3    3    0  502  0.40077112217E+02 -0.41005420668E+02 -0.55721803099E+03  0.56018000991E+03  0.47000000000E+01 0.  1.
          5    1    4    4  503    0 -0.13237071944E+02  0.58476815093E+02 -0.27820224726E+02  0.66263209105E+02  0.47000000000E+01 0. -1.
         -5    1    4    4    0  503 -0.12215085074E+02 -0.34841095097E+02 -0.47944643392E+02  0.60695049558E+02  0.47000000000E+01 0.  1.
<mgrwt>
<rscale>  0 0.10061413E+03</rscale>
<asrwt>0</asrwt>
<pdfrwt beam="1">  1        1 0.45242058E-02 0.10187288E+03</pdfrwt>
<pdfrwt beam="2">  1       -1 0.11042474E+00 0.10187288E+03</pdfrwt>
<totfact> 0.14831971E+03</totfact>
</mgrwt>
</event>
<event>
 8    1  0.5224537E-004  0.1189484E+03  0.7546771E-02  0.1245793E+00
         -2   -1    0    0    0  501 -0.00000000000E+00  0.00000000000E+00  0.31471210405E+03  0.31471210405E+03  0.00000000000E+00 0.  1.
          2   -1    0    0  501    0  0.00000000000E+00 -0.00000000000E+00 -0.36237432596E+03  0.36237432596E+03  0.00000000000E+00 0. -1.
         23    2    1    2    0    0 -0.74097181546E+02 -0.30408132214E+01  0.29341017697E+03  0.31660426551E+03  0.93000484568E+02 0.  0.
         23    2    1    2    0    0  0.74097181546E+02  0.30408132214E+01 -0.34107239889E+03  0.36048216450E+03  0.90096452649E+02 0.  0.
          5    1    3    3  502    0 -0.27945867329E+02 -0.22721870783E+02  0.26457819568E+02  0.44937302199E+02  0.47000000000E+01 0.  1.
         -5    1    4    4    0  503  0.63120817882E+02 -0.38070711460E+02 -0.21902934355E+03  0.23114835075E+03  0.47000000000E+01 0.  1.
          5    1    4    4  503    0  0.10976363664E+02  0.41111524682E+02 -0.12204305534E+03  0.12933381374E+03  0.47000000000E+01 0. -1.
         -5    1    3    3    0  502 -0.46151314217E+02  0.19681057561E+02  0.26695235741E+03  0.27166696331E+03  0.47000000000E+01 0.  1.
<mgrwt>
<rscale>  0 0.11838025E+03</rscale>
<asrwt>0</asrwt>
<pdfrwt beam="1">  1        2 0.55749896E-01 0.11894843E+03</pdfrwt>
<pdfrwt beam="2">  1       -2 0.48417247E-01 0.11894843E+03</pdfrwt>
<totfact> 0.36824315E+02</totfact>
</mgrwt>
</event>
<event>
 8    1  0.5224537E-004  0.1462523E+03  0.7546771E-02  0.1206685E+00
         -1   -1    0    0    0  501 -0.00000000000E+00  0.00000000000E+00  0.13721149629E+03  0.13721149629E+03  0.00000000000E+00 0.  1.
          1   -1    0    0  501    0  0.00000000000E+00 -0.00000000000E+00 -0.17080262020E+03  0.17080262020E+03  0.00000000000E+00 0. -1.
         23    2    1    2    0    0  0.79987491397E+02 -0.84680235093E+02 -0.69136249465E+02  0.15750432136E+03  0.80368210511E+02 0.  0.
         23    2    1    2    0    0 -0.79987491397E+02  0.84680235093E+02  0.35545125556E+02  0.15050979514E+03  0.88436426247E+02 0.  0.
          5    1    4    4  502    0 -0.15283558667E+02  0.77197016040E+02  0.32081815249E+02  0.85113449705E+02  0.47000000000E+01 0. -1.
         -5    1    4    4    0  502 -0.64703932731E+02  0.74832190535E+01  0.34633103066E+01  0.65396345437E+02  0.47000000000E+01 0.  1.
          5    1    3    3  503    0  0.50834452203E+02 -0.88642443768E+02 -0.75375813321E+02  0.12706387213E+03  0.47000000000E+01 0. -1.
         -5    1    3    3    0  503  0.29153039194E+02  0.39622086746E+01  0.62395638555E+01  0.30440449224E+02  0.47000000000E+01 0.  1.
<mgrwt>
<rscale>  0 0.14505450E+03</rscale>
<asrwt>0</asrwt>
<pdfrwt beam="1">  1        1 0.26277326E-01 0.14625232E+03</pdfrwt>
<pdfrwt beam="2">  1       -1 0.21109461E-01 0.14625232E+03</pdfrwt>
<totfact> 0.32076051E+03</totfact>
</mgrwt>
</event>
<event>
 8    1  0.5224537E-004  0.2055977E+03  0.7546771E-02  0.1145118E+00
         -2   -1    0    0    0  501 -0.00000000000E+00  0.00000000000E+00  0.23985265399E+02  0.23985265399E+02  0.00000000000E+00 0.  1.
          2   -1    0    0  501    0  0.00000000000E+00 -0.00000000000E+00 -0.18276226218E+04  0.18276226218E+04  0.00000000000E+00 0. -1.
         23    2    1    2    0    0  0.63715786218E+02 -0.17278131327E+03 -0.10779385712E+04  0.10973704916E+04  0.91418536749E+02 0.  0.
         23    2    1    2    0    0 -0.63715786218E+02  0.17278131327E+03 -0.72569878520E+03  0.75423739563E+03  0.91226303749E+02 0.  0.
          5    1    3    3  502    0 -0.14775589898E+02 -0.89770055660E+02 -0.45675009651E+03  0.46574641342E+03  0.47000000000E+01 0. -1.
         -5    1    3    3    0  502  0.78491376116E+02 -0.83011257608E+02 -0.62118847470E+03  0.63162407817E+03  0.47000000000E+01 0.  1.
          5    1    4    4  503    0 -0.30648201328E+02  0.77581679855E+02 -0.50113336103E+03  0.50805015976E+03  0.47000000000E+01 0. -1.
         -5    1    4    4    0  503 -0.33067584890E+02  0.95199633412E+02 -0.22456542417E+03  0.24618723586E+03  0.47000000000E+01 0.  1.
<mgrwt>
<rscale>  0 0.20557639E+03</rscale>
<asrwt>0</asrwt>
<pdfrwt beam="1">  1        2 0.28117276E+00 0.20559774E+03</pdfrwt>
<pdfrwt beam="2">  1       -2 0.36900402E-02 0.20559774E+03</pdfrwt>
<totfact> 0.28431608E+03</totfact>
</mgrwt>
</event>
<event>
 8    1  0.5224537E-004  0.1141891E+03  0.7546771E-02  0.1253196E+00
          1   -1    0    0  501    0  0.00000000000E+00  0.00000000000E+00  0.90818779555E+03  0.90818779555E+03  0.00000000000E+00 0. -1.
         -1   -1    0    0    0  501 -0.00000000000E+00 -0.00000000000E+00 -0.19443891289E+03  0.19443891289E+03  0.00000000000E+00 0.  1.
         23    2    1    2    0    0  0.13927230061E+02  0.67662921109E+02 -0.17382529035E+03  0.20773729756E+03  0.90373196254E+02 0.  0.
         23    2    1    2    0    0 -0.13927230061E+02 -0.67662921109E+02  0.88757417301E+03  0.89488941088E+03  0.90922530071E+02 0.  0.
          5    1    4    4  502    0  0.28524414250E+02  0.55414249349E+01  0.22996874525E+03  0.23184491236E+03  0.47000000000E+01 0. -1.
         -5    1    4    4    0  502 -0.42451644311E+02 -0.73204346044E+02  0.65760542776E+03  0.66304449851E+03  0.47000000000E+01 0.  1.
          5    1    3    3  503    0 -0.28538699438E+02  0.27771043372E+02 -0.12595553775E+03  0.13218387082E+03  0.47000000000E+01 0.  1.
         -5    1    3    3    0  503  0.42465929498E+02  0.39891877737E+02 -0.47869752602E+02  0.75553426737E+02  0.47000000000E+01 0. -1.
<mgrwt>
<rscale>  0 0.11407969E+03</rscale>
<asrwt>0</asrwt>
<pdfrwt beam="1">  1        1 0.13972120E+00 0.11418908E+03</pdfrwt>
<pdfrwt beam="2">  1       -1 0.29913679E-01 0.11418908E+03</pdfrwt>
<totfact> 0.20239734E+02</totfact>
</mgrwt>
</event>
<event>
 8    1  0.5224537E-004  0.9723111E+02  0.7546771E-02  0.1289265E+00
         -1   -1    0    0    0  501 -0.00000000000E+00  0.00000000000E+00  0.46541332745E+02  0.46541332745E+02  0.00000000000E+00 0.  1.
          1   -1    0    0  501    0  0.00000000000E+00 -0.00000000000E+00 -0.29704930020E+03  0.29704930020E+03  0.00000000000E+00 0. -1.
         23    2    1    2    0    0 -0.31764365888E+02  0.95397637351E+01 -0.25435968584E+02  0.10050312286E+03  0.91399711017E+02 0.  0.
         23    2    1    2    0    0  0.31764365888E+02 -0.95397637351E+01 -0.22507199887E+03  0.24308751008E+03  0.85639657006E+02 0.  0.
          5    1    3    3  502    0  0.30621388807E+02  0.93876396437E+01 -0.19184395205E+02  0.37628822064E+02  0.47000000000E+01 0. -1.
         -5    1    4    4    0  503  0.16897138648E+01  0.31288420894E+02 -0.14324362238E+03  0.14670598409E+03  0.47000000000E+01 0.  1.
          5    1    4    4  503    0  0.30074652023E+02 -0.40828184629E+02 -0.81828376484E+02  0.96381525992E+02  0.47000000000E+01 0. -1.
         -5    1    3    3    0  502 -0.62385754695E+02  0.15212409141E+00 -0.62515733796E+01  0.62874300794E+02  0.47000000000E+01 0.  1.
<mgrwt>
<rscale>  0 0.95853725E+02</rscale>
<asrwt>0</asrwt>
<pdfrwt beam="1">  1        1 0.45699893E-01 0.97231112E+02</pdfrwt>
<pdfrwt beam="2">  1       -1 0.71602049E-02 0.97231112E+02</pdfrwt>
<totfact> 0.83753951E+03</totfact>
</mgrwt>
</event>
<event>
 8    1  0.5224537E-004  0.1179739E+03  0.7546771E-02  0.1247016E+00
         -2   -1    0    0    0  501 -0.00000000000E+00  0.00000000000E+00  0.46656098419E+02  0.46656098419E+02  0.00000000000E+00 0.  1.
          2   -1    0    0  501    0  0.00000000000E+00 -0.00000000000E+00 -0.43447333237E+03  0.43447333237E+03  0.00000000000E+00 0. -1.
         23    2    1    2    0    0 -0.51259368482E+02 -0.51188130910E+02 -0.56948696571E+02  0.12985769393E+03  0.91499284301E+02 0.  0.
         23    2    1    2    0    0  0.51259368482E+02  0.51188130910E+02 -0.33086853738E+03  0.35127173686E+03  0.93113352897E+02 0.  0.
          5    1    4    4  502    0  0.74026522151E+02  0.16841214636E+02 -0.19933756002E+03  0.21335675599E+03  0.47000000000E+01 0. -1.
         -5    1    4    4    0  502 -0.22767153669E+02  0.34346916273E+02 -0.13153097736E+03  0.13791498087E+03  0.47000000000E+01 0.  1.
          5    1    3    3  503    0 -0.33609184912E+02  0.18247947028E+02 -0.41088272033E+02  0.56328509476E+02  0.47000000000E+01 0. -1.
         -5    1    3    3    0  503 -0.17650183570E+02 -0.69436077937E+02 -0.15860424538E+02  0.73529184450E+02  0.47000000000E+01 0.  1.
<mgrwt>
<rscale>  0 0.11765519E+03</rscale>
<asrwt>0</asrwt>
<pdfrwt beam="1">  1        2 0.66842050E-01 0.11797391E+03</pdfrwt>
<pdfrwt beam="2">  1       -2 0.71778614E-02 0.11797391E+03</pdfrwt>
<totfact> 0.77224111E+03</totfact>
</mgrwt>
</event>
<event>
 8    1  0.5224537E-004  0.1262174E+03  0.7546771E-02  0.1233562E+00
          1   -1    0    0  501    0  0.00000000000E+00  0.00000000000E+00  0.51592040707E+03  0.51592040707E+03  0.00000000000E+00 0. -1.
         -1   -1    0    0    0  501 -0.00000000000E+00 -0.00000000000E+00 -0.32268933088E+02  0.32268933088E+02  0.00000000000E+00 0.  1.
         23    2    1    2    0    0  0.31050574070E+02  0.84035195701E+02  0.18108974282E+03  0.22073585844E+03  0.88908784613E+02 0.  0.
         23    2    1    2    0    0 -0.31050574070E+02 -0.84035195701E+02  0.30256173117E+03  0.32745348172E+03  0.87499310033E+02 0.  0.
          5    1    3    3  502    0  0.17937997198E+02 -0.14128410977E+02  0.16394904889E+02  0.28500292043E+02  0.47000000000E+01 0. -1.
         -5    1    3    3    0  502  0.13112576871E+02  0.98163606677E+02  0.16469483793E+03  0.19223556640E+03  0.47000000000E+01 0.  1.
          5    1    4    4  503    0 -0.92851949090E+01 -0.35301112160E+02  0.24350052630E+02  0.44129337490E+02  0.47000000000E+01 0.  1.
         -5    1    4    4    0  503 -0.21765379161E+02 -0.48734083541E+02  0.27821167854E+03  0.28332414423E+03  0.47000000000E+01 0. -1.
<mgrwt>
<rscale>  0 0.12596943E+03</rscale>
<asrwt>0</asrwt>
<pdfrwt beam="1">  1        1 0.79372364E-01 0.12621737E+03</pdfrwt>
<pdfrwt beam="2">  1       -1 0.49644516E-02 0.12621737E+03</pdfrwt>
<totfact> 0.73430910E+03</totfact>
</mgrwt>
</event>
<event>
 8    1  0.5224537E-004  0.1069608E+03  0.7546771E-02  0.1267046E+00
         -1   -1    0    0    0  501 -0.00000000000E+00  0.00000000000E+00  0.22103681078E+03  0.22103681078E+03  0.00000000000E+00 0.  1.
          1   -1    0    0  501    0  0.00000000000E+00 -0.00000000000E+00 -0.53325369013E+02  0.53325369013E+02  0.00000000000E+00 0. -1.
         23    2    1    2    0    0  0.41281639353E+02 -0.33479707078E+02  0.11179931892E+03  0.15366927957E+03  0.91049960122E+02 0.  0.
         23    2    1    2    0    0 -0.41281639353E+02  0.33479707078E+02  0.55912122842E+02  0.12069290022E+03  0.92819966329E+02 0.  0.
          5    1    4    4  502    0  0.17845582329E+02 -0.19573534157E+02  0.92752927920E+01  0.28455387968E+02  0.47000000000E+01 0. -1.
         -5    1    4    4    0  502 -0.59127221682E+02  0.53053241235E+02  0.46636830050E+02  0.92237512252E+02  0.47000000000E+01 0.  1.
          5    1    3    3  503    0  0.42319717416E+02 -0.62644746623E+02  0.77021566600E+02  0.10802654527E+03  0.47000000000E+01 0. -1.
         -5    1    3    3    0  503 -0.10380780630E+01  0.29165039545E+02  0.34777752322E+02  0.45642734299E+02  0.47000000000E+01 0.  1.
<mgrwt>
<rscale>  0 0.10657563E+03</rscale>
<asrwt>0</asrwt>
<pdfrwt beam="1">  1        1 0.82039030E-02 0.10696079E+03</pdfrwt>
<pdfrwt beam="2">  1       -1 0.34005663E-01 0.10696079E+03</pdfrwt>
<totfact> 0.64341024E+03</totfact>
</mgrwt>
</event>
<event>
 8    1  0.5224537E-004  0.1063662E+03  0.7546771E-02  0.1267916E+00
         -1   -1    0    0    0  501 -0.00000000000E+00  0.00000000000E+00  0.43090922317E+02  0.43090922317E+02  0.00000000000E+00 0.  1.
          1   -1    0    0  501    0  0.00000000000E+00 -0.00000000000E+00 -0.28568583889E+03  0.28568583889E+03  0.00000000000E+00 0. -1.
         23    2    1    2    0    0  0.35366184764E+02 -0.37778885966E+02 -0.71702491813E+02  0.12748596907E+03  0.91833619817E+02 0.  0.
         23    2    1    2    0    0 -0.35366184764E+02  0.37778885966E+02 -0.17089242476E+03  0.20129079213E+03  0.92928741023E+02 0.  0.
          5    1    3    3  502    0 -0.11435719811E+02 -0.46524470496E+02 -0.95929900145E+01  0.49085817706E+02  0.47000000000E+01 0. -1.
         -5    1    3    3    0  502  0.46801904575E+02  0.87455845294E+01 -0.62109501799E+02  0.78400151367E+02  0.47000000000E+01 0.  1.
          5    1    4    4  503    0 -0.56019284534E+02 -0.57742061837E+01 -0.10821631451E+03  0.12208342403E+03  0.47000000000E+01 0. -1.
         -5    1    4    4    0  503  0.20653099770E+02  0.43553092150E+02 -0.62676110245E+02  0.79207368100E+02  0.47000000000E+01 0.  1.
<mgrwt>
<rscale>  0 0.10612650E+03</rscale>
<asrwt>0</asrwt>
<pdfrwt beam="1">  1        1 0.43951670E-01 0.10636617E+03</pdfrwt>
<pdfrwt beam="2">  1       -1 0.66293723E-02 0.10636617E+03</pdfrwt>
<totfact> 0.99237673E+03</totfact>
</mgrwt>
</event>
<event>
 8    1  0.5224537E-004  0.1063881E+03  0.7546771E-02  0.1272425E+00
          2   -1    0    0  501    0  0.00000000000E+00  0.00000000000E+00  0.24077095702E+03  0.24077095702E+03  0.00000000000E+00 0. -1.
         -2   -1    0    0    0  501 -0.00000000000E+00 -0.00000000000E+00 -0.51928707976E+02  0.51928707976E+02  0.00000000000E+00 0.  1.
         23    2    1    2    0    0 -0.52020565197E+02 -0.11189677904E+02  0.36764589448E+02  0.11256135035E+03  0.92125319321E+02 0.  0.
         23    2    1    2    0    0  0.52020565197E+02  0.11189677904E+02  0.15207765960E+03  0.18013831465E+03  0.80565810124E+02 0.  0.
          5    1    4    4  502    0  0.26622184061E+02 -0.33859549268E+02  0.54712663933E+02  0.69790940353E+02  0.47000000000E+01 0. -1.
         -5    1    3    3    0  503  0.19745343048E+02 -0.13675970881E+02 -0.10322678508E+02  0.26562350107E+02  0.47000000000E+01 0.  1.
          5    1    3    3  503    0 -0.71765908245E+02  0.24862929770E+01  0.47087267956E+02  0.85999000241E+02  0.47000000000E+01 0. -1.
         -5    1    4    4    0  502  0.25398381136E+02  0.45049227172E+02  0.97364995666E+02  0.11034737430E+03  0.47000000000E+01 0.  1.
<mgrwt>
<rscale>  0 0.10383876E+03</rscale>
<asrwt>0</asrwt>
<pdfrwt beam="1">  1        2 0.37041685E-01 0.10638808E+03</pdfrwt>
<pdfrwt beam="2">  1       -2 0.79890321E-02 0.10638808E+03</pdfrwt>
<totfact> 0.12133541E+04</totfact>
</mgrwt>
</event>
<event>
 8    1  0.5224537E-004  0.9280755E+02  0.7546771E-02  0.1297865E+00
          3   -1    0    0  501    0  0.00000000000E+00  0.00000000000E+00  0.44110833929E+02  0.44110833929E+02  0.00000000000E+00 0. -1.
         -3   -1    0    0    0  501 -0.00000000000E+00 -0.00000000000E+00 -0.20953428886E+03  0.20953428886E+03  0.00000000000E+00 0.  1.
         23    2    1    2    0    0  0.27971809283E+01 -0.87416757854E+01 -0.44512209930E+02  0.10292996325E+03  0.92352581908E+02 0.  0.
         23    2    1    2    0    0 -0.27971809283E+01  0.87416757854E+01 -0.12091124500E+03  0.15071515954E+03  0.89505804454E+02 0.  0.
          5    1    3    3  502    0 -0.31568684260E+02 -0.34792622353E+02 -0.11989267644E+02  0.48712841580E+02  0.47000000000E+01 0. -1.
         -5    1    3    3    0  502  0.34365865189E+02  0.26050946568E+02 -0.32522942286E+02  0.54217121670E+02  0.47000000000E+01 0.  1.
          5    1    4    4  503    0  0.15451777319E+02 -0.33961168110E+02 -0.80992810292E+02  0.89297500977E+02  0.47000000000E+01 0. -1.
         -5    1    4    4    0  503 -0.18248958247E+02  0.42702843895E+02 -0.39918434708E+02  0.61417658563E+02  0.47000000000E+01 0.  1.
<mgrwt>
<rscale>  0 0.92091199E+02</rscale>
<asrwt>0</asrwt>
<pdfrwt beam="1">  1        3 0.67862822E-02 0.92807545E+02</pdfrwt>
<pdfrwt beam="2">  1       -3 0.32236044E-01 0.92807545E+02</pdfrwt>
<totfact> 0.27777449E+03</totfact>
</mgrwt>
</event>
<event>
 8    1  0.5224537E-004  0.9818826E+02  0.7546771E-02  0.1298427E+00
          1   -1    0    0  501    0  0.00000000000E+00  0.00000000000E+00  0.52802750993E+02  0.52802750993E+02  0.00000000000E+00 0. -1.
         -1   -1    0    0    0  501 -0.00000000000E+00 -0.00000000000E+00 -0.32012413402E+03  0.32012413402E+03  0.00000000000E+00 0.  1.
         23    2    1    2    0    0 -0.11907724893E+02 -0.28708576513E+02 -0.31247432471E+01  0.98237970944E+02  0.93139458004E+02 0.  0.
         23    2    1    2    0    0  0.11907724893E+02  0.28708576513E+02 -0.26419663978E+03  0.27468891407E+03  0.68470130451E+02 0.  0.
          5    1    4    4  502    0  0.23880899160E+02  0.46867860677E+02 -0.19306184827E+03  0.20015459267E+03  0.47000000000E+01 0.  1.
         -5    1    3    3    0  503  0.12453107910E+02 -0.46803540631E+02 -0.30224524578E+02  0.57282311390E+02  0.47000000000E+01 0.  1.
          5    1    3    3  503    0 -0.24360832804E+02  0.18094964119E+02  0.27099781331E+02  0.40955659554E+02  0.47000000000E+01 0. -1.
         -5    1    4    4    0  502 -0.11973174267E+02 -0.18159284164E+02 -0.71134791507E+02  0.74534321397E+02  0.47000000000E+01 0. -1.
<mgrwt>
<rscale>  0 0.91852388E+02</rscale>
<asrwt>0</asrwt>
<pdfrwt beam="1">  1        1 0.81235002E-02 0.98188263E+02</pdfrwt>
<pdfrwt beam="2">  1       -1 0.49249866E-01 0.98188263E+02</pdfrwt>
<totfact> 0.33903168E+03</totfact>
</mgrwt>
</event>
<event>
 8    1  0.5224537E-004  0.1029826E+03  0.7546771E-02  0.1274817E+00
          3   -1    0    0  501    0  0.00000000000E+00  0.00000000000E+00  0.34030824697E+02  0.34030824697E+02  0.00000000000E+00 0. -1.
         -3   -1    0    0    0  501 -0.00000000000E+00 -0.00000000000E+00 -0.71671904939E+03  0.71671904939E+03  0.00000000000E+00 0.  1.
         23    2    1    2    0    0 -0.11111840878E+02 -0.46262716008E+02 -0.56818957941E+02  0.11646464952E+03  0.89843801709E+02 0.  0.
         23    2    1    2    0    0  0.11111840878E+02  0.46262716008E+02 -0.62586926675E+03  0.63428522457E+03  0.91332880954E+02 0.  0.
          5    1    4    4  502    0 -0.10695937234E+02 -0.19130985319E+02 -0.57228315628E+02  0.61461921401E+02  0.47000000000E+01 0. -1.
         -5    1    4    4    0  502  0.21807778112E+02  0.65393701327E+02 -0.56864095112E+03  0.57282330317E+03  0.47000000000E+01 0.  1.
          5    1    3    3  503    0 -0.12858418994E+02  0.24484036257E+02 -0.46835801386E+01  0.28439987577E+02  0.47000000000E+01 0. -1.
         -5    1    3    3    0  503  0.17465781159E+01 -0.70746752265E+02 -0.52135377803E+02  0.88024661941E+02  0.47000000000E+01 0.  1.
<mgrwt>
<rscale>  0 0.10265139E+03</rscale>
<asrwt>0</asrwt>
<pdfrwt beam="1">  1        3 0.52355116E-02 0.10298256E+03</pdfrwt>
<pdfrwt beam="2">  1       -3 0.11026447E+00 0.10298256E+03</pdfrwt>
<totfact> 0.34195955E+02</totfact>
</mgrwt>
</event>
<event>
 8    1  0.5224537E-004  0.1173328E+03  0.7546771E-02  0.1247642E+00
         -1   -1    0    0    0  501 -0.00000000000E+00  0.00000000000E+00  0.14286644863E+03  0.14286644863E+03  0.00000000000E+00 0.  1.
          1   -1    0    0  501    0  0.00000000000E+00 -0.00000000000E+00 -0.16841898070E+03  0.16841898070E+03  0.00000000000E+00 0. -1.
         23    2    1    2    0    0 -0.44158835692E+02  0.59097776178E+02  0.89141832841E+02  0.14720681414E+03  0.91000164008E+02 0.  0.
         23    2    1    2    0    0  0.44158835692E+02 -0.59097776178E+02 -0.11469436491E+03  0.16407861519E+03  0.91238394887E+02 0.  0.
          5    1    3    3  502    0 -0.19915444721E+02 -0.13102987772E+02  0.61366363377E+02  0.66001771045E+02  0.47000000000E+01 0. -1.
         -5    1    3    3    0  502 -0.24243390971E+02  0.72200763950E+02  0.27775469463E+02  0.81205043099E+02  0.47000000000E+01 0.  1.
          5    1    4    4  503    0 -0.47136521273E+00 -0.25881149368E+02 -0.10394225267E+03  0.10722004462E+03  0.47000000000E+01 0. -1.
         -5    1    4    4    0  503  0.44630200904E+02 -0.33216626810E+02 -0.10752112234E+02  0.56858570567E+02  0.47000000000E+01 0.  1.
<mgrwt>
<rscale>  0 0.11728652E+03</rscale>
<asrwt>0</asrwt>
<pdfrwt beam="1">  1        1 0.25910613E-01 0.11733284E+03</pdfrwt>
<pdfrwt beam="2">  1       -1 0.21979454E-01 0.11733284E+03</pdfrwt>
<totfact> 0.30249169E+03</totfact>
</mgrwt>
</event>
<event>
 8    1  0.5224537E-004  0.1861407E+03  0.7546771E-02  0.1166696E+00
          1   -1    0    0  501    0  0.00000000000E+00  0.00000000000E+00  0.62152668828E+02  0.62152668828E+02  0.00000000000E+00 0. -1.
         -1   -1    0    0    0  501 -0.00000000000E+00 -0.00000000000E+00 -0.54450175054E+03  0.54450175054E+03  0.00000000000E+00 0.  1.
         23    2    1    2    0    0 -0.23071579659E+01  0.13868479260E+03 -0.33835313274E+03  0.38617510849E+03  0.12413531851E+03 0.  0.
         23    2    1    2    0    0  0.23071579659E+01 -0.13868479260E+03 -0.14399594897E+03  0.22047931088E+03  0.92938143566E+02 0.  0.
          5    1    3    3  502    0 -0.29290433807E+02  0.83289611123E+02 -0.30156139191E+03  0.31425539284E+03  0.47000000000E+01 0.  1.
         -5    1    4    4    0  503  0.10297827257E+02 -0.75652254672E+02 -0.13630995870E+03  0.15630676161E+03  0.47000000000E+01 0.  1.
          5    1    4    4  503    0 -0.79906692908E+01 -0.63032537931E+02 -0.76859902677E+01  0.64172549272E+02  0.47000000000E+01 0. -1.
         -5    1    3    3    0  502  0.26983275841E+02  0.55395181479E+02 -0.36791740830E+02  0.71919715653E+02  0.47000000000E+01 0.  1.
<mgrwt>
<rscale>  0 0.18114879E+03</rscale>
<asrwt>0</asrwt>
<pdfrwt beam="1">  1        1 0.95619486E-02 0.18614073E+03</pdfrwt>
<pdfrwt beam="2">  1       -1 0.83769504E-01 0.18614073E+03</pdfrwt>
<totfact> 0.10022342E+03</totfact>
</mgrwt>
</event>
<event>
 8    1  0.5224537E-004  0.9190624E+02  0.7546771E-02  0.1298769E+00
          2   -1    0    0  501    0  0.00000000000E+00  0.00000000000E+00  0.38318368368E+02  0.38318368368E+02  0.00000000000E+00 0. -1.
         -2   -1    0    0    0  501 -0.00000000000E+00 -0.00000000000E+00 -0.21894663039E+03  0.21894663039E+03  0.00000000000E+00 0.  1.
         23    2    1    2    0    0  0.15737748570E+02 -0.26762246793E+01 -0.95485491508E+02  0.13198112731E+03  0.89703399983E+02 0.  0.
         23    2    1    2    0    0 -0.15737748570E+02  0.26762246793E+01 -0.85142770515E+02  0.12528387145E+03  0.90509215919E+02 0.  0.
          5    1    4    4  502    0 -0.29784159479E+02  0.27840609979E+02 -0.67010034315E+01  0.41583520376E+02  0.47000000000E+01 0. -1.
         -5    1    4    4    0  502  0.14046410909E+02 -0.25164385300E+02 -0.78441767084E+02  0.83700351075E+02  0.47000000000E+01 0.  1.
          5    1    3    3  503    0 -0.27744122718E+02 -0.87794083237E+01 -0.31694973155E+01  0.29647092086E+02  0.47000000000E+01 0. -1.
         -5    1    3    3    0  503  0.43481871288E+02  0.61031836444E+01 -0.92315994192E+02  0.10233403522E+03  0.47000000000E+01 0.  1.
<mgrwt>
<rscale>  0 0.91707230E+02</rscale>
<asrwt>0</asrwt>
<pdfrwt beam="1">  1        2 0.58951334E-02 0.91906241E+02</pdfrwt>
<pdfrwt beam="2">  1       -2 0.33684098E-01 0.91906241E+02</pdfrwt>
<totfact> 0.94267779E+03</totfact>
</mgrwt>
</event>
<event>
 8    1  0.5224537E-004  0.9535457E+02  0.7546771E-02  0.1290715E+00
         -3   -1    0    0    0  501 -0.00000000000E+00  0.00000000000E+00  0.16822083887E+02  0.16822083887E+02  0.00000000000E+00 0.  1.
          3   -1    0    0  501    0  0.00000000000E+00 -0.00000000000E+00 -0.54500621941E+03  0.54500621941E+03  0.00000000000E+00 0. -1.
         23    2    1    2    0    0 -0.14212233534E+02  0.19115994186E+02 -0.29866845575E+03  0.31352087607E+03  0.92331383914E+02 0.  0.
         23    2    1    2    0    0  0.14212233534E+02 -0.19115994186E+02 -0.22951567978E+03  0.24830742723E+03  0.91715442208E+02 0.  0.
          5    1    3    3  502    0 -0.23205299707E+01 -0.37169810848E+02 -0.11084923117E+03  0.11703256704E+03  0.47000000000E+01 0. -1.
         -5    1    3    3    0  502 -0.11891703563E+02  0.56285805034E+02 -0.18781922458E+03  0.19648830903E+03  0.47000000000E+01 0.  1.
          5    1    4    4  503    0 -0.16547874901E+02 -0.29391794724E+02 -0.20387117532E+03  0.20669604710E+03  0.47000000000E+01 0. -1.
         -5    1    4    4    0  503  0.30760108435E+02  0.10275800539E+02 -0.25644504458E+02  0.41611380133E+02  0.47000000000E+01 0.  1.
<mgrwt>
<rscale>  0 0.95205143E+02</rscale>
<asrwt>0</asrwt>
<pdfrwt beam="1">  1        3 0.83847125E-01 0.95354566E+02</pdfrwt>
<pdfrwt beam="2">  1       -3 0.25880125E-02 0.95354566E+02</pdfrwt>
<totfact> 0.18559686E+03</totfact>
</mgrwt>
</event>
<event>
 8    1  0.5224537E-004  0.1134343E+03  0.7546771E-02  0.1255563E+00
          2   -1    0    0  501    0  0.00000000000E+00  0.00000000000E+00  0.10252841628E+04  0.10252841628E+04  0.00000000000E+00 0. -1.
         -2   -1    0    0    0  501 -0.00000000000E+00 -0.00000000000E+00 -0.12555149851E+02  0.12555149851E+02  0.00000000000E+00 0.  1.
         23    2    1    2    0    0  0.54682544148E+02  0.40941156790E+02  0.41961570532E+03  0.43397612819E+03  0.87129677676E+02 0.  0.
         23    2    1    2    0    0 -0.54682544148E+02 -0.40941156790E+02  0.59311330765E+03  0.60386318449E+03  0.90559322604E+02 0.  0.
          5    1    4    4  502    0 -0.46105926258E+02  0.82278582461E+01  0.13411140929E+03  0.14213167905E+03  0.47000000000E+01 0. -1.
         -5    1    4    4    0  502 -0.85766178903E+01 -0.49169015036E+02  0.45900189836E+03  0.46173150544E+03  0.47000000000E+01 0.  1.
          5    1    3    3  503    0  0.20632288824E+02  0.50482010643E+02  0.36268593708E+03  0.36679327106E+03  0.47000000000E+01 0. -1.
         -5    1    3    3    0  503  0.34050255324E+02 -0.95408538530E+01  0.56929768246E+02  0.67182857132E+02  0.47000000000E+01 0.  1.
<mgrwt>
<rscale>  0 0.11274846E+03</rscale>
<asrwt>0</asrwt>
<pdfrwt beam="1">  1        2 0.15773596E+00 0.11343434E+03</pdfrwt>
<pdfrwt beam="2">  1       -2 0.19315623E-02 0.11343434E+03</pdfrwt>
<totfact> 0.19418131E+04</totfact>
</mgrwt>
</event>
<event>
 8    1  0.5224537E-004  0.1078927E+03  0.7546771E-02  0.1265391E+00
          3   -1    0    0  501    0  0.00000000000E+00  0.00000000000E+00  0.33297168402E+02  0.33297168402E+02  0.00000000000E+00 0. -1.
         -3   -1    0    0    0  501 -0.00000000000E+00 -0.00000000000E+00 -0.49283342639E+03  0.49283342639E+03  0.00000000000E+00 0.  1.
         23    2    1    2    0    0 -0.52316812531E+02  0.20812015238E+02 -0.83734345894E+02  0.13514733771E+03  0.89906470042E+02 0.  0.
         23    2    1    2    0    0  0.52316812531E+02 -0.20812015238E+02 -0.37580191209E+03  0.39098325708E+03  0.92036087134E+02 0.  0.
          5    1    4    4  502    0  0.75377379279E+02 -0.29919923101E+02 -0.31118605725E+03  0.32161437053E+03  0.47000000000E+01 0. -1.
         -5    1    3    3    0  503 -0.60021157687E+02  0.18567384630E+01 -0.94105374515E+02  0.11173136695E+03  0.47000000000E+01 0.  1.
          5    1    3    3  503    0  0.77043451559E+01  0.18955276775E+02  0.10371028620E+02  0.23415970758E+02  0.47000000000E+01 0. -1.
         -5    1    4    4    0  502 -0.23060566748E+02  0.91079078628E+01 -0.64615854840E+02  0.69368886549E+02  0.47000000000E+01 0.  1.
<mgrwt>
<rscale>  0 0.10743710E+03</rscale>
<asrwt>0</asrwt>
<pdfrwt beam="1">  1        3 0.51226416E-02 0.10789268E+03</pdfrwt>
<pdfrwt beam="2">  1       -3 0.75820523E-01 0.10789268E+03</pdfrwt>
<totfact> 0.81804120E+02</totfact>
</mgrwt>
</event>
<event>
 8    1  0.5224537E-004  0.1262722E+03  0.7546771E-02  0.1233702E+00
          2   -1    0    0  501    0  0.00000000000E+00  0.00000000000E+00  0.37499097479E+03  0.37499097479E+03  0.00000000000E+00 0. -1.
         -2   -1    0    0    0  501 -0.00000000000E+00 -0.00000000000E+00 -0.75025289193E+02  0.75025289193E+02  0.00000000000E+00 0.  1.
         23    2    1    2    0    0 -0.74742590027E+02  0.43371968296E+02  0.29980277705E+03  0.32530967741E+03  0.92071161005E+02 0.  0.
         23    2    1    2    0    0  0.74742590027E+02 -0.43371968296E+02  0.16290854749E+00  0.12470658658E+03  0.89911755622E+02 0.  0.
          5    1    3    3  502    0 -0.76630542633E+02  0.15233397164E+02  0.27947601402E+03  0.29022961404E+03  0.47000000000E+01 0. -1.
         -5    1    4    4    0  503  0.36425663231E+02 -0.42738873675E+02  0.40096016194E+02  0.69160832698E+02  0.47000000000E+01 0.  1.
          5    1    4    4  503    0  0.38316926796E+02 -0.63309462155E+00 -0.39933107646E+02  0.55545753881E+02  0.47000000000E+01 0. -1.
         -5    1    3    3    0  502  0.18879526060E+01  0.28138571132E+02  0.20326763028E+02  0.35080063364E+02  0.47000000000E+01 0.  1.
<mgrwt>
<rscale>  0 0.12587897E+03</rscale>
<asrwt>0</asrwt>
<pdfrwt beam="1">  1        2 0.57690918E-01 0.12627225E+03</pdfrwt>
<pdfrwt beam="2">  1       -2 0.11542352E-01 0.12627225E+03</pdfrwt>
<totfact> 0.43319494E+03</totfact>
</mgrwt>
</event>
<event>
 8    1  0.5224537E-004  0.1132174E+03  0.7546771E-02  0.1255143E+00
          3   -1    0    0  501    0  0.00000000000E+00  0.00000000000E+00  0.54632701831E+03  0.54632701831E+03  0.00000000000E+00 0. -1.
         -3   -1    0    0    0  501 -0.00000000000E+00 -0.00000000000E+00 -0.27655487385E+02  0.27655487385E+02  0.00000000000E+00 0.  1.
         23    2    1    2    0    0 -0.55979001270E+02 -0.35277271658E+02  0.14414357707E+03  0.18271612795E+03  0.90717573400E+02 0.  0.
         23    2    1    2    0    0  0.55979001270E+02  0.35277271658E+02  0.37452795385E+03  0.39126637774E+03  0.91869775528E+02 0.  0.
          5    1    4    4  502    0  0.56673545502E+02 -0.11516542325E+02  0.27671161040E+03  0.28272942336E+03  0.47000000000E+01 0. -1.
         -5    1    3    3    0  503 -0.80721936057E+02 -0.22450517410E+02  0.11116680040E+03  0.13928461582E+03  0.47000000000E+01 0.  1.
          5    1    3    3  503    0  0.24742934787E+02 -0.12826754248E+02  0.32976776674E+02  0.43431512134E+02  0.47000000000E+01 0. -1.
         -5    1    4    4    0  502 -0.69454423234E+00  0.46793813984E+02  0.97816343458E+02  0.10853695438E+03  0.47000000000E+01 0.  1.
<mgrwt>
<rscale>  0 0.11298349E+03</rscale>
<asrwt>0</asrwt>
<pdfrwt beam="1">  1        3 0.84050302E-01 0.11321745E+03</pdfrwt>
<pdfrwt beam="2">  1       -3 0.42546908E-02 0.11321745E+03</pdfrwt>
<totfact> 0.88469448E+02</totfact>
</mgrwt>
</event>
<event>
 8    1  0.5224537E-004  0.9870353E+02  0.7546771E-02  0.1285123E+00
         -2   -1    0    0    0  501 -0.00000000000E+00  0.00000000000E+00  0.98727048585E+02  0.98727048585E+02  0.00000000000E+00 0.  1.
          2   -1    0    0  501    0  0.00000000000E+00 -0.00000000000E+00 -0.10704585546E+03  0.10704585546E+03  0.00000000000E+00 0. -1.
         23    2    1    2    0    0  0.36982726786E+02 -0.10839773954E+02  0.30395677178E+02  0.10327770472E+03  0.90868940351E+02 0.  0.
         23    2    1    2    0    0 -0.36982726786E+02  0.10839773954E+02 -0.38714484052E+02  0.10249519933E+03  0.86725035772E+02 0.  0.
          5    1    4    4  502    0  0.22211718649E+02  0.85507422908E+01 -0.35481360816E+02  0.42982468570E+02  0.47000000000E+01 0. -1.
         -5    1    4    4    0  502 -0.59194445434E+02  0.22890316628E+01 -0.32331232362E+01  0.59512730756E+02  0.47000000000E+01 0.  1.
          5    1    3    3  503    0  0.43878751188E+02  0.12393794586E+02 -0.17764318527E+02  0.49159047619E+02  0.47000000000E+01 0. -1.
         -5    1    3    3    0  503 -0.68960244027E+01 -0.23233568539E+02  0.48159995705E+02  0.54118657097E+02  0.47000000000E+01 0.  1.
<mgrwt>
<rscale>  0 0.97739194E+02</rscale>
<asrwt>0</asrwt>
<pdfrwt beam="1">  1        2 0.16468593E-01 0.98703531E+02</pdfrwt>
<pdfrwt beam="2">  1       -2 0.15188777E-01 0.98703531E+02</pdfrwt>
<totfact> 0.10660837E+04</totfact>
</mgrwt>
</event>
<event>
 8    1  0.5224537E-004  0.1109273E+03  0.7546771E-02  0.1269047E+00
         -3   -1    0    0    0  501 -0.00000000000E+00  0.00000000000E+00  0.90104049644E+02  0.90104049644E+02  0.00000000000E+00 0.  1.
          3   -1    0    0  501    0  0.00000000000E+00 -0.00000000000E+00 -0.19911277817E+03  0.19911277817E+03  0.00000000000E+00 0. -1.
         23    2    1    2    0    0  0.17763722454E+01 -0.37961065317E+01 -0.14624763345E+03  0.17220568512E+03  0.90823244675E+02 0.  0.
         23    2    1    2    0    0 -0.17763722454E+01  0.37961065317E+01  0.37238904928E+02  0.11701114269E+03  0.11084811930E+03 0.  0.
          5    1    3    3  502    0  0.35500062269E+02 -0.29832075828E+02 -0.60790539039E+02  0.76601480442E+02  0.47000000000E+01 0. -1.
         -5    1    4    4    0  503 -0.27930407942E+02 -0.31146425380E+02  0.55334966006E+02  0.69528813917E+02  0.47000000000E+01 0.  1.
          5    1    4    4  503    0  0.26154035697E+02  0.34942531912E+02 -0.18096061078E+02  0.47482328778E+02  0.47000000000E+01 0. -1.
         -5    1    3    3    0  502 -0.33723690024E+02  0.26035969296E+02 -0.85457094413E+02  0.95604204675E+02  0.47000000000E+01 0.  1.
<mgrwt>
<rscale>  0 0.10554645E+03</rscale>
<asrwt>0</asrwt>
<pdfrwt beam="1">  1        3 0.30632735E-01 0.11092733E+03</pdfrwt>
<pdfrwt beam="2">  1       -3 0.13862162E-01 0.11092733E+03</pdfrwt>
<totfact> 0.97924297E+02</totfact>
</mgrwt>
</event>
<event>
 8    1  0.5224537E-004  0.9669092E+02  0.7546771E-02  0.1293287E+00
         -1   -1    0    0    0  501 -0.00000000000E+00  0.00000000000E+00  0.44461838905E+02  0.44461838905E+02  0.00000000000E+00 0.  1.
          1   -1    0    0  501    0  0.00000000000E+00 -0.00000000000E+00 -0.45893467540E+03  0.45893467540E+03  0.00000000000E+00 0. -1.
         23    2    1    2    0    0  0.19793237861E+02  0.12163855373E+02 -0.96159631339E+01  0.87153529890E+02  0.83447824314E+02 0.  0.
         23    2    1    2    0    0 -0.19793237861E+02 -0.12163855373E+02 -0.40485687336E+03  0.41624298442E+03  0.93858417437E+02 0.  0.
          5    1    3    3  502    0  0.51250845923E+01 -0.20994612706E+02  0.27341893202E+02  0.35166879001E+02  0.47000000000E+01 0. -1.
         -5    1    3    3    0  502  0.14668153269E+02  0.33158468079E+02 -0.36957856336E+02  0.51986650889E+02  0.47000000000E+01 0.  1.
          5    1    4    4  503    0 -0.47597327743E+02 -0.33709301524E+02 -0.20195515315E+03  0.21026125772E+03  0.47000000000E+01 0. -1.
         -5    1    4    4    0  503  0.27804089882E+02  0.21545446151E+02 -0.20290172022E+03  0.20598172669E+03  0.47000000000E+01 0.  1.
<mgrwt>
<rscale>  0 0.94068799E+02</rscale>
<asrwt>0</asrwt>
<pdfrwt beam="1">  1        1 0.70605332E-01 0.96690921E+02</pdfrwt>
<pdfrwt beam="2">  1       -1 0.68402832E-02 0.96690921E+02</pdfrwt>
<totfact> 0.52245912E+03</totfact>
</mgrwt>
</event>
<event>
 8    1  0.5224537E-004  0.1544321E+03  0.7546771E-02  0.1195967E+00
         -2   -1    0    0    0  501 -0.00000000000E+00  0.00000000000E+00  0.21235448174E+03  0.21235448174E+03  0.00000000000E+00 0.  1.
          2   -1    0    0  501    0  0.00000000000E+00 -0.00000000000E+00 -0.14799430891E+03  0.14799430891E+03  0.00000000000E+00 0. -1.
         23    2    1    2    0    0  0.86923696566E+02 -0.84018537652E+02 -0.58989805715E+02  0.16270139577E+03  0.91526516999E+02 0.  0.
         23    2    1    2    0    0 -0.86923696566E+02  0.84018537652E+02  0.12334997854E+03  0.19764739488E+03  0.96095951026E+02 0.  0.
          5    1    3    3  502    0  0.68563681667E+02 -0.10251879688E+03 -0.57541609777E+02  0.13617712368E+03  0.47000000000E+01 0. -1.
         -5    1    3    3    0  502  0.18360014899E+02  0.18500259228E+02 -0.14481959379E+01  0.26524272094E+02  0.47000000000E+01 0.  1.
          5    1    4    4  503    0 -0.27610718835E+02 -0.45750451507E+01 -0.69544833931E+01  0.29218789708E+02  0.47000000000E+01 0. -1.
         -5    1    4    4    0  503 -0.59312977731E+02  0.88593582803E+02  0.13030446193E+03  0.16842860517E+03  0.47000000000E+01 0.  1.
<mgrwt>
<rscale>  0 0.15372700E+03</rscale>
<asrwt>0</asrwt>
<pdfrwt beam="1">  1        2 0.22768355E-01 0.15443211E+03</pdfrwt>
<pdfrwt beam="2">  1       -2 0.32669921E-01 0.15443211E+03</pdfrwt>
<totfact> 0.20419891E+03</totfact>
</mgrwt>
</event>
<event>
 8    1  0.5224537E-004  0.9817705E+02  0.7546771E-02  0.1285583E+00
          1   -1    0    0  501    0  0.00000000000E+00  0.00000000000E+00  0.19224578892E+03  0.19224578892E+03  0.00000000000E+00 0. -1.
         -1   -1    0    0    0  501 -0.00000000000E+00 -0.00000000000E+00 -0.51078344408E+02  0.51078344408E+02  0.00000000000E+00 0.  1.
         23    2    1    2    0    0 -0.51637657849E+01 -0.32380419823E+02  0.96986894440E+02  0.13800431609E+03  0.92539599637E+02 0.  0.
         23    2    1    2    0    0  0.51637657849E+01  0.32380419823E+02  0.44180550069E+02  0.10531981724E+03  0.89806385258E+02 0.  0.
          5    1    3    3  502    0  0.74322969399E+01  0.27443220811E+02  0.79449043264E+01  0.29892823738E+02  0.47000000000E+01 0. -1.
         -5    1    4    4    0  503 -0.35982832445E+02 -0.86146573796E+01  0.18640509705E+02  0.41695745042E+02  0.47000000000E+01 0.  1.
          5    1    4    4  503    0  0.41146598230E+02  0.40995077203E+02  0.25540040363E+02  0.63624072194E+02  0.47000000000E+01 0. -1.
         -5    1    3    3    0  502 -0.12596062725E+02 -0.59823640634E+02  0.89041990114E+02  0.10811149235E+03  0.47000000000E+01 0.  1.
<mgrwt>
<rscale>  0 0.97527659E+02</rscale>
<asrwt>0</asrwt>
<pdfrwt beam="1">  1        1 0.29576275E-01 0.98177052E+02</pdfrwt>
<pdfrwt beam="2">  1       -1 0.78582069E-02 0.98177052E+02</pdfrwt>
<totfact> 0.12435405E+04</totfact>
</mgrwt>
</event>
<event>
 8    1  0.5224537E-004  0.1105201E+03  0.7546771E-02  0.1259780E+00
         -2   -1    0    0    0  501 -0.00000000000E+00  0.00000000000E+00  0.58927727468E+02  0.58927727468E+02  0.00000000000E+00 0.  1.
          2   -1    0    0  501    0  0.00000000000E+00 -0.00000000000E+00 -0.20716954836E+03  0.20716954836E+03  0.00000000000E+00 0. -1.
         23    2    1    2    0    0  0.50221187652E+02  0.36634510595E+02 -0.81040142638E+02  0.13674982768E+03  0.90932698169E+02 0.  0.
         23    2    1    2    0    0 -0.50221187652E+02 -0.36634510595E+02 -0.67201678255E+02  0.12934744815E+03  0.91380751399E+02 0.  0.
          5    1    4    4  502    0 -0.44837743716E+02 -0.11601889046E+01 -0.79270229750E+02  0.91201034119E+02  0.47000000000E+01 0. -1.
         -5    1    4    4    0  502 -0.53834439356E+01 -0.35474321690E+02  0.12068551495E+02  0.38146414028E+02  0.47000000000E+01 0.  1.
          5    1    3    3  503    0  0.75709566336E+02  0.36610813009E+02 -0.62444990388E+02  0.10485111773E+03  0.47000000000E+01 0. -1.
         -5    1    3    3    0  503 -0.25488378684E+02  0.23697586263E-01 -0.18595152250E+02  0.31898709954E+02  0.47000000000E+01 0.  1.
<mgrwt>
<rscale>  0 0.11042746E+03</rscale>
<asrwt>0</asrwt>
<pdfrwt beam="1">  1        2 0.31872238E-01 0.11052012E+03</pdfrwt>
<pdfrwt beam="2">  1       -2 0.90658043E-02 0.11052012E+03</pdfrwt>
<totfact> 0.11756286E+04</totfact>
</mgrwt>
</event>
<event>
 8    1  0.5224537E-004  0.9930161E+02  0.7546771E-02  0.1281858E+00
         -2   -1    0    0    0  501 -0.00000000000E+00  0.00000000000E+00  0.35167359057E+02  0.35167359057E+02  0.00000000000E+00 0.  1.
          2   -1    0    0  501    0  0.00000000000E+00 -0.00000000000E+00 -0.73911248338E+03  0.73911248338E+03  0.00000000000E+00 0. -1.
         23    2    1    2    0    0 -0.29050103661E+02  0.25229496935E+02 -0.46939975988E+02  0.10983701697E+03  0.91544376741E+02 0.  0.
         23    2    1    2    0    0  0.29050103661E+02 -0.25229496935E+02 -0.65700514833E+03  0.66444282546E+03  0.91367758737E+02 0.  0.
          5    1    3    3  502    0 -0.78473327438E+01  0.38139372048E+02 -0.66960453970E+02  0.77601447972E+02  0.47000000000E+01 0. -1.
         -5    1    4    4    0  503  0.55446838289E+02  0.51314784184E+01 -0.30124823803E+03  0.30638745873E+03  0.47000000000E+01 0. -1.
          5    1    4    4  503    0 -0.26396734628E+02 -0.30360975353E+02 -0.35575691030E+03  0.35805536674E+03  0.47000000000E+01 0.  1.
         -5    1    3    3    0  502 -0.21202770917E+02 -0.12909875114E+02  0.20020477982E+02  0.32235568998E+02  0.47000000000E+01 0.  1.
<mgrwt>
<rscale>  0 0.99260882E+02</rscale>
<asrwt>0</asrwt>
<pdfrwt beam="1">  1        2 0.11370961E+00 0.99301606E+02</pdfrwt>
<pdfrwt beam="2">  1       -2 0.54103633E-02 0.99301606E+02</pdfrwt>
<totfact> 0.64590666E+03</totfact>
</mgrwt>
</event>
<event>
 8    1  0.5224537E-004  0.1111706E+03  0.7546771E-02  0.1258469E+00
          1   -1    0    0  501    0  0.00000000000E+00  0.00000000000E+00  0.10172587206E+04  0.10172587206E+04  0.00000000000E+00 0. -1.
         -1   -1    0    0    0  501 -0.00000000000E+00 -0.00000000000E+00 -0.16638017748E+02  0.16638017748E+02  0.00000000000E+00 0.  1.
         23    2    1    2    0    0 -0.63074257914E+02 -0.29508321197E+01  0.23161724907E+03  0.25691525497E+03  0.91497698045E+02 0.  0.
         23    2    1    2    0    0  0.63074257914E+02  0.29508321197E+01  0.76900345379E+03  0.77698148339E+03  0.91361064818E+02 0.  0.
          5    1    4    4  502    0  0.73255546183E+02  0.31782509082E+02  0.57108265322E+03  0.57665760183E+03  0.47000000000E+01 0. -1.
         -5    1    3    3    0  503 -0.72485053915E+02  0.16754495227E+02  0.10758113406E+03  0.13088386668E+03  0.47000000000E+01 0.  1.
          5    1    3    3  503    0  0.94107960011E+01 -0.19705327346E+02  0.12403611502E+03  0.12603138829E+03  0.47000000000E+01 0. -1.
         -5    1    4    4    0  502 -0.10181288269E+02 -0.28831676963E+02  0.19792080057E+03  0.20032388157E+03  0.47000000000E+01 0.  1.
<mgrwt>
<rscale>  0 0.11114246E+03</rscale>
<asrwt>0</asrwt>
<pdfrwt beam="1">  1        1 0.15650129E+00 0.11117058E+03</pdfrwt>
<pdfrwt beam="2">  1       -1 0.25596958E-02 0.11117058E+03</pdfrwt>
<totfact> 0.71109767E+03</totfact>
</mgrwt>
</event>
<event>
 8    1  0.5224537E-004  0.1157828E+03  0.7546771E-02  0.1250776E+00
         -1   -1    0    0    0  501 -0.00000000000E+00  0.00000000000E+00  0.16635232548E+03  0.16635232548E+03  0.00000000000E+00 0.  1.
          1   -1    0    0  501    0  0.00000000000E+00 -0.00000000000E+00 -0.13748245344E+03  0.13748245344E+03  0.00000000000E+00 0. -1.
         23    2    1    2    0    0  0.66375300833E+02  0.21597362151E+02  0.11287467658E+03  0.16078774056E+03  0.90773775334E+02 0.  0.
         23    2    1    2    0    0 -0.66375300833E+02 -0.21597362151E+02 -0.84004804543E+02  0.14304703837E+03  0.92377060931E+02 0.  0.
          5    1    3    3  502    0  0.59546098931E+01  0.43923295117E+02  0.23123976383E+02  0.50214753974E+02  0.47000000000E+01 0. -1.
         -5    1    3    3    0  502  0.60420690940E+02 -0.22325932966E+02  0.89750700194E+02  0.11057298658E+03  0.47000000000E+01 0.  1.
          5    1    4    4  503    0 -0.80025752672E+02 -0.42180488325E+02 -0.67593120310E+02  0.11302315957E+03  0.47000000000E+01 0. -1.
         -5    1    4    4    0  503  0.13650451839E+02  0.20583126174E+02 -0.16411684233E+02  0.30023878795E+02  0.47000000000E+01 0.  1.
<mgrwt>
<rscale>  0 0.11546266E+03</rscale>
<asrwt>0</asrwt>
<pdfrwt beam="1">  1        1 0.21151147E-01 0.11578276E+03</pdfrwt>
<pdfrwt beam="2">  1       -1 0.25592665E-01 0.11578276E+03</pdfrwt>
<totfact> 0.30436580E+03</totfact>
</mgrwt>
</event>
<event>
 8    1  0.5224537E-004  0.9648006E+02  0.7546771E-02  0.1288901E+00
          2   -1    0    0  501    0  0.00000000000E+00  0.00000000000E+00  0.94599337581E+02  0.94599337581E+02  0.00000000000E+00 0. -1.
         -2   -1    0    0    0  501 -0.00000000000E+00 -0.00000000000E+00 -0.10025549986E+03  0.10025549986E+03  0.00000000000E+00 0.  1.
         23    2    1    2    0    0  0.17647340786E+02 -0.24325249440E+02 -0.21627617751E+02  0.98874447661E+02  0.91680184083E+02 0.  0.
         23    2    1    2    0    0 -0.17647340786E+02  0.24325249440E+02  0.15971455475E+02  0.95980389779E+02  0.89744088579E+02 0.  0.
          5    1    4    4  502    0 -0.30201864278E+02 -0.21106278424E+02  0.28690261739E+02  0.46934515162E+02  0.47000000000E+01 0.  1.
         -5    1    3    3    0  503  0.30438194201E+01 -0.44789013607E+02 -0.45354430787E+02  0.63987772024E+02  0.47000000000E+01 0.  1.
          5    1    3    3  503    0  0.14603521366E+02  0.20463764167E+02  0.23726813036E+02  0.34886675637E+02  0.47000000000E+01 0. -1.
         -5    1    4    4    0  502  0.12554523492E+02  0.45431527864E+02 -0.12718806265E+02  0.49045874617E+02  0.47000000000E+01 0. -1.
<mgrwt>
<rscale>  0 0.96017281E+02</rscale>
<asrwt>0</asrwt>
<pdfrwt beam="1">  1        2 0.14553744E-01 0.96480063E+02</pdfrwt>
<pdfrwt beam="2">  1       -2 0.15423923E-01 0.96480063E+02</pdfrwt>
<totfact> 0.11967422E+04</totfact>
</mgrwt>
</event>
<event>
 8    1  0.5224537E-004  0.1083430E+03  0.7546771E-02  0.1268221E+00
          1   -1    0    0  501    0  0.00000000000E+00  0.00000000000E+00  0.22189267405E+02  0.22189267405E+02  0.00000000000E+00 0. -1.
         -1   -1    0    0    0  501 -0.00000000000E+00 -0.00000000000E+00 -0.50067865713E+03  0.50067865713E+03  0.00000000000E+00 0.  1.
         23    2    1    2    0    0  0.43665274643E+02  0.82185009336E+01 -0.27504889822E+03  0.29237662474E+03  0.88645328783E+02 0.  0.
         23    2    1    2    0    0 -0.43665274643E+02 -0.82185009336E+01 -0.20344049151E+03  0.23049129980E+03  0.98812983611E+02 0.  0.
          5    1    4    4  502    0 -0.16691438754E+00 -0.42418055184E+02 -0.13910098420E+03  0.14550083529E+03  0.47000000000E+01 0. -1.
         -5    1    4    4    0  502 -0.43498360256E+02  0.34199554251E+02 -0.64339507310E+02  0.84990464505E+02  0.47000000000E+01 0.  1.
          5    1    3    3  503    0  0.21192599241E+02  0.43361474683E+02 -0.86055508080E+02  0.98777447933E+02  0.47000000000E+01 0. -1.
         -5    1    3    3    0  503  0.22472675403E+02 -0.35142973750E+02 -0.18899339013E+03  0.19359917680E+03  0.47000000000E+01 0.  1.
<mgrwt>
<rscale>  0 0.10596976E+03</rscale>
<asrwt>0</asrwt>
<pdfrwt beam="1">  1        1 0.34137336E-02 0.10834300E+03</pdfrwt>
<pdfrwt beam="2">  1       -1 0.77027482E-01 0.10834300E+03</pdfrwt>
<totfact> 0.47107489E+03</totfact>
</mgrwt>
</event>
<event>
 8    1  0.7984119E-004  0.1042427E+03  0.7546771E-02  0.1271717E+00
          1   -1    0    0  501    0  0.00000000000E+00  0.00000000000E+00  0.21133542371E+03  0.21133542371E+03  0.00000000000E+00 0. -1.
         -1   -1    0    0    0  501 -0.00000000000E+00 -0.00000000000E+00 -0.12214173516E+03  0.12214173516E+03  0.00000000000E+00 0.  1.
         23    2    1    2    0    0  0.48110819109E+02  0.14012182918E+02  0.17157965672E+03  0.20076383758E+03  0.91408685014E+02 0.  0.
         23    2    1    2    0    0 -0.48110819109E+02 -0.14012182918E+02 -0.82385968171E+02  0.13271332128E+03  0.91183253449E+02 0.  0.
          5    1    4    4  502    0 -0.48015538548E+01  0.36564848091E+02 -0.26492194520E+02  0.45650513752E+02  0.47000000000E+01 0. -1.
         -5    1    4    4    0  502 -0.43309265254E+02 -0.50577031009E+02 -0.55893773651E+02  0.87062807533E+02  0.47000000000E+01 0.  1.
          5    1    3    3  503    0  0.69406770464E+02  0.15540329831E+02  0.82441464144E+02  0.10898388251E+03  0.47000000000E+01 0. -1.
         -5    1    3    3    0  503 -0.21295951356E+02 -0.15281469125E+01  0.89138192574E+02  0.91779955069E+02  0.47000000000E+01 0.  1.
<mgrwt>
<rscale>  0 0.10419326E+03</rscale>
<asrwt>0</asrwt>
<pdfrwt beam="1">  1        1 0.32513142E-01 0.10424270E+03</pdfrwt>
<pdfrwt beam="2">  1       -1 0.18791036E-01 0.10424270E+03</pdfrwt>
<totfact> 0.29167214E+03</totfact>
</mgrwt>
</event>
<event>
 8    1  0.5224537E-004  0.9365463E+02  0.7546771E-02  0.1294402E+00
         -1   -1    0    0    0  501 -0.00000000000E+00  0.00000000000E+00  0.27670710919E+02  0.27670710919E+02  0.00000000000E+00 0.  1.
          1   -1    0    0  501    0  0.00000000000E+00 -0.00000000000E+00 -0.35710161095E+03  0.35710161095E+03  0.00000000000E+00 0. -1.
         23    2    1    2    0    0 -0.10111283947E+02 -0.12747746467E+02 -0.99674113917E+02  0.13677031558E+03  0.92230402452E+02 0.  0.
         23    2    1    2    0    0  0.10111283947E+02  0.12747746467E+02 -0.22975678612E+03  0.24800200629E+03  0.91935147000E+02 0.  0.
          5    1    4    4  502    0  0.50131759534E+02  0.15457826898E+02 -0.11999345550E+03  0.13104448515E+03  0.47000000000E+01 0. -1.
         -5    1    3    3    0  503 -0.50394976244E+02 -0.12826461784E+02 -0.46680627974E+02  0.70038152322E+02  0.47000000000E+01 0.  1.
          5    1    3    3  503    0  0.40283692297E+02  0.78715317584E-01 -0.52993485943E+02  0.66732163261E+02  0.47000000000E+01 0. -1.
         -5    1    4    4    0  502 -0.40020475587E+02 -0.27100804311E+01 -0.10976333062E+03  0.11695752114E+03  0.47000000000E+01 0.  1.
<mgrwt>
<rscale>  0 0.93581860E+02</rscale>
<asrwt>0</asrwt>
<pdfrwt beam="1">  1        1 0.54938711E-01 0.93654633E+02</pdfrwt>
<pdfrwt beam="2">  1       -1 0.42570323E-02 0.93654633E+02</pdfrwt>
<totfact> 0.14310243E+04</totfact>
</mgrwt>
</event>
<event>
 8    1  0.5224537E-004  0.1079197E+03  0.7546771E-02  0.1265025E+00
          1   -1    0    0  501    0  0.00000000000E+00  0.00000000000E+00  0.77492753113E+02  0.77492753113E+02  0.00000000000E+00 0. -1.
         -1   -1    0    0    0  501 -0.00000000000E+00 -0.00000000000E+00 -0.24452606299E+03  0.24452606299E+03  0.00000000000E+00 0.  1.
         23    2    1    2    0    0  0.39041899800E+02 -0.43141760624E+02  0.17010082320E+02  0.10925197674E+03  0.90890979046E+02 0.  0.
         23    2    1    2    0    0 -0.39041899800E+02  0.43141760624E+02 -0.18404339220E+03  0.21276683936E+03  0.89511319229E+02 0.  0.
          5    1    3    3  502    0  0.62140556775E+02 -0.41736825237E+02  0.31715899622E+02  0.81433406327E+02  0.47000000000E+01 0. -1.
         -5    1    3    3    0  502 -0.23098656975E+02 -0.14049353871E+01 -0.14705817301E+02  0.27818570416E+02  0.47000000000E+01 0.  1.
          5    1    4    4  503    0  0.26992551105E+02  0.16018170304E+02 -0.83829286720E+02  0.89636035761E+02  0.47000000000E+01 0. -1.
         -5    1    4    4    0  503 -0.66034450905E+02  0.27123590320E+02 -0.10021410548E+03  0.12313080360E+03  0.47000000000E+01 0.  1.
<mgrwt>
<rscale>  0 0.10762864E+03</rscale>
<asrwt>0</asrwt>
<pdfrwt beam="1">  1        1 0.11921962E-01 0.10791965E+03</pdfrwt>
<pdfrwt beam="2">  1       -1 0.37619394E-01 0.10791965E+03</pdfrwt>
<totfact> 0.33105135E+03</totfact>
</mgrwt>
</event>
<event>
 8    1  0.5224537E-004  0.1121991E+03  0.7546771E-02  0.1257101E+00
         -1   -1    0    0    0  501 -0.00000000000E+00  0.00000000000E+00  0.38488360265E+02  0.38488360265E+02  0.00000000000E+00 0.  1.
          1   -1    0    0  501    0  0.00000000000E+00 -0.00000000000E+00 -0.35075811194E+03  0.35075811194E+03  0.00000000000E+00 0. -1.
         23    2    1    2    0    0  0.92498638171E+00  0.63067992446E+02 -0.21111842170E+03  0.23908079713E+03  0.92791229665E+02 0.  0.
         23    2    1    2    0    0 -0.92498638171E+00 -0.63067992446E+02 -0.10115132998E+03  0.15016567508E+03  0.91322018952E+02 0.  0.
          5    1    3    3  502    0 -0.38839915253E+02  0.57936137012E+02 -0.15412453255E+03  0.16923828326E+03  0.47000000000E+01 0. -1.
         -5    1    4    4    0  503  0.41882469865E+02 -0.12238878339E+02 -0.33426156651E+02  0.55166379014E+02  0.47000000000E+01 0.  1.
          5    1    4    4  503    0 -0.42807456247E+02 -0.50829114107E+02 -0.67725173328E+02  0.94999296069E+02  0.47000000000E+01 0. -1.
         -5    1    3    3    0  502  0.39764901634E+02  0.51318554340E+01 -0.56993889153E+02  0.69842513865E+02  0.47000000000E+01 0.  1.
<mgrwt>
<rscale>  0 0.11189487E+03</rscale>
<asrwt>0</asrwt>
<pdfrwt beam="1">  1        1 0.53962783E-01 0.11219911E+03</pdfrwt>
<pdfrwt beam="2">  1       -1 0.59212866E-02 0.11219911E+03</pdfrwt>
<totfact> 0.91522867E+03</totfact>
</mgrwt>
</event>
<event>
 8    1  0.5224537E-004  0.9789092E+02  0.7546771E-02  0.1288226E+00
         -2   -1    0    0    0  501 -0.00000000000E+00  0.00000000000E+00  0.74985907832E+02  0.74985907832E+02  0.00000000000E+00 0.  1.
          2   -1    0    0  501    0  0.00000000000E+00 -0.00000000000E+00 -0.14151135670E+03  0.14151135670E+03  0.00000000000E+00 0. -1.
         23    2    1    2    0    0  0.18894559723E+02 -0.23728958291E+02 -0.76437758168E+02  0.12419888344E+03  0.93072895765E+02 0.  0.
         23    2    1    2    0    0 -0.18894559723E+02  0.23728958291E+02  0.99123092969E+01  0.92298381093E+02  0.86606405237E+02 0.  0.
          5    1    4    4  502    0  0.19199472670E+02 -0.23204502864E+02  0.85280814208E+01  0.31652596682E+02  0.47000000000E+01 0. -1.
         -5    1    3    3    0  503  0.18465797405E+02  0.11161247633E+02  0.14678978372E+02  0.26516438837E+02  0.47000000000E+01 0.  1.
          5    1    3    3  503    0  0.42876231803E+00 -0.34890205925E+02 -0.91116736541E+02  0.97682444607E+02  0.47000000000E+01 0. -1.
         -5    1    4    4    0  502 -0.38094032393E+02  0.46933461156E+02  0.13842278761E+01  0.60645784411E+02  0.47000000000E+01 0.  1.
<mgrwt>
<rscale>  0 0.96322016E+02</rscale>
<asrwt>0</asrwt>
<pdfrwt beam="1">  1        2 0.21770978E-01 0.97890918E+02</pdfrwt>
<pdfrwt beam="2">  1       -2 0.11536294E-01 0.97890918E+02</pdfrwt>
<totfact> 0.12076395E+04</totfact>
</mgrwt>
</event>
<event>
 8    1  0.5224537E-004  0.1165921E+03  0.7546771E-02  0.1249324E+00
         -1   -1    0    0    0  501 -0.00000000000E+00  0.00000000000E+00  0.13214587661E+02  0.13214587661E+02  0.00000000000E+00 0.  1.
          1   -1    0    0  501    0  0.00000000000E+00 -0.00000000000E+00 -0.10191095979E+04  0.10191095979E+04  0.00000000000E+00 0. -1.
         23    2    1    2    0    0  0.70174425058E+02  0.44013580041E+01 -0.51266732832E+03  0.52550345117E+03  0.91554714667E+02 0.  0.
         23    2    1    2    0    0 -0.70174425058E+02 -0.44013580041E+01 -0.49322768188E+03  0.50682073436E+03  0.93004777906E+02 0.  0.
          5    1    3    3  502    0  0.32651535358E+02  0.41374612612E+02 -0.36148240387E+03  0.36533491434E+03  0.47000000000E+01 0. -1.
         -5    1    3    3    0  502  0.37522889700E+02 -0.36973254608E+02 -0.15118492445E+03  0.16016853683E+03  0.47000000000E+01 0.  1.
          5    1    4    4  503    0  0.91089691762E+01  0.20310018454E+02 -0.22103415649E+03  0.22220184181E+03  0.47000000000E+01 0.  1.
         -5    1    4    4    0  503 -0.79283394235E+02 -0.24711376458E+02 -0.27219352539E+03  0.28461889255E+03  0.47000000000E+01 0. -1.
<mgrwt>
<rscale>  0 0.11630264E+03</rscale>
<asrwt>0</asrwt>
<pdfrwt beam="1">  1        1 0.15678607E+00 0.11659207E+03</pdfrwt>
<pdfrwt beam="2">  1       -1 0.20330138E-02 0.11659207E+03</pdfrwt>
<totfact> 0.99043101E+03</totfact>
</mgrwt>
</event>
<event>
 8    1  0.5224537E-004  0.2383518E+03  0.7546771E-02  0.1121007E+00
         -1   -1    0    0    0  501 -0.00000000000E+00  0.00000000000E+00  0.71492012011E+03  0.71492012011E+03  0.00000000000E+00 0.  1.
          1   -1    0    0  501    0  0.00000000000E+00 -0.00000000000E+00 -0.96875851607E+02  0.96875851607E+02  0.00000000000E+00 0. -1.
         23    2    1    2    0    0  0.20194036730E+03 -0.85699872116E+02  0.48183176463E+03  0.53726835992E+03  0.91493503282E+02 0.  0.
         23    2    1    2    0    0 -0.20194036730E+03  0.85699872116E+02  0.13621250388E+03  0.27452761180E+03  0.93205061027E+02 0.  0.
          5    1    3    3  502    0  0.59312819222E+02 -0.64221300317E+02  0.12737661821E+03  0.15456156963E+03  0.47000000000E+01 0. -1.
         -5    1    4    4    0  503 -0.12699704816E+02 -0.16129699975E+02  0.20855177020E+01  0.21163390744E+02  0.47000000000E+01 0.  1.
          5    1    4    4  503    0 -0.18924066248E+03  0.10182957209E+03  0.13412698617E+03  0.25336422105E+03  0.47000000000E+01 0. -1.
         -5    1    3    3    0  502  0.14262754808E+03 -0.21478571799E+02  0.35445514641E+03  0.38270679029E+03  0.47000000000E+01 0.  1.
<mgrwt>
<rscale>  0 0.23818557E+03</rscale>
<asrwt>0</asrwt>
<pdfrwt beam="1">  1        1 0.14903978E-01 0.23835176E+03</pdfrwt>
<pdfrwt beam="2">  1       -1 0.10998771E+00 0.23835176E+03</pdfrwt>
<totfact> 0.30627035E+02</totfact>
</mgrwt>
</event>
<event>
 8    1  0.5224537E-004  0.1141484E+03  0.7546771E-02  0.1253131E+00
         -1   -1    0    0    0  501 -0.00000000000E+00  0.00000000000E+00  0.60049015902E+02  0.60049015902E+02  0.00000000000E+00 0.  1.
          1   -1    0    0  501    0  0.00000000000E+00 -0.00000000000E+00 -0.27611774893E+03  0.27611774893E+03  0.00000000000E+00 0. -1.
         23    2    1    2    0    0  0.59215950322E+02 -0.35937088641E+02 -0.30140970687E+02  0.11806071932E+03  0.90729555383E+02 0.  0.
         23    2    1    2    0    0 -0.59215950322E+02  0.35937088641E+02 -0.18592776234E+03  0.21810604551E+03  0.90571028299E+02 0.  0.
          5    1    4    4  502    0 -0.17851171290E+02 -0.13929160568E+02 -0.13103235472E+03  0.13305733281E+03  0.47000000000E+01 0. -1.
         -5    1    3    3    0  503  0.55220954077E+02  0.86049568223E+01 -0.43693381714E+02  0.71095714756E+02  0.47000000000E+01 0.  1.
          5    1    3    3  503    0  0.39949962452E+01 -0.44542045464E+02  0.13552411027E+02  0.46965004565E+02  0.47000000000E+01 0. -1.
         -5    1    4    4    0  502 -0.41364779032E+02  0.49866249209E+02 -0.54895407620E+02  0.85048712702E+02  0.47000000000E+01 0.  1.
<mgrwt>
<rscale>  0 0.11411689E+03</rscale>
<asrwt>0</asrwt>
<pdfrwt beam="1">  1        1 0.42479654E-01 0.11414839E+03</pdfrwt>
<pdfrwt beam="2">  1       -1 0.92383101E-02 0.11414839E+03</pdfrwt>
<totfact> 0.63259466E+03</totfact>
</mgrwt>
</event>
<event>
 8    1  0.5224537E-004  0.1029574E+03  0.7546771E-02  0.1275632E+00
         -2   -1    0    0    0  501 -0.00000000000E+00  0.00000000000E+00  0.44149852591E+02  0.44149852591E+02  0.00000000000E+00 0.  1.
          2   -1    0    0  501    0  0.00000000000E+00 -0.00000000000E+00 -0.23362495271E+03  0.23362495271E+03  0.00000000000E+00 0. -1.
         23    2    1    2    0    0 -0.26634612065E+01 -0.38927020313E+02 -0.96505542982E+02  0.14111537723E+03  0.95277609796E+02 0.  0.
         23    2    1    2    0    0  0.26634612065E+01  0.38927020313E+02 -0.92969557133E+02  0.13665942807E+03  0.92249952793E+02 0.  0.
          5    1    3    3  502    0  0.44462898551E+02 -0.95151829315E+01 -0.55542776942E+02  0.71934540550E+02  0.47000000000E+01 0. -1.
         -5    1    3    3    0  502 -0.47126359757E+02 -0.29411837381E+02 -0.40962766041E+02  0.69180836681E+02  0.47000000000E+01 0.  1.
          5    1    4    4  503    0  0.44293123929E+01  0.68960726424E+02 -0.70375600601E+02  0.98742168080E+02  0.47000000000E+01 0. -1.
         -5    1    4    4    0  503 -0.17658511864E+01 -0.30033706111E+02 -0.22593956531E+02  0.37917259987E+02  0.47000000000E+01 0.  1.
<mgrwt>
<rscale>  0 0.10225138E+03</rscale>
<asrwt>0</asrwt>
<pdfrwt beam="1">  1        2 0.35942301E-01 0.10295742E+03</pdfrwt>
<pdfrwt beam="2">  1       -2 0.67922849E-02 0.10295742E+03</pdfrwt>
<totfact> 0.15996850E+04</totfact>
</mgrwt>
</event>
<event>
 8    1  0.5224537E-004  0.1007995E+03  0.7546771E-02  0.1279571E+00
          1   -1    0    0  501    0  0.00000000000E+00  0.00000000000E+00  0.10504438441E+03  0.10504438441E+03  0.00000000000E+00 0. -1.
         -1   -1    0    0    0  501 -0.00000000000E+00 -0.00000000000E+00 -0.11013881701E+03  0.11013881701E+03  0.00000000000E+00 0.  1.
         23    2    1    2    0    0  0.56058910735E+01 -0.37118322409E+02 -0.42410248129E+02  0.10769824823E+03  0.91602880156E+02 0.  0.
         23    2    1    2    0    0 -0.56058910735E+01  0.37118322409E+02  0.37315815532E+02  0.10748495319E+03  0.93548646168E+02 0.  0.
          5    1    4    4  502    0 -0.35922517677E+02 -0.15851290478E+02  0.13127039235E+02  0.41666531475E+02  0.47000000000E+01 0. -1.
         -5    1    3    3    0  503  0.38352212591E+02 -0.49092526965E+02 -0.35458708915E+02  0.71835774182E+02  0.47000000000E+01 0.  1.
          5    1    3    3  503    0 -0.32746321517E+02  0.11974204555E+02 -0.69515392142E+01  0.35862474051E+02  0.47000000000E+01 0. -1.
         -5    1    4    4    0  502  0.30316626603E+02  0.52969612888E+02  0.24188776298E+02  0.65818421714E+02  0.47000000000E+01 0.  1.
<mgrwt>
<rscale>  0 0.10034569E+03</rscale>
<asrwt>0</asrwt>
<pdfrwt beam="1">  1        1 0.16160674E-01 0.10079953E+03</pdfrwt>
<pdfrwt beam="2">  1       -1 0.16944433E-01 0.10079953E+03</pdfrwt>
<totfact> 0.82150247E+03</totfact>
</mgrwt>
</event>
<event>
 8    1  0.5224537E-004  0.9790575E+02  0.7546771E-02  0.1285863E+00
         -1   -1    0    0    0  501 -0.00000000000E+00  0.00000000000E+00  0.30541643872E+03  0.30541643872E+03  0.00000000000E+00 0.  1.
          1   -1    0    0  501    0  0.00000000000E+00 -0.00000000000E+00 -0.55338402568E+02  0.55338402568E+02  0.00000000000E+00 0. -1.
         23    2    1    2    0    0  0.14884688601E+02  0.34556783031E+02  0.24600874396E+03  0.26477507104E+03  0.90387006432E+02 0.  0.
         23    2    1    2    0    0 -0.14884688601E+02 -0.34556783031E+02  0.40692921968E+01  0.95979770253E+02  0.88203355665E+02 0.  0.
          5    1    4    4  502    0 -0.47619891296E+02 -0.38649254585E+02 -0.41755720452E+01  0.61651799073E+02  0.47000000000E+01 0. -1.
         -5    1    4    4    0  502  0.32735202696E+02  0.40924715537E+01  0.82448642419E+01  0.34327971180E+02  0.47000000000E+01 0.  1.
          5    1    3    3  503    0 -0.21299092587E+02 -0.32768202330E+01  0.12352261603E+02  0.25279581930E+02  0.47000000000E+01 0. -1.
         -5    1    3    3    0  503  0.36183781187E+02  0.37833603264E+02  0.23365648236E+03  0.23949548911E+03  0.47000000000E+01 0.  1.
<mgrwt>
<rscale>  0 0.97398756E+02</rscale>
<asrwt>0</asrwt>
<pdfrwt beam="1">  1        1 0.85136006E-02 0.97905751E+02</pdfrwt>
<pdfrwt beam="2">  1       -1 0.46987143E-01 0.97905751E+02</pdfrwt>
<totfact> 0.34661898E+03</totfact>
</mgrwt>
</event>
<event>
 8    1  0.5224537E-004  0.1676587E+03  0.7546771E-02  0.1180358E+00
          1   -1    0    0  501    0  0.00000000000E+00  0.00000000000E+00  0.62644992275E+02  0.62644992275E+02  0.00000000000E+00 0. -1.
         -1   -1    0    0    0  501 -0.00000000000E+00 -0.00000000000E+00 -0.70614742404E+03  0.70614742404E+03  0.00000000000E+00 0.  1.
         23    2    1    2    0    0  0.13421771739E+03  0.42106910474E+02 -0.55416167062E+03  0.57896854925E+03  0.91225195345E+02 0.  0.
         23    2    1    2    0    0 -0.13421771739E+03 -0.42106910474E+02 -0.89340761139E+02  0.18982386706E+03  0.90906222749E+02 0.  0.
          5    1    3    3  502    0  0.85275375148E+02  0.70397173294E+02 -0.35101152649E+03  0.36804732487E+03  0.47000000000E+01 0. -1.
         -5    1    3    3    0  502  0.48942342238E+02 -0.28290262820E+02 -0.20315014413E+03  0.21092122438E+03  0.47000000000E+01 0.  1.
          5    1    4    4  503    0 -0.42306963598E+02  0.14480564816E+02  0.64667252041E+01  0.45425482508E+02  0.47000000000E+01 0. -1.
         -5    1    4    4    0  503 -0.91910753788E+02 -0.56587475289E+02 -0.95807486343E+02  0.14439838455E+03  0.47000000000E+01 0.  1.
<mgrwt>
<rscale>  0 0.16761530E+03</rscale>
<asrwt>0</asrwt>
<pdfrwt beam="1">  1        1 0.96376903E-02 0.16765865E+03</pdfrwt>
<pdfrwt beam="2">  1       -1 0.10863807E+00 0.16765865E+03</pdfrwt>
<totfact> 0.56195083E+02</totfact>
</mgrwt>
</event>
<event>
 8    1  0.5224537E-004  0.9512311E+02  0.7546771E-02  0.1292276E+00
          3   -1    0    0  501    0  0.00000000000E+00  0.00000000000E+00  0.91080494859E+01  0.91080494859E+01  0.00000000000E+00 0. -1.
         -3   -1    0    0    0  501 -0.00000000000E+00 -0.00000000000E+00 -0.96841301563E+03  0.96841301563E+03  0.00000000000E+00 0.  1.
         23    2    1    2    0    0  0.15268940335E+02 -0.12303087976E+02 -0.47049737359E+03  0.47954388873E+03  0.90609360165E+02 0.  0.
         23    2    1    2    0    0 -0.15268940335E+02  0.12303087976E+02 -0.48880759256E+03  0.49797717639E+03  0.93080068496E+02 0.  0.
          5    1    4    4  502    0  0.37611181660E+02  0.54213273809E+01 -0.27078033539E+03  0.27347407886E+03  0.47000000000E+01 0. -1.
         -5    1    3    3    0  503  0.12326554276E+02 -0.48447246694E+02 -0.35110644932E+03  0.35467859874E+03  0.47000000000E+01 0.  1.
          5    1    3    3  503    0  0.29423860583E+01  0.36144158718E+02 -0.11939092427E+03  0.12486528999E+03  0.47000000000E+01 0. -1.
         -5    1    4    4    0  502 -0.52880121995E+02  0.68817605950E+01 -0.21802725717E+03  0.22450309753E+03  0.47000000000E+01 0.  1.
<mgrwt>
<rscale>  0 0.94513206E+02</rscale>
<asrwt>0</asrwt>
<pdfrwt beam="1">  1        3 0.14012381E-02 0.95123108E+02</pdfrwt>
<pdfrwt beam="2">  1       -3 0.14898664E+00 0.95123108E+02</pdfrwt>
<totfact> 0.12415609E+03</totfact>
</mgrwt>
</event>
<event>
 8    1  0.5224537E-004  0.1031993E+03  0.7546771E-02  0.1274410E+00
         -2   -1    0    0    0  501 -0.00000000000E+00  0.00000000000E+00  0.25948850197E+02  0.25948850197E+02  0.00000000000E+00 0.  1.
          2   -1    0    0  501    0  0.00000000000E+00 -0.00000000000E+00 -0.43879248849E+03  0.43879248849E+03  0.00000000000E+00 0. -1.
         23    2    1    2    0    0  0.16936531346E+02  0.43496507412E+02 -0.27223568596E+03  0.29113978345E+03  0.92039733508E+02 0.  0.
         23    2    1    2    0    0 -0.16936531346E+02 -0.43496507412E+02 -0.14060795233E+03  0.17360155524E+03  0.90488184153E+02 0.  0.
          5    1    4    4  502    0  0.16627488245E+02  0.21442957052E+02 -0.50053155272E+02  0.57128645399E+02  0.47000000000E+01 0. -1.
         -5    1    4    4    0  502 -0.33564019591E+02 -0.64939464464E+02 -0.90554797059E+02  0.11647290984E+03  0.47000000000E+01 0.  1.
          5    1    3    3  503    0 -0.41858945856E+01  0.67026734992E+02 -0.21827223128E+03  0.22841839214E+03  0.47000000000E+01 0. -1.
         -5    1    3    3    0  503  0.21122425932E+02 -0.23530227580E+02 -0.53963454679E+02  0.62721391312E+02  0.47000000000E+01 0.  1.
<mgrwt>
<rscale>  0 0.10285226E+03</rscale>
<asrwt>0</asrwt>
<pdfrwt beam="1">  1        2 0.67506541E-01 0.10319934E+03</pdfrwt>
<pdfrwt beam="2">  1       -2 0.39921305E-02 0.10319934E+03</pdfrwt>
<totfact> 0.18219913E+04</totfact>
</mgrwt>
</event>
<event>
 8    1  0.5224537E-004  0.1171216E+03  0.7546771E-02  0.1248045E+00
          1   -1    0    0  501    0  0.00000000000E+00  0.00000000000E+00  0.44573637025E+03  0.44573637025E+03  0.00000000000E+00 0. -1.
         -1   -1    0    0    0  501 -0.00000000000E+00 -0.00000000000E+00 -0.33435253825E+02  0.33435253825E+02  0.00000000000E+00 0.  1.
         23    2    1    2    0    0  0.72959031926E+02 -0.10390369143E+02  0.13785104941E+03  0.18088772987E+03  0.91030098777E+02 0.  0.
         23    2    1    2    0    0 -0.72959031926E+02  0.10390369143E+02  0.27445006701E+03  0.29828389421E+03  0.90661249427E+02 0.  0.
          5    1    4    4  502    0 -0.16290144680E+02  0.26492214148E+02  0.20362607537E+03  0.20604095417E+03  0.47000000000E+01 0. -1.
         -5    1    4    4    0  502 -0.56668887246E+02 -0.16101845005E+02  0.70823991646E+02  0.92242940038E+02  0.47000000000E+01 0.  1.
          5    1    3    3  503    0  0.68697698035E+02  0.26340078997E+02  0.11668215229E+03  0.13802169445E+03  0.47000000000E+01 0. -1.
         -5    1    3    3    0  503  0.42613338909E+01 -0.36730448140E+02  0.21168897125E+02  0.42866035419E+02  0.47000000000E+01 0.  1.
<mgrwt>
<rscale>  0 0.11704988E+03</rscale>
<asrwt>0</asrwt>
<pdfrwt beam="1">  1        1 0.68574822E-01 0.11712156E+03</pdfrwt>
<pdfrwt beam="2">  1       -1 0.51438855E-02 0.11712156E+03</pdfrwt>
<totfact> 0.83718218E+03</totfact>
</mgrwt>
</event>
<event>
 7    1  0.5224537E-004  0.1527452E+03  0.7546771E-02  0.1211856E+00
         -1   -1    0    0    0  501 -0.00000000000E+00  0.00000000000E+00  0.16109021670E+03  0.16109021670E+03  0.00000000000E+00 0.  1.
          1   -1    0    0  501    0  0.00000000000E+00 -0.00000000000E+00 -0.16473084903E+03  0.16473084903E+03  0.00000000000E+00 0. -1.
         23    2    1    2    0    0 -0.18426673504E+02 -0.41879933314E+02  0.93073590278E+02  0.14503184878E+03  0.10138083074E+03 0.  0.
          5    1    1    2  502    0  0.30086437233E+02  0.72321887803E+02 -0.11790097995E+03  0.14162761113E+03  0.47000000000E+01 0. -1.
         -5    1    1    2    0  502 -0.11659763729E+02 -0.30441954489E+02  0.21186757354E+02  0.39161605821E+02  0.47000000000E+01 0.  1.
          5    1    3    3  503    0  0.27981822787E+02 -0.32653888369E+02  0.86914723198E+02  0.97085106688E+02  0.47000000000E+01 0. -1.
         -5    1    3    3    0  503 -0.46408496291E+02 -0.92260449449E+01  0.61588670799E+01  0.47946742090E+02  0.47000000000E+01 0.  1.
<mgrwt>
<rscale>  0 0.14110055E+03</rscale>
<asrwt>0</asrwt>
<pdfrwt beam="1">  1        1 0.25343207E-01 0.15274521E+03</pdfrwt>
<pdfrwt beam="2">  1       -1 0.24783110E-01 0.15274521E+03</pdfrwt>
<totfact> 0.25890537E+03</totfact>
</mgrwt>
</event>
<event>
 8    1  0.5224537E-004  0.1107911E+03  0.7546771E-02  0.1266819E+00
          1   -1    0    0  501    0  0.00000000000E+00  0.00000000000E+00  0.20837657406E+03  0.20837657406E+03  0.00000000000E+00 0. -1.
         -1   -1    0    0    0  501 -0.00000000000E+00 -0.00000000000E+00 -0.51640599574E+02  0.51640599574E+02  0.00000000000E+00 0.  1.
         23    2    1    2    0    0 -0.87375613573E+01  0.34212049321E+02  0.87534200581E+02  0.12938962079E+03  0.88502137824E+02 0.  0.
         23    2    1    2    0    0  0.87375613573E+01 -0.34212049321E+02  0.69201773906E+02  0.13062755285E+03  0.10501363127E+03 0.  0.
          5    1    3    3  502    0  0.21394844453E+02  0.54323622713E+02  0.57751602815E+02  0.82256507229E+02  0.47000000000E+01 0. -1.
         -5    1    3    3    0  502 -0.30132405810E+02 -0.20111573392E+02  0.29782597765E+02  0.47133113560E+02  0.47000000000E+01 0.  1.
          5    1    4    4  503    0 -0.30629242130E+02 -0.42544728098E+02  0.72934966724E+02  0.89943336237E+02  0.47000000000E+01 0. -1.
         -5    1    4    4    0  503  0.39366803487E+02  0.83326787775E+01 -0.37331928179E+01  0.40684216608E+02  0.47000000000E+01 0.  1.
<mgrwt>
<rscale>  0 0.10669304E+03</rscale>
<asrwt>0</asrwt>
<pdfrwt beam="1">  1        1 0.32057934E-01 0.11079112E+03</pdfrwt>
<pdfrwt beam="2">  1       -1 0.79447077E-02 0.11079112E+03</pdfrwt>
<totfact> 0.11199293E+04</totfact>
</mgrwt>
</event>
<event>
 8    1  0.5224537E-004  0.1084676E+03  0.7546771E-02  0.1264119E+00
          2   -1    0    0  501    0  0.00000000000E+00  0.00000000000E+00  0.64611327823E+03  0.64611327823E+03  0.00000000000E+00 0. -1.
         -2   -1    0    0    0  501 -0.00000000000E+00 -0.00000000000E+00 -0.19801987686E+02  0.19801987686E+02  0.00000000000E+00 0.  1.
         23    2    1    2    0    0 -0.45065343172E+02 -0.39583260997E+02  0.21372921620E+03  0.23967769877E+03  0.90374231526E+02 0.  0.
         23    2    1    2    0    0  0.45065343172E+02  0.39583260997E+02  0.41258207435E+03  0.42623756715E+03  0.88638455925E+02 0.  0.
          5    1    4    4  502    0  0.41457845357E+02  0.65274571911E+02  0.25648181421E+03  0.26792635873E+03  0.47000000000E+01 0. -1.
         -5    1    3    3    0  503 -0.43685570908E+02  0.84686107462E+01  0.42305233114E+02  0.61578967370E+02  0.47000000000E+01 0.  1.
          5    1    3    3  503    0 -0.13797722646E+01 -0.48051871743E+02  0.17142398308E+03  0.17809873140E+03  0.47000000000E+01 0. -1.
         -5    1    4    4    0  502  0.36074978151E+01 -0.25691310914E+02  0.15610026014E+03  0.15831120842E+03  0.47000000000E+01 0.  1.
<mgrwt>
<rscale>  0 0.10810531E+03</rscale>
<asrwt>0</asrwt>
<pdfrwt beam="1">  1        2 0.99402027E-01 0.10846761E+03</pdfrwt>
<pdfrwt beam="2">  1       -2 0.30464601E-02 0.10846761E+03</pdfrwt>
<totfact> 0.17772079E+04</totfact>
</mgrwt>
</event>
<event>
 8    1  0.5224537E-004  0.9951899E+02  0.7546771E-02  0.1284741E+00
         -2   -1    0    0    0  501 -0.00000000000E+00  0.00000000000E+00  0.21096343243E+02  0.21096343243E+02  0.00000000000E+00 0.  1.
          2   -1    0    0  501    0  0.00000000000E+00 -0.00000000000E+00 -0.75460015724E+03  0.75460015724E+03  0.00000000000E+00 0. -1.
         23    2    1    2    0    0 -0.97173457443E+01  0.35489094366E+02 -0.10961107706E+03  0.14391633532E+03  0.85693761319E+02 0.  0.
         23    2    1    2    0    0  0.97173457443E+01 -0.35489094366E+02 -0.62389273693E+03  0.63178016516E+03  0.92466898243E+02 0.  0.
          5    1    3    3  502    0  0.33628806992E+02 -0.43052085925E+01 -0.40653396702E+02  0.53143392290E+02  0.47000000000E+01 0. -1.
         -5    1    4    4    0  503 -0.32250685900E+02  0.80496850655E+00 -0.10593933610E+03  0.11084217450E+03  0.47000000000E+01 0.  1.
          5    1    4    4  503    0  0.41968031644E+02 -0.36294062872E+02 -0.51795340084E+03  0.52093799066E+03  0.47000000000E+01 0. -1.
         -5    1    3    3    0  502 -0.43346152736E+02  0.39794302958E+02 -0.68957680361E+02  0.90772943027E+02  0.47000000000E+01 0.  1.
<mgrwt>
<rscale>  0 0.97915778E+02</rscale>
<asrwt>0</asrwt>
<pdfrwt beam="1">  1        2 0.11609232E+00 0.99518993E+02</pdfrwt>
<pdfrwt beam="2">  1       -2 0.32455917E-02 0.99518993E+02</pdfrwt>
<totfact> 0.13407656E+04</totfact>
</mgrwt>
</event>
<event>
 8    1  0.5224537E-004  0.1014528E+03  0.7546771E-02  0.1278075E+00
          2   -1    0    0  501    0  0.00000000000E+00  0.00000000000E+00  0.66692205798E+03  0.66692205798E+03  0.00000000000E+00 0. -1.
         -2   -1    0    0    0  501 -0.00000000000E+00 -0.00000000000E+00 -0.15707043548E+02  0.15707043548E+02  0.00000000000E+00 0.  1.
         23    2    1    2    0    0 -0.43397421169E+02 -0.73758529492E+01  0.38460121894E+03  0.39736503082E+03  0.89683503156E+02 0.  0.
         23    2    1    2    0    0  0.43397421169E+02  0.73758529492E+01  0.26661379549E+03  0.28526407070E+03  0.91405332003E+02 0.  0.
          5    1    3    3  502    0 -0.75644009760E+01 -0.44998660942E+02  0.21853203082E+03  0.22329450988E+03  0.47000000000E+01 0. -1.
         -5    1    4    4    0  503  0.29647416075E+02  0.46921819321E+02  0.18792232455E+03  0.19600386852E+03  0.47000000000E+01 0.  1.
          5    1    4    4  503    0  0.13750005093E+02 -0.39545966371E+02  0.78691470936E+02  0.89260202187E+02  0.47000000000E+01 0. -1.
         -5    1    3    3    0  502 -0.35833020193E+02  0.37622807993E+02  0.16606918812E+03  0.17407052094E+03  0.47000000000E+01 0.  1.
<mgrwt>
<rscale>  0 0.10106345E+03</rscale>
<asrwt>0</asrwt>
<pdfrwt beam="1">  1        2 0.10260337E+00 0.10145282E+03</pdfrwt>
<pdfrwt beam="2">  1       -2 0.24164688E-02 0.10145282E+03</pdfrwt>
<totfact> 0.23856454E+04</totfact>
</mgrwt>
</event>
<event>
 8    1  0.5224537E-004  0.9287873E+02  0.7546771E-02  0.1298367E+00
         -2   -1    0    0    0  501 -0.00000000000E+00  0.00000000000E+00  0.44189148247E+03  0.44189148247E+03  0.00000000000E+00 0.  1.
          2   -1    0    0  501    0  0.00000000000E+00 -0.00000000000E+00 -0.29756416197E+02  0.29756416197E+02  0.00000000000E+00 0. -1.
         23    2    1    2    0    0 -0.13985531544E+02 -0.14049312195E+02  0.65161873121E+02  0.11345716418E+03  0.90738526162E+02 0.  0.
         23    2    1    2    0    0  0.13985531544E+02  0.14049312195E+02  0.34697319316E+03  0.35819073449E+03  0.86701944842E+02 0.  0.
          5    1    4    4  502    0  0.50048168629E+02  0.14592780443E+02  0.21705968510E+03  0.22328180696E+03  0.47000000000E+01 0. -1.
         -5    1    3    3    0  503 -0.23780185999E+02  0.31555546316E+02  0.99302202860E+01  0.41011571835E+02  0.47000000000E+01 0.  1.
          5    1    3    3  503    0  0.97946544553E+01 -0.45604858510E+02  0.55231652835E+02  0.72445592347E+02  0.47000000000E+01 0. -1.
         -5    1    4    4    0  502 -0.36062637085E+02 -0.54346824831E+00  0.12991350805E+03  0.13490892753E+03  0.47000000000E+01 0.  1.
<mgrwt>
<rscale>  0 0.91877818E+02</rscale>
<asrwt>0</asrwt>
<pdfrwt beam="1">  1        2 0.45779105E-02 0.92878730E+02</pdfrwt>
<pdfrwt beam="2">  1       -2 0.67983300E-01 0.92878730E+02</pdfrwt>
<totfact> 0.33245001E+03</totfact>
</mgrwt>
</event>
<event>
 8    1  0.5224537E-004  0.1060727E+03  0.7546771E-02  0.1268610E+00
         -3   -1    0    0    0  501 -0.00000000000E+00  0.00000000000E+00  0.15490375966E+03  0.15490375966E+03  0.00000000000E+00 0.  1.
          3   -1    0    0  501    0  0.00000000000E+00 -0.00000000000E+00 -0.75694816116E+02  0.75694816116E+02  0.00000000000E+00 0. -1.
         23    2    1    2    0    0  0.47978003670E+02  0.23354646652E+02  0.65506008761E+02  0.12364440236E+03  0.90274983776E+02 0.  0.
         23    2    1    2    0    0 -0.47978003670E+02 -0.23354646652E+02  0.13702934783E+02  0.10695417341E+03  0.91673859045E+02 0.  0.
          5    1    4    4  502    0 -0.36618517483E+02  0.32311030030E+02  0.68285437304E+01  0.49534205290E+02  0.47000000000E+01 0. -1.
         -5    1    4    4    0  502 -0.11359486187E+02 -0.55665676681E+02  0.68743910523E+01  0.57419968122E+02  0.47000000000E+01 0.  1.
          5    1    3    3  503    0  0.26641734045E+02  0.55411294097E+02  0.22283162459E+02  0.65565408834E+02  0.47000000000E+01 0. -1.
         -5    1    3    3    0  503  0.21336269625E+02 -0.32056647445E+02  0.43222846301E+02  0.58078993529E+02  0.47000000000E+01 0.  1.
<mgrwt>
<rscale>  0 0.10576978E+03</rscale>
<asrwt>0</asrwt>
<pdfrwt beam="1">  1        3 0.11645356E-01 0.10607273E+03</pdfrwt>
<pdfrwt beam="2">  1       -3 0.23831347E-01 0.10607273E+03</pdfrwt>
<totfact> 0.20514511E+03</totfact>
</mgrwt>
</event>
<event>
 8    1  0.5224537E-004  0.1772899E+03  0.7546771E-02  0.1170639E+00
          1   -1    0    0  501    0  0.00000000000E+00  0.00000000000E+00  0.19065853860E+02  0.19065853860E+02  0.00000000000E+00 0. -1.
         -1   -1    0    0    0  501 -0.00000000000E+00 -0.00000000000E+00 -0.17302141551E+04  0.17302141551E+04  0.00000000000E+00 0.  1.
         23    2    1    2    0    0  0.63415425072E+02 -0.13917756096E+03 -0.65583957621E+03  0.67918272366E+03  0.88157318403E+02 0.  0.
         23    2    1    2    0    0 -0.63415425072E+02  0.13917756096E+03 -0.10553087250E+04  0.10700972853E+04  0.89664849655E+02 0.  0.
          5    1    3    3  502    0 -0.22158072561E+02 -0.33312090197E+02 -0.15595195971E+03  0.16107072754E+03  0.47000000000E+01 0. -1.
         -5    1    3    3    0  502  0.85573497633E+02 -0.10586547076E+03 -0.49988761650E+03  0.51811199612E+03  0.47000000000E+01 0.  1.
          5    1    4    4  503    0 -0.30210637080E+02  0.38148597493E+02 -0.13363855383E+03  0.14230021487E+03  0.47000000000E+01 0. -1.
         -5    1    4    4    0  503 -0.33204787992E+02  0.10102896346E+03 -0.92167017120E+03  0.92779707042E+03  0.47000000000E+01 0.  1.
<mgrwt>
<rscale>  0 0.17710014E+03</rscale>
<asrwt>0</asrwt>
<pdfrwt beam="1">  1        1 0.29332074E-02 0.17728986E+03</pdfrwt>
<pdfrwt beam="2">  1       -1 0.26618688E+00 0.17728986E+03</pdfrwt>
<totfact> 0.22204365E+02</totfact>
</mgrwt>
</event>
<event>
 8    1  0.5224537E-004  0.1043452E+03  0.7546771E-02  0.1275234E+00
         -1   -1    0    0    0  501 -0.00000000000E+00  0.00000000000E+00  0.80719026437E+03  0.80719026437E+03  0.00000000000E+00 0.  1.
          1   -1    0    0  501    0  0.00000000000E+00 -0.00000000000E+00 -0.14180100832E+02  0.14180100832E+02  0.00000000000E+00 0. -1.
         23    2    1    2    0    0 -0.22870321491E+02 -0.31040608437E+02  0.52277522503E+03  0.53168977334E+03  0.88957901219E+02 0.  0.
         23    2    1    2    0    0  0.22870321491E+02  0.31040608437E+02  0.27023493851E+03  0.28968059187E+03  0.96960571034E+02 0.  0.
          5    1    3    3  502    0 -0.40024720617E+01  0.29549312895E+02  0.11120834984E+03  0.11523267223E+03  0.47000000000E+01 0. -1.
         -5    1    3    3    0  502 -0.18867849429E+02 -0.60589921332E+02  0.41156687518E+03  0.41645710110E+03  0.47000000000E+01 0.  1.
          5    1    4    4  503    0  0.35714846685E+02  0.60691880665E+02  0.16403407475E+03  0.17857301681E+03  0.47000000000E+01 0. -1.
         -5    1    4    4    0  503 -0.12844525194E+02 -0.29651272228E+02  0.10620086376E+03  0.11110757506E+03  0.47000000000E+01 0.  1.
<mgrwt>
<rscale>  0 0.10244620E+03</rscale>
<asrwt>0</asrwt>
<pdfrwt beam="1">  1        1 0.21815546E-02 0.10434521E+03</pdfrwt>
<pdfrwt beam="2">  1       -1 0.12418308E+00 0.10434521E+03</pdfrwt>
<totfact> 0.30804333E+03</totfact>
</mgrwt>
</event>
<event>
 8    1  0.5224537E-004  0.9585803E+02  0.7546771E-02  0.1290159E+00
          1   -1    0    0  501    0  0.00000000000E+00  0.00000000000E+00  0.66502576124E+02  0.66502576124E+02  0.00000000000E+00 0. -1.
         -1   -1    0    0    0  501 -0.00000000000E+00 -0.00000000000E+00 -0.14135251256E+03  0.14135251256E+03  0.00000000000E+00 0.  1.
         23    2    1    2    0    0  0.22526634545E+02 -0.44274809134E+01 -0.16636765361E+02  0.95705476453E+02  0.91409542227E+02 0.  0.
         23    2    1    2    0    0 -0.22526634545E+02  0.44274809134E+01 -0.58213171070E+02  0.11214961223E+03  0.93068310317E+02 0.  0.
          5    1    3    3  502    0 -0.18563928314E+02  0.33134568719E+02 -0.45128874971E+01  0.38535376373E+02  0.47000000000E+01 0. -1.
         -5    1    4    4    0  503 -0.35050771681E+02 -0.25562153756E+02 -0.65317404162E+02  0.78552107461E+02  0.47000000000E+01 0.  1.
          5    1    4    4  503    0  0.12524137137E+02  0.29989634669E+02  0.71042330922E+01  0.33597504765E+02  0.47000000000E+01 0. -1.
         -5    1    3    3    0  502  0.41090562859E+02 -0.37562049633E+02 -0.12123877864E+02  0.57170100080E+02  0.47000000000E+01 0.  1.
<mgrwt>
<rscale>  0 0.95453058E+02</rscale>
<asrwt>0</asrwt>
<pdfrwt beam="1">  1        1 0.10231166E-01 0.95858032E+02</pdfrwt>
<pdfrwt beam="2">  1       -1 0.21746540E-01 0.95858032E+02</pdfrwt>
<totfact> 0.99464566E+03</totfact>
</mgrwt>
</event>
<event>
 8    1  0.5224537E-004  0.9666172E+02  0.7546771E-02  0.1289384E+00
         -2   -1    0    0    0  501 -0.00000000000E+00  0.00000000000E+00  0.10298149734E+03  0.10298149734E+03  0.00000000000E+00 0.  1.
          2   -1    0    0  501    0  0.00000000000E+00 -0.00000000000E+00 -0.90562403050E+02  0.90562403050E+02  0.00000000000E+00 0. -1.
         23    2    1    2    0    0  0.20885719566E+02 -0.26854074075E+01 -0.11281443552E+02  0.97317820894E+02  0.94340143101E+02 0.  0.
         23    2    1    2    0    0 -0.20885719566E+02  0.26854074075E+01  0.23700537844E+02  0.96226079497E+02  0.90853278348E+02 0.  0.
          5    1    4    4  502    0 -0.56782685369E+02  0.15498376406E+01  0.15906560138E+02  0.59175873545E+02  0.47000000000E+01 0. -1.
         -5    1    3    3    0  503  0.35890290528E+02  0.14375965285E+02  0.30538998198E+02  0.49492441271E+02  0.47000000000E+01 0.  1.
          5    1    3    3  503    0 -0.15004570962E+02 -0.17061372693E+02 -0.41820441750E+02  0.47825379623E+02  0.47000000000E+01 0. -1.
         -5    1    4    4    0  502  0.35896965803E+02  0.11355697669E+01  0.77939777066E+01  0.37050205952E+02  0.47000000000E+01 0.  1.
<mgrwt>
<rscale>  0 0.95800262E+02</rscale>
<asrwt>0</asrwt>
<pdfrwt beam="1">  1        2 0.13932677E-01 0.96661716E+02</pdfrwt>
<pdfrwt beam="2">  1       -2 0.15843307E-01 0.96661716E+02</pdfrwt>
<totfact> 0.12055765E+04</totfact>
</mgrwt>
</event>
<event>
 8    1  0.5224537E-004  0.1093593E+03  0.7546771E-02  0.1262166E+00
         -2   -1    0    0    0  501 -0.00000000000E+00  0.00000000000E+00  0.47539840229E+03  0.47539840229E+03  0.00000000000E+00 0.  1.
          2   -1    0    0  501    0  0.00000000000E+00 -0.00000000000E+00 -0.25624205415E+02  0.25624205415E+02  0.00000000000E+00 0. -1.
         23    2    1    2    0    0  0.45584928016E+02 -0.38219521027E+02  0.26439932650E+03  0.28579411327E+03  0.90733422059E+02 0.  0.
         23    2    1    2    0    0 -0.45584928016E+02  0.38219521027E+02  0.18537487038E+03  0.21522849444E+03  0.91764616269E+02 0.  0.
          5    1    3    3  502    0  0.30914953490E+01 -0.59712641492E+02  0.13115936775E+03  0.14422214340E+03  0.47000000000E+01 0. -1.
         -5    1    4    4    0  503 -0.94193102227E+01  0.44649631173E+02  0.16831720647E+03  0.17445654176E+03  0.47000000000E+01 0.  1.
          5    1    4    4  503    0 -0.36165617793E+02 -0.64301101456E+01  0.17057663908E+02  0.40771952674E+02  0.47000000000E+01 0. -1.
         -5    1    3    3    0  502  0.42493432667E+02  0.21493120465E+02  0.13323995874E+03  0.14157196987E+03  0.47000000000E+01 0.  1.
<mgrwt>
<rscale>  0 0.10914272E+03</rscale>
<asrwt>0</asrwt>
<pdfrwt beam="1">  1        2 0.39421858E-02 0.10935933E+03</pdfrwt>
<pdfrwt beam="2">  1       -2 0.73138209E-01 0.10935933E+03</pdfrwt>
<totfact> 0.35102224E+03</totfact>
</mgrwt>
</event>
<event>
 8    1  0.5224537E-004  0.9648135E+02  0.7546771E-02  0.1289877E+00
         -1   -1    0    0    0  501 -0.00000000000E+00  0.00000000000E+00  0.15807936898E+03  0.15807936898E+03  0.00000000000E+00 0.  1.
          1   -1    0    0  501    0  0.00000000000E+00 -0.00000000000E+00 -0.57122164022E+02  0.57122164022E+02  0.00000000000E+00 0. -1.
         23    2    1    2    0    0  0.30095491582E+02  0.11808908619E+02  0.42548199369E+02  0.10544667390E+03  0.90903590863E+02 0.  0.
         23    2    1    2    0    0 -0.30095491582E+02 -0.11808908619E+02  0.58409005589E+02  0.10975485910E+03  0.87116750542E+02 0.  0.
          5    1    3    3  502    0  0.69180874328E+01  0.50357069080E+02  0.19083873259E+02  0.54497509655E+02  0.47000000000E+01 0. -1.
         -5    1    3    3    0  502  0.23177404149E+02 -0.38548160461E+02  0.23464326110E+02  0.50949164250E+02  0.47000000000E+01 0.  1.
          5    1    4    4  503    0 -0.58456498611E+02  0.47457256371E+01  0.29821329553E+02  0.65962760994E+02  0.47000000000E+01 0. -1.
         -5    1    4    4    0  503  0.28361007029E+02 -0.16554634256E+02  0.28587676036E+02  0.43792098102E+02  0.47000000000E+01 0.  1.
<mgrwt>
<rscale>  0 0.95578960E+02</rscale>
<asrwt>0</asrwt>
<pdfrwt beam="1">  1        1 0.87880253E-02 0.96481355E+02</pdfrwt>
<pdfrwt beam="2">  1       -1 0.24319903E-01 0.96481355E+02</pdfrwt>
<totfact> 0.10149921E+04</totfact>
</mgrwt>
</event>
<event>
 8    1  0.5224537E-004  0.1004731E+03  0.7546771E-02  0.1279571E+00
         -2   -1    0    0    0  501 -0.00000000000E+00  0.00000000000E+00  0.64492340968E+02  0.64492340968E+02  0.00000000000E+00 0.  1.
          2   -1    0    0  501    0  0.00000000000E+00 -0.00000000000E+00 -0.20472722896E+03  0.20472722896E+03  0.00000000000E+00 0. -1.
         23    2    1    2    0    0 -0.41054513383E+02 -0.54753654398E+01 -0.44043671955E+01  0.10056958788E+03  0.91539012778E+02 0.  0.
         23    2    1    2    0    0  0.41054513383E+02  0.54753654398E+01 -0.13583052080E+03  0.16864998205E+03  0.90980401017E+02 0.  0.
          5    1    3    3  502    0 -0.15088650065E+02  0.32365603413E+02 -0.30824210077E+02  0.47406978093E+02  0.47000000000E+01 0. -1.
         -5    1    3    3    0  502 -0.25965863318E+02 -0.37840968852E+02  0.26419842882E+02  0.53162609788E+02  0.47000000000E+01 0.  1.
          5    1    4    4  503    0  0.28973163925E+02  0.44444794820E+02 -0.48033730621E+02  0.71722474105E+02  0.47000000000E+01 0. -1.
         -5    1    4    4    0  503  0.12081349458E+02 -0.38969429380E+02 -0.87796790179E+02  0.96927507946E+02  0.47000000000E+01 0.  1.
<mgrwt>
<rscale>  0 0.10034569E+03</rscale>
<asrwt>0</asrwt>
<pdfrwt beam="1">  1        2 0.31496497E-01 0.10047310E+03</pdfrwt>
<pdfrwt beam="2">  1       -2 0.99218986E-02 0.10047310E+03</pdfrwt>
<totfact> 0.10261586E+04</totfact>
</mgrwt>
</event>
<event>
 8    1  0.5224537E-004  0.1078019E+03  0.7546771E-02  0.1267332E+00
         -1   -1    0    0    0  501 -0.00000000000E+00  0.00000000000E+00  0.18969586698E+02  0.18969586698E+02  0.00000000000E+00 0.  1.
          1   -1    0    0  501    0  0.00000000000E+00 -0.00000000000E+00 -0.58556281814E+03  0.58556281814E+03  0.00000000000E+00 0. -1.
         23    2    1    2    0    0 -0.24905173352E+02 -0.52132324651E+02 -0.31284898758E+03  0.33090138882E+03  0.91012049548E+02 0.  0.
         23    2    1    2    0    0  0.24905173352E+02  0.52132324651E+02 -0.25374424386E+03  0.27363101602E+03  0.84556162984E+02 0.  0.
          5    1    3    3  502    0 -0.52570396389E+02 -0.17759291700E+02 -0.23288844484E+03  0.23945387188E+03  0.47000000000E+01 0. -1.
         -5    1    3    3    0  502  0.27665223037E+02 -0.34373032951E+02 -0.79960542730E+02  0.91447516936E+02  0.47000000000E+01 0.  1.
          5    1    4    4  503    0  0.51554019806E+01  0.32523216377E+02 -0.23989701786E+03  0.24219208689E+03  0.47000000000E+01 0. -1.
         -5    1    4    4    0  503  0.19749771372E+02  0.19609108274E+02 -0.13847225999E+02  0.31438929123E+02  0.47000000000E+01 0.  1.
<mgrwt>
<rscale>  0 0.10642782E+03</rscale>
<asrwt>0</asrwt>
<pdfrwt beam="1">  1        1 0.90086589E-01 0.10780186E+03</pdfrwt>
<pdfrwt beam="2">  1       -1 0.29183979E-02 0.10780186E+03</pdfrwt>
<totfact> 0.13338122E+04</totfact>
</mgrwt>
</event>
<event>
 8    1  0.5224537E-004  0.1051446E+03  0.7546771E-02  0.1274158E+00
         -1   -1    0    0    0  501 -0.00000000000E+00  0.00000000000E+00  0.43072328863E+02  0.43072328863E+02  0.00000000000E+00 0.  1.
          1   -1    0    0  501    0  0.00000000000E+00 -0.00000000000E+00 -0.42789219062E+03  0.42789219062E+03  0.00000000000E+00 0. -1.
         23    2    1    2    0    0  0.21762388735E+01 -0.36195274691E+02 -0.30590746275E+02  0.10145991474E+03  0.89685487210E+02 0.  0.
         23    2    1    2    0    0 -0.21762388735E+01  0.36195274691E+02 -0.35422911548E+03  0.36950460474E+03  0.98694238661E+02 0.  0.
          5    1    4    4  502    0 -0.41437030951E+02 -0.10917586198E+02 -0.12804749167E+03  0.13510910904E+03  0.47000000000E+01 0. -1.
         -5    1    4    4    0  502  0.39260792077E+02  0.47112860888E+02 -0.22618162381E+03  0.23439549570E+03  0.47000000000E+01 0.  1.
          5    1    3    3  503    0 -0.16113075829E+02  0.25343461088E+02 -0.19570156182E+02  0.36152499852E+02  0.47000000000E+01 0. -1.
         -5    1    3    3    0  503  0.18289314702E+02 -0.61538735778E+02 -0.11020590093E+02  0.65307414889E+02  0.47000000000E+01 0.  1.
<mgrwt>
<rscale>  0 0.10297694E+03</rscale>
<asrwt>0</asrwt>
<pdfrwt beam="1">  1        1 0.65829567E-01 0.10514460E+03</pdfrwt>
<pdfrwt beam="2">  1       -1 0.66265122E-02 0.10514460E+03</pdfrwt>
<totfact> 0.60158481E+03</totfact>
</mgrwt>
</event>
<event>
 8    1  0.5224537E-004  0.9426893E+02  0.7546771E-02  0.1293002E+00
          1   -1    0    0  501    0  0.00000000000E+00  0.00000000000E+00  0.92698221058E+02  0.92698221058E+02  0.00000000000E+00 0. -1.
         -1   -1    0    0    0  501 -0.00000000000E+00 -0.00000000000E+00 -0.15582058407E+03  0.15582058407E+03  0.00000000000E+00 0.  1.
         23    2    1    2    0    0  0.15106609029E+02  0.21797147157E+02 -0.10886425061E+03  0.14400713891E+03  0.90461625763E+02 0.  0.
         23    2    1    2    0    0 -0.15106609029E+02 -0.21797147157E+02  0.45741887602E+02  0.10451166621E+03  0.90150112773E+02 0.  0.
          5    1    3    3  502    0 -0.31917682250E+02  0.19576615498E+02 -0.18546066436E+02  0.42047935678E+02  0.47000000000E+01 0. -1.
         -5    1    4    4    0  503  0.30766895811E-02 -0.48475870759E+02  0.53692352258E+02  0.72490473486E+02  0.47000000000E+01 0.  1.
          5    1    4    4  503    0 -0.15109685718E+02  0.26678723601E+02 -0.79504646562E+01  0.32021192728E+02  0.47000000000E+01 0. -1.
         -5    1    3    3    0  502  0.47024291279E+02  0.22205316597E+01 -0.90318184176E+02  0.10195920323E+03  0.47000000000E+01 0.  1.
<mgrwt>
<rscale>  0 0.94194117E+02</rscale>
<asrwt>0</asrwt>
<pdfrwt beam="1">  1        1 0.14261265E-01 0.94268929E+02</pdfrwt>
<pdfrwt beam="2">  1       -1 0.23972398E-01 0.94268929E+02</pdfrwt>
<totfact> 0.55172784E+03</totfact>
</mgrwt>
</event>
<event>
 8    1  0.5224537E-004  0.9688101E+02  0.7546771E-02  0.1288112E+00
          2   -1    0    0  501    0  0.00000000000E+00  0.00000000000E+00  0.11280263417E+03  0.11280263417E+03  0.00000000000E+00 0. -1.
         -2   -1    0    0    0  501 -0.00000000000E+00 -0.00000000000E+00 -0.81566008682E+02  0.81566008682E+02  0.00000000000E+00 0.  1.
         23    2    1    2    0    0  0.12522507406E+02  0.22512358508E+02  0.18818068474E+02  0.98691690895E+02  0.93393311716E+02 0.  0.
         23    2    1    2    0    0 -0.12522507406E+02 -0.22512358508E+02  0.12418557009E+02  0.95676951952E+02  0.91303007067E+02 0.  0.
          5    1    4    4  502    0 -0.26320258019E+02 -0.43646437091E+02  0.34572455011E+02  0.61766593709E+02  0.47000000000E+01 0. -1.
         -5    1    3    3    0  503  0.22714610760E+02 -0.21338694049E+02  0.38138217483E+02  0.49476328062E+02  0.47000000000E+01 0.  1.
          5    1    3    3  503    0 -0.10192103354E+02  0.43851052557E+02 -0.19320149008E+02  0.49215362834E+02  0.47000000000E+01 0. -1.
         -5    1    4    4    0  502  0.13797750613E+02  0.21134078583E+02 -0.22153898003E+02  0.33910358244E+02  0.47000000000E+01 0.  1.
<mgrwt>
<rscale>  0 0.96373683E+02</rscale>
<asrwt>0</asrwt>
<pdfrwt beam="1">  1        2 0.17354251E-01 0.96881010E+02</pdfrwt>
<pdfrwt beam="2">  1       -2 0.12548617E-01 0.96881010E+02</pdfrwt>
<totfact> 0.13622313E+04</totfact>
</mgrwt>
</event>
<event>
 8    1  0.5224537E-004  0.1053636E+03  0.7546771E-02  0.1270158E+00
         -1   -1    0    0    0  501 -0.00000000000E+00  0.00000000000E+00  0.35711984085E+02  0.35711984085E+02  0.00000000000E+00 0.  1.
          1   -1    0    0  501    0  0.00000000000E+00 -0.00000000000E+00 -0.38771124856E+03  0.38771124856E+03  0.00000000000E+00 0. -1.
         23    2    1    2    0    0 -0.37876785824E+02  0.96150198855E+01 -0.78025739053E+02  0.12988791616E+03  0.96206836026E+02 0.  0.
         23    2    1    2    0    0  0.37876785824E+02 -0.96150198855E+01 -0.27397352542E+03  0.29353531648E+03  0.97848811330E+02 0.  0.
          5    1    3    3  502    0 -0.69655005490E+02  0.55697417132E+01 -0.62967969884E+02  0.94180130834E+02  0.47000000000E+01 0. -1.
         -5    1    4    4    0  503  0.19132706491E+02  0.43546836401E+02 -0.14582002641E+03  0.15345343763E+03  0.47000000000E+01 0.  1.
          5    1    4    4  503    0  0.18744079333E+02 -0.53161856287E+02 -0.12815349901E+03  0.14008187885E+03  0.47000000000E+01 0. -1.
         -5    1    3    3    0  502  0.31778219666E+02  0.40452781723E+01 -0.15057769169E+02  0.35707785327E+02  0.47000000000E+01 0.  1.
<mgrwt>
<rscale>  0 0.10498075E+03</rscale>
<asrwt>0</asrwt>
<pdfrwt beam="1">  1        1 0.59647883E-01 0.10536361E+03</pdfrwt>
<pdfrwt beam="2">  1       -1 0.54941516E-02 0.10536361E+03</pdfrwt>
<totfact> 0.89830676E+03</totfact>
</mgrwt>
</event>
<event>
 7    1  0.5224537E-004  0.2003517E+03  0.7546771E-02  0.1181113E+00
          2   -1    0    0  501    0  0.00000000000E+00  0.00000000000E+00  0.75415094778E+03  0.75415094778E+03  0.00000000000E+00 0. -1.
         -2   -1    0    0    0  501 -0.00000000000E+00 -0.00000000000E+00 -0.54689922162E+02  0.54689922162E+02  0.00000000000E+00 0.  1.
         23    2    1    2    0    0  0.13762611461E+02 -0.25446169371E+02  0.55123762799E+03  0.55962012011E+03  0.92058890496E+02 0.  0.
          5    1    1    2  502    0 -0.45414868712E+02  0.42013194693E+02  0.18656046368E+03  0.19660751623E+03  0.47000000000E+01 0. -1.
         -5    1    1    2    0  502  0.31652257251E+02 -0.16567025322E+02 -0.38337066046E+02  0.52613233602E+02  0.47000000000E+01 0.  1.
          5    1    3    3  503    0  0.33306804151E+02 -0.49766989257E+02  0.26904592174E+03  0.27566990120E+03  0.47000000000E+01 0. -1.
         -5    1    3    3    0  503 -0.19544192690E+02  0.24320819885E+02  0.28219170624E+03  0.28395021891E+03  0.47000000000E+01 0.  1.
<mgrwt>
<rscale>  0 0.16690669E+03</rscale>
<asrwt>0</asrwt>
<pdfrwt beam="1">  1        2 0.11602322E+00 0.20035171E+03</pdfrwt>
<pdfrwt beam="2">  1       -2 0.84138347E-02 0.20035171E+03</pdfrwt>
<totfact> 0.33053278E+03</totfact>
</mgrwt>
</event>
<event>
 8    1  0.5224537E-004  0.1290473E+03  0.7546771E-02  0.1234871E+00
         -2   -1    0    0    0  501 -0.00000000000E+00  0.00000000000E+00  0.20253239546E+03  0.20253239546E+03  0.00000000000E+00 0.  1.
          2   -1    0    0  501    0  0.00000000000E+00 -0.00000000000E+00 -0.57062933347E+03  0.57062933347E+03  0.00000000000E+00 0. -1.
         23    2    1    2    0    0  0.29193575768E+02  0.70184904594E+02  0.17543719201E+03  0.21778756779E+03  0.10428341500E+03 0.  0.
         23    2    1    2    0    0 -0.29193575768E+02 -0.70184904594E+02 -0.54353413002E+03  0.55537416115E+03  0.85046591223E+02 0.  0.
          5    1    4    4  502    0  0.16254673283E+02 -0.38785938324E+02 -0.38711473601E+03  0.38942068801E+03  0.47000000000E+01 0. -1.
         -5    1    3    3    0  503  0.58914831408E+02  0.10144023409E+02  0.64207423178E+02  0.87855231842E+02  0.47000000000E+01 0.  1.
          5    1    3    3  503    0 -0.29721255640E+02  0.60040881184E+02  0.11122976883E+03  0.12993233595E+03  0.47000000000E+01 0. -1.
         -5    1    4    4    0  502 -0.45448249051E+02 -0.31398966270E+02 -0.15641939401E+03  0.16595347314E+03  0.47000000000E+01 0.  1.
<mgrwt>
<rscale>  0 0.12512701E+03</rscale>
<asrwt>0</asrwt>
<pdfrwt beam="1">  1        2 0.87789126E-01 0.12904734E+03</pdfrwt>
<pdfrwt beam="2">  1       -2 0.31158831E-01 0.12904734E+03</pdfrwt>
<totfact> 0.51571073E+02</totfact>
</mgrwt>
</event>
<event>
 8    1  0.5224537E-004  0.9584727E+02  0.7546771E-02  0.1295324E+00
          1   -1    0    0  501    0  0.00000000000E+00  0.00000000000E+00  0.70332976458E+03  0.70332976458E+03  0.00000000000E+00 0. -1.
         -1   -1    0    0    0  501 -0.00000000000E+00 -0.00000000000E+00 -0.11722785333E+02  0.11722785333E+02  0.00000000000E+00 0.  1.
         23    2    1    2    0    0 -0.26725755737E+02 -0.12890156190E+02  0.37896651960E+03  0.39089937587E+03  0.91138778421E+02 0.  0.
         23    2    1    2    0    0  0.26725755737E+02  0.12890156190E+02  0.31264045965E+03  0.32415317404E+03  0.80316879220E+02 0.  0.
          5    1    4    4  502    0  0.23969898208E+02  0.44983109399E+02  0.22258929278E+03  0.22839903549E+03  0.47000000000E+01 0. -1.
         -5    1    4    4    0  502  0.27558575291E+01 -0.32092953209E+02  0.90051166865E+02  0.95754138554E+02  0.47000000000E+01 0.  1.
          5    1    3    3  503    0  0.21060651797E+02 -0.94769962208E+01  0.27786698096E+02  0.36435629576E+02  0.47000000000E+01 0. -1.
         -5    1    3    3    0  503 -0.47786407534E+02 -0.34131599692E+01  0.35117982151E+03  0.35446374630E+03  0.47000000000E+01 0.  1.
<mgrwt>
<rscale>  0 0.93181965E+02</rscale>
<asrwt>0</asrwt>
<pdfrwt beam="1">  1        1 0.10820455E+00 0.95847270E+02</pdfrwt>
<pdfrwt beam="2">  1       -1 0.18035060E-02 0.95847270E+02</pdfrwt>
<totfact> 0.20480011E+04</totfact>
</mgrwt>
</event>
<event>
 8    1  0.5224537E-004  0.1111064E+03  0.7546771E-02  0.1258761E+00
          1   -1    0    0  501    0  0.00000000000E+00  0.00000000000E+00  0.33332212896E+03  0.33332212896E+03  0.00000000000E+00 0. -1.
         -1   -1    0    0    0  501 -0.00000000000E+00 -0.00000000000E+00 -0.37811850029E+02  0.37811850029E+02  0.00000000000E+00 0.  1.
         23    2    1    2    0    0 -0.60032651192E+02 -0.15953526409E+02  0.11815346603E+03  0.16184933348E+03  0.91523390446E+02 0.  0.
         23    2    1    2    0    0  0.60032651192E+02  0.15953526409E+02  0.17735681290E+03  0.20928464551E+03  0.92120516442E+02 0.  0.
          5    1    4    4  502    0 -0.17597182842E+02  0.13046748730E+02  0.87907810112E+02  0.90717978235E+02  0.47000000000E+01 0. -1.
         -5    1    4    4    0  502  0.77629834034E+02  0.29067776789E+01  0.89449002792E+02  0.11856666728E+03  0.47000000000E+01 0.  1.
          5    1    3    3  503    0 -0.40461969480E+02  0.30259753169E+02  0.91990404714E+02  0.10505783262E+03  0.47000000000E+01 0. -1.
         -5    1    3    3    0  503 -0.19570681712E+02 -0.46213279578E+02  0.26163061314E+02  0.56791500854E+02  0.47000000000E+01 0.  1.
<mgrwt>
<rscale>  0 0.11098251E+03</rscale>
<asrwt>0</asrwt>
<pdfrwt beam="1">  1        1 0.51280325E-01 0.11110636E+03</pdfrwt>
<pdfrwt beam="2">  1       -1 0.58172079E-02 0.11110636E+03</pdfrwt>
<totfact> 0.10000078E+04</totfact>
</mgrwt>
</event>
<event>
 8    1  0.7608030E-004  0.1255298E+03  0.7546771E-02  0.1240502E+00
          1   -1    0    0  501    0  0.00000000000E+00  0.00000000000E+00  0.14290416819E+03  0.14290416819E+03  0.00000000000E+00 0. -1.
         -1   -1    0    0    0  501 -0.00000000000E+00 -0.00000000000E+00 -0.19764195280E+03  0.19764195280E+03  0.00000000000E+00 0.  1.
         23    2    1    2    0    0 -0.48532407005E+02  0.40480338075E+02  0.94604158544E+02  0.14545449511E+03  0.90625664321E+02 0.  0.
         23    2    1    2    0    0  0.48532407005E+02 -0.40480338075E+02 -0.14934194315E+03  0.19509162588E+03  0.10846047300E+03 0.  0.
          5    1    4    4  502    0 -0.31826047603E+02  0.45276453539E+01 -0.49143344849E+02  0.58911418430E+02  0.47000000000E+01 0. -1.
         -5    1    3    3    0  503 -0.22093686233E+02 -0.27677016363E+02  0.20202266713E+02  0.41041074383E+02  0.47000000000E+01 0.  1.
          5    1    3    3  503    0 -0.26438720771E+02  0.68157354438E+02  0.74401891830E+02  0.10441342073E+03  0.47000000000E+01 0. -1.
         -5    1    4    4    0  502  0.80358454608E+02 -0.45007983429E+02 -0.10019859830E+03  0.13618020745E+03  0.47000000000E+01 0.  1.
<mgrwt>
<rscale>  0 0.12158682E+03</rscale>
<asrwt>0</asrwt>
<pdfrwt beam="1">  1        1 0.21985257E-01 0.12552978E+03</pdfrwt>
<pdfrwt beam="2">  1       -1 0.30406454E-01 0.12552978E+03</pdfrwt>
<totfact> 0.21861806E+03</totfact>
</mgrwt>
</event>
<event>
 8    1  0.5224537E-004  0.1059066E+03  0.7546771E-02  0.1270993E+00
          1   -1    0    0  501    0  0.00000000000E+00  0.00000000000E+00  0.13117837554E+04  0.13117837554E+04  0.00000000000E+00 0. -1.
         -1   -1    0    0    0  501 -0.00000000000E+00 -0.00000000000E+00 -0.87236556514E+01  0.87236556514E+01  0.00000000000E+00 0.  1.
         23    2    1    2    0    0 -0.37274356455E+02 -0.10772907401E+02  0.46354764919E+03  0.47434113498E+03  0.92831331332E+02 0.  0.
         23    2    1    2    0    0  0.37274356455E+02  0.10772907401E+02  0.83951245059E+03  0.84616627611E+03  0.98543284619E+02 0.  0.
          5    1    4    4  502    0  0.70328622284E+02  0.12188649976E+02  0.51647471648E+03  0.52140473824E+03  0.47000000000E+01 0. -1.
         -5    1    3    3    0  503 -0.28901206183E+02 -0.43731320856E+02  0.15089600008E+03  0.15981051587E+03  0.47000000000E+01 0.  1.
          5    1    3    3  503    0 -0.83731502719E+01  0.32958413455E+02  0.31265164911E+03  0.31453061911E+03  0.47000000000E+01 0. -1.
         -5    1    4    4    0  502 -0.33054265828E+02 -0.14157425742E+01  0.32303773412E+03  0.32476153787E+03  0.47000000000E+01 0.  1.
<mgrwt>
<rscale>  0 0.10455781E+03</rscale>
<asrwt>0</asrwt>
<pdfrwt beam="1">  1        1 0.20181273E+00 0.10590662E+03</pdfrwt>
<pdfrwt beam="2">  1       -1 0.13421019E-02 0.10590662E+03</pdfrwt>
<totfact> 0.11222433E+04</totfact>
</mgrwt>
</event>
<event>
 8    1  0.5224537E-004  0.1085439E+03  0.7546771E-02  0.1267548E+00
          1   -1    0    0  501    0  0.00000000000E+00  0.00000000000E+00  0.32611750828E+03  0.32611750828E+03  0.00000000000E+00 0. -1.
         -1   -1    0    0    0  501 -0.00000000000E+00 -0.00000000000E+00 -0.34912263720E+02  0.34912263720E+02  0.00000000000E+00 0.  1.
         23    2    1    2    0    0  0.27035874866E+01 -0.53225509991E+02  0.10119073223E+03  0.14219813108E+03  0.84501360308E+02 0.  0.
         23    2    1    2    0    0 -0.27035874866E+01  0.53225509991E+02  0.19001451233E+03  0.21883164092E+03  0.94559546707E+02 0.  0.
          5    1    4    4  502    0  0.43834583378E+02  0.16658028515E+02  0.63495160296E+02  0.79073927403E+02  0.47000000000E+01 0. -1.
         -5    1    4    4    0  502 -0.46538170864E+02  0.36567481476E+02  0.12651935204E+03  0.13975771352E+03  0.47000000000E+01 0.  1.
          5    1    3    3  503    0 -0.29441161085E+02 -0.12856491747E+02  0.79776255141E+02  0.86130205098E+02  0.47000000000E+01 0. -1.
         -5    1    3    3    0  503  0.32144748571E+02 -0.40369018244E+02  0.21414477088E+02  0.56067925979E+02  0.47000000000E+01 0.  1.
<mgrwt>
<rscale>  0 0.10631618E+03</rscale>
<asrwt>0</asrwt>
<pdfrwt beam="1">  1        1 0.50171922E-01 0.10854387E+03</pdfrwt>
<pdfrwt beam="2">  1       -1 0.53711177E-02 0.10854387E+03</pdfrwt>
<totfact> 0.11536089E+04</totfact>
</mgrwt>
</event>
<event>
 8    1  0.5224537E-004  0.1307027E+03  0.7546771E-02  0.1226516E+00
         -2   -1    0    0    0  501 -0.00000000000E+00  0.00000000000E+00  0.44380264063E+02  0.44380264063E+02  0.00000000000E+00 0.  1.
          2   -1    0    0  501    0  0.00000000000E+00 -0.00000000000E+00 -0.53410066394E+03  0.53410066394E+03  0.00000000000E+00 0. -1.
         23    2    1    2    0    0  0.39577312624E+02  0.83931285633E+02 -0.39830449549E+03  0.41920122254E+03  0.92045474981E+02 0.  0.
         23    2    1    2    0    0 -0.39577312624E+02 -0.83931285633E+02 -0.91415904388E+02  0.15927970547E+03  0.91664238482E+02 0.  0.
          5    1    3    3  502    0  0.16316479260E+02  0.97571863300E+02 -0.26021202419E+03  0.27842213191E+03  0.47000000000E+01 0. -1.
         -5    1    3    3    0  502  0.23260833364E+02 -0.13640577667E+02 -0.13809247130E+03  0.14077909063E+03  0.47000000000E+01 0.  1.
          5    1    4    4  503    0 -0.27545700827E+02 -0.25063123084E+02  0.12149756799E+02  0.39454180552E+02  0.47000000000E+01 0. -1.
         -5    1    4    4    0  503 -0.12031611797E+02 -0.58868162549E+02 -0.10356566119E+03  0.11982552492E+03  0.47000000000E+01 0.  1.
<mgrwt>
<rscale>  0 0.13063559E+03</rscale>
<asrwt>0</asrwt>
<pdfrwt beam="1">  1        2 0.82169332E-01 0.13070269E+03</pdfrwt>
<pdfrwt beam="2">  1       -2 0.68277330E-02 0.13070269E+03</pdfrwt>
<totfact> 0.67008138E+03</totfact>
</mgrwt>
</event>
<event>
 8    1  0.5224537E-004  0.9776485E+02  0.7546771E-02  0.1288446E+00
         -1   -1    0    0    0  501 -0.00000000000E+00  0.00000000000E+00  0.69558579366E+02  0.69558579366E+02  0.00000000000E+00 0.  1.
          1   -1    0    0  501    0  0.00000000000E+00 -0.00000000000E+00 -0.27305958255E+03  0.27305958255E+03  0.00000000000E+00 0. -1.
         23    2    1    2    0    0 -0.15764197106E+02 -0.27576406928E+02 -0.22458998757E+03  0.24260461176E+03  0.86066061862E+02 0.  0.
         23    2    1    2    0    0  0.15764197106E+02  0.27576406928E+02  0.21088984382E+02  0.10001355015E+03  0.92460785323E+02 0.  0.
          5    1    4    4  502    0  0.45142363377E+02 -0.34552271596E+01 -0.10441939875E+02  0.46700060753E+02  0.47000000000E+01 0. -1.
         -5    1    3    3    0  503  0.18174894741E+02 -0.24312871519E+02 -0.23725724025E+02  0.38812916676E+02  0.47000000000E+01 0.  1.
          5    1    3    3  503    0 -0.33939091847E+02 -0.32635354092E+01 -0.20086426354E+03  0.20379169509E+03  0.47000000000E+01 0. -1.
         -5    1    4    4    0  502 -0.29378166271E+02  0.31031634088E+02  0.31530924257E+02  0.53313489401E+02  0.47000000000E+01 0.  1.
<mgrwt>
<rscale>  0 0.96222673E+02</rscale>
<asrwt>0</asrwt>
<pdfrwt beam="1">  1        1 0.42009166E-01 0.97764845E+02</pdfrwt>
<pdfrwt beam="2">  1       -1 0.10701320E-01 0.97764845E+02</pdfrwt>
<totfact> 0.50782908E+03</totfact>
</mgrwt>
</event>
<event>
 7    1  0.5224537E-004  0.2582714E+03  0.7546771E-02  0.1110995E+00
         -3   -1    0    0    0  501 -0.00000000000E+00  0.00000000000E+00  0.88556177506E+02  0.88556177506E+02  0.00000000000E+00 0.  1.
          3   -1    0    0  501    0  0.00000000000E+00 -0.00000000000E+00 -0.70208798991E+03  0.70208798991E+03  0.00000000000E+00 0. -1.
         23    2    1    2    0    0  0.18566138973E+03 -0.12029628066E+03 -0.29532972985E+03  0.38081898792E+03  0.94138756336E+02 0.  0.
          5    1    3    3  502    0  0.79110256665E+02 -0.10589789120E+03 -0.15016344953E+03  0.20010983895E+03  0.47000000000E+01 0. -1.
         -5    1    3    3    0  502  0.10655113306E+03 -0.14398389461E+02 -0.14516628032E+03  0.18070914896E+03  0.47000000000E+01 0.  1.
          5    1    1    2  503    0 -0.10168454050E+03  0.97345782596E+02 -0.94174150235E+02  0.16943083467E+03  0.47000000000E+01 0. -1.
         -5    1    1    2    0  503 -0.83976849229E+02  0.22950498068E+02 -0.22402793231E+03  0.24039434483E+03  0.47000000000E+01 0.  1.
<mgrwt>
<rscale>  0 0.25368889E+03</rscale>
<asrwt>0</asrwt>
<pdfrwt beam="1">  1        3 0.10801353E+00 0.25827139E+03</pdfrwt>
<pdfrwt beam="2">  1       -3 0.13624028E-01 0.25827139E+03</pdfrwt>
<totfact> 0.82824692E+01</totfact>
</mgrwt>
</event>
<event>
 8    1  0.5224537E-004  0.9531036E+02  0.7546771E-02  0.1292488E+00
          3   -1    0    0  501    0  0.00000000000E+00  0.00000000000E+00  0.15818143815E+03  0.15818143815E+03  0.00000000000E+00 0. -1.
         -3   -1    0    0    0  501 -0.00000000000E+00 -0.00000000000E+00 -0.70819919673E+02  0.70819919673E+02  0.00000000000E+00 0.  1.
         23    2    1    2    0    0 -0.19124642616E+02  0.27073734764E+01 -0.92186482233E+01  0.95755147670E+02  0.93332647042E+02 0.  0.
         23    2    1    2    0    0  0.19124642616E+02 -0.27073734764E+01  0.96580166702E+02  0.13324621015E+03  0.89742643676E+02 0.  0.
          5    1    3    3  502    0 -0.25420873564E+02 -0.32761123483E+02  0.22603094386E+02  0.47460529922E+02  0.47000000000E+01 0. -1.
         -5    1    4    4    0  503 -0.11836511524E+02  0.38168969749E+02  0.39850175209E+02  0.56631260987E+02  0.47000000000E+01 0.  1.
          5    1    4    4  503    0  0.30961154140E+02 -0.40876343225E+02  0.56729991493E+02  0.76614949168E+02  0.47000000000E+01 0. -1.
         -5    1    3    3    0  502  0.62962309478E+01  0.35468496959E+02 -0.31821742610E+02  0.48294617748E+02  0.47000000000E+01 0.  1.
<mgrwt>
<rscale>  0 0.94419800E+02</rscale>
<asrwt>0</asrwt>
<pdfrwt beam="1">  1        3 0.24335606E-01 0.95310361E+02</pdfrwt>
<pdfrwt beam="2">  1       -3 0.10895372E-01 0.95310361E+02</pdfrwt>
<totfact> 0.21609252E+03</totfact>
</mgrwt>
</event>
<event>
 8    1  0.5224537E-004  0.1404961E+03  0.7546771E-02  0.1223448E+00
         -3   -1    0    0    0  501 -0.00000000000E+00  0.00000000000E+00  0.54521680645E+03  0.54521680645E+03  0.00000000000E+00 0.  1.
          3   -1    0    0  501    0  0.00000000000E+00 -0.00000000000E+00 -0.62244178600E+02  0.62244178600E+02  0.00000000000E+00 0. -1.
         23    2    1    2    0    0  0.57315556194E+02  0.36964606107E+02  0.44923304546E+03  0.46297049912E+03  0.88768794262E+02 0.  0.
         23    2    1    2    0    0 -0.57315556194E+02 -0.36964606107E+02  0.33739582390E+02  0.14449048593E+03  0.12283194217E+03 0.  0.
          5    1    4    4  502    0 -0.90768265395E+02 -0.43838758115E+02  0.75403600671E+01  0.10119121378E+03  0.47000000000E+01 0. -1.
         -5    1    3    3    0  503  0.41130610811E+02  0.63638943492E+02  0.36955180221E+03  0.37726948829E+03  0.47000000000E+01 0.  1.
          5    1    3    3  503    0  0.16184945383E+02 -0.26674337385E+02  0.79681243247E+02  0.85701010830E+02  0.47000000000E+01 0. -1.
         -5    1    4    4    0  502  0.33452709201E+02  0.68741520082E+01  0.26199222323E+02  0.43299272154E+02  0.47000000000E+01 0.  1.
<mgrwt>
<rscale>  0 0.13273879E+03</rscale>
<asrwt>0</asrwt>
<pdfrwt beam="1">  1        3 0.95760278E-02 0.14049605E+03</pdfrwt>
<pdfrwt beam="2">  1       -3 0.83879506E-01 0.14049605E+03</pdfrwt>
<totfact> 0.24958797E+02</totfact>
</mgrwt>
</event>
<event>
 8    1  0.8395619E-004  0.8615093E+02  0.7546771E-02  0.1315996E+00
         -2   -1    0    0    0  501 -0.00000000000E+00  0.00000000000E+00  0.60152835451E+02  0.60152835451E+02  0.00000000000E+00 0.  1.
          2   -1    0    0  501    0  0.00000000000E+00 -0.00000000000E+00 -0.21411087079E+03  0.21411087079E+03  0.00000000000E+00 0. -1.
         23    2    1    2    0    0 -0.15070892823E+01 -0.20952441145E+01 -0.17117686865E+03  0.19163377266E+03  0.86112258704E+02 0.  0.
         23    2    1    2    0    0  0.15070892823E+01  0.20952441145E+01  0.17218833308E+02  0.82629933578E+02  0.80774725853E+02 0.  0.
          5    1    3    3  502    0  0.18789708306E+02 -0.14461031383E+02 -0.16482457389E+03  0.16658752872E+03  0.47000000000E+01 0. -1.
         -5    1    4    4    0  503 -0.38721160135E+02  0.61843182291E+01  0.13570087519E+02  0.41758966815E+02  0.47000000000E+01 0.  1.
          5    1    4    4  503    0  0.40228249418E+02 -0.40890741146E+01  0.36487457895E+01  0.40870966763E+02  0.47000000000E+01 0. -1.
         -5    1    3    3    0  502 -0.20296797588E+02  0.12365787268E+02 -0.63522947604E+01  0.25046243946E+02  0.47000000000E+01 0.  1.
<mgrwt>
<rscale>  0 0.84785042E+02</rscale>
<asrwt>0</asrwt>
<pdfrwt beam="1">  1        2 0.32940135E-01 0.86150928E+02</pdfrwt>
<pdfrwt beam="2">  1       -2 0.92542821E-02 0.86150928E+02</pdfrwt>
<totfact> 0.10750659E+04</totfact>
</mgrwt>
</event>
<event>
 8    1  0.5224537E-004  0.1059510E+03  0.7546771E-02  0.1268326E+00
          1   -1    0    0  501    0  0.00000000000E+00  0.00000000000E+00  0.61705229022E+03  0.61705229022E+03  0.00000000000E+00 0. -1.
         -1   -1    0    0    0  501 -0.00000000000E+00 -0.00000000000E+00 -0.26190017129E+02  0.26190017129E+02  0.00000000000E+00 0.  1.
         23    2    1    2    0    0  0.49665331967E+02  0.24044090835E+02  0.11729550737E+03  0.15796805766E+03  0.90282377502E+02 0.  0.
         23    2    1    2    0    0 -0.49665331967E+02 -0.24044090835E+02  0.47356676572E+03  0.48527424970E+03  0.90448064191E+02 0.  0.
          5    1    4    4  502    0 -0.55482428217E+02 -0.49629946412E+02  0.40291847794E+03  0.40976434848E+03  0.47000000000E+01 0. -1.
         -5    1    4    4    0  502  0.58170962497E+01  0.25585855578E+02  0.70648287786E+02  0.75509901215E+02  0.47000000000E+01 0.  1.
          5    1    3    3  503    0  0.50005086855E+02 -0.11748121077E+02  0.10949154739E+03  0.12103311948E+03  0.47000000000E+01 0. -1.
         -5    1    3    3    0  503 -0.33975488833E+00  0.35792211911E+02  0.78039599763E+01  0.36934938178E+02  0.47000000000E+01 0.  1.
<mgrwt>
<rscale>  0 0.10591564E+03</rscale>
<asrwt>0</asrwt>
<pdfrwt beam="1">  1        1 0.94931111E-01 0.10595101E+03</pdfrwt>
<pdfrwt beam="2">  1       -1 0.40292339E-02 0.10595101E+03</pdfrwt>
<totfact> 0.77694826E+03</totfact>
</mgrwt>
</event>
<event>
 8    1  0.5224537E-004  0.2206240E+03  0.7546771E-02  0.1133625E+00
         -1   -1    0    0    0  501 -0.00000000000E+00  0.00000000000E+00  0.31374733065E+02  0.31374733065E+02  0.00000000000E+00 0.  1.
          1   -1    0    0  501    0  0.00000000000E+00 -0.00000000000E+00 -0.15909537554E+04  0.15909537554E+04  0.00000000000E+00 0. -1.
         23    2    1    2    0    0 -0.57248902693E+02  0.19200839449E+03 -0.64177339136E+03  0.67863688204E+03  0.92359468340E+02 0.  0.
         23    2    1    2    0    0  0.57248902693E+02 -0.19200839449E+03 -0.91780563097E+03  0.94369160642E+03  0.89677262329E+02 0.  0.
          5    1    4    4  502    0  0.30510495102E+02 -0.86943835363E+02 -0.23759597110E+03  0.25488047455E+03  0.47000000000E+01 0. -1.
         -5    1    3    3    0  503 -0.21770955831E+02  0.15296491997E+03 -0.35774457565E+03  0.38971208945E+03  0.47000000000E+01 0.  1.
          5    1    3    3  503    0 -0.35477946862E+02  0.39043474513E+02 -0.28402881571E+03  0.28892479258E+03  0.47000000000E+01 0. -1.
         -5    1    4    4    0  502  0.26738407591E+02 -0.10506455912E+03 -0.68020965986E+03  0.68881113187E+03  0.47000000000E+01 0.  1.
<mgrwt>
<rscale>  0 0.22034610E+03</rscale>
<asrwt>0</asrwt>
<pdfrwt beam="1">  1        1 0.24476207E+00 0.22062396E+03</pdfrwt>
<pdfrwt beam="2">  1       -1 0.48268830E-02 0.22062396E+03</pdfrwt>
<totfact> 0.11602019E+03</totfact>
</mgrwt>
</event>
<event>
 8    1  0.5224537E-004  0.1071074E+03  0.7546771E-02  0.1266454E+00
         -1   -1    0    0    0  501 -0.00000000000E+00  0.00000000000E+00  0.15412419481E+02  0.15412419481E+02  0.00000000000E+00 0.  1.
          1   -1    0    0  501    0  0.00000000000E+00 -0.00000000000E+00 -0.73957600024E+03  0.73957600024E+03  0.00000000000E+00 0. -1.
         23    2    1    2    0    0  0.36607115683E+02 -0.41008754762E+02 -0.34377809300E+03  0.35981108912E+03  0.90878180770E+02 0.  0.
         23    2    1    2    0    0 -0.36607115683E+02  0.41008754762E+02 -0.38038548776E+03  0.39517733061E+03  0.91924993549E+02 0.  0.
          5    1    3    3  502    0 -0.27179724173E+02 -0.35473938830E+01 -0.14543837399E+03  0.14807340084E+03  0.47000000000E+01 0. -1.
         -5    1    4    4    0  503  0.30465843592E+02  0.18742362271E+02 -0.14008035716E+03  0.14465144393E+03  0.47000000000E+01 0.  1.
          5    1    4    4  503    0 -0.67072959275E+02  0.22266392491E+02 -0.24030513060E+03  0.25052588667E+03  0.47000000000E+01 0. -1.
         -5    1    3    3    0  502  0.63786839855E+02 -0.37461360879E+02 -0.19833971901E+03  0.21173768827E+03  0.47000000000E+01 0.  1.
<mgrwt>
<rscale>  0 0.10688246E+03</rscale>
<asrwt>0</asrwt>
<pdfrwt beam="1">  1        1 0.11378092E+00 0.10710744E+03</pdfrwt>
<pdfrwt beam="2">  1       -1 0.23711414E-02 0.10710744E+03</pdfrwt>
<totfact> 0.13004757E+04</totfact>
</mgrwt>
</event>
<event>
 8    1  0.5224537E-004  0.9467887E+02  0.7546771E-02  0.1293151E+00
          1   -1    0    0  501    0  0.00000000000E+00  0.00000000000E+00  0.88501136194E+03  0.88501136194E+03  0.00000000000E+00 0. -1.
         -1   -1    0    0    0  501 -0.00000000000E+00 -0.00000000000E+00 -0.10869307719E+02  0.10869307719E+02  0.00000000000E+00 0.  1.
         23    2    1    2    0    0  0.14897847177E+01 -0.66908600197E+00  0.30771880592E+03  0.32195489181E+03  0.94664786023E+02 0.  0.
         23    2    1    2    0    0 -0.14897847177E+01  0.66908600197E+00  0.56642324830E+03  0.57392577784E+03  0.92481539364E+02 0.  0.
          5    1    3    3  502    0  0.12354718464E+02  0.31027225744E+02  0.26651024100E+03  0.26863567589E+03  0.47000000000E+01 0. -1.
         -5    1    3    3    0  502 -0.10864933747E+02 -0.31696311746E+02  0.41208564920E+02  0.53319215921E+02  0.47000000000E+01 0.  1.
          5    1    4    4  503    0 -0.39578983792E+01  0.43320916216E+02  0.38511679877E+03  0.38759438261E+03  0.47000000000E+01 0. -1.
         -5    1    4    4    0  503  0.24681136615E+01 -0.42651830214E+02  0.18130644953E+03  0.18633139523E+03  0.47000000000E+01 0.  1.
<mgrwt>
<rscale>  0 0.94128361E+02</rscale>
<asrwt>0</asrwt>
<pdfrwt beam="1">  1        1 0.13615554E+00 0.94678872E+02</pdfrwt>
<pdfrwt beam="2">  1       -1 0.16722019E-02 0.94678872E+02</pdfrwt>
<totfact> 0.16220314E+04</totfact>
</mgrwt>
</event>
<event>
 8    1  0.5224537E-004  0.1150033E+03  0.7546771E-02  0.1255898E+00
          1   -1    0    0  501    0  0.00000000000E+00  0.00000000000E+00  0.11281652495E+03  0.11281652495E+03  0.00000000000E+00 0. -1.
         -1   -1    0    0    0  501 -0.00000000000E+00 -0.00000000000E+00 -0.10803039788E+03  0.10803039788E+03  0.00000000000E+00 0.  1.
         23    2    1    2    0    0 -0.15101850448E+02 -0.67790447239E+02  0.77170372997E+01  0.11526188023E+03  0.91663175509E+02 0.  0.
         23    2    1    2    0    0  0.15101850448E+02  0.67790447239E+02 -0.29309102345E+01  0.10558504260E+03  0.79473268226E+02 0.  0.
          5    1    3    3  502    0 -0.46129242987E+00 -0.38551212875E+02  0.48911738573E+02  0.62456840898E+02  0.47000000000E+01 0. -1.
         -5    1    4    4    0  503 -0.19077173767E+02  0.44039075790E+02  0.25897627464E+02  0.54737152499E+02  0.47000000000E+01 0.  1.
          5    1    4    4  503    0  0.34179024216E+02  0.23751371449E+02 -0.28828537699E+02  0.50847890103E+02  0.47000000000E+01 0. -1.
         -5    1    3    3    0  502 -0.14640558018E+02 -0.29239234365E+02 -0.41194701273E+02  0.52805039327E+02  0.47000000000E+01 0.  1.
<mgrwt>
<rscale>  0 0.11256188E+03</rscale>
<asrwt>0</asrwt>
<pdfrwt beam="1">  1        1 0.17356388E-01 0.11500325E+03</pdfrwt>
<pdfrwt beam="2">  1       -1 0.16620061E-01 0.11500325E+03</pdfrwt>
<totfact> 0.78150809E+03</totfact>
</mgrwt>
</event>
<event>
 8    1  0.5224537E-004  0.9986950E+02  0.7546771E-02  0.1280864E+00
          2   -1    0    0  501    0  0.00000000000E+00  0.00000000000E+00  0.47268404688E+03  0.47268404688E+03  0.00000000000E+00 0. -1.
         -2   -1    0    0    0  501 -0.00000000000E+00 -0.00000000000E+00 -0.55029438474E+02  0.55029438474E+02  0.00000000000E+00 0.  1.
         23    2    1    2    0    0  0.25180247496E+02  0.37721787437E+02  0.15087242185E+01  0.99880898478E+02  0.88977185394E+02 0.  0.
         23    2    1    2    0    0 -0.25180247496E+02 -0.37721787437E+02  0.41614588419E+03  0.42783258688E+03  0.88353536183E+02 0.  0.
          5    1    3    3  502    0  0.16061489576E+02 -0.16352946363E+02  0.29886727643E+02  0.37956511844E+02  0.47000000000E+01 0. -1.
         -5    1    4    4    0  503  0.20981886529E+02 -0.38403185591E+01  0.28271754445E+02  0.35726316747E+02  0.47000000000E+01 0.  1.
          5    1    4    4  503    0 -0.46162134025E+02 -0.33881468878E+02  0.38787412974E+03  0.39210627013E+03  0.47000000000E+01 0. -1.
         -5    1    3    3    0  502  0.91187579204E+01  0.54074733800E+02 -0.28378003425E+02  0.61924386634E+02  0.47000000000E+01 0.  1.
<mgrwt>
<rscale>  0 0.99730406E+02</rscale>
<asrwt>0</asrwt>
<pdfrwt beam="1">  1        2 0.72720620E-01 0.99869503E+02</pdfrwt>
<pdfrwt beam="2">  1       -2 0.84660678E-02 0.99869503E+02</pdfrwt>
<totfact> 0.54185633E+03</totfact>
</mgrwt>
</event>
<event>
 8    1  0.5224537E-004  0.1163226E+03  0.7546771E-02  0.1250601E+00
         -4   -1    0    0    0  501 -0.00000000000E+00  0.00000000000E+00  0.57347017246E+02  0.57347017246E+02  0.00000000000E+00 0.  1.
          4   -1    0    0  501    0  0.00000000000E+00 -0.00000000000E+00 -0.41171070901E+03  0.41171070901E+03  0.00000000000E+00 0. -1.
         23    2    1    2    0    0 -0.56961469001E+02 -0.19815816638E+02 -0.20038247498E+02  0.11507402579E+03  0.95933437911E+02 0.  0.
         23    2    1    2    0    0  0.56961469001E+02  0.19815816638E+02 -0.33432544426E+03  0.35398370046E+03  0.99466989350E+02 0.  0.
          5    1    4    4  502    0  0.42452717591E+02  0.47650283708E+02 -0.30191062836E+03  0.30861772517E+03  0.47000000000E+01 0. -1.
         -5    1    4    4    0  502  0.14508751410E+02 -0.27834467070E+02 -0.32414815900E+02  0.45365975294E+02  0.47000000000E+01 0.  1.
          5    1    3    3  503    0  0.98415081551E+01  0.23274020479E+02 -0.24240056195E+02  0.35329953812E+02  0.47000000000E+01 0. -1.
         -5    1    3    3    0  503 -0.66802977156E+02 -0.43089837117E+02  0.42018086969E+01  0.79744071980E+02  0.47000000000E+01 0.  1.
<mgrwt>
<rscale>  0 0.11556357E+03</rscale>
<asrwt>0</asrwt>
<pdfrwt beam="1">  1        4 0.63340109E-01 0.11632264E+03</pdfrwt>
<pdfrwt beam="2">  1       -4 0.88226181E-02 0.11632264E+03</pdfrwt>
<totfact> 0.35780946E+02</totfact>
</mgrwt>
</event>
<event>
 8    1  0.5224537E-004  0.2580969E+03  0.7546771E-02  0.1108591E+00
         -1   -1    0    0    0  501 -0.00000000000E+00  0.00000000000E+00  0.13657150880E+03  0.13657150880E+03  0.00000000000E+00 0.  1.
          1   -1    0    0  501    0  0.00000000000E+00 -0.00000000000E+00 -0.64649197690E+03  0.64649197690E+03  0.00000000000E+00 0. -1.
         23    2    1    2    0    0 -0.17064009463E+03  0.16792528623E+03 -0.45194503166E+03  0.52045009839E+03  0.96421209405E+02 0.  0.
         23    2    1    2    0    0  0.17064009463E+03 -0.16792528623E+03 -0.57975436444E+02  0.26261338732E+03  0.91036785523E+02 0.  0.
          5    1    3    3  502    0 -0.14096222853E+03  0.17732810635E+03 -0.39399368182E+03  0.45449831516E+03  0.47000000000E+01 0. -1.
         -5    1    4    4    0  503  0.16312459768E+03 -0.13126150986E+03 -0.73316076118E+02  0.22189311697E+03  0.47000000000E+01 0.  1.
          5    1    4    4  503    0  0.75154969458E+01 -0.36663776368E+02  0.15340639674E+02  0.40720270352E+02  0.47000000000E+01 0. -1.
         -5    1    3    3    0  502 -0.29677866098E+02 -0.94028201217E+01 -0.57951349837E+02  0.65951783223E+02  0.47000000000E+01 0.  1.
<mgrwt>
<rscale>  0 0.25760475E+03</rscale>
<asrwt>0</asrwt>
<pdfrwt beam="1">  1        1 0.99460303E-01 0.25809687E+03</pdfrwt>
<pdfrwt beam="2">  1       -1 0.21011002E-01 0.25809687E+03</pdfrwt>
<totfact> 0.59139221E+02</totfact>
</mgrwt>
</event>
<event>
 8    1  0.5224537E-004  0.9643664E+02  0.7546771E-02  0.1289575E+00
          1   -1    0    0  501    0  0.00000000000E+00  0.00000000000E+00  0.30527411287E+03  0.30527411287E+03  0.00000000000E+00 0. -1.
         -1   -1    0    0    0  501 -0.00000000000E+00 -0.00000000000E+00 -0.42596482734E+02  0.42596482734E+02  0.00000000000E+00 0.  1.
         23    2    1    2    0    0  0.28772564126E+02 -0.62350308882E+01  0.22615115261E+03  0.24474829634E+03  0.88829323289E+02 0.  0.
         23    2    1    2    0    0 -0.28772564126E+02  0.62350308882E+01  0.36526477527E+02  0.10312229927E+03  0.91832940655E+02 0.  0.
          5    1    4    4  502    0 -0.62148895591E+02  0.69170379230E+01  0.24623723341E+02  0.67370233694E+02  0.47000000000E+01 0. -1.
         -5    1    4    4    0  502  0.33376331465E+02 -0.68200703477E+00  0.11902754186E+02  0.35752065575E+02  0.47000000000E+01 0.  1.
          5    1    3    3  503    0 -0.31738488386E+02  0.11787536900E+01  0.87876369908E+02  0.93557829675E+02  0.47000000000E+01 0. -1.
         -5    1    3    3    0  503  0.60511052512E+02 -0.74137845783E+01  0.13827478270E+03  0.15119046666E+03  0.47000000000E+01 0.  1.
<mgrwt>
<rscale>  0 0.95714635E+02</rscale>
<asrwt>0</asrwt>
<pdfrwt beam="1">  1        1 0.46965247E-01 0.96436637E+02</pdfrwt>
<pdfrwt beam="2">  1       -1 0.65533052E-02 0.96436637E+02</pdfrwt>
<totfact> 0.92320227E+03</totfact>
</mgrwt>
</event>
<event>
 8    1  0.5224537E-004  0.9982437E+02  0.7546771E-02  0.1283761E+00
         -2   -1    0    0    0  501 -0.00000000000E+00  0.00000000000E+00  0.54980744341E+02  0.54980744341E+02  0.00000000000E+00 0.  1.
          2   -1    0    0  501    0  0.00000000000E+00 -0.00000000000E+00 -0.24767661320E+03  0.24767661320E+03  0.00000000000E+00 0. -1.
         23    2    1    2    0    0  0.23823661308E+02  0.14619800423E+02 -0.10253762745E+02  0.94690947158E+02  0.89888433187E+02 0.  0.
         23    2    1    2    0    0 -0.23823661308E+02 -0.14619800423E+02 -0.18244210612E+03  0.20796641039E+03  0.95831103312E+02 0.  0.
          5    1    4    4  502    0 -0.38248240584E+02  0.23551593868E+02 -0.14677561586E+03  0.15356684829E+03  0.47000000000E+01 0. -1.
         -5    1    3    3    0  503  0.57904484231E+02  0.53443990054E+01 -0.90568747045E+01  0.59039045336E+02  0.47000000000E+01 0.  1.
          5    1    3    3  503    0 -0.34080822923E+02  0.92754014174E+01 -0.11968880403E+01  0.35651901822E+02  0.47000000000E+01 0. -1.
         -5    1    4    4    0  502  0.14424579276E+02 -0.38171394290E+02 -0.35666490254E+02  0.54399562098E+02  0.47000000000E+01 0.  1.
<mgrwt>
<rscale>  0 0.98370354E+02</rscale>
<asrwt>0</asrwt>
<pdfrwt beam="1">  1        2 0.38104094E-01 0.99824375E+02</pdfrwt>
<pdfrwt beam="2">  1       -2 0.84585761E-02 0.99824375E+02</pdfrwt>
<totfact> 0.10726440E+04</totfact>
</mgrwt>
</event>
<event>
 8    1  0.5224537E-004  0.1119252E+03  0.7546771E-02  0.1258331E+00
          3   -1    0    0  501    0  0.00000000000E+00  0.00000000000E+00  0.13562717954E+02  0.13562717954E+02  0.00000000000E+00 0. -1.
         -3   -1    0    0    0  501 -0.00000000000E+00 -0.00000000000E+00 -0.94397981335E+03  0.94397981335E+03  0.00000000000E+00 0.  1.
         23    2    1    2    0    0 -0.52602868327E+02  0.34408924360E+02 -0.35705098799E+03  0.37335425441E+03  0.89201768062E+02 0.  0.
         23    2    1    2    0    0  0.52602868327E+02 -0.34408924360E+02 -0.57336610741E+03  0.58418827690E+03  0.92607850166E+02 0.  0.
          5    1    3    3  502    0  0.20852330265E+02 -0.89646240242E+01 -0.62343584098E+02  0.66513131332E+02  0.47000000000E+01 0. -1.
         -5    1    3    3    0  502 -0.73455198592E+02  0.43373548384E+02 -0.29470740389E+03  0.30684112308E+03  0.47000000000E+01 0.  1.
          5    1    4    4  503    0  0.75556033324E+02 -0.24413380721E+02 -0.50510108552E+03  0.51132565349E+03  0.47000000000E+01 0. -1.
         -5    1    4    4    0  503 -0.22953164997E+02 -0.99955436384E+01 -0.68265021889E+02  0.72862623406E+02  0.47000000000E+01 0.  1.
<mgrwt>
<rscale>  0 0.11121816E+03</rscale>
<asrwt>0</asrwt>
<pdfrwt beam="1">  1        3 0.20865716E-02 0.11192520E+03</pdfrwt>
<pdfrwt beam="2">  1       -3 0.14522769E+00 0.11192520E+03</pdfrwt>
<totfact> 0.74638631E+02</totfact>
</mgrwt>
</event>
<event>
 8    1  0.5224537E-004  0.2153247E+03  0.7546771E-02  0.1137516E+00
         -2   -1    0    0    0  501 -0.00000000000E+00  0.00000000000E+00  0.51085625420E+02  0.51085625420E+02  0.00000000000E+00 0.  1.
          2   -1    0    0  501    0  0.00000000000E+00 -0.00000000000E+00 -0.92707692839E+03  0.92707692839E+03  0.00000000000E+00 0. -1.
         23    2    1    2    0    0 -0.58546895556E+02  0.18560605335E+03 -0.51323579266E+03  0.55657499220E+03  0.92127070175E+02 0.  0.
         23    2    1    2    0    0  0.58546895556E+02 -0.18560605335E+03 -0.36275551032E+03  0.42158756161E+03  0.90923956252E+02 0.  0.
          5    1    3    3  502    0 -0.43154708217E+02  0.93023512424E+02 -0.37940886746E+03  0.39305073644E+03  0.47000000000E+01 0. -1.
         -5    1    3    3    0  502 -0.15392187339E+02  0.92582540930E+02 -0.13382692519E+03  0.16352425576E+03  0.47000000000E+01 0.  1.
          5    1    4    4  503    0  0.13833420455E+01 -0.14368663220E+03 -0.24314981461E+03  0.28247421874E+03  0.47000000000E+01 0. -1.
         -5    1    4    4    0  503  0.57163553511E+02 -0.41919421158E+02 -0.11960569570E+03  0.13911334287E+03  0.47000000000E+01 0.  1.
<mgrwt>
<rscale>  0 0.21519662E+03</rscale>
<asrwt>0</asrwt>
<pdfrwt beam="1">  1        2 0.14262723E+00 0.21532474E+03</pdfrwt>
<pdfrwt beam="2">  1       -2 0.78593263E-02 0.21532474E+03</pdfrwt>
<totfact> 0.28215328E+03</totfact>
</mgrwt>
</event>
<event>
 8    1  0.5224537E-004  0.9152304E+02  0.7546771E-02  0.1300957E+00
          1   -1    0    0  501    0  0.00000000000E+00  0.00000000000E+00  0.14924205269E+03  0.14924205269E+03  0.00000000000E+00 0. -1.
         -1   -1    0    0    0  501 -0.00000000000E+00 -0.00000000000E+00 -0.67971995467E+02  0.67971995467E+02  0.00000000000E+00 0.  1.
         23    2    1    2    0    0 -0.14888278922E+02  0.56799265025E+01 -0.84919644717E+01  0.89020104981E+02  0.87169623241E+02 0.  0.
         23    2    1    2    0    0  0.14888278922E+02 -0.56799265025E+01  0.89762021696E+02  0.12819394318E+03  0.90125158052E+02 0.  0.
          5    1    3    3  502    0 -0.10315245816E+02  0.44129805139E+02  0.87147105616E+01  0.46388362528E+02  0.47000000000E+01 0. -1.
         -5    1    4    4    0  503  0.17319262488E+02 -0.46259057433E+02  0.39775684326E+02  0.63592863683E+02  0.47000000000E+01 0.  1.
          5    1    4    4  503    0 -0.24309835660E+01  0.40579130931E+02  0.49986337369E+02  0.64601079494E+02  0.47000000000E+01 0. -1.
         -5    1    3    3    0  502 -0.45730331063E+01 -0.38449878636E+02 -0.17206675033E+02  0.42631742454E+02  0.47000000000E+01 0.  1.
<mgrwt>
<rscale>  0 0.90786982E+02</rscale>
<asrwt>0</asrwt>
<pdfrwt beam="1">  1        1 0.22960316E-01 0.91523038E+02</pdfrwt>
<pdfrwt beam="2">  1       -1 0.10457230E-01 0.91523038E+02</pdfrwt>
<totfact> 0.11000714E+04</totfact>
</mgrwt>
</event>
<event>
 8    1  0.5224537E-004  0.1275665E+03  0.7546771E-02  0.1241992E+00
          1   -1    0    0  501    0  0.00000000000E+00  0.00000000000E+00  0.65145128912E+02  0.65145128912E+02  0.00000000000E+00 0. -1.
         -1   -1    0    0    0  501 -0.00000000000E+00 -0.00000000000E+00 -0.44278130396E+03  0.44278130396E+03  0.00000000000E+00 0.  1.
         23    2    1    2    0    0  0.25824254487E+01 -0.44163181208E+02 -0.38493213337E+03  0.40551936949E+03  0.11965014096E+03 0.  0.
         23    2    1    2    0    0 -0.25824254487E+01  0.44163181208E+02  0.72959583214E+01  0.10240706339E+03  0.92070191312E+02 0.  0.
          5    1    3    3  502    0 -0.27011550701E+02  0.16550134641E+02 -0.28998013312E+02  0.43203074010E+02  0.47000000000E+01 0. -1.
         -5    1    4    4    0  503 -0.29431307958E+02 -0.17261197719E+02  0.72980455236E+01  0.35206566195E+02  0.47000000000E+01 0.  1.
          5    1    4    4  503    0  0.26848882509E+02  0.61424378927E+02 -0.20872021967E-02  0.67200497192E+02  0.47000000000E+01 0. -1.
         -5    1    3    3    0  502  0.29593976150E+02 -0.60713315849E+02 -0.35593412006E+03  0.36231629548E+03  0.47000000000E+01 0.  1.
<mgrwt>
<rscale>  0 0.12067261E+03</rscale>
<asrwt>0</asrwt>
<pdfrwt beam="1">  1        1 0.10022327E-01 0.12756650E+03</pdfrwt>
<pdfrwt beam="2">  1       -1 0.68120201E-01 0.12756650E+03</pdfrwt>
<totfact> 0.14148023E+03</totfact>
</mgrwt>
</event>
<event>
 8    1  0.5224537E-004  0.1165917E+03  0.7546771E-02  0.1249409E+00
         -1   -1    0    0    0  501 -0.00000000000E+00  0.00000000000E+00  0.12324298418E+03  0.12324298418E+03  0.00000000000E+00 0.  1.
          1   -1    0    0  501    0  0.00000000000E+00 -0.00000000000E+00 -0.12262613066E+03  0.12262613066E+03  0.00000000000E+00 0. -1.
         23    2    1    2    0    0  0.50277799486E+02 -0.53244261935E+02 -0.40625297890E+02  0.12346670946E+03  0.90723783910E+02 0.  0.
         23    2    1    2    0    0 -0.50277799486E+02  0.53244261935E+02  0.41242151417E+02  0.12240240538E+03  0.88986657647E+02 0.  0.
          5    1    4    4  502    0 -0.26569202605E+02 -0.57937161326E+00 -0.22796201243E+02  0.35327255620E+02  0.47000000000E+01 0. -1.
         -5    1    4    4    0  502 -0.23708596881E+02  0.53823633548E+02  0.64038352659E+02  0.87075149760E+02  0.47000000000E+01 0.  1.
          5    1    3    3  503    0  0.20553422385E+02 -0.75344565041E+02 -0.19762525080E+02  0.80696307540E+02  0.47000000000E+01 0. -1.
         -5    1    3    3    0  503  0.29724377100E+02  0.22100303106E+02 -0.20862772810E+02  0.42770401924E+02  0.47000000000E+01 0.  1.
<mgrwt>
<rscale>  0 0.11625355E+03</rscale>
<asrwt>0</asrwt>
<pdfrwt beam="1">  1        1 0.18865559E-01 0.11659165E+03</pdfrwt>
<pdfrwt beam="2">  1       -1 0.18960459E-01 0.11659165E+03</pdfrwt>
<totfact> 0.57116776E+03</totfact>
</mgrwt>
</event>
<event>
 8    1  0.5224537E-004  0.1201195E+03  0.7546771E-02  0.1243670E+00
          2   -1    0    0  501    0  0.00000000000E+00  0.00000000000E+00  0.22526064385E+03  0.22526064385E+03  0.00000000000E+00 0. -1.
         -2   -1    0    0    0  501 -0.00000000000E+00 -0.00000000000E+00 -0.63247421063E+02  0.63247421063E+02  0.00000000000E+00 0.  1.
         23    2    1    2    0    0  0.20823934260E+02  0.72399431266E+02  0.72701217746E+02  0.13882394478E+03  0.91166368238E+02 0.  0.
         23    2    1    2    0    0 -0.20823934260E+02 -0.72399431266E+02  0.89312005041E+02  0.14968412013E+03  0.93559540876E+02 0.  0.
          5    1    4    4  502    0 -0.39584450447E+02 -0.46938220166E+02  0.98722398522E+02  0.11635431749E+03  0.47000000000E+01 0. -1.
         -5    1    4    4    0  502  0.18760516186E+02 -0.25461211100E+02 -0.94103934812E+01  0.33329802636E+02  0.47000000000E+01 0.  1.
          5    1    3    3  503    0  0.82899079859E+01 -0.20887063075E+02  0.72223694280E+01  0.24067500877E+02  0.47000000000E+01 0. -1.
         -5    1    3    3    0  503  0.12534026274E+02  0.93286494340E+02  0.65478848318E+02  0.11475644391E+03  0.47000000000E+01 0.  1.
<mgrwt>
<rscale>  0 0.11965320E+03</rscale>
<asrwt>0</asrwt>
<pdfrwt beam="1">  1        2 0.34655483E-01 0.12011953E+03</pdfrwt>
<pdfrwt beam="2">  1       -2 0.97303725E-02 0.12011953E+03</pdfrwt>
<totfact> 0.96948537E+03</totfact>
</mgrwt>
</event>
<event>
 8    1  0.5224537E-004  0.1699350E+03  0.7546771E-02  0.1180961E+00
          2   -1    0    0  501    0  0.00000000000E+00  0.00000000000E+00  0.38152081418E+03  0.38152081418E+03  0.00000000000E+00 0. -1.
         -2   -1    0    0    0  501 -0.00000000000E+00 -0.00000000000E+00 -0.10012595028E+03  0.10012595028E+03  0.00000000000E+00 0.  1.
         23    2    1    2    0    0  0.48729014841E+02 -0.12107865221E+03  0.26765491870E+03  0.31115717419E+03  0.90250067238E+02 0.  0.
         23    2    1    2    0    0 -0.48729014841E+02  0.12107865221E+03  0.13739945206E+02  0.17048959028E+03  0.10882719050E+03 0.  0.
          5    1    4    4  502    0 -0.74270025182E+02  0.49211063799E+02 -0.11629009440E+02  0.89972714204E+02  0.47000000000E+01 0. -1.
         -5    1    4    4    0  502  0.25541010341E+02  0.71867588409E+02  0.25368954646E+02  0.80516876074E+02  0.47000000000E+01 0.  1.
          5    1    3    3  503    0 -0.97287781841E+01 -0.18591914575E+02  0.12089292823E+03  0.12279046587E+03  0.47000000000E+01 0. -1.
         -5    1    3    3    0  503  0.58457793025E+02 -0.10248673763E+03  0.14676199047E+03  0.18836670832E+03  0.47000000000E+01 0.  1.
<mgrwt>
<rscale>  0 0.16704880E+03</rscale>
<asrwt>0</asrwt>
<pdfrwt beam="1">  1        2 0.58695509E-01 0.16993503E+03</pdfrwt>
<pdfrwt beam="2">  1       -2 0.15403993E-01 0.16993503E+03</pdfrwt>
<totfact> 0.27024858E+03</totfact>
</mgrwt>
</event>
<event>
 8    1  0.5224537E-004  0.9722284E+02  0.7546771E-02  0.1286302E+00
         -2   -1    0    0    0  501 -0.00000000000E+00  0.00000000000E+00  0.57531086321E+03  0.57531086321E+03  0.00000000000E+00 0.  1.
          2   -1    0    0  501    0  0.00000000000E+00 -0.00000000000E+00 -0.18511177946E+02  0.18511177946E+02  0.00000000000E+00 0. -1.
         23    2    1    2    0    0  0.24860795547E+02 -0.24262050216E+02  0.17830867897E+03  0.20304368751E+03  0.90697562289E+02 0.  0.
         23    2    1    2    0    0 -0.24860795547E+02  0.24262050216E+02  0.37849100630E+03  0.39077835365E+03  0.90805140809E+02 0.  0.
          5    1    4    4  502    0 -0.23354683508E+02  0.51678240123E+02  0.32987260278E+03  0.33474483687E+03  0.47000000000E+01 0. -1.
         -5    1    3    3    0  503  0.13377876352E+02  0.20586263601E+02  0.14155879470E+03  0.14374889280E+03  0.47000000000E+01 0.  1.
          5    1    3    3  503    0  0.11482919196E+02 -0.44848313817E+02  0.36749884269E+02  0.59294794706E+02  0.47000000000E+01 0. -1.
         -5    1    4    4    0  502 -0.15061120395E+01 -0.27416189907E+02  0.48618403516E+02  0.56033516782E+02  0.47000000000E+01 0.  1.
<mgrwt>
<rscale>  0 0.97197709E+02</rscale>
<asrwt>0</asrwt>
<pdfrwt beam="1">  1        2 0.28478740E-02 0.97222836E+02</pdfrwt>
<pdfrwt beam="2">  1       -2 0.88509350E-01 0.97222836E+02</pdfrwt>
<totfact> 0.35284970E+03</totfact>
</mgrwt>
</event>
<event>
 8    1  0.5224537E-004  0.1177798E+03  0.7546771E-02  0.1246868E+00
          3   -1    0    0  501    0  0.00000000000E+00  0.00000000000E+00  0.61785551935E+02  0.61785551935E+02  0.00000000000E+00 0. -1.
         -3   -1    0    0    0  501 -0.00000000000E+00 -0.00000000000E+00 -0.22500274914E+03  0.22500274914E+03  0.00000000000E+00 0.  1.
         23    2    1    2    0    0 -0.57155919204E+02  0.47430212701E+02 -0.90018834872E+02  0.14824124911E+03  0.91409261720E+02 0.  0.
         23    2    1    2    0    0  0.57155919204E+02 -0.47430212701E+02 -0.73198362338E+02  0.13854705197E+03  0.91218754564E+02 0.  0.
          5    1    3    3  502    0  0.59105816043E+01  0.41140970872E+02 -0.70115312339E+02  0.81644114813E+02  0.47000000000E+01 0. -1.
         -5    1    4    4    0  503  0.73678395352E+01 -0.56955817006E+02 -0.65200568712E+02  0.87014104090E+02  0.47000000000E+01 0.  1.
          5    1    4    4  503    0  0.49788079669E+02  0.95256043045E+01 -0.79977936251E+01  0.51532947882E+02  0.47000000000E+01 0. -1.
         -5    1    3    3    0  502 -0.63066500809E+02  0.62892418290E+01 -0.19903522533E+02  0.66597134295E+02  0.47000000000E+01 0.  1.
<mgrwt>
<rscale>  0 0.11774282E+03</rscale>
<asrwt>0</asrwt>
<pdfrwt beam="1">  1        3 0.95054696E-02 0.11777978E+03</pdfrwt>
<pdfrwt beam="2">  1       -3 0.34615807E-01 0.11777978E+03</pdfrwt>
<totfact> 0.14760724E+03</totfact>
</mgrwt>
</event>
<event>
 8    1  0.5224537E-004  0.9536441E+02  0.7546771E-02  0.1292609E+00
          2   -1    0    0  501    0  0.00000000000E+00  0.00000000000E+00  0.15344338444E+03  0.15344338444E+03  0.00000000000E+00 0. -1.
         -2   -1    0    0    0  501 -0.00000000000E+00 -0.00000000000E+00 -0.59049613477E+02  0.59049613477E+02  0.00000000000E+00 0.  1.
         23    2    1    2    0    0  0.85263194342E+01 -0.20327901049E+02  0.68644924510E+02  0.11750105125E+03  0.92781731498E+02 0.  0.
         23    2    1    2    0    0 -0.85263194342E+01  0.20327901049E+02  0.25748846450E+02  0.94991946663E+02  0.88738633938E+02 0.  0.
          5    1    3    3  502    0 -0.65749362600E+01 -0.55069629140E+02  0.50827610989E+02  0.75375260393E+02  0.47000000000E+01 0. -1.
         -5    1    3    3    0  502  0.15101255694E+02  0.34741728091E+02  0.17817313520E+02  0.42125790858E+02  0.47000000000E+01 0.  1.
          5    1    4    4  503    0 -0.45716473729E+02 -0.15735055786E+01  0.23191710180E+02  0.51501624354E+02  0.47000000000E+01 0. -1.
         -5    1    4    4    0  503  0.37190154294E+02  0.21901406627E+02  0.25571362703E+01  0.43490322310E+02  0.47000000000E+01 0.  1.
<mgrwt>
<rscale>  0 0.94366658E+02</rscale>
<asrwt>0</asrwt>
<pdfrwt beam="1">  1        2 0.23606674E-01 0.95364414E+02</pdfrwt>
<pdfrwt beam="2">  1       -2 0.90845560E-02 0.95364414E+02</pdfrwt>
<totfact> 0.15996609E+04</totfact>
</mgrwt>
</event>
<event>
 8    1  0.5224537E-004  0.9744058E+02  0.7546771E-02  0.1288081E+00
          3   -1    0    0  501    0  0.00000000000E+00  0.00000000000E+00  0.19630070944E+03  0.19630070944E+03  0.00000000000E+00 0. -1.
         -3   -1    0    0    0  501 -0.00000000000E+00 -0.00000000000E+00 -0.53732246293E+02  0.53732246293E+02  0.00000000000E+00 0.  1.
         23    2    1    2    0    0 -0.11812438098E+02 -0.64871091644E+01  0.11900290306E+03  0.15380623243E+03  0.96504144566E+02 0.  0.
         23    2    1    2    0    0  0.11812438098E+02  0.64871091644E+01  0.23565560089E+02  0.96226723305E+02  0.92318093441E+02 0.  0.
          5    1    4    4  502    0 -0.35436346341E+02 -0.17120279257E+02  0.45580771986E+01  0.39896173646E+02  0.47000000000E+01 0. -1.
         -5    1    4    4    0  502  0.47248784439E+02  0.23607388422E+02  0.19007482890E+02  0.56330549659E+02  0.47000000000E+01 0.  1.
          5    1    3    3  503    0 -0.10681696726E+02  0.43857258021E+02  0.69718297138E+02  0.83188272502E+02  0.47000000000E+01 0. -1.
         -5    1    3    3    0  503 -0.11307413713E+01 -0.50344367186E+02  0.49284605920E+02  0.70617959926E+02  0.47000000000E+01 0.  1.
<mgrwt>
<rscale>  0 0.96387627E+02</rscale>
<asrwt>0</asrwt>
<pdfrwt beam="1">  1        3 0.30200109E-01 0.97440578E+02</pdfrwt>
<pdfrwt beam="2">  1       -3 0.82664996E-02 0.97440578E+02</pdfrwt>
<totfact> 0.23048110E+03</totfact>
</mgrwt>
</event>
<event>
 8    1  0.5224537E-004  0.9368657E+02  0.7546771E-02  0.1297427E+00
         -1   -1    0    0    0  501 -0.00000000000E+00  0.00000000000E+00  0.17311505513E+03  0.17311505513E+03  0.00000000000E+00 0.  1.
          1   -1    0    0  501    0  0.00000000000E+00 -0.00000000000E+00 -0.48597804815E+02  0.48597804815E+02  0.00000000000E+00 0. -1.
         23    2    1    2    0    0  0.23044452749E+02  0.72900768248E+01  0.49601064159E+02  0.10600678319E+03  0.90515084351E+02 0.  0.
         23    2    1    2    0    0 -0.23044452749E+02 -0.72900768248E+01  0.74916186157E+02  0.11570607675E+03  0.84801351559E+02 0.  0.
          5    1    3    3  502    0  0.43083806060E+02  0.26702064728E+01 -0.84548410888E+01  0.44237073649E+02  0.47000000000E+01 0. -1.
         -5    1    4    4    0  503  0.24572645331E+01 -0.32339401565E+02  0.22930433087E+00  0.32772208089E+02  0.47000000000E+01 0.  1.
          5    1    4    4  503    0 -0.25501717282E+02  0.25049324740E+02  0.74686881827E+02  0.82933868662E+02  0.47000000000E+01 0. -1.
         -5    1    3    3    0  502 -0.20039353311E+02  0.46198703520E+01  0.58055905248E+02  0.61769709545E+02  0.47000000000E+01 0.  1.
<mgrwt>
<rscale>  0 0.92278124E+02</rscale>
<asrwt>0</asrwt>
<pdfrwt beam="1">  1        1 0.74765855E-02 0.93686565E+02</pdfrwt>
<pdfrwt beam="2">  1       -1 0.26633085E-01 0.93686565E+02</pdfrwt>
<totfact> 0.10813343E+04</totfact>
</mgrwt>
</event>
<event>
 8    1  0.5224537E-004  0.9876576E+02  0.7546771E-02  0.1289002E+00
          1   -1    0    0  501    0  0.00000000000E+00  0.00000000000E+00  0.23604982715E+02  0.23604982715E+02  0.00000000000E+00 0. -1.
         -1   -1    0    0    0  501 -0.00000000000E+00 -0.00000000000E+00 -0.42082799499E+03  0.42082799499E+03  0.00000000000E+00 0.  1.
         23    2    1    2    0    0  0.13885041594E+02  0.16678142230E+02 -0.26599209438E+03  0.28018856055E+03  0.85339793653E+02 0.  0.
         23    2    1    2    0    0 -0.13885041594E+02 -0.16678142230E+02 -0.13123091789E+03  0.16424441715E+03  0.96352062496E+02 0.  0.
          5    1    4    4  502    0  0.36265966910E+02  0.13350689514E+02 -0.40207259339E+02  0.55965837526E+02  0.47000000000E+01 0. -1.
         -5    1    3    3    0  503  0.35579833725E+01  0.34901203310E+02 -0.25220302214E+03  0.25467470941E+03  0.47000000000E+01 0.  1.
          5    1    3    3  503    0  0.10327058221E+02 -0.18223061080E+02 -0.13789072248E+02  0.25513851142E+02  0.47000000000E+01 0. -1.
         -5    1    4    4    0  502 -0.50151008504E+02 -0.30028831744E+02 -0.91023658554E+02  0.10827857963E+03  0.47000000000E+01 0.  1.
<mgrwt>
<rscale>  0 0.95971961E+02</rscale>
<asrwt>0</asrwt>
<pdfrwt beam="1">  1        1 0.36315360E-02 0.98765757E+02</pdfrwt>
<pdfrwt beam="2">  1       -1 0.64742766E-01 0.98765757E+02</pdfrwt>
<totfact> 0.60433564E+03</totfact>
</mgrwt>
</event>
<event>
 8    1  0.5224537E-004  0.9317071E+02  0.7546771E-02  0.1295410E+00
         -1   -1    0    0    0  501 -0.00000000000E+00  0.00000000000E+00  0.15326852201E+03  0.15326852201E+03  0.00000000000E+00 0.  1.
          1   -1    0    0  501    0  0.00000000000E+00 -0.00000000000E+00 -0.88398870066E+02  0.88398870066E+02  0.00000000000E+00 0. -1.
         23    2    1    2    0    0 -0.71342788248E+01 -0.18918578262E+02 -0.40054503879E+02  0.10141570324E+03  0.90950376827E+02 0.  0.
         23    2    1    2    0    0  0.71342788248E+01  0.18918578262E+02  0.10492415583E+03  0.14025168884E+03  0.90844081857E+02 0.  0.
          5    1    4    4  502    0  0.40519941541E+02 -0.34875650530E+01  0.18723166773E+02  0.45018615555E+02  0.47000000000E+01 0. -1.
         -5    1    4    4    0  502 -0.33385662716E+02  0.22406143315E+02  0.86200989054E+02  0.95233073284E+02  0.47000000000E+01 0.  1.
          5    1    3    3  503    0  0.29713480591E+02 -0.30668487377E+02 -0.44916377987E+02  0.62153182205E+02  0.47000000000E+01 0. -1.
         -5    1    3    3    0  503 -0.36847759416E+02  0.11749909115E+02  0.48618741077E+01  0.39262521035E+02  0.47000000000E+01 0.  1.
<mgrwt>
<rscale>  0 0.93144761E+02</rscale>
<asrwt>0</asrwt>
<pdfrwt beam="1">  1        1 0.13599826E-01 0.93170712E+02</pdfrwt>
<pdfrwt beam="2">  1       -1 0.23579773E-01 0.93170712E+02</pdfrwt>
<totfact> 0.60180333E+03</totfact>
</mgrwt>
</event>
<event>
 8    1  0.5224537E-004  0.1020007E+03  0.7546771E-02  0.1281431E+00
          4   -1    0    0  501    0  0.00000000000E+00  0.00000000000E+00  0.44531486562E+03  0.44531486562E+03  0.00000000000E+00 0. -1.
         -4   -1    0    0    0  501 -0.00000000000E+00 -0.00000000000E+00 -0.23427679752E+02  0.23427679752E+02  0.00000000000E+00 0.  1.
         23    2    1    2    0    0  0.16866534701E+02 -0.31053390785E+02  0.14798258769E+03  0.17973034250E+03  0.95683628091E+02 0.  0.
         23    2    1    2    0    0 -0.16866534701E+02  0.31053390785E+02  0.27390459818E+03  0.28901220287E+03  0.85179407327E+02 0.  0.
          5    1    3    3  502    0  0.34037840801E+01  0.28051626234E+02  0.94527045682E+02  0.98772120792E+02  0.47000000000E+01 0. -1.
         -5    1    4    4    0  503  0.22457810588E+02 -0.10610571194E+02  0.34301825078E+02  0.42610358848E+02  0.47000000000E+01 0.  1.
          5    1    4    4  503    0 -0.39324345289E+02  0.41663961979E+02  0.23960277310E+03  0.24640184402E+03  0.47000000000E+01 0. -1.
         -5    1    3    3    0  502  0.13462750621E+02 -0.59105017019E+02  0.53455542007E+02  0.80958221710E+02  0.47000000000E+01 0.  1.
<mgrwt>
<rscale>  0 0.99462060E+02</rscale>
<asrwt>0</asrwt>
<pdfrwt beam="1">  1        4 0.68509973E-01 0.10200073E+03</pdfrwt>
<pdfrwt beam="2">  1       -4 0.36042588E-02 0.10200073E+03</pdfrwt>
<totfact> 0.12470022E+03</totfact>
</mgrwt>
</event>
<event>
 8    1  0.5224537E-004  0.1243006E+03  0.7546771E-02  0.1245264E+00
         -2   -1    0    0    0  501 -0.00000000000E+00  0.00000000000E+00  0.32794053835E+02  0.32794053835E+02  0.00000000000E+00 0.  1.
          2   -1    0    0  501    0  0.00000000000E+00 -0.00000000000E+00 -0.50710227942E+03  0.50710227942E+03  0.00000000000E+00 0. -1.
         23    2    1    2    0    0  0.55457307708E+02  0.35785785455E+02 -0.93699214354E+02  0.13950420413E+03  0.79534550869E+02 0.  0.
         23    2    1    2    0    0 -0.55457307708E+02 -0.35785785455E+02 -0.38060901123E+03  0.40039212912E+03  0.10533044295E+03 0.  0.
          5    1    3    3  502    0 -0.18491951523E+02  0.19499920007E+02 -0.28740028316E+02  0.39626738183E+02  0.47000000000E+01 0.  1.
         -5    1    4    4    0  503 -0.17532570045E+02 -0.54436018340E+02 -0.90331586049E+02  0.10701661807E+03  0.47000000000E+01 0.  1.
          5    1    4    4  503    0 -0.37924737663E+02  0.18650232885E+02 -0.29027742518E+03  0.29337551105E+03  0.47000000000E+01 0. -1.
         -5    1    3    3    0  502  0.73949259231E+02  0.16285865448E+02 -0.64959186038E+02  0.99877465952E+02  0.47000000000E+01 0. -1.
<mgrwt>
<rscale>  0 0.11869594E+03</rscale>
<asrwt>0</asrwt>
<pdfrwt beam="1">  1        2 0.78015736E-01 0.12430059E+03</pdfrwt>
<pdfrwt beam="2">  1       -2 0.50452390E-02 0.12430059E+03</pdfrwt>
<totfact> 0.11173762E+04</totfact>
</mgrwt>
</event>
<event>
 8    1  0.5224537E-004  0.1072159E+03  0.7546771E-02  0.1270621E+00
         -1   -1    0    0    0  501 -0.00000000000E+00  0.00000000000E+00  0.31690414282E+02  0.31690414282E+02  0.00000000000E+00 0.  1.
          1   -1    0    0  501    0  0.00000000000E+00 -0.00000000000E+00 -0.46857795824E+03  0.46857795824E+03  0.00000000000E+00 0. -1.
         23    2    1    2    0    0 -0.30178023599E+02  0.45473419296E+02 -0.75900041819E+02  0.12369537223E+03  0.81001134512E+02 0.  0.
         23    2    1    2    0    0  0.30178023599E+02 -0.45473419296E+02 -0.36098750214E+03  0.37657300029E+03  0.92285984189E+02 0.  0.
          5    1    4    4  502    0  0.59942062869E+02 -0.40556260246E+02 -0.29623067995E+03  0.30497961717E+03  0.47000000000E+01 0. -1.
         -5    1    3    3    0  503 -0.59387008887E+01  0.60162133188E+02 -0.25705851766E+02  0.65860695813E+02  0.47000000000E+01 0.  1.
          5    1    3    3  503    0 -0.24239322710E+02 -0.14688713892E+02 -0.50194190054E+02  0.57834676418E+02  0.47000000000E+01 0.  1.
         -5    1    4    4    0  502 -0.29764039270E+02 -0.49171590499E+01 -0.64756822192E+02  0.71593383125E+02  0.47000000000E+01 0.  1.
<mgrwt>
<rscale>  0 0.10474574E+03</rscale>
<asrwt>0</asrwt>
<pdfrwt beam="1">  1        1 0.72088915E-01 0.10721589E+03</pdfrwt>
<pdfrwt beam="2">  1       -1 0.48754484E-02 0.10721589E+03</pdfrwt>
<totfact> 0.84465484E+03</totfact>
</mgrwt>
</event>
<event>
 8    1  0.5224537E-004  0.9349509E+02  0.7546771E-02  0.1294885E+00
          2   -1    0    0  501    0  0.00000000000E+00  0.00000000000E+00  0.18198426197E+02  0.18198426197E+02  0.00000000000E+00 0. -1.
         -2   -1    0    0    0  501 -0.00000000000E+00 -0.00000000000E+00 -0.48207093885E+03  0.48207093885E+03  0.00000000000E+00 0.  1.
         23    2    1    2    0    0  0.38502056608E+01  0.19223925845E+02 -0.25602790011E+03  0.27256488675E+03  0.91416346708E+02 0.  0.
         23    2    1    2    0    0 -0.38502056608E+01 -0.19223925845E+02 -0.20784461254E+03  0.22770447830E+03  0.90915142110E+02 0.  0.
          5    1    4    4  502    0  0.18421542689E+02 -0.32608567986E+02 -0.30845062516E+02  0.48746074947E+02  0.47000000000E+01 0. -1.
         -5    1    4    4    0  502 -0.22271748349E+02  0.13384642141E+02 -0.17699955003E+03  0.17895840335E+03  0.47000000000E+01 0.  1.
          5    1    3    3  503    0  0.43642321538E+02 -0.76369727672E+01 -0.10635107910E+03  0.11530662430E+03  0.47000000000E+01 0. -1.
         -5    1    3    3    0  503 -0.39792115877E+02  0.26860898612E+02 -0.14967682101E+03  0.15725826245E+03  0.47000000000E+01 0.  1.
<mgrwt>
<rscale>  0 0.93372348E+02</rscale>
<asrwt>0</asrwt>
<pdfrwt beam="1">  1        2 0.27997579E-02 0.93495090E+02</pdfrwt>
<pdfrwt beam="2">  1       -2 0.74164760E-01 0.93495090E+02</pdfrwt>
<totfact> 0.52870124E+03</totfact>
</mgrwt>
</event>
<event>
 7    1  0.5224537E-004  0.2147383E+03  0.7546771E-02  0.1172786E+00
         -2   -1    0    0    0  501 -0.00000000000E+00  0.00000000000E+00  0.32894777793E+02  0.32894777793E+02  0.00000000000E+00 0.  1.
          2   -1    0    0  501    0  0.00000000000E+00 -0.00000000000E+00 -0.78247927598E+03  0.78247927598E+03  0.00000000000E+00 0. -1.
         23    2    1    2    0    0  0.34674134859E+01  0.27956939403E+02 -0.33995085780E+03  0.35286756063E+03  0.90306789394E+02 0.  0.
          5    1    3    3  502    0 -0.29021354988E+01  0.55914482856E+02 -0.28719079664E+03  0.29263543096E+03  0.47000000000E+01 0. -1.
         -5    1    3    3    0  502  0.63695489847E+01 -0.27957543454E+02 -0.52760061160E+02  0.60232129664E+02  0.47000000000E+01 0.  1.
          5    1    1    2  503    0  0.51017965358E+02 -0.34113039516E+02 -0.40230633480E+03  0.40698772619E+03  0.47000000000E+01 0. -1.
         -5    1    1    2    0  503 -0.54485378844E+02  0.61561001136E+01 -0.73273055941E+01  0.55518766950E+02  0.47000000000E+01 0.  1.
<mgrwt>
<rscale>  0 0.17494580E+03</rscale>
<asrwt>0</asrwt>
<pdfrwt beam="1">  1        2 0.12038141E+00 0.21473830E+03</pdfrwt>
<pdfrwt beam="2">  1       -2 0.50607356E-02 0.21473830E+03</pdfrwt>
<totfact> 0.69235450E+03</totfact>
</mgrwt>
</event>
<event>
 8    1  0.5224537E-004  0.1044152E+03  0.7546771E-02  0.1276272E+00
          4   -1    0    0  501    0  0.00000000000E+00  0.00000000000E+00  0.26643036400E+02  0.26643036400E+02  0.00000000000E+00 0. -1.
         -4   -1    0    0    0  501 -0.00000000000E+00 -0.00000000000E+00 -0.37734727604E+03  0.37734727604E+03  0.00000000000E+00 0.  1.
         23    2    1    2    0    0 -0.12945150816E+02  0.30580256516E+02 -0.20629165949E+03  0.23121154523E+03  0.98993943522E+02 0.  0.
         23    2    1    2    0    0  0.12945150816E+02 -0.30580256516E+02 -0.14441258014E+03  0.17277876721E+03  0.88852574948E+02 0.  0.
          5    1    4    4  502    0 -0.33006105150E+02 -0.30446005652E+02 -0.94739905411E+02  0.10494809152E+03  0.47000000000E+01 0. -1.
         -5    1    3    3    0  503  0.49299837880E+01 -0.20930514294E+02 -0.15384521617E+03  0.15541181328E+03  0.47000000000E+01 0.  1.
          5    1    3    3  503    0 -0.17875134604E+02  0.51510770810E+02 -0.52446443322E+02  0.75799731950E+02  0.47000000000E+01 0. -1.
         -5    1    4    4    0  502  0.45951255966E+02 -0.13425086379E+00 -0.49672674733E+02  0.67830675681E+02  0.47000000000E+01 0.  1.
<mgrwt>
<rscale>  0 0.10193845E+03</rscale>
<asrwt>0</asrwt>
<pdfrwt beam="1">  1        4 0.40989290E-02 0.10441518E+03</pdfrwt>
<pdfrwt beam="2">  1       -4 0.58053422E-01 0.10441518E+03</pdfrwt>
<totfact> 0.14512870E+03</totfact>
</mgrwt>
</event>
<event>
 8    1  0.5224537E-004  0.9408922E+02  0.7546771E-02  0.1294139E+00
          3   -1    0    0  501    0  0.00000000000E+00  0.00000000000E+00  0.70840136589E+03  0.70840136589E+03  0.00000000000E+00 0. -1.
         -3   -1    0    0    0  501 -0.00000000000E+00 -0.00000000000E+00 -0.15516964679E+02  0.15516964679E+02  0.00000000000E+00 0.  1.
         23    2    1    2    0    0 -0.19997681366E+02 -0.17893518690E+01  0.50919573244E+03  0.51753444694E+03  0.90324419733E+02 0.  0.
         23    2    1    2    0    0  0.19997681366E+02  0.17893518690E+01  0.18368866877E+03  0.20638388363E+03  0.91922093889E+02 0.  0.
          5    1    3    3  502    0 -0.44191087081E+02 -0.30859359808E+02  0.27748680865E+03  0.28271217031E+03  0.47000000000E+01 0. -1.
         -5    1    4    4    0  503 -0.33956705466E+02 -0.14248672085E+01  0.10756889323E+03  0.11290812585E+03  0.47000000000E+01 0.  1.
          5    1    4    4  503    0  0.53954386832E+02  0.32142190775E+01  0.76119775542E+02  0.93475757773E+02  0.47000000000E+01 0. -1.
         -5    1    3    3    0  502  0.24193405715E+02  0.29070007939E+02  0.23170892378E+03  0.23482227663E+03  0.47000000000E+01 0.  1.
<mgrwt>
<rscale>  0 0.93696704E+02</rscale>
<asrwt>0</asrwt>
<pdfrwt beam="1">  1        3 0.10898480E+00 0.94089215E+02</pdfrwt>
<pdfrwt beam="2">  1       -3 0.23872259E-02 0.94089215E+02</pdfrwt>
<totfact> 0.11674307E+03</totfact>
</mgrwt>
</event>
<event>
 8    1  0.5224537E-004  0.1866146E+03  0.7546771E-02  0.1163679E+00
         -4   -1    0    0    0  501 -0.00000000000E+00  0.00000000000E+00  0.22154121911E+03  0.22154121911E+03  0.00000000000E+00 0.  1.
          4   -1    0    0  501    0  0.00000000000E+00 -0.00000000000E+00 -0.29654426122E+03  0.29654426122E+03  0.00000000000E+00 0. -1.
         23    2    1    2    0    0  0.12832204693E+03  0.81684239937E+02  0.14521094579E+03  0.22943480713E+03  0.91734667183E+02 0.  0.
         23    2    1    2    0    0 -0.12832204693E+03 -0.81684239937E+02 -0.22021398790E+03  0.28865067320E+03  0.10810248789E+03 0.  0.
          5    1    3    3  502    0  0.67959837381E+01  0.41941614846E+02  0.67006792569E+02  0.79481348134E+02  0.47000000000E+01 0. -1.
         -5    1    3    3    0  502  0.12152606319E+03  0.39742625091E+02  0.78204153224E+02  0.14995345900E+03  0.47000000000E+01 0.  1.
          5    1    4    4  503    0 -0.10730206628E+03 -0.10021275733E+03 -0.21400222085E+03  0.25956766109E+03  0.47000000000E+01 0. -1.
         -5    1    4    4    0  503 -0.21019980647E+02  0.18528517390E+02 -0.62117670561E+01  0.29083012104E+02  0.47000000000E+01 0.  1.
<mgrwt>
<rscale>  0 0.18432796E+03</rscale>
<asrwt>0</asrwt>
<pdfrwt beam="1">  1        4 0.45622194E-01 0.18661460E+03</pdfrwt>
<pdfrwt beam="2">  1       -4 0.34083264E-01 0.18661460E+03</pdfrwt>
<totfact> 0.68486610E+01</totfact>
</mgrwt>
</event>
<event>
 8    1  0.5224537E-004  0.1098450E+03  0.7546771E-02  0.1260976E+00
          1   -1    0    0  501    0  0.00000000000E+00  0.00000000000E+00  0.35741275062E+03  0.35741275062E+03  0.00000000000E+00 0. -1.
         -1   -1    0    0    0  501 -0.00000000000E+00 -0.00000000000E+00 -0.34619057439E+02  0.34619057439E+02  0.00000000000E+00 0.  1.
         23    2    1    2    0    0 -0.15659408330E+02  0.60184821272E+02  0.19386028479E+03  0.22281773714E+03  0.90545591741E+02 0.  0.
         23    2    1    2    0    0  0.15659408330E+02 -0.60184821272E+02  0.12893340839E+03  0.16921407092E+03  0.90233852947E+02 0.  0.
          5    1    3    3  502    0  0.36506006845E+02  0.28010698870E+02  0.10534591807E+03  0.11505277155E+03  0.47000000000E+01 0. -1.
         -5    1    4    4    0  503  0.15388723183E+02  0.21844370923E+02  0.37528237976E+02  0.46308184890E+02  0.47000000000E+01 0.  1.
          5    1    4    4  503    0  0.27068514708E+00 -0.82029192194E+02  0.91405170413E+02  0.12290588603E+03  0.47000000000E+01 0. -1.
         -5    1    3    3    0  502 -0.52165415175E+02  0.32174122402E+02  0.88514366721E+02  0.10776496559E+03  0.47000000000E+01 0.  1.
<mgrwt>
<rscale>  0 0.10978078E+03</rscale>
<asrwt>0</asrwt>
<pdfrwt beam="1">  1        1 0.54986574E-01 0.10984505E+03</pdfrwt>
<pdfrwt beam="2">  1       -1 0.53260091E-02 0.10984505E+03</pdfrwt>
<totfact> 0.10439878E+04</totfact>
</mgrwt>
</event>
<event>
 8    1  0.5224537E-004  0.9598148E+02  0.7546771E-02  0.1290823E+00
          2   -1    0    0  501    0  0.00000000000E+00  0.00000000000E+00  0.19834163951E+02  0.19834163951E+02  0.00000000000E+00 0. -1.
         -2   -1    0    0    0  501 -0.00000000000E+00 -0.00000000000E+00 -0.71997926254E+03  0.71997926254E+03  0.00000000000E+00 0.  1.
         23    2    1    2    0    0 -0.25088849455E+02  0.14281804958E+02 -0.58081231273E+03  0.58868955031E+03  0.91537007294E+02 0.  0.
         23    2    1    2    0    0  0.25088849455E+02 -0.14281804958E+02 -0.11933278586E+03  0.15112387618E+03  0.88117488908E+02 0.  0.
          5    1    4    4  502    0  0.49401879268E+02 -0.34187401600E+02 -0.69086582926E+02  0.91675351342E+02  0.47000000000E+01 0. -1.
         -5    1    4    4    0  502 -0.24313029813E+02  0.19905596642E+02 -0.50246202932E+02  0.59448524838E+02  0.47000000000E+01 0.  1.
          5    1    3    3  503    0  0.23460150836E+02  0.32704676539E+02 -0.18029272977E+03  0.18479051099E+03  0.47000000000E+01 0. -1.
         -5    1    3    3    0  503 -0.48549000291E+02 -0.18422871581E+02 -0.40051958296E+03  0.40389903932E+03  0.47000000000E+01 0.  1.
<mgrwt>
<rscale>  0 0.95157048E+02</rscale>
<asrwt>0</asrwt>
<pdfrwt beam="1">  1        2 0.30514103E-02 0.95981478E+02</pdfrwt>
<pdfrwt beam="2">  1       -2 0.11076602E+00 0.95981478E+02</pdfrwt>
<totfact> 0.19267530E+03</totfact>
</mgrwt>
</event>
<event>
 7    1  0.5224537E-004  0.1743897E+03  0.7546771E-02  0.1183397E+00
         -2   -1    0    0    0  501 -0.00000000000E+00  0.00000000000E+00  0.42647902919E+02  0.42647902919E+02  0.00000000000E+00 0.  1.
          2   -1    0    0  501    0  0.00000000000E+00 -0.00000000000E+00 -0.69846982361E+03  0.69846982361E+03  0.00000000000E+00 0. -1.
         23    2    1    2    0    0  0.10276950718E+03  0.23335115346E+02 -0.14296083910E+03  0.19941831864E+03  0.90684977143E+02 0.  0.
          5    1    1    2  502    0 -0.13411974230E+03 -0.43195420808E+00 -0.37018779389E+03  0.39376310722E+03  0.47000000000E+01 0. -1.
         -5    1    1    2    0  502  0.31350235124E+02 -0.22903161138E+02 -0.14267328769E+03  0.14793630066E+03  0.47000000000E+01 0.  1.
          5    1    3    3  503    0  0.15905430855E+02  0.45381270711E+02 -0.39087543118E+02  0.62147956435E+02  0.47000000000E+01 0. -1.
         -5    1    3    3    0  503  0.86864076325E+02 -0.22046155366E+02 -0.10387329598E+03  0.13727036221E+03  0.47000000000E+01 0.  1.
<mgrwt>
<rscale>  0 0.16478557E+03</rscale>
<asrwt>0</asrwt>
<pdfrwt beam="1">  1        2 0.10745690E+00 0.17438968E+03</pdfrwt>
<pdfrwt beam="2">  1       -2 0.65612158E-02 0.17438968E+03</pdfrwt>
<totfact> 0.53079456E+03</totfact>
</mgrwt>
</event>
<event>
 8    1  0.5224537E-004  0.1118413E+03  0.7546771E-02  0.1257593E+00
         -1   -1    0    0    0  501 -0.00000000000E+00  0.00000000000E+00  0.26044709211E+02  0.26044709211E+02  0.00000000000E+00 0.  1.
          1   -1    0    0  501    0  0.00000000000E+00 -0.00000000000E+00 -0.64137049655E+03  0.64137049655E+03  0.00000000000E+00 0. -1.
         23    2    1    2    0    0 -0.86309549750E+01 -0.62060215253E+02 -0.13760162171E+03  0.17677394597E+03  0.91590709003E+02 0.  0.
         23    2    1    2    0    0  0.86309549750E+01  0.62060215253E+02 -0.47772416563E+03  0.49064125979E+03  0.92641803105E+02 0.  0.
          5    1    4    4  502    0 -0.21534607046E+02 -0.14541156523E+02 -0.73696602416E+02  0.78284505117E+02  0.47000000000E+01 0.  1.
         -5    1    3    3    0  503 -0.20018375585E+02 -0.18544283379E+02  0.41350170232E+01  0.27996681462E+02  0.47000000000E+01 0.  1.
          5    1    3    3  503    0  0.11387420610E+02 -0.43515931875E+02 -0.14173663874E+03  0.14877726451E+03  0.47000000000E+01 0. -1.
         -5    1    4    4    0  502  0.30165562021E+02  0.76601371777E+02 -0.40402756321E+03  0.41235675467E+03  0.47000000000E+01 0. -1.
<mgrwt>
<rscale>  0 0.11162335E+03</rscale>
<asrwt>0</asrwt>
<pdfrwt beam="1">  1        1 0.98672382E-01 0.11184126E+03</pdfrwt>
<pdfrwt beam="2">  1       -1 0.40068784E-02 0.11184126E+03</pdfrwt>
<totfact> 0.74556928E+03</totfact>
</mgrwt>
</event>
<event>
 7    1  0.5224537E-004  0.2320091E+03  0.7546771E-02  0.1162610E+00
         -1   -1    0    0    0  501 -0.00000000000E+00  0.00000000000E+00  0.43924326236E+02  0.43924326236E+02  0.00000000000E+00 0.  1.
          1   -1    0    0  501    0  0.00000000000E+00 -0.00000000000E+00 -0.62442913853E+03  0.62442913853E+03  0.00000000000E+00 0. -1.
         23    2    1    2    0    0  0.21799184543E+02 -0.14889501140E+02 -0.22135452117E+03  0.24078226162E+03  0.91002042711E+02 0.  0.
          5    1    1    2  502    0 -0.17217132990E+02 -0.97753146410E+02 -0.25632864077E+03  0.27491556773E+03  0.47000000000E+01 0. -1.
         -5    1    3    3    0  503 -0.97599643112E+01 -0.20315253054E+02 -0.70940710807E+01  0.24091123978E+02  0.47000000000E+01 0.  1.
          5    1    3    3  503    0  0.31559148855E+02  0.54257519144E+01 -0.21426045009E+03  0.21669113764E+03  0.47000000000E+01 0. -1.
         -5    1    1    2    0  502 -0.45820515539E+01  0.11264264755E+03 -0.10282165036E+03  0.15265563542E+03  0.47000000000E+01 0.  1.
<mgrwt>
<rscale>  0 0.18547177E+03</rscale>
<asrwt>0</asrwt>
<pdfrwt beam="1">  1        1 0.96066018E-01 0.23200906E+03</pdfrwt>
<pdfrwt beam="2">  1       -1 0.67575889E-02 0.23200906E+03</pdfrwt>
<totfact> 0.36780428E+03</totfact>
</mgrwt>
</event>
