<event>
 8    1  0.8438969E-004  0.1066666E+03  0.7546771E-02  0.1267418E+00
         -3   -1    0    0    0  501 -0.00000000000E+00  0.00000000000E+00  0.42109263992E+02  0.42109263992E+02  0.00000000000E+00 0.  1.
          3   -1    0    0  501    0  0.00000000000E+00 -0.00000000000E+00 -0.27635958811E+03  0.27635958811E+03  0.00000000000E+00 0. -1.
         23    2    1    2    0    0  0.24863545393E+02  0.46890983155E+02 -0.14528027395E+03  0.17956803012E+03  0.91221484583E+02 0.  0.
         23    2    1    2    0    0 -0.24863545393E+02 -0.46890983155E+02 -0.88970050164E+02  0.13890082198E+03  0.92524636347E+02 0.  0.
          5    1    3    3  502    0 -0.22632164488E+02 -0.42489968263E-01 -0.89495346053E+02  0.92432265145E+02  0.47000000000E+01 0. -1.
         -5    1    4    4    0  503 -0.65293339763E+01  0.26008907014E+02 -0.42276741865E+02  0.50284275365E+02  0.47000000000E+01 0.  1.
          5    1    4    4  503    0 -0.18334211416E+02 -0.72899890169E+02 -0.46693308299E+02  0.88616546620E+02  0.47000000000E+01 0. -1.
         -5    1    3    3    0  502  0.47495709880E+02  0.46933473123E+02 -0.55784927902E+02  0.87135764973E+02  0.47000000000E+01 0.  1.
<mgrwt>
<rscale>  0 0.10638340E+03</rscale>
<asrwt>0</asrwt>
<pdfrwt beam="1">  1        3 0.42516860E-01 0.10666662E+03</pdfrwt>
<pdfrwt beam="2">  1       -3 0.64783482E-02 0.10666662E+03</pdfrwt>
<totfact> 0.18222505E+03</totfact>
</mgrwt>
</event>
<event>
 7    1  0.8438969E-004  0.1663801E+03  0.7546771E-02  0.1200566E+00
         -3   -1    0    0    0  501 -0.00000000000E+00  0.00000000000E+00  0.37656303052E+03  0.37656303052E+03  0.00000000000E+00 0.  1.
          3   -1    0    0  501    0  0.00000000000E+00 -0.00000000000E+00 -0.66761616292E+02  0.66761616292E+02  0.00000000000E+00 0. -1.
         23    2    1    2    0    0 -0.36535147116E+02  0.46161393765E+02  0.23491003681E+02  0.11218121220E+03  0.92558661761E+02 0.  0.
          5    1    3    3  502    0 -0.49374054079E+02  0.26035922558E+02 -0.22329073890E+02  0.60302106269E+02  0.47000000000E+01 0. -1.
         -5    1    3    3    0  502  0.12838906964E+02  0.20125471207E+02  0.45820077571E+02  0.51879105929E+02  0.47000000000E+01 0.  1.
          5    1    1    2  503    0 -0.32563129964E+02 -0.79732470572E+02  0.18306533491E+03  0.20236756445E+03  0.47000000000E+01 0. -1.
         -5    1    1    2    0  503  0.69098277080E+02  0.33571076806E+02  0.10324507564E+03  0.12877587017E+03  0.47000000000E+01 0.  1.
<mgrwt>
<rscale>  0 0.14992421E+03</rscale>
<asrwt>0</asrwt>
<pdfrwt beam="1">  1        3 0.10271018E-01 0.16638006E+03</pdfrwt>
<pdfrwt beam="2">  1       -3 0.57932773E-01 0.16638006E+03</pdfrwt>
<totfact> 0.49817644E+02</totfact>
</mgrwt>
</event>
<event>
 8    1  0.8438969E-004  0.1342541E+03  0.7546771E-02  0.1221277E+00
          1   -1    0    0  501    0  0.00000000000E+00  0.00000000000E+00  0.61546732345E+03  0.61546732345E+03  0.00000000000E+00 0. -1.
         -1   -1    0    0    0  501 -0.00000000000E+00 -0.00000000000E+00 -0.42018705371E+02  0.42018705371E+02  0.00000000000E+00 0.  1.
         23    2    1    2    0    0  0.32757078391E+02  0.91918700676E+02  0.46769467437E+03  0.48658240032E+03  0.92206562389E+02 0.  0.
         23    2    1    2    0    0 -0.32757078391E+02 -0.91918700676E+02  0.10575394371E+03  0.17090362850E+03  0.92206723760E+02 0.  0.
          5    1    3    3  502    0 -0.21867807716E+02  0.13318335257E+02  0.21068238835E+03  0.21228456804E+03  0.47000000000E+01 0. -1.
         -5    1    4    4    0  503 -0.16438043846E+01 -0.91243613617E+02  0.43627721932E+02  0.10125989946E+03  0.47000000000E+01 0.  1.
          5    1    4    4  503    0 -0.31113274007E+02 -0.67508705918E+00  0.62126221777E+02  0.69643729037E+02  0.47000000000E+01 0. -1.
         -5    1    3    3    0  502  0.54624886107E+02  0.78600365419E+02  0.25701228602E+03  0.27429783228E+03  0.47000000000E+01 0.  1.
<mgrwt>
<rscale>  0 0.13425404E+03</rscale>
<asrwt>0</asrwt>
<pdfrwt beam="1">  1        1 0.94687274E-01 0.13425406E+03</pdfrwt>
<pdfrwt beam="2">  1       -1 0.64644167E-02 0.13425406E+03</pdfrwt>
<totfact> 0.39316990E+03</totfact>
</mgrwt>
</event>
<event>
 8    1  0.8438969E-004  0.1083476E+03  0.7546771E-02  0.1264049E+00
          1   -1    0    0  501    0  0.00000000000E+00  0.00000000000E+00  0.19469974486E+03  0.19469974486E+03  0.00000000000E+00 0. -1.
         -1   -1    0    0    0  501 -0.00000000000E+00 -0.00000000000E+00 -0.67257092835E+02  0.67257092835E+02  0.00000000000E+00 0.  1.
         23    2    1    2    0    0 -0.25953084553E+02 -0.52003777170E+02  0.10743223574E+03  0.15258079011E+03  0.91439908111E+02 0.  0.
         23    2    1    2    0    0  0.25953084553E+02  0.52003777170E+02  0.20010416278E+02  0.10937604758E+03  0.90469594824E+02 0.  0.
          5    1    3    3  502    0 -0.45467898907E+02 -0.15986496283E+01  0.79104940558E+02  0.91375965835E+02  0.47000000000E+01 0. -1.
         -5    1    3    3    0  502  0.19514814353E+02 -0.50405127541E+02  0.28327295186E+02  0.61204824273E+02  0.47000000000E+01 0.  1.
          5    1    4    4  503    0  0.33156863337E+01  0.60551544911E+02  0.43929275420E+02  0.75029025090E+02  0.47000000000E+01 0. -1.
         -5    1    4    4    0  503  0.22637398220E+02 -0.85477677413E+01 -0.23918859142E+02  0.34347022494E+02  0.47000000000E+01 0.  1.
<mgrwt>
<rscale>  0 0.10814266E+03</rscale>
<asrwt>0</asrwt>
<pdfrwt beam="1">  1        1 0.29953807E-01 0.10834765E+03</pdfrwt>
<pdfrwt beam="2">  1       -1 0.10347245E-01 0.10834765E+03</pdfrwt>
<totfact> 0.81570961E+03</totfact>
</mgrwt>
</event>
<event>
 8    1  0.8438969E-004  0.9704935E+02  0.7546771E-02  0.1286655E+00
          1   -1    0    0  501    0  0.00000000000E+00  0.00000000000E+00  0.76260212942E+03  0.76260212942E+03  0.00000000000E+00 0. -1.
         -1   -1    0    0    0  501 -0.00000000000E+00 -0.00000000000E+00 -0.32536613676E+02  0.32536613676E+02  0.00000000000E+00 0.  1.
         23    2    1    2    0    0  0.21962136383E+02  0.20104010872E+02  0.51792263299E+02  0.10995761339E+03  0.92313225044E+02 0.  0.
         23    2    1    2    0    0 -0.21962136383E+02 -0.20104010872E+02  0.67827325245E+03  0.68518112971E+03  0.92369198493E+02 0.  0.
          5    1    3    3  502    0 -0.87579268115E+01 -0.33278382379E+02  0.24043771309E+02  0.42241507485E+02  0.47000000000E+01 0. -1.
         -5    1    4    4    0  503 -0.57384262116E+02 -0.40799225721E+01  0.42362930790E+03  0.42754354143E+03  0.47000000000E+01 0.  1.
          5    1    4    4  503    0  0.35422125733E+02 -0.16024088300E+02  0.25464394455E+03  0.25763758827E+03  0.47000000000E+01 0. -1.
         -5    1    3    3    0  502  0.30720063194E+02  0.53382393251E+02  0.27748491990E+02  0.67716105909E+02  0.47000000000E+01 0.  1.
<mgrwt>
<rscale>  0 0.97036025E+02</rscale>
<asrwt>0</asrwt>
<pdfrwt beam="1">  1        1 0.11732339E+00 0.97049346E+02</pdfrwt>
<pdfrwt beam="2">  1       -1 0.50056335E-02 0.97049346E+02</pdfrwt>
<totfact> 0.41802814E+03</totfact>
</mgrwt>
</event>
<event>
 8    1  0.8438969E-004  0.1550880E+03  0.7546771E-02  0.1194472E+00
          1   -1    0    0  501    0  0.00000000000E+00  0.00000000000E+00  0.14384369833E+03  0.14384369833E+03  0.00000000000E+00 0. -1.
         -1   -1    0    0    0  501 -0.00000000000E+00 -0.00000000000E+00 -0.38709348403E+03  0.38709348403E+03  0.00000000000E+00 0.  1.
         23    2    1    2    0    0  0.84116914028E+02 -0.93003012956E+02 -0.32196140899E+03  0.35736738914E+03  0.91252870049E+02 0.  0.
         23    2    1    2    0    0 -0.84116914028E+02  0.93003012956E+02  0.78711623295E+02  0.17356979322E+03  0.90585527728E+02 0.  0.
          5    1    4    4  502    0 -0.67035059187E+02  0.76715732697E+02  0.98969548425E+02  0.14211285768E+03  0.47000000000E+01 0. -1.
         -5    1    3    3    0  503  0.62926693183E+02 -0.10664459765E+03 -0.22274667167E+03  0.25489411265E+03  0.47000000000E+01 0.  1.
          5    1    3    3  503    0  0.21190220846E+02  0.13641584690E+02 -0.99214737320E+02  0.10247327649E+03  0.47000000000E+01 0. -1.
         -5    1    4    4    0  502 -0.17081854842E+02  0.16287280260E+02 -0.20257925130E+02  0.31456935542E+02  0.47000000000E+01 0.  1.
<mgrwt>
<rscale>  0 0.15499002E+03</rscale>
<asrwt>0</asrwt>
<pdfrwt beam="1">  1        1 0.22129800E-01 0.15508805E+03</pdfrwt>
<pdfrwt beam="2">  1       -1 0.59552843E-01 0.15508805E+03</pdfrwt>
<totfact> 0.65959129E+02</totfact>
</mgrwt>
</event>
<event>
 8    1  0.8438969E-004  0.9353552E+02  0.7546771E-02  0.1295025E+00
          2   -1    0    0  501    0  0.00000000000E+00  0.00000000000E+00  0.10533143980E+03  0.10533143980E+03  0.00000000000E+00 0. -1.
         -2   -1    0    0    0  501 -0.00000000000E+00 -0.00000000000E+00 -0.13327376059E+03  0.13327376059E+03  0.00000000000E+00 0.  1.
         23    2    1    2    0    0 -0.93232594213E+01 -0.19589487351E+02  0.59874161471E+02  0.11030622417E+03  0.90065957484E+02 0.  0.
         23    2    1    2    0    0  0.93232594213E+01  0.19589487351E+02 -0.87816482263E+02  0.12829897622E+03  0.90984732574E+02 0.  0.
          5    1    4    4  502    0 -0.31893917694E+02 -0.15518567394E+02 -0.18687725114E+02  0.40365443014E+02  0.47000000000E+01 0. -1.
         -5    1    4    4    0  502  0.41217177115E+02  0.35108054745E+02 -0.69128757149E+02  0.87933533207E+02  0.47000000000E+01 0.  1.
          5    1    3    3  503    0 -0.35695357843E+02 -0.19754314437E+02 -0.37845162811E+01  0.41240805931E+02  0.47000000000E+01 0. -1.
         -5    1    3    3    0  503  0.26372098421E+02  0.16482708581E+00  0.63658677752E+02  0.69065418237E+02  0.47000000000E+01 0.  1.
<mgrwt>
<rscale>  0 0.93311343E+02</rscale>
<asrwt>0</asrwt>
<pdfrwt beam="1">  1        2 0.16204837E-01 0.93535516E+02</pdfrwt>
<pdfrwt beam="2">  1       -2 0.20503655E-01 0.93535516E+02</pdfrwt>
<totfact> 0.65850552E+03</totfact>
</mgrwt>
</event>
<event>
 8    1  0.8438969E-004  0.9508343E+02  0.7546771E-02  0.1294684E+00
          1   -1    0    0  501    0  0.00000000000E+00  0.00000000000E+00  0.60512515160E+03  0.60512515160E+03  0.00000000000E+00 0. -1.
         -1   -1    0    0    0  501 -0.00000000000E+00 -0.00000000000E+00 -0.16407806825E+02  0.16407806825E+02  0.00000000000E+00 0.  1.
         23    2    1    2    0    0  0.26470232021E+01  0.23478592019E+02  0.42290702203E+03  0.43346419376E+03  0.92101069344E+02 0.  0.
         23    2    1    2    0    0 -0.26470232021E+01 -0.23478592019E+02  0.16581032275E+03  0.18806876467E+03  0.85548501444E+02 0.  0.
          5    1    3    3  502    0 -0.28210162825E+02 -0.11606851575E+02  0.30487721107E+03  0.30643553338E+03  0.47000000000E+01 0. -1.
         -5    1    3    3    0  502  0.30857186028E+02  0.35085443594E+02  0.11802981096E+03  0.12702866037E+03  0.47000000000E+01 0.  1.
          5    1    4    4  503    0 -0.15681432765E+02  0.20027652424E+02  0.13736129857E+02  0.29287974642E+02  0.47000000000E+01 0.  1.
         -5    1    4    4    0  503  0.13034409563E+02 -0.43506244443E+02  0.15207419289E+03  0.15878079003E+03  0.47000000000E+01 0. -1.
<mgrwt>
<rscale>  0 0.93459257E+02</rscale>
<asrwt>0</asrwt>
<pdfrwt beam="1">  1        1 0.93096160E-01 0.95083426E+02</pdfrwt>
<pdfrwt beam="2">  1       -1 0.25242784E-02 0.95083426E+02</pdfrwt>
<totfact> 0.15560964E+04</totfact>
</mgrwt>
</event>
<event>
 8    1  0.8438969E-004  0.1083025E+03  0.7546771E-02  0.1263787E+00
         -1   -1    0    0    0  501 -0.00000000000E+00  0.00000000000E+00  0.31136143954E+02  0.31136143954E+02  0.00000000000E+00 0.  1.
          1   -1    0    0  501    0  0.00000000000E+00 -0.00000000000E+00 -0.40592135960E+03  0.40592135960E+03  0.00000000000E+00 0. -1.
         23    2    1    2    0    0  0.27714229838E+02  0.54320905447E+02 -0.12854168501E+03  0.16808452340E+03  0.89501971574E+02 0.  0.
         23    2    1    2    0    0 -0.27714229838E+02 -0.54320905447E+02 -0.24624353063E+03  0.26897298015E+03  0.89396579192E+02 0.  0.
          5    1    4    4  502    0  0.32553353539E+02 -0.15438901883E+02 -0.81365312929E+02  0.89109397181E+02  0.47000000000E+01 0. -1.
         -5    1    3    3    0  503 -0.22079675812E+02  0.38159140889E+02 -0.22472875158E+02  0.49706661879E+02  0.47000000000E+01 0.  1.
          5    1    3    3  503    0  0.49793905650E+02  0.16161764558E+02 -0.10606880985E+03  0.11837786152E+03  0.47000000000E+01 0. -1.
         -5    1    4    4    0  502 -0.60267583377E+02 -0.38882003563E+02 -0.16487821770E+03  0.17986358297E+03  0.47000000000E+01 0.  1.
<mgrwt>
<rscale>  0 0.10828077E+03</rscale>
<asrwt>0</asrwt>
<pdfrwt beam="1">  1        1 0.62449437E-01 0.10830255E+03</pdfrwt>
<pdfrwt beam="2">  1       -1 0.47901762E-02 0.10830255E+03</pdfrwt>
<totfact> 0.10401456E+04</totfact>
</mgrwt>
</event>
<event>
 8    1  0.8438969E-004  0.9148281E+02  0.7546771E-02  0.1299718E+00
         -1   -1    0    0    0  501 -0.00000000000E+00  0.00000000000E+00  0.19801385128E+02  0.19801385128E+02  0.00000000000E+00 0.  1.
          1   -1    0    0  501    0  0.00000000000E+00 -0.00000000000E+00 -0.46040172397E+03  0.46040172397E+03  0.00000000000E+00 0. -1.
         23    2    1    2    0    0  0.10097571163E+02 -0.18550552062E+02 -0.29271110073E+03  0.30667391975E+03  0.89011351163E+02 0.  0.
         23    2    1    2    0    0 -0.10097571163E+02  0.18550552062E+02 -0.14788923811E+03  0.17352918935E+03  0.88289687297E+02 0.  0.
          5    1    4    4  502    0  0.36625196216E+02  0.32200086038E+01 -0.90571462896E+02  0.97862420491E+02  0.47000000000E+01 0. -1.
         -5    1    4    4    0  502 -0.46722767379E+02  0.15330543458E+02 -0.57317775211E+02  0.75666768858E+02  0.47000000000E+01 0.  1.
          5    1    3    3  503    0  0.40944563516E+02 -0.36861613182E+02 -0.17463813377E+03  0.18318243249E+03  0.47000000000E+01 0. -1.
         -5    1    3    3    0  503 -0.30846992353E+02  0.18311061120E+02 -0.11807296697E+03  0.12349148726E+03  0.47000000000E+01 0.  1.
<mgrwt>
<rscale>  0 0.91306799E+02</rscale>
<asrwt>0</asrwt>
<pdfrwt beam="1">  1        1 0.70831035E-01 0.91482810E+02</pdfrwt>
<pdfrwt beam="2">  1       -1 0.30463669E-02 0.91482810E+02</pdfrwt>
<totfact> 0.16889284E+04</totfact>
</mgrwt>
</event>
<event>
 8    1  0.8438969E-004  0.1048033E+03  0.7546771E-02  0.1270830E+00
         -3   -1    0    0    0  501 -0.00000000000E+00  0.00000000000E+00  0.78903628709E+02  0.78903628709E+02  0.00000000000E+00 0.  1.
          3   -1    0    0  501    0  0.00000000000E+00 -0.00000000000E+00 -0.16906587356E+03  0.16906587356E+03  0.00000000000E+00 0. -1.
         23    2    1    2    0    0 -0.23393027349E+02 -0.38885639480E+02  0.78884333489E+01  0.10445059662E+03  0.93746322950E+02 0.  0.
         23    2    1    2    0    0  0.23393027349E+02  0.38885639480E+02 -0.98050678199E+02  0.14351890565E+03  0.94469117163E+02 0.  0.
          5    1    3    3  502    0  0.45343503296E+01 -0.43808739567E+02  0.41171712155E+02  0.60472852398E+02  0.47000000000E+01 0. -1.
         -5    1    4    4    0  503 -0.14859925459E+02  0.37542792276E+02 -0.27860160666E+01  0.40744699313E+02  0.47000000000E+01 0.  1.
          5    1    4    4  503    0  0.38252952808E+02  0.13428472032E+01 -0.95264662133E+02  0.10277420634E+03  0.47000000000E+01 0. -1.
         -5    1    3    3    0  502 -0.27927377678E+02  0.49231000879E+01 -0.33283278806E+02  0.43977744219E+02  0.47000000000E+01 0.  1.
<mgrwt>
<rscale>  0 0.10464020E+03</rscale>
<asrwt>0</asrwt>
<pdfrwt beam="1">  1        3 0.26010134E-01 0.10480334E+03</pdfrwt>
<pdfrwt beam="2">  1       -3 0.12139020E-01 0.10480334E+03</pdfrwt>
<totfact> 0.16325325E+03</totfact>
</mgrwt>
</event>
<event>
 8    1  0.8438969E-004  0.9498550E+02  0.7546771E-02  0.1293417E+00
         -2   -1    0    0    0  501 -0.00000000000E+00  0.00000000000E+00  0.15576965456E+02  0.15576965456E+02  0.00000000000E+00 0.  1.
          2   -1    0    0  501    0  0.00000000000E+00 -0.00000000000E+00 -0.57169039644E+03  0.57169039644E+03  0.00000000000E+00 0. -1.
         23    2    1    2    0    0 -0.57119092610E+01 -0.34198866765E+02 -0.32103158141E+03  0.33372107120E+03  0.84298806062E+02 0.  0.
         23    2    1    2    0    0  0.57119092610E+01  0.34198866765E+02 -0.23508184958E+03  0.25354629070E+03  0.88431086913E+02 0.  0.
          5    1    3    3  502    0 -0.30145198285E+02  0.98239031925E+01 -0.19997578597E+03  0.20252813885E+03  0.47000000000E+01 0. -1.
         -5    1    4    4    0  503  0.21845204462E+02 -0.21273073326E+02 -0.12925772335E+03  0.13288869648E+03  0.47000000000E+01 0.  1.
          5    1    4    4  503    0 -0.16133295201E+02  0.55471940091E+02 -0.10582412623E+03  0.12065759422E+03  0.47000000000E+01 0. -1.
         -5    1    3    3    0  502  0.24433289024E+02 -0.44022769958E+02 -0.12105579544E+03  0.13119293234E+03  0.47000000000E+01 0.  1.
<mgrwt>
<rscale>  0 0.94011973E+02</rscale>
<asrwt>0</asrwt>
<pdfrwt beam="1">  1        2 0.87952369E-01 0.94985502E+02</pdfrwt>
<pdfrwt beam="2">  1       -2 0.23964562E-02 0.94985502E+02</pdfrwt>
<totfact> 0.28553039E+04</totfact>
</mgrwt>
</event>
<event>
 8    1  0.8438969E-004  0.1108778E+03  0.7546771E-02  0.1261964E+00
          1   -1    0    0  501    0  0.00000000000E+00  0.00000000000E+00  0.23599474636E+02  0.23599474636E+02  0.00000000000E+00 0. -1.
         -1   -1    0    0    0  501 -0.00000000000E+00 -0.00000000000E+00 -0.51423978337E+03  0.51423978337E+03  0.00000000000E+00 0.  1.
         23    2    1    2    0    0 -0.54644908140E+02  0.76193723765E+01 -0.29497104125E+03  0.31293852326E+03  0.88760820973E+02 0.  0.
         23    2    1    2    0    0  0.54644908140E+02 -0.76193723765E+01 -0.19566926748E+03  0.22490073475E+03  0.96175659255E+02 0.  0.
          5    1    3    3  502    0 -0.32065948462E+01 -0.36109322478E+02 -0.92769571365E+02  0.99711828745E+02  0.47000000000E+01 0. -1.
         -5    1    4    4    0  503 -0.14126197569E+02  0.19608842761E+02 -0.10473246979E+03  0.10758734313E+03  0.47000000000E+01 0.  1.
          5    1    4    4  503    0  0.68771105710E+02 -0.27228215137E+02 -0.90936797688E+02  0.11731339162E+03  0.47000000000E+01 0. -1.
         -5    1    3    3    0  502 -0.51438313294E+02  0.43728694854E+02 -0.20220146989E+03  0.21322669451E+03  0.47000000000E+01 0.  1.
<mgrwt>
<rscale>  0 0.10925067E+03</rscale>
<asrwt>0</asrwt>
<pdfrwt beam="1">  1        1 0.36306888E-02 0.11087776E+03</pdfrwt>
<pdfrwt beam="2">  1       -1 0.79113805E-01 0.11087776E+03</pdfrwt>
<totfact> 0.41082592E+03</totfact>
</mgrwt>
</event>
<event>
 8    1  0.8438969E-004  0.1219057E+03  0.7546771E-02  0.1240297E+00
         -2   -1    0    0    0  501 -0.00000000000E+00  0.00000000000E+00  0.29748440423E+03  0.29748440423E+03  0.00000000000E+00 0.  1.
          2   -1    0    0  501    0  0.00000000000E+00 -0.00000000000E+00 -0.60727203008E+02  0.60727203008E+02  0.00000000000E+00 0. -1.
         23    2    1    2    0    0 -0.30697544185E+02 -0.76205535478E+02  0.41548380359E+02  0.12806493313E+03  0.89020988152E+02 0.  0.
         23    2    1    2    0    0  0.30697544185E+02  0.76205535478E+02  0.19520882086E+03  0.23014667410E+03  0.90063227800E+02 0.  0.
          5    1    4    4  502    0 -0.22333285562E+02  0.60187279226E+02  0.12491349197E+03  0.14052314649E+03  0.47000000000E+01 0. -1.
         -5    1    4    4    0  502  0.53030829746E+02  0.16018256252E+02  0.70295328896E+02  0.89623527611E+02  0.47000000000E+01 0.  1.
          5    1    3    3  503    0 -0.16110104483E+02  0.15300109819E+02 -0.64455056818E+01  0.23606426465E+02  0.47000000000E+01 0. -1.
         -5    1    3    3    0  503 -0.14587439701E+02 -0.91505645297E+02  0.47993886041E+02  0.10445850667E+03  0.47000000000E+01 0.  1.
<mgrwt>
<rscale>  0 0.12171329E+03</rscale>
<asrwt>0</asrwt>
<pdfrwt beam="1">  1        2 0.93426468E-02 0.12190573E+03</pdfrwt>
<pdfrwt beam="2">  1       -2 0.45766831E-01 0.12190573E+03</pdfrwt>
<totfact> 0.30462413E+03</totfact>
</mgrwt>
</event>
<event>
 8    1  0.8438969E-004  0.9535449E+02  0.7546771E-02  0.1290828E+00
         -1   -1    0    0    0  501 -0.00000000000E+00  0.00000000000E+00  0.26990245473E+02  0.26990245473E+02  0.00000000000E+00 0.  1.
          1   -1    0    0  501    0  0.00000000000E+00 -0.00000000000E+00 -0.35705707017E+03  0.35705707017E+03  0.00000000000E+00 0. -1.
         23    2    1    2    0    0  0.15843114046E+02  0.16685270348E+02 -0.11695998932E+03  0.15090433499E+03  0.92536893769E+02 0.  0.
         23    2    1    2    0    0 -0.15843114046E+02 -0.16685270348E+02 -0.21310683537E+03  0.23314298065E+03  0.91715449259E+02 0.  0.
          5    1    4    4  502    0 -0.28110991890E+01  0.29343146025E+02 -0.15444295917E+03  0.15730111295E+03  0.47000000000E+01 0. -1.
         -5    1    4    4    0  502 -0.13032014857E+02 -0.46028416372E+02 -0.58663876204E+02  0.75841867700E+02  0.47000000000E+01 0.  1.
          5    1    3    3  503    0 -0.13251658892E+02  0.41978601095E+02 -0.24452451211E+02  0.50574912590E+02  0.47000000000E+01 0. -1.
         -5    1    3    3    0  503  0.29094772938E+02 -0.25293330747E+02 -0.92507538110E+02  0.10032942240E+03  0.47000000000E+01 0.  1.
<mgrwt>
<rscale>  0 0.95154624E+02</rscale>
<asrwt>0</asrwt>
<pdfrwt beam="1">  1        1 0.54931853E-01 0.95354492E+02</pdfrwt>
<pdfrwt beam="2">  1       -1 0.41523457E-02 0.95354492E+02</pdfrwt>
<totfact> 0.14865932E+04</totfact>
</mgrwt>
</event>
<event>
 8    1  0.8438969E-004  0.9548132E+02  0.7546771E-02  0.1291588E+00
          3   -1    0    0  501    0  0.00000000000E+00  0.00000000000E+00  0.16873057133E+03  0.16873057133E+03  0.00000000000E+00 0. -1.
         -3   -1    0    0    0  501 -0.00000000000E+00 -0.00000000000E+00 -0.57405349115E+02  0.57405349115E+02  0.00000000000E+00 0.  1.
         23    2    1    2    0    0  0.11995500794E+02  0.13504474127E+02  0.22084573894E+02  0.95443246057E+02  0.91079207029E+02 0.  0.
         23    2    1    2    0    0 -0.11995500794E+02 -0.13504474127E+02  0.89240648316E+02  0.13069267438E+03  0.93757234200E+02 0.  0.
          5    1    3    3  502    0 -0.22514309116E+02 -0.28638081145E+02  0.17186461913E+02  0.40552413982E+02  0.47000000000E+01 0. -1.
         -5    1    4    4    0  503 -0.38063667231E+02  0.14300485171E+02  0.92543640722E+01  0.41965222430E+02  0.47000000000E+01 0.  1.
          5    1    4    4  503    0  0.26068166437E+02 -0.27804959299E+02  0.79986284244E+02  0.88727451954E+02  0.47000000000E+01 0. -1.
         -5    1    3    3    0  502  0.34509809910E+02  0.42142555272E+02  0.48981119807E+01  0.54890832075E+02  0.47000000000E+01 0.  1.
<mgrwt>
<rscale>  0 0.94817351E+02</rscale>
<asrwt>0</asrwt>
<pdfrwt beam="1">  1        3 0.25958549E-01 0.95481317E+02</pdfrwt>
<pdfrwt beam="2">  1       -3 0.88315923E-02 0.95481317E+02</pdfrwt>
<totfact> 0.27152910E+03</totfact>
</mgrwt>
</event>
<event>
 8    1  0.8438969E-004  0.9463004E+02  0.7546771E-02  0.1292178E+00
          2   -1    0    0  501    0  0.00000000000E+00  0.00000000000E+00  0.27386191055E+03  0.27386191055E+03  0.00000000000E+00 0.  1.
         -2   -1    0    0    0  501 -0.00000000000E+00 -0.00000000000E+00 -0.35963341229E+02  0.35963341229E+02  0.00000000000E+00 0. -1.
         23    2    1    2    0    0 -0.17105934870E+02  0.93191706913E+01  0.16617825631E+03  0.19108752348E+03  0.92302593742E+02 0.  0.
         23    2    1    2    0    0  0.17105934870E+02 -0.93191706913E+01  0.71720313015E+02  0.11873772830E+03  0.92603373977E+02 0.  0.
          5    1    4    4  502    0  0.37647912175E+02 -0.37779983204E+02  0.22443626624E+02  0.58055997090E+02  0.47000000000E+01 0. -1.
         -5    1    4    4    0  502 -0.20541977306E+02  0.28460812513E+02  0.49276686391E+02  0.60681731207E+02  0.47000000000E+01 0.  1.
          5    1    3    3  503    0  0.18364146096E+02  0.30300943370E+02  0.24173489075E+02  0.43149004682E+02  0.47000000000E+01 0. -1.
         -5    1    3    3    0  503 -0.35470080966E+02 -0.20981772679E+02  0.14200476723E+03  0.14793851880E+03  0.47000000000E+01 0.  1.
<mgrwt>
<rscale>  0 0.94556376E+02</rscale>
<asrwt>0</asrwt>
<pdfrwt beam="1">  1        2 0.42132600E-01 0.94630042E+02</pdfrwt>
<pdfrwt beam="2">  1       -2 0.55328219E-02 0.94630042E+02</pdfrwt>
<totfact> 0.18272992E+04</totfact>
</mgrwt>
</event>
<event>
 8    1  0.8438969E-004  0.9601288E+02  0.7546771E-02  0.1288966E+00
         -1   -1    0    0    0  501 -0.00000000000E+00  0.00000000000E+00  0.20503110916E+02  0.20503110916E+02  0.00000000000E+00 0.  1.
          1   -1    0    0  501    0  0.00000000000E+00 -0.00000000000E+00 -0.46413082765E+03  0.46413082765E+03  0.00000000000E+00 0. -1.
         23    2    1    2    0    0 -0.24089143901E+02 -0.20052424607E+02 -0.17838943734E+03  0.20258643663E+03  0.90752886260E+02 0.  0.
         23    2    1    2    0    0  0.24089143901E+02  0.20052424607E+02 -0.26523827940E+03  0.28204750194E+03  0.90648011048E+02 0.  0.
          5    1    3    3  502    0  0.27519749714E+02 -0.31897142414E+02 -0.89129319665E+02  0.98695946940E+02  0.47000000000E+01 0. -1.
         -5    1    3    3    0  502 -0.51608893615E+02  0.11844717807E+02 -0.89260117672E+02  0.10389048969E+03  0.47000000000E+01 0.  1.
          5    1    4    4  503    0  0.37616751450E+01 -0.29995911560E+02 -0.16754347438E+03  0.17031385944E+03  0.47000000000E+01 0.  1.
         -5    1    4    4    0  503  0.20327468756E+02  0.50048336166E+02 -0.97694805019E+02  0.11173364250E+03  0.47000000000E+01 0. -1.
<mgrwt>
<rscale>  0 0.95988089E+02</rscale>
<asrwt>0</asrwt>
<pdfrwt beam="1">  1        1 0.71404738E-01 0.96012879E+02</pdfrwt>
<pdfrwt beam="2">  1       -1 0.31543250E-02 0.96012879E+02</pdfrwt>
<totfact> 0.15970762E+04</totfact>
</mgrwt>
</event>
<event>
 8    1  0.8438969E-004  0.1000287E+03  0.7546771E-02  0.1281646E+00
         -1   -1    0    0    0  501 -0.00000000000E+00  0.00000000000E+00  0.51563588142E+02  0.51563588142E+02  0.00000000000E+00 0.  1.
          1   -1    0    0  501    0  0.00000000000E+00 -0.00000000000E+00 -0.41352990718E+03  0.41352990718E+03  0.00000000000E+00 0. -1.
         23    2    1    2    0    0 -0.18396276286E+02  0.21860663391E+02 -0.10725044910E+02  0.10060201739E+03  0.95861502853E+02 0.  0.
         23    2    1    2    0    0  0.18396276286E+02 -0.21860663391E+02 -0.35124127413E+03  0.36449147793E+03  0.93098298858E+02 0.  0.
          5    1    4    4  502    0  0.52052992105E+02  0.20893890653E+01 -0.14613624294E+03  0.15521524099E+03  0.47000000000E+01 0. -1.
         -5    1    4    4    0  502 -0.33656715819E+02 -0.23950052457E+02 -0.20510503118E+03  0.20927623694E+03  0.47000000000E+01 0.  1.
          5    1    3    3  503    0 -0.21517527872E+02 -0.28138993446E+02  0.20682277998E+02  0.41287450648E+02  0.47000000000E+01 0. -1.
         -5    1    3    3    0  503  0.31212515861E+01  0.49999656838E+02 -0.31407322908E+02  0.59314566740E+02  0.47000000000E+01 0.  1.
<mgrwt>
<rscale>  0 0.99360810E+02</rscale>
<asrwt>0</asrwt>
<pdfrwt beam="1">  1        1 0.63619988E-01 0.10002869E+03</pdfrwt>
<pdfrwt beam="2">  1       -1 0.79328595E-02 0.10002869E+03</pdfrwt>
<totfact> 0.47870334E+03</totfact>
</mgrwt>
</event>
<event>
 8    1  0.8438969E-004  0.1413627E+03  0.7546771E-02  0.1211627E+00
          1   -1    0    0  501    0  0.00000000000E+00  0.00000000000E+00  0.13154883464E+03  0.13154883464E+03  0.00000000000E+00 0. -1.
         -1   -1    0    0    0  501 -0.00000000000E+00 -0.00000000000E+00 -0.17387817709E+03  0.17387817709E+03  0.00000000000E+00 0.  1.
         23    2    1    2    0    0  0.59678849977E+02  0.90666160481E+02 -0.75948580427E+02  0.16047306804E+03  0.90562138377E+02 0.  0.
         23    2    1    2    0    0 -0.59678849977E+02 -0.90666160481E+02  0.33619237977E+02  0.14495394368E+03  0.89997082369E+02 0.  0.
          5    1    4    4  502    0 -0.20435265701E+02 -0.90588502289E+02 -0.12603318571E+00  0.92983776626E+02  0.47000000000E+01 0. -1.
         -5    1    4    4    0  502 -0.39243584276E+02 -0.77658191883E-01  0.33745271163E+02  0.51970167053E+02  0.47000000000E+01 0.  1.
          5    1    3    3  503    0  0.12787380431E+01  0.20295081952E+02  0.19243370110E+02  0.28388779748E+02  0.47000000000E+01 0. -1.
         -5    1    3    3    0  503  0.58400111934E+02  0.70371078530E+02 -0.95191950537E+02  0.13208428829E+03  0.47000000000E+01 0.  1.
<mgrwt>
<rscale>  0 0.14127230E+03</rscale>
<asrwt>0</asrwt>
<pdfrwt beam="1">  1        1 0.20238282E-01 0.14136272E+03</pdfrwt>
<pdfrwt beam="2">  1       -1 0.26750489E-01 0.14136272E+03</pdfrwt>
<totfact> 0.30226247E+03</totfact>
</mgrwt>
</event>
<event>
 8    1  0.8438969E-004  0.1050282E+03  0.7546771E-02  0.1272078E+00
         -2   -1    0    0    0  501 -0.00000000000E+00  0.00000000000E+00  0.52696682350E+02  0.52696682350E+02  0.00000000000E+00 0.  1.
          2   -1    0    0  501    0  0.00000000000E+00 -0.00000000000E+00 -0.29444732163E+03  0.29444732163E+03  0.00000000000E+00 0. -1.
         23    2    1    2    0    0  0.43587936010E+01 -0.41132545902E+02 -0.22003079914E+03  0.24381238088E+03  0.96540349522E+02 0.  0.
         23    2    1    2    0    0 -0.43587936010E+01  0.41132545902E+02 -0.21719840140E+02  0.10333162310E+03  0.92167171285E+02 0.  0.
          5    1    4    4  502    0 -0.11011581798E+02 -0.23356445048E+02 -0.27572618673E+02  0.38067279381E+02  0.47000000000E+01 0. -1.
         -5    1    3    3    0  503 -0.30900409354E+02  0.17891117329E+02 -0.80647665491E+02  0.88323628360E+02  0.47000000000E+01 0.  1.
          5    1    3    3  503    0  0.35259202955E+02 -0.59023663230E+02 -0.13938313365E+03  0.15548875252E+03  0.47000000000E+01 0. -1.
         -5    1    4    4    0  502  0.66527881971E+01  0.64488990949E+02  0.58527785335E+01  0.65264343718E+02  0.47000000000E+01 0.  1.
<mgrwt>
<rscale>  0 0.10401229E+03</rscale>
<asrwt>0</asrwt>
<pdfrwt beam="1">  1        2 0.45299589E-01 0.10502821E+03</pdfrwt>
<pdfrwt beam="2">  1       -2 0.81071816E-02 0.10502821E+03</pdfrwt>
<totfact> 0.95859449E+03</totfact>
</mgrwt>
</event>
<event>
 8    1  0.8438969E-004  0.1041209E+03  0.7546771E-02  0.1273954E+00
          2   -1    0    0  501    0  0.00000000000E+00  0.00000000000E+00  0.31360579277E+02  0.31360579277E+02  0.00000000000E+00 0. -1.
         -2   -1    0    0    0  501 -0.00000000000E+00 -0.00000000000E+00 -0.68908711924E+03  0.68908711924E+03  0.00000000000E+00 0.  1.
         23    2    1    2    0    0 -0.21586842709E+02  0.40480559261E+02 -0.59127838181E+03  0.60037595438E+03  0.93469216023E+02 0.  0.
         23    2    1    2    0    0  0.21586842709E+02 -0.40480559261E+02 -0.66448158145E+02  0.12007174413E+03  0.88866183452E+02 0.  0.
          5    1    3    3  502    0  0.26900176921E+02  0.31417862411E+02 -0.13140243698E+03  0.13783828221E+03  0.47000000000E+01 0. -1.
         -5    1    3    3    0  502 -0.48487019630E+02  0.90626968498E+01 -0.45987594483E+03  0.46253767217E+03  0.47000000000E+01 0.  1.
          5    1    4    4  503    0 -0.20988308638E+01 -0.64806587402E+02 -0.36505968775E+02  0.74559202101E+02  0.47000000000E+01 0. -1.
         -5    1    4    4    0  503  0.23685673573E+02  0.24326028141E+02 -0.29942189370E+02  0.45512542029E+02  0.47000000000E+01 0.  1.
<mgrwt>
<rscale>  0 0.10307743E+03</rscale>
<asrwt>0</asrwt>
<pdfrwt beam="1">  1        2 0.48247048E-02 0.10412090E+03</pdfrwt>
<pdfrwt beam="2">  1       -2 0.10601340E+00 0.10412090E+03</pdfrwt>
<totfact> 0.11751241E+03</totfact>
</mgrwt>
</event>
<event>
 8    1  0.8438969E-004  0.9451016E+02  0.7546771E-02  0.1292455E+00
          2   -1    0    0  501    0  0.00000000000E+00  0.00000000000E+00  0.29229485512E+03  0.29229485512E+03  0.00000000000E+00 0. -1.
         -2   -1    0    0    0  501 -0.00000000000E+00 -0.00000000000E+00 -0.60456669763E+02  0.60456669763E+02  0.00000000000E+00 0.  1.
         23    2    1    2    0    0 -0.55838465537E+01  0.25210125382E+02 -0.84102632855E+01  0.94582030111E+02  0.90599658538E+02 0.  0.
         23    2    1    2    0    0  0.55838465537E+01 -0.25210125382E+02  0.24024844864E+03  0.25816949477E+03  0.90914471851E+02 0.  0.
          5    1    4    4  502    0 -0.23670918420E+02  0.25702382804E+02  0.79475966648E+02  0.86945063892E+02  0.47000000000E+01 0. -1.
         -5    1    3    3    0  503  0.37873724120E+02  0.31287984977E+02 -0.10285464364E+02  0.50410690928E+02  0.47000000000E+01 0.  1.
          5    1    3    3  503    0 -0.43457570674E+02 -0.60778595952E+01  0.18752010785E+01  0.44171339183E+02  0.47000000000E+01 0. -1.
         -5    1    4    4    0  502  0.29254764974E+02 -0.50912508186E+02  0.16077248200E+03  0.17122443088E+03  0.47000000000E+01 0.  1.
<mgrwt>
<rscale>  0 0.94434373E+02</rscale>
<asrwt>0</asrwt>
<pdfrwt beam="1">  1        2 0.44968438E-01 0.94510163E+02</pdfrwt>
<pdfrwt beam="2">  1       -2 0.93010263E-02 0.94510163E+02</pdfrwt>
<totfact> 0.77512599E+03</totfact>
</mgrwt>
</event>
<event>
 8    1  0.8438969E-004  0.1226659E+03  0.7546771E-02  0.1241273E+00
         -1   -1    0    0    0  501 -0.00000000000E+00  0.00000000000E+00  0.22558694599E+02  0.22558694599E+02  0.00000000000E+00 0.  1.
          1   -1    0    0  501    0  0.00000000000E+00 -0.00000000000E+00 -0.69634723802E+03  0.69634723802E+03  0.00000000000E+00 0. -1.
         23    2    1    2    0    0  0.66230560379E+02 -0.31226426560E+02 -0.23742319806E+03  0.26723904043E+03  0.98414190576E+02 0.  0.
         23    2    1    2    0    0 -0.66230560379E+02  0.31226426560E+02 -0.43636534536E+03  0.45166689219E+03  0.90701102687E+02 0.  0.
          5    1    4    4  502    0 -0.25368453582E+02  0.60239592125E+02 -0.27099412766E+03  0.27880508267E+03  0.47000000000E+01 0. -1.
         -5    1    3    3    0  503 -0.15816354589E+02 -0.13143544745E+02 -0.74787870077E+01  0.22381512372E+02  0.47000000000E+01 0.  1.
          5    1    3    3  503    0  0.82046914967E+02 -0.18082881815E+02 -0.22994441106E+03  0.24485752806E+03  0.47000000000E+01 0. -1.
         -5    1    4    4    0  502 -0.40862106797E+02 -0.29013165566E+02 -0.16537121770E+03  0.17286180952E+03  0.47000000000E+01 0.  1.
<mgrwt>
<rscale>  0 0.12111236E+03</rscale>
<asrwt>0</asrwt>
<pdfrwt beam="1">  1        1 0.10713033E+00 0.12266593E+03</pdfrwt>
<pdfrwt beam="2">  1       -1 0.34705689E-02 0.12266593E+03</pdfrwt>
<totfact> 0.82432773E+03</totfact>
</mgrwt>
</event>
<event>
 8    1  0.8438969E-004  0.1065928E+03  0.7546771E-02  0.1269058E+00
         -1   -1    0    0    0  501 -0.00000000000E+00  0.00000000000E+00  0.43453913544E+02  0.43453913544E+02  0.00000000000E+00 0.  1.
          1   -1    0    0  501    0  0.00000000000E+00 -0.00000000000E+00 -0.39877653371E+03  0.39877653371E+03  0.00000000000E+00 0. -1.
         23    2    1    2    0    0 -0.48527991669E+02 -0.22567959852E+01 -0.45479010173E+02  0.11588940937E+03  0.94878636869E+02 0.  0.
         23    2    1    2    0    0  0.48527991669E+02  0.22567959852E+01 -0.30984361000E+03  0.32634103789E+03  0.90196182015E+02 0.  0.
          5    1    4    4  502    0  0.71330526960E+02  0.90483129279E+01 -0.17367021301E+03  0.18802486253E+03  0.47000000000E+01 0. -1.
         -5    1    3    3    0  503 -0.80360443672E+01 -0.26902641196E+02  0.20090600471E+02  0.34843253862E+02  0.47000000000E+01 0.  1.
          5    1    3    3  503    0 -0.40491947302E+02  0.24645845211E+02 -0.65569610644E+02  0.81046155507E+02  0.47000000000E+01 0. -1.
         -5    1    4    4    0  502 -0.22802535291E+02 -0.67915169426E+01 -0.13617339699E+03  0.13831617536E+03  0.47000000000E+01 0.  1.
<mgrwt>
<rscale>  0 0.10554087E+03</rscale>
<asrwt>0</asrwt>
<pdfrwt beam="1">  1        1 0.61350238E-01 0.10659275E+03</pdfrwt>
<pdfrwt beam="2">  1       -1 0.66852172E-02 0.10659275E+03</pdfrwt>
<totfact> 0.64922205E+03</totfact>
</mgrwt>
</event>
<event>
 8    1  0.8438969E-004  0.9566096E+02  0.7546771E-02  0.1291277E+00
         -3   -1    0    0    0  501 -0.00000000000E+00  0.00000000000E+00  0.11351259818E+03  0.11351259818E+03  0.00000000000E+00 0.  1.
          3   -1    0    0  501    0  0.00000000000E+00 -0.00000000000E+00 -0.87630547712E+02  0.87630547712E+02  0.00000000000E+00 0. -1.
         23    2    1    2    0    0  0.34606298722E+01 -0.43398381468E+01  0.45617064934E+02  0.10346770941E+03  0.92702967175E+02 0.  0.
         23    2    1    2    0    0 -0.34606298722E+01  0.43398381468E+01 -0.19735014465E+02  0.97675436483E+02  0.95499790272E+02 0.  0.
          5    1    4    4  502    0 -0.48031317515E+02 -0.81318349421E+00  0.40886553566E+00  0.48269305989E+02  0.47000000000E+01 0. -1.
         -5    1    4    4    0  502  0.44570687642E+02  0.51530216410E+01 -0.20143880001E+02  0.49406130495E+02  0.47000000000E+01 0.  1.
          5    1    3    3  503    0 -0.96678528085E+01 -0.41400453250E+02  0.47380167056E+02  0.63831302176E+02  0.47000000000E+01 0. -1.
         -5    1    3    3    0  503  0.13128482681E+02  0.37060615103E+02 -0.17631021216E+01  0.39636407234E+02  0.47000000000E+01 0.  1.
<mgrwt>
<rscale>  0 0.94955200E+02</rscale>
<asrwt>0</asrwt>
<pdfrwt beam="1">  1        3 0.13481623E-01 0.95660964E+02</pdfrwt>
<pdfrwt beam="2">  1       -3 0.17463477E-01 0.95660964E+02</pdfrwt>
<totfact> 0.27137657E+03</totfact>
</mgrwt>
</event>
<event>
 8    1  0.8438969E-004  0.9760980E+02  0.7546771E-02  0.1288282E+00
          1   -1    0    0  501    0  0.00000000000E+00  0.00000000000E+00  0.35630620280E+03  0.35630620280E+03  0.00000000000E+00 0. -1.
         -1   -1    0    0    0  501 -0.00000000000E+00 -0.00000000000E+00 -0.44334028781E+02  0.44334028781E+02  0.00000000000E+00 0.  1.
         23    2    1    2    0    0  0.27881273817E+01 -0.14008229473E+02  0.27339784504E+02  0.10136634557E+03  0.96559142758E+02 0.  0.
         23    2    1    2    0    0 -0.27881273817E+01  0.14008229473E+02  0.28463238951E+03  0.29927388601E+03  0.91352381142E+02 0.  0.
          5    1    4    4  502    0  0.27532795649E+02  0.86797573300E+01  0.25369921972E+03  0.25537967247E+03  0.47000000000E+01 0. -1.
         -5    1    3    3    0  503 -0.10253014383E+02 -0.53480152038E+02  0.78624794473E+01  0.55219195476E+02  0.47000000000E+01 0.  1.
          5    1    3    3  503    0  0.13041141765E+02  0.39471922565E+02  0.19477305057E+02  0.46147150093E+02  0.47000000000E+01 0. -1.
         -5    1    4    4    0  502 -0.30320923031E+02  0.53284721433E+01  0.30933169787E+02  0.43894213535E+02  0.47000000000E+01 0.  1.
<mgrwt>
<rscale>  0 0.96296639E+02</rscale>
<asrwt>0</asrwt>
<pdfrwt beam="1">  1        1 0.54816337E-01 0.97609796E+02</pdfrwt>
<pdfrwt beam="2">  1       -1 0.68206200E-02 0.97609796E+02</pdfrwt>
<totfact> 0.72019865E+03</totfact>
</mgrwt>
</event>
<event>
 8    1  0.8438969E-004  0.9232113E+02  0.7546771E-02  0.1300355E+00
         -1   -1    0    0    0  501 -0.00000000000E+00  0.00000000000E+00  0.70995071818E+02  0.70995071818E+02  0.00000000000E+00 0.  1.
          1   -1    0    0  501    0  0.00000000000E+00 -0.00000000000E+00 -0.12260106271E+03  0.12260106271E+03  0.00000000000E+00 0. -1.
         23    2    1    2    0    0 -0.43743403899E+01  0.11037551471E+02 -0.51338706255E+02  0.10127461766E+03  0.86486548235E+02 0.  0.
         23    2    1    2    0    0  0.43743403899E+01 -0.11037551471E+02 -0.26728464042E+00  0.92321516873E+02  0.91554511851E+02 0.  0.
          5    1    4    4  502    0  0.66714803156E+01  0.34807750373E+02 -0.21295148993E+02  0.41613237152E+02  0.47000000000E+01 0. -1.
         -5    1    3    3    0  503 -0.43778028251E+02  0.41319867236E+01 -0.14093507907E+02  0.46414502442E+02  0.47000000000E+01 0.  1.
          5    1    3    3  503    0  0.39403687861E+02  0.69055647475E+01 -0.37245198348E+02  0.54860115216E+02  0.47000000000E+01 0. -1.
         -5    1    4    4    0  502 -0.22971399257E+01 -0.45845301844E+02  0.21027864352E+02  0.50708279721E+02  0.47000000000E+01 0.  1.
<mgrwt>
<rscale>  0 0.91038797E+02</rscale>
<asrwt>0</asrwt>
<pdfrwt beam="1">  1        1 0.18861702E-01 0.92321130E+02</pdfrwt>
<pdfrwt beam="2">  1       -1 0.10922319E-01 0.92321130E+02</pdfrwt>
<totfact> 0.13186318E+04</totfact>
</mgrwt>
</event>
<event>
 8    1  0.8438969E-004  0.9673389E+02  0.7546771E-02  0.1288707E+00
          1   -1    0    0  501    0  0.00000000000E+00  0.00000000000E+00  0.71469750148E+02  0.71469750148E+02  0.00000000000E+00 0. -1.
         -1   -1    0    0    0  501 -0.00000000000E+00 -0.00000000000E+00 -0.17230197043E+03  0.17230197043E+03  0.00000000000E+00 0.  1.
         23    2    1    2    0    0  0.22754391328E+01 -0.31307676686E+02 -0.11202296615E+03  0.14639267799E+03  0.88861256920E+02 0.  0.
         23    2    1    2    0    0 -0.22754391328E+01  0.31307676686E+02  0.11190745867E+02  0.97379042590E+02  0.91499163384E+02 0.  0.
          5    1    4    4  502    0 -0.14369377714E+02  0.58533770040E+02  0.23422124874E+02  0.64833380173E+02  0.47000000000E+01 0. -1.
         -5    1    3    3    0  503  0.35030066935E+02 -0.20846213812E+02 -0.10249549939E+03  0.11040420108E+03  0.47000000000E+01 0.  1.
          5    1    3    3  503    0 -0.32754627803E+02 -0.10461462874E+02 -0.95274667630E+01  0.35988476918E+02  0.47000000000E+01 0. -1.
         -5    1    4    4    0  502  0.12093938581E+02 -0.27226093354E+02 -0.12231379008E+02  0.32545662417E+02  0.47000000000E+01 0.  1.
<mgrwt>
<rscale>  0 0.96104964E+02</rscale>
<asrwt>0</asrwt>
<pdfrwt beam="1">  1        1 0.10995346E-01 0.96733888E+02</pdfrwt>
<pdfrwt beam="2">  1       -1 0.26507995E-01 0.96733888E+02</pdfrwt>
<totfact> 0.65724230E+03</totfact>
</mgrwt>
</event>
<event>
 8    1  0.8438969E-004  0.1035166E+03  0.7546771E-02  0.1273466E+00
         -2   -1    0    0    0  501 -0.00000000000E+00  0.00000000000E+00  0.21085617710E+03  0.21085617710E+03  0.00000000000E+00 0.  1.
          2   -1    0    0  501    0  0.00000000000E+00 -0.00000000000E+00 -0.22040751062E+03  0.22040751062E+03  0.00000000000E+00 0. -1.
         23    2    1    2    0    0  0.35902636854E+02  0.31587106884E+02  0.18458004588E+03  0.21162582260E+03  0.91809317604E+02 0.  0.
         23    2    1    2    0    0 -0.35902636854E+02 -0.31587106884E+02 -0.19413137940E+03  0.21963786513E+03  0.90923345056E+02 0.  0.
          5    1    3    3  502    0 -0.22764347424E+02  0.20437248989E+02  0.11832623839E+03  0.12230733973E+03  0.47000000000E+01 0. -1.
         -5    1    3    3    0  502  0.58666984278E+02  0.11149857896E+02  0.66253807494E+02  0.89318482873E+02  0.47000000000E+01 0.  1.
          5    1    4    4  503    0 -0.15804678225E+02  0.25086327006E+02 -0.12186733923E+03  0.12551035825E+03  0.47000000000E+01 0. -1.
         -5    1    4    4    0  503 -0.20097958629E+02 -0.56673433890E+02 -0.72264040171E+02  0.94127506882E+02  0.47000000000E+01 0.  1.
<mgrwt>
<rscale>  0 0.10331984E+03</rscale>
<asrwt>0</asrwt>
<pdfrwt beam="1">  1        2 0.33908848E-01 0.10351664E+03</pdfrwt>
<pdfrwt beam="2">  1       -2 0.32439412E-01 0.10351664E+03</pdfrwt>
<totfact> 0.13199157E+03</totfact>
</mgrwt>
</event>
<event>
 8    1  0.8438969E-004  0.9530269E+02  0.7546771E-02  0.1291535E+00
          2   -1    0    0  501    0  0.00000000000E+00  0.00000000000E+00  0.26379314217E+03  0.26379314217E+03  0.00000000000E+00 0. -1.
         -2   -1    0    0    0  501 -0.00000000000E+00 -0.00000000000E+00 -0.33961633394E+02  0.33961633394E+02  0.00000000000E+00 0.  1.
         23    2    1    2    0    0  0.93052706403E+00  0.19612748043E+02  0.12717704113E+03  0.15892325849E+03  0.93258117780E+02 0.  0.
         23    2    1    2    0    0 -0.93052706403E+00 -0.19612748043E+02  0.10265446764E+03  0.13883151707E+03  0.91382299373E+02 0.  0.
          5    1    3    3  502    0 -0.35886865697E+02 -0.16888923016E+02  0.35206377743E+02  0.53241730663E+02  0.47000000000E+01 0. -1.
         -5    1    4    4    0  503 -0.31855164655E+02  0.19291275349E+02  0.69242261056E+02  0.78762208806E+02  0.47000000000E+01 0. -1.
          5    1    4    4  503    0  0.30924637591E+02 -0.38904023393E+02  0.33412206582E+02  0.60069308261E+02  0.47000000000E+01 0.  1.
         -5    1    3    3    0  502  0.36817392761E+02  0.36501671059E+02  0.91970663391E+02  0.10568152783E+03  0.47000000000E+01 0.  1.
<mgrwt>
<rscale>  0 0.94840644E+02</rscale>
<asrwt>0</asrwt>
<pdfrwt beam="1">  1        2 0.40583559E-01 0.95302688E+02</pdfrwt>
<pdfrwt beam="2">  1       -2 0.52248668E-02 0.95302688E+02</pdfrwt>
<totfact> 0.20716273E+04</totfact>
</mgrwt>
</event>
<event>
 7    1  0.8438969E-004  0.2370043E+03  0.7546771E-02  0.1139610E+00
         -2   -1    0    0    0  501 -0.00000000000E+00  0.00000000000E+00  0.14126039851E+03  0.14126039851E+03  0.00000000000E+00 0.  1.
          2   -1    0    0  501    0  0.00000000000E+00 -0.00000000000E+00 -0.31944431348E+03  0.31944431348E+03  0.00000000000E+00 0. -1.
         23    2    1    2    0    0  0.24402738946E+02 -0.12118870930E+03  0.16461031538E+02  0.15401644990E+03  0.90376459057E+02 0.  0.
          5    1    3    3  502    0  0.48054820042E+01 -0.13056469695E+03  0.11501182130E+02  0.13124252336E+03  0.47000000000E+01 0. -1.
         -5    1    1    2    0  503  0.56770554924E+02  0.11495774174E+03 -0.44443280159E+02  0.13577729355E+03  0.47000000000E+01 0.  1.
          5    1    1    2  503    0 -0.81173293870E+02  0.62309675584E+01 -0.15020166635E+03  0.17091096854E+03  0.47000000000E+01 0. -1.
         -5    1    3    3    0  502  0.19597256942E+02  0.93759876522E+01  0.49598494075E+01  0.22773926544E+02  0.47000000000E+01 0.  1.
<mgrwt>
<rscale>  0 0.21248841E+03</rscale>
<asrwt>0</asrwt>
<pdfrwt beam="1">  1        2 0.49145279E-01 0.23700429E+03</pdfrwt>
<pdfrwt beam="2">  1       -2 0.21732369E-01 0.23700429E+03</pdfrwt>
<totfact> 0.18485465E+03</totfact>
</mgrwt>
</event>
<event>
 8    1  0.8438969E-004  0.1460465E+03  0.7546771E-02  0.1206067E+00
         -2   -1    0    0    0  501 -0.00000000000E+00  0.00000000000E+00  0.10116590241E+03  0.10116590241E+03  0.00000000000E+00 0.  1.
          2   -1    0    0  501    0  0.00000000000E+00 -0.00000000000E+00 -0.20808282159E+03  0.20808282159E+03  0.00000000000E+00 0. -1.
         23    2    1    2    0    0  0.91765392515E+02 -0.62787548302E+02 -0.48756110551E+02  0.15204737965E+03  0.91531873446E+02 0.  0.
         23    2    1    2    0    0 -0.91765392515E+02  0.62787548302E+02 -0.58160808631E+02  0.15720134436E+03  0.94691179748E+02 0.  0.
          5    1    4    4  502    0 -0.57863330070E+02  0.86247044394E+02 -0.35107798630E+02  0.10973315433E+03  0.47000000000E+01 0. -1.
         -5    1    3    3    0  503  0.45448221629E+02 -0.59608532909E+02  0.11345522044E+02  0.75957415143E+02  0.47000000000E+01 0.  1.
          5    1    3    3  503    0  0.46317170886E+02 -0.31790153935E+01 -0.60101632595E+02  0.76089964505E+02  0.47000000000E+01 0. -1.
         -5    1    4    4    0  502 -0.33902062445E+02 -0.23459496092E+02 -0.23053010000E+02  0.47468190032E+02  0.47000000000E+01 0.  1.
<mgrwt>
<rscale>  0 0.14553677E+03</rscale>
<asrwt>0</asrwt>
<pdfrwt beam="1">  1        2 0.32012742E-01 0.14604651E+03</pdfrwt>
<pdfrwt beam="2">  1       -2 0.15563985E-01 0.14604651E+03</pdfrwt>
<totfact> 0.50447395E+03</totfact>
</mgrwt>
</event>
<event>
 8    1  0.8438969E-004  0.1036417E+03  0.7546771E-02  0.1272830E+00
          2   -1    0    0  501    0  0.00000000000E+00  0.00000000000E+00  0.58369156494E+03  0.58369156494E+03  0.00000000000E+00 0. -1.
         -2   -1    0    0    0  501 -0.00000000000E+00 -0.00000000000E+00 -0.18525439247E+02  0.18525439247E+02  0.00000000000E+00 0.  1.
         23    2    1    2    0    0 -0.78452895664E+01  0.48504339535E+02  0.30749709786E+03  0.32449354163E+03  0.91254445622E+02 0.  0.
         23    2    1    2    0    0  0.78452895664E+01 -0.48504339535E+02  0.25766902783E+03  0.27772346255E+03  0.91229239982E+02 0.  0.
          5    1    4    4  502    0 -0.38193230692E+02 -0.41854366846E+02  0.14334731953E+03  0.15421107259E+03  0.47000000000E+01 0. -1.
         -5    1    4    4    0  502  0.46038520258E+02 -0.66499726887E+01  0.11432170830E+03  0.12351238996E+03  0.47000000000E+01 0.  1.
          5    1    3    3  503    0  0.15793565856E+02  0.43143813529E+02  0.29135945457E+03  0.29499702903E+03  0.47000000000E+01 0. -1.
         -5    1    3    3    0  503 -0.23638855422E+02  0.53605260062E+01  0.16137643289E+02  0.29496512602E+02  0.47000000000E+01 0.  1.
<mgrwt>
<rscale>  0 0.10363611E+03</rscale>
<asrwt>0</asrwt>
<pdfrwt beam="1">  1        2 0.89798688E-01 0.10364166E+03</pdfrwt>
<pdfrwt beam="2">  1       -2 0.28500680E-02 0.10364166E+03</pdfrwt>
<totfact> 0.21885676E+04</totfact>
</mgrwt>
</event>
<event>
 8    1  0.8438969E-004  0.9740931E+02  0.7546771E-02  0.1286678E+00
         -2   -1    0    0    0  501 -0.00000000000E+00  0.00000000000E+00  0.28596611432E+02  0.28596611432E+02  0.00000000000E+00 0.  1.
          2   -1    0    0  501    0  0.00000000000E+00 -0.00000000000E+00 -0.43035006426E+03  0.43035006426E+03  0.00000000000E+00 0. -1.
         23    2    1    2    0    0  0.15481465468E+02 -0.28238960725E+02 -0.31473257365E+03  0.32946193586E+03  0.91931820331E+02 0.  0.
         23    2    1    2    0    0 -0.15481465468E+02  0.28238960725E+02 -0.87020879178E+02  0.12948473983E+03  0.90313618908E+02 0.  0.
          5    1    3    3  502    0 -0.15112311079E+02 -0.33343408616E+02 -0.28093459713E+03  0.28334872985E+03  0.47000000000E+01 0. -1.
         -5    1    4    4    0  503  0.82314484573E+01  0.39140032809E+02 -0.18862103680E+01  0.40315588815E+02  0.47000000000E+01 0. -1.
          5    1    4    4  503    0 -0.23712913926E+02 -0.10901072084E+02 -0.85134668810E+02  0.89169151016E+02  0.47000000000E+01 0.  1.
         -5    1    3    3    0  502  0.30593776547E+02  0.51044478906E+01 -0.33797976522E+02  0.46113206011E+02  0.47000000000E+01 0.  1.
<mgrwt>
<rscale>  0 0.97025623E+02</rscale>
<asrwt>0</asrwt>
<pdfrwt beam="1">  1        2 0.66207698E-01 0.97409313E+02</pdfrwt>
<pdfrwt beam="2">  1       -2 0.43994790E-02 0.97409313E+02</pdfrwt>
<totfact> 0.16027026E+04</totfact>
</mgrwt>
</event>
<event>
 8    1  0.8438969E-004  0.1134113E+03  0.7546771E-02  0.1255925E+00
         -1   -1    0    0    0  501 -0.00000000000E+00  0.00000000000E+00  0.11887624772E+02  0.11887624772E+02  0.00000000000E+00 0.  1.
          1   -1    0    0  501    0  0.00000000000E+00 -0.00000000000E+00 -0.11204620152E+04  0.11204620152E+04  0.00000000000E+00 0. -1.
         23    2    1    2    0    0  0.37103967386E+02  0.48956715793E+02 -0.68870952338E+03  0.69743742538E+03  0.91239740834E+02 0.  0.
         23    2    1    2    0    0 -0.37103967386E+02 -0.48956715793E+02 -0.41986486708E+03  0.43491221463E+03  0.95334481722E+02 0.  0.
          5    1    4    4  502    0 -0.41227175638E+02 -0.27764330894E+01 -0.33930837622E+03  0.34184741152E+03  0.47000000000E+01 0. -1.
         -5    1    4    4    0  502  0.41232082514E+01 -0.46180282704E+02 -0.80556490862E+02  0.93064803104E+02  0.47000000000E+01 0.  1.
          5    1    3    3  503    0 -0.43141428219E+01  0.64990671323E+02 -0.41657804472E+03  0.42166545570E+03  0.47000000000E+01 0. -1.
         -5    1    3    3    0  503  0.41418110208E+02 -0.16033955530E+02 -0.27213147866E+03  0.27577196968E+03  0.47000000000E+01 0.  1.
<mgrwt>
<rscale>  0 0.11254655E+03</rscale>
<asrwt>0</asrwt>
<pdfrwt beam="1">  1        1 0.17237872E+00 0.11341132E+03</pdfrwt>
<pdfrwt beam="2">  1       -1 0.18288659E-02 0.11341132E+03</pdfrwt>
<totfact> 0.97574484E+03</totfact>
</mgrwt>
</event>
<event>
 8    1  0.8438969E-004  0.1000373E+03  0.7546771E-02  0.1281562E+00
          1   -1    0    0  501    0  0.00000000000E+00  0.00000000000E+00  0.17394740134E+03  0.17394740134E+03  0.00000000000E+00 0. -1.
         -1   -1    0    0    0  501 -0.00000000000E+00 -0.00000000000E+00 -0.10868913671E+03  0.10868913671E+03  0.00000000000E+00 0.  1.
         23    2    1    2    0    0  0.13535465352E+02  0.30667983365E+02 -0.65891519631E+02  0.11768888809E+03  0.91570999743E+02 0.  0.
         23    2    1    2    0    0 -0.13535465352E+02 -0.30667983365E+02  0.13114978426E+03  0.16494764996E+03  0.94253526679E+02 0.  0.
          5    1    4    4  502    0 -0.95359062297E+01 -0.63958843929E+02  0.72802777814E+02  0.97488469481E+02  0.47000000000E+01 0. -1.
         -5    1    3    3    0  503  0.14307892485E+02  0.51919190622E+02 -0.76332964460E+02  0.93536782098E+02  0.47000000000E+01 0.  1.
          5    1    3    3  503    0 -0.77242713281E+00 -0.21251207257E+02  0.10441444829E+02  0.24152105988E+02  0.47000000000E+01 0. -1.
         -5    1    4    4    0  502 -0.39995591221E+01  0.33290860565E+02  0.58347006444E+02  0.67459180482E+02  0.47000000000E+01 0.  1.
<mgrwt>
<rscale>  0 0.99400421E+02</rscale>
<asrwt>0</asrwt>
<pdfrwt beam="1">  1        1 0.26761139E-01 0.10003730E+03</pdfrwt>
<pdfrwt beam="2">  1       -1 0.16721406E-01 0.10003730E+03</pdfrwt>
<totfact> 0.44467216E+03</totfact>
</mgrwt>
</event>
<event>
 8    1  0.8438969E-004  0.9735757E+02  0.7546771E-02  0.1288093E+00
         -1   -1    0    0    0  501 -0.00000000000E+00  0.00000000000E+00  0.81673851240E+03  0.81673851240E+03  0.00000000000E+00 0.  1.
          1   -1    0    0  501    0  0.00000000000E+00 -0.00000000000E+00 -0.13719927968E+02  0.13719927968E+02  0.00000000000E+00 0. -1.
         23    2    1    2    0    0 -0.19917014218E+02 -0.65344304155E+01  0.57456012893E+03  0.58212044042E+03  0.91134401652E+02 0.  0.
         23    2    1    2    0    0  0.19917014218E+02  0.65344304155E+01  0.22845845551E+03  0.24833799995E+03  0.95074234631E+02 0.  0.
          5    1    4    4  502    0  0.51911865361E+02 -0.53391569331E+01  0.77854618150E+02  0.93844445383E+02  0.47000000000E+01 0. -1.
         -5    1    4    4    0  502 -0.31994851143E+02  0.11873587349E+02  0.15060383736E+03  0.15449355457E+03  0.47000000000E+01 0.  1.
          5    1    3    3  503    0  0.36331977540E+02 -0.13459737190E+01  0.20866479970E+03  0.21186059773E+03  0.47000000000E+01 0. -1.
         -5    1    3    3    0  503 -0.56248991759E+02 -0.51884566965E+01  0.36589532923E+03  0.37025984269E+03  0.47000000000E+01 0.  1.
<mgrwt>
<rscale>  0 0.96382111E+02</rscale>
<asrwt>0</asrwt>
<pdfrwt beam="1">  1        1 0.21107588E-02 0.97357569E+02</pdfrwt>
<pdfrwt beam="2">  1       -1 0.12565204E+00 0.97357569E+02</pdfrwt>
<totfact> 0.31200488E+03</totfact>
</mgrwt>
</event>
<event>
 8    1  0.8438969E-004  0.1981542E+03  0.7546771E-02  0.1151738E+00
          1   -1    0    0  501    0  0.00000000000E+00  0.00000000000E+00  0.56127217455E+02  0.56127217455E+02  0.00000000000E+00 0. -1.
         -1   -1    0    0    0  501 -0.00000000000E+00 -0.00000000000E+00 -0.10062281673E+04  0.10062281673E+04  0.00000000000E+00 0.  1.
         23    2    1    2    0    0 -0.75714829404E+02 -0.15699733041E+03 -0.17677266615E+03  0.26404359511E+03  0.89941911665E+02 0.  0.
         23    2    1    2    0    0  0.75714829404E+02  0.15699733041E+03 -0.77332828368E+03  0.79831178963E+03  0.94255938680E+02 0.  0.
          5    1    4    4  502    0  0.43082928825E+01  0.71795645380E+02 -0.16749090636E+03  0.18234162935E+03  0.47000000000E+01 0. -1.
         -5    1    3    3    0  503 -0.25160326017E+02 -0.41289433746E+02 -0.23166367790E+01  0.48634516038E+02  0.47000000000E+01 0.  1.
          5    1    3    3  503    0 -0.50554503387E+02 -0.11570789666E+03 -0.17445602937E+03  0.21540907907E+03  0.47000000000E+01 0. -1.
         -5    1    4    4    0  502  0.71406536521E+02  0.85201685028E+02 -0.60583737732E+03  0.61597016028E+03  0.47000000000E+01 0.  1.
<mgrwt>
<rscale>  0 0.19764841E+03</rscale>
<asrwt>0</asrwt>
<pdfrwt beam="1">  1        1 0.86349558E-02 0.19815418E+03</pdfrwt>
<pdfrwt beam="2">  1       -1 0.15480435E+00 0.19815418E+03</pdfrwt>
<totfact> 0.27361924E+02</totfact>
</mgrwt>
</event>
<event>
 8    1  0.8438969E-004  0.1214558E+03  0.7546771E-02  0.1241023E+00
         -2   -1    0    0    0  501 -0.00000000000E+00  0.00000000000E+00  0.30191781555E+03  0.30191781555E+03  0.00000000000E+00 0.  1.
          2   -1    0    0  501    0  0.00000000000E+00 -0.00000000000E+00 -0.55083127645E+02  0.55083127645E+02  0.00000000000E+00 0. -1.
         23    2    1    2    0    0  0.58641655289E+02 -0.52808388046E+02  0.62307169914E+02  0.13650524878E+03  0.92325131671E+02 0.  0.
         23    2    1    2    0    0 -0.58641655289E+02  0.52808388046E+02  0.18452751799E+03  0.22049569441E+03  0.91325663301E+02 0.  0.
          5    1    3    3  502    0  0.63252106751E+02  0.75058761641E+00  0.50953168415E+02  0.81361586524E+02  0.47000000000E+01 0.  1.
         -5    1    3    3    0  502 -0.46104514621E+01 -0.53558975662E+02  0.11354001500E+02  0.55143662254E+02  0.47000000000E+01 0. -1.
          5    1    4    4  503    0 -0.65875364860E+02  0.17398144379E+02  0.16623327315E+03  0.17971602663E+03  0.47000000000E+01 0. -1.
         -5    1    4    4    0  503  0.72337095710E+01  0.35410243667E+02  0.18294244832E+02  0.40779667786E+02  0.47000000000E+01 0.  1.
<mgrwt>
<rscale>  0 0.12126581E+03</rscale>
<asrwt>0</asrwt>
<pdfrwt beam="1">  1        2 0.84743274E-02 0.12145575E+03</pdfrwt>
<pdfrwt beam="2">  1       -2 0.46448894E-01 0.12145575E+03</pdfrwt>
<totfact> 0.33391302E+03</totfact>
</mgrwt>
</event>
<event>
 8    1  0.8438969E-004  0.9491363E+02  0.7546771E-02  0.1293115E+00
          2   -1    0    0  501    0  0.00000000000E+00  0.00000000000E+00  0.83726648780E+03  0.83726648780E+03  0.00000000000E+00 0. -1.
         -2   -1    0    0    0  501 -0.00000000000E+00 -0.00000000000E+00 -0.14338867878E+02  0.14338867878E+02  0.00000000000E+00 0.  1.
         23    2    1    2    0    0  0.87899513333E+01 -0.19083233770E+01  0.63897816245E+03  0.64598892355E+03  0.94486466325E+02 0.  0.
         23    2    1    2    0    0 -0.87899513333E+01  0.19083233770E+01  0.18394945747E+03  0.20561643212E+03  0.91431992838E+02 0.  0.
          5    1    3    3  502    0  0.49866766297E+02  0.24722791437E+01  0.43005381103E+03  0.43296787055E+03  0.47000000000E+01 0. -1.
         -5    1    3    3    0  502 -0.41076814963E+02 -0.43806025207E+01  0.20892435142E+03  0.21302105300E+03  0.47000000000E+01 0.  1.
          5    1    4    4  503    0  0.24836056388E+02  0.22917072039E+02  0.26550723870E+02  0.43232543596E+02  0.47000000000E+01 0. -1.
         -5    1    4    4    0  503 -0.33626007721E+02 -0.21008748662E+02  0.15739873360E+03  0.16238388853E+03  0.47000000000E+01 0.  1.
<mgrwt>
<rscale>  0 0.94144259E+02</rscale>
<asrwt>0</asrwt>
<pdfrwt beam="1">  1        2 0.12881019E+00 0.94913631E+02</pdfrwt>
<pdfrwt beam="2">  1       -2 0.22059803E-02 0.94913631E+02</pdfrwt>
<totfact> 0.20598371E+04</totfact>
</mgrwt>
</event>
<event>
 8    1  0.8438969E-004  0.9196872E+02  0.7546771E-02  0.1299357E+00
          1   -1    0    0  501    0  0.00000000000E+00  0.00000000000E+00  0.22304467381E+03  0.22304467381E+03  0.00000000000E+00 0. -1.
         -1   -1    0    0    0  501 -0.00000000000E+00 -0.00000000000E+00 -0.45754938160E+02  0.45754938160E+02  0.00000000000E+00 0.  1.
         23    2    1    2    0    0  0.23827126513E+01  0.69996091297E+01  0.29369582281E+02  0.94619771754E+02  0.89641826153E+02 0.  0.
         23    2    1    2    0    0 -0.23827126513E+01 -0.69996091297E+01  0.14792015337E+03  0.17417984022E+03  0.91671004778E+02 0.  0.
          5    1    3    3  502    0 -0.10645934693E+02  0.46517255568E+02  0.18121613894E+02  0.51260841596E+02  0.47000000000E+01 0. -1.
         -5    1    3    3    0  502  0.13028647344E+02 -0.39517646438E+02  0.11247968387E+02  0.43358930158E+02  0.47000000000E+01 0.  1.
          5    1    4    4  503    0 -0.16006454479E+01  0.40459650334E+02  0.44840925757E+02  0.60599867936E+02  0.47000000000E+01 0. -1.
         -5    1    4    4    0  503 -0.78206720338E+00 -0.47459259464E+02  0.10307922761E+03  0.11357997228E+03  0.47000000000E+01 0.  1.
<mgrwt>
<rscale>  0 0.91458878E+02</rscale>
<asrwt>0</asrwt>
<pdfrwt beam="1">  1        1 0.34314564E-01 0.91968717E+02</pdfrwt>
<pdfrwt beam="2">  1       -1 0.70392214E-02 0.91968717E+02</pdfrwt>
<totfact> 0.12133660E+04</totfact>
</mgrwt>
</event>
<event>
 8    1  0.8438969E-004  0.1470659E+03  0.7546771E-02  0.1204553E+00
         -2   -1    0    0    0  501 -0.00000000000E+00  0.00000000000E+00  0.40124343491E+03  0.40124343491E+03  0.00000000000E+00 0.  1.
          2   -1    0    0  501    0  0.00000000000E+00 -0.00000000000E+00 -0.65620268071E+02  0.65620268071E+02  0.00000000000E+00 0. -1.
         23    2    1    2    0    0 -0.59306964262E+02  0.98091571877E+02  0.26787587207E+03  0.30494372593E+03  0.89966219557E+02 0.  0.
         23    2    1    2    0    0  0.59306964262E+02 -0.98091571877E+02  0.67747294763E+02  0.16191997705E+03  0.92136369238E+02 0.  0.
          5    1    4    4  502    0  0.66077990740E+02 -0.30377112667E+02  0.12075187535E+02  0.73871306934E+02  0.47000000000E+01 0. -1.
         -5    1    4    4    0  502 -0.67710264776E+01 -0.67714459210E+02  0.55672107228E+02  0.88048670114E+02  0.47000000000E+01 0.  1.
          5    1    3    3  503    0  0.21318315734E+02  0.40531003635E+02  0.97069283680E+02  0.10743262389E+03  0.47000000000E+01 0. -1.
         -5    1    3    3    0  503 -0.80625279996E+02  0.57560568242E+02  0.17080658839E+03  0.19751110204E+03  0.47000000000E+01 0.  1.
<mgrwt>
<rscale>  0 0.14672730E+03</rscale>
<asrwt>0</asrwt>
<pdfrwt beam="1">  1        2 0.10095426E-01 0.14706591E+03</pdfrwt>
<pdfrwt beam="2">  1       -2 0.61729758E-01 0.14706591E+03</pdfrwt>
<totfact> 0.15366259E+03</totfact>
</mgrwt>
</event>
<event>
 8    1  0.8438969E-004  0.9569909E+02  0.7546771E-02  0.1290698E+00
          1   -1    0    0  501    0  0.00000000000E+00  0.00000000000E+00  0.39321417202E+02  0.39321417202E+02  0.00000000000E+00 0. -1.
         -1   -1    0    0    0  501 -0.00000000000E+00 -0.00000000000E+00 -0.23855243761E+03  0.23855243761E+03  0.00000000000E+00 0.  1.
         23    2    1    2    0    0  0.25298351147E+02 -0.46394545627E+01 -0.71689587152E+02  0.11957304666E+03  0.92178009693E+02 0.  0.
         23    2    1    2    0    0 -0.25298351147E+02  0.46394545627E+01 -0.12754143326E+03  0.15830080816E+03  0.90170935212E+02 0.  0.
          5    1    3    3  502    0 -0.15991635142E+02 -0.35062135831E+02 -0.11782803450E+02  0.40571051510E+02  0.47000000000E+01 0. -1.
         -5    1    3    3    0  502  0.41289986289E+02  0.30422681268E+02 -0.59906783702E+02  0.79001995145E+02  0.47000000000E+01 0.  1.
          5    1    4    4  503    0 -0.58628081094E+02  0.95537230554E+00 -0.92114138545E+02  0.10929441499E+03  0.47000000000E+01 0. -1.
         -5    1    4    4    0  503  0.33329729946E+02  0.36840822572E+01 -0.35427294711E+02  0.49006393164E+02  0.47000000000E+01 0.  1.
<mgrwt>
<rscale>  0 0.95212476E+02</rscale>
<asrwt>0</asrwt>
<pdfrwt beam="1">  1        1 0.60494488E-02 0.95699094E+02</pdfrwt>
<pdfrwt beam="2">  1       -1 0.36700375E-01 0.95699094E+02</pdfrwt>
<totfact> 0.84087753E+03</totfact>
</mgrwt>
</event>
<event>
 8    1  0.8438969E-004  0.1357190E+03  0.7546771E-02  0.1220105E+00
         -2   -1    0    0    0  501 -0.00000000000E+00  0.00000000000E+00  0.27408870257E+02  0.27408870257E+02  0.00000000000E+00 0.  1.
          2   -1    0    0  501    0  0.00000000000E+00 -0.00000000000E+00 -0.67137851012E+03  0.67137851012E+03  0.00000000000E+00 0. -1.
         23    2    1    2    0    0 -0.94920369975E+02 -0.24157985852E+02 -0.27859646002E+03  0.30989616910E+03  0.93947661866E+02 0.  0.
         23    2    1    2    0    0  0.94920369975E+02  0.24157985852E+02 -0.36537317984E+03  0.38889121127E+03  0.90251475019E+02 0.  0.
          5    1    4    4  502    0 -0.45577913575E+01  0.30483379685E+02 -0.12043760648E+03  0.12440786532E+03  0.47000000000E+01 0. -1.
         -5    1    3    3    0  503  0.10426415101E+02 -0.17367903170E+02 -0.14243011009E+02  0.25205308071E+02  0.47000000000E+01 0.  1.
          5    1    3    3  503    0 -0.10534678508E+03 -0.67900826825E+01 -0.26435344901E+03  0.28469086103E+03  0.47000000000E+01 0. -1.
         -5    1    4    4    0  502  0.99478161333E+02 -0.63253938329E+01 -0.24493557336E+03  0.26448334595E+03  0.47000000000E+01 0.  1.
<mgrwt>
<rscale>  0 0.13508156E+03</rscale>
<asrwt>0</asrwt>
<pdfrwt beam="1">  1        2 0.10328900E+00 0.13571900E+03</pdfrwt>
<pdfrwt beam="2">  1       -2 0.42167491E-02 0.13571900E+03</pdfrwt>
<totfact> 0.10702581E+04</totfact>
</mgrwt>
</event>
<event>
 8    1  0.8438969E-004  0.9860303E+02  0.7546771E-02  0.1283805E+00
         -3   -1    0    0    0  501 -0.00000000000E+00  0.00000000000E+00  0.30332495051E+03  0.30332495051E+03  0.00000000000E+00 0.  1.
          3   -1    0    0  501    0  0.00000000000E+00 -0.00000000000E+00 -0.35022329909E+02  0.35022329909E+02  0.00000000000E+00 0. -1.
         23    2    1    2    0    0  0.13630293245E+02  0.26120722723E+02  0.82874780979E+02  0.12880522456E+03  0.94098243878E+02 0.  0.
         23    2    1    2    0    0 -0.13630293245E+02 -0.26120722723E+02  0.18542783962E+03  0.20954205587E+03  0.93039305775E+02 0.  0.
          5    1    4    4  502    0  0.77147534585E+01 -0.58047732077E+02  0.10595970810E+03  0.12115529852E+03  0.47000000000E+01 0. -1.
         -5    1    3    3    0  503 -0.36870928411E+02  0.71479163015E+01  0.57893961914E+02  0.69169060247E+02  0.47000000000E+01 0.  1.
          5    1    3    3  503    0  0.50501221656E+02  0.18972806421E+02  0.24980819065E+02  0.59636164309E+02  0.47000000000E+01 0. -1.
         -5    1    4    4    0  502 -0.21345046704E+02  0.31927009354E+02  0.79468131527E+02  0.88386757342E+02  0.47000000000E+01 0.  1.
<mgrwt>
<rscale>  0 0.98349538E+02</rscale>
<asrwt>0</asrwt>
<pdfrwt beam="1">  1        3 0.53880510E-02 0.98603025E+02</pdfrwt>
<pdfrwt beam="2">  1       -3 0.46665375E-01 0.98603025E+02</pdfrwt>
<totfact> 0.20048692E+03</totfact>
</mgrwt>
</event>
<event>
 8    1  0.8438969E-004  0.1050725E+03  0.7546771E-02  0.1270666E+00
          2   -1    0    0  501    0  0.00000000000E+00  0.00000000000E+00  0.37168916065E+03  0.37168916065E+03  0.00000000000E+00 0. -1.
         -2   -1    0    0    0  501 -0.00000000000E+00 -0.00000000000E+00 -0.67572718563E+02  0.67572718563E+02  0.00000000000E+00 0.  1.
         23    2    1    2    0    0  0.32938756077E+02  0.35285520742E+02  0.31688583936E+03  0.33341633718E+03  0.91759408694E+02 0.  0.
         23    2    1    2    0    0 -0.32938756077E+02 -0.35285520742E+02 -0.12769397275E+02  0.10584554203E+03  0.93328407441E+02 0.  0.
          5    1    3    3  502    0 -0.41866766348E+01  0.44955065704E+02  0.26421236573E+03  0.26808347654E+03  0.47000000000E+01 0. -1.
         -5    1    3    3    0  502  0.37125432712E+02 -0.96695449625E+01  0.52673473637E+02  0.65332860635E+02  0.47000000000E+01 0.  1.
          5    1    4    4  503    0 -0.46896254497E+02  0.36712235428E+01  0.21478781451E+02  0.51924605158E+02  0.47000000000E+01 0. -1.
         -5    1    4    4    0  503  0.13957498420E+02 -0.38956744285E+02 -0.34248178727E+02  0.53920936875E+02  0.47000000000E+01 0.  1.
<mgrwt>
<rscale>  0 0.10472294E+03</rscale>
<asrwt>0</asrwt>
<pdfrwt beam="1">  1        2 0.57182947E-01 0.10507246E+03</pdfrwt>
<pdfrwt beam="2">  1       -2 0.10395803E-01 0.10507246E+03</pdfrwt>
<totfact> 0.51028139E+03</totfact>
</mgrwt>
</event>
<event>
 8    1  0.8438969E-004  0.1157660E+03  0.7546771E-02  0.1255656E+00
          1   -1    0    0  501    0  0.00000000000E+00  0.00000000000E+00  0.44348316412E+03  0.44348316412E+03  0.00000000000E+00 0. -1.
         -1   -1    0    0    0  501 -0.00000000000E+00 -0.00000000000E+00 -0.27357890895E+02  0.27357890895E+02  0.00000000000E+00 0.  1.
         23    2    1    2    0    0 -0.11936980224E+02 -0.46839481135E+02  0.21374497790E+03  0.23768972985E+03  0.92049245565E+02 0.  0.
         23    2    1    2    0    0  0.11936980224E+02  0.46839481135E+02  0.20238029533E+03  0.23315132517E+03  0.10519186281E+03 0.  0.
          5    1    4    4  502    0 -0.43430985605E+02  0.26285350680E+01  0.92388619122E+02  0.10222967598E+03  0.47000000000E+01 0.  1.
         -5    1    4    4    0  502  0.55367965829E+02  0.44210946067E+02  0.10999167621E+03  0.13092164919E+03  0.47000000000E+01 0. -1.
          5    1    3    3  503    0  0.38877666458E+02 -0.83651207721E+01  0.80414876092E+02  0.89833682389E+02  0.47000000000E+01 0. -1.
         -5    1    3    3    0  503 -0.50814646682E+02 -0.38474360363E+02  0.13333010181E+03  0.14785604746E+03  0.47000000000E+01 0.  1.
<mgrwt>
<rscale>  0 0.11269673E+03</rscale>
<asrwt>0</asrwt>
<pdfrwt beam="1">  1        1 0.68228174E-01 0.11576596E+03</pdfrwt>
<pdfrwt beam="2">  1       -1 0.42089066E-02 0.11576596E+03</pdfrwt>
<totfact> 0.11305415E+04</totfact>
</mgrwt>
</event>
<event>
 8    1  0.8438969E-004  0.9400109E+02  0.7546771E-02  0.1293963E+00
          2   -1    0    0  501    0  0.00000000000E+00  0.00000000000E+00  0.87113767396E+03  0.87113767396E+03  0.00000000000E+00 0. -1.
         -2   -1    0    0    0  501 -0.00000000000E+00 -0.00000000000E+00 -0.28660720524E+02  0.28660720524E+02  0.00000000000E+00 0.  1.
         23    2    1    2    0    0  0.20919972485E+01 -0.26435872414E+02  0.57942082568E+02  0.10965209872E+03  0.89236013015E+02 0.  0.
         23    2    1    2    0    0 -0.20919972485E+01  0.26435872414E+02  0.78453487087E+03  0.79014629576E+03  0.90182998927E+02 0.  0.
          5    1    3    3  502    0 -0.22985056654E+02  0.53095307372E+01  0.64097421149E+02  0.68462203762E+02  0.47000000000E+01 0. -1.
         -5    1    3    3    0  502  0.25077053903E+02 -0.31745403151E+02 -0.61553385811E+01  0.41189894959E+02  0.47000000000E+01 0.  1.
          5    1    4    4  503    0 -0.22651545007E+02  0.54277414823E+02  0.50755954731E+03  0.51097741077E+03  0.47000000000E+01 0. -1.
         -5    1    4    4    0  503  0.20559547759E+02 -0.27841542410E+02  0.27697532355E+03  0.27916888499E+03  0.47000000000E+01 0.  1.
<mgrwt>
<rscale>  0 0.93773229E+02</rscale>
<asrwt>0</asrwt>
<pdfrwt beam="1">  1        2 0.13402116E+00 0.94001091E+02</pdfrwt>
<pdfrwt beam="2">  1       -2 0.44093423E-02 0.94001091E+02</pdfrwt>
<totfact> 0.71327173E+03</totfact>
</mgrwt>
</event>
<event>
 8    1  0.8438969E-004  0.1011963E+03  0.7546771E-02  0.1279502E+00
          2   -1    0    0  501    0  0.00000000000E+00  0.00000000000E+00  0.13282946232E+03  0.13282946232E+03  0.00000000000E+00 0. -1.
         -2   -1    0    0    0  501 -0.00000000000E+00 -0.00000000000E+00 -0.36582381273E+03  0.36582381273E+03  0.00000000000E+00 0.  1.
         23    2    1    2    0    0 -0.10227093428E+02 -0.38803174168E+02 -0.33931352680E+03  0.35408243201E+03  0.92900050742E+02 0.  0.
         23    2    1    2    0    0  0.10227093428E+02  0.38803174168E+02  0.10631917638E+03  0.14457084304E+03  0.89368236100E+02 0.  0.
          5    1    3    3  502    0 -0.30024462096E+02  0.15488773020E+02 -0.61910173593E+02  0.70684722593E+02  0.47000000000E+01 0. -1.
         -5    1    3    3    0  502  0.19797368668E+02 -0.54291947188E+02 -0.27740335320E+03  0.28339770942E+03  0.47000000000E+01 0.  1.
          5    1    4    4  503    0  0.28229083217E+02  0.55267112084E+02  0.10180251660E+03  0.11931964299E+03  0.47000000000E+01 0. -1.
         -5    1    4    4    0  503 -0.18001989788E+02 -0.16463937916E+02  0.45166597818E+01  0.25251200043E+02  0.47000000000E+01 0.  1.
<mgrwt>
<rscale>  0 0.10037841E+03</rscale>
<asrwt>0</asrwt>
<pdfrwt beam="1">  1        2 0.20435302E-01 0.10119634E+03</pdfrwt>
<pdfrwt beam="2">  1       -2 0.56280585E-01 0.10119634E+03</pdfrwt>
<totfact> 0.79986334E+02</totfact>
</mgrwt>
</event>
<event>
 8    1  0.8438969E-004  0.1040186E+03  0.7546771E-02  0.1275611E+00
          1   -1    0    0  501    0  0.00000000000E+00  0.00000000000E+00  0.36560814985E+03  0.36560814985E+03  0.00000000000E+00 0. -1.
         -1   -1    0    0    0  501 -0.00000000000E+00 -0.00000000000E+00 -0.27744859594E+02  0.27744859594E+02  0.00000000000E+00 0.  1.
         23    2    1    2    0    0  0.29995048999E+02 -0.85988897478E+01  0.15343406610E+03  0.18161257982E+03  0.92018871104E+02 0.  0.
         23    2    1    2    0    0 -0.29995048999E+02  0.85988897478E+01  0.18442922416E+03  0.21174042962E+03  0.99228156010E+02 0.  0.
          5    1    4    4  502    0 -0.15351477942E+02  0.53453655266E+02  0.11256369488E+03  0.12564090314E+03  0.47000000000E+01 0. -1.
         -5    1    4    4    0  502 -0.14643571057E+02 -0.44854765518E+02  0.71865529276E+02  0.86099526486E+02  0.47000000000E+01 0.  1.
          5    1    3    3  503    0 -0.29864267168E+02 -0.15486593335E+02  0.35733226788E+02  0.49301749698E+02  0.47000000000E+01 0. -1.
         -5    1    3    3    0  503  0.59859316166E+02  0.68877035875E+01  0.11770083931E+03  0.13231083012E+03  0.47000000000E+01 0.  1.
<mgrwt>
<rscale>  0 0.10226127E+03</rscale>
<asrwt>0</asrwt>
<pdfrwt beam="1">  1        1 0.56247404E-01 0.10401861E+03</pdfrwt>
<pdfrwt beam="2">  1       -1 0.42684402E-02 0.10401861E+03</pdfrwt>
<totfact> 0.13980065E+04</totfact>
</mgrwt>
</event>
<event>
 8    1  0.8438969E-004  0.1281656E+03  0.7546771E-02  0.1231020E+00
         -2   -1    0    0    0  501 -0.00000000000E+00  0.00000000000E+00  0.90931711915E+01  0.90931711915E+01  0.00000000000E+00 0.  1.
          2   -1    0    0  501    0  0.00000000000E+00 -0.00000000000E+00 -0.18174746416E+04  0.18174746416E+04  0.00000000000E+00 0. -1.
         23    2    1    2    0    0 -0.53691438436E+02 -0.67828342896E+02 -0.10340454209E+04  0.10416966518E+04  0.91643479158E+02 0.  0.
         23    2    1    2    0    0  0.53691438436E+02  0.67828342896E+02 -0.77433604959E+03  0.78487116105E+03  0.94567262268E+02 0.  0.
          5    1    4    4  502    0 -0.42830560889E+01  0.68858035082E+02 -0.46482294711E+03  0.46993854462E+03  0.47000000000E+01 0. -1.
         -5    1    3    3    0  503 -0.74844900860E+02 -0.32546167524E+02 -0.78345014309E+03  0.78770376978E+03  0.47000000000E+01 0.  1.
          5    1    3    3  503    0  0.21153462424E+02 -0.35282175371E+02 -0.25059527777E+03  0.25399288201E+03  0.47000000000E+01 0. -1.
         -5    1    4    4    0  502  0.57974494525E+02 -0.10296921863E+01 -0.30951310248E+03  0.31493261643E+03  0.47000000000E+01 0. -1.
<mgrwt>
<rscale>  0 0.12762675E+03</rscale>
<asrwt>0</asrwt>
<pdfrwt beam="1">  1        2 0.27961181E+00 0.12816560E+03</pdfrwt>
<pdfrwt beam="2">  1       -2 0.13989478E-02 0.12816560E+03</pdfrwt>
<totfact> 0.11807196E+04</totfact>
</mgrwt>
</event>
<event>
 8    1  0.8438969E-004  0.9659234E+02  0.7546771E-02  0.1287724E+00
         -2   -1    0    0    0  501 -0.00000000000E+00  0.00000000000E+00  0.98870335516E+02  0.98870335516E+02  0.00000000000E+00 0.  1.
          2   -1    0    0  501    0  0.00000000000E+00 -0.00000000000E+00 -0.22216757432E+03  0.22216757432E+03  0.00000000000E+00 0. -1.
         23    2    1    2    0    0  0.18027309586E+02  0.21470625353E+02  0.60153603692E+02  0.11379163818E+03  0.92434350964E+02 0.  0.
         23    2    1    2    0    0 -0.18027309586E+02 -0.21470625353E+02 -0.18345084250E+03  0.20724627166E+03  0.92254180717E+02 0.  0.
          5    1    4    4  502    0 -0.29263785096E+02 -0.40511280900E+02 -0.17664861478E+03  0.18364192360E+03  0.47000000000E+01 0. -1.
         -5    1    3    3    0  503  0.29979855509E+02  0.51647577738E+02  0.53524572458E+02  0.80332022752E+02  0.47000000000E+01 0.  1.
          5    1    3    3  503    0 -0.11952545924E+02 -0.30176952386E+02  0.66290312337E+01  0.33459615426E+02  0.47000000000E+01 0. -1.
         -5    1    4    4    0  502  0.11236475510E+02  0.19040655547E+02 -0.68022277168E+01  0.23604348063E+02  0.47000000000E+01 0.  1.
<mgrwt>
<rscale>  0 0.96549215E+02</rscale>
<asrwt>0</asrwt>
<pdfrwt beam="1">  1        2 0.34179626E-01 0.96592344E+02</pdfrwt>
<pdfrwt beam="2">  1       -2 0.15210821E-01 0.96592344E+02</pdfrwt>
<totfact> 0.47568635E+03</totfact>
</mgrwt>
</event>
<event>
 8    1  0.1499960E-003  0.9151292E+02  0.7546771E-02  0.1299399E+00
          1   -1    0    0  501    0  0.00000000000E+00  0.00000000000E+00  0.24402184877E+03  0.24402184877E+03  0.00000000000E+00 0. -1.
         -1   -1    0    0    0  501 -0.00000000000E+00 -0.00000000000E+00 -0.83005444926E+02  0.83005444926E+02  0.00000000000E+00 0.  1.
         23    2    1    2    0    0 -0.67078470906E+00  0.18151476583E+00  0.20592784871E+03  0.22534616458E+03  0.91510284211E+02 0.  0.
         23    2    1    2    0    0  0.67078470906E+00 -0.18151476583E+00 -0.44911444870E+02  0.10168112911E+03  0.91222427273E+02 0.  0.
          5    1    3    3  502    0 -0.26944894396E+02 -0.70439016320E+01  0.19258200851E+03  0.19464214314E+03  0.47000000000E+01 0. -1.
         -5    1    3    3    0  502  0.26274109687E+02  0.72254163978E+01  0.13345840202E+02  0.30704021441E+02  0.47000000000E+01 0.  1.
          5    1    4    4  503    0 -0.15050018717E+02 -0.38548888866E+02 -0.18080647320E+01  0.41687875867E+02  0.47000000000E+01 0. -1.
         -5    1    4    4    0  503  0.15720803426E+02  0.38367374100E+02 -0.43103380138E+02  0.59993253246E+02  0.47000000000E+01 0.  1.
<mgrwt>
<rscale>  0 0.91440875E+02</rscale>
<asrwt>0</asrwt>
<pdfrwt beam="1">  1        1 0.37541823E-01 0.91512923E+02</pdfrwt>
<pdfrwt beam="2">  1       -1 0.12770069E-01 0.91512923E+02</pdfrwt>
<totfact> 0.44298585E+03</totfact>
</mgrwt>
</event>
<event>
 8    1  0.8438969E-004  0.1023478E+03  0.7546771E-02  0.1281900E+00
          3   -1    0    0  501    0  0.00000000000E+00  0.00000000000E+00  0.74953132333E+02  0.74953132333E+02  0.00000000000E+00 0. -1.
         -3   -1    0    0    0  501 -0.00000000000E+00 -0.00000000000E+00 -0.12574010698E+03  0.12574010698E+03  0.00000000000E+00 0.  1.
         23    2    1    2    0    0 -0.56527727672E+01  0.15222789444E+01 -0.38669338756E+02  0.10940929797E+03  0.10218026008E+03 0.  0.
         23    2    1    2    0    0  0.56527727672E+01 -0.15222789444E+01 -0.12117635890E+02  0.91283941341E+02  0.90286486664E+02 0.  0.
          5    1    3    3  502    0  0.31820305902E+02  0.36133687013E+02 -0.62332424318E+01  0.48776208505E+02  0.47000000000E+01 0. -1.
         -5    1    4    4    0  503  0.12665023720E+02 -0.43880282657E+02  0.16777138265E+01  0.45943299355E+02  0.47000000000E+01 0.  1.
          5    1    4    4  503    0 -0.70122509533E+01  0.42358003713E+02 -0.13795349716E+02  0.45340641987E+02  0.47000000000E+01 0. -1.
         -5    1    3    3    0  502 -0.37473078669E+02 -0.34611408069E+02 -0.32436096324E+02  0.60633089466E+02  0.47000000000E+01 0.  1.
<mgrwt>
<rscale>  0 0.99241289E+02</rscale>
<asrwt>0</asrwt>
<pdfrwt beam="1">  1        3 0.11531251E-01 0.10234782E+03</pdfrwt>
<pdfrwt beam="2">  1       -3 0.19344632E-01 0.10234782E+03</pdfrwt>
<totfact> 0.29915793E+03</totfact>
</mgrwt>
</event>
<event>
 8    1  0.8438969E-004  0.9933433E+02  0.7546771E-02  0.1284064E+00
         -2   -1    0    0    0  501 -0.00000000000E+00  0.00000000000E+00  0.27095854772E+02  0.27095854772E+02  0.00000000000E+00 0.  1.
          2   -1    0    0  501    0  0.00000000000E+00 -0.00000000000E+00 -0.70905730889E+03  0.70905730889E+03  0.00000000000E+00 0. -1.
         23    2    1    2    0    0 -0.12823849682E+02 -0.26332941008E+02 -0.74757846564E+02  0.12087799727E+03  0.90359723877E+02 0.  0.
         23    2    1    2    0    0  0.12823849682E+02  0.26332941008E+02 -0.60720360755E+03  0.61527516639E+03  0.94918040673E+02 0.  0.
          5    1    4    4  502    0  0.29899512952E+02  0.48408169650E+02 -0.52966411065E+03  0.53273210141E+03  0.47000000000E+01 0. -1.
         -5    1    3    3    0  503  0.28097390332E+02 -0.40411795957E+02 -0.27298733888E+02  0.56479088766E+02  0.47000000000E+01 0.  1.
          5    1    3    3  503    0 -0.40921240015E+02  0.14078854949E+02 -0.47459112675E+02  0.64398908507E+02  0.47000000000E+01 0. -1.
         -5    1    4    4    0  502 -0.17075663270E+02 -0.22075228643E+02 -0.77539496908E+02  0.82543064981E+02  0.47000000000E+01 0.  1.
<mgrwt>
<rscale>  0 0.98229497E+02</rscale>
<asrwt>0</asrwt>
<pdfrwt beam="1">  1        2 0.10908574E+00 0.99334331E+02</pdfrwt>
<pdfrwt beam="2">  1       -2 0.41685929E-02 0.99334331E+02</pdfrwt>
<totfact> 0.99942862E+03</totfact>
</mgrwt>
</event>
<event>
 8    1  0.8438969E-004  0.1015648E+03  0.7546771E-02  0.1281223E+00
         -4   -1    0    0    0  501 -0.00000000000E+00  0.00000000000E+00  0.43697247322E+03  0.43697247322E+03  0.00000000000E+00 0.  1.
          4   -1    0    0  501    0  0.00000000000E+00 -0.00000000000E+00 -0.30648775635E+02  0.30648775635E+02  0.00000000000E+00 0. -1.
         23    2    1    2    0    0 -0.29969137415E+02  0.52543648136E+01  0.33425919456E+03  0.34934883880E+03  0.96900177910E+02 0.  0.
         23    2    1    2    0    0  0.29969137415E+02 -0.52543648136E+01  0.72064503023E+02  0.11827241005E+03  0.88709147420E+02 0.  0.
          5    1    3    3  502    0 -0.24206430056E+02 -0.35103354200E+02  0.26799436356E+03  0.27140608989E+03  0.47000000000E+01 0. -1.
         -5    1    3    3    0  502 -0.57627073589E+01  0.40357719014E+02  0.66264831001E+02  0.77942748910E+02  0.47000000000E+01 0.  1.
          5    1    4    4  503    0 -0.25472248707E+02 -0.20479144902E+02  0.12372777266E+02  0.35261968853E+02  0.47000000000E+01 0. -1.
         -5    1    4    4    0  503  0.55441386122E+02  0.15224780088E+02  0.59691725757E+02  0.83010441197E+02  0.47000000000E+01 0.  1.
<mgrwt>
<rscale>  0 0.99560536E+02</rscale>
<asrwt>0</asrwt>
<pdfrwt beam="1">  1        4 0.47151966E-02 0.10156477E+03</pdfrwt>
<pdfrwt beam="2">  1       -4 0.67226530E-01 0.10156477E+03</pdfrwt>
<totfact> 0.84810427E+02</totfact>
</mgrwt>
</event>
<event>
 8    1  0.8438969E-004  0.1435661E+03  0.7546771E-02  0.1214429E+00
         -2   -1    0    0    0  501 -0.00000000000E+00  0.00000000000E+00  0.91689800924E+02  0.91689800924E+02  0.00000000000E+00 0.  1.
          2   -1    0    0  501    0  0.00000000000E+00 -0.00000000000E+00 -0.29935588519E+03  0.29935588519E+03  0.00000000000E+00 0. -1.
         23    2    1    2    0    0  0.70872991564E+02  0.50218175724E+02  0.13310668528E+02  0.12752726608E+03  0.92418524066E+02 0.  0.
         23    2    1    2    0    0 -0.70872991564E+02 -0.50218175724E+02 -0.22097675279E+03  0.26351842003E+03  0.11430829504E+03 0.  0.
          5    1    3    3  502    0 -0.57035041186E+01  0.38533537833E+02 -0.18841357137E+02  0.43525282721E+02  0.47000000000E+01 0. -1.
         -5    1    3    3    0  502  0.76576495682E+02  0.11684637891E+02  0.32152025665E+02  0.84001983358E+02  0.47000000000E+01 0.  1.
          5    1    4    4  503    0 -0.87508056278E+02  0.15823519232E+01 -0.11840866814E+03  0.14731892765E+03  0.47000000000E+01 0. -1.
         -5    1    4    4    0  503  0.16635064715E+02 -0.51800527647E+02 -0.10256808465E+03  0.11619949239E+03  0.47000000000E+01 0.  1.
<mgrwt>
<rscale>  0 0.13918585E+03</rscale>
<asrwt>0</asrwt>
<pdfrwt beam="1">  1        2 0.46054752E-01 0.14356613E+03</pdfrwt>
<pdfrwt beam="2">  1       -2 0.14106123E-01 0.14356613E+03</pdfrwt>
<totfact> 0.40130297E+03</totfact>
</mgrwt>
</event>
<event>
 8    1  0.8438969E-004  0.1192631E+03  0.7546771E-02  0.1244771E+00
          2   -1    0    0  501    0  0.00000000000E+00  0.00000000000E+00  0.86912571103E+02  0.86912571103E+02  0.00000000000E+00 0. -1.
         -2   -1    0    0    0  501 -0.00000000000E+00 -0.00000000000E+00 -0.21463889116E+03  0.21463889116E+03  0.00000000000E+00 0.  1.
         23    2    1    2    0    0 -0.73715682247E+02 -0.11325941205E+02  0.10461722266E+02  0.11972104549E+03  0.93066655402E+02 0.  0.
         23    2    1    2    0    0  0.73715682247E+02  0.11325941205E+02 -0.13818804232E+03  0.18183041677E+03  0.91673805793E+02 0.  0.
          5    1    4    4  502    0 -0.11359483904E+02  0.23427688895E+02 -0.11907799544E+02  0.29013448115E+02  0.47000000000E+01 0. -1.
         -5    1    3    3    0  503 -0.22526699580E+02 -0.49864936133E+02  0.24079245989E+01  0.54971375737E+02  0.47000000000E+01 0.  1.
          5    1    3    3  503    0 -0.51188982666E+02  0.38538994928E+02  0.80537976671E+01  0.64749669755E+02  0.47000000000E+01 0. -1.
         -5    1    4    4    0  502  0.85075166151E+02 -0.12101747690E+02 -0.12628024278E+03  0.15281696866E+03  0.47000000000E+01 0.  1.
<mgrwt>
<rscale>  0 0.11899122E+03</rscale>
<asrwt>0</asrwt>
<pdfrwt beam="1">  1        2 0.13371165E-01 0.11926308E+03</pdfrwt>
<pdfrwt beam="2">  1       -2 0.33021368E-01 0.11926308E+03</pdfrwt>
<totfact> 0.36429832E+03</totfact>
</mgrwt>
</event>
<event>
 8    1  0.8438969E-004  0.1169126E+03  0.7546771E-02  0.1250190E+00
         -2   -1    0    0    0  501 -0.00000000000E+00  0.00000000000E+00  0.32069609096E+02  0.32069609096E+02  0.00000000000E+00 0.  1.
          2   -1    0    0  501    0  0.00000000000E+00 -0.00000000000E+00 -0.48910512002E+03  0.48910512002E+03  0.00000000000E+00 0. -1.
         23    2    1    2    0    0 -0.62346407228E+02 -0.24993744455E+02 -0.12032208066E+03  0.16474172526E+03  0.90281067744E+02 0.  0.
         23    2    1    2    0    0  0.62346407228E+02  0.24993744455E+02 -0.33671343027E+03  0.35643300385E+03  0.95691119532E+02 0.  0.
          5    1    3    3  502    0 -0.12634553043E+02 -0.50327709600E+02 -0.81041607488E+02  0.96344913869E+02  0.47000000000E+01 0. -1.
         -5    1    4    4    0  503 -0.24755988138E+02  0.74749480407E+01 -0.54119977852E+02  0.60164738840E+02  0.47000000000E+01 0.  1.
          5    1    4    4  503    0  0.87102395366E+02  0.17518796414E+02 -0.28259345242E+03  0.29626826501E+03  0.47000000000E+01 0. -1.
         -5    1    3    3    0  502 -0.49711854185E+02  0.25333965145E+02 -0.39280473169E+02  0.68396811394E+02  0.47000000000E+01 0.  1.
<mgrwt>
<rscale>  0 0.11580054E+03</rscale>
<asrwt>0</asrwt>
<pdfrwt beam="1">  1        2 0.75246939E-01 0.11691258E+03</pdfrwt>
<pdfrwt beam="2">  1       -2 0.49337862E-02 0.11691258E+03</pdfrwt>
<totfact> 0.11963226E+04</totfact>
</mgrwt>
</event>
<event>
 8    1  0.8438969E-004  0.1177391E+03  0.7546771E-02  0.1259534E+00
          1   -1    0    0  501    0  0.00000000000E+00  0.00000000000E+00  0.17903619690E+03  0.17903619690E+03  0.00000000000E+00 0. -1.
         -1   -1    0    0    0  501 -0.00000000000E+00 -0.00000000000E+00 -0.71051912319E+02  0.71051912319E+02  0.00000000000E+00 0.  1.
         23    2    1    2    0    0 -0.28655282194E+00 -0.71169783593E+02  0.18401520114E+01  0.91566617154E+02  0.57583322312E+02 0.  0.
         23    2    1    2    0    0  0.28655282194E+00  0.71169783593E+02  0.10614413257E+03  0.15852149206E+03  0.93793743705E+02 0.  0.
          5    1    4    4  502    0 -0.42761347189E+02  0.13864797894E+02  0.49634060485E+02  0.67129690855E+02  0.47000000000E+01 0. -1.
         -5    1    3    3    0  503  0.15869085473E+02 -0.23436955819E+02 -0.21479677217E+02  0.35841111941E+02  0.47000000000E+01 0.  1.
          5    1    3    3  503    0 -0.16155638295E+02 -0.47732827774E+02  0.23319829229E+02  0.55725505213E+02  0.47000000000E+01 0. -1.
         -5    1    4    4    0  502  0.43047900011E+02  0.57304985699E+02  0.56510072082E+02  0.91391801208E+02  0.47000000000E+01 0.  1.
<mgrwt>
<rscale>  0 0.11056121E+03</rscale>
<asrwt>0</asrwt>
<pdfrwt beam="1">  1        1 0.27544030E-01 0.11773906E+03</pdfrwt>
<pdfrwt beam="2">  1       -1 0.10931064E-01 0.11773906E+03</pdfrwt>
<totfact> 0.83779626E+03</totfact>
</mgrwt>
</event>
<event>
 8    1  0.8438969E-004  0.1550487E+03  0.7546771E-02  0.1195682E+00
          2   -1    0    0  501    0  0.00000000000E+00  0.00000000000E+00  0.48667655177E+03  0.48667655177E+03  0.00000000000E+00 0. -1.
         -2   -1    0    0    0  501 -0.00000000000E+00 -0.00000000000E+00 -0.10491006325E+03  0.10491006325E+03  0.00000000000E+00 0.  1.
         23    2    1    2    0    0 -0.10925136731E+03  0.60617119989E+02 -0.25662133520E+02  0.15715798331E+03  0.91813888519E+02 0.  0.
         23    2    1    2    0    0  0.10925136731E+03 -0.60617119989E+02  0.40742862204E+03  0.43442863171E+03  0.84379248033E+02 0.  0.
          5    1    4    4  502    0  0.10945841486E+03 -0.22153034884E+02  0.31290427854E+03  0.33226958794E+03  0.47000000000E+01 0. -1.
         -5    1    3    3    0  503 -0.36714207260E+02 -0.18328786481E+02 -0.27861441137E+02  0.49821956313E+02  0.47000000000E+01 0.  1.
          5    1    3    3  503    0 -0.72537160055E+02  0.78945906471E+02  0.21993076173E+01  0.10733602700E+03  0.47000000000E+01 0. -1.
         -5    1    4    4    0  502 -0.20704754107E+00 -0.38464085105E+02  0.94524343493E+02  0.10215904377E+03  0.47000000000E+01 0.  1.
<mgrwt>
<rscale>  0 0.15396652E+03</rscale>
<asrwt>0</asrwt>
<pdfrwt beam="1">  1        2 0.74873314E-01 0.15504866E+03</pdfrwt>
<pdfrwt beam="2">  1       -2 0.16140010E-01 0.15504866E+03</pdfrwt>
<totfact> 0.19162650E+03</totfact>
</mgrwt>
</event>
<event>
 8    1  0.8438969E-004  0.9795878E+02  0.7546771E-02  0.1287953E+00
          2   -1    0    0  501    0  0.00000000000E+00  0.00000000000E+00  0.27565666285E+02  0.27565666285E+02  0.00000000000E+00 0. -1.
         -2   -1    0    0    0  501 -0.00000000000E+00 -0.00000000000E+00 -0.52607620177E+03  0.52607620177E+03  0.00000000000E+00 0.  1.
         23    2    1    2    0    0  0.25208171845E+02  0.14578281425E+02 -0.42414316362E+03  0.43530833369E+03  0.93530443820E+02 0.  0.
         23    2    1    2    0    0 -0.25208171845E+02 -0.14578281425E+02 -0.74367371867E+02  0.11833353436E+03  0.87317473277E+02 0.  0.
          5    1    3    3  502    0 -0.16241977464E+02  0.43225344454E+02 -0.23312643480E+03  0.23770203372E+03  0.47000000000E+01 0. -1.
         -5    1    4    4    0  503 -0.49027187195E+02 -0.28876717057E+02 -0.26852153609E+02  0.63092456171E+02  0.47000000000E+01 0.  1.
          5    1    4    4  503    0  0.23819015350E+02  0.14298435632E+02 -0.47515218258E+02  0.55241078193E+02  0.47000000000E+01 0. -1.
         -5    1    3    3    0  502  0.41450149309E+02 -0.28647063029E+02 -0.19101672882E+03  0.19760629997E+03  0.47000000000E+01 0.  1.
<mgrwt>
<rscale>  0 0.96445686E+02</rscale>
<asrwt>0</asrwt>
<pdfrwt beam="1">  1        2 0.42408718E-02 0.97958778E+02</pdfrwt>
<pdfrwt beam="2">  1       -2 0.80934800E-01 0.97958778E+02</pdfrwt>
<totfact> 0.25405418E+03</totfact>
</mgrwt>
</event>
<event>
 8    1  0.8438969E-004  0.9791800E+02  0.7546771E-02  0.1287641E+00
          2   -1    0    0  501    0  0.00000000000E+00  0.00000000000E+00  0.53999230600E+03  0.53999230600E+03  0.00000000000E+00 0. -1.
         -2   -1    0    0    0  501 -0.00000000000E+00 -0.00000000000E+00 -0.16979447823E+02  0.16979447823E+02  0.00000000000E+00 0.  1.
         23    2    1    2    0    0 -0.15403851807E+02  0.31239033190E+02  0.22764177854E+03  0.24579333405E+03  0.85909416737E+02 0.  0.
         23    2    1    2    0    0  0.15403851807E+02 -0.31239033190E+02  0.29537107964E+03  0.31117841977E+03  0.91513815339E+02 0.  0.
          5    1    4    4  502    0 -0.23096154505E+02 -0.18866742901E+02  0.24288423607E+03  0.24475340339E+03  0.47000000000E+01 0. -1.
         -5    1    3    3    0  503  0.33903142785E+02  0.71333554329E+01  0.61322368211E+02  0.70589168386E+02  0.47000000000E+01 0.  1.
          5    1    3    3  503    0 -0.49306994591E+02  0.24105677757E+02  0.16631941032E+03  0.17520416567E+03  0.47000000000E+01 0. -1.
         -5    1    4    4    0  502  0.38500006311E+02 -0.12372290289E+02  0.52486843571E+02  0.66425016380E+02  0.47000000000E+01 0.  1.
<mgrwt>
<rscale>  0 0.96587001E+02</rscale>
<asrwt>0</asrwt>
<pdfrwt beam="1">  1        2 0.83075726E-01 0.97917998E+02</pdfrwt>
<pdfrwt beam="2">  1       -2 0.26122232E-02 0.97917998E+02</pdfrwt>
<totfact> 0.26924266E+04</totfact>
</mgrwt>
</event>
<event>
 8    1  0.8438969E-004  0.9347231E+02  0.7546771E-02  0.1295118E+00
          1   -1    0    0  501    0  0.00000000000E+00  0.00000000000E+00  0.62461577107E+03  0.62461577107E+03  0.00000000000E+00 0. -1.
         -1   -1    0    0    0  501 -0.00000000000E+00 -0.00000000000E+00 -0.15897891057E+02  0.15897891057E+02  0.00000000000E+00 0.  1.
         23    2    1    2    0    0 -0.15994409709E+02 -0.10318650672E+02  0.19107343181E+03  0.21271137568E+03  0.91513809372E+02 0.  0.
         23    2    1    2    0    0  0.15994409709E+02  0.10318650672E+02  0.41764444820E+03  0.42780228645E+03  0.90695178931E+02 0.  0.
          5    1    4    4  502    0  0.48735536135E+02 -0.10518728417E+02  0.17482971724E+03  0.18186070537E+03  0.47000000000E+01 0. -1.
         -5    1    4    4    0  502 -0.32741126426E+02  0.20837379089E+02  0.24281473097E+03  0.24594158108E+03  0.47000000000E+01 0.  1.
          5    1    3    3  503    0 -0.29816040125E+02  0.32052476012E+02  0.61718236226E+02  0.75812849505E+02  0.47000000000E+01 0. -1.
         -5    1    3    3    0  503  0.13821630416E+02 -0.42371126684E+02  0.12935519558E+03  0.13689852617E+03  0.47000000000E+01 0.  1.
<mgrwt>
<rscale>  0 0.93271332E+02</rscale>
<asrwt>0</asrwt>
<pdfrwt beam="1">  1        1 0.96094715E-01 0.93472311E+02</pdfrwt>
<pdfrwt beam="2">  1       -1 0.24458299E-02 0.93472311E+02</pdfrwt>
<totfact> 0.15575808E+04</totfact>
</mgrwt>
</event>
<event>
 8    1  0.8438969E-004  0.1753994E+03  0.7546771E-02  0.1173985E+00
          2   -1    0    0  501    0  0.00000000000E+00  0.00000000000E+00  0.25934630151E+03  0.25934630151E+03  0.00000000000E+00 0. -1.
         -2   -1    0    0    0  501 -0.00000000000E+00 -0.00000000000E+00 -0.11893590649E+03  0.11893590649E+03  0.00000000000E+00 0.  1.
         23    2    1    2    0    0  0.21168249127E+02 -0.14728097516E+03  0.10633024930E+03  0.19960262986E+03  0.79970666595E+02 0.  0.
         23    2    1    2    0    0 -0.21168249127E+02  0.14728097516E+03  0.34080145714E+02  0.17867957814E+03  0.92871712041E+02 0.  0.
          5    1    4    4  502    0 -0.11994951231E+01  0.13189958037E+03  0.57484664660E+02  0.14396358832E+03  0.47000000000E+01 0. -1.
         -5    1    3    3    0  503  0.45594646631E+02 -0.11668495441E+03  0.60673744851E+02  0.13927542390E+03  0.47000000000E+01 0.  1.
          5    1    3    3  503    0 -0.24426397504E+02 -0.30596020744E+02  0.45656504448E+02  0.60327205959E+02  0.47000000000E+01 0. -1.
         -5    1    4    4    0  502 -0.19968754004E+02  0.15381394786E+02 -0.23404518946E+02  0.34715989819E+02  0.47000000000E+01 0.  1.
<mgrwt>
<rscale>  0 0.17375744E+03</rscale>
<asrwt>0</asrwt>
<pdfrwt beam="1">  1        2 0.39899431E-01 0.17539936E+03</pdfrwt>
<pdfrwt beam="2">  1       -2 0.18297832E-01 0.17539936E+03</pdfrwt>
<totfact> 0.30702875E+03</totfact>
</mgrwt>
</event>
<event>
 8    1  0.8438969E-004  0.1114158E+03  0.7546771E-02  0.1257998E+00
         -3   -1    0    0    0  501 -0.00000000000E+00  0.00000000000E+00  0.16436880403E+03  0.16436880403E+03  0.00000000000E+00 0.  1.
          3   -1    0    0  501    0  0.00000000000E+00 -0.00000000000E+00 -0.13030871619E+03  0.13030871619E+03  0.00000000000E+00 0. -1.
         23    2    1    2    0    0 -0.62861543739E+02 -0.53536794876E+00  0.11259956960E+03  0.15836192796E+03  0.91912876423E+02 0.  0.
         23    2    1    2    0    0  0.62861543739E+02  0.53536794876E+00 -0.78539481763E+02  0.13631559226E+03  0.91987119735E+02 0.  0.
          5    1    3    3  502    0 -0.65142906717E+02 -0.34054934869E+02  0.56616797755E+02  0.92902576242E+02  0.47000000000E+01 0. -1.
         -5    1    3    3    0  502  0.22813629779E+01  0.33519566920E+02  0.55982771849E+02  0.65459351718E+02  0.47000000000E+01 0.  1.
          5    1    4    4  503    0  0.60955594485E+02 -0.30096831492E+02 -0.80177469348E+02  0.10522319305E+03  0.47000000000E+01 0. -1.
         -5    1    4    4    0  503  0.19059492537E+01  0.30632199441E+02  0.16379875855E+01  0.31092399207E+02  0.47000000000E+01 0.  1.
<mgrwt>
<rscale>  0 0.11140052E+03</rscale>
<asrwt>0</asrwt>
<pdfrwt beam="1">  1        3 0.20047495E-01 0.11141584E+03</pdfrwt>
<pdfrwt beam="2">  1       -3 0.25287508E-01 0.11141584E+03</pdfrwt>
<totfact> 0.73675373E+02</totfact>
</mgrwt>
</event>
<event>
 8    1  0.8438969E-004  0.9789317E+02  0.7546771E-02  0.1286650E+00
         -3   -1    0    0    0  501 -0.00000000000E+00  0.00000000000E+00  0.85806138594E+02  0.85806138594E+02  0.00000000000E+00 0.  1.
          3   -1    0    0  501    0  0.00000000000E+00 -0.00000000000E+00 -0.10792759051E+03  0.10792759051E+03  0.00000000000E+00 0. -1.
         23    2    1    2    0    0 -0.23388649792E+02 -0.19609011200E+01 -0.13553423102E+02  0.98826961620E+02  0.95037881884E+02 0.  0.
         23    2    1    2    0    0  0.23388649792E+02  0.19609011200E+01 -0.85680288137E+01  0.94906767483E+02  0.91558775243E+02 0.  0.
          5    1    4    4  502    0  0.39353332163E+02 -0.31914528183E+02  0.11488469432E+02  0.52166050180E+02  0.47000000000E+01 0. -1.
         -5    1    4    4    0  502 -0.15964682371E+02  0.33875429303E+02 -0.20056498246E+02  0.42740717303E+02  0.47000000000E+01 0.  1.
          5    1    3    3  503    0  0.15136442584E+02 -0.16227140391E+02 -0.42622047953E+02  0.48282097625E+02  0.47000000000E+01 0. -1.
         -5    1    3    3    0  503 -0.38525092376E+02  0.14266239271E+02  0.29068624851E+02  0.50544863995E+02  0.47000000000E+01 0.  1.
<mgrwt>
<rscale>  0 0.97038558E+02</rscale>
<asrwt>0</asrwt>
<pdfrwt beam="1">  1        3 0.16604245E-01 0.97893172E+02</pdfrwt>
<pdfrwt beam="2">  1       -3 0.13200944E-01 0.97893172E+02</pdfrwt>
<totfact> 0.30803432E+03</totfact>
</mgrwt>
</event>
<event>
 8    1  0.8438969E-004  0.1166413E+03  0.7546771E-02  0.1249191E+00
         -2   -1    0    0    0  501 -0.00000000000E+00  0.00000000000E+00  0.10653783804E+03  0.10653783804E+03  0.00000000000E+00 0.  1.
          2   -1    0    0  501    0  0.00000000000E+00 -0.00000000000E+00 -0.17678380431E+03  0.17678380431E+03  0.00000000000E+00 0. -1.
         23    2    1    2    0    0  0.70821384631E+02  0.62865426823E+01 -0.11073811842E+03  0.16083572848E+03  0.92466272460E+02 0.  0.
         23    2    1    2    0    0 -0.70821384631E+02 -0.62865426823E+01  0.40492152149E+02  0.12248591388E+03  0.91148206636E+02 0.  0.
          5    1    4    4  502    0  0.12486727296E+02 -0.18503150048E+02  0.29727746059E+02  0.37471506588E+02  0.47000000000E+01 0. -1.
         -5    1    3    3    0  503  0.21707348328E+02  0.39012095507E+02 -0.13299154999E+02  0.46819975341E+02  0.47000000000E+01 0.  1.
          5    1    3    3  503    0  0.49114036304E+02 -0.32725552825E+02 -0.97438963423E+02  0.11401575313E+03  0.47000000000E+01 0. -1.
         -5    1    4    4    0  502 -0.83308111928E+02  0.12216607366E+02  0.10764406091E+02  0.85014407290E+02  0.47000000000E+01 0.  1.
<mgrwt>
<rscale>  0 0.11637993E+03</rscale>
<asrwt>0</asrwt>
<pdfrwt beam="1">  1        2 0.27197508E-01 0.11664133E+03</pdfrwt>
<pdfrwt beam="2">  1       -2 0.16390437E-01 0.11664133E+03</pdfrwt>
<totfact> 0.54501773E+03</totfact>
</mgrwt>
</event>
<event>
 8    1  0.8438969E-004  0.9960350E+02  0.7546771E-02  0.1282747E+00
         -2   -1    0    0    0  501 -0.00000000000E+00  0.00000000000E+00  0.22999216436E+02  0.22999216436E+02  0.00000000000E+00 0.  1.
          2   -1    0    0  501    0  0.00000000000E+00 -0.00000000000E+00 -0.53160659960E+03  0.53160659960E+03  0.00000000000E+00 0. -1.
         23    2    1    2    0    0  0.16436041724E+02 -0.27709840344E+02 -0.12330344549E+03  0.15663599052E+03  0.91066542366E+02 0.  0.
         23    2    1    2    0    0 -0.16436041724E+02  0.27709840344E+02 -0.38530393767E+03  0.39796982551E+03  0.94249026051E+02 0.  0.
          5    1    4    4  502    0 -0.48117938924E+02  0.39511484892E+02 -0.29244042338E+03  0.29903174533E+03  0.47000000000E+01 0. -1.
         -5    1    3    3    0  503  0.43346924087E+02 -0.28280233370E+02 -0.31314518964E+02  0.60674677793E+02  0.47000000000E+01 0.  1.
          5    1    3    3  503    0 -0.26910882364E+02  0.57039302574E+00 -0.91988926527E+02  0.95961312732E+02  0.47000000000E+01 0. -1.
         -5    1    4    4    0  502  0.31681897200E+02 -0.11801644548E+02 -0.92863514287E+02  0.98938080181E+02  0.47000000000E+01 0.  1.
<mgrwt>
<rscale>  0 0.98843366E+02</rscale>
<asrwt>0</asrwt>
<pdfrwt beam="1">  1        2 0.81785627E-01 0.99603502E+02</pdfrwt>
<pdfrwt beam="2">  1       -2 0.35383412E-02 0.99603502E+02</pdfrwt>
<totfact> 0.17625779E+04</totfact>
</mgrwt>
</event>
<event>
 8    1  0.8438969E-004  0.1288079E+03  0.7546771E-02  0.1230324E+00
         -2   -1    0    0    0  501 -0.00000000000E+00  0.00000000000E+00  0.11768729848E+03  0.11768729848E+03  0.00000000000E+00 0.  1.
          2   -1    0    0  501    0  0.00000000000E+00 -0.00000000000E+00 -0.13787410686E+03  0.13787410686E+03  0.00000000000E+00 0. -1.
         23    2    1    2    0    0  0.60208965517E+02 -0.64213959146E+02 -0.87421313252E+01  0.12624609791E+03  0.90072750035E+02 0.  0.
         23    2    1    2    0    0 -0.60208965517E+02  0.64213959146E+02 -0.11444677054E+02  0.12931530743E+03  0.94036780164E+02 0.  0.
          5    1    4    4  502    0 -0.81733147459E+02  0.49836996969E+02 -0.25921527309E+02  0.99287709403E+02  0.47000000000E+01 0. -1.
         -5    1    3    3    0  503  0.25948203695E+02 -0.45572580834E+02  0.38187998490E+02  0.65042929113E+02  0.47000000000E+01 0.  1.
          5    1    3    3  503    0  0.34260761822E+02 -0.18641378312E+02 -0.46930129816E+02  0.61203168795E+02  0.47000000000E+01 0. -1.
         -5    1    4    4    0  502  0.21524181941E+02  0.14376962177E+02  0.14476850255E+02  0.30027598022E+02  0.47000000000E+01 0.  1.
<mgrwt>
<rscale>  0 0.12808562E+03</rscale>
<asrwt>0</asrwt>
<pdfrwt beam="1">  1        2 0.21211401E-01 0.12880787E+03</pdfrwt>
<pdfrwt beam="2">  1       -2 0.18105738E-01 0.12880787E+03</pdfrwt>
<totfact> 0.61243034E+03</totfact>
</mgrwt>
</event>
<event>
 8    1  0.8438969E-004  0.1053894E+03  0.7546771E-02  0.1269721E+00
         -2   -1    0    0    0  501 -0.00000000000E+00  0.00000000000E+00  0.51945938599E+03  0.51945938599E+03  0.00000000000E+00 0.  1.
          2   -1    0    0  501    0  0.00000000000E+00 -0.00000000000E+00 -0.21311699503E+02  0.21311699503E+02  0.00000000000E+00 0. -1.
         23    2    1    2    0    0  0.13379592596E+02 -0.50364802358E+02  0.26487165817E+03  0.28479330272E+03  0.90744714227E+02 0.  0.
         23    2    1    2    0    0 -0.13379592596E+02  0.50364802358E+02  0.23327602832E+03  0.25597778277E+03  0.91604001382E+02 0.  0.
          5    1    4    4  502    0 -0.49309044662E+02  0.46803990559E+02  0.13618244877E+03  0.15228179395E+03  0.47000000000E+01 0. -1.
         -5    1    4    4    0  502  0.35929452066E+02  0.35608117996E+01  0.97093579553E+02  0.10369598882E+03  0.47000000000E+01 0.  1.
          5    1    3    3  503    0 -0.11184326117E+02 -0.17440366368E+02  0.52285982518E+01  0.21878842963E+02  0.47000000000E+01 0. -1.
         -5    1    3    3    0  503  0.24563918712E+02 -0.32924435990E+02  0.25964305991E+03  0.26291445976E+03  0.47000000000E+01 0.  1.
<mgrwt>
<rscale>  0 0.10520237E+03</rscale>
<asrwt>0</asrwt>
<pdfrwt beam="1">  1        2 0.32787234E-02 0.10538937E+03</pdfrwt>
<pdfrwt beam="2">  1       -2 0.79916819E-01 0.10538937E+03</pdfrwt>
<totfact> 0.36880726E+03</totfact>
</mgrwt>
</event>
<event>
 8    1  0.8438969E-004  0.9395662E+02  0.7546771E-02  0.1296831E+00
         -1   -1    0    0    0  501 -0.00000000000E+00  0.00000000000E+00  0.90265254203E+02  0.90265254203E+02  0.00000000000E+00 0.  1.
          1   -1    0    0  501    0  0.00000000000E+00 -0.00000000000E+00 -0.99977509623E+02  0.99977509623E+02  0.00000000000E+00 0. -1.
         23    2    1    2    0    0 -0.62854465938E+01  0.13064647435E+02  0.21983919478E+02  0.91083832032E+02  0.87193921179E+02 0.  0.
         23    2    1    2    0    0  0.62854465938E+01 -0.13064647435E+02 -0.31696174898E+02  0.99158931794E+02  0.92831322299E+02 0.  0.
          5    1    3    3  502    0  0.13254875944E+02 -0.18890920353E+02 -0.22616536666E+02  0.32652049535E+02  0.47000000000E+01 0. -1.
         -5    1    3    3    0  502 -0.19540322538E+02  0.31955567788E+02  0.44600456144E+02  0.58431782497E+02  0.47000000000E+01 0.  1.
          5    1    4    4  503    0 -0.12216253422E+02 -0.45740664677E+02  0.31972393593E+01  0.47683934321E+02  0.47000000000E+01 0. -1.
         -5    1    4    4    0  503  0.18501700016E+02  0.32676017242E+02 -0.34893414258E+02  0.51474997473E+02  0.47000000000E+01 0.  1.
<mgrwt>
<rscale>  0 0.92533197E+02</rscale>
<asrwt>0</asrwt>
<pdfrwt beam="1">  1        1 0.15381155E-01 0.93956619E+02</pdfrwt>
<pdfrwt beam="2">  1       -1 0.13886962E-01 0.93956619E+02</pdfrwt>
<totfact> 0.11850714E+04</totfact>
</mgrwt>
</event>
<event>
 8    1  0.8438969E-004  0.2029254E+03  0.7546771E-02  0.1147392E+00
         -2   -1    0    0    0  501 -0.00000000000E+00  0.00000000000E+00  0.88857939191E+02  0.88857939191E+02  0.00000000000E+00 0.  1.
          2   -1    0    0  501    0  0.00000000000E+00 -0.00000000000E+00 -0.16028822683E+04  0.16028822683E+04  0.00000000000E+00 0. -1.
         23    2    1    2    0    0  0.18136932590E+03 -0.17359383597E+02 -0.43744180514E+02  0.20758682181E+03  0.89345143581E+02 0.  0.
         23    2    1    2    0    0 -0.18136932590E+03  0.17359383597E+02 -0.14702801486E+04  0.14841533857E+04  0.88268773095E+02 0.  0.
          5    1    3    3  502    0  0.78156531721E+02 -0.15980391831E+02 -0.63889800526E+02  0.10231233056E+03  0.47000000000E+01 0. -1.
         -5    1    4    4    0  503 -0.38891120216E+02 -0.33038186790E+02 -0.36720586649E+03  0.37076445272E+03  0.47000000000E+01 0.  1.
          5    1    4    4  503    0 -0.14247820569E+03  0.50397570387E+02 -0.11030742821E+04  0.11133889330E+04  0.47000000000E+01 0. -1.
         -5    1    3    3    0  502  0.10321279418E+03 -0.13789917656E+01  0.20145620012E+02  0.10527449125E+03  0.47000000000E+01 0.  1.
<mgrwt>
<rscale>  0 0.20280744E+03</rscale>
<asrwt>0</asrwt>
<pdfrwt beam="1">  1        2 0.24659725E+00 0.20292544E+03</pdfrwt>
<pdfrwt beam="2">  1       -2 0.13670453E-01 0.20292544E+03</pdfrwt>
<totfact> 0.48746678E+02</totfact>
</mgrwt>
</event>
<event>
 8    1  0.8438969E-004  0.1155093E+03  0.7546771E-02  0.1252774E+00
          3   -1    0    0  501    0  0.00000000000E+00  0.00000000000E+00  0.16024993695E+02  0.16024993695E+02  0.00000000000E+00 0. -1.
         -3   -1    0    0    0  501 -0.00000000000E+00 -0.00000000000E+00 -0.79954068788E+03  0.79954068788E+03  0.00000000000E+00 0.  1.
         23    2    1    2    0    0 -0.44485073146E+02 -0.47118641927E+02 -0.37465586591E+03  0.39070244926E+03  0.89901600913E+02 0.  0.
         23    2    1    2    0    0  0.44485073146E+02  0.47118641927E+02 -0.40885982827E+03  0.42486323231E+03  0.95620703028E+02 0.  0.
          5    1    3    3  502    0  0.17091385182E+02 -0.45621996862E+02 -0.17403153598E+03  0.18078315065E+03  0.47000000000E+01 0. -1.
         -5    1    3    3    0  502 -0.61576458329E+02 -0.14966450644E+01 -0.20062432993E+03  0.20991929861E+03  0.47000000000E+01 0.  1.
          5    1    4    4  503    0  0.53843609449E+02  0.70726744935E+02 -0.33471927361E+03  0.34635312739E+03  0.47000000000E+01 0. -1.
         -5    1    4    4    0  503 -0.93585363032E+01 -0.23608103008E+02 -0.74140554664E+02  0.78510104925E+02  0.47000000000E+01 0.  1.
<mgrwt>
<rscale>  0 0.11431909E+03</rscale>
<asrwt>0</asrwt>
<pdfrwt beam="1">  1        3 0.24653832E-02 0.11550934E+03</pdfrwt>
<pdfrwt beam="2">  1       -3 0.12300628E+00 0.11550934E+03</pdfrwt>
<totfact> 0.86777210E+02</totfact>
</mgrwt>
</event>
<event>
 8    1  0.8438969E-004  0.9485830E+02  0.7546771E-02  0.1291906E+00
         -1   -1    0    0    0  501 -0.00000000000E+00  0.00000000000E+00  0.19624611601E+02  0.19624611601E+02  0.00000000000E+00 0.  1.
          1   -1    0    0  501    0  0.00000000000E+00 -0.00000000000E+00 -0.46678215563E+03  0.46678215563E+03  0.00000000000E+00 0. -1.
         23    2    1    2    0    0 -0.36150520057E+00 -0.27351816682E+02 -0.26135808227E+03  0.27779340132E+03  0.90071494307E+02 0.  0.
         23    2    1    2    0    0  0.36150520057E+00  0.27351816682E+02 -0.18579946176E+03  0.20861336592E+03  0.90828651235E+02 0.  0.
          5    1    3    3  502    0 -0.37858014919E+02 -0.27637963830E+01 -0.18670490385E+03  0.19058247293E+03  0.47000000000E+01 0. -1.
         -5    1    4    4    0  503  0.44797095055E+02  0.64338970896E+01 -0.91325897537E+02  0.10203276100E+03  0.47000000000E+01 0.  1.
          5    1    4    4  503    0 -0.44435589854E+02  0.20917919593E+02 -0.94473564227E+02  0.10658060491E+03  0.47000000000E+01 0. -1.
         -5    1    3    3    0  502  0.37496509718E+02 -0.24588020299E+02 -0.74653178416E+02  0.87210928391E+02  0.47000000000E+01 0.  1.
<mgrwt>
<rscale>  0 0.94676590E+02</rscale>
<asrwt>0</asrwt>
<pdfrwt beam="1">  1        1 0.71812632E-01 0.94858297E+02</pdfrwt>
<pdfrwt beam="2">  1       -1 0.30191713E-02 0.94858297E+02</pdfrwt>
<totfact> 0.16871029E+04</totfact>
</mgrwt>
</event>
<event>
 8    1  0.8438969E-004  0.1250442E+03  0.7546771E-02  0.1237191E+00
         -1   -1    0    0    0  501 -0.00000000000E+00  0.00000000000E+00  0.20133039758E+02  0.20133039758E+02  0.00000000000E+00 0.  1.
          1   -1    0    0  501    0  0.00000000000E+00 -0.00000000000E+00 -0.77172024416E+03  0.77172024416E+03  0.00000000000E+00 0. -1.
         23    2    1    2    0    0  0.10746440820E+02 -0.70357365574E+02 -0.44406623636E+03  0.45988159424E+03  0.96076082138E+02 0.  0.
         23    2    1    2    0    0 -0.10746440820E+02  0.70357365574E+02 -0.30752096804E+03  0.33197168969E+03  0.10281250939E+03 0.  0.
          5    1    4    4  502    0 -0.40132306204E+02  0.82876527060E+02 -0.24084205367E+03  0.25788777706E+03  0.47000000000E+01 0. -1.
         -5    1    4    4    0  502  0.29385865384E+02 -0.12519161486E+02 -0.66678914371E+02  0.74083912629E+02  0.47000000000E+01 0.  1.
          5    1    3    3  503    0  0.62309428403E+00  0.20358176431E+02 -0.16282543360E+03  0.16416167464E+03  0.47000000000E+01 0. -1.
         -5    1    3    3    0  503  0.10123346536E+02 -0.90715542005E+02 -0.28124080277E+03  0.29571991960E+03  0.47000000000E+01 0.  1.
<mgrwt>
<rscale>  0 0.12365182E+03</rscale>
<asrwt>0</asrwt>
<pdfrwt beam="1">  1        1 0.11872617E+00 0.12504422E+03</pdfrwt>
<pdfrwt beam="2">  1       -1 0.30973912E-02 0.12504422E+03</pdfrwt>
<totfact> 0.83926016E+03</totfact>
</mgrwt>
</event>
<event>
 8    1  0.8438969E-004  0.1071818E+03  0.7546771E-02  0.1268513E+00
         -2   -1    0    0    0  501 -0.00000000000E+00  0.00000000000E+00  0.52167665339E+02  0.52167665339E+02  0.00000000000E+00 0.  1.
          2   -1    0    0  501    0  0.00000000000E+00 -0.00000000000E+00 -0.50730853009E+03  0.50730853009E+03  0.00000000000E+00 0. -1.
         23    2    1    2    0    0  0.49911530571E+02  0.23718152522E+02 -0.15622550308E+02  0.10831438841E+03  0.91838069537E+02 0.  0.
         23    2    1    2    0    0 -0.49911530571E+02 -0.23718152522E+02 -0.43951831445E+03  0.45116180702E+03  0.85538972034E+02 0.  0.
          5    1    4    4  502    0 -0.66491917705E+02  0.34896097369E+01 -0.24207640803E+03  0.25111039370E+03  0.47000000000E+01 0. -1.
         -5    1    4    4    0  502  0.16580387134E+02 -0.27207762258E+02 -0.19744190641E+03  0.20005141332E+03  0.47000000000E+01 0.  1.
          5    1    3    3  503    0  0.90492778952E+01  0.53857283434E+02 -0.16730057256E+02  0.57310393692E+02  0.47000000000E+01 0. -1.
         -5    1    3    3    0  503  0.40862252676E+02 -0.30139130912E+02  0.11075069478E+01  0.51003994721E+02  0.47000000000E+01 0.  1.
<mgrwt>
<rscale>  0 0.10581969E+03</rscale>
<asrwt>0</asrwt>
<pdfrwt beam="1">  1        2 0.78047464E-01 0.10718182E+03</pdfrwt>
<pdfrwt beam="2">  1       -2 0.80257949E-02 0.10718182E+03</pdfrwt>
<totfact> 0.54720080E+03</totfact>
</mgrwt>
</event>
<event>
 7    1  0.8438969E-004  0.2017392E+03  0.7546771E-02  0.1165204E+00
         -2   -1    0    0    0  501 -0.00000000000E+00  0.00000000000E+00  0.75483942390E+02  0.75483942390E+02  0.00000000000E+00 0.  1.
          2   -1    0    0  501    0  0.00000000000E+00 -0.00000000000E+00 -0.47292809873E+03  0.47292809873E+03  0.00000000000E+00 0. -1.
         23    2    1    2    0    0  0.20130701382E+02  0.99829633336E+02 -0.28919639224E+03  0.31946602964E+03  0.89737338795E+02 0.  0.
          5    1    1    2  502    0 -0.62779214748E+02 -0.19673394952E+02  0.22504618417E+02  0.69690889816E+02  0.47000000000E+01 0. -1.
         -5    1    3    3    0  503  0.24961007223E+02  0.64782117249E+02 -0.74964587229E+02  0.10228173803E+03  0.47000000000E+01 0.  1.
          5    1    3    3  503    0 -0.48303058409E+01  0.35047516086E+02 -0.21423180502E+03  0.21718429160E+03  0.47000000000E+01 0. -1.
         -5    1    1    2    0  502  0.42648513366E+02 -0.80156238384E+02 -0.13075238251E+03  0.15925512166E+03  0.47000000000E+01 0.  1.
<mgrwt>
<rscale>  0 0.18271140E+03</rscale>
<asrwt>0</asrwt>
<pdfrwt beam="1">  1        2 0.72758168E-01 0.20173918E+03</pdfrwt>
<pdfrwt beam="2">  1       -2 0.11612914E-01 0.20173918E+03</pdfrwt>
<totfact> 0.34082283E+03</totfact>
</mgrwt>
</event>
<event>
 8    1  0.8438969E-004  0.1831755E+03  0.7546771E-02  0.1167402E+00
          1   -1    0    0  501    0  0.00000000000E+00  0.00000000000E+00  0.48669523360E+02  0.48669523360E+02  0.00000000000E+00 0. -1.
         -1   -1    0    0    0  501 -0.00000000000E+00 -0.00000000000E+00 -0.69908733714E+03  0.69908733714E+03  0.00000000000E+00 0.  1.
         23    2    1    2    0    0 -0.21241832572E+02 -0.14411185644E+03 -0.41568423964E+03  0.45001015635E+03  0.92175436614E+02 0.  0.
         23    2    1    2    0    0  0.21241832572E+02  0.14411185644E+03 -0.23473357414E+03  0.29774670415E+03  0.11105767144E+03 0.  0.
          5    1    4    4  502    0 -0.29930819989E+02  0.11201898613E+03 -0.18922091009E+03  0.22197015578E+03  0.47000000000E+01 0. -1.
         -5    1    4    4    0  502  0.51172652561E+02  0.32092870308E+02 -0.45512664045E+02  0.75776548372E+02  0.47000000000E+01 0.  1.
          5    1    3    3  503    0  0.22080670858E+02 -0.11715991992E+02 -0.27015186471E+02  0.37104323117E+02  0.47000000000E+01 0. -1.
         -5    1    3    3    0  503 -0.43322503430E+02 -0.13239586445E+03 -0.38866905317E+03  0.41290583323E+03  0.47000000000E+01 0.  1.
<mgrwt>
<rscale>  0 0.18041549E+03</rscale>
<asrwt>0</asrwt>
<pdfrwt beam="1">  1        1 0.74876191E-02 0.18317546E+03</pdfrwt>
<pdfrwt beam="2">  1       -1 0.10755190E+00 0.18317546E+03</pdfrwt>
<totfact> 0.80862671E+02</totfact>
</mgrwt>
</event>
<event>
 8    1  0.8438969E-004  0.1090722E+03  0.7546771E-02  0.1264323E+00
         -1   -1    0    0    0  501 -0.00000000000E+00  0.00000000000E+00  0.26204960131E+03  0.26204960131E+03  0.00000000000E+00 0.  1.
          1   -1    0    0  501    0  0.00000000000E+00 -0.00000000000E+00 -0.49876397026E+02  0.49876397026E+02  0.00000000000E+00 0. -1.
         23    2    1    2    0    0  0.54494191344E+02  0.16551336636E+02  0.52845164343E+02  0.12119964388E+03  0.93022463136E+02 0.  0.
         23    2    1    2    0    0 -0.54494191344E+02 -0.16551336636E+02  0.15932803994E+03  0.19072635445E+03  0.88020192783E+02 0.  0.
          5    1    4    4  502    0 -0.17792398195E+02 -0.37125802924E+02  0.21783616916E+02  0.46813573269E+02  0.47000000000E+01 0. -1.
         -5    1    3    3    0  503  0.40735608475E+02  0.43085712188E+02  0.65434768729E+02  0.88428317587E+02  0.47000000000E+01 0.  1.
          5    1    3    3  503    0  0.13758582869E+02 -0.26534375552E+02 -0.12589604386E+02  0.32771326295E+02  0.47000000000E+01 0. -1.
         -5    1    4    4    0  502 -0.36701793149E+02  0.20574466288E+02  0.13754442302E+03  0.14391278119E+03  0.47000000000E+01 0.  1.
<mgrwt>
<rscale>  0 0.10799801E+03</rscale>
<asrwt>0</asrwt>
<pdfrwt beam="1">  1        1 0.76732920E-02 0.10907219E+03</pdfrwt>
<pdfrwt beam="2">  1       -1 0.40315323E-01 0.10907219E+03</pdfrwt>
<totfact> 0.52559485E+03</totfact>
</mgrwt>
</event>
<event>
 8    1  0.8438969E-004  0.9762173E+02  0.7546771E-02  0.1287480E+00
         -3   -1    0    0    0  501 -0.00000000000E+00  0.00000000000E+00  0.82220320863E+02  0.82220320863E+02  0.00000000000E+00 0.  1.
          3   -1    0    0  501    0  0.00000000000E+00 -0.00000000000E+00 -0.12186086479E+03  0.12186086479E+03  0.00000000000E+00 0. -1.
         23    2    1    2    0    0  0.40874474487E+01 -0.24248485577E+02  0.96377223419E+01  0.98096322655E+02  0.94473840544E+02 0.  0.
         23    2    1    2    0    0 -0.40874474487E+01  0.24248485577E+02 -0.49278266273E+02  0.10598486300E+03  0.90552456505E+02 0.  0.
          5    1    3    3  502    0 -0.36720171123E+02  0.88400023907E+01 -0.13654631547E+02  0.40435820410E+02  0.47000000000E+01 0. -1.
         -5    1    3    3    0  502  0.40807618572E+02 -0.33088487967E+02  0.23292353889E+02  0.57660502245E+02  0.47000000000E+01 0.  1.
          5    1    4    4  503    0  0.20274396727E+02  0.34824366079E+02 -0.63607261437E+02  0.75443762784E+02  0.47000000000E+01 0. -1.
         -5    1    4    4    0  503 -0.24361844176E+02 -0.10575880502E+02  0.14328995164E+02  0.30541100217E+02  0.47000000000E+01 0.  1.
<mgrwt>
<rscale>  0 0.96660186E+02</rscale>
<asrwt>0</asrwt>
<pdfrwt beam="1">  1        3 0.18747825E-01 0.97621733E+02</pdfrwt>
<pdfrwt beam="2">  1       -3 0.12649280E-01 0.97621733E+02</pdfrwt>
<totfact> 0.26821231E+03</totfact>
</mgrwt>
</event>
<event>
 8    1  0.8438969E-004  0.1424754E+03  0.7546771E-02  0.1210071E+00
         -1   -1    0    0    0  501 -0.00000000000E+00  0.00000000000E+00  0.20232014636E+03  0.20232014636E+03  0.00000000000E+00 0.  1.
          1   -1    0    0  501    0  0.00000000000E+00 -0.00000000000E+00 -0.12025876138E+03  0.12025876138E+03  0.00000000000E+00 0. -1.
         23    2    1    2    0    0  0.15628514462E+02 -0.10813144128E+03  0.10679337940E+03  0.17797280725E+03  0.91284364365E+02 0.  0.
         23    2    1    2    0    0 -0.15628514462E+02  0.10813144128E+03 -0.24731994418E+02  0.14460610049E+03  0.91447218065E+02 0.  0.
          5    1    4    4  502    0 -0.42818033774E+02  0.10179344772E+03 -0.60728365700E+01  0.11069895825E+03  0.47000000000E+01 0. -1.
         -5    1    4    4    0  502  0.27189519312E+02  0.63379935664E+01 -0.18659157848E+02  0.33907142234E+02  0.47000000000E+01 0.  1.
          5    1    3    3  503    0 -0.19980058433E+02 -0.74842903243E+01 -0.59380789890E+01  0.22639967287E+02  0.47000000000E+01 0. -1.
         -5    1    3    3    0  503  0.35608572895E+02 -0.10064715096E+03  0.11273145839E+03  0.15533283996E+03  0.47000000000E+01 0.  1.
<mgrwt>
<rscale>  0 0.14244932E+03</rscale>
<asrwt>0</asrwt>
<pdfrwt beam="1">  1        1 0.18501348E-01 0.14247545E+03</pdfrwt>
<pdfrwt beam="2">  1       -1 0.31126176E-01 0.14247545E+03</pdfrwt>
<totfact> 0.26310906E+03</totfact>
</mgrwt>
</event>
<event>
 8    1  0.8438969E-004  0.1361470E+03  0.7546771E-02  0.1219449E+00
         -3   -1    0    0    0  501 -0.00000000000E+00  0.00000000000E+00  0.13530314206E+03  0.13530314206E+03  0.00000000000E+00 0.  1.
          3   -1    0    0  501    0  0.00000000000E+00 -0.00000000000E+00 -0.17060732556E+03  0.17060732556E+03  0.00000000000E+00 0. -1.
         23    2    1    2    0    0 -0.97191403308E+02  0.32459716465E+02  0.52482635878E+02  0.14591244507E+03  0.89644924492E+02 0.  0.
         23    2    1    2    0    0  0.97191403308E+02 -0.32459716465E+02 -0.87786819375E+02  0.15999802255E+03  0.85982786031E+02 0.  0.
          5    1    3    3  502    0 -0.37766315411E+02  0.58744987345E+02  0.36002263349E+02  0.78711632458E+02  0.47000000000E+01 0. -1.
         -5    1    3    3    0  502 -0.59425087897E+02 -0.26285270880E+02  0.16480372529E+02  0.67200812610E+02  0.47000000000E+01 0.  1.
          5    1    4    4  503    0  0.88679745498E+02 -0.56861405789E+02 -0.58238439140E+02  0.12046212070E+03  0.47000000000E+01 0. -1.
         -5    1    4    4    0  503  0.85116578096E+01  0.24401689324E+02 -0.29548380235E+02  0.39535901850E+02  0.47000000000E+01 0.  1.
<mgrwt>
<rscale>  0 0.13554736E+03</rscale>
<asrwt>0</asrwt>
<pdfrwt beam="1">  1        3 0.26247281E-01 0.13614703E+03</pdfrwt>
<pdfrwt beam="2">  1       -3 0.20815868E-01 0.13614703E+03</pdfrwt>
<totfact> 0.66504820E+02</totfact>
</mgrwt>
</event>
<event>
 8    1  0.8438969E-004  0.9878747E+02  0.7546771E-02  0.1282922E+00
          1   -1    0    0  501    0  0.00000000000E+00  0.00000000000E+00  0.72535118553E+02  0.72535118553E+02  0.00000000000E+00 0. -1.
         -1   -1    0    0    0  501 -0.00000000000E+00 -0.00000000000E+00 -0.13479988670E+03  0.13479988670E+03  0.00000000000E+00 0.  1.
         23    2    1    2    0    0  0.15319985282E+02  0.31325517258E+02 -0.36797291015E+02  0.10541823328E+03  0.92428206205E+02 0.  0.
         23    2    1    2    0    0 -0.15319985282E+02 -0.31325517258E+02 -0.25467477136E+02  0.10191677197E+03  0.92317095043E+02 0.  0.
          5    1    4    4  502    0 -0.45928136353E+02 -0.44917566685E+02 -0.21293619380E+02  0.67841651897E+02  0.47000000000E+01 0. -1.
         -5    1    4    4    0  502  0.30608151071E+02  0.13592049427E+02 -0.41738577562E+01  0.34075120076E+02  0.47000000000E+01 0.  1.
          5    1    3    3  503    0  0.23164854999E+02  0.10661230509E+02  0.27181542944E+02  0.37565923653E+02  0.47000000000E+01 0. -1.
         -5    1    3    3    0  503 -0.78448697161E+01  0.20664286748E+02 -0.63978833959E+02  0.67852309632E+02  0.47000000000E+01 0.  1.
<mgrwt>
<rscale>  0 0.98761467E+02</rscale>
<asrwt>0</asrwt>
<pdfrwt beam="1">  1        1 0.11159249E-01 0.98787465E+02</pdfrwt>
<pdfrwt beam="2">  1       -1 0.20738444E-01 0.98787465E+02</pdfrwt>
<totfact> 0.96062670E+03</totfact>
</mgrwt>
</event>
<event>
 8    1  0.8438969E-004  0.9356359E+02  0.7546771E-02  0.1296753E+00
         -2   -1    0    0    0  501 -0.00000000000E+00  0.00000000000E+00  0.12832471089E+03  0.12832471089E+03  0.00000000000E+00 0.  1.
          2   -1    0    0  501    0  0.00000000000E+00 -0.00000000000E+00 -0.97475190259E+02  0.97475190259E+02  0.00000000000E+00 0. -1.
         23    2    1    2    0    0  0.25215906252E+01  0.68732050986E+01 -0.49120612933E+02  0.10567393556E+03  0.93276720971E+02 0.  0.
         23    2    1    2    0    0 -0.25215906252E+01 -0.68732050986E+01  0.79970133567E+02  0.12012596559E+03  0.89338826823E+02 0.  0.
          5    1    4    4  502    0 -0.26991717604E+02 -0.20689890801E+02  0.84562734130E+02  0.91266480178E+02  0.47000000000E+01 0. -1.
         -5    1    3    3    0  503 -0.41374373702E+02  0.20470909670E+02 -0.32201584998E+02  0.56479456605E+02  0.47000000000E+01 0.  1.
          5    1    3    3  503    0  0.43895964328E+02 -0.13597704571E+02 -0.16919027935E+02  0.49194478960E+02  0.47000000000E+01 0. -1.
         -5    1    4    4    0  502  0.24470126979E+02  0.13816685703E+02 -0.45926005631E+01  0.28859485410E+02  0.47000000000E+01 0.  1.
<mgrwt>
<rscale>  0 0.92566443E+02</rscale>
<asrwt>0</asrwt>
<pdfrwt beam="1">  1        2 0.14996183E-01 0.93563594E+02</pdfrwt>
<pdfrwt beam="2">  1       -2 0.19742263E-01 0.93563594E+02</pdfrwt>
<totfact> 0.76726283E+03</totfact>
</mgrwt>
</event>
<event>
 8    1  0.8438969E-004  0.1212608E+03  0.7546771E-02  0.1241044E+00
          1   -1    0    0  501    0  0.00000000000E+00  0.00000000000E+00  0.76891857964E+03  0.76891857964E+03  0.00000000000E+00 0. -1.
         -1   -1    0    0    0  501 -0.00000000000E+00 -0.00000000000E+00 -0.19184647871E+02  0.19184647871E+02  0.00000000000E+00 0.  1.
         23    2    1    2    0    0 -0.26108437496E+02 -0.77079699146E+02  0.35166658098E+03  0.37197609916E+03  0.89854903262E+02 0.  0.
         23    2    1    2    0    0  0.26108437496E+02  0.77079699146E+02  0.39806735078E+03  0.41612712835E+03  0.89895721005E+02 0.  0.
          5    1    4    4  502    0 -0.20071163862E+02  0.24769948560E+02  0.40358653179E+02  0.51646034281E+02  0.47000000000E+01 0. -1.
         -5    1    3    3    0  503 -0.57587462705E+02 -0.64782928565E+02  0.24020167262E+03  0.25540571102E+03  0.47000000000E+01 0.  1.
          5    1    3    3  503    0  0.31479025208E+02 -0.12296770581E+02  0.11146490836E+03  0.11657038814E+03  0.47000000000E+01 0. -1.
         -5    1    4    4    0  502  0.46179601359E+02  0.52309750585E+02  0.35770869761E+03  0.36448109406E+03  0.47000000000E+01 0.  1.
<mgrwt>
<rscale>  0 0.12125319E+03</rscale>
<asrwt>0</asrwt>
<pdfrwt beam="1">  1        1 0.11829514E+00 0.12126076E+03</pdfrwt>
<pdfrwt beam="2">  1       -1 0.29514849E-02 0.12126076E+03</pdfrwt>
<totfact> 0.90332918E+03</totfact>
</mgrwt>
</event>
<event>
 8    1  0.8438969E-004  0.1266229E+03  0.7546771E-02  0.1233519E+00
         -3   -1    0    0    0  501 -0.00000000000E+00  0.00000000000E+00  0.21994899560E+03  0.21994899560E+03  0.00000000000E+00 0.  1.
          3   -1    0    0  501    0  0.00000000000E+00 -0.00000000000E+00 -0.74908408408E+02  0.74908408408E+02  0.00000000000E+00 0. -1.
         23    2    1    2    0    0 -0.98663112748E+01  0.85867719041E+02  0.41631135962E+02  0.13329103882E+03  0.92535075927E+02 0.  0.
         23    2    1    2    0    0  0.98663112748E+01 -0.85867719041E+02  0.10340945123E+03  0.16156636519E+03  0.89104245044E+02 0.  0.
          5    1    3    3  502    0 -0.50556657255E+02  0.56764928988E+02  0.21259748680E+02  0.79071484555E+02  0.47000000000E+01 0. -1.
         -5    1    4    4    0  503  0.44641561494E+02 -0.70677770852E+02  0.84319605702E+02  0.11882803630E+03  0.47000000000E+01 0.  1.
          5    1    4    4  503    0 -0.34775250220E+02 -0.15189948189E+02  0.19089845528E+02  0.42738328887E+02  0.47000000000E+01 0. -1.
         -5    1    3    3    0  502  0.40690345980E+02  0.29102790052E+02  0.20371387282E+02  0.54219554264E+02  0.47000000000E+01 0.  1.
<mgrwt>
<rscale>  0 0.12599695E+03</rscale>
<asrwt>0</asrwt>
<pdfrwt beam="1">  1        3 0.11524371E-01 0.12662286E+03</pdfrwt>
<pdfrwt beam="2">  1       -3 0.33838307E-01 0.12662286E+03</pdfrwt>
<totfact> 0.11340393E+03</totfact>
</mgrwt>
</event>
<event>
 8    1  0.8438969E-004  0.9197139E+02  0.7546771E-02  0.1298745E+00
         -1   -1    0    0    0  501 -0.00000000000E+00  0.00000000000E+00  0.32071304936E+03  0.32071304936E+03  0.00000000000E+00 0.  1.
          1   -1    0    0  501    0  0.00000000000E+00 -0.00000000000E+00 -0.46744958422E+02  0.46744958422E+02  0.00000000000E+00 0. -1.
         23    2    1    2    0    0  0.11705776006E+02  0.43757342195E+01  0.25870344754E+03  0.27422847145E+03  0.90097772148E+02 0.  0.
         23    2    1    2    0    0 -0.11705776006E+02 -0.43757342195E+01  0.15264643398E+02  0.93229536326E+02  0.91118411222E+02 0.  0.
          5    1    3    3  502    0 -0.34051251597E+02 -0.16254757860E+02  0.14400195523E+03  0.14893742981E+03  0.47000000000E+01 0. -1.
         -5    1    3    3    0  502  0.45757027603E+02  0.20630492080E+02  0.11470149231E+03  0.12529104165E+03  0.47000000000E+01 0.  1.
          5    1    4    4  503    0 -0.43924800196E+02 -0.17136850930E+02 -0.12008044289E+02  0.48880904857E+02  0.47000000000E+01 0. -1.
         -5    1    4    4    0  503  0.32219024190E+02  0.12761116711E+02  0.27272687687E+02  0.44348631468E+02  0.47000000000E+01 0.  1.
<mgrwt>
<rscale>  0 0.91717577E+02</rscale>
<asrwt>0</asrwt>
<pdfrwt beam="1">  1        1 0.71915323E-02 0.91971393E+02</pdfrwt>
<pdfrwt beam="2">  1       -1 0.49340468E-01 0.91971393E+02</pdfrwt>
<totfact> 0.39559123E+03</totfact>
</mgrwt>
</event>
<event>
 8    1  0.8438969E-004  0.1456972E+03  0.7546771E-02  0.1206005E+00
          1   -1    0    0  501    0  0.00000000000E+00  0.00000000000E+00  0.76549574389E+03  0.76549574389E+03  0.00000000000E+00 0. -1.
         -1   -1    0    0    0  501 -0.00000000000E+00 -0.00000000000E+00 -0.45892326210E+02  0.45892326210E+02  0.00000000000E+00 0.  1.
         23    2    1    2    0    0 -0.65514763374E+02  0.92557704727E+02  0.61528128348E+03  0.63219328154E+03  0.90764390046E+02 0.  0.
         23    2    1    2    0    0  0.65514763374E+02 -0.92557704727E+02  0.10432213421E+03  0.17919478857E+03  0.91479788147E+02 0.  0.
          5    1    4    4  502    0  0.57170744883E-01 -0.77897917412E+02  0.62746306106E+02  0.10013629580E+03  0.47000000000E+01 0. -1.
         -5    1    3    3    0  503 -0.41197105417E+02  0.10095288345E+03  0.37693503877E+03  0.39241661487E+03  0.47000000000E+01 0.  1.
          5    1    3    3  503    0 -0.24317657957E+02 -0.83951787187E+01  0.23834624470E+03  0.23977666667E+03  0.47000000000E+01 0. -1.
         -5    1    4    4    0  502  0.65457592629E+02 -0.14659787314E+02  0.41575828101E+02  0.79058492770E+02  0.47000000000E+01 0.  1.
<mgrwt>
<rscale>  0 0.14558501E+03</rscale>
<asrwt>0</asrwt>
<pdfrwt beam="1">  1        1 0.11776857E+00 0.14569717E+03</pdfrwt>
<pdfrwt beam="2">  1       -1 0.70603584E-02 0.14569717E+03</pdfrwt>
<totfact> 0.25329431E+03</totfact>
</mgrwt>
</event>
<event>
 8    1  0.8438969E-004  0.1236324E+03  0.7546771E-02  0.1237632E+00
         -2   -1    0    0    0  501 -0.00000000000E+00  0.00000000000E+00  0.43995393880E+02  0.43995393880E+02  0.00000000000E+00 0.  1.
          2   -1    0    0  501    0  0.00000000000E+00 -0.00000000000E+00 -0.34867862849E+03  0.34867862849E+03  0.00000000000E+00 0. -1.
         23    2    1    2    0    0 -0.84066509435E+02  0.43376140787E+01 -0.13031845263E+03  0.17892640237E+03  0.89139023249E+02 0.  0.
         23    2    1    2    0    0  0.84066509435E+02 -0.43376140787E+01 -0.17436478199E+03  0.21374762000E+03  0.90548191339E+02 0.  0.
          5    1    4    4  502    0  0.62926528426E+02  0.32665833422E+02 -0.65086644774E+02  0.96359566110E+02  0.47000000000E+01 0. -1.
         -5    1    3    3    0  503 -0.75750335556E+02  0.35719224192E+02 -0.66028485263E+02  0.10675123971E+03  0.47000000000E+01 0.  1.
          5    1    3    3  503    0 -0.83161738783E+01 -0.31381610113E+02 -0.64289967363E+02  0.72175162659E+02  0.47000000000E+01 0. -1.
         -5    1    4    4    0  502  0.21139981009E+02 -0.37003447500E+02 -0.10927813721E+03  0.11738805389E+03  0.47000000000E+01 0.  1.
<mgrwt>
<rscale>  0 0.12337450E+03</rscale>
<asrwt>0</asrwt>
<pdfrwt beam="1">  1        2 0.53642868E-01 0.12363239E+03</pdfrwt>
<pdfrwt beam="2">  1       -2 0.67685219E-02 0.12363239E+03</pdfrwt>
<totfact> 0.10708539E+04</totfact>
</mgrwt>
</event>
<event>
 8    1  0.8438969E-004  0.1452972E+03  0.7546771E-02  0.1206829E+00
          2   -1    0    0  501    0  0.00000000000E+00  0.00000000000E+00  0.14554866347E+04  0.14554866347E+04  0.00000000000E+00 0. -1.
         -2   -1    0    0    0  501 -0.00000000000E+00 -0.00000000000E+00 -0.16807275252E+02  0.16807275252E+02  0.00000000000E+00 0.  1.
         23    2    1    2    0    0  0.11267514930E+03 -0.10492609155E+02  0.43565796024E+03  0.45880330166E+03  0.88864093867E+02 0.  0.
         23    2    1    2    0    0 -0.11267514930E+03  0.10492609155E+02  0.10030213992E+04  0.10134906083E+04  0.91134525330E+02 0.  0.
          5    1    4    4  502    0 -0.84139180087E+02 -0.31036883548E+02  0.75772937925E+03  0.76303249731E+03  0.47000000000E+01 0. -1.
         -5    1    4    4    0  502 -0.28535969210E+02  0.41529492703E+02  0.24529201999E+03  0.25045811101E+03  0.47000000000E+01 0.  1.
          5    1    3    3  503    0  0.71837479243E+02  0.17941942378E+02  0.36369073264E+03  0.37118132460E+03  0.47000000000E+01 0. -1.
         -5    1    3    3    0  503  0.40837670054E+02 -0.28434551533E+02  0.71967227595E+02  0.87621977061E+02  0.47000000000E+01 0.  1.
<mgrwt>
<rscale>  0 0.14494263E+03</rscale>
<asrwt>0</asrwt>
<pdfrwt beam="1">  1        2 0.22392092E+00 0.14529723E+03</pdfrwt>
<pdfrwt beam="2">  1       -2 0.25857358E-02 0.14529723E+03</pdfrwt>
<totfact> 0.74774797E+03</totfact>
</mgrwt>
</event>
<event>
 8    1  0.8438969E-004  0.9351818E+02  0.7546771E-02  0.1295428E+00
         -1   -1    0    0    0  501 -0.00000000000E+00  0.00000000000E+00  0.18155680204E+03  0.18155680204E+03  0.00000000000E+00 0.  1.
          1   -1    0    0  501    0  0.00000000000E+00 -0.00000000000E+00 -0.47729560466E+02  0.47729560466E+02  0.00000000000E+00 0. -1.
         23    2    1    2    0    0  0.36595051854E+01  0.19977106891E+02  0.75997156261E+02  0.11933196445E+03  0.89733344985E+02 0.  0.
         23    2    1    2    0    0 -0.36595051854E+01 -0.19977106891E+02  0.57830085312E+02  0.10995439805E+03  0.91286220791E+02 0.  0.
          5    1    4    4  502    0  0.31731321758E+02  0.20597634606E+02  0.14885741614E+02  0.40924499206E+02  0.47000000000E+01 0. -1.
         -5    1    4    4    0  502 -0.35390826943E+02 -0.40574741497E+02  0.42944343698E+02  0.69029898848E+02  0.47000000000E+01 0.  1.
          5    1    3    3  503    0  0.22486936158E+02  0.31636090015E+02 -0.96520402101E+00  0.39109156319E+02  0.47000000000E+01 0. -1.
         -5    1    3    3    0  503 -0.18827430973E+02 -0.11658983124E+02  0.76962360282E+02  0.80222808132E+02  0.47000000000E+01 0.  1.
<mgrwt>
<rscale>  0 0.93137062E+02</rscale>
<asrwt>0</asrwt>
<pdfrwt beam="1">  1        1 0.73430094E-02 0.93518185E+02</pdfrwt>
<pdfrwt beam="2">  1       -1 0.27931815E-01 0.93518185E+02</pdfrwt>
<totfact> 0.10240529E+04</totfact>
</mgrwt>
</event>
<event>
 8    1  0.8438969E-004  0.9221536E+02  0.7546771E-02  0.1298384E+00
         -2   -1    0    0    0  501 -0.00000000000E+00  0.00000000000E+00  0.81229756049E+02  0.81229756049E+02  0.00000000000E+00 0.  1.
          2   -1    0    0  501    0  0.00000000000E+00 -0.00000000000E+00 -0.11507534078E+03  0.11507534078E+03  0.00000000000E+00 0. -1.
         23    2    1    2    0    0 -0.55063762656E+00 -0.88679743704E+00 -0.48424436086E+02  0.10294442433E+03  0.90837981483E+02 0.  0.
         23    2    1    2    0    0  0.55063762656E+00  0.88679743704E+00  0.14578851359E+02  0.93360672491E+02  0.92209449893E+02 0.  0.
          5    1    4    4  502    0  0.18904301570E+02 -0.41207538592E+02  0.25166754141E+01  0.45649288163E+02  0.47000000000E+01 0. -1.
         -5    1    4    4    0  502 -0.18353663943E+02  0.42094336030E+02  0.12062175944E+02  0.47711384327E+02  0.47000000000E+01 0.  1.
          5    1    3    3  503    0 -0.39058661365E+02 -0.19665267289E+02 -0.97782319202E+01  0.45055583280E+02  0.47000000000E+01 0. -1.
         -5    1    3    3    0  503  0.38508023739E+02  0.18778469852E+02 -0.38646204166E+02  0.57888841055E+02  0.47000000000E+01 0.  1.
<mgrwt>
<rscale>  0 0.91870585E+02</rscale>
<asrwt>0</asrwt>
<pdfrwt beam="1">  1        2 0.17703898E-01 0.92215358E+02</pdfrwt>
<pdfrwt beam="2">  1       -2 0.12496886E-01 0.92215358E+02</pdfrwt>
<totfact> 0.13339723E+04</totfact>
</mgrwt>
</event>
<event>
 8    1  0.8438969E-004  0.1051072E+03  0.7546771E-02  0.1275544E+00
          1   -1    0    0  501    0  0.00000000000E+00  0.00000000000E+00  0.30227080165E+02  0.30227080165E+02  0.00000000000E+00 0. -1.
         -1   -1    0    0    0  501 -0.00000000000E+00 -0.00000000000E+00 -0.43947846949E+03  0.43947846949E+03  0.00000000000E+00 0.  1.
         23    2    1    2    0    0  0.49832323106E+02 -0.11662034714E+02 -0.33061840401E+03  0.34692370563E+03  0.91805582517E+02 0.  0.
         23    2    1    2    0    0 -0.49832323106E+02  0.11662034714E+02 -0.78632985315E+02  0.12278184402E+03  0.79202091903E+02 0.  0.
          5    1    4    4  502    0  0.14792020967E+02  0.23648579231E+02 -0.20848579359E+02  0.35139898196E+02  0.47000000000E+01 0. -1.
         -5    1    3    3    0  503  0.13969514504E+02 -0.26441685027E+02 -0.28607342501E+03  0.28767065290E+03  0.47000000000E+01 0.  1.
          5    1    3    3  503    0  0.35862808602E+02  0.14779650313E+02 -0.44544978996E+02  0.59253052731E+02  0.47000000000E+01 0. -1.
         -5    1    4    4    0  502 -0.64624344073E+02 -0.11986544517E+02 -0.57784405955E+02  0.87641945825E+02  0.47000000000E+01 0.  1.
<mgrwt>
<rscale>  0 0.10229415E+03</rscale>
<asrwt>0</asrwt>
<pdfrwt beam="1">  1        1 0.46503201E-02 0.10510722E+03</pdfrwt>
<pdfrwt beam="2">  1       -1 0.67612071E-01 0.10510722E+03</pdfrwt>
<totfact> 0.39866837E+03</totfact>
</mgrwt>
</event>
<event>
 8    1  0.8438969E-004  0.9417233E+02  0.7546771E-02  0.1294119E+00
         -2   -1    0    0    0  501 -0.00000000000E+00  0.00000000000E+00  0.44552101628E+02  0.44552101628E+02  0.00000000000E+00 0.  1.
          2   -1    0    0  501    0  0.00000000000E+00 -0.00000000000E+00 -0.19642329609E+03  0.19642329609E+03  0.00000000000E+00 0. -1.
         23    2    1    2    0    0  0.13755840478E+02  0.61654341650E+01 -0.84864193051E+02  0.12539699699E+03  0.91078207414E+02 0.  0.
         23    2    1    2    0    0 -0.13755840478E+02 -0.61654341650E+01 -0.67007001416E+02  0.11557840073E+03  0.92958016071E+02 0.  0.
          5    1    4    4  502    0 -0.52925082095E+02 -0.87124919044E+01 -0.31136046759E+02  0.62197389316E+02  0.47000000000E+01 0. -1.
         -5    1    3    3    0  503 -0.11680338555E+02  0.41459756003E+02 -0.21443131962E+02  0.48345005790E+02  0.47000000000E+01 0.  1.
          5    1    3    3  503    0  0.25436179033E+02 -0.35294321837E+02 -0.63421061090E+02  0.77051991198E+02  0.47000000000E+01 0. -1.
         -5    1    4    4    0  502  0.39169241618E+02  0.25470577393E+01 -0.35870954657E+02  0.53381011418E+02  0.47000000000E+01 0.  1.
<mgrwt>
<rscale>  0 0.93705098E+02</rscale>
<asrwt>0</asrwt>
<pdfrwt beam="1">  1        2 0.30218968E-01 0.94172334E+02</pdfrwt>
<pdfrwt beam="2">  1       -2 0.68541696E-02 0.94172334E+02</pdfrwt>
<totfact> 0.18808101E+04</totfact>
</mgrwt>
</event>
<event>
 8    1  0.8438969E-004  0.3481298E+03  0.7546771E-02  0.1063752E+00
         -1   -1    0    0    0  501 -0.00000000000E+00  0.00000000000E+00  0.22567929391E+03  0.22567929391E+03  0.00000000000E+00 0.  1.
          1   -1    0    0  501    0  0.00000000000E+00 -0.00000000000E+00 -0.55122158157E+03  0.55122158157E+03  0.00000000000E+00 0. -1.
         23    2    1    2    0    0  0.19832443888E+03 -0.26687378923E+03 -0.90264958447E+02  0.35964165283E+03  0.10315111873E+03 0.  0.
         23    2    1    2    0    0 -0.19832443888E+03  0.26687378923E+03 -0.23527732921E+03  0.41725922264E+03  0.90529745423E+02 0.  0.
          5    1    3    3  502    0 -0.63317545858E+01 -0.46073578360E+02 -0.17195274214E+02  0.49805955410E+02  0.47000000000E+01 0. -1.
         -5    1    3    3    0  502  0.20465619346E+03 -0.22080021087E+03 -0.73069684233E+02  0.30983569742E+03  0.47000000000E+01 0.  1.
          5    1    4    4  503    0 -0.18811780422E+03  0.20971120339E+03 -0.16710929290E+03  0.32758922886E+03  0.47000000000E+01 0. -1.
         -5    1    4    4    0  503 -0.10206634662E+02  0.57162585835E+02 -0.68168036311E+02  0.89669993783E+02  0.47000000000E+01 0.  1.
<mgrwt>
<rscale>  0 0.34724422E+03</rscale>
<asrwt>0</asrwt>
<pdfrwt beam="1">  1        1 0.84803319E-01 0.34812980E+03</pdfrwt>
<pdfrwt beam="2">  1       -1 0.34719892E-01 0.34812980E+03</pdfrwt>
<totfact> 0.31424278E+02</totfact>
</mgrwt>
</event>
<event>
 8    1  0.8438969E-004  0.1252360E+03  0.7546771E-02  0.1234728E+00
         -2   -1    0    0    0  501 -0.00000000000E+00  0.00000000000E+00  0.49185544599E+02  0.49185544599E+02  0.00000000000E+00 0.  1.
          2   -1    0    0  501    0  0.00000000000E+00 -0.00000000000E+00 -0.31899878225E+03  0.31899878225E+03  0.00000000000E+00 0. -1.
         23    2    1    2    0    0  0.70926791289E+01 -0.84941520032E+02 -0.14052410677E+03  0.18818503624E+03  0.91658143976E+02 0.  0.
         23    2    1    2    0    0 -0.70926791289E+01  0.84941520032E+02 -0.12928913088E+03  0.17999929061E+03  0.91753459525E+02 0.  0.
          5    1    4    4  502    0 -0.27735932161E+02  0.89792698726E+02 -0.12714009106E+03  0.15817301740E+03  0.47000000000E+01 0. -1.
         -5    1    3    3    0  503  0.47752000692E+01 -0.62672766494E+02 -0.20917371923E+02  0.66410124558E+02  0.47000000000E+01 0.  1.
          5    1    3    3  503    0  0.23174790597E+01 -0.22268753538E+02 -0.11960673485E+03  0.12177491168E+03  0.47000000000E+01 0. -1.
         -5    1    4    4    0  502  0.20643253032E+02 -0.48511786933E+01 -0.21490398216E+01  0.21826273219E+02  0.47000000000E+01 0.  1.
<mgrwt>
<rscale>  0 0.12521858E+03</rscale>
<asrwt>0</asrwt>
<pdfrwt beam="1">  1        2 0.49076736E-01 0.12523604E+03</pdfrwt>
<pdfrwt beam="2">  1       -2 0.75670069E-02 0.12523604E+03</pdfrwt>
<totfact> 0.99302075E+03</totfact>
</mgrwt>
</event>
<event>
 8    1  0.8438969E-004  0.1265757E+03  0.7546771E-02  0.1232747E+00
          2   -1    0    0  501    0  0.00000000000E+00  0.00000000000E+00  0.20311118250E+03  0.20311118250E+03  0.00000000000E+00 0. -1.
         -2   -1    0    0    0  501 -0.00000000000E+00 -0.00000000000E+00 -0.79438205911E+02  0.79438205911E+02  0.00000000000E+00 0.  1.
         23    2    1    2    0    0  0.61823927181E+02 -0.61801453181E+02  0.48164890635E+02  0.13542993474E+03  0.91541209005E+02 0.  0.
         23    2    1    2    0    0 -0.61823927181E+02  0.61801453181E+02  0.75508085960E+02  0.14711945368E+03  0.91110070890E+02 0.  0.
          5    1    3    3  502    0 -0.83571738098E+01 -0.49241920026E+02  0.16919406507E+01  0.50195235880E+02  0.47000000000E+01 0. -1.
         -5    1    3    3    0  502  0.70181100990E+02 -0.12559533155E+02  0.46472949984E+02  0.85234698859E+02  0.47000000000E+01 0.  1.
          5    1    4    4  503    0 -0.47173186944E+02  0.10811356402E+02  0.80055052356E+02  0.93664808767E+02  0.47000000000E+01 0. -1.
         -5    1    4    4    0  503 -0.14650740237E+02  0.50990096779E+02 -0.45469663962E+01  0.53454644910E+02  0.47000000000E+01 0.  1.
<mgrwt>
<rscale>  0 0.12649778E+03</rscale>
<asrwt>0</asrwt>
<pdfrwt beam="1">  1        2 0.31247874E-01 0.12657571E+03</pdfrwt>
<pdfrwt beam="2">  1       -2 0.12221262E-01 0.12657571E+03</pdfrwt>
<totfact> 0.75883048E+03</totfact>
</mgrwt>
</event>
<event>
 8    1  0.1221042E-003  0.1316922E+03  0.7546771E-02  0.1225569E+00
          1   -1    0    0  501    0  0.00000000000E+00  0.00000000000E+00  0.21508134508E+03  0.21508134508E+03  0.00000000000E+00 0. -1.
         -1   -1    0    0    0  501 -0.00000000000E+00 -0.00000000000E+00 -0.22419848344E+03  0.22419848344E+03  0.00000000000E+00 0.  1.
         23    2    1    2    0    0 -0.16217136065E+02 -0.93094520824E+02  0.17180149482E+03  0.21646847437E+03  0.91723832601E+02 0.  0.
         23    2    1    2    0    0  0.16217136065E+02  0.93094520824E+02 -0.18091863319E+03  0.22281135415E+03  0.89351902012E+02 0.  0.
          5    1    3    3  502    0  0.78020227570E+01 -0.95541204351E+02  0.91944396498E+02  0.13290919959E+03  0.47000000000E+01 0. -1.
         -5    1    4    4    0  503 -0.26099858917E+02  0.78534012786E+02 -0.13573155584E+03  0.15904068364E+03  0.47000000000E+01 0.  1.
          5    1    4    4  503    0  0.42316994982E+02  0.14560508039E+02 -0.45187077341E+02  0.63770670510E+02  0.47000000000E+01 0. -1.
         -5    1    3    3    0  502 -0.24019158822E+02  0.24466835266E+01  0.79857098319E+02  0.83559274786E+02  0.47000000000E+01 0.  1.
<mgrwt>
<rscale>  0 0.13128008E+03</rscale>
<asrwt>0</asrwt>
<pdfrwt beam="1">  1        1 0.33089438E-01 0.13169224E+03</pdfrwt>
<pdfrwt beam="2">  1       -1 0.34492074E-01 0.13169224E+03</pdfrwt>
<totfact> 0.10613809E+03</totfact>
</mgrwt>
</event>
<event>
 8    1  0.8438969E-004  0.1203055E+03  0.7546771E-02  0.1249727E+00
         -2   -1    0    0    0  501 -0.00000000000E+00  0.00000000000E+00  0.65221381547E+03  0.65221381547E+03  0.00000000000E+00 0.  1.
          2   -1    0    0  501    0  0.00000000000E+00 -0.00000000000E+00 -0.19611154536E+02  0.19611154536E+02  0.00000000000E+00 0. -1.
         23    2    1    2    0    0  0.26076924955E+02 -0.41159153679E+02  0.33443148305E+03  0.35029819316E+03  0.92142961366E+02 0.  0.
         23    2    1    2    0    0 -0.26076924955E+02  0.41159153679E+02  0.29817117789E+03  0.32152677685E+03  0.10999697706E+03 0.  0.
          5    1    3    3  502    0  0.16311807972E+02  0.21797593984E+02  0.37534479950E+02  0.46606194523E+02  0.47000000000E+01 0. -1.
         -5    1    4    4    0  503 -0.39850463949E+02 -0.17004843076E+02  0.21272491147E+03  0.21714327557E+03  0.47000000000E+01 0.  1.
          5    1    4    4  503    0  0.13773538994E+02  0.58163996756E+02  0.85446266420E+02  0.10438350128E+03  0.47000000000E+01 0. -1.
         -5    1    3    3    0  502  0.97651169833E+01 -0.62956747663E+02  0.29689700310E+03  0.30369199863E+03  0.47000000000E+01 0.  1.
<mgrwt>
<rscale>  0 0.11606864E+03</rscale>
<asrwt>0</asrwt>
<pdfrwt beam="1">  1        2 0.30171012E-02 0.12030551E+03</pdfrwt>
<pdfrwt beam="2">  1       -2 0.10034057E+00 0.12030551E+03</pdfrwt>
<totfact> 0.25044554E+03</totfact>
</mgrwt>
</event>
<event>
 8    1  0.8438969E-004  0.1601823E+03  0.7546771E-02  0.1193031E+00
         -1   -1    0    0    0  501 -0.00000000000E+00  0.00000000000E+00  0.17197847804E+02  0.17197847804E+02  0.00000000000E+00 0.  1.
          1   -1    0    0  501    0  0.00000000000E+00 -0.00000000000E+00 -0.13835417554E+04  0.13835417554E+04  0.00000000000E+00 0. -1.
         23    2    1    2    0    0  0.10306717062E+03 -0.60422357494E+02 -0.75346273102E+03  0.76727160943E+03  0.82011783649E+02 0.  0.
         23    2    1    2    0    0 -0.10306717062E+03  0.60422357494E+02 -0.61288117662E+03  0.63346799382E+03  0.10669892029E+03 0.  0.
          5    1    4    4  502    0 -0.87800020828E+02  0.86799398756E+02 -0.54623083865E+03  0.56002964062E+03  0.47000000000E+01 0. -1.
         -5    1    4    4    0  502 -0.15267149796E+02 -0.26377041262E+02 -0.66650337969E+02  0.73438353195E+02  0.47000000000E+01 0.  1.
          5    1    3    3  503    0  0.37805830653E+02 -0.61090755109E+02 -0.51446792836E+03  0.51948118397E+03  0.47000000000E+01 0. -1.
         -5    1    3    3    0  503  0.65261339971E+02  0.66839761506E+00 -0.23899480266E+03  0.24779042546E+03  0.47000000000E+01 0.  1.
<mgrwt>
<rscale>  0 0.15622025E+03</rscale>
<asrwt>0</asrwt>
<pdfrwt beam="1">  1        1 0.21285258E+00 0.16018228E+03</pdfrwt>
<pdfrwt beam="2">  1       -1 0.26458227E-02 0.16018228E+03</pdfrwt>
<totfact> 0.38517379E+03</totfact>
</mgrwt>
</event>
<event>
 8    1  0.8438969E-004  0.1894189E+03  0.7546771E-02  0.1159038E+00
          1   -1    0    0  501    0  0.00000000000E+00  0.00000000000E+00  0.51481610629E+03  0.51481610629E+03  0.00000000000E+00 0. -1.
         -1   -1    0    0    0  501 -0.00000000000E+00 -0.00000000000E+00 -0.74265618179E+02  0.74265618179E+02  0.00000000000E+00 0.  1.
         23    2    1    2    0    0 -0.52395467594E+01 -0.16536649762E+03  0.14640921617E+03  0.23922658655E+03  0.91761482926E+02 0.  0.
         23    2    1    2    0    0  0.52395467594E+01  0.16536649762E+03  0.29414127194E+03  0.34985513792E+03  0.92227969080E+02 0.  0.
          5    1    4    4  502    0  0.25317405955E+02  0.14990978429E+03  0.28398704243E+03  0.32215624274E+03  0.47000000000E+01 0. -1.
         -5    1    3    3    0  503  0.39739712880E+02 -0.10689040269E+03  0.10144501718E+03  0.15270227398E+03  0.47000000000E+01 0.  1.
          5    1    3    3  503    0 -0.44979259640E+02 -0.58476094928E+02  0.44964198993E+02  0.86524312577E+02  0.47000000000E+01 0. -1.
         -5    1    4    4    0  502 -0.20077859195E+02  0.15456713329E+02  0.10154229514E+02  0.27698895174E+02  0.47000000000E+01 0.  1.
<mgrwt>
<rscale>  0 0.18936223E+03</rscale>
<asrwt>0</asrwt>
<pdfrwt beam="1">  1        1 0.79202475E-01 0.18941893E+03</pdfrwt>
<pdfrwt beam="2">  1       -1 0.11425480E-01 0.18941893E+03</pdfrwt>
<totfact> 0.21276030E+03</totfact>
</mgrwt>
</event>
<event>
 8    1  0.8438969E-004  0.1052138E+03  0.7546771E-02  0.1272772E+00
          1   -1    0    0  501    0  0.00000000000E+00  0.00000000000E+00  0.42192720842E+03  0.42192720842E+03  0.00000000000E+00 0. -1.
         -1   -1    0    0    0  501 -0.00000000000E+00 -0.00000000000E+00 -0.34977029447E+02  0.34977029447E+02  0.00000000000E+00 0.  1.
         23    2    1    2    0    0  0.35432202433E+02  0.23971515774E+02  0.31292470704E+03  0.32825854195E+03  0.89452353534E+02 0.  0.
         23    2    1    2    0    0 -0.35432202433E+02 -0.23971515774E+02  0.74025471936E+02  0.12864569591E+03  0.96124242749E+02 0.  0.
          5    1    3    3  502    0  0.55108273049E+02  0.92463934208E+01  0.28622757153E+03  0.29166887090E+03  0.47000000000E+01 0. -1.
         -5    1    3    3    0  502 -0.19676070616E+02  0.14725122353E+02  0.26697135505E+02  0.36589671048E+02  0.47000000000E+01 0.  1.
          5    1    4    4  503    0 -0.63172729319E+02  0.55596402728E+01  0.52862775829E+02  0.82693811122E+02  0.47000000000E+01 0. -1.
         -5    1    4    4    0  503  0.27740526886E+02 -0.29531156047E+02  0.21162696107E+02  0.45951884792E+02  0.47000000000E+01 0.  1.
<mgrwt>
<rscale>  0 0.10366536E+03</rscale>
<asrwt>0</asrwt>
<pdfrwt beam="1">  1        1 0.64911875E-01 0.10521380E+03</pdfrwt>
<pdfrwt beam="2">  1       -1 0.53810817E-02 0.10521380E+03</pdfrwt>
<totfact> 0.83317646E+03</totfact>
</mgrwt>
</event>
<event>
 8    1  0.8438969E-004  0.2107747E+03  0.7546771E-02  0.1142411E+00
          1   -1    0    0  501    0  0.00000000000E+00  0.00000000000E+00  0.43066397667E+03  0.43066397667E+03  0.00000000000E+00 0. -1.
         -1   -1    0    0    0  501 -0.00000000000E+00 -0.00000000000E+00 -0.12045843172E+03  0.12045843172E+03  0.00000000000E+00 0.  1.
         23    2    1    2    0    0  0.16617666498E+03  0.80399924558E+02  0.42795801798E+02  0.21507544333E+03  0.10172086225E+03 0.  0.
         23    2    1    2    0    0 -0.16617666498E+03 -0.80399924558E+02  0.26740974316E+03  0.33604696507E+03  0.85678236096E+02 0.  0.
          5    1    4    4  502    0 -0.80928073907E+02 -0.80904591761E+02  0.18369353732E+03  0.21647242727E+03  0.47000000000E+01 0. -1.
         -5    1    3    3    0  503  0.73188236165E+02  0.91138328670E+02  0.26478601872E+02  0.11994131575E+03  0.47000000000E+01 0.  1.
          5    1    3    3  503    0  0.92988428819E+02 -0.10738404113E+02  0.16317199926E+02  0.95134127580E+02  0.47000000000E+01 0. -1.
         -5    1    4    4    0  502 -0.85248591077E+02  0.50466720312E+00  0.83716205835E+02  0.11957453780E+03  0.47000000000E+01 0.  1.
<mgrwt>
<rscale>  0 0.20893662E+03</rscale>
<asrwt>0</asrwt>
<pdfrwt beam="1">  1        1 0.66255996E-01 0.21077468E+03</pdfrwt>
<pdfrwt beam="2">  1       -1 0.18532067E-01 0.21077468E+03</pdfrwt>
<totfact> 0.12541238E+03</totfact>
</mgrwt>
</event>
<event>
 8    1  0.8438969E-004  0.1062601E+03  0.7546771E-02  0.1268037E+00
          1   -1    0    0  501    0  0.00000000000E+00  0.00000000000E+00  0.21074290784E+03  0.21074290784E+03  0.00000000000E+00 0. -1.
         -1   -1    0    0    0  501 -0.00000000000E+00 -0.00000000000E+00 -0.64336436127E+02  0.64336436127E+02  0.00000000000E+00 0.  1.
         23    2    1    2    0    0 -0.54680439219E+02 -0.12658673988E+02  0.16165603929E+02  0.10748269384E+03  0.90227547152E+02 0.  0.
         23    2    1    2    0    0  0.54680439219E+02  0.12658673988E+02  0.13024086778E+03  0.16759665012E+03  0.89307116350E+02 0.  0.
          5    1    3    3  502    0 -0.32335932290E+02 -0.53066616709E+00  0.53128543289E+02  0.62374884655E+02  0.47000000000E+01 0. -1.
         -5    1    4    4    0  503 -0.18510002549E+02 -0.12803273676E+02  0.54426725529E+02  0.59083859582E+02  0.47000000000E+01 0.  1.
          5    1    4    4  503    0  0.73190441768E+02  0.25461947664E+02  0.75814142251E+02  0.10851279054E+03  0.47000000000E+01 0. -1.
         -5    1    3    3    0  502 -0.22344506929E+02 -0.12128007821E+02 -0.36962939361E+02  0.45107809188E+02  0.47000000000E+01 0.  1.
<mgrwt>
<rscale>  0 0.10606442E+03</rscale>
<asrwt>0</asrwt>
<pdfrwt beam="1">  1        1 0.32421985E-01 0.10626007E+03</pdfrwt>
<pdfrwt beam="2">  1       -1 0.98979133E-02 0.10626007E+03</pdfrwt>
<totfact> 0.79016781E+03</totfact>
</mgrwt>
</event>
<event>
 8    1  0.8438969E-004  0.3753171E+03  0.7546771E-02  0.1052689E+00
          1   -1    0    0  501    0  0.00000000000E+00  0.00000000000E+00  0.78514721050E+03  0.78514721050E+03  0.00000000000E+00 0. -1.
         -1   -1    0    0    0  501 -0.00000000000E+00 -0.00000000000E+00 -0.27492667029E+03  0.27492667029E+03  0.00000000000E+00 0.  1.
         23    2    1    2    0    0  0.34400351403E+03 -0.11915867994E+03  0.56764858239E+03  0.68050558224E+03  0.91245414732E+02 0.  0.
         23    2    1    2    0    0 -0.34400351403E+03  0.11915867994E+03 -0.57428042177E+02  0.37956829856E+03  0.90757394051E+02 0.  0.
          5    1    4    4  502    0 -0.75033765893E+02  0.57938831569E+02  0.10341569115E+02  0.95477810403E+02  0.47000000000E+01 0. -1.
         -5    1    4    4    0  502 -0.26896974813E+03  0.61219848367E+02 -0.67769611292E+02  0.28409048815E+03  0.47000000000E+01 0.  1.
          5    1    3    3  503    0  0.21375685197E+03 -0.11935368284E+03  0.36223531881E+03  0.43723427309E+03  0.47000000000E+01 0. -1.
         -5    1    3    3    0  503  0.13024666206E+03  0.19500290200E+00  0.20541326358E+03  0.24327130915E+03  0.47000000000E+01 0.  1.
<mgrwt>
<rscale>  0 0.37528752E+03</rscale>
<asrwt>0</asrwt>
<pdfrwt beam="1">  1        1 0.12079188E+00 0.37531711E+03</pdfrwt>
<pdfrwt beam="2">  1       -1 0.42296411E-01 0.37531711E+03</pdfrwt>
<totfact> 0.13189218E+02</totfact>
</mgrwt>
</event>
<event>
 8    1  0.8438969E-004  0.1129299E+03  0.7546771E-02  0.1261519E+00
         -1   -1    0    0    0  501 -0.00000000000E+00  0.00000000000E+00  0.20887775809E+02  0.20887775809E+02  0.00000000000E+00 0.  1.
          1   -1    0    0  501    0  0.00000000000E+00 -0.00000000000E+00 -0.54911672839E+03  0.54911672839E+03  0.00000000000E+00 0. -1.
         23    2    1    2    0    0 -0.39100035155E+02 -0.83351178092E+01 -0.21460804880E+03  0.23667097536E+03  0.91423459957E+02 0.  0.
         23    2    1    2    0    0  0.39100035155E+02  0.83351178092E+01 -0.31362090378E+03  0.33333352883E+03  0.10561668060E+03 0.  0.
          5    1    3    3  502    0 -0.35578796614E+02  0.32099582904E+02 -0.16764128208E+03  0.17441881621E+03  0.47000000000E+01 0. -1.
         -5    1    4    4    0  503  0.27579626591E+02 -0.44927151343E+02 -0.10397982946E+03  0.11667467448E+03  0.47000000000E+01 0.  1.
          5    1    4    4  503    0  0.11520408564E+02  0.53262269153E+02 -0.20964107432E+03  0.21665885436E+03  0.47000000000E+01 0. -1.
         -5    1    3    3    0  502 -0.35212385409E+01 -0.40434700713E+02 -0.46966766720E+02  0.62252159150E+02  0.47000000000E+01 0.  1.
<mgrwt>
<rscale>  0 0.10948896E+03</rscale>
<asrwt>0</asrwt>
<pdfrwt beam="1">  1        1 0.84479494E-01 0.11292993E+03</pdfrwt>
<pdfrwt beam="2">  1       -1 0.32135041E-02 0.11292993E+03</pdfrwt>
<totfact> 0.12683713E+04</totfact>
</mgrwt>
</event>
<event>
 8    1  0.8438969E-004  0.9849413E+02  0.7546771E-02  0.1284047E+00
         -1   -1    0    0    0  501 -0.00000000000E+00  0.00000000000E+00  0.15858149658E+02  0.15858149658E+02  0.00000000000E+00 0.  1.
          1   -1    0    0  501    0  0.00000000000E+00 -0.00000000000E+00 -0.82706459567E+03  0.82706459567E+03  0.00000000000E+00 0. -1.
         23    2    1    2    0    0 -0.24728271638E+02  0.14224896555E+02 -0.18586316921E+03  0.20987037186E+03  0.93202039764E+02 0.  0.
         23    2    1    2    0    0  0.24728271638E+02 -0.14224896555E+02 -0.62534327680E+03  0.63305237347E+03  0.94272257908E+02 0.  0.
          5    1    3    3  502    0 -0.57383784163E+02 -0.42912408494E+01 -0.91343877630E+02  0.10806066543E+03  0.47000000000E+01 0. -1.
         -5    1    3    3    0  502  0.32655512525E+02  0.18516137404E+02 -0.94519291580E+02  0.10180970643E+03  0.47000000000E+01 0.  1.
          5    1    4    4  503    0 -0.47863530496E+01  0.34638066463E+02 -0.14157481210E+03  0.14590483969E+03  0.47000000000E+01 0. -1.
         -5    1    4    4    0  503  0.29514624688E+02 -0.48862963017E+02 -0.48376846470E+03  0.48714753378E+03  0.47000000000E+01 0.  1.
<mgrwt>
<rscale>  0 0.98237164E+02</rscale>
<asrwt>0</asrwt>
<pdfrwt beam="1">  1        1 0.12724072E+00 0.98494130E+02</pdfrwt>
<pdfrwt beam="2">  1       -1 0.24397151E-02 0.98494130E+02</pdfrwt>
<totfact> 0.10517307E+04</totfact>
</mgrwt>
</event>
<event>
 8    1  0.8438969E-004  0.1347382E+03  0.7546771E-02  0.1227102E+00
          1   -1    0    0  501    0  0.00000000000E+00  0.00000000000E+00  0.73876842462E+02  0.73876842462E+02  0.00000000000E+00 0. -1.
         -1   -1    0    0    0  501 -0.00000000000E+00 -0.00000000000E+00 -0.23008765919E+03  0.23008765919E+03  0.00000000000E+00 0.  1.
         23    2    1    2    0    0 -0.42211840851E+02 -0.61862449156E+02 -0.44899447921E+02  0.14202237194E+03  0.11200710506E+03 0.  0.
         23    2    1    2    0    0  0.42211840851E+02  0.61862449156E+02 -0.11131136881E+03  0.16194212971E+03  0.90698569041E+02 0.  0.
          5    1    4    4  502    0  0.46701525806E+02 -0.45679381489E+01 -0.66588834141E+02  0.81596944819E+02  0.47000000000E+01 0. -1.
         -5    1    4    4    0  502 -0.44896849550E+01  0.66430387305E+02 -0.44722534668E+02  0.80345184894E+02  0.47000000000E+01 0.  1.
          5    1    3    3  503    0 -0.63796105647E+02 -0.56393454037E+02  0.67877055221E+01  0.85547224970E+02  0.47000000000E+01 0. -1.
         -5    1    3    3    0  503  0.21584264795E+02 -0.54689951192E+01 -0.51687153443E+02  0.56475146971E+02  0.47000000000E+01 0.  1.
<mgrwt>
<rscale>  0 0.13023889E+03</rscale>
<asrwt>0</asrwt>
<pdfrwt beam="1">  1        1 0.11365668E-01 0.13473824E+03</pdfrwt>
<pdfrwt beam="2">  1       -1 0.35398101E-01 0.13473824E+03</pdfrwt>
<totfact> 0.39658857E+03</totfact>
</mgrwt>
</event>
<event>
 8    1  0.8438969E-004  0.9508704E+02  0.7546771E-02  0.1292563E+00
          1   -1    0    0  501    0  0.00000000000E+00  0.00000000000E+00  0.10278592105E+04  0.10278592105E+04  0.00000000000E+00 0. -1.
         -1   -1    0    0    0  501 -0.00000000000E+00 -0.00000000000E+00 -0.86370686516E+01  0.86370686516E+01  0.00000000000E+00 0.  1.
         23    2    1    2    0    0 -0.10570668901E+02 -0.27449908555E+02  0.57139884720E+03  0.57925658187E+03  0.90422942586E+02 0.  0.
         23    2    1    2    0    0  0.10570668901E+02  0.27449908555E+02  0.44782329470E+03  0.45723969732E+03  0.87505434196E+02 0.  0.
          5    1    4    4  502    0  0.37583680423E+02  0.39738948997E+02  0.36559236731E+03  0.36969120375E+03  0.47000000000E+01 0. -1.
         -5    1    3    3    0  503  0.84578735765E+01 -0.56292380027E+02  0.27908071507E+03  0.28486576347E+03  0.47000000000E+01 0.  1.
          5    1    3    3  503    0 -0.19028542478E+02  0.28842471471E+02  0.29231813212E+03  0.29439081840E+03  0.47000000000E+01 0. -1.
         -5    1    4    4    0  502 -0.27013011521E+02 -0.12289040441E+02  0.82230927392E+02  0.87548493569E+02  0.47000000000E+01 0.  1.
<mgrwt>
<rscale>  0 0.94386846E+02</rscale>
<asrwt>0</asrwt>
<pdfrwt beam="1">  1        1 0.15813209E+00 0.95087039E+02</pdfrwt>
<pdfrwt beam="2">  1       -1 0.13287806E-02 0.95087039E+02</pdfrwt>
<totfact> 0.17654205E+04</totfact>
</mgrwt>
</event>
<event>
 8    1  0.8438969E-004  0.1211050E+03  0.7546771E-02  0.1241443E+00
         -2   -1    0    0    0  501 -0.00000000000E+00  0.00000000000E+00  0.10689719327E+03  0.10689719327E+03  0.00000000000E+00 0.  1.
          2   -1    0    0  501    0  0.00000000000E+00 -0.00000000000E+00 -0.14332755648E+03  0.14332755648E+03  0.00000000000E+00 0. -1.
         23    2    1    2    0    0 -0.74321225345E+02 -0.27575085505E+02 -0.44963964180E+02  0.12881944866E+03  0.91042091365E+02 0.  0.
         23    2    1    2    0    0  0.74321225345E+02  0.27575085505E+02  0.85336009787E+01  0.12140530109E+03  0.91555419885E+02 0.  0.
          5    1    3    3  502    0 -0.89934793557E+02 -0.39905928498E+01 -0.23956338680E+02  0.93274798774E+02  0.47000000000E+01 0. -1.
         -5    1    4    4    0  503  0.52350010561E+02  0.25681398478E+02  0.48186613057E+02  0.75789824590E+02  0.47000000000E+01 0.  1.
          5    1    4    4  503    0  0.21971214784E+02  0.18936870272E+01 -0.39653012079E+02  0.45615476503E+02  0.47000000000E+01 0. -1.
         -5    1    3    3    0  502  0.15613568212E+02 -0.23584492655E+02 -0.21007625501E+02  0.35544649883E+02  0.47000000000E+01 0.  1.
<mgrwt>
<rscale>  0 0.12100800E+03</rscale>
<asrwt>0</asrwt>
<pdfrwt beam="1">  1        2 0.22050393E-01 0.12110502E+03</pdfrwt>
<pdfrwt beam="2">  1       -2 0.16445722E-01 0.12110502E+03</pdfrwt>
<totfact> 0.68468020E+03</totfact>
</mgrwt>
</event>
<event>
 8    1  0.8438969E-004  0.1052712E+03  0.7546771E-02  0.1270134E+00
         -3   -1    0    0    0  501 -0.00000000000E+00  0.00000000000E+00  0.17051087534E+03  0.17051087534E+03  0.00000000000E+00 0.  1.
          3   -1    0    0  501    0  0.00000000000E+00 -0.00000000000E+00 -0.93528747330E+02  0.93528747330E+02  0.00000000000E+00 0. -1.
         23    2    1    2    0    0  0.30227711476E+02  0.43935578705E+02 -0.35158306705E+02  0.11098712038E+03  0.90763344711E+02 0.  0.
         23    2    1    2    0    0 -0.30227711476E+02 -0.43935578705E+02  0.11214043472E+03  0.15305250229E+03  0.89473693012E+02 0.  0.
          5    1    3    3  502    0  0.19813569967E+02 -0.23055259043E+02 -0.29783519298E+02  0.42816708726E+02  0.47000000000E+01 0.  1.
         -5    1    4    4    0  503 -0.53876851067E+02 -0.45112381094E+02  0.49952346455E+02  0.86343320096E+02  0.47000000000E+01 0.  1.
          5    1    4    4  503    0  0.23649139591E+02  0.11768023882E+01  0.62188088260E+02  0.66709182192E+02  0.47000000000E+01 0. -1.
         -5    1    3    3    0  502  0.10414141509E+02  0.66990837749E+02 -0.53747874072E+01  0.68170411656E+02  0.47000000000E+01 0. -1.
<mgrwt>
<rscale>  0 0.10499267E+03</rscale>
<asrwt>0</asrwt>
<pdfrwt beam="1">  1        3 0.14389038E-01 0.10527124E+03</pdfrwt>
<pdfrwt beam="2">  1       -3 0.26232442E-01 0.10527124E+03</pdfrwt>
<totfact> 0.12088939E+03</totfact>
</mgrwt>
</event>
<event>
 8    1  0.8438969E-004  0.1116667E+03  0.7546771E-02  0.1257722E+00
          1   -1    0    0  501    0  0.00000000000E+00  0.00000000000E+00  0.18021300401E+03  0.18021300401E+03  0.00000000000E+00 0. -1.
         -1   -1    0    0    0  501 -0.00000000000E+00 -0.00000000000E+00 -0.74990410670E+02  0.74990410670E+02  0.00000000000E+00 0.  1.
         23    2    1    2    0    0  0.63053807448E+02  0.51477772370E+01  0.88846552081E+02  0.14234228915E+03  0.91462206517E+02 0.  0.
         23    2    1    2    0    0 -0.63053807448E+02 -0.51477772370E+01  0.16376041260E+02  0.11286112553E+03  0.92017262966E+02 0.  0.
          5    1    3    3  502    0 -0.12932432792E+01 -0.34899167232E+02  0.29834288955E+02  0.46171410517E+02  0.47000000000E+01 0. -1.
         -5    1    3    3    0  502  0.64347050727E+02  0.40046944469E+02  0.59012263126E+02  0.96170878637E+02  0.47000000000E+01 0.  1.
          5    1    4    4  503    0  0.20893371825E+02 -0.11016569426E+01 -0.11316929199E+02  0.24246845583E+02  0.47000000000E+01 0. -1.
         -5    1    4    4    0  503 -0.83947179273E+02 -0.40461202945E+01  0.27692970459E+02  0.88614279945E+02  0.47000000000E+01 0.  1.
<mgrwt>
<rscale>  0 0.11155232E+03</rscale>
<asrwt>0</asrwt>
<pdfrwt beam="1">  1        1 0.27725077E-01 0.11166673E+03</pdfrwt>
<pdfrwt beam="2">  1       -1 0.11536986E-01 0.11166673E+03</pdfrwt>
<totfact> 0.76209328E+03</totfact>
</mgrwt>
</event>
<event>
 8    1  0.8438969E-004  0.9490572E+02  0.7546771E-02  0.1296054E+00
         -1   -1    0    0    0  501 -0.00000000000E+00  0.00000000000E+00  0.21634548817E+02  0.21634548817E+02  0.00000000000E+00 0.  1.
          1   -1    0    0  501    0  0.00000000000E+00 -0.00000000000E+00 -0.76744443671E+03  0.76744443671E+03  0.00000000000E+00 0. -1.
         23    2    1    2    0    0 -0.15901046500E+02 -0.40037147540E+01 -0.85512949095E+02  0.12199642398E+03  0.85450511925E+02 0.  0.
         23    2    1    2    0    0  0.15901046500E+02  0.40037147540E+01 -0.66029693880E+03  0.66708256155E+03  0.93478465588E+02 0.  0.
          5    1    4    4  502    0  0.51913386953E+02  0.13235945644E+02 -0.47497724245E+03  0.47801219739E+03  0.47000000000E+01 0. -1.
         -5    1    4    4    0  502 -0.36012340453E+02 -0.92322308898E+01 -0.18531969634E+03  0.18907036416E+03  0.47000000000E+01 0.  1.
          5    1    3    3  503    0 -0.76500603706E+01  0.30125005765E+02 -0.80244316349E+02  0.86181666858E+02  0.47000000000E+01 0. -1.
         -5    1    3    3    0  503 -0.82509861297E+01 -0.34128720519E+02 -0.52686327452E+01  0.35814757117E+02  0.47000000000E+01 0.  1.
<mgrwt>
<rscale>  0 0.92866921E+02</rscale>
<asrwt>0</asrwt>
<pdfrwt beam="1">  1        1 0.11806840E+00 0.94905724E+02</pdfrwt>
<pdfrwt beam="2">  1       -1 0.33283913E-02 0.94905724E+02</pdfrwt>
<totfact> 0.74927861E+03</totfact>
</mgrwt>
</event>
<event>
 8    1  0.8438969E-004  0.1183847E+03  0.7546771E-02  0.1246605E+00
         -1   -1    0    0    0  501 -0.00000000000E+00  0.00000000000E+00  0.54853511081E+03  0.54853511081E+03  0.00000000000E+00 0.  1.
          1   -1    0    0  501    0  0.00000000000E+00 -0.00000000000E+00 -0.26259164431E+02  0.26259164431E+02  0.00000000000E+00 0. -1.
         23    2    1    2    0    0 -0.63682102629E+02  0.39914324337E+02  0.31856153911E+03  0.33917915428E+03  0.88952127664E+02 0.  0.
         23    2    1    2    0    0  0.63682102629E+02 -0.39914324337E+02  0.20371440727E+03  0.23561512097E+03  0.91467819555E+02 0.  0.
          5    1    3    3  502    0 -0.27670571637E+02  0.21714488171E+02  0.26456450667E+02  0.44263001628E+02  0.47000000000E+01 0. -1.
         -5    1    3    3    0  502 -0.36011530992E+02  0.18199836165E+02  0.29210508844E+03  0.29491615265E+03  0.47000000000E+01 0.  1.
          5    1    4    4  503    0  0.30613441592E+02  0.19847625860E+02  0.25657411218E+02  0.44849791625E+02  0.47000000000E+01 0. -1.
         -5    1    4    4    0  503  0.33068661036E+02 -0.59761950196E+02  0.17805699606E+03  0.19076532934E+03  0.47000000000E+01 0.  1.
<mgrwt>
<rscale>  0 0.11789848E+03</rscale>
<asrwt>0</asrwt>
<pdfrwt beam="1">  1        1 0.40398719E-02 0.11838465E+03</pdfrwt>
<pdfrwt beam="2">  1       -1 0.84390009E-01 0.11838465E+03</pdfrwt>
<totfact> 0.31221550E+03</totfact>
</mgrwt>
</event>
<event>
 8    1  0.8438969E-004  0.1095495E+03  0.7546771E-02  0.1261829E+00
          4   -1    0    0  501    0  0.00000000000E+00  0.00000000000E+00  0.85028203951E+03  0.85028203951E+03  0.00000000000E+00 0. -1.
         -4   -1    0    0    0  501 -0.00000000000E+00 -0.00000000000E+00 -0.16877352440E+02  0.16877352440E+02  0.00000000000E+00 0.  1.
         23    2    1    2    0    0  0.46546187278E+02 -0.34487354302E+02  0.23904889494E+03  0.26295526157E+03  0.92979407725E+02 0.  0.
         23    2    1    2    0    0 -0.46546187278E+02  0.34487354302E+02  0.59435579214E+03  0.60420413038E+03  0.91912449463E+02 0.  0.
          5    1    4    4  502    0 -0.71658049990E+02  0.10577927924E+02  0.43864277790E+03  0.44460808055E+03  0.47000000000E+01 0. -1.
         -5    1    4    4    0  502  0.25111862713E+02  0.23909426378E+02  0.15571301424E+03  0.15959604983E+03  0.47000000000E+01 0.  1.
          5    1    3    3  503    0  0.50710317909E+02 -0.79590691408E+01  0.22763987430E+03  0.23340283952E+03  0.47000000000E+01 0. -1.
         -5    1    3    3    0  503 -0.41641306312E+01 -0.26528285161E+02  0.11409020642E+02  0.29552422059E+02  0.47000000000E+01 0.  1.
<mgrwt>
<rscale>  0 0.10932278E+03</rscale>
<asrwt>0</asrwt>
<pdfrwt beam="1">  1        4 0.13081259E+00 0.10954951E+03</pdfrwt>
<pdfrwt beam="2">  1       -4 0.25965164E-02 0.10954951E+03</pdfrwt>
<totfact> 0.48509001E+02</totfact>
</mgrwt>
</event>
<event>
 8    1  0.8438969E-004  0.9507207E+02  0.7546771E-02  0.1291814E+00
         -1   -1    0    0    0  501 -0.00000000000E+00  0.00000000000E+00  0.90395703251E+01  0.90395703251E+01  0.00000000000E+00 0.  1.
          1   -1    0    0  501    0  0.00000000000E+00 -0.00000000000E+00 -0.11572586155E+04  0.11572586155E+04  0.00000000000E+00 0. -1.
         23    2    1    2    0    0 -0.24449899217E+02  0.60067728120E+01 -0.35286200550E+03  0.36544533629E+03  0.91677805360E+02 0.  0.
         23    2    1    2    0    0  0.24449899217E+02 -0.60067728120E+01 -0.79535703965E+03  0.80085284951E+03  0.90214118432E+02 0.  0.
          5    1    4    4  502    0  0.30956923231E+02 -0.44368575499E+02 -0.48512250977E+03  0.48815247728E+03  0.47000000000E+01 0. -1.
         -5    1    4    4    0  502 -0.65070240147E+01  0.38361802687E+02 -0.31023452988E+03  0.31270037224E+03  0.47000000000E+01 0.  1.
          5    1    3    3  503    0 -0.47189248235E+02  0.22517019482E+02 -0.30698319421E+03  0.31143958136E+03  0.47000000000E+01 0. -1.
         -5    1    3    3    0  503  0.22739349018E+02 -0.16510246670E+02 -0.45878811297E+02  0.54005754924E+02  0.47000000000E+01 0.  1.
<mgrwt>
<rscale>  0 0.94717436E+02</rscale>
<asrwt>0</asrwt>
<pdfrwt beam="1">  1        1 0.17803983E+00 0.95072072E+02</pdfrwt>
<pdfrwt beam="2">  1       -1 0.13907028E-02 0.95072072E+02</pdfrwt>
<totfact> 0.13446973E+04</totfact>
</mgrwt>
</event>
<event>
 8    1  0.8438969E-004  0.1099492E+03  0.7546771E-02  0.1261430E+00
         -1   -1    0    0    0  501 -0.00000000000E+00  0.00000000000E+00  0.34536600022E+03  0.34536600022E+03  0.00000000000E+00 0.  1.
          1   -1    0    0  501    0  0.00000000000E+00 -0.00000000000E+00 -0.39729699341E+02  0.39729699341E+02  0.00000000000E+00 0. -1.
         23    2    1    2    0    0  0.21040831431E+02  0.57551830848E+02  0.22378610992E+03  0.24933719995E+03  0.91290122503E+02 0.  0.
         23    2    1    2    0    0 -0.21040831431E+02 -0.57551830848E+02  0.81850190959E+02  0.13575849961E+03  0.89308379417E+02 0.  0.
          5    1    4    4  502    0  0.26956523765E+02 -0.52836661993E+02  0.39655057732E+02  0.71505109103E+02  0.47000000000E+01 0. -1.
         -5    1    4    4    0  502 -0.47997355196E+02 -0.47151688546E+01  0.42195133227E+02  0.64253390504E+02  0.47000000000E+01 0.  1.
          5    1    3    3  503    0  0.20891338159E+02  0.31440100784E+01  0.29431368617E+01  0.21842272410E+02  0.47000000000E+01 0. -1.
         -5    1    3    3    0  503  0.14949327189E+00  0.54407820770E+02  0.22084297306E+03  0.22749492754E+03  0.47000000000E+01 0.  1.
<mgrwt>
<rscale>  0 0.10953689E+03</rscale>
<asrwt>0</asrwt>
<pdfrwt beam="1">  1        1 0.61122617E-02 0.10994915E+03</pdfrwt>
<pdfrwt beam="2">  1       -1 0.53133229E-01 0.10994915E+03</pdfrwt>
<totfact> 0.43539602E+03</totfact>
</mgrwt>
</event>
<event>
 8    1  0.8438969E-004  0.1620111E+03  0.7546771E-02  0.1186530E+00
         -3   -1    0    0    0  501 -0.00000000000E+00  0.00000000000E+00  0.53438954452E+03  0.53438954452E+03  0.00000000000E+00 0.  1.
          3   -1    0    0  501    0  0.00000000000E+00 -0.00000000000E+00 -0.55042439037E+02  0.55042439037E+02  0.00000000000E+00 0. -1.
         23    2    1    2    0    0 -0.12992323720E+03 -0.30513140605E+02  0.33732517168E+03  0.37421367322E+03  0.91850435290E+02 0.  0.
         23    2    1    2    0    0  0.12992323720E+03  0.30513140605E+02  0.14202193381E+03  0.21521831034E+03  0.91310416217E+02 0.  0.
          5    1    3    3  502    0 -0.59798458728E+02  0.31724926855E+02  0.15241028213E+03  0.16683318240E+03  0.47000000000E+01 0. -1.
         -5    1    3    3    0  502 -0.70124778470E+02 -0.62238067459E+02  0.18491488955E+03  0.20738049082E+03  0.47000000000E+01 0.  1.
          5    1    4    4  503    0  0.53891248665E+01 -0.23885849176E+02  0.14743713579E+02  0.28966248424E+02  0.47000000000E+01 0. -1.
         -5    1    4    4    0  503  0.12453411233E+03  0.54398989781E+02  0.12727822023E+03  0.18625206191E+03  0.47000000000E+01 0.  1.
<mgrwt>
<rscale>  0 0.16193468E+03</rscale>
<asrwt>0</asrwt>
<pdfrwt beam="1">  1        3 0.84680679E-02 0.16201112E+03</pdfrwt>
<pdfrwt beam="2">  1       -3 0.82213773E-01 0.16201112E+03</pdfrwt>
<totfact> 0.32498905E+02</totfact>
</mgrwt>
</event>
<event>
 7    1  0.8438969E-004  0.1348734E+03  0.7546771E-02  0.1236709E+00
          2   -1    0    0  501    0  0.00000000000E+00  0.00000000000E+00  0.85140536739E+03  0.85140536739E+03  0.00000000000E+00 0. -1.
         -2   -1    0    0    0  501 -0.00000000000E+00 -0.00000000000E+00 -0.15693441888E+02  0.15693441888E+02  0.00000000000E+00 0.  1.
         23    2    1    2    0    0  0.23663916301E+02  0.25291118463E+02  0.33656647289E+03  0.35005236565E+03  0.89777761265E+02 0.  0.
          5    1    3    3  502    0  0.47909546181E+02  0.36414907838E+00  0.10099487908E+03  0.11188169117E+03  0.47000000000E+01 0. -1.
         -5    1    3    3    0  502 -0.24245629880E+02  0.24926969385E+02  0.23557159381E+03  0.23817067448E+03  0.47000000000E+01 0.  1.
          5    1    1    2  503    0 -0.18170425436E+02 -0.61844077978E+02  0.45369248848E+03  0.45827264641E+03  0.47000000000E+01 0. -1.
         -5    1    1    2    0  503 -0.54934908652E+01  0.36552959515E+02  0.45452964134E+02  0.58773797221E+02  0.47000000000E+01 0.  1.
<mgrwt>
<rscale>  0 0.12395648E+03</rscale>
<asrwt>0</asrwt>
<pdfrwt beam="1">  1        2 0.13098540E+00 0.13487343E+03</pdfrwt>
<pdfrwt beam="2">  1       -2 0.24143763E-02 0.13487343E+03</pdfrwt>
<totfact> 0.18207415E+04</totfact>
</mgrwt>
</event>
<event>
 8    1  0.8438969E-004  0.1024592E+03  0.7546771E-02  0.1275625E+00
         -1   -1    0    0    0  501 -0.00000000000E+00  0.00000000000E+00  0.51189142031E+02  0.51189142031E+02  0.00000000000E+00 0.  1.
          1   -1    0    0  501    0  0.00000000000E+00 -0.00000000000E+00 -0.54983552213E+03  0.54983552213E+03  0.00000000000E+00 0. -1.
         23    2    1    2    0    0  0.39836071055E+02 -0.20809795964E+02 -0.11172126780E+02  0.10306645395E+03  0.92075606688E+02 0.  0.
         23    2    1    2    0    0 -0.39836071055E+02  0.20809795964E+02 -0.48747425332E+03  0.49795821022E+03  0.91166174140E+02 0.  0.
          5    1    3    3  502    0 -0.47136082243E+01  0.30833841338E+02  0.70328798922E+01  0.32318652102E+02  0.47000000000E+01 0. -1.
         -5    1    4    4    0  503 -0.24955249479E+02 -0.20253375435E+02 -0.59958236999E+02  0.68191230206E+02  0.47000000000E+01 0.  1.
          5    1    4    4  503    0 -0.14880821576E+02  0.41063171399E+02 -0.42751601632E+03  0.42976698001E+03  0.47000000000E+01 0. -1.
         -5    1    3    3    0  502  0.44549679279E+02 -0.51643637302E+02 -0.18205006672E+02  0.70747801843E+02  0.47000000000E+01 0.  1.
<mgrwt>
<rscale>  0 0.10225442E+03</rscale>
<asrwt>0</asrwt>
<pdfrwt beam="1">  1        1 0.84590078E-01 0.10245915E+03</pdfrwt>
<pdfrwt beam="2">  1       -1 0.78752528E-02 0.10245915E+03</pdfrwt>
<totfact> 0.33644729E+03</totfact>
</mgrwt>
</event>
<event>
 8    1  0.8438969E-004  0.9734985E+02  0.7546771E-02  0.1286017E+00
          4   -1    0    0  501    0  0.00000000000E+00  0.00000000000E+00  0.33155952006E+03  0.33155952006E+03  0.00000000000E+00 0. -1.
         -4   -1    0    0    0  501 -0.00000000000E+00 -0.00000000000E+00 -0.46346319727E+02  0.46346319727E+02  0.00000000000E+00 0.  1.
         23    2    1    2    0    0 -0.10740228425E+02 -0.30110270826E+02  0.25582836554E+02  0.10065522857E+03  0.91951142445E+02 0.  0.
         23    2    1    2    0    0  0.10740228425E+02  0.30110270826E+02  0.25963036378E+03  0.27725061122E+03  0.91858558160E+02 0.  0.
          5    1    3    3  502    0 -0.21171429399E+02  0.29483260724E+02  0.11447434348E+02  0.38348739730E+02  0.47000000000E+01 0. -1.
         -5    1    4    4    0  503  0.54587219613E+01 -0.32421701280E+02  0.70635716960E+02  0.78054204690E+02  0.47000000000E+01 0.  1.
          5    1    4    4  503    0  0.52815064639E+01  0.62531972107E+02  0.18899464682E+03  0.19919640653E+03  0.47000000000E+01 0. -1.
         -5    1    3    3    0  502  0.10431200974E+02 -0.59593531550E+02  0.14135402206E+02  0.62306488843E+02  0.47000000000E+01 0.  1.
<mgrwt>
<rscale>  0 0.97327982E+02</rscale>
<asrwt>0</asrwt>
<pdfrwt beam="1">  1        4 0.51009155E-01 0.97349851E+02</pdfrwt>
<pdfrwt beam="2">  1       -4 0.71302033E-02 0.97349851E+02</pdfrwt>
<totfact> 0.76532446E+02</totfact>
</mgrwt>
</event>
<event>
 8    1  0.8438969E-004  0.1095707E+03  0.7546771E-02  0.1266341E+00
         -2   -1    0    0    0  501 -0.00000000000E+00  0.00000000000E+00  0.17833363819E+02  0.17833363819E+02  0.00000000000E+00 0.  1.
          2   -1    0    0  501    0  0.00000000000E+00 -0.00000000000E+00 -0.67709163706E+03  0.67709163706E+03  0.00000000000E+00 0. -1.
         23    2    1    2    0    0  0.27370026090E+02  0.29013802115E+02 -0.23675661682E+03  0.26088203950E+03  0.10205304447E+03 0.  0.
         23    2    1    2    0    0 -0.27370026090E+02 -0.29013802115E+02 -0.42250165642E+03  0.43404296137E+03  0.91075373185E+02 0.  0.
          5    1    4    4  502    0 -0.28651831579E+02 -0.56439542281E+02 -0.20064350850E+03  0.21044300152E+03  0.47000000000E+01 0. -1.
         -5    1    4    4    0  502  0.12818054887E+01  0.27425740165E+02 -0.22185814792E+03  0.22359995985E+03  0.47000000000E+01 0.  1.
          5    1    3    3  503    0  0.52798812937E+02  0.82836238212E+01 -0.21413769892E+03  0.22075637515E+03  0.47000000000E+01 0. -1.
         -5    1    3    3    0  503 -0.25428786847E+02  0.20730178294E+02 -0.22618917898E+02  0.40125664350E+02  0.47000000000E+01 0.  1.
<mgrwt>
<rscale>  0 0.10694156E+03</rscale>
<asrwt>0</asrwt>
<pdfrwt beam="1">  1        2 0.10416792E+00 0.10957072E+03</pdfrwt>
<pdfrwt beam="2">  1       -2 0.27435951E-02 0.10957072E+03</pdfrwt>
<totfact> 0.19632161E+04</totfact>
</mgrwt>
</event>
<event>
 8    1  0.8438969E-004  0.1016995E+03  0.7546771E-02  0.1277469E+00
          2   -1    0    0  501    0  0.00000000000E+00  0.00000000000E+00  0.50374019143E+02  0.50374019143E+02  0.00000000000E+00 0. -1.
         -2   -1    0    0    0  501 -0.00000000000E+00 -0.00000000000E+00 -0.36973969170E+03  0.36973969170E+03  0.00000000000E+00 0.  1.
         23    2    1    2    0    0 -0.40739148504E+02  0.92425475809E+00 -0.30151398446E+03  0.31820351009E+03  0.93178637782E+02 0.  0.
         23    2    1    2    0    0  0.40739148504E+02 -0.92425475809E+00 -0.17851688091E+02  0.10191020075E+03  0.91686824472E+02 0.  0.
          5    1    4    4  502    0  0.33547467187E+02  0.43276876729E+02 -0.14024861979E+02  0.56719550136E+02  0.47000000000E+01 0. -1.
         -5    1    4    4    0  502  0.71916813163E+01 -0.44201131487E+02 -0.38268261116E+01  0.45190650615E+02  0.47000000000E+01 0.  1.
          5    1    3    3  503    0 -0.18665564117E+02  0.44742590487E+02 -0.10738190034E+03  0.11791210798E+03  0.47000000000E+01 0. -1.
         -5    1    3    3    0  503 -0.22073584387E+02 -0.43818335729E+02 -0.19413208413E+03  0.20029140211E+03  0.47000000000E+01 0.  1.
<mgrwt>
<rscale>  0 0.10135652E+03</rscale>
<asrwt>0</asrwt>
<pdfrwt beam="1">  1        2 0.77498487E-02 0.10169951E+03</pdfrwt>
<pdfrwt beam="2">  1       -2 0.56883032E-01 0.10169951E+03</pdfrwt>
<totfact> 0.24687165E+03</totfact>
</mgrwt>
</event>
<event>
 8    1  0.8438969E-004  0.9626115E+02  0.7546771E-02  0.1289705E+00
         -3   -1    0    0    0  501 -0.00000000000E+00  0.00000000000E+00  0.13536307561E+02  0.13536307561E+02  0.00000000000E+00 0.  1.
          3   -1    0    0  501    0  0.00000000000E+00 -0.00000000000E+00 -0.67316547293E+03  0.67316547293E+03  0.00000000000E+00 0. -1.
         23    2    1    2    0    0  0.11612374711E+02  0.22370606350E+02 -0.30274068592E+03  0.31767614242E+03  0.92902730201E+02 0.  0.
         23    2    1    2    0    0 -0.11612374711E+02 -0.22370606350E+02 -0.35688847945E+03  0.36902563807E+03  0.90417053223E+02 0.  0.
          5    1    3    3  502    0  0.45156625097E+02 -0.34136540911E+01 -0.21961218307E+03  0.22428190916E+03  0.47000000000E+01 0. -1.
         -5    1    4    4    0  503 -0.18808768047E+02 -0.52252523319E+02 -0.28941477461E+03  0.29473224749E+03  0.47000000000E+01 0.  1.
          5    1    4    4  503    0  0.71963933360E+01  0.29881916970E+02 -0.67473704848E+02  0.74293390585E+02  0.47000000000E+01 0. -1.
         -5    1    3    3    0  502 -0.33544250386E+02  0.25784260441E+02 -0.83128502849E+02  0.93394233260E+02  0.47000000000E+01 0.  1.
<mgrwt>
<rscale>  0 0.95656296E+02</rscale>
<asrwt>0</asrwt>
<pdfrwt beam="1">  1        3 0.10356394E+00 0.96261148E+02</pdfrwt>
<pdfrwt beam="2">  1       -3 0.20825083E-02 0.96261148E+02</pdfrwt>
<totfact> 0.16199455E+03</totfact>
</mgrwt>
</event>
<event>
 8    1  0.1013969E-003  0.9456760E+02  0.7546771E-02  0.1293744E+00
         -1   -1    0    0    0  501 -0.00000000000E+00  0.00000000000E+00  0.29260330400E+03  0.29260330400E+03  0.00000000000E+00 0.  1.
          1   -1    0    0  501    0  0.00000000000E+00 -0.00000000000E+00 -0.63102808773E+02  0.63102808773E+02  0.00000000000E+00 0. -1.
         23    2    1    2    0    0  0.18729375260E+02 -0.30324083773E+01 -0.13885733489E+02  0.95581611633E+02  0.92644729422E+02 0.  0.
         23    2    1    2    0    0 -0.18729375260E+02  0.30324083773E+01  0.24338622872E+03  0.26012450114E+03  0.89821571834E+02 0.  0.
          5    1    4    4  502    0  0.23110357710E+02 -0.29725246223E+02  0.87842524531E+02  0.95687397355E+02  0.47000000000E+01 0. -1.
         -5    1    3    3    0  503 -0.36352605337E+02  0.68462602335E+01 -0.12762245357E+02  0.39412537352E+02  0.47000000000E+01 0.  1.
          5    1    3    3  503    0  0.55081980597E+02 -0.98786686108E+01 -0.11234881318E+01  0.56169074281E+02  0.47000000000E+01 0. -1.
         -5    1    4    4    0  502 -0.41839732970E+02  0.32757654600E+02  0.15554370419E+03  0.16443710379E+03  0.47000000000E+01 0.  1.
<mgrwt>
<rscale>  0 0.93868893E+02</rscale>
<asrwt>0</asrwt>
<pdfrwt beam="1">  1        1 0.97081246E-02 0.94567600E+02</pdfrwt>
<pdfrwt beam="2">  1       -1 0.45015892E-01 0.94567600E+02</pdfrwt>
<totfact> 0.31393228E+03</totfact>
</mgrwt>
</event>
<event>
 8    1  0.8438969E-004  0.9616438E+02  0.7546771E-02  0.1289419E+00
          2   -1    0    0  501    0  0.00000000000E+00  0.00000000000E+00  0.30057732172E+03  0.30057732172E+03  0.00000000000E+00 0. -1.
         -2   -1    0    0    0  501 -0.00000000000E+00 -0.00000000000E+00 -0.31092641238E+02  0.31092641238E+02  0.00000000000E+00 0.  1.
         23    2    1    2    0    0  0.42201127012E+01 -0.24243105148E+02  0.10697573422E+03  0.14284002395E+03  0.91399820743E+02 0.  0.
         23    2    1    2    0    0 -0.42201127012E+01  0.24243105148E+02  0.16250894626E+03  0.18882993901E+03  0.92962630946E+02 0.  0.
          5    1    4    4  502    0  0.37471596779E+02 -0.11427573112E+02  0.85409517741E+02  0.94082866204E+02  0.47000000000E+01 0. -1.
         -5    1    4    4    0  502 -0.41691709480E+02  0.35670678260E+02  0.77099428521E+02  0.94747072805E+02  0.47000000000E+01 0.  1.
          5    1    3    3  503    0 -0.25368948757E+02 -0.40299513804E+01 -0.37352886076E+01  0.26379280698E+02  0.47000000000E+01 0. -1.
         -5    1    3    3    0  503  0.29589061458E+02 -0.20213153768E+02  0.11071102283E+03  0.11646074326E+03  0.47000000000E+01 0.  1.
<mgrwt>
<rscale>  0 0.95784655E+02</rscale>
<asrwt>0</asrwt>
<pdfrwt beam="1">  1        2 0.46242663E-01 0.96164381E+02</pdfrwt>
<pdfrwt beam="2">  1       -2 0.47834835E-02 0.96164381E+02</pdfrwt>
<totfact> 0.20623136E+04</totfact>
</mgrwt>
</event>
<event>
 8    1  0.8438969E-004  0.9757393E+02  0.7546771E-02  0.1285846E+00
         -2   -1    0    0    0  501 -0.00000000000E+00  0.00000000000E+00  0.47874745916E+02  0.47874745916E+02  0.00000000000E+00 0.  1.
          2   -1    0    0  501    0  0.00000000000E+00 -0.00000000000E+00 -0.24221071968E+03  0.24221071968E+03  0.00000000000E+00 0. -1.
         23    2    1    2    0    0  0.33798999045E+02 -0.77813165101E+01 -0.34585033402E+02  0.10289296004E+03  0.90487101108E+02 0.  0.
         23    2    1    2    0    0 -0.33798999045E+02  0.77813165101E+01 -0.15975094036E+03  0.18719250556E+03  0.91201699368E+02 0.  0.
          5    1    4    4  502    0 -0.51378244038E+02 -0.25950966713E+02 -0.11152660746E+03  0.12559239947E+03  0.47000000000E+01 0. -1.
         -5    1    4    4    0  502  0.17579244993E+02  0.33732283223E+02 -0.48224332904E+02  0.61600106088E+02  0.47000000000E+01 0.  1.
          5    1    3    3  503    0 -0.23941692059E+02  0.61208411826E+01 -0.35259528265E+02  0.43312742339E+02  0.47000000000E+01 0. -1.
         -5    1    3    3    0  503  0.57740691105E+02 -0.13902157693E+02  0.67449486342E+00  0.59580217699E+02  0.47000000000E+01 0.  1.
<mgrwt>
<rscale>  0 0.97406598E+02</rscale>
<asrwt>0</asrwt>
<pdfrwt beam="1">  1        2 0.37263188E-01 0.97573927E+02</pdfrwt>
<pdfrwt beam="2">  1       -2 0.73653455E-02 0.97573927E+02</pdfrwt>
<totfact> 0.13544777E+04</totfact>
</mgrwt>
</event>
<event>
 8    1  0.8438969E-004  0.1114689E+03  0.7546771E-02  0.1258483E+00
         -1   -1    0    0    0  501 -0.00000000000E+00  0.00000000000E+00  0.60857206444E+02  0.60857206444E+02  0.00000000000E+00 0.  1.
          1   -1    0    0  501    0  0.00000000000E+00 -0.00000000000E+00 -0.20388132995E+03  0.20388132995E+03  0.00000000000E+00 0. -1.
         23    2    1    2    0    0  0.21470588569E+02  0.56929930820E+02 -0.85502762872E+02  0.14048503000E+03  0.93398704480E+02 0.  0.
         23    2    1    2    0    0 -0.21470588569E+02 -0.56929930820E+02 -0.57521360634E+02  0.12425350640E+03  0.91805357827E+02 0.  0.
          5    1    3    3  502    0  0.55150923808E+02  0.48299799574E+02 -0.72086913493E+02  0.10292282610E+03  0.47000000000E+01 0. -1.
         -5    1    4    4    0  503  0.99320892984E+00  0.24705503806E+02 -0.10320063422E+02  0.27201876614E+02  0.47000000000E+01 0.  1.
          5    1    4    4  503    0 -0.22463797499E+02 -0.81635434626E+02 -0.47201297212E+02  0.97051629781E+02  0.47000000000E+01 0. -1.
         -5    1    3    3    0  502 -0.33680335239E+02  0.86301312465E+01 -0.13415849379E+02  0.37562203898E+02  0.47000000000E+01 0.  1.
<mgrwt>
<rscale>  0 0.11113452E+03</rscale>
<asrwt>0</asrwt>
<pdfrwt beam="1">  1        1 0.31366358E-01 0.11146892E+03</pdfrwt>
<pdfrwt beam="2">  1       -1 0.93626473E-02 0.11146892E+03</pdfrwt>
<totfact> 0.89880630E+03</totfact>
</mgrwt>
</event>
<event>
 8    1  0.8438969E-004  0.9369344E+02  0.7546771E-02  0.1299092E+00
         -1   -1    0    0    0  501 -0.00000000000E+00  0.00000000000E+00  0.31600563918E+02  0.31600563918E+02  0.00000000000E+00 0.  1.
          1   -1    0    0  501    0  0.00000000000E+00 -0.00000000000E+00 -0.44738905072E+03  0.44738905072E+03  0.00000000000E+00 0. -1.
         23    2    1    2    0    0 -0.25317327529E+02  0.66894232675E+01 -0.45119563765E+02  0.96662646717E+02  0.81376758224E+02 0.  0.
         23    2    1    2    0    0  0.25317327529E+02 -0.66894232675E+01 -0.37066892304E+03  0.38232696792E+03  0.89959682291E+02 0.  0.
          5    1    3    3  502    0 -0.18495772549E+02 -0.36044343388E+02 -0.29818239314E+02  0.50522328611E+02  0.47000000000E+01 0. -1.
         -5    1    4    4    0  503 -0.17582885713E+02  0.31073130249E+02 -0.15905298893E+03  0.16307863312E+03  0.47000000000E+01 0.  1.
          5    1    4    4  503    0  0.42900213242E+02 -0.37762553517E+02 -0.21161593411E+03  0.21924833480E+03  0.47000000000E+01 0. -1.
         -5    1    3    3    0  502 -0.68215549802E+01  0.42733766656E+02 -0.15301324451E+02  0.46140318106E+02  0.47000000000E+01 0.  1.
<mgrwt>
<rscale>  0 0.91570564E+02</rscale>
<asrwt>0</asrwt>
<pdfrwt beam="1">  1        1 0.68829085E-01 0.93693436E+02</pdfrwt>
<pdfrwt beam="2">  1       -1 0.48616252E-02 0.93693436E+02</pdfrwt>
<totfact> 0.89037441E+03</totfact>
</mgrwt>
</event>
<event>
 8    1  0.8438969E-004  0.1172798E+03  0.7546771E-02  0.1249403E+00
         -1   -1    0    0    0  501 -0.00000000000E+00  0.00000000000E+00  0.80379460084E+02  0.80379460084E+02  0.00000000000E+00 0.  1.
          1   -1    0    0  501    0  0.00000000000E+00 -0.00000000000E+00 -0.20350944848E+03  0.20350944848E+03  0.00000000000E+00 0. -1.
         23    2    1    2    0    0 -0.35478173215E+02  0.56141388630E+02 -0.12220377508E+03  0.16660540797E+03  0.91722641867E+02 0.  0.
         23    2    1    2    0    0  0.35478173215E+02 -0.56141388630E+02 -0.92621331553E+00  0.11728350059E+03  0.96664395445E+02 0.  0.
          5    1    3    3  502    0  0.15141458434E+02  0.30581795508E+02 -0.30738478177E+01  0.34583934426E+02  0.47000000000E+01 0.  1.
         -5    1    3    3    0  502 -0.50619631649E+02  0.25559593122E+02 -0.11912992726E+03  0.13202147355E+03  0.47000000000E+01 0. -1.
          5    1    4    4  503    0 -0.18867218725E+02 -0.58815742462E+02 -0.69658071890E+01  0.62336794700E+02  0.47000000000E+01 0. -1.
         -5    1    4    4    0  503  0.54345391940E+02  0.26743538316E+01  0.60395938735E+01  0.54946705886E+02  0.47000000000E+01 0.  1.
<mgrwt>
<rscale>  0 0.11625691E+03</rscale>
<asrwt>0</asrwt>
<pdfrwt beam="1">  1        1 0.31309145E-01 0.11727984E+03</pdfrwt>
<pdfrwt beam="2">  1       -1 0.12366071E-01 0.11727984E+03</pdfrwt>
<totfact> 0.59139356E+03</totfact>
</mgrwt>
</event>
<event>
 8    1  0.8438969E-004  0.1111028E+03  0.7546771E-02  0.1267978E+00
         -1   -1    0    0    0  501 -0.00000000000E+00  0.00000000000E+00  0.20446645142E+02  0.20446645142E+02  0.00000000000E+00 0.  1.
          1   -1    0    0  501    0  0.00000000000E+00 -0.00000000000E+00 -0.74550571100E+03  0.74550571100E+03  0.00000000000E+00 0. -1.
         23    2    1    2    0    0 -0.64507539540E+01  0.21924337158E+02 -0.60149574351E+03  0.61167062522E+03  0.10872688492E+03 0.  0.
         23    2    1    2    0    0  0.64507539540E+01 -0.21924337158E+02 -0.12356332234E+03  0.15428173092E+03  0.89513513400E+02 0.  0.
          5    1    4    4  502    0  0.46543290540E+02 -0.74737687125E+00 -0.63935719742E+02  0.79225644367E+02  0.47000000000E+01 0. -1.
         -5    1    4    4    0  502 -0.40092536586E+02 -0.21176960287E+02 -0.59627602600E+02  0.75056086553E+02  0.47000000000E+01 0. -1.
          5    1    3    3  503    0 -0.49396470387E+02  0.25660747246E+02 -0.46767526745E+03  0.47099971446E+03  0.47000000000E+01 0. -1.
         -5    1    3    3    0  503  0.42945716433E+02 -0.37364100885E+01 -0.13382047606E+03  0.14067091076E+03  0.47000000000E+01 0.  1.
<mgrwt>
<rscale>  0 0.10609473E+03</rscale>
<asrwt>0</asrwt>
<pdfrwt beam="1">  1        1 0.11469320E+00 0.11110276E+03</pdfrwt>
<pdfrwt beam="2">  1       -1 0.31456373E-02 0.11110276E+03</pdfrwt>
<totfact> 0.85689940E+03</totfact>
</mgrwt>
</event>
<event>
 8    1  0.8438969E-004  0.1238616E+03  0.7546771E-02  0.1239080E+00
          1   -1    0    0  501    0  0.00000000000E+00  0.00000000000E+00  0.21594349356E+03  0.21594349356E+03  0.00000000000E+00 0. -1.
         -1   -1    0    0    0  501 -0.00000000000E+00 -0.00000000000E+00 -0.88196173564E+02  0.88196173564E+02  0.00000000000E+00 0.  1.
         23    2    1    2    0    0  0.27104710012E+01 -0.83835912346E+02 -0.10110299486E+02  0.11881180094E+03  0.83535735074E+02 0.  0.
         23    2    1    2    0    0 -0.27104710012E+01  0.83835912346E+02  0.13785761948E+03  0.18532786619E+03  0.91136644024E+02 0.  0.
          5    1    3    3  502    0 -0.18438027050E+02  0.91666060993E+01  0.60308984015E+01  0.21964727278E+02  0.47000000000E+01 0. -1.
         -5    1    4    4    0  503  0.25134829669E+02 -0.27299939440E+01  0.83964863465E+01  0.27051867077E+02  0.47000000000E+01 0.  1.
          5    1    4    4  503    0 -0.27845300670E+02  0.86565906290E+02  0.12946113314E+03  0.15827599911E+03  0.47000000000E+01 0. -1.
         -5    1    3    3    0  502  0.21148498051E+02 -0.93002518445E+02 -0.16141197888E+02  0.96847073659E+02  0.47000000000E+01 0.  1.
<mgrwt>
<rscale>  0 0.12246807E+03</rscale>
<asrwt>0</asrwt>
<pdfrwt beam="1">  1        1 0.33222076E-01 0.12386160E+03</pdfrwt>
<pdfrwt beam="2">  1       -1 0.13568642E-01 0.12386160E+03</pdfrwt>
<totfact> 0.47781154E+03</totfact>
</mgrwt>
</event>
<event>
 8    1  0.8438969E-004  0.2151509E+03  0.7546771E-02  0.1137578E+00
          1   -1    0    0  501    0  0.00000000000E+00  0.00000000000E+00  0.11930225543E+03  0.11930225543E+03  0.00000000000E+00 0. -1.
         -1   -1    0    0    0  501 -0.00000000000E+00 -0.00000000000E+00 -0.68958328351E+03  0.68958328351E+03  0.00000000000E+00 0.  1.
         23    2    1    2    0    0  0.10881792266E+03 -0.16136620902E+03 -0.17617857256E+02  0.21587105165E+03  0.91703480524E+02 0.  0.
         23    2    1    2    0    0 -0.10881792266E+03  0.16136620902E+03 -0.55266317082E+03  0.59301448729E+03  0.91374000967E+02 0.  0.
          5    1    4    4  502    0 -0.82433562726E+02  0.16552476757E+03 -0.50949383610E+03  0.54203302479E+03  0.47000000000E+01 0. -1.
         -5    1    3    3    0  503  0.39037726818E+02 -0.53319891865E+02 -0.50180631455E+02  0.83109209820E+02  0.47000000000E+01 0.  1.
          5    1    3    3  503    0  0.69780195844E+02 -0.10804631715E+03  0.32562774198E+02  0.13276184183E+03  0.47000000000E+01 0. -1.
         -5    1    4    4    0  502 -0.26384359936E+02 -0.41585585509E+01 -0.43169334723E+02  0.50981462502E+02  0.47000000000E+01 0.  1.
<mgrwt>
<rscale>  0 0.21511586E+03</rscale>
<asrwt>0</asrwt>
<pdfrwt beam="1">  1        1 0.18354194E-01 0.21515093E+03</pdfrwt>
<pdfrwt beam="2">  1       -1 0.10608973E+00 0.21515093E+03</pdfrwt>
<totfact> 0.25382511E+02</totfact>
</mgrwt>
</event>
<event>
 8    1  0.8438969E-004  0.1009617E+03  0.7546771E-02  0.1278975E+00
         -2   -1    0    0    0  501 -0.00000000000E+00  0.00000000000E+00  0.79927644509E+01  0.79927644509E+01  0.00000000000E+00 0.  1.
          2   -1    0    0  501    0  0.00000000000E+00 -0.00000000000E+00 -0.12587568237E+04  0.12587568237E+04  0.00000000000E+00 0. -1.
         23    2    1    2    0    0  0.33959734275E+02 -0.27687029863E+02 -0.62661745986E+03  0.63469890240E+03  0.90958345038E+02 0.  0.
         23    2    1    2    0    0 -0.33959734275E+02  0.27687029863E+02 -0.62414659934E+03  0.63205068570E+03  0.89494450406E+02 0.  0.
          5    1    3    3  502    0 -0.25991469831E+02 -0.22711939515E+02 -0.34114926861E+03  0.34292317240E+03  0.47000000000E+01 0. -1.
         -5    1    3    3    0  502  0.59951204105E+02 -0.49750903482E+01 -0.28546819125E+03  0.29177573000E+03  0.47000000000E+01 0.  1.
          5    1    4    4  503    0 -0.51130165379E+02  0.46467931120E+02 -0.52644524886E+03  0.53098046337E+03  0.47000000000E+01 0. -1.
         -5    1    4    4    0  503  0.17170431104E+02 -0.18780901257E+02 -0.97701350480E+02  0.10107022233E+03  0.47000000000E+01 0.  1.
<mgrwt>
<rscale>  0 0.10063083E+03</rscale>
<asrwt>0</asrwt>
<pdfrwt beam="1">  1        2 0.19365464E+00 0.10096165E+03</pdfrwt>
<pdfrwt beam="2">  1       -2 0.12296577E-02 0.10096165E+03</pdfrwt>
<totfact> 0.27223500E+04</totfact>
</mgrwt>
</event>
<event>
 8    1  0.8438969E-004  0.1063271E+03  0.7546771E-02  0.1273505E+00
         -2   -1    0    0    0  501 -0.00000000000E+00  0.00000000000E+00  0.18264763960E+02  0.18264763960E+02  0.00000000000E+00 0.  1.
          2   -1    0    0  501    0  0.00000000000E+00 -0.00000000000E+00 -0.66371987783E+03  0.66371987783E+03  0.00000000000E+00 0. -1.
         23    2    1    2    0    0  0.16238253477E+02 -0.11488461408E+02 -0.44610065260E+03  0.45604736247E+03  0.92616083619E+02 0.  0.
         23    2    1    2    0    0 -0.16238253477E+02  0.11488461408E+02 -0.19935446127E+03  0.22593727932E+03  0.10444992741E+03 0.  0.
          5    1    3    3  502    0 -0.17678115712E+02 -0.31060868900E+02 -0.35435441649E+03  0.35618314929E+03  0.47000000000E+01 0. -1.
         -5    1    3    3    0  502  0.33916369189E+02  0.19572407493E+02 -0.91746236113E+02  0.99864213185E+02  0.47000000000E+01 0.  1.
          5    1    4    4  503    0 -0.28514938743E+02 -0.41478829009E+02 -0.79044515850E+02  0.93828143291E+02  0.47000000000E+01 0. -1.
         -5    1    4    4    0  503  0.12276685267E+02  0.52967290416E+02 -0.12030994542E+03  0.13210913603E+03  0.47000000000E+01 0.  1.
<mgrwt>
<rscale>  0 0.10330055E+03</rscale>
<asrwt>0</asrwt>
<pdfrwt beam="1">  1        2 0.10211075E+00 0.10632710E+03</pdfrwt>
<pdfrwt beam="2">  1       -2 0.28099637E-02 0.10632710E+03</pdfrwt>
<totfact> 0.19352386E+04</totfact>
</mgrwt>
</event>
<event>
 8    1  0.8438969E-004  0.1102453E+03  0.7546771E-02  0.1260547E+00
         -2   -1    0    0    0  501 -0.00000000000E+00  0.00000000000E+00  0.26396038869E+02  0.26396038869E+02  0.00000000000E+00 0.  1.
          2   -1    0    0  501    0  0.00000000000E+00 -0.00000000000E+00 -0.48585958954E+03  0.48585958954E+03  0.00000000000E+00 0. -1.
         23    2    1    2    0    0 -0.59372602324E+02  0.21674233577E+02 -0.16593683672E+03  0.19870825523E+03  0.89191135252E+02 0.  0.
         23    2    1    2    0    0  0.59372602324E+02 -0.21674233577E+02 -0.29352671395E+03  0.31354737318E+03  0.90327986351E+02 0.  0.
          5    1    3    3  502    0 -0.57333365896E+02 -0.18704545265E+02 -0.13383354585E+03  0.14686893086E+03  0.47000000000E+01 0. -1.
         -5    1    4    4    0  503 -0.21911606968E+02  0.67659575988E+01 -0.76895444915E+02  0.80379699868E+02  0.47000000000E+01 0.  1.
          5    1    4    4  503    0  0.81284209292E+02 -0.28440191176E+02 -0.21663126903E+03  0.23316767331E+03  0.47000000000E+01 0. -1.
         -5    1    3    3    0  502 -0.20392364277E+01  0.40378778842E+02 -0.32103290876E+02  0.51839324369E+02  0.47000000000E+01 0.  1.
<mgrwt>
<rscale>  0 0.11001217E+03</rscale>
<asrwt>0</asrwt>
<pdfrwt beam="1">  1        2 0.74747626E-01 0.11024529E+03</pdfrwt>
<pdfrwt beam="2">  1       -2 0.40609292E-02 0.11024529E+03</pdfrwt>
<totfact> 0.16018503E+04</totfact>
</mgrwt>
</event>
<event>
 8    1  0.8438969E-004  0.1066952E+03  0.7546771E-02  0.1269005E+00
          3   -1    0    0  501    0  0.00000000000E+00  0.00000000000E+00  0.16112580985E+03  0.16112580985E+03  0.00000000000E+00 0. -1.
         -3   -1    0    0    0  501 -0.00000000000E+00 -0.00000000000E+00 -0.69760067432E+02  0.69760067432E+02  0.00000000000E+00 0.  1.
         23    2    1    2    0    0 -0.39107107906E+02 -0.23867306644E+02  0.64362508522E+02  0.12082665941E+03  0.91419554284E+02 0.  0.
         23    2    1    2    0    0  0.39107107906E+02  0.23867306644E+02  0.27003233893E+02  0.11005921787E+03  0.96357888013E+02 0.  0.
          5    1    4    4  502    0  0.59059791543E+02 -0.14554116962E+02  0.26483840778E+02  0.66508383832E+02  0.47000000000E+01 0. -1.
         -5    1    4    4    0  502 -0.19952683637E+02  0.38421423606E+02  0.51939311494E+00  0.43550834038E+02  0.47000000000E+01 0.  1.
          5    1    3    3  503    0 -0.78224381839E+01 -0.30384478681E+02  0.79173112096E+02  0.85292899838E+02  0.47000000000E+01 0. -1.
         -5    1    3    3    0  503 -0.31284669722E+02  0.65171720369E+01 -0.14810603574E+02  0.35533759571E+02  0.47000000000E+01 0.  1.
<mgrwt>
<rscale>  0 0.10556795E+03</rscale>
<asrwt>0</asrwt>
<pdfrwt beam="1">  1        3 0.24788586E-01 0.10669516E+03</pdfrwt>
<pdfrwt beam="2">  1       -3 0.10732318E-01 0.10669516E+03</pdfrwt>
<totfact> 0.21915134E+03</totfact>
</mgrwt>
</event>
<event>
 8    1  0.8438969E-004  0.1145304E+03  0.7546771E-02  0.1253539E+00
         -1   -1    0    0    0  501 -0.00000000000E+00  0.00000000000E+00  0.34994292444E+03  0.34994292444E+03  0.00000000000E+00 0.  1.
          1   -1    0    0  501    0  0.00000000000E+00 -0.00000000000E+00 -0.10607616059E+03  0.10607616059E+03  0.00000000000E+00 0. -1.
         23    2    1    2    0    0  0.81643538545E+01 -0.64139656255E+02  0.30591301780E+03  0.32576187426E+03  0.91419210701E+02 0.  0.
         23    2    1    2    0    0 -0.81643538545E+01  0.64139656255E+02 -0.62046253945E+02  0.13025721076E+03  0.94533862447E+02 0.  0.
          5    1    4    4  502    0 -0.50832348383E+02  0.42625358081E+02 -0.35206402839E+02  0.75249116902E+02  0.47000000000E+01 0. -1.
         -5    1    4    4    0  502  0.42667994528E+02  0.21514298174E+02 -0.26839851106E+02  0.55008093863E+02  0.47000000000E+01 0.  1.
          5    1    3    3  503    0 -0.40427194469E+02 -0.41264914076E+02  0.16544497042E+03  0.17530339251E+03  0.47000000000E+01 0. -1.
         -5    1    3    3    0  503  0.48591548323E+02 -0.22874742179E+02  0.14046804737E+03  0.15045848175E+03  0.47000000000E+01 0.  1.
<mgrwt>
<rscale>  0 0.11388568E+03</rscale>
<asrwt>0</asrwt>
<pdfrwt beam="1">  1        1 0.16319410E-01 0.11453036E+03</pdfrwt>
<pdfrwt beam="2">  1       -1 0.53837372E-01 0.11453036E+03</pdfrwt>
<totfact> 0.11679972E+03</totfact>
</mgrwt>
</event>
<event>
 8    1  0.8438969E-004  0.1009148E+03  0.7546771E-02  0.1280301E+00
         -3   -1    0    0    0  501 -0.00000000000E+00  0.00000000000E+00  0.61544334432E+02  0.61544334432E+02  0.00000000000E+00 0.  1.
          3   -1    0    0  501    0  0.00000000000E+00 -0.00000000000E+00 -0.18154362689E+03  0.18154362689E+03  0.00000000000E+00 0. -1.
         23    2    1    2    0    0 -0.34184158746E+02 -0.22335614811E+02 -0.10322189844E+03  0.14435563717E+03  0.92284090010E+02 0.  0.
         23    2    1    2    0    0  0.34184158746E+02  0.22335614811E+02 -0.16777394022E+02  0.98732324149E+02  0.88312821739E+02 0.  0.
          5    1    3    3  502    0  0.20325584824E+02  0.22066403640E+02 -0.33849428119E+02  0.45474491224E+02  0.47000000000E+01 0. -1.
         -5    1    3    3    0  502 -0.54509743570E+02 -0.44402018451E+02 -0.69372470318E+02  0.98881145951E+02  0.47000000000E+01 0.  1.
          5    1    4    4  503    0  0.49945803262E+02  0.38879769867E+02 -0.31795285655E+02  0.70987674692E+02  0.47000000000E+01 0. -1.
         -5    1    4    4    0  503 -0.15761644516E+02 -0.16544155056E+02  0.15017891633E+02  0.27744649456E+02  0.47000000000E+01 0.  1.
<mgrwt>
<rscale>  0 0.99997751E+02</rscale>
<asrwt>0</asrwt>
<pdfrwt beam="1">  1        3 0.27929788E-01 0.10091476E+03</pdfrwt>
<pdfrwt beam="2">  1       -3 0.94683593E-02 0.10091476E+03</pdfrwt>
<totfact> 0.21469916E+03</totfact>
</mgrwt>
</event>
<event>
 8    1  0.8438969E-004  0.1188547E+03  0.7546771E-02  0.1245528E+00
          1   -1    0    0  501    0  0.00000000000E+00  0.00000000000E+00  0.69411922685E+03  0.69411922685E+03  0.00000000000E+00 0. -1.
         -1   -1    0    0    0  501 -0.00000000000E+00 -0.00000000000E+00 -0.20317973079E+02  0.20317973079E+02  0.00000000000E+00 0.  1.
         23    2    1    2    0    0  0.73238454999E+02 -0.14712262534E+02  0.36890479859E+03  0.38719372206E+03  0.90817982920E+02 0.  0.
         23    2    1    2    0    0 -0.73238454999E+02  0.14712262534E+02  0.30489645518E+03  0.32724347787E+03  0.92445245769E+02 0.  0.
          5    1    3    3  502    0 -0.99164605915E+01  0.19294222497E+02  0.13061092267E+03  0.13248360779E+03  0.47000000000E+01 0. -1.
         -5    1    3    3    0  502  0.83154915590E+02 -0.34006485032E+02  0.23829387592E+03  0.25471011427E+03  0.47000000000E+01 0.  1.
          5    1    4    4  503    0 -0.67217607574E+02  0.48768912632E+02  0.19693822358E+03  0.21378345940E+03  0.47000000000E+01 0. -1.
         -5    1    4    4    0  503 -0.60208474244E+01 -0.34056650098E+02  0.10795823160E+03  0.11346001846E+03  0.47000000000E+01 0.  1.
<mgrwt>
<rscale>  0 0.11853815E+03</rscale>
<asrwt>0</asrwt>
<pdfrwt beam="1">  1        1 0.10678756E+00 0.11885472E+03</pdfrwt>
<pdfrwt beam="2">  1       -1 0.31258425E-02 0.11885472E+03</pdfrwt>
<totfact> 0.96229841E+03</totfact>
</mgrwt>
</event>
<event>
 8    1  0.8438969E-004  0.9332383E+02  0.7546771E-02  0.1296110E+00
          2   -1    0    0  501    0  0.00000000000E+00  0.00000000000E+00  0.13632131513E+03  0.13632131513E+03  0.00000000000E+00 0. -1.
         -2   -1    0    0    0  501 -0.00000000000E+00 -0.00000000000E+00 -0.99376065993E+02  0.99376065993E+02  0.00000000000E+00 0.  1.
         23    2    1    2    0    0  0.34367101445E+01  0.44163293234E+01  0.90294000520E+02  0.12985508720E+03  0.93155902664E+02 0.  0.
         23    2    1    2    0    0 -0.34367101445E+01 -0.44163293234E+01 -0.53348751384E+02  0.10584229392E+03  0.91242462519E+02 0.  0.
          5    1    4    4  502    0  0.43278859655E+02 -0.82394181606E+01 -0.25619279926E+02  0.51179929744E+02  0.47000000000E+01 0. -1.
         -5    1    4    4    0  502 -0.46715569799E+02  0.38230888372E+01 -0.27729471458E+02  0.54662364175E+02  0.47000000000E+01 0.  1.
          5    1    3    3  503    0 -0.46965282361E+01  0.47793027567E+02  0.54873755524E+02  0.73071539650E+02  0.47000000000E+01 0. -1.
         -5    1    3    3    0  503  0.81332383806E+01 -0.43376698244E+02  0.35420244996E+02  0.56783547552E+02  0.47000000000E+01 0.  1.
<mgrwt>
<rscale>  0 0.92842639E+02</rscale>
<asrwt>0</asrwt>
<pdfrwt beam="1">  1        2 0.20972510E-01 0.93323829E+02</pdfrwt>
<pdfrwt beam="2">  1       -2 0.15288626E-01 0.93323829E+02</pdfrwt>
<totfact> 0.79893203E+03</totfact>
</mgrwt>
</event>
<event>
 8    1  0.8438969E-004  0.1054187E+03  0.7546771E-02  0.1269887E+00
         -3   -1    0    0    0  501 -0.00000000000E+00  0.00000000000E+00  0.81590101221E+02  0.81590101221E+02  0.00000000000E+00 0.  1.
          3   -1    0    0  501    0  0.00000000000E+00 -0.00000000000E+00 -0.15500543794E+03  0.15500543794E+03  0.00000000000E+00 0. -1.
         23    2    1    2    0    0 -0.35658938768E+02 -0.36081378711E+02 -0.79377777189E+02  0.13100837029E+03  0.91043592693E+02 0.  0.
         23    2    1    2    0    0  0.35658938768E+02  0.36081378711E+02  0.59624404734E+01  0.10558716887E+03  0.92410355099E+02 0.  0.
          5    1    3    3  502    0 -0.38475544175E+01  0.29817998660E+02 -0.17789102636E+02  0.35248530348E+02  0.47000000000E+01 0. -1.
         -5    1    4    4    0  503  0.51860562280E+00 -0.20244642098E+02  0.28538110926E+02  0.35307623266E+02  0.47000000000E+01 0.  1.
          5    1    4    4  503    0  0.35140333145E+02  0.56326020809E+02 -0.22575670452E+02  0.70279545602E+02  0.47000000000E+01 0. -1.
         -5    1    3    3    0  502 -0.31811384350E+02 -0.65899377371E+02 -0.61588674553E+02  0.95759839940E+02  0.47000000000E+01 0.  1.
<mgrwt>
<rscale>  0 0.10511840E+03</rscale>
<asrwt>0</asrwt>
<pdfrwt beam="1">  1        3 0.23846991E-01 0.10541869E+03</pdfrwt>
<pdfrwt beam="2">  1       -3 0.12552323E-01 0.10541869E+03</pdfrwt>
<totfact> 0.18060878E+03</totfact>
</mgrwt>
</event>
<event>
 8    1  0.8438969E-004  0.9425225E+02  0.7546771E-02  0.1294824E+00
         -1   -1    0    0    0  501 -0.00000000000E+00  0.00000000000E+00  0.22573725529E+03  0.22573725529E+03  0.00000000000E+00 0.  1.
          1   -1    0    0  501    0  0.00000000000E+00 -0.00000000000E+00 -0.39510042862E+02  0.39510042862E+02  0.00000000000E+00 0. -1.
         23    2    1    2    0    0  0.63913950898E+01 -0.82889918240E+00  0.65218700483E+02  0.11186364248E+03  0.90655714724E+02 0.  0.
         23    2    1    2    0    0 -0.63913950898E+01  0.82889918240E+00  0.12100851194E+03  0.15338365566E+03  0.94031637535E+02 0.  0.
          5    1    3    3  502    0 -0.16931100721E+02  0.37888856238E+02  0.15609108322E+02  0.44586565928E+02  0.47000000000E+01 0. -1.
         -5    1    4    4    0  503 -0.77152879732E+01 -0.21892235810E+02  0.12715739818E+03  0.12934407435E+03  0.47000000000E+01 0.  1.
          5    1    4    4  503    0  0.13238928834E+01  0.22721134992E+02 -0.61488862408E+01  0.24039581313E+02  0.47000000000E+01 0. -1.
         -5    1    3    3    0  502  0.23322495811E+02 -0.38717755420E+02  0.49609592161E+02  0.67277076557E+02  0.47000000000E+01 0.  1.
<mgrwt>
<rscale>  0 0.93398792E+02</rscale>
<asrwt>0</asrwt>
<pdfrwt beam="1">  1        1 0.60784683E-02 0.94252246E+02</pdfrwt>
<pdfrwt beam="2">  1       -1 0.34728808E-01 0.94252246E+02</pdfrwt>
<totfact> 0.91667668E+03</totfact>
</mgrwt>
</event>
<event>
 8    1  0.8438969E-004  0.2783846E+03  0.7546771E-02  0.1096774E+00
         -1   -1    0    0    0  501 -0.00000000000E+00  0.00000000000E+00  0.18097596116E+03  0.18097596116E+03  0.00000000000E+00 0.  1.
          1   -1    0    0  501    0  0.00000000000E+00 -0.00000000000E+00 -0.14847543587E+04  0.14847543587E+04  0.00000000000E+00 0. -1.
         23    2    1    2    0    0  0.91759802181E+02 -0.24397838705E+03  0.50929283693E+02  0.28300491271E+03  0.97737782034E+02 0.  0.
         23    2    1    2    0    0 -0.91759802181E+02  0.24397838705E+03 -0.13547076813E+04  0.13827254072E+04  0.93548572169E+02 0.  0.
          5    1    4    4  502    0 -0.48529430668E+02  0.22334613878E+03 -0.11385680081E+04  0.11612914374E+04  0.47000000000E+01 0. -1.
         -5    1    4    4    0  502 -0.43230371513E+02  0.20632248270E+02 -0.21613967312E+03  0.22143396981E+03  0.47000000000E+01 0.  1.
          5    1    3    3  503    0  0.48887464123E+02 -0.21865536362E+03  0.60405160429E+02  0.23210132613E+03  0.47000000000E+01 0.  1.
         -5    1    3    3    0  503  0.42872338058E+02 -0.25323023432E+02 -0.94758767359E+01  0.50903586575E+02  0.47000000000E+01 0. -1.
<mgrwt>
<rscale>  0 0.27802315E+03</rscale>
<asrwt>0</asrwt>
<pdfrwt beam="1">  1        1 0.22842374E+00 0.27838461E+03</pdfrwt>
<pdfrwt beam="2">  1       -1 0.27842456E-01 0.27838461E+03</pdfrwt>
<totfact> 0.85798087E+01</totfact>
</mgrwt>
</event>
<event>
 8    1  0.8438969E-004  0.9478668E+02  0.7546771E-02  0.1292169E+00
          4   -1    0    0  501    0  0.00000000000E+00  0.00000000000E+00  0.58160371070E+03  0.58160371070E+03  0.00000000000E+00 0. -1.
         -4   -1    0    0    0  501 -0.00000000000E+00 -0.00000000000E+00 -0.29612062614E+02  0.29612062614E+02  0.00000000000E+00 0.  1.
         23    2    1    2    0    0 -0.19739050979E+02  0.11052840454E+02  0.48776596589E+03  0.49671925739E+03  0.91118536901E+02 0.  0.
         23    2    1    2    0    0  0.19739050979E+02 -0.11052840454E+02  0.64225682203E+02  0.11449651593E+03  0.92047370901E+02 0.  0.
          5    1    4    4  502    0 -0.18893409950E+01  0.31280092066E+02  0.58307309135E+02  0.66361480300E+02  0.47000000000E+01 0. -1.
         -5    1    4    4    0  502  0.21628391974E+02 -0.42332932521E+02  0.59183730677E+01  0.48135035629E+02  0.47000000000E+01 0.  1.
          5    1    3    3  503    0  0.12970587211E+02  0.34134822495E+02  0.94911580942E+02  0.10180235968E+03  0.47000000000E+01 0. -1.
         -5    1    3    3    0  503 -0.32709638191E+02 -0.23081982040E+02  0.39285438495E+03  0.39491689771E+03  0.47000000000E+01 0.  1.
<mgrwt>
<rscale>  0 0.94560435E+02</rscale>
<asrwt>0</asrwt>
<pdfrwt beam="1">  1        4 0.89477486E-01 0.94786676E+02</pdfrwt>
<pdfrwt beam="2">  1       -4 0.45557024E-02 0.94786676E+02</pdfrwt>
<totfact> 0.47254625E+02</totfact>
</mgrwt>
</event>
<event>
 8    1  0.8438969E-004  0.9769080E+02  0.7546771E-02  0.1285590E+00
         -1   -1    0    0    0  501 -0.00000000000E+00  0.00000000000E+00  0.10321036997E+02  0.10321036997E+02  0.00000000000E+00 0.  1.
          1   -1    0    0  501    0  0.00000000000E+00 -0.00000000000E+00 -0.94575671414E+03  0.94575671414E+03  0.00000000000E+00 0. -1.
         23    2    1    2    0    0 -0.71930941057E+01 -0.33173536006E+02 -0.38794298139E+03  0.40005405679E+03  0.91603861549E+02 0.  0.
         23    2    1    2    0    0  0.71930941057E+01  0.33173536006E+02 -0.54749269576E+03  0.55602369435E+03  0.90894844063E+02 0.  0.
          5    1    3    3  502    0 -0.41535080818E+02  0.26356256231E+01 -0.24776976403E+03  0.25128480939E+03  0.47000000000E+01 0. -1.
         -5    1    3    3    0  502  0.34341986713E+02 -0.35809161629E+02 -0.14017321735E+03  0.14876924740E+03  0.47000000000E+01 0.  1.
          5    1    4    4  503    0 -0.23971018030E+01  0.61438032186E+02 -0.27324558899E+03  0.28011715370E+03  0.47000000000E+01 0. -1.
         -5    1    4    4    0  503  0.95901959087E+01 -0.28264496180E+02 -0.27424710677E+03  0.27590654065E+03  0.47000000000E+01 0.  1.
<mgrwt>
<rscale>  0 0.97524238E+02</rscale>
<asrwt>0</asrwt>
<pdfrwt beam="1">  1        1 0.14550106E+00 0.97690796E+02</pdfrwt>
<pdfrwt beam="2">  1       -1 0.15878515E-02 0.97690796E+02</pdfrwt>
<totfact> 0.15758309E+04</totfact>
</mgrwt>
</event>
<event>
 8    1  0.8438969E-004  0.1245763E+03  0.7546771E-02  0.1236092E+00
         -3   -1    0    0    0  501 -0.00000000000E+00  0.00000000000E+00  0.25346033482E+02  0.25346033482E+02  0.00000000000E+00 0.  1.
          3   -1    0    0  501    0  0.00000000000E+00 -0.00000000000E+00 -0.68151565289E+03  0.68151565289E+03  0.00000000000E+00 0. -1.
         23    2    1    2    0    0 -0.41428614198E+01  0.81803898531E+02 -0.44322760225E+03  0.46015626813E+03  0.92650108401E+02 0.  0.
         23    2    1    2    0    0  0.41428614198E+01 -0.81803898531E+02 -0.21294201716E+03  0.24670541824E+03  0.93862770059E+02 0.  0.
          5    1    4    4  502    0 -0.16225477866E+02 -0.78906228294E+02 -0.21052957595E+03  0.22546452347E+03  0.47000000000E+01 0. -1.
         -5    1    3    3    0  503  0.38803240156E+02  0.56090680506E+02 -0.18850472926E+03  0.20051927299E+03  0.47000000000E+01 0.  1.
          5    1    3    3  503    0 -0.42946101576E+02  0.25713218026E+02 -0.25472287299E+03  0.25963699515E+03  0.47000000000E+01 0. -1.
         -5    1    4    4    0  502  0.20368339286E+02 -0.28976702372E+01 -0.24124412102E+01  0.21240894771E+02  0.47000000000E+01 0.  1.
<mgrwt>
<rscale>  0 0.12434792E+03</rscale>
<asrwt>0</asrwt>
<pdfrwt beam="1">  1        3 0.10484857E+00 0.12457632E+03</pdfrwt>
<pdfrwt beam="2">  1       -3 0.38993895E-02 0.12457632E+03</pdfrwt>
<totfact> 0.62857681E+02</totfact>
</mgrwt>
</event>
<event>
 8    1  0.8438969E-004  0.1022213E+03  0.7546771E-02  0.1276132E+00
          1   -1    0    0  501    0  0.00000000000E+00  0.00000000000E+00  0.11892929270E+03  0.11892929270E+03  0.00000000000E+00 0. -1.
         -1   -1    0    0    0  501 -0.00000000000E+00 -0.00000000000E+00 -0.94153712160E+02  0.94153712160E+02  0.00000000000E+00 0.  1.
         23    2    1    2    0    0 -0.39469109425E+02 -0.19076636144E+02 -0.16765874085E+02  0.10274313636E+03  0.91396547469E+02 0.  0.
         23    2    1    2    0    0  0.39469109425E+02  0.19076636144E+02  0.41541454629E+02  0.11033986851E+03  0.92344276942E+02 0.  0.
          5    1    3    3  502    0 -0.50126789658E+00 -0.49487141607E+02  0.17691043628E+01  0.49743825588E+02  0.47000000000E+01 0. -1.
         -5    1    4    4    0  503  0.40236031509E+02  0.49341543976E+02  0.70850032814E+01  0.64232495398E+02  0.47000000000E+01 0.  1.
          5    1    4    4  503    0 -0.76692208323E+00 -0.30264907832E+02  0.34456451348E+02  0.46107373109E+02  0.47000000000E+01 0. -1.
         -5    1    3    3    0  502 -0.38967841529E+02  0.30410505463E+02 -0.18534978448E+02  0.52999310769E+02  0.47000000000E+01 0.  1.
<mgrwt>
<rscale>  0 0.10200679E+03</rscale>
<asrwt>0</asrwt>
<pdfrwt beam="1">  1        1 0.18296814E-01 0.10222130E+03</pdfrwt>
<pdfrwt beam="2">  1       -1 0.14485186E-01 0.10222130E+03</pdfrwt>
<totfact> 0.89701391E+03</totfact>
</mgrwt>
</event>
<event>
 8    1  0.8438969E-004  0.3278370E+03  0.7546771E-02  0.1072547E+00
         -1   -1    0    0    0  501 -0.00000000000E+00  0.00000000000E+00  0.52683121799E+03  0.52683121799E+03  0.00000000000E+00 0.  1.
          1   -1    0    0  501    0  0.00000000000E+00 -0.00000000000E+00 -0.21840925689E+03  0.21840925689E+03  0.00000000000E+00 0. -1.
         23    2    1    2    0    0 -0.29053623088E+03  0.11067076032E+03  0.51479903744E+02  0.33185434704E+03  0.10400869442E+03 0.  0.
         23    2    1    2    0    0  0.29053623088E+03 -0.11067076032E+03  0.25694205735E+03  0.41338612785E+03  0.90606573808E+02 0.  0.
          5    1    4    4  502    0  0.21709909770E+03 -0.10981316350E+03  0.15822050747E+03  0.29025293812E+03  0.47000000000E+01 0. -1.
         -5    1    4    4    0  502  0.73437133176E+02 -0.85759681543E+00  0.98721549888E+02  0.12313318973E+03  0.47000000000E+01 0.  1.
          5    1    3    3  503    0 -0.27689070956E+02 -0.17174210776E+02  0.18262034955E+02  0.37646116491E+02  0.47000000000E+01 0. -1.
         -5    1    3    3    0  503 -0.26284715992E+03  0.12784497110E+03  0.33217868789E+02  0.29420823055E+03  0.47000000000E+01 0.  1.
<mgrwt>
<rscale>  0 0.32683183E+03</rscale>
<asrwt>0</asrwt>
<pdfrwt beam="1">  1        1 0.33601424E-01 0.32783704E+03</pdfrwt>
<pdfrwt beam="2">  1       -1 0.81050956E-01 0.32783704E+03</pdfrwt>
<totfact> 0.20853001E+02</totfact>
</mgrwt>
</event>
<event>
 8    1  0.8438969E-004  0.1141271E+03  0.7546771E-02  0.1254410E+00
         -2   -1    0    0    0  501 -0.00000000000E+00  0.00000000000E+00  0.46520876476E+02  0.46520876476E+02  0.00000000000E+00 0.  1.
          2   -1    0    0  501    0  0.00000000000E+00 -0.00000000000E+00 -0.27638574334E+03  0.27638574334E+03  0.00000000000E+00 0. -1.
         23    2    1    2    0    0  0.61118830448E+02  0.21476772005E+02 -0.98283982658E+02  0.15061449815E+03  0.93958621935E+02 0.  0.
         23    2    1    2    0    0 -0.61118830448E+02 -0.21476772005E+02 -0.13158088421E+03  0.17229212166E+03  0.90411741093E+02 0.  0.
          5    1    3    3  502    0  0.98460726715E+01  0.27470586918E+02 -0.94074165383E+02  0.98608401697E+02  0.47000000000E+01 0. -1.
         -5    1    3    3    0  502  0.51272757776E+02 -0.59938149132E+01 -0.42098172753E+01  0.52006096457E+02  0.47000000000E+01 0.  1.
          5    1    4    4  503    0  0.13377685720E+02  0.20795194486E+02 -0.35080919622E+02  0.43175959867E+02  0.47000000000E+01 0. -1.
         -5    1    4    4    0  503 -0.74496516167E+02 -0.42271966491E+02 -0.96499964584E+02  0.12911616180E+03  0.47000000000E+01 0.  1.
<mgrwt>
<rscale>  0 0.11339457E+03</rscale>
<asrwt>0</asrwt>
<pdfrwt beam="1">  1        2 0.42520883E-01 0.11412706E+03</pdfrwt>
<pdfrwt beam="2">  1       -2 0.71570580E-02 0.11412706E+03</pdfrwt>
<totfact> 0.12486266E+04</totfact>
</mgrwt>
</event>
<event>
 8    1  0.8438969E-004  0.1417163E+03  0.7546771E-02  0.1211611E+00
          1   -1    0    0  501    0  0.00000000000E+00  0.00000000000E+00  0.11064022882E+04  0.11064022882E+04  0.00000000000E+00 0. -1.
         -1   -1    0    0    0  501 -0.00000000000E+00 -0.00000000000E+00 -0.17934372216E+02  0.17934372216E+02  0.00000000000E+00 0.  1.
         23    2    1    2    0    0 -0.10633661227E+03  0.75507335904E+01  0.54167067920E+03  0.55990235509E+03  0.93375766900E+02 0.  0.
         23    2    1    2    0    0  0.10633661227E+03 -0.75507335904E+01  0.54679723680E+03  0.56443430534E+03  0.90743474613E+02 0.  0.
          5    1    3    3  502    0 -0.15622787231E+02  0.41505917557E+02  0.15908315345E+03  0.16521607786E+03  0.47000000000E+01 0. -1.
         -5    1    3    3    0  502 -0.90713825043E+02 -0.33955183967E+02  0.38258752576E+03  0.39468627723E+03  0.47000000000E+01 0.  1.
          5    1    4    4  503    0  0.66622320711E+02 -0.27949834811E+00  0.49033640949E+03  0.49486411893E+03  0.47000000000E+01 0. -1.
         -5    1    4    4    0  503  0.39714291563E+02 -0.72712352423E+01  0.56460827319E+02  0.69570186415E+02  0.47000000000E+01 0.  1.
<mgrwt>
<rscale>  0 0.14128428E+03</rscale>
<asrwt>0</asrwt>
<pdfrwt beam="1">  1        1 0.17021568E+00 0.14171635E+03</pdfrwt>
<pdfrwt beam="2">  1       -1 0.27591350E-02 0.14171635E+03</pdfrwt>
<totfact> 0.55731607E+03</totfact>
</mgrwt>
</event>
<event>
 8    1  0.8438969E-004  0.1183270E+03  0.7546771E-02  0.1246092E+00
         -1   -1    0    0    0  501 -0.00000000000E+00  0.00000000000E+00  0.33013159462E+02  0.33013159462E+02  0.00000000000E+00 0.  1.
          1   -1    0    0  501    0  0.00000000000E+00 -0.00000000000E+00 -0.81893873410E+03  0.81893873410E+03  0.00000000000E+00 0. -1.
         23    2    1    2    0    0 -0.73824504118E+02  0.10197654354E+02 -0.68982839986E+03  0.69990320483E+03  0.91908787986E+02 0.  0.
         23    2    1    2    0    0  0.73824504118E+02 -0.10197654354E+02 -0.96097174779E+02  0.15204868874E+03  0.91269311293E+02 0.  0.
          5    1    3    3  502    0 -0.27204133458E+02  0.48838635390E+02 -0.27624025302E+03  0.28187948591E+03  0.47000000000E+01 0. -1.
         -5    1    3    3    0  502 -0.46620370660E+02 -0.38640981036E+02 -0.41358814684E+03  0.41802371892E+03  0.47000000000E+01 0.  1.
          5    1    4    4  503    0  0.95236567986E+02 -0.66147224217E+01 -0.76473971071E+02  0.12240962661E+03  0.47000000000E+01 0. -1.
         -5    1    4    4    0  503 -0.21412063868E+02 -0.35829319323E+01 -0.19623203707E+02  0.29639062132E+02  0.47000000000E+01 0.  1.
<mgrwt>
<rscale>  0 0.11820278E+03</rscale>
<asrwt>0</asrwt>
<pdfrwt beam="1">  1        1 0.12599055E+00 0.11832698E+03</pdfrwt>
<pdfrwt beam="2">  1       -1 0.50789487E-02 0.11832698E+03</pdfrwt>
<totfact> 0.37126400E+03</totfact>
</mgrwt>
</event>
<event>
 8    1  0.8438969E-004  0.1085283E+03  0.7546771E-02  0.1265088E+00
          3   -1    0    0  501    0  0.00000000000E+00  0.00000000000E+00  0.11429308568E+03  0.11429308568E+03  0.00000000000E+00 0. -1.
         -3   -1    0    0    0  501 -0.00000000000E+00 -0.00000000000E+00 -0.11461305982E+03  0.11461305982E+03  0.00000000000E+00 0.  1.
         23    2    1    2    0    0 -0.18329855606E+02  0.50213243059E+02  0.41272422589E+02  0.11611113722E+03  0.94451203994E+02 0.  0.
         23    2    1    2    0    0  0.18329855606E+02 -0.50213243059E+02 -0.41592396728E+02  0.11279500828E+03  0.90196635428E+02 0.  0.
          5    1    4    4  502    0  0.93246258769E-01 -0.72372498341E+02 -0.16484295421E+02  0.74374788782E+02  0.47000000000E+01 0. -1.
         -5    1    4    4    0  502  0.18236609347E+02  0.22159255281E+02 -0.25108101307E+02  0.38420219499E+02  0.47000000000E+01 0.  1.
          5    1    3    3  503    0 -0.22208566947E+02 -0.24381170587E+02  0.83269332240E+01  0.34337876200E+02  0.47000000000E+01 0. -1.
         -5    1    3    3    0  503  0.38787113406E+01  0.74594413646E+02  0.32945489365E+02  0.81773261023E+02  0.47000000000E+01 0.  1.
<mgrwt>
<rscale>  0 0.10759587E+03</rscale>
<asrwt>0</asrwt>
<pdfrwt beam="1">  1        3 0.17583552E-01 0.10852826E+03</pdfrwt>
<pdfrwt beam="2">  1       -3 0.17632778E-01 0.10852826E+03</pdfrwt>
<totfact> 0.17402031E+03</totfact>
</mgrwt>
</event>
<event>
 8    1  0.8438969E-004  0.1122460E+03  0.7546771E-02  0.1261162E+00
          1   -1    0    0  501    0  0.00000000000E+00  0.00000000000E+00  0.31015732654E+03  0.31015732654E+03  0.00000000000E+00 0. -1.
         -1   -1    0    0    0  501 -0.00000000000E+00 -0.00000000000E+00 -0.37506417630E+02  0.37506417630E+02  0.00000000000E+00 0.  1.
         23    2    1    2    0    0  0.41673243727E+02 -0.94127722774E+01  0.11231521270E+03  0.15194277753E+03  0.92987316967E+02 0.  0.
         23    2    1    2    0    0 -0.41673243727E+02  0.94127722774E+01  0.16033569621E+03  0.19572096664E+03  0.10379740737E+03 0.  0.
          5    1    4    4  502    0 -0.61484013808E+01  0.51110819880E+02  0.10837439220E+03  0.12007171871E+03  0.47000000000E+01 0. -1.
         -5    1    4    4    0  502 -0.35524842346E+02 -0.41698047603E+02  0.51961304010E+02  0.75649247928E+02  0.47000000000E+01 0.  1.
          5    1    3    3  503    0  0.34182119810E+02  0.39153449380E+02  0.67055216864E+02  0.84970006600E+02  0.47000000000E+01 0. -1.
         -5    1    3    3    0  503  0.74911239171E+01 -0.48566221657E+02  0.45259995832E+02  0.66972770932E+02  0.47000000000E+01 0.  1.
<mgrwt>
<rscale>  0 0.10968098E+03</rscale>
<asrwt>0</asrwt>
<pdfrwt beam="1">  1        1 0.47716510E-01 0.11224599E+03</pdfrwt>
<pdfrwt beam="2">  1       -1 0.57702183E-02 0.11224599E+03</pdfrwt>
<totfact> 0.11070003E+04</totfact>
</mgrwt>
</event>
<event>
 8    1  0.8438969E-004  0.1061268E+03  0.7546771E-02  0.1269306E+00
          1   -1    0    0  501    0  0.00000000000E+00  0.00000000000E+00  0.10446012255E+03  0.10446012255E+03  0.00000000000E+00 0. -1.
         -1   -1    0    0    0  501 -0.00000000000E+00 -0.00000000000E+00 -0.18027336040E+03  0.18027336040E+03  0.00000000000E+00 0.  1.
         23    2    1    2    0    0 -0.73411919995E+01  0.48894107694E+02 -0.12961657616E+03  0.16574732621E+03  0.90703872373E+02 0.  0.
         23    2    1    2    0    0  0.73411919995E+01 -0.48894107694E+02  0.53803338305E+02  0.11898615674E+03  0.93906226714E+02 0.  0.
          5    1    3    3  502    0  0.18847808727E+02 -0.14786502397E+02 -0.76063404441E+01  0.25570040319E+02  0.47000000000E+01 0. -1.
         -5    1    4    4    0  503 -0.25757368575E+02 -0.50335894344E+02  0.13327322414E+01  0.56753946739E+02  0.47000000000E+01 0.  1.
          5    1    4    4  503    0  0.33098560574E+02  0.14417866496E+01  0.52470606064E+02  0.62232210000E+02  0.47000000000E+01 0. -1.
         -5    1    3    3    0  502 -0.26189000727E+02  0.63680610091E+02 -0.12201023571E+03  0.14017728589E+03  0.47000000000E+01 0.  1.
<mgrwt>
<rscale>  0 0.10541398E+03</rscale>
<asrwt>0</asrwt>
<pdfrwt beam="1">  1        1 0.16070788E-01 0.10612684E+03</pdfrwt>
<pdfrwt beam="2">  1       -1 0.27734363E-01 0.10612684E+03</pdfrwt>
<totfact> 0.37606876E+03</totfact>
</mgrwt>
</event>
<event>
 8    1  0.8438969E-004  0.1315023E+03  0.7546771E-02  0.1226937E+00
          1   -1    0    0  501    0  0.00000000000E+00  0.00000000000E+00  0.48542854845E+03  0.48542854845E+03  0.00000000000E+00 0. -1.
         -1   -1    0    0    0  501 -0.00000000000E+00 -0.00000000000E+00 -0.34507893157E+02  0.34507893157E+02  0.00000000000E+00 0.  1.
         23    2    1    2    0    0  0.87190216003E+02 -0.88170519574E+01  0.23585472970E+03  0.26785270063E+03  0.91857180138E+02 0.  0.
         23    2    1    2    0    0 -0.87190216003E+02  0.88170519574E+01  0.21506592559E+03  0.25208374097E+03  0.98045835914E+02 0.  0.
          5    1    3    3  502    0 -0.14693499308E+02 -0.18759410744E+02  0.51205717438E+02  0.56673890917E+02  0.47000000000E+01 0. -1.
         -5    1    3    3    0  502  0.10188371531E+03  0.99423587868E+01  0.18464901226E+03  0.21117880972E+03  0.47000000000E+01 0.  1.
          5    1    4    4  503    0 -0.10372296345E+03  0.22450347823E+02  0.19636174744E+03  0.22325433282E+03  0.47000000000E+01 0. -1.
         -5    1    4    4    0  503  0.16532747444E+02 -0.13633295866E+02  0.18704178147E+02  0.28829408152E+02  0.47000000000E+01 0.  1.
<mgrwt>
<rscale>  0 0.13035049E+03</rscale>
<asrwt>0</asrwt>
<pdfrwt beam="1">  1        1 0.74681310E-01 0.13150232E+03</pdfrwt>
<pdfrwt beam="2">  1       -1 0.53089070E-02 0.13150232E+03</pdfrwt>
<totfact> 0.72174545E+03</totfact>
</mgrwt>
</event>
<event>
 8    1  0.8438969E-004  0.1094466E+03  0.7546771E-02  0.1261898E+00
          1   -1    0    0  501    0  0.00000000000E+00  0.00000000000E+00  0.61525049310E+02  0.61525049310E+02  0.00000000000E+00 0. -1.
         -1   -1    0    0    0  501 -0.00000000000E+00 -0.00000000000E+00 -0.19519661536E+03  0.19519661536E+03  0.00000000000E+00 0.  1.
         23    2    1    2    0    0  0.17602576244E+02  0.58716752369E+02 -0.78800780461E+02  0.13486331505E+03  0.90669967715E+02 0.  0.
         23    2    1    2    0    0 -0.17602576244E+02 -0.58716752369E+02 -0.54870785589E+02  0.12185834962E+03  0.89895197660E+02 0.  0.
          5    1    4    4  502    0 -0.40140904310E+02 -0.61482121698E+02 -0.14041899453E+02  0.74903994737E+02  0.47000000000E+01 0. -1.
         -5    1    4    4    0  502  0.22538328066E+02  0.27653693289E+01 -0.40828886136E+02  0.46954354885E+02  0.47000000000E+01 0.  1.
          5    1    3    3  503    0 -0.30975411121E+02 -0.21662656173E+01 -0.23520315057E+02  0.39236004144E+02  0.47000000000E+01 0. -1.
         -5    1    3    3    0  503  0.48577987365E+02  0.60883017987E+02 -0.55280465404E+02  0.95627310905E+02  0.47000000000E+01 0.  1.
<mgrwt>
<rscale>  0 0.10928597E+03</rscale>
<asrwt>0</asrwt>
<pdfrwt beam="1">  1        1 0.94653923E-02 0.10944657E+03</pdfrwt>
<pdfrwt beam="2">  1       -1 0.30030248E-01 0.10944657E+03</pdfrwt>
<totfact> 0.65748240E+03</totfact>
</mgrwt>
</event>
<event>
 8    1  0.8438969E-004  0.1335623E+03  0.7546771E-02  0.1223682E+00
         -1   -1    0    0    0  501 -0.00000000000E+00  0.00000000000E+00  0.88271177684E+02  0.88271177684E+02  0.00000000000E+00 0.  1.
          1   -1    0    0  501    0  0.00000000000E+00 -0.00000000000E+00 -0.20589132110E+03  0.20589132110E+03  0.00000000000E+00 0. -1.
         23    2    1    2    0    0  0.59043008973E+02  0.55871733114E+02 -0.89831277165E+02  0.15773993596E+03  0.10101733302E+03 0.  0.
         23    2    1    2    0    0 -0.59043008973E+02 -0.55871733114E+02 -0.27788866253E+02  0.13642256282E+03  0.10597720080E+03 0.  0.
          5    1    4    4  502    0 -0.16299921437E+02 -0.73197864622E+02 -0.44282278450E+02  0.87215967625E+02  0.47000000000E+01 0. -1.
         -5    1    3    3    0  503 -0.23573982295E+02  0.19592543063E+02 -0.50356193239E+02  0.59139129030E+02  0.47000000000E+01 0.  1.
          5    1    3    3  503    0  0.82616991268E+02  0.36279190051E+02 -0.39475083926E+02  0.98600806933E+02  0.47000000000E+01 0. -1.
         -5    1    4    4    0  502 -0.42743087536E+02  0.17326131507E+02  0.16493412197E+02  0.49206595198E+02  0.47000000000E+01 0.  1.
<mgrwt>
<rscale>  0 0.13257637E+03</rscale>
<asrwt>0</asrwt>
<pdfrwt beam="1">  1        1 0.31675588E-01 0.13356232E+03</pdfrwt>
<pdfrwt beam="2">  1       -1 0.13580181E-01 0.13356232E+03</pdfrwt>
<totfact> 0.50856355E+03</totfact>
</mgrwt>
</event>
<event>
 8    1  0.8438969E-004  0.1108902E+03  0.7546771E-02  0.1260055E+00
          2   -1    0    0  501    0  0.00000000000E+00  0.00000000000E+00  0.90271356600E+03  0.90271356600E+03  0.00000000000E+00 0. -1.
         -2   -1    0    0    0  501 -0.00000000000E+00 -0.00000000000E+00 -0.15716344488E+02  0.15716344488E+02  0.00000000000E+00 0.  1.
         23    2    1    2    0    0 -0.56949212270E+02 -0.28610666372E+02  0.26024109630E+03  0.28193962746E+03  0.87765268324E+02 0.  0.
         23    2    1    2    0    0  0.56949212270E+02  0.28610666372E+02  0.62675612522E+03  0.63649028303E+03  0.90746112214E+02 0.  0.
          5    1    3    3  502    0 -0.14736603962E+02  0.28918887857E+02  0.49342235873E+02  0.59247074292E+02  0.47000000000E+01 0. -1.
         -5    1    4    4    0  503  0.63578308265E+02 -0.12234679182E+02  0.29047601695E+03  0.29764121872E+03  0.47000000000E+01 0.  1.
          5    1    4    4  503    0 -0.66290959948E+01  0.40845345554E+02  0.33628010827E+03  0.33884906431E+03  0.47000000000E+01 0. -1.
         -5    1    3    3    0  502 -0.42212608308E+02 -0.57529554229E+02  0.21089886042E+03  0.22269255317E+03  0.47000000000E+01 0.  1.
<mgrwt>
<rscale>  0 0.11027872E+03</rscale>
<asrwt>0</asrwt>
<pdfrwt beam="1">  1        2 0.13887897E+00 0.11089022E+03</pdfrwt>
<pdfrwt beam="2">  1       -2 0.24178999E-02 0.11089022E+03</pdfrwt>
<totfact> 0.16605135E+04</totfact>
</mgrwt>
</event>
<event>
 8    1  0.8438969E-004  0.1290760E+03  0.7546771E-02  0.1229045E+00
          1   -1    0    0  501    0  0.00000000000E+00  0.00000000000E+00  0.56240896209E+03  0.56240896209E+03  0.00000000000E+00 0. -1.
         -1   -1    0    0    0  501 -0.00000000000E+00 -0.00000000000E+00 -0.57287831367E+02  0.57287831367E+02  0.00000000000E+00 0.  1.
         23    2    1    2    0    0  0.41545211183E+02  0.79660675611E+02  0.37026740514E+02  0.13428179231E+03  0.92675738042E+02 0.  0.
         23    2    1    2    0    0 -0.41545211183E+02 -0.79660675611E+02  0.46809439020E+03  0.48541500114E+03  0.91888722825E+02 0.  0.
          5    1    3    3  502    0 -0.28248550174E+02  0.10781609064E+02  0.12778481367E+02  0.33160266389E+02  0.47000000000E+01 0. -1.
         -5    1    3    3    0  502  0.69793761357E+02  0.68879066547E+02  0.24248259147E+02  0.10112152592E+03  0.47000000000E+01 0.  1.
          5    1    4    4  503    0  0.26588929226E+02 -0.36335562309E+02  0.12586796390E+03  0.13376127460E+03  0.47000000000E+01 0.  1.
         -5    1    4    4    0  503 -0.68134140408E+02 -0.43325113302E+02  0.34222642630E+03  0.35165372654E+03  0.47000000000E+01 0. -1.
<mgrwt>
<rscale>  0 0.12893482E+03</rscale>
<asrwt>0</asrwt>
<pdfrwt beam="1">  1        1 0.86524452E-01 0.12907603E+03</pdfrwt>
<pdfrwt beam="2">  1       -1 0.88135129E-02 0.12907603E+03</pdfrwt>
<totfact> 0.27827420E+03</totfact>
</mgrwt>
</event>
<event>
 8    1  0.8438969E-004  0.9433525E+02  0.7546771E-02  0.1296273E+00
         -1   -1    0    0    0  501 -0.00000000000E+00  0.00000000000E+00  0.28244120153E+02  0.28244120153E+02  0.00000000000E+00 0.  1.
          1   -1    0    0  501    0  0.00000000000E+00 -0.00000000000E+00 -0.33919385281E+03  0.33919385281E+03  0.00000000000E+00 0. -1.
         23    2    1    2    0    0 -0.95229523957E+01  0.10713990658E+02 -0.84707232878E+02  0.12231594586E+03  0.87065487371E+02 0.  0.
         23    2    1    2    0    0  0.95229523957E+01 -0.10713990658E+02 -0.22624249978E+03  0.24512202711E+03  0.93239815786E+02 0.  0.
          5    1    3    3  502    0 -0.19948465498E+02 -0.16226484816E+02  0.61558613359E+01  0.26855627231E+02  0.47000000000E+01 0. -1.
         -5    1    4    4    0  503  0.26609704353E+02 -0.21997555816E+02 -0.25240011251E+02  0.43024609186E+02  0.47000000000E+01 0.  1.
          5    1    4    4  503    0 -0.17086751958E+02  0.11283565158E+02 -0.20100248853E+03  0.20209741792E+03  0.47000000000E+01 0. -1.
         -5    1    3    3    0  502  0.10425513102E+02  0.26940475474E+02 -0.90863094213E+02  0.95460318626E+02  0.47000000000E+01 0.  1.
<mgrwt>
<rscale>  0 0.92772431E+02</rscale>
<asrwt>0</asrwt>
<pdfrwt beam="1">  1        1 0.52183669E-01 0.94335250E+02</pdfrwt>
<pdfrwt beam="2">  1       -1 0.43452493E-02 0.94335250E+02</pdfrwt>
<totfact> 0.14807177E+04</totfact>
</mgrwt>
</event>
<event>
 8    1  0.8438969E-004  0.1034700E+03  0.7546771E-02  0.1277020E+00
          1   -1    0    0  501    0  0.00000000000E+00  0.00000000000E+00  0.88393451745E+02  0.88393451745E+02  0.00000000000E+00 0. -1.
         -1   -1    0    0    0  501 -0.00000000000E+00 -0.00000000000E+00 -0.25766983285E+03  0.25766983285E+03  0.00000000000E+00 0.  1.
         23    2    1    2    0    0 -0.35664433130E+01 -0.30858951977E+02 -0.21578307099E+03  0.23930809621E+03  0.98696690691E+02 0.  0.
         23    2    1    2    0    0  0.35664433130E+01  0.30858951977E+02  0.46506689877E+02  0.10675518839E+03  0.90932962170E+02 0.  0.
          5    1    4    4  502    0 -0.33162511173E+02 -0.13897550133E+02  0.82153887732E+01  0.37181671018E+02  0.47000000000E+01 0.  1.
         -5    1    3    3    0  503 -0.29747263121E+02 -0.51980301581E+02 -0.18092805240E+03  0.19064076574E+03  0.47000000000E+01 0.  1.
          5    1    3    3  503    0  0.26180819808E+02  0.21121349604E+02 -0.34855018586E+02  0.48667330475E+02  0.47000000000E+01 0. -1.
         -5    1    4    4    0  502  0.36728954486E+02  0.44756502110E+02  0.38291301104E+02  0.69573517368E+02  0.47000000000E+01 0. -1.
<mgrwt>
<rscale>  0 0.10157416E+03</rscale>
<asrwt>0</asrwt>
<pdfrwt beam="1">  1        1 0.13598993E-01 0.10346995E+03</pdfrwt>
<pdfrwt beam="2">  1       -1 0.39641512E-01 0.10346995E+03</pdfrwt>
<totfact> 0.25427540E+03</totfact>
</mgrwt>
</event>
<event>
 8    1  0.8438969E-004  0.1162127E+03  0.7546771E-02  0.1249988E+00
          1   -1    0    0  501    0  0.00000000000E+00  0.00000000000E+00  0.33950662525E+03  0.33950662525E+03  0.00000000000E+00 0. -1.
         -1   -1    0    0    0  501 -0.00000000000E+00 -0.00000000000E+00 -0.92919348401E+02  0.92919348401E+02  0.00000000000E+00 0.  1.
         23    2    1    2    0    0  0.55559963136E+02 -0.43954741538E+02  0.28768259610E+03  0.31026870800E+03  0.92122018339E+02 0.  0.
         23    2    1    2    0    0 -0.55559963136E+02  0.43954741538E+02 -0.41095319246E+02  0.12215726565E+03  0.90634670406E+02 0.  0.
          5    1    3    3  502    0 -0.13097935965E+02 -0.43497408460E+02  0.14169624308E+03  0.14887409369E+03  0.47000000000E+01 0. -1.
         -5    1    4    4    0  503 -0.18684089766E+02  0.32505012123E+02 -0.65942411905E+02  0.76001070462E+02  0.47000000000E+01 0.  1.
          5    1    4    4  503    0 -0.36875873370E+02  0.11449729415E+02  0.24847092660E+02  0.46156195187E+02  0.47000000000E+01 0. -1.
         -5    1    3    3    0  502  0.68657899101E+02 -0.45733307746E+00  0.14598635302E+03  0.16139461432E+03  0.47000000000E+01 0.  1.
<mgrwt>
<rscale>  0 0.11591773E+03</rscale>
<asrwt>0</asrwt>
<pdfrwt beam="1">  1        1 0.52231788E-01 0.11621271E+03</pdfrwt>
<pdfrwt beam="2">  1       -1 0.14295285E-01 0.11621271E+03</pdfrwt>
<totfact> 0.25137650E+03</totfact>
</mgrwt>
</event>
<event>
 8    1  0.8438969E-004  0.9779674E+02  0.7546771E-02  0.1289562E+00
         -1   -1    0    0    0  501 -0.00000000000E+00  0.00000000000E+00  0.30877893605E+03  0.30877893605E+03  0.00000000000E+00 0.  1.
          1   -1    0    0  501    0  0.00000000000E+00 -0.00000000000E+00 -0.31459495978E+02  0.31459495978E+02  0.00000000000E+00 0. -1.
         23    2    1    2    0    0 -0.34190140605E+02  0.53225196682E+01  0.18559650671E+03  0.20615898576E+03  0.82814063875E+02 0.  0.
         23    2    1    2    0    0  0.34190140605E+02 -0.53225196682E+01  0.91722933360E+02  0.13407944627E+03  0.91470795762E+02 0.  0.
          5    1    4    4  502    0  0.27057687756E+02 -0.41143664149E+02  0.82373925818E+02  0.96085759720E+02  0.47000000000E+01 0. -1.
         -5    1    3    3    0  503 -0.23630068556E+02  0.43367952239E+02  0.93535763586E+02  0.10587817760E+03  0.47000000000E+01 0.  1.
          5    1    3    3  503    0 -0.10560072049E+02 -0.38045432570E+02  0.92060743127E+02  0.10028080816E+03  0.47000000000E+01 0. -1.
         -5    1    4    4    0  502  0.71324528495E+01  0.35821144481E+02  0.93490075425E+01  0.37993686549E+02  0.47000000000E+01 0.  1.
<mgrwt>
<rscale>  0 0.95720418E+02</rscale>
<asrwt>0</asrwt>
<pdfrwt beam="1">  1        1 0.48399227E-02 0.97796735E+02</pdfrwt>
<pdfrwt beam="2">  1       -1 0.47504449E-01 0.97796735E+02</pdfrwt>
<totfact> 0.72459611E+03</totfact>
</mgrwt>
</event>
<event>
 8    1  0.8438969E-004  0.1092250E+03  0.7546771E-02  0.1266595E+00
          2   -1    0    0  501    0  0.00000000000E+00  0.00000000000E+00  0.98734032881E+01  0.98734032881E+01  0.00000000000E+00 0. -1.
         -2   -1    0    0    0  501 -0.00000000000E+00 -0.00000000000E+00 -0.13038278445E+04  0.13038278445E+04  0.00000000000E+00 0.  1.
         23    2    1    2    0    0  0.18164066067E+01 -0.43864771095E+02 -0.87733251120E+03  0.88299957930E+03  0.89713456975E+02 0.  0.
         23    2    1    2    0    0 -0.18164066067E+01  0.43864771095E+02 -0.41662193002E+03  0.43070166850E+03  0.10001338507E+03 0.  0.
          5    1    3    3  502    0  0.12511593403E+02 -0.69962278478E+02 -0.61206798653E+03  0.61619848305E+03  0.47000000000E+01 0.  1.
         -5    1    3    3    0  502 -0.10695186797E+02  0.26097507384E+02 -0.26526452467E+03  0.26680109625E+03  0.47000000000E+01 0. -1.
          5    1    4    4  503    0  0.29027967134E+02  0.62214356183E+02 -0.21157471016E+03  0.22248414993E+03  0.47000000000E+01 0. -1.
         -5    1    4    4    0  503 -0.30844373741E+02 -0.18349585089E+02 -0.20504721986E+03  0.20821751856E+03  0.47000000000E+01 0.  1.
<mgrwt>
<rscale>  0 0.10680967E+03</rscale>
<asrwt>0</asrwt>
<pdfrwt beam="1">  1        2 0.15189848E-02 0.10922497E+03</pdfrwt>
<pdfrwt beam="2">  1       -2 0.20058894E+00 0.10922497E+03</pdfrwt>
<totfact> 0.10944391E+03</totfact>
</mgrwt>
</event>
<event>
 8    1  0.8438969E-004  0.9939148E+02  0.7546771E-02  0.1282976E+00
          1   -1    0    0  501    0  0.00000000000E+00  0.00000000000E+00  0.45755439787E+02  0.45755439787E+02  0.00000000000E+00 0. -1.
         -1   -1    0    0    0  501 -0.00000000000E+00 -0.00000000000E+00 -0.23610836238E+03  0.23610836238E+03  0.00000000000E+00 0.  1.
         23    2    1    2    0    0 -0.31743299432E+02  0.84855391630E+01 -0.14064414970E+03  0.17073492091E+03  0.91049409333E+02 0.  0.
         23    2    1    2    0    0  0.31743299432E+02 -0.84855391630E+01 -0.49708772896E+02  0.11112888126E+03  0.93803116756E+02 0.  0.
          5    1    4    4  502    0  0.19786078920E+02  0.36797105141E+02  0.84915846464E+00  0.42051479592E+02  0.47000000000E+01 0. -1.
         -5    1    4    4    0  502  0.11957220512E+02 -0.45282644304E+02 -0.50557931361E+02  0.69077401666E+02  0.47000000000E+01 0.  1.
          5    1    3    3  503    0 -0.13111340089E+02  0.48012455181E+02 -0.54042409360E+02  0.73619121842E+02  0.47000000000E+01 0. -1.
         -5    1    3    3    0  503 -0.18631959343E+02 -0.39526916018E+02 -0.86601740336E+02  0.97115799065E+02  0.47000000000E+01 0.  1.
<mgrwt>
<rscale>  0 0.98736382E+02</rscale>
<asrwt>0</asrwt>
<pdfrwt beam="1">  1        1 0.70392982E-02 0.99391479E+02</pdfrwt>
<pdfrwt beam="2">  1       -1 0.36324364E-01 0.99391479E+02</pdfrwt>
<totfact> 0.70089060E+03</totfact>
</mgrwt>
</event>
<event>
 8    1  0.8438969E-004  0.1026818E+03  0.7546771E-02  0.1276801E+00
          3   -1    0    0  501    0  0.00000000000E+00  0.00000000000E+00  0.29067199888E+03  0.29067199888E+03  0.00000000000E+00 0. -1.
         -3   -1    0    0    0  501 -0.00000000000E+00 -0.00000000000E+00 -0.69710577876E+02  0.69710577876E+02  0.00000000000E+00 0.  1.
         23    2    1    2    0    0 -0.24647527292E+02  0.39070484468E+02 -0.15770335611E+02  0.10388573346E+03  0.91703537411E+02 0.  0.
         23    2    1    2    0    0  0.24647527292E+02 -0.39070484468E+02  0.23673175662E+03  0.25649684329E+03  0.87262263730E+02 0.  0.
          5    1    4    4  502    0 -0.20853896623E+02  0.67624288091E+01  0.12795829683E+03  0.12990777950E+03  0.47000000000E+01 0. -1.
         -5    1    4    4    0  502  0.45501423915E+02 -0.45832913278E+02  0.10877345979E+03  0.12658906379E+03  0.47000000000E+01 0.  1.
          5    1    3    3  503    0 -0.35870310840E+02 -0.20648002541E+02 -0.43697450311E+01  0.41883217168E+02  0.47000000000E+01 0. -1.
         -5    1    3    3    0  503  0.11222783548E+02  0.59718487010E+02 -0.11400590580E+02  0.62002516295E+02  0.47000000000E+01 0.  1.
<mgrwt>
<rscale>  0 0.10168065E+03</rscale>
<asrwt>0</asrwt>
<pdfrwt beam="1">  1        3 0.44718768E-01 0.10268175E+03</pdfrwt>
<pdfrwt beam="2">  1       -3 0.10724704E-01 0.10268175E+03</pdfrwt>
<totfact> 0.72441678E+02</totfact>
</mgrwt>
</event>
<event>
 8    1  0.8438969E-004  0.9753426E+02  0.7546771E-02  0.1287372E+00
          4   -1    0    0  501    0  0.00000000000E+00  0.00000000000E+00  0.76097690351E+02  0.76097690351E+02  0.00000000000E+00 0. -1.
         -4   -1    0    0    0  501 -0.00000000000E+00 -0.00000000000E+00 -0.12120343494E+03  0.12120343494E+03  0.00000000000E+00 0.  1.
         23    2    1    2    0    0 -0.29254075887E+02  0.47284479051E+01 -0.28121563186E+02  0.10150740938E+03  0.92923477481E+02 0.  0.
         23    2    1    2    0    0  0.29254075887E+02 -0.47284479051E+01 -0.16984181406E+02  0.95793715914E+02  0.89497566531E+02 0.  0.
          5    1    4    4  502    0  0.22509006090E+02 -0.43160038293E+02  0.75216821873E+01  0.49478378749E+02  0.47000000000E+01 0. -1.
         -5    1    4    4    0  502  0.67450697967E+01  0.38431590388E+02 -0.24505863593E+02  0.46315337166E+02  0.47000000000E+01 0.  1.
          5    1    3    3  503    0  0.22512444856E+02 -0.57685003934E+01  0.19142118691E+02  0.30472881028E+02  0.47000000000E+01 0. -1.
         -5    1    3    3    0  503 -0.51766520743E+02  0.10496948299E+02 -0.47263681877E+02  0.71034528351E+02  0.47000000000E+01 0.  1.
<mgrwt>
<rscale>  0 0.96709300E+02</rscale>
<asrwt>0</asrwt>
<pdfrwt beam="1">  1        4 0.11707337E-01 0.97534260E+02</pdfrwt>
<pdfrwt beam="2">  1       -4 0.18646682E-01 0.97534260E+02</pdfrwt>
<totfact> 0.22477293E+03</totfact>
</mgrwt>
</event>
<event>
 8    1  0.8438969E-004  0.1463397E+03  0.7546771E-02  0.1205061E+00
         -1   -1    0    0    0  501 -0.00000000000E+00  0.00000000000E+00  0.95874815891E+02  0.95874815891E+02  0.00000000000E+00 0.  1.
          1   -1    0    0  501    0  0.00000000000E+00 -0.00000000000E+00 -0.25618059530E+03  0.25618059530E+03  0.00000000000E+00 0. -1.
         23    2    1    2    0    0  0.96461491681E+02  0.63074310767E+02 -0.14321738256E+03  0.20472137993E+03  0.90091268591E+02 0.  0.
         23    2    1    2    0    0 -0.96461491681E+02 -0.63074310767E+02 -0.17088396851E+02  0.14733403126E+03  0.90178242416E+02 0.  0.
          5    1    3    3  502    0 -0.14858714204E+02  0.17441051319E+02 -0.39018120395E+02  0.45491486875E+02  0.47000000000E+01 0. -1.
         -5    1    3    3    0  502  0.11132020589E+03  0.45633259448E+02 -0.10419926216E+03  0.15922989305E+03  0.47000000000E+01 0.  1.
          5    1    4    4  503    0 -0.81711720944E+02 -0.27413092766E+02 -0.47000176564E+02  0.98282193666E+02  0.47000000000E+01 0. -1.
         -5    1    4    4    0  503 -0.14749770737E+02 -0.35661218001E+02  0.29911779713E+02  0.49051837598E+02  0.47000000000E+01 0.  1.
<mgrwt>
<rscale>  0 0.14632629E+03</rscale>
<asrwt>0</asrwt>
<pdfrwt beam="1">  1        1 0.39412398E-01 0.14633969E+03</pdfrwt>
<pdfrwt beam="2">  1       -1 0.14749972E-01 0.14633969E+03</pdfrwt>
<totfact> 0.34259051E+03</totfact>
</mgrwt>
</event>
<event>
 8    1  0.8438969E-004  0.9393486E+02  0.7546771E-02  0.1296023E+00
         -1   -1    0    0    0  501 -0.00000000000E+00  0.00000000000E+00  0.31105173238E+02  0.31105173238E+02  0.00000000000E+00 0.  1.
          1   -1    0    0  501    0  0.00000000000E+00 -0.00000000000E+00 -0.33951690140E+03  0.33951690140E+03  0.00000000000E+00 0. -1.
         23    2    1    2    0    0  0.65415952549E+01  0.19734886098E+02 -0.24004376284E+03  0.25776882300E+03  0.91605129967E+02 0.  0.
         23    2    1    2    0    0 -0.65415952549E+01 -0.19734886098E+02 -0.68367965321E+02  0.11285325163E+03  0.87346548440E+02 0.  0.
          5    1    4    4  502    0  0.27334206105E+02 -0.41008903766E+02 -0.38108091228E+02  0.62475640281E+02  0.47000000000E+01 0. -1.
         -5    1    4    4    0  502 -0.33875801360E+02  0.21274017668E+02 -0.30259874093E+02  0.50377611353E+02  0.47000000000E+01 0.  1.
          5    1    3    3  503    0 -0.26144056302E+02 -0.25094163169E+02 -0.72019708417E+02  0.80759873115E+02  0.47000000000E+01 0. -1.
         -5    1    3    3    0  503  0.32685651557E+02  0.44829049266E+02 -0.16802405442E+03  0.17700894989E+03  0.47000000000E+01 0.  1.
<mgrwt>
<rscale>  0 0.92880229E+02</rscale>
<asrwt>0</asrwt>
<pdfrwt beam="1">  1        1 0.52233373E-01 0.93934861E+02</pdfrwt>
<pdfrwt beam="2">  1       -1 0.47854109E-02 0.93934861E+02</pdfrwt>
<totfact> 0.12841256E+04</totfact>
</mgrwt>
</event>
<event>
 8    1  0.8438969E-004  0.3123644E+03  0.7546771E-02  0.1079220E+00
         -2   -1    0    0    0  501 -0.00000000000E+00  0.00000000000E+00  0.29625647943E+03  0.29625647943E+03  0.00000000000E+00 0.  1.
          2   -1    0    0  501    0  0.00000000000E+00 -0.00000000000E+00 -0.34530283264E+03  0.34530283264E+03  0.00000000000E+00 0. -1.
         23    2    1    2    0    0  0.16789778352E+03 -0.24676231532E+03  0.44461353578E+02  0.31551281944E+03  0.92142396851E+02 0.  0.
         23    2    1    2    0    0 -0.16789778352E+03  0.24676231532E+03 -0.93507706783E+02  0.32604649263E+03  0.92094072308E+02 0.  0.
          5    1    3    3  502    0  0.90302306293E+02 -0.57091271243E+02  0.73011292178E+01  0.10718822819E+03  0.47000000000E+01 0. -1.
         -5    1    4    4    0  503 -0.90075935386E+02  0.87575207707E+02 -0.16783915439E+00  0.12571877072E+03  0.47000000000E+01 0.  1.
          5    1    4    4  503    0 -0.77821848133E+02  0.15918710761E+03 -0.93339867629E+02  0.20032772191E+03  0.47000000000E+01 0. -1.
         -5    1    3    3    0  502  0.77595477226E+02 -0.18967104407E+03  0.37160224360E+02  0.20832459125E+03  0.47000000000E+01 0.  1.
<mgrwt>
<rscale>  0 0.31236085E+03</rscale>
<asrwt>0</asrwt>
<pdfrwt beam="1">  1        2 0.53123513E-01 0.31236441E+03</pdfrwt>
<pdfrwt beam="2">  1       -2 0.45577920E-01 0.31236441E+03</pdfrwt>
<totfact> 0.43511299E+02</totfact>
</mgrwt>
</event>
<event>
 8    1  0.8438969E-004  0.9441542E+02  0.7546771E-02  0.1293342E+00
         -2   -1    0    0    0  501 -0.00000000000E+00  0.00000000000E+00  0.13583461499E+03  0.13583461499E+03  0.00000000000E+00 0.  1.
          2   -1    0    0  501    0  0.00000000000E+00 -0.00000000000E+00 -0.22702481871E+03  0.22702481871E+03  0.00000000000E+00 0. -1.
         23    2    1    2    0    0  0.28957129040E+01  0.21857469840E+02  0.10775983307E+03  0.14327056041E+03  0.91804889398E+02 0.  0.
         23    2    1    2    0    0 -0.28957129040E+01 -0.21857469840E+02 -0.19895003679E+03  0.21958887328E+03  0.90288548506E+02 0.  0.
          5    1    3    3  502    0  0.33825911712E+02 -0.13088741617E+02  0.15400050676E+02  0.39683233500E+02  0.47000000000E+01 0. -1.
         -5    1    3    3    0  502 -0.30930198808E+02  0.34946211457E+02  0.92359782393E+02  0.10358732691E+03  0.47000000000E+01 0.  1.
          5    1    4    4  503    0 -0.26804269306E+02  0.18995484902E+02 -0.13979907324E+03  0.14368426559E+03  0.47000000000E+01 0. -1.
         -5    1    4    4    0  503  0.23908556402E+02 -0.40852954742E+02 -0.59150963546E+02  0.75904607691E+02  0.47000000000E+01 0.  1.
<mgrwt>
<rscale>  0 0.94044810E+02</rscale>
<asrwt>0</asrwt>
<pdfrwt beam="1">  1        2 0.34926895E-01 0.94415422E+02</pdfrwt>
<pdfrwt beam="2">  1       -2 0.20897633E-01 0.94415422E+02</pdfrwt>
<totfact> 0.27456620E+03</totfact>
</mgrwt>
</event>
<event>
 8    1  0.8438969E-004  0.1782504E+03  0.7546771E-02  0.1170218E+00
         -1   -1    0    0    0  501 -0.00000000000E+00  0.00000000000E+00  0.13499081472E+04  0.13499081472E+04  0.00000000000E+00 0.  1.
          1   -1    0    0  501    0  0.00000000000E+00 -0.00000000000E+00 -0.23428310675E+02  0.23428310675E+02  0.00000000000E+00 0. -1.
         23    2    1    2    0    0  0.33518241986E+02 -0.15172318516E+03  0.73151626647E+03  0.75224478550E+03  0.81318950621E+02 0.  0.
         23    2    1    2    0    0 -0.33518241986E+02  0.15172318516E+03  0.59496357004E+03  0.62109167236E+03  0.87348831410E+02 0.  0.
          5    1    3    3  502    0  0.83522253449E+01 -0.97053947940E+02  0.27554795305E+03  0.29229778122E+03  0.47000000000E+01 0. -1.
         -5    1    4    4    0  503 -0.43160968071E+01  0.14034225420E+03  0.40921109651E+03  0.43265504563E+03  0.47000000000E+01 0.  1.
          5    1    4    4  503    0 -0.29202145179E+02  0.11380930963E+02  0.18575247353E+03  0.18843662674E+03  0.47000000000E+01 0.  1.
         -5    1    3    3    0  502  0.25166016641E+02 -0.54669237219E+02  0.45596831343E+03  0.45994700427E+03  0.47000000000E+01 0.  1.
<mgrwt>
<rscale>  0 0.17752702E+03</rscale>
<asrwt>0</asrwt>
<pdfrwt beam="1">  1        1 0.36043566E-02 0.17825043E+03</pdfrwt>
<pdfrwt beam="2">  1       -1 0.20767811E+00 0.17825043E+03</pdfrwt>
<totfact> 0.39053830E+02</totfact>
</mgrwt>
</event>
<event>
 8    1  0.1167142E-003  0.1028833E+03  0.7546771E-02  0.1283156E+00
          1   -1    0    0  501    0  0.00000000000E+00  0.00000000000E+00  0.33871411405E+03  0.33871411405E+03  0.00000000000E+00 0. -1.
         -1   -1    0    0    0  501 -0.00000000000E+00 -0.00000000000E+00 -0.29307673481E+02  0.29307673481E+02  0.00000000000E+00 0.  1.
         23    2    1    2    0    0  0.20701526660E+01 -0.41829291572E+02  0.19863557877E+03  0.21684259827E+03  0.76227581003E+02 0.  0.
         23    2    1    2    0    0 -0.20701526660E+01  0.41829291572E+02  0.11077086179E+03  0.15117918926E+03  0.93973338113E+02 0.  0.
          5    1    4    4  502    0  0.27072893320E+02  0.43904039880E+02  0.10999205906E+03  0.12157651634E+03  0.47000000000E+01 0. -1.
         -5    1    4    4    0  502 -0.29143045985E+02 -0.20747483076E+01  0.77880273566E+00  0.29602672912E+02  0.47000000000E+01 0.  1.
          5    1    3    3  503    0  0.25798325660E+02 -0.12818644645E+02  0.16062640262E+03  0.16325686042E+03  0.47000000000E+01 0. -1.
         -5    1    3    3    0  503 -0.23728172994E+02 -0.29010646927E+02  0.38009176153E+02  0.53585737847E+02  0.47000000000E+01 0.  1.
<mgrwt>
<rscale>  0 0.98652227E+02</rscale>
<asrwt>0</asrwt>
<pdfrwt beam="1">  1        1 0.52109861E-01 0.10288325E+03</pdfrwt>
<pdfrwt beam="2">  1       -1 0.45088731E-02 0.10288325E+03</pdfrwt>
<totfact> 0.14167834E+04</totfact>
</mgrwt>
</event>
<event>
 8    1  0.8438969E-004  0.1039094E+03  0.7546771E-02  0.1273093E+00
          2   -1    0    0  501    0  0.00000000000E+00  0.00000000000E+00  0.56573489257E+03  0.56573489257E+03  0.00000000000E+00 0. -1.
         -2   -1    0    0    0  501 -0.00000000000E+00 -0.00000000000E+00 -0.67343363971E+02  0.67343363971E+02  0.00000000000E+00 0.  1.
         23    2    1    2    0    0  0.22722017404E+01  0.43122797817E+02 -0.20115725314E+02  0.10426172350E+03  0.92742255682E+02 0.  0.
         23    2    1    2    0    0 -0.22722017404E+01 -0.43122797817E+02  0.51850725391E+03  0.52881653304E+03  0.94511452577E+02 0.  0.
          5    1    3    3  502    0 -0.32922901943E+01  0.23388554203E+02  0.36576544468E+02  0.43792662030E+02  0.47000000000E+01 0. -1.
         -5    1    4    4    0  503 -0.30975947738E+02  0.15675491794E+02  0.12243061745E+03  0.12734432249E+03  0.47000000000E+01 0.  1.
          5    1    4    4  503    0  0.28703745997E+02 -0.58798289611E+02  0.39607663646E+03  0.40147221056E+03  0.47000000000E+01 0. -1.
         -5    1    3    3    0  502  0.55644919347E+01  0.19734243615E+02 -0.56692269782E+02  0.60469061466E+02  0.47000000000E+01 0.  1.
<mgrwt>
<rscale>  0 0.10350537E+03</rscale>
<asrwt>0</asrwt>
<pdfrwt beam="1">  1        2 0.87036134E-01 0.10390935E+03</pdfrwt>
<pdfrwt beam="2">  1       -2 0.10360518E-01 0.10390935E+03</pdfrwt>
<totfact> 0.32620201E+03</totfact>
</mgrwt>
</event>
<event>
 8    1  0.8438969E-004  0.9242376E+02  0.7546771E-02  0.1298166E+00
         -1   -1    0    0    0  501 -0.00000000000E+00  0.00000000000E+00  0.27390803164E+03  0.27390803164E+03  0.00000000000E+00 0.  1.
          1   -1    0    0  501    0  0.00000000000E+00 -0.00000000000E+00 -0.32533927882E+02  0.32533927882E+02  0.00000000000E+00 0. -1.
         23    2    1    2    0    0  0.37869089368E+01 -0.13599730688E+02  0.84197535671E+02  0.12502550427E+03  0.91339248684E+02 0.  0.
         23    2    1    2    0    0 -0.37869089368E+01  0.13599730688E+02  0.15717656808E+03  0.18141645525E+03  0.89488341852E+02 0.  0.
          5    1    4    4  502    0  0.35384683925E+02  0.16818083690E+02  0.34169967762E+02  0.52197705815E+02  0.47000000000E+01 0. -1.
         -5    1    4    4    0  502 -0.39171592862E+02 -0.32183530021E+01  0.12300660032E+03  0.12921874944E+03  0.47000000000E+01 0.  1.
          5    1    3    3  503    0  0.12098396697E+02 -0.38867037945E+02  0.88638243518E+02  0.97651656694E+02  0.47000000000E+01 0. -1.
         -5    1    3    3    0  503 -0.83114877602E+01  0.25267307256E+02 -0.44407078466E+01  0.27373847573E+02  0.47000000000E+01 0.  1.
<mgrwt>
<rscale>  0 0.91963143E+02</rscale>
<asrwt>0</asrwt>
<pdfrwt beam="1">  1        1 0.50052198E-02 0.92423762E+02</pdfrwt>
<pdfrwt beam="2">  1       -1 0.42139696E-01 0.92423762E+02</pdfrwt>
<totfact> 0.85174995E+03</totfact>
</mgrwt>
</event>
<event>
 8    1  0.8438969E-004  0.1207670E+03  0.7546771E-02  0.1241839E+00
         -1   -1    0    0    0  501 -0.00000000000E+00  0.00000000000E+00  0.22454069255E+03  0.22454069255E+03  0.00000000000E+00 0.  1.
          1   -1    0    0  501    0  0.00000000000E+00 -0.00000000000E+00 -0.68553143455E+02  0.68553143455E+02  0.00000000000E+00 0. -1.
         23    2    1    2    0    0 -0.29680149069E+02  0.73689009145E+02  0.11158723804E+03  0.16442346992E+03  0.90952649494E+02 0.  0.
         23    2    1    2    0    0  0.29680149069E+02 -0.73689009145E+02  0.44400311052E+02  0.12867036608E+03  0.90959849212E+02 0.  0.
          5    1    3    3  502    0  0.98728004744E+01  0.48357386073E+02  0.75125404113E+01  0.50144164570E+02  0.47000000000E+01 0. -1.
         -5    1    3    3    0  502 -0.39552949543E+02  0.25331623072E+02  0.10407469763E+03  0.11427930535E+03  0.47000000000E+01 0.  1.
          5    1    4    4  503    0  0.48645614088E+02 -0.53792324418E+02  0.62138357800E+02  0.95620476083E+02  0.47000000000E+01 0. -1.
         -5    1    4    4    0  503 -0.18965465020E+02 -0.19896684727E+02 -0.17738046747E+02  0.33049889999E+02  0.47000000000E+01 0.  1.
<mgrwt>
<rscale>  0 0.12076567E+03</rscale>
<asrwt>0</asrwt>
<pdfrwt beam="1">  1        1 0.10546638E-01 0.12076703E+03</pdfrwt>
<pdfrwt beam="2">  1       -1 0.34544722E-01 0.12076703E+03</pdfrwt>
<totfact> 0.45316353E+03</totfact>
</mgrwt>
</event>
<event>
 8    1  0.8438969E-004  0.9567922E+02  0.7546771E-02  0.1290994E+00
         -3   -1    0    0    0  501 -0.00000000000E+00  0.00000000000E+00  0.34909573975E+03  0.34909573975E+03  0.00000000000E+00 0.  1.
          3   -1    0    0  501    0  0.00000000000E+00 -0.00000000000E+00 -0.32024539666E+02  0.32024539666E+02  0.00000000000E+00 0. -1.
         23    2    1    2    0    0  0.91254786019E+00  0.15177438865E+02  0.24562029485E+03  0.26359788044E+03  0.94463357628E+02 0.  0.
         23    2    1    2    0    0 -0.91254786019E+00 -0.15177438865E+02  0.71450905227E+02  0.11752239897E+03  0.92060279211E+02 0.  0.
          5    1    3    3  502    0  0.10796676418E+02  0.51086009629E+02  0.18509542095E+03  0.19237659281E+03  0.47000000000E+01 0. -1.
         -5    1    3    3    0  502 -0.98841285580E+01 -0.35908570764E+02  0.60524873900E+02  0.71221287634E+02  0.47000000000E+01 0.  1.
          5    1    4    4  503    0 -0.22016657098E+02 -0.13931039677E+02  0.86949695085E+02  0.90890849548E+02  0.47000000000E+01 0.  1.
         -5    1    4    4    0  503  0.21104109238E+02 -0.12463991878E+01 -0.15498789858E+02  0.26631549424E+02  0.47000000000E+01 0. -1.
<mgrwt>
<rscale>  0 0.95080688E+02</rscale>
<asrwt>0</asrwt>
<pdfrwt beam="1">  1        3 0.49268525E-02 0.95679221E+02</pdfrwt>
<pdfrwt beam="2">  1       -3 0.53707034E-01 0.95679221E+02</pdfrwt>
<totfact> 0.17366516E+03</totfact>
</mgrwt>
</event>
<event>
 8    1  0.8438969E-004  0.9265790E+02  0.7546771E-02  0.1297010E+00
          2   -1    0    0  501    0  0.00000000000E+00  0.00000000000E+00  0.46529670744E+03  0.46529670744E+03  0.00000000000E+00 0. -1.
         -2   -1    0    0    0  501 -0.00000000000E+00 -0.00000000000E+00 -0.20706152869E+02  0.20706152869E+02  0.00000000000E+00 0.  1.
         23    2    1    2    0    0 -0.98718245597E+01  0.62340460549E+01  0.30612167120E+03  0.31983740141E+03  0.91919364172E+02 0.  0.
         23    2    1    2    0    0  0.98718245597E+01 -0.62340460549E+01  0.13846888337E+03  0.16616545890E+03  0.91109888706E+02 0.  0.
          5    1    4    4  502    0  0.37582760214E+02 -0.72069336407E+01  0.13171561235E+03  0.13724247263E+03  0.47000000000E+01 0. -1.
         -5    1    3    3    0  503 -0.38975634363E+02  0.35289737106E+01  0.59040116576E+02  0.70988584257E+02  0.47000000000E+01 0.  1.
          5    1    3    3  503    0  0.29103809803E+02  0.27050723443E+01  0.24708155463E+03  0.24884881715E+03  0.47000000000E+01 0. -1.
         -5    1    4    4    0  502 -0.27710935654E+02  0.97288758583E+00  0.67532710161E+01  0.28922986265E+02  0.47000000000E+01 0.  1.
<mgrwt>
<rscale>  0 0.92456499E+02</rscale>
<asrwt>0</asrwt>
<pdfrwt beam="1">  1        2 0.71584101E-01 0.92657896E+02</pdfrwt>
<pdfrwt beam="2">  1       -2 0.31855623E-02 0.92657896E+02</pdfrwt>
<totfact> 0.23574340E+04</totfact>
</mgrwt>
</event>
<event>
 8    1  0.8438969E-004  0.1030861E+03  0.7546771E-02  0.1276745E+00
          1   -1    0    0  501    0  0.00000000000E+00  0.00000000000E+00  0.33048433877E+03  0.33048433877E+03  0.00000000000E+00 0. -1.
         -1   -1    0    0    0  501 -0.00000000000E+00 -0.00000000000E+00 -0.32440904871E+02  0.32440904871E+02  0.00000000000E+00 0.  1.
         23    2    1    2    0    0  0.34451316552E+02  0.16932366469E+02  0.10832536425E+03  0.14953641255E+03  0.95672127034E+02 0.  0.
         23    2    1    2    0    0 -0.34451316552E+02 -0.16932366469E+02  0.18971806965E+03  0.21338883109E+03  0.89823432568E+02 0.  0.
          5    1    4    4  502    0 -0.62905695659E+02 -0.14782384231E+02  0.10026224560E+03  0.11937442491E+03  0.47000000000E+01 0. -1.
         -5    1    4    4    0  502  0.28454379106E+02 -0.21499822384E+01  0.89455824050E+02  0.94014406185E+02  0.47000000000E+01 0.  1.
          5    1    3    3  503    0 -0.20609695093E+02  0.75522175177E+01  0.86533477807E+02  0.89397585553E+02  0.47000000000E+01 0. -1.
         -5    1    3    3    0  503  0.55061011645E+02  0.93801489513E+01  0.21791886447E+02  0.60138826997E+02  0.47000000000E+01 0.  1.
<mgrwt>
<rscale>  0 0.10170781E+03</rscale>
<asrwt>0</asrwt>
<pdfrwt beam="1">  1        1 0.50843742E-01 0.10308615E+03</pdfrwt>
<pdfrwt beam="2">  1       -1 0.49909087E-02 0.10308615E+03</pdfrwt>
<totfact> 0.12585993E+04</totfact>
</mgrwt>
</event>
<event>
 8    1  0.8438969E-004  0.1171284E+03  0.7546771E-02  0.1249127E+00
          1   -1    0    0  501    0  0.00000000000E+00  0.00000000000E+00  0.11268135823E+03  0.11268135823E+03  0.00000000000E+00 0. -1.
         -1   -1    0    0    0  501 -0.00000000000E+00 -0.00000000000E+00 -0.21202558392E+03  0.21202558392E+03  0.00000000000E+00 0.  1.
         23    2    1    2    0    0  0.54316294992E+02  0.42095585461E+02  0.58295786963E+02  0.12831588660E+03  0.91346974553E+02 0.  0.
         23    2    1    2    0    0 -0.54316294992E+02 -0.42095585461E+02 -0.15764001265E+03  0.19639105555E+03  0.94851330478E+02 0.  0.
          5    1    3    3  502    0  0.27788337686E+02 -0.95876242170E+01  0.63165750728E+02  0.69829193855E+02  0.47000000000E+01 0. -1.
         -5    1    3    3    0  502  0.26527957306E+02  0.51683209678E+02 -0.48699637643E+01  0.58486692747E+02  0.47000000000E+01 0.  1.
          5    1    4    4  503    0  0.17641774333E+02 -0.10844093973E+02 -0.90707508681E+02  0.93159909332E+02  0.47000000000E+01 0. -1.
         -5    1    4    4    0  503 -0.71958069325E+02 -0.31251491488E+02 -0.66932503970E+02  0.10323114622E+03  0.47000000000E+01 0.  1.
<mgrwt>
<rscale>  0 0.11641715E+03</rscale>
<asrwt>0</asrwt>
<pdfrwt beam="1">  1        1 0.17335594E-01 0.11712845E+03</pdfrwt>
<pdfrwt beam="2">  1       -1 0.32619320E-01 0.11712845E+03</pdfrwt>
<totfact> 0.26169601E+03</totfact>
</mgrwt>
</event>
<event>
 8    1  0.8438969E-004  0.9982612E+02  0.7546771E-02  0.1283192E+00
         -1   -1    0    0    0  501 -0.00000000000E+00  0.00000000000E+00  0.47538750690E+02  0.47538750690E+02  0.00000000000E+00 0.  1.
          1   -1    0    0  501    0  0.00000000000E+00 -0.00000000000E+00 -0.39992415064E+03  0.39992415064E+03  0.00000000000E+00 0. -1.
         23    2    1    2    0    0  0.24435472934E+02  0.79748319362E+01 -0.15880702970E+02  0.96463376927E+02  0.91609475926E+02 0.  0.
         23    2    1    2    0    0 -0.24435472934E+02 -0.79748319362E+01 -0.33650469698E+03  0.35099952441E+03  0.96460171883E+02 0.  0.
          5    1    3    3  502    0 -0.28096422547E+02 -0.15547533773E+02 -0.20732502727E+02  0.38510536684E+02  0.47000000000E+01 0. -1.
         -5    1    4    4    0  503  0.89123590154E+00  0.27159403219E+02 -0.27524036726E+02  0.38962675503E+02  0.47000000000E+01 0.  1.
          5    1    4    4  503    0 -0.25326708835E+02 -0.35134235155E+02 -0.30898066026E+03  0.31203684890E+03  0.47000000000E+01 0. -1.
         -5    1    3    3    0  502  0.52531895481E+02  0.23522365709E+02  0.48517997567E+01  0.57952840243E+02  0.47000000000E+01 0.  1.
<mgrwt>
<rscale>  0 0.98635248E+02</rscale>
<asrwt>0</asrwt>
<pdfrwt beam="1">  1        1 0.61526794E-01 0.99826124E+02</pdfrwt>
<pdfrwt beam="2">  1       -1 0.73136538E-02 0.99826124E+02</pdfrwt>
<totfact> 0.56344399E+03</totfact>
</mgrwt>
</event>
<event>
 8    1  0.8438969E-004  0.9349338E+02  0.7546771E-02  0.1295804E+00
         -1   -1    0    0    0  501 -0.00000000000E+00  0.00000000000E+00  0.18340542033E+03  0.18340542033E+03  0.00000000000E+00 0.  1.
          1   -1    0    0  501    0  0.00000000000E+00 -0.00000000000E+00 -0.68167831456E+02  0.68167831456E+02  0.00000000000E+00 0. -1.
         23    2    1    2    0    0  0.11488426638E+02  0.11908507785E+02  0.12878039331E+03  0.15913956677E+03  0.92017473917E+02 0.  0.
         23    2    1    2    0    0 -0.11488426638E+02 -0.11908507785E+02 -0.13542804436E+02  0.92433685018E+02  0.89926537072E+02 0.  0.
          5    1    4    4  502    0 -0.46641923865E+02  0.12320708068E+02 -0.79744369918E+01  0.49121793070E+02  0.47000000000E+01 0. -1.
         -5    1    3    3    0  503 -0.25156396441E+02 -0.25181514791E+02  0.79550557345E+02  0.87277340375E+02  0.47000000000E+01 0.  1.
          5    1    3    3  503    0  0.36644823078E+02  0.37090022576E+02  0.49229835965E+02  0.71862226394E+02  0.47000000000E+01 0. -1.
         -5    1    4    4    0  502  0.35153497227E+02 -0.24229215853E+02 -0.55683674441E+01  0.43311891948E+02  0.47000000000E+01 0.  1.
<mgrwt>
<rscale>  0 0.92974786E+02</rscale>
<asrwt>0</asrwt>
<pdfrwt beam="1">  1        1 0.10487359E-01 0.93493379E+02</pdfrwt>
<pdfrwt beam="2">  1       -1 0.28216218E-01 0.93493379E+02</pdfrwt>
<totfact> 0.62915903E+03</totfact>
</mgrwt>
</event>
<event>
 8    1  0.8438969E-004  0.1236598E+03  0.7546771E-02  0.1237450E+00
          4   -1    0    0  501    0  0.00000000000E+00  0.00000000000E+00  0.16632182132E+03  0.16632182132E+03  0.00000000000E+00 0. -1.
         -4   -1    0    0    0  501 -0.00000000000E+00 -0.00000000000E+00 -0.24438409560E+03  0.24438409560E+03  0.00000000000E+00 0.  1.
         23    2    1    2    0    0  0.38537679650E+02 -0.73360216339E+02 -0.20152824367E+03  0.23644317593E+03  0.91787081609E+02 0.  0.
         23    2    1    2    0    0 -0.38537679650E+02  0.73360216339E+02  0.12346596940E+03  0.17426274099E+03  0.90866843266E+02 0.  0.
          5    1    4    4  502    0 -0.23700367148E+02 -0.50118706671E+01  0.79120526201E+02  0.82879273143E+02  0.47000000000E+01 0. -1.
         -5    1    3    3    0  503  0.58772625768E+02 -0.44478739780E+02 -0.18071818700E+03  0.19522738780E+03  0.47000000000E+01 0.  1.
          5    1    3    3  503    0 -0.20234946118E+02 -0.28881476559E+02 -0.20810056670E+02  0.41215788130E+02  0.47000000000E+01 0. -1.
         -5    1    4    4    0  502 -0.14837312502E+02  0.78372087006E+02  0.44345443198E+02  0.91383467850E+02  0.47000000000E+01 0.  1.
<mgrwt>
<rscale>  0 0.12348906E+03</rscale>
<asrwt>0</asrwt>
<pdfrwt beam="1">  1        4 0.25587972E-01 0.12365979E+03</pdfrwt>
<pdfrwt beam="2">  1       -4 0.37597553E-01 0.12365979E+03</pdfrwt>
<totfact> 0.16217023E+02</totfact>
</mgrwt>
</event>
<event>
 8    1  0.8438969E-004  0.1876544E+03  0.7546771E-02  0.1161456E+00
          1   -1    0    0  501    0  0.00000000000E+00  0.00000000000E+00  0.20625125468E+03  0.20625125468E+03  0.00000000000E+00 0. -1.
         -1   -1    0    0    0  501 -0.00000000000E+00 -0.00000000000E+00 -0.31147630868E+03  0.31147630868E+03  0.00000000000E+00 0.  1.
         23    2    1    2    0    0  0.13850293402E+03 -0.80871217279E+02  0.12374559668E+03  0.22168409200E+03  0.90042475716E+02 0.  0.
         23    2    1    2    0    0 -0.13850293402E+03  0.80871217279E+02 -0.22897065067E+03  0.29604347136E+03  0.97421566151E+02 0.  0.
          5    1    4    4  502    0 -0.28271137714E+02  0.71342484320E+02 -0.91312249549E+02  0.11936927668E+03  0.47000000000E+01 0. -1.
         -5    1    4    4    0  502 -0.11023179630E+03  0.95287329590E+01 -0.13765840112E+03  0.17667419468E+03  0.47000000000E+01 0.  1.
          5    1    3    3  503    0  0.82446600126E+02 -0.42438584694E+02  0.12228658339E+03  0.15354013749E+03  0.47000000000E+01 0. -1.
         -5    1    3    3    0  503  0.56056333890E+02 -0.38432632584E+02  0.14590132890E+01  0.68143954511E+02  0.47000000000E+01 0.  1.
<mgrwt>
<rscale>  0 0.18671672E+03</rscale>
<asrwt>0</asrwt>
<pdfrwt beam="1">  1        1 0.31730962E-01 0.18765441E+03</pdfrwt>
<pdfrwt beam="2">  1       -1 0.47919432E-01 0.18765441E+03</pdfrwt>
<totfact> 0.62849901E+02</totfact>
</mgrwt>
</event>
<event>
 8    1  0.8438969E-004  0.1067647E+03  0.7546771E-02  0.1267364E+00
          3   -1    0    0  501    0  0.00000000000E+00  0.00000000000E+00  0.60815178325E+03  0.60815178325E+03  0.00000000000E+00 0. -1.
         -3   -1    0    0    0  501 -0.00000000000E+00 -0.00000000000E+00 -0.12163180070E+03  0.12163180070E+03  0.00000000000E+00 0.  1.
         23    2    1    2    0    0  0.18319001266E+02  0.53090402476E+02 -0.92496446041E+02  0.14125965047E+03  0.90799337427E+02 0.  0.
         23    2    1    2    0    0 -0.18319001266E+02 -0.53090402476E+02  0.57901642859E+03  0.58852393348E+03  0.89141567505E+02 0.  0.
          5    1    4    4  502    0  0.27807289829E+02 -0.51793639854E+02  0.32555487642E+03  0.33085328177E+03  0.47000000000E+01 0. -1.
         -5    1    3    3    0  503 -0.32384742719E+02  0.43412673936E+02 -0.54609051435E+02  0.77056280198E+02  0.47000000000E+01 0.  1.
          5    1    3    3  503    0  0.50703743985E+02  0.96777285398E+01 -0.37887394606E+02  0.64203370268E+02  0.47000000000E+01 0. -1.
         -5    1    4    4    0  502 -0.46126291095E+02 -0.12967626215E+01  0.25346155217E+03  0.25767065171E+03  0.47000000000E+01 0.  1.
<mgrwt>
<rscale>  0 0.10641136E+03</rscale>
<asrwt>0</asrwt>
<pdfrwt beam="1">  1        3 0.93561811E-01 0.10676468E+03</pdfrwt>
<pdfrwt beam="2">  1       -3 0.18712585E-01 0.10676468E+03</pdfrwt>
<totfact> 0.61309806E+01</totfact>
</mgrwt>
</event>
<event>
 8    1  0.8438969E-004  0.1025543E+03  0.7546771E-02  0.1275028E+00
         -1   -1    0    0    0  501 -0.00000000000E+00  0.00000000000E+00  0.29013049615E+03  0.29013049615E+03  0.00000000000E+00 0.  1.
          1   -1    0    0  501    0  0.00000000000E+00 -0.00000000000E+00 -0.59676696568E+02  0.59676696568E+02  0.00000000000E+00 0. -1.
         23    2    1    2    0    0  0.46797750035E+02  0.76197643876E+00  0.56303455404E+01  0.10270878282E+03  0.91251209641E+02 0.  0.
         23    2    1    2    0    0 -0.46797750035E+02 -0.76197643876E+00  0.22482345404E+03  0.24709840990E+03  0.91221865091E+02 0.  0.
          5    1    4    4  502    0  0.21484859951E+02  0.18763779722E+01  0.11908624300E+03  0.12111458737E+03  0.47000000000E+01 0. -1.
         -5    1    3    3    0  503 -0.23182503007E+02 -0.45799232595E+01 -0.16228955371E+02  0.29049494577E+02  0.47000000000E+01 0.  1.
          5    1    3    3  503    0  0.69980253042E+02  0.53418996983E+01  0.21859300912E+02  0.73659288243E+02  0.47000000000E+01 0. -1.
         -5    1    4    4    0  502 -0.68282609987E+02 -0.26383544109E+01  0.10573721104E+03  0.12598382253E+03  0.47000000000E+01 0.  1.
<mgrwt>
<rscale>  0 0.10254782E+03</rscale>
<asrwt>0</asrwt>
<pdfrwt beam="1">  1        1 0.91810304E-02 0.10255434E+03</pdfrwt>
<pdfrwt beam="2">  1       -1 0.44635460E-01 0.10255434E+03</pdfrwt>
<totfact> 0.34476847E+03</totfact>
</mgrwt>
</event>
<event>
 8    1  0.8438969E-004  0.1002977E+03  0.7546771E-02  0.1279956E+00
         -1   -1    0    0    0  501 -0.00000000000E+00  0.00000000000E+00  0.46556103003E+02  0.46556103003E+02  0.00000000000E+00 0.  1.
          1   -1    0    0  501    0  0.00000000000E+00 -0.00000000000E+00 -0.28129303713E+03  0.28129303713E+03  0.00000000000E+00 0. -1.
         23    2    1    2    0    0 -0.35709182528E+02 -0.80892407020E+00 -0.37977160739E+02  0.10724687773E+03  0.93722078347E+02 0.  0.
         23    2    1    2    0    0  0.35709182528E+02  0.80892407020E+00 -0.19675977339E+03  0.22060226240E+03  0.93140483569E+02 0.  0.
          5    1    4    4  502    0  0.12750061158E+02  0.24930416455E+02 -0.88994839596E+01  0.29755344711E+02  0.47000000000E+01 0. -1.
         -5    1    4    4    0  502  0.22959121370E+02 -0.24121492385E+02 -0.18786028943E+03  0.19084691769E+03  0.47000000000E+01 0.  1.
          5    1    3    3  503    0 -0.35714613165E+02  0.25634123263E+02 -0.58583865800E+02  0.73394830888E+02  0.47000000000E+01 0. -1.
         -5    1    3    3    0  503  0.54306364946E-02 -0.26443047333E+02  0.20606705061E+02  0.33852046840E+02  0.47000000000E+01 0.  1.
<mgrwt>
<rscale>  0 0.10016161E+03</rscale>
<asrwt>0</asrwt>
<pdfrwt beam="1">  1        1 0.43275851E-01 0.10029770E+03</pdfrwt>
<pdfrwt beam="2">  1       -1 0.71624776E-02 0.10029770E+03</pdfrwt>
<totfact> 0.89711328E+03</totfact>
</mgrwt>
</event>
<event>
 8    1  0.8438969E-004  0.1102788E+03  0.7546771E-02  0.1262932E+00
          2   -1    0    0  501    0  0.00000000000E+00  0.00000000000E+00  0.17196437399E+03  0.17196437399E+03  0.00000000000E+00 0. -1.
         -2   -1    0    0    0  501 -0.00000000000E+00 -0.00000000000E+00 -0.74898404382E+02  0.74898404382E+02  0.00000000000E+00 0.  1.
         23    2    1    2    0    0 -0.77177675246E+01  0.46046275653E+02  0.87645556408E+02  0.13618239361E+03  0.93188396999E+02 0.  0.
         23    2    1    2    0    0  0.77177675246E+01 -0.46046275653E+02  0.94204131968E+01  0.11068038475E+03  0.99907857285E+02 0.  0.
          5    1    4    4  502    0 -0.28622740470E+02  0.19032145150E+02  0.95939383522E+01  0.35994686748E+02  0.47000000000E+01 0. -1.
         -5    1    3    3    0  503  0.37243517143E+02 -0.27695816467E+01  0.29529351291E+02  0.47841642315E+02  0.47000000000E+01 0.  1.
          5    1    3    3  503    0 -0.44961284668E+02  0.48815857300E+02  0.58116205117E+02  0.88340751299E+02  0.47000000000E+01 0. -1.
         -5    1    4    4    0  502  0.36340507994E+02 -0.65078420804E+02 -0.17352515540E+00  0.74685698005E+02  0.47000000000E+01 0.  1.
<mgrwt>
<rscale>  0 0.10873444E+03</rscale>
<asrwt>0</asrwt>
<pdfrwt beam="1">  1        2 0.26456057E-01 0.11027875E+03</pdfrwt>
<pdfrwt beam="2">  1       -2 0.11522832E-01 0.11027875E+03</pdfrwt>
<totfact> 0.98714387E+03</totfact>
</mgrwt>
</event>
<event>
 8    1  0.8438969E-004  0.9741976E+02  0.7546771E-02  0.1285974E+00
         -1   -1    0    0    0  501 -0.00000000000E+00  0.00000000000E+00  0.36110980732E+03  0.36110980732E+03  0.00000000000E+00 0.  1.
          1   -1    0    0  501    0  0.00000000000E+00 -0.00000000000E+00 -0.13346042694E+03  0.13346042694E+03  0.00000000000E+00 0. -1.
         23    2    1    2    0    0 -0.94057645755E+00  0.33350880368E+02  0.33554057829E+03  0.34939675150E+03  0.91528380150E+02 0.  0.
         23    2    1    2    0    0  0.94057645755E+00 -0.33350880368E+02 -0.10789119792E+03  0.14517348276E+03  0.91223152773E+02 0.  0.
          5    1    4    4  502    0  0.43916453951E+02 -0.98991031719E+01 -0.34888195850E+02  0.57148257900E+02  0.47000000000E+01 0. -1.
         -5    1    4    4    0  502 -0.42975877494E+02 -0.23451777196E+02 -0.73003002070E+02  0.88025224858E+02  0.47000000000E+01 0.  1.
          5    1    3    3  503    0 -0.31808239464E+02  0.21519095746E+02  0.29187359665E+03  0.29442676849E+03  0.47000000000E+01 0.  1.
         -5    1    3    3    0  503  0.30867663007E+02  0.11831784622E+02  0.43666981640E+02  0.54969983012E+02  0.47000000000E+01 0. -1.
<mgrwt>
<rscale>  0 0.97348006E+02</rscale>
<asrwt>0</asrwt>
<pdfrwt beam="1">  1        1 0.20532374E-01 0.97419763E+02</pdfrwt>
<pdfrwt beam="2">  1       -1 0.55555355E-01 0.97419763E+02</pdfrwt>
<totfact> 0.82014400E+02</totfact>
</mgrwt>
</event>
<event>
 8    1  0.8438969E-004  0.1119068E+03  0.7546771E-02  0.1262892E+00
         -1   -1    0    0    0  501 -0.00000000000E+00  0.00000000000E+00  0.56529379783E+03  0.56529379783E+03  0.00000000000E+00 0.  1.
          1   -1    0    0  501    0  0.00000000000E+00 -0.00000000000E+00 -0.26267208476E+02  0.26267208476E+02  0.00000000000E+00 0. -1.
         23    2    1    2    0    0 -0.63590409629E+02 -0.32570032157E+02  0.11161330684E+03  0.14974062085E+03  0.69714963092E+02 0.  0.
         23    2    1    2    0    0  0.63590409629E+02  0.32570032157E+02  0.42741328252E+03  0.44182038546E+03  0.86131247166E+02 0.  0.
          5    1    3    3  502    0 -0.51152678294E+02 -0.54034794991E+02  0.82087303926E+02  0.11089080680E+03  0.47000000000E+01 0. -1.
         -5    1    3    3    0  502 -0.12437731334E+02  0.21464762834E+02  0.29526002912E+02  0.38849814056E+02  0.47000000000E+01 0.  1.
          5    1    4    4  503    0  0.56088460934E+02 -0.13369417418E+02  0.15552024551E+03  0.16593159294E+03  0.47000000000E+01 0. -1.
         -5    1    4    4    0  503  0.75019486948E+01  0.45939449575E+02  0.27189303701E+03  0.27588879252E+03  0.47000000000E+01 0.  1.
<mgrwt>
<rscale>  0 0.10875534E+03</rscale>
<asrwt>0</asrwt>
<pdfrwt beam="1">  1        1 0.40411094E-02 0.11190683E+03</pdfrwt>
<pdfrwt beam="2">  1       -1 0.86968267E-01 0.11190683E+03</pdfrwt>
<totfact> 0.29213222E+03</totfact>
</mgrwt>
</event>
<event>
 7    1  0.8438969E-004  0.1403975E+03  0.7546771E-02  0.1227375E+00
         -2   -1    0    0    0  501 -0.00000000000E+00  0.00000000000E+00  0.64832303844E+02  0.64832303844E+02  0.00000000000E+00 0.  1.
          2   -1    0    0  501    0  0.00000000000E+00 -0.00000000000E+00 -0.24863836944E+03  0.24863836944E+03  0.00000000000E+00 0. -1.
         23    2    1    2    0    0  0.34027822796E+02 -0.34395239597E+02 -0.12244959854E+03  0.16025158829E+03  0.91355033439E+02 0.  0.
          5    1    1    2  502    0  0.50585154987E+02  0.15311412492E+02 -0.17226296315E+02  0.55786490679E+02  0.47000000000E+01 0. -1.
         -5    1    3    3    0  503 -0.20379270001E+02  0.18017558638E+02 -0.35539707497E+02  0.45001198584E+02  0.47000000000E+01 0.  1.
          5    1    3    3  503    0  0.54407092797E+02 -0.52412798235E+02 -0.86909891048E+02  0.11525038971E+03  0.47000000000E+01 0. -1.
         -5    1    1    2    0  502 -0.84612977783E+02  0.19083827105E+02 -0.44130170740E+02  0.97432594319E+02  0.47000000000E+01 0.  1.
<mgrwt>
<rscale>  0 0.13005436E+03</rscale>
<asrwt>0</asrwt>
<pdfrwt beam="1">  1        2 0.38252058E-01 0.14039755E+03</pdfrwt>
<pdfrwt beam="2">  1       -2 0.99742004E-02 0.14039755E+03</pdfrwt>
<totfact> 0.84923976E+03</totfact>
</mgrwt>
</event>
<event>
 8    1  0.8438969E-004  0.9421508E+02  0.7546771E-02  0.1293000E+00
         -2   -1    0    0    0  501 -0.00000000000E+00  0.00000000000E+00  0.11528277460E+02  0.11528277460E+02  0.00000000000E+00 0.  1.
          2   -1    0    0  501    0  0.00000000000E+00 -0.00000000000E+00 -0.81332881511E+03  0.81332881511E+03  0.00000000000E+00 0. -1.
         23    2    1    2    0    0  0.20371068165E+02  0.44222913937E+01 -0.49701440253E+03  0.50586539474E+03  0.91880053337E+02 0.  0.
         23    2    1    2    0    0 -0.20371068165E+02 -0.44222913937E+01 -0.30478613512E+03  0.31899169782E+03  0.91796394478E+02 0.  0.
          5    1    4    4  502    0  0.36058760643E+02 -0.66701001620E+01 -0.10472392849E+03  0.11105816338E+03  0.47000000000E+01 0. -1.
         -5    1    3    3    0  503 -0.62919563174E+01 -0.32959241124E+02 -0.88707054105E+02  0.94957525967E+02  0.47000000000E+01 0.  1.
          5    1    3    3  503    0  0.26663024482E+02  0.37381532517E+02 -0.40830734842E+03  0.41090786878E+03  0.47000000000E+01 0. -1.
         -5    1    4    4    0  502 -0.56429828808E+02  0.22478087683E+01 -0.20006220663E+03  0.20793353444E+03  0.47000000000E+01 0.  1.
<mgrwt>
<rscale>  0 0.94194677E+02</rscale>
<asrwt>0</asrwt>
<pdfrwt beam="1">  1        2 0.12512754E+00 0.94215080E+02</pdfrwt>
<pdfrwt beam="2">  1       -2 0.17735807E-02 0.94215080E+02</pdfrwt>
<totfact> 0.29197548E+04</totfact>
</mgrwt>
</event>
<event>
 8    1  0.8438969E-004  0.1050375E+03  0.7546771E-02  0.1271793E+00
         -2   -1    0    0    0  501 -0.00000000000E+00  0.00000000000E+00  0.26020319906E+02  0.26020319906E+02  0.00000000000E+00 0.  1.
          2   -1    0    0  501    0  0.00000000000E+00 -0.00000000000E+00 -0.57849682553E+03  0.57849682553E+03  0.00000000000E+00 0. -1.
         23    2    1    2    0    0 -0.21494431830E+02 -0.41261363542E+02 -0.11645981561E+03  0.15683037952E+03  0.94172015834E+02 0.  0.
         23    2    1    2    0    0  0.21494431830E+02  0.41261363542E+02 -0.43601669001E+03  0.44768676592E+03  0.90268353751E+02 0.  0.
          5    1    3    3  502    0 -0.34505705732E+02  0.80972434281E+01 -0.94549154093E+02  0.10108333997E+03  0.47000000000E+01 0. -1.
         -5    1    4    4    0  503  0.52402218534E+02  0.35890102149E+02 -0.20970809603E+03  0.21916584470E+03  0.47000000000E+01 0.  1.
          5    1    4    4  503    0 -0.30907786704E+02  0.53712613929E+01 -0.22630859398E+03  0.22852092122E+03  0.47000000000E+01 0. -1.
         -5    1    3    3    0  502  0.13011273902E+02 -0.49358606970E+02 -0.21910661521E+02  0.55747039552E+02  0.47000000000E+01 0.  1.
<mgrwt>
<rscale>  0 0.10415518E+03</rscale>
<asrwt>0</asrwt>
<pdfrwt beam="1">  1        2 0.88999510E-01 0.10503751E+03</pdfrwt>
<pdfrwt beam="2">  1       -2 0.40031262E-02 0.10503751E+03</pdfrwt>
<totfact> 0.13449507E+04</totfact>
</mgrwt>
</event>
<event>
 8    1  0.8438969E-004  0.1040401E+03  0.7546771E-02  0.1273371E+00
          1   -1    0    0  501    0  0.00000000000E+00  0.00000000000E+00  0.32650825466E+03  0.32650825466E+03  0.00000000000E+00 0. -1.
         -1   -1    0    0    0  501 -0.00000000000E+00 -0.00000000000E+00 -0.37715684550E+02  0.37715684550E+02  0.00000000000E+00 0.  1.
         23    2    1    2    0    0  0.98980397905E+01 -0.41678613271E+02  0.77047417094E+02  0.12946288971E+03  0.94811694087E+02 0.  0.
         23    2    1    2    0    0 -0.98980397905E+01  0.41678613271E+02  0.21174515302E+03  0.23476104950E+03  0.91878520559E+02 0.  0.
          5    1    4    4  502    0  0.33440675149E+02  0.27333281873E+02  0.48159615124E+02  0.64860046109E+02  0.47000000000E+01 0. -1.
         -5    1    4    4    0  502 -0.43338714939E+02  0.14345331398E+02  0.16358553790E+03  0.16990100339E+03  0.47000000000E+01 0.  1.
          5    1    3    3  503    0  0.32250558988E+01  0.25658416437E+02  0.49905932554E+02  0.56404320967E+02  0.47000000000E+01 0. -1.
         -5    1    3    3    0  503  0.66729838917E+01 -0.67337029708E+02  0.27141484540E+02  0.73058568744E+02  0.47000000000E+01 0.  1.
<mgrwt>
<rscale>  0 0.10336711E+03</rscale>
<asrwt>0</asrwt>
<pdfrwt beam="1">  1        1 0.50232037E-01 0.10404007E+03</pdfrwt>
<pdfrwt beam="2">  1       -1 0.58024132E-02 0.10404007E+03</pdfrwt>
<totfact> 0.10241260E+04</totfact>
</mgrwt>
</event>
<event>
 8    1  0.8438969E-004  0.1473463E+03  0.7546771E-02  0.1204535E+00
         -2   -1    0    0    0  501 -0.00000000000E+00  0.00000000000E+00  0.15704485869E+02  0.15704485869E+02  0.00000000000E+00 0.  1.
          2   -1    0    0  501    0  0.00000000000E+00 -0.00000000000E+00 -0.13609823568E+04  0.13609823568E+04  0.00000000000E+00 0. -1.
         23    2    1    2    0    0  0.10739803032E+03 -0.39988412558E+02 -0.68542303578E+03  0.70058084139E+03  0.88743266138E+02 0.  0.
         23    2    1    2    0    0 -0.10739803032E+03  0.39988412558E+02 -0.65985483510E+03  0.67610600123E+03  0.92614855407E+02 0.  0.
          5    1    4    4  502    0 -0.74634197553E+02  0.57961175915E+02 -0.58175546994E+03  0.58939908226E+03  0.47000000000E+01 0. -1.
         -5    1    3    3    0  503  0.23074813305E+02 -0.53314216887E+02 -0.23540233221E+03  0.24251020750E+03  0.47000000000E+01 0.  1.
          5    1    3    3  503    0  0.84323217012E+02  0.13325804329E+02 -0.45002070357E+03  0.45807063389E+03  0.47000000000E+01 0. -1.
         -5    1    4    4    0  502 -0.32763832764E+02 -0.17972763357E+02 -0.78099365159E+02  0.86706918976E+02  0.47000000000E+01 0.  1.
<mgrwt>
<rscale>  0 0.14674200E+03</rscale>
<asrwt>0</asrwt>
<pdfrwt beam="1">  1        2 0.20938189E+00 0.14734626E+03</pdfrwt>
<pdfrwt beam="2">  1       -2 0.24160749E-02 0.14734626E+03</pdfrwt>
<totfact> 0.92722521E+03</totfact>
</mgrwt>
</event>
<event>
 8    1  0.8438969E-004  0.1164063E+03  0.7546771E-02  0.1249221E+00
          4   -1    0    0  501    0  0.00000000000E+00  0.00000000000E+00  0.86595454855E+02  0.86595454855E+02  0.00000000000E+00 0. -1.
         -4   -1    0    0    0  501 -0.00000000000E+00 -0.00000000000E+00 -0.18255029695E+03  0.18255029695E+03  0.00000000000E+00 0.  1.
         23    2    1    2    0    0 -0.60207855795E+02  0.42594384880E+02 -0.99029509830E+02  0.15269881507E+03  0.89837724726E+02 0.  0.
         23    2    1    2    0    0  0.60207855795E+02 -0.42594384880E+02  0.30746677387E+01  0.11644693673E+03  0.90062022906E+02 0.  0.
          5    1    3    3  502    0  0.29905005583E+01  0.45764302354E+02 -0.67770319336E+02  0.81964752463E+02  0.47000000000E+01 0. -1.
         -5    1    3    3    0  502 -0.63198356353E+02 -0.31699174740E+01 -0.31259190494E+02  0.70734062607E+02  0.47000000000E+01 0.  1.
          5    1    4    4  503    0  0.59648252310E+02 -0.64367441124E+01  0.33571491767E+02  0.68909220993E+02  0.47000000000E+01 0. -1.
         -5    1    4    4    0  503  0.55960348491E+00 -0.36157640767E+02 -0.30496824028E+02  0.47537715739E+02  0.47000000000E+01 0.  1.
<mgrwt>
<rscale>  0 0.11636295E+03</rscale>
<asrwt>0</asrwt>
<pdfrwt beam="1">  1        4 0.13322378E-01 0.11640634E+03</pdfrwt>
<pdfrwt beam="2">  1       -4 0.28084661E-01 0.11640634E+03</pdfrwt>
<totfact> 0.89307488E+02</totfact>
</mgrwt>
</event>
<event>
 8    1  0.8438969E-004  0.9908039E+02  0.7546771E-02  0.1282586E+00
         -2   -1    0    0    0  501 -0.00000000000E+00  0.00000000000E+00  0.34349531794E+02  0.34349531794E+02  0.00000000000E+00 0.  1.
          2   -1    0    0  501    0  0.00000000000E+00 -0.00000000000E+00 -0.43836264065E+03  0.43836264065E+03  0.00000000000E+00 0. -1.
         23    2    1    2    0    0  0.38273099788E+02  0.45564193836E+00 -0.62150015942E+02  0.11695959929E+03  0.91388651411E+02 0.  0.
         23    2    1    2    0    0 -0.38273099788E+02 -0.45564193836E+00 -0.34186309291E+03  0.35575257315E+03  0.90688925643E+02 0.  0.
          5    1    4    4  502    0 -0.22812027971E+02 -0.44641861987E+02 -0.20231343094E+03  0.20848524840E+03  0.47000000000E+01 0. -1.
         -5    1    4    4    0  502 -0.15461071817E+02  0.44186220049E+02 -0.13954966197E+03  0.14726732476E+03  0.47000000000E+01 0.  1.
          5    1    3    3  503    0 -0.35102517820E+01  0.28531162671E+02 -0.59599656053E+02  0.66336702605E+02  0.47000000000E+01 0. -1.
         -5    1    3    3    0  503  0.41783351570E+02 -0.28075520732E+02 -0.25503598889E+01  0.50622896681E+02  0.47000000000E+01 0.  1.
<mgrwt>
<rscale>  0 0.98918735E+02</rscale>
<asrwt>0</asrwt>
<pdfrwt beam="1">  1        2 0.67440402E-01 0.99080388E+02</pdfrwt>
<pdfrwt beam="2">  1       -2 0.52845436E-02 0.99080388E+02</pdfrwt>
<totfact> 0.11985777E+04</totfact>
</mgrwt>
</event>
<event>
 8    1  0.8438969E-004  0.1093753E+03  0.7546771E-02  0.1262760E+00
          2   -1    0    0  501    0  0.00000000000E+00  0.00000000000E+00  0.13281476530E+03  0.13281476530E+03  0.00000000000E+00 0. -1.
         -2   -1    0    0    0  501 -0.00000000000E+00 -0.00000000000E+00 -0.88500525622E+02  0.88500525622E+02  0.00000000000E+00 0.  1.
         23    2    1    2    0    0  0.23691320049E+02  0.47596213054E+02  0.27387930435E+02  0.11063801675E+03  0.93080577316E+02 0.  0.
         23    2    1    2    0    0 -0.23691320049E+02 -0.47596213054E+02  0.16926309243E+02  0.11067727417E+03  0.95583894729E+02 0.  0.
          5    1    4    4  502    0 -0.53812021231E+02 -0.55665409246E+02  0.84621679902E+01  0.78026083476E+02  0.47000000000E+01 0. -1.
         -5    1    3    3    0  503  0.18573804499E+02  0.73753186178E+02  0.32930472032E+02  0.83012195931E+02  0.47000000000E+01 0.  1.
          5    1    3    3  503    0  0.51175155495E+01 -0.26156973124E+02 -0.55425415970E+01  0.27625820816E+02  0.47000000000E+01 0. -1.
         -5    1    4    4    0  502  0.30120701183E+02  0.80691961918E+01  0.84641412524E+01  0.32651190699E+02  0.47000000000E+01 0.  1.
<mgrwt>
<rscale>  0 0.10882600E+03</rscale>
<asrwt>0</asrwt>
<pdfrwt beam="1">  1        2 0.20433041E-01 0.10937531E+03</pdfrwt>
<pdfrwt beam="2">  1       -2 0.13615465E-01 0.10937531E+03</pdfrwt>
<totfact> 0.10055491E+04</totfact>
</mgrwt>
</event>
<event>
 8    1  0.8438969E-004  0.9832021E+02  0.7546771E-02  0.1285675E+00
         -2   -1    0    0    0  501 -0.00000000000E+00  0.00000000000E+00  0.10146018533E+03  0.10146018533E+03  0.00000000000E+00 0.  1.
          2   -1    0    0  501    0  0.00000000000E+00 -0.00000000000E+00 -0.95928923580E+02  0.95928923580E+02  0.00000000000E+00 0. -1.
         23    2    1    2    0    0  0.44400480251E+01  0.28490189134E+02 -0.16974604376E+02  0.96525949181E+02  0.90541243465E+02 0.  0.
         23    2    1    2    0    0 -0.44400480251E+01 -0.28490189134E+02  0.22505866120E+02  0.10086315972E+03  0.93997117384E+02 0.  0.
          5    1    4    4  502    0 -0.46544877562E+02  0.79399601171E+00  0.11952852960E+02  0.48290959307E+02  0.47000000000E+01 0. -1.
         -5    1    4    4    0  502  0.42104829537E+02 -0.29284185146E+02  0.10553013160E+02  0.52572200418E+02  0.47000000000E+01 0.  1.
          5    1    3    3  503    0 -0.40430249722E+02  0.27839302647E+02 -0.14218323561E+02  0.51321365817E+02  0.47000000000E+01 0. -1.
         -5    1    3    3    0  503  0.44870297747E+02  0.65088648734E+00 -0.27562808146E+01  0.45204583364E+02  0.47000000000E+01 0.  1.
<mgrwt>
<rscale>  0 0.97484995E+02</rscale>
<asrwt>0</asrwt>
<pdfrwt beam="1">  1        2 0.14758296E-01 0.98320206E+02</pdfrwt>
<pdfrwt beam="2">  1       -2 0.15609259E-01 0.98320206E+02</pdfrwt>
<totfact> 0.11569240E+04</totfact>
</mgrwt>
</event>
<event>
 8    1  0.8438969E-004  0.1020243E+03  0.7546771E-02  0.1276308E+00
         -1   -1    0    0    0  501 -0.00000000000E+00  0.00000000000E+00  0.18155387368E+02  0.18155387368E+02  0.00000000000E+00 0.  1.
          1   -1    0    0  501    0  0.00000000000E+00 -0.00000000000E+00 -0.57743780820E+03  0.57743780820E+03  0.00000000000E+00 0. -1.
         23    2    1    2    0    0 -0.38439422885E+02  0.28169383174E+02 -0.31162297045E+03  0.32789911955E+03  0.90210052167E+02 0.  0.
         23    2    1    2    0    0  0.38439422885E+02 -0.28169383174E+02 -0.24765945039E+03  0.26769407602E+03  0.89743030868E+02 0.  0.
          5    1    4    4  502    0  0.62998950479E+02 -0.26244612578E+02 -0.21984622434E+03  0.23024356627E+03  0.47000000000E+01 0. -1.
         -5    1    3    3    0  503 -0.52221657901E+02  0.10505320528E+02 -0.87053602693E+02  0.10216595840E+03  0.47000000000E+01 0.  1.
          5    1    3    3  503    0  0.13782235016E+02  0.17664062646E+02 -0.22456936776E+03  0.22573316116E+03  0.47000000000E+01 0. -1.
         -5    1    4    4    0  502 -0.24559527594E+02 -0.19247705957E+01 -0.27813226044E+02  0.37450509749E+02  0.47000000000E+01 0.  1.
<mgrwt>
<rscale>  0 0.10192096E+03</rscale>
<asrwt>0</asrwt>
<pdfrwt beam="1">  1        1 0.88836588E-01 0.10202430E+03</pdfrwt>
<pdfrwt beam="2">  1       -1 0.27931365E-02 0.10202430E+03</pdfrwt>
<totfact> 0.14411049E+04</totfact>
</mgrwt>
</event>
<event>
 8    1  0.8438969E-004  0.1074235E+03  0.7546771E-02  0.1265669E+00
         -1   -1    0    0    0  501 -0.00000000000E+00  0.00000000000E+00  0.28853668660E+03  0.28853668660E+03  0.00000000000E+00 0.  1.
          1   -1    0    0  501    0  0.00000000000E+00 -0.00000000000E+00 -0.54123492210E+02  0.54123492210E+02  0.00000000000E+00 0. -1.
         23    2    1    2    0    0 -0.55924952876E+01  0.56011278287E+02  0.29276207682E+02  0.11134140662E+03  0.91494662095E+02 0.  0.
         23    2    1    2    0    0  0.55924952876E+01 -0.56011278287E+02  0.20513698671E+03  0.23131877220E+03  0.90877124489E+02 0.  0.
          5    1    3    3  502    0  0.21191909636E+02  0.39134630345E+02 -0.22793568795E+02  0.50222038038E+02  0.47000000000E+01 0. -1.
         -5    1    3    3    0  502 -0.26784404923E+02  0.16876647942E+02  0.52069776478E+02  0.61119368577E+02  0.47000000000E+01 0.  1.
          5    1    4    4  503    0 -0.21514096611E+02  0.67289853290E+01  0.11926715593E+03  0.12146966732E+03  0.47000000000E+01 0. -1.
         -5    1    4    4    0  503  0.27106591898E+02 -0.62740263616E+02  0.85869830782E+02  0.10984910487E+03  0.47000000000E+01 0.  1.
<mgrwt>
<rscale>  0 0.10729191E+03</rscale>
<asrwt>0</asrwt>
<pdfrwt beam="1">  1        1 0.83266913E-02 0.10742352E+03</pdfrwt>
<pdfrwt beam="2">  1       -1 0.44390259E-01 0.10742352E+03</pdfrwt>
<totfact> 0.39747686E+03</totfact>
</mgrwt>
</event>
<event>
 8    1  0.8438969E-004  0.1255524E+03  0.7546771E-02  0.1234294E+00
          2   -1    0    0  501    0  0.00000000000E+00  0.00000000000E+00  0.95084109216E+03  0.95084109216E+03  0.00000000000E+00 0. -1.
         -2   -1    0    0    0  501 -0.00000000000E+00 -0.00000000000E+00 -0.16618513779E+02  0.16618513779E+02  0.00000000000E+00 0.  1.
         23    2    1    2    0    0  0.84419778999E+02 -0.91306560954E+01  0.43633222445E+03  0.45403658253E+03  0.92484270075E+02 0.  0.
         23    2    1    2    0    0 -0.84419778999E+02  0.91306560954E+01  0.49789035393E+03  0.51342302341E+03  0.92186378965E+02 0.  0.
          5    1    4    4  502    0 -0.20605197724E+02  0.45502401743E+02  0.16332067127E+03  0.17085307840E+03  0.47000000000E+01 0.  1.
         -5    1    3    3    0  503  0.42685039947E+02 -0.50244988129E+02  0.25443794404E+03  0.26288272829E+03  0.47000000000E+01 0.  1.
          5    1    3    3  503    0  0.41734739052E+02  0.41114332033E+02  0.18189428041E+03  0.19115385423E+03  0.47000000000E+01 0. -1.
         -5    1    4    4    0  502 -0.63814581275E+02 -0.36371745648E+02  0.33456968266E+03  0.34256994501E+03  0.47000000000E+01 0. -1.
<mgrwt>
<rscale>  0 0.12549756E+03</rscale>
<asrwt>0</asrwt>
<pdfrwt beam="1">  1        2 0.14628320E+00 0.12555241E+03</pdfrwt>
<pdfrwt beam="2">  1       -2 0.25566952E-02 0.12555241E+03</pdfrwt>
<totfact> 0.14426030E+04</totfact>
</mgrwt>
</event>
<event>
 8    1  0.8438969E-004  0.9223870E+02  0.7546771E-02  0.1298243E+00
          3   -1    0    0  501    0  0.00000000000E+00  0.00000000000E+00  0.69150996558E+02  0.69150996558E+02  0.00000000000E+00 0. -1.
         -3   -1    0    0    0  501 -0.00000000000E+00 -0.00000000000E+00 -0.17024967891E+03  0.17024967891E+03  0.00000000000E+00 0.  1.
         23    2    1    2    0    0  0.71755883418E+01 -0.71837509856E+01 -0.11490580888E+03  0.14734762530E+03  0.91678145825E+02 0.  0.
         23    2    1    2    0    0 -0.71755883418E+01  0.71837509856E+01  0.13807126525E+02  0.92053050166E+02  0.90443529098E+02 0.  0.
          5    1    3    3  502    0  0.41353720089E+02  0.10834340050E+02 -0.93526620350E+02  0.10294091414E+03  0.47000000000E+01 0. -1.
         -5    1    3    3    0  502 -0.34178131747E+02 -0.18018091035E+02 -0.21379188527E+02  0.44406711163E+02  0.47000000000E+01 0.  1.
          5    1    4    4  503    0  0.40494757105E+02  0.11814852658E+02  0.19493586243E+01  0.42488893789E+02  0.47000000000E+01 0. -1.
         -5    1    4    4    0  503 -0.47670345447E+02 -0.46311016727E+01  0.11857767901E+02  0.49564156377E+02  0.47000000000E+01 0.  1.
<mgrwt>
<rscale>  0 0.91930405E+02</rscale>
<asrwt>0</asrwt>
<pdfrwt beam="1">  1        3 0.10638615E-01 0.92238700E+02</pdfrwt>
<pdfrwt beam="2">  1       -3 0.26192258E-01 0.92238700E+02</pdfrwt>
<totfact> 0.19570920E+03</totfact>
</mgrwt>
</event>
<event>
 8    1  0.8438969E-004  0.1052672E+03  0.7546771E-02  0.1272633E+00
         -1   -1    0    0    0  501 -0.00000000000E+00  0.00000000000E+00  0.40199441242E+02  0.40199441242E+02  0.00000000000E+00 0.  1.
          1   -1    0    0  501    0  0.00000000000E+00 -0.00000000000E+00 -0.33065227032E+03  0.33065227032E+03  0.00000000000E+00 0. -1.
         23    2    1    2    0    0  0.13009004950E+02 -0.36059851064E+02 -0.22745463606E+03  0.24817342051E+03  0.91569034693E+02 0.  0.
         23    2    1    2    0    0 -0.13009004950E+02  0.36059851064E+02 -0.62998193024E+02  0.12267829106E+03  0.98038990731E+02 0.  0.
          5    1    4    4  502    0 -0.44702677532E+02 -0.76250386989E+01 -0.95607957066E+01  0.46582930439E+02  0.47000000000E+01 0. -1.
         -5    1    4    4    0  502  0.31693672582E+02  0.43684889763E+02 -0.53437397318E+02  0.76095360617E+02  0.47000000000E+01 0.  1.
          5    1    3    3  503    0 -0.19853470281E+02 -0.55344654506E+02 -0.11328280581E+03  0.12771951752E+03  0.47000000000E+01 0. -1.
         -5    1    3    3    0  503  0.32862475231E+02  0.19284803442E+02 -0.11417183025E+03  0.12045390299E+03  0.47000000000E+01 0.  1.
<mgrwt>
<rscale>  0 0.10373466E+03</rscale>
<asrwt>0</asrwt>
<pdfrwt beam="1">  1        1 0.50869581E-01 0.10526724E+03</pdfrwt>
<pdfrwt beam="2">  1       -1 0.61845292E-02 0.10526724E+03</pdfrwt>
<totfact> 0.91845047E+03</totfact>
</mgrwt>
</event>
<event>
 8    1  0.8438969E-004  0.1335678E+03  0.7546771E-02  0.1222755E+00
         -1   -1    0    0    0  501 -0.00000000000E+00  0.00000000000E+00  0.76566030300E+03  0.76566030300E+03  0.00000000000E+00 0.  1.
          1   -1    0    0  501    0  0.00000000000E+00 -0.00000000000E+00 -0.23384909074E+02  0.23384909074E+02  0.00000000000E+00 0. -1.
         23    2    1    2    0    0  0.62148888418E+02  0.75203628246E+02  0.32266784154E+03  0.34869210456E+03  0.89182833438E+02 0.  0.
         23    2    1    2    0    0 -0.62148888418E+02 -0.75203628246E+02  0.41960755238E+03  0.44035310752E+03  0.91226592893E+02 0.  0.
          5    1    3    3  502    0  0.37820479962E+02  0.72764076465E+02  0.12571067908E+03  0.15016745441E+03  0.47000000000E+01 0.  1.
         -5    1    3    3    0  502  0.24328408456E+02  0.24395517813E+01  0.19695716246E+03  0.19852465015E+03  0.47000000000E+01 0.  1.
          5    1    4    4  503    0 -0.71818228576E+02 -0.24350897676E+02  0.30804257367E+03  0.31727455203E+03  0.47000000000E+01 0. -1.
         -5    1    4    4    0  503  0.96693401574E+01 -0.50852730569E+02  0.11156497871E+03  0.12307855549E+03  0.47000000000E+01 0.  1.
<mgrwt>
<rscale>  0 0.13321959E+03</rscale>
<asrwt>0</asrwt>
<pdfrwt beam="1">  1        1 0.35976789E-02 0.13356782E+03</pdfrwt>
<pdfrwt beam="2">  1       -1 0.11779387E+00 0.13356782E+03</pdfrwt>
<totfact> 0.17726627E+03</totfact>
</mgrwt>
</event>
<event>
 8    1  0.8438969E-004  0.1039385E+03  0.7546771E-02  0.1272562E+00
          2   -1    0    0  501    0  0.00000000000E+00  0.00000000000E+00  0.20546614914E+02  0.20546614914E+02  0.00000000000E+00 0. -1.
         -2   -1    0    0    0  501 -0.00000000000E+00 -0.00000000000E+00 -0.58691598229E+03  0.58691598229E+03  0.00000000000E+00 0.  1.
         23    2    1    2    0    0 -0.40638126851E+02  0.30215454206E+02 -0.18166064618E+03  0.20896039321E+03  0.89996802891E+02 0.  0.
         23    2    1    2    0    0  0.40638126851E+02 -0.30215454206E+02 -0.38470872119E+03  0.39850220400E+03  0.90767700213E+02 0.  0.
          5    1    4    4  502    0  0.63822355386E+02 -0.17410486017E+02 -0.17624907848E+03  0.18831422075E+03  0.47000000000E+01 0. -1.
         -5    1    3    3    0  503 -0.26777846397E+02 -0.16588931390E+02 -0.14303013895E+03  0.14653312373E+03  0.47000000000E+01 0.  1.
          5    1    3    3  503    0 -0.13860280454E+02  0.46804385596E+02 -0.38630507236E+02  0.62427269479E+02  0.47000000000E+01 0. -1.
         -5    1    4    4    0  502 -0.23184228534E+02 -0.12804968190E+02 -0.20845964271E+03  0.21018798325E+03  0.47000000000E+01 0.  1.
<mgrwt>
<rscale>  0 0.10376993E+03</rscale>
<asrwt>0</asrwt>
<pdfrwt beam="1">  1        2 0.31610174E-02 0.10393847E+03</pdfrwt>
<pdfrwt beam="2">  1       -2 0.90294776E-01 0.10393847E+03</pdfrwt>
<totfact> 0.29542117E+03</totfact>
</mgrwt>
</event>
<event>
 8    1  0.8438969E-004  0.9627809E+02  0.7546771E-02  0.1290429E+00
         -1   -1    0    0    0  501 -0.00000000000E+00  0.00000000000E+00  0.29997239824E+02  0.29997239824E+02  0.00000000000E+00 0.  1.
          1   -1    0    0  501    0  0.00000000000E+00 -0.00000000000E+00 -0.41067072834E+03  0.41067072834E+03  0.00000000000E+00 0. -1.
         23    2    1    2    0    0 -0.43028466865E+01 -0.22889993115E+02 -0.77235466069E+02  0.12342927921E+03  0.93418432192E+02 0.  0.
         23    2    1    2    0    0  0.43028466865E+01  0.22889993115E+02 -0.30343802245E+03  0.31723868895E+03  0.89572797364E+02 0.  0.
          5    1    4    4  502    0  0.21628960738E+02 -0.21579083054E+02 -0.46325719090E+02  0.55692288670E+02  0.47000000000E+01 0. -1.
         -5    1    4    4    0  502 -0.17326114052E+02  0.44469076169E+02 -0.25711230336E+03  0.26154640028E+03  0.47000000000E+01 0.  1.
          5    1    3    3  503    0 -0.22386428344E+02 -0.53336146927E+02 -0.33683182710E+02  0.67100995078E+02  0.47000000000E+01 0. -1.
         -5    1    3    3    0  503  0.18083581658E+02  0.30446153812E+02 -0.43552283359E+02  0.56328284132E+02  0.47000000000E+01 0.  1.
<mgrwt>
<rscale>  0 0.95332564E+02</rscale>
<asrwt>0</asrwt>
<pdfrwt beam="1">  1        1 0.63180111E-01 0.96278086E+02</pdfrwt>
<pdfrwt beam="2">  1       -1 0.46149601E-02 0.96278086E+02</pdfrwt>
<totfact> 0.10721988E+04</totfact>
</mgrwt>
</event>
<event>
 8    1  0.8438969E-004  0.1196710E+03  0.7546771E-02  0.1244308E+00
         -2   -1    0    0    0  501 -0.00000000000E+00  0.00000000000E+00  0.21106814670E+02  0.21106814670E+02  0.00000000000E+00 0.  1.
          2   -1    0    0  501    0  0.00000000000E+00 -0.00000000000E+00 -0.67525929313E+03  0.67525929313E+03  0.00000000000E+00 0. -1.
         23    2    1    2    0    0 -0.27848667716E+02 -0.74400162194E+02 -0.35713427744E+03  0.37614593570E+03  0.87349530023E+02 0.  0.
         23    2    1    2    0    0  0.27848667716E+02  0.74400162194E+02 -0.29701820103E+03  0.32022017210E+03  0.89499801411E+02 0.  0.
          5    1    4    4  502    0  0.70927883136E+01  0.40424194715E+02 -0.26689663054E+03  0.27007466478E+03  0.47000000000E+01 0. -1.
         -5    1    3    3    0  503  0.11053718855E+02 -0.77552116331E+02 -0.22538316350E+03  0.23865493047E+03  0.47000000000E+01 0.  1.
          5    1    3    3  503    0 -0.38902386570E+02  0.31519541374E+01 -0.13175111393E+03  0.13749100523E+03  0.47000000000E+01 0. -1.
         -5    1    4    4    0  502  0.20755879402E+02  0.33975967478E+02 -0.30121570490E+02  0.50145507323E+02  0.47000000000E+01 0.  1.
<mgrwt>
<rscale>  0 0.11926909E+03</rscale>
<asrwt>0</asrwt>
<pdfrwt beam="1">  1        2 0.10388603E+00 0.11967099E+03</pdfrwt>
<pdfrwt beam="2">  1       -2 0.32472028E-02 0.11967099E+03</pdfrwt>
<totfact> 0.15503037E+04</totfact>
</mgrwt>
</event>
<event>
 8    1  0.8438969E-004  0.9756120E+02  0.7546771E-02  0.1287455E+00
          1   -1    0    0  501    0  0.00000000000E+00  0.00000000000E+00  0.25816016125E+03  0.25816016125E+03  0.00000000000E+00 0. -1.
         -1   -1    0    0    0  501 -0.00000000000E+00 -0.00000000000E+00 -0.36665877404E+02  0.36665877404E+02  0.00000000000E+00 0.  1.
         23    2    1    2    0    0 -0.10094629737E+02 -0.32852725178E+02  0.13443538854E+03  0.16406886126E+03  0.87547212650E+02 0.  0.
         23    2    1    2    0    0  0.10094629737E+02  0.32852725178E+02  0.87058895306E+02  0.13075717739E+03  0.91307092200E+02 0.  0.
          5    1    4    4  502    0  0.30485575004E+02 -0.44435215091E+01 -0.27506770704E+01  0.31285322294E+02  0.47000000000E+01 0. -1.
         -5    1    4    4    0  502 -0.20390945267E+02  0.37296246687E+02  0.89809572376E+02  0.99471855096E+02  0.47000000000E+01 0.  1.
          5    1    3    3  503    0  0.18588140950E+02 -0.12767565900E+02  0.12554057714E+03  0.12763642204E+03  0.47000000000E+01 0. -1.
         -5    1    3    3    0  503 -0.28682770687E+02 -0.20085159278E+02  0.88948113960E+01  0.36432439217E+02  0.47000000000E+01 0.  1.
<mgrwt>
<rscale>  0 0.96671730E+02</rscale>
<asrwt>0</asrwt>
<pdfrwt beam="1">  1        1 0.39716947E-01 0.97561202E+02</pdfrwt>
<pdfrwt beam="2">  1       -1 0.56409044E-02 0.97561202E+02</pdfrwt>
<totfact> 0.14154907E+04</totfact>
</mgrwt>
</event>
<event>
 8    1  0.8438969E-004  0.1041489E+03  0.7546771E-02  0.1272145E+00
         -1   -1    0    0    0  501 -0.00000000000E+00  0.00000000000E+00  0.37872545697E+03  0.37872545697E+03  0.00000000000E+00 0.  1.
          1   -1    0    0  501    0  0.00000000000E+00 -0.00000000000E+00 -0.34947638326E+02  0.34947638326E+02  0.00000000000E+00 0. -1.
         23    2    1    2    0    0 -0.11263300887E+02  0.47079857173E+02  0.26150165811E+03  0.28147845516E+03  0.92215121469E+02 0.  0.
         23    2    1    2    0    0  0.11263300887E+02 -0.47079857173E+02  0.82276160536E+02  0.13219464014E+03  0.91447697566E+02 0.  0.
          5    1    3    3  502    0 -0.26808155012E+02 -0.17133792939E+02  0.13392387495E+03  0.13773139916E+03  0.47000000000E+01 0. -1.
         -5    1    3    3    0  502  0.15544854125E+02  0.64213650112E+02  0.12757778317E+03  0.14374705600E+03  0.47000000000E+01 0.  1.
          5    1    4    4  503    0 -0.22584209714E+02 -0.44174413633E+02  0.81201044802E+01  0.50492092895E+02  0.47000000000E+01 0. -1.
         -5    1    4    4    0  503  0.33847510601E+02 -0.29054435407E+01  0.74156056055E+02  0.81702547241E+02  0.47000000000E+01 0.  1.
<mgrwt>
<rscale>  0 0.10397881E+03</rscale>
<asrwt>0</asrwt>
<pdfrwt beam="1">  1        1 0.53765600E-02 0.10414895E+03</pdfrwt>
<pdfrwt beam="2">  1       -1 0.58265452E-01 0.10414895E+03</pdfrwt>
<totfact> 0.43461750E+03</totfact>
</mgrwt>
</event>
<event>
 8    1  0.8438969E-004  0.9616861E+02  0.7546771E-02  0.1290673E+00
         -1   -1    0    0    0  501 -0.00000000000E+00  0.00000000000E+00  0.44649007197E+02  0.44649007197E+02  0.00000000000E+00 0.  1.
          1   -1    0    0  501    0  0.00000000000E+00 -0.00000000000E+00 -0.20302172078E+03  0.20302172078E+03  0.00000000000E+00 0. -1.
         23    2    1    2    0    0  0.42662926838E+01  0.18483336743E+02 -0.60643147962E+02  0.11055956789E+03  0.90476470238E+02 0.  0.
         23    2    1    2    0    0 -0.42662926838E+01 -0.18483336743E+02 -0.97729565616E+02  0.13711116008E+03  0.94279198307E+02 0.  0.
          5    1    3    3  502    0 -0.16789405833E+02  0.19150140652E+02 -0.78427256950E+02  0.82592594510E+02  0.47000000000E+01 0. -1.
         -5    1    3    3    0  502  0.21055698517E+02 -0.66680390896E+00  0.17784108988E+02  0.27966973379E+02  0.47000000000E+01 0.  1.
          5    1    4    4  503    0 -0.15386233717E+02 -0.50311835944E+02 -0.86338319319E+02  0.10121468474E+03  0.47000000000E+01 0. -1.
         -5    1    4    4    0  503  0.11119941033E+02  0.31828499200E+02 -0.11391246298E+02  0.35896475344E+02  0.47000000000E+01 0.  1.
<mgrwt>
<rscale>  0 0.95223530E+02</rscale>
<asrwt>0</asrwt>
<pdfrwt beam="1">  1        1 0.31234111E-01 0.96168614E+02</pdfrwt>
<pdfrwt beam="2">  1       -1 0.68690779E-02 0.96168614E+02</pdfrwt>
<totfact> 0.14179943E+04</totfact>
</mgrwt>
</event>
<event>
 8    1  0.8438969E-004  0.1046965E+03  0.7546771E-02  0.1272812E+00
          1   -1    0    0  501    0  0.00000000000E+00  0.00000000000E+00  0.24204932695E+03  0.24204932695E+03  0.00000000000E+00 0. -1.
         -1   -1    0    0    0  501 -0.00000000000E+00 -0.00000000000E+00 -0.28147152163E+03  0.28147152163E+03  0.00000000000E+00 0.  1.
         23    2    1    2    0    0 -0.42699382885E+02  0.11933721645E+02 -0.26032126789E+03  0.27906683547E+03  0.90252341420E+02 0.  0.
         23    2    1    2    0    0  0.42699382885E+02 -0.11933721645E+02  0.22089907321E+03  0.24445401312E+03  0.94845732500E+02 0.  0.
          5    1    4    4  502    0  0.52936539980E+02  0.11567520346E+02  0.20871475953E+03  0.21568501487E+03  0.47000000000E+01 0. -1.
         -5    1    3    3    0  503 -0.65218560046E+02 -0.98466085990E+00 -0.22879507278E+03  0.23795736059E+03  0.47000000000E+01 0.  1.
          5    1    3    3  503    0  0.22519177162E+02  0.12918382505E+02 -0.31526195111E+02  0.41109474878E+02  0.47000000000E+01 0. -1.
         -5    1    4    4    0  502 -0.10237157095E+02 -0.23501241991E+02  0.12184313677E+02  0.28768998250E+02  0.47000000000E+01 0.  1.
<mgrwt>
<rscale>  0 0.10364521E+03</rscale>
<asrwt>0</asrwt>
<pdfrwt beam="1">  1        1 0.37238358E-01 0.10469653E+03</pdfrwt>
<pdfrwt beam="2">  1       -1 0.43303311E-01 0.10469653E+03</pdfrwt>
<totfact> 0.61591731E+02</totfact>
</mgrwt>
</event>
<event>
 8    1  0.8438969E-004  0.9549103E+02  0.7546771E-02  0.1291201E+00
         -1   -1    0    0    0  501 -0.00000000000E+00  0.00000000000E+00  0.51200036629E+02  0.51200036629E+02  0.00000000000E+00 0.  1.
          1   -1    0    0  501    0  0.00000000000E+00 -0.00000000000E+00 -0.20735906484E+03  0.20735906484E+03  0.00000000000E+00 0. -1.
         23    2    1    2    0    0 -0.71372158259E+01  0.14911892138E+02 -0.12892651118E+03  0.15926083433E+03  0.92025342644E+02 0.  0.
         23    2    1    2    0    0  0.71372158259E+01 -0.14911892138E+02 -0.27232517026E+02  0.99298267137E+02  0.94049090883E+02 0.  0.
          5    1    4    4  502    0  0.23565674173E+02 -0.43936148981E+02 -0.39156361722E+02  0.63569150142E+02  0.47000000000E+01 0. -1.
         -5    1    4    4    0  502 -0.16428458347E+02  0.29024256843E+02  0.11923844696E+02  0.35729116995E+02  0.47000000000E+01 0.  1.
          5    1    3    3  503    0  0.17501242980E+02 -0.33771635502E+02 -0.60484503920E+02  0.71605042313E+02  0.47000000000E+01 0. -1.
         -5    1    3    3    0  503 -0.24638458806E+02  0.48683527640E+02 -0.68442007262E+02  0.87655792015E+02  0.47000000000E+01 0.  1.
<mgrwt>
<rscale>  0 0.94988946E+02</rscale>
<asrwt>0</asrwt>
<pdfrwt beam="1">  1        1 0.31901395E-01 0.95491025E+02</pdfrwt>
<pdfrwt beam="2">  1       -1 0.78769287E-02 0.95491025E+02</pdfrwt>
<totfact> 0.11261562E+04</totfact>
</mgrwt>
</event>
<event>
 8    1  0.8438969E-004  0.1249940E+03  0.7546771E-02  0.1236044E+00
         -1   -1    0    0    0  501 -0.00000000000E+00  0.00000000000E+00  0.38382900249E+02  0.38382900249E+02  0.00000000000E+00 0.  1.
          1   -1    0    0  501    0  0.00000000000E+00 -0.00000000000E+00 -0.50951283964E+03  0.50951283964E+03  0.00000000000E+00 0. -1.
         23    2    1    2    0    0 -0.84012082304E+02  0.51634009660E+00 -0.10987721938E+03  0.16642263848E+03  0.92548336988E+02 0.  0.
         23    2    1    2    0    0  0.84012082304E+02 -0.51634009660E+00 -0.36125272002E+03  0.38147310142E+03  0.89218287383E+02 0.  0.
          5    1    3    3  502    0 -0.10617338040E+02 -0.35067844372E+02 -0.11811463474E+02  0.38782499215E+02  0.47000000000E+01 0. -1.
         -5    1    4    4    0  503  0.39403934415E+02  0.44065911386E+02 -0.17291417305E+03  0.18280009802E+03  0.47000000000E+01 0.  1.
          5    1    4    4  503    0  0.44608147889E+02 -0.44582251483E+02 -0.18833854697E+03  0.19867300340E+03  0.47000000000E+01 0. -1.
         -5    1    3    3    0  502 -0.73394744264E+02  0.35584184469E+02 -0.98065755902E+02  0.12764013926E+03  0.47000000000E+01 0.  1.
<mgrwt>
<rscale>  0 0.12437813E+03</rscale>
<asrwt>0</asrwt>
<pdfrwt beam="1">  1        1 0.78386583E-01 0.12499396E+03</pdfrwt>
<pdfrwt beam="2">  1       -1 0.59050621E-02 0.12499396E+03</pdfrwt>
<totfact> 0.57695737E+03</totfact>
</mgrwt>
</event>
<event>
 8    1  0.8438969E-004  0.9335797E+02  0.7546771E-02  0.1301608E+00
          1   -1    0    0  501    0  0.00000000000E+00  0.00000000000E+00  0.46878226316E+03  0.46878226316E+03  0.00000000000E+00 0. -1.
         -1   -1    0    0    0  501 -0.00000000000E+00 -0.00000000000E+00 -0.38751652819E+02  0.38751652819E+02  0.00000000000E+00 0.  1.
         23    2    1    2    0    0 -0.65454710940E+01  0.28194453309E+02  0.28493138254E+02  0.97609269197E+02  0.88757760880E+02 0.  0.
         23    2    1    2    0    0  0.65454710940E+01 -0.28194453309E+02  0.40153747209E+03  0.40992464678E+03  0.77253505805E+02 0.  0.
          5    1    4    4  502    0  0.33291296762E+02 -0.28172895345E+02  0.33790127664E+03  0.34073653345E+03  0.47000000000E+01 0. -1.
         -5    1    3    3    0  503  0.29147840497E+02  0.11033511078E+01 -0.16579365646E+02  0.33878892463E+02  0.47000000000E+01 0.  1.
          5    1    3    3  503    0 -0.35693311591E+02  0.27091102201E+02  0.45072503900E+02  0.63730376734E+02  0.47000000000E+01 0. -1.
         -5    1    4    4    0  502 -0.26745825668E+02 -0.21557963954E-01  0.63636195452E+02  0.69188113336E+02  0.47000000000E+01 0.  1.
<mgrwt>
<rscale>  0 0.90515726E+02</rscale>
<asrwt>0</asrwt>
<pdfrwt beam="1">  1        1 0.72120344E-01 0.93357970E+02</pdfrwt>
<pdfrwt beam="2">  1       -1 0.59617931E-02 0.93357970E+02</pdfrwt>
<totfact> 0.62182232E+03</totfact>
</mgrwt>
</event>
<event>
 8    1  0.8438969E-004  0.1717410E+03  0.7546771E-02  0.1176750E+00
          2   -1    0    0  501    0  0.00000000000E+00  0.00000000000E+00  0.90845438194E+03  0.90845438194E+03  0.00000000000E+00 0. -1.
         -2   -1    0    0    0  501 -0.00000000000E+00 -0.00000000000E+00 -0.32479758947E+02  0.32479758947E+02  0.00000000000E+00 0.  1.
         23    2    1    2    0    0  0.97518494377E+02 -0.10925642218E+03  0.38163057923E+03  0.41849358413E+03  0.89711528949E+02 0.  0.
         23    2    1    2    0    0 -0.97518494377E+02  0.10925642218E+03  0.49434404376E+03  0.52244055675E+03  0.84387672091E+02 0.  0.
          5    1    4    4  502    0 -0.81740642514E+02  0.12270608503E+03  0.44094606730E+03  0.46496649364E+03  0.47000000000E+01 0. -1.
         -5    1    4    4    0  502 -0.15777851863E+02 -0.13449662845E+02  0.53397976468E+02  0.57474063115E+02  0.47000000000E+01 0.  1.
          5    1    3    3  503    0  0.18456776522E+02 -0.87500334447E+02  0.19367457440E+03  0.21337500298E+03  0.47000000000E+01 0. -1.
         -5    1    3    3    0  503  0.79061717855E+02 -0.21756087735E+02  0.18795600482E+03  0.20511858115E+03  0.47000000000E+01 0.  1.
<mgrwt>
<rscale>  0 0.17105695E+03</rscale>
<asrwt>0</asrwt>
<pdfrwt beam="1">  1        2 0.13976219E+00 0.17174103E+03</pdfrwt>
<pdfrwt beam="2">  1       -2 0.49968867E-02 0.17174103E+03</pdfrwt>
<totfact> 0.57695964E+03</totfact>
</mgrwt>
</event>
<event>
 8    1  0.8438969E-004  0.9922497E+02  0.7546771E-02  0.1283059E+00
         -1   -1    0    0    0  501 -0.00000000000E+00  0.00000000000E+00  0.55476340856E+02  0.55476340856E+02  0.00000000000E+00 0.  1.
          1   -1    0    0  501    0  0.00000000000E+00 -0.00000000000E+00 -0.17416506292E+03  0.17416506292E+03  0.00000000000E+00 0. -1.
         23    2    1    2    0    0  0.22246913942E+02 -0.21894424993E+02 -0.54362773097E+02  0.11314109227E+03  0.94187603402E+02 0.  0.
         23    2    1    2    0    0 -0.22246913942E+02  0.21894424993E+02 -0.64325948965E+02  0.11650031151E+03  0.91979366411E+02 0.  0.
          5    1    3    3  502    0  0.14726988932E+02 -0.51466604368E+02 -0.61277674085E+02  0.81502999390E+02  0.47000000000E+01 0. -1.
         -5    1    3    3    0  502  0.75199250100E+01  0.29572179375E+02  0.69149009888E+01  0.31638092876E+02  0.47000000000E+01 0.  1.
          5    1    4    4  503    0 -0.45439322566E+02 -0.13067455849E+02 -0.56050398675E+02  0.73479436778E+02  0.47000000000E+01 0. -1.
         -5    1    4    4    0  503  0.23192408625E+02  0.34961880842E+02 -0.82755502901E+01  0.43020874729E+02  0.47000000000E+01 0.  1.
<mgrwt>
<rscale>  0 0.98697370E+02</rscale>
<asrwt>0</asrwt>
<pdfrwt beam="1">  1        1 0.26794625E-01 0.99224975E+02</pdfrwt>
<pdfrwt beam="2">  1       -1 0.85348216E-02 0.99224975E+02</pdfrwt>
<totfact> 0.12426417E+04</totfact>
</mgrwt>
</event>
<event>
 8    1  0.8438969E-004  0.9675281E+02  0.7546771E-02  0.1287520E+00
          1   -1    0    0  501    0  0.00000000000E+00  0.00000000000E+00  0.10758909292E+03  0.10758909292E+03  0.00000000000E+00 0. -1.
         -1   -1    0    0    0  501 -0.00000000000E+00 -0.00000000000E+00 -0.19532139775E+03  0.19532139775E+03  0.00000000000E+00 0.  1.
         23    2    1    2    0    0  0.15402686993E+02  0.26188253047E+02 -0.15690243730E+03  0.18433524060E+03  0.91858797791E+02 0.  0.
         23    2    1    2    0    0 -0.15402686993E+02 -0.26188253047E+02  0.69170132470E+02  0.11857525007E+03  0.91392096702E+02 0.  0.
          5    1    3    3  502    0 -0.21179618454E+02 -0.13331013225E+02 -0.92380231534E+01  0.27087325879E+02  0.47000000000E+01 0. -1.
         -5    1    4    4    0  503 -0.18042034725E+02  0.25010745412E+02  0.58057414834E+02  0.65907555108E+02  0.47000000000E+01 0.  1.
          5    1    4    4  503    0  0.26393477326E+01 -0.51198998459E+02  0.11112717636E+02  0.52667694965E+02  0.47000000000E+01 0. -1.
         -5    1    3    3    0  502  0.36582305447E+02  0.39519266272E+02 -0.14766441414E+03  0.15724791472E+03  0.47000000000E+01 0.  1.
<mgrwt>
<rscale>  0 0.96641873E+02</rscale>
<asrwt>0</asrwt>
<pdfrwt beam="1">  1        1 0.16552168E-01 0.96752809E+02</pdfrwt>
<pdfrwt beam="2">  1       -1 0.30049446E-01 0.96752809E+02</pdfrwt>
<totfact> 0.31527259E+03</totfact>
</mgrwt>
</event>
<event>
 8    1  0.8438969E-004  0.9871689E+02  0.7546771E-02  0.1290487E+00
          1   -1    0    0  501    0  0.00000000000E+00  0.00000000000E+00  0.15722548967E+02  0.15722548967E+02  0.00000000000E+00 0. -1.
         -1   -1    0    0    0  501 -0.00000000000E+00 -0.00000000000E+00 -0.54499440492E+03  0.54499440492E+03  0.00000000000E+00 0.  1.
         23    2    1    2    0    0 -0.36854827338E+02  0.27716917250E+00 -0.22276708947E+03  0.23870733277E+03  0.77444557226E+02 0.  0.
         23    2    1    2    0    0  0.36854827338E+02 -0.27716917250E+00 -0.30650476649E+03  0.32200962113E+03  0.91578758985E+02 0.  0.
          5    1    3    3  502    0 -0.42617829671E+02  0.31669880197E+02 -0.13072264160E+03  0.14117280101E+03  0.47000000000E+01 0. -1.
         -5    1    4    4    0  503  0.55151929032E+02  0.23345952426E+02 -0.13367996324E+03  0.14655780888E+03  0.47000000000E+01 0.  1.
          5    1    4    4  503    0 -0.18297101694E+02 -0.23623121599E+02 -0.17282480324E+03  0.17545181225E+03  0.47000000000E+01 0. -1.
         -5    1    3    3    0  502  0.57630023329E+01 -0.31392711025E+02 -0.92044447867E+02  0.97534531754E+02  0.47000000000E+01 0.  1.
<mgrwt>
<rscale>  0 0.95306807E+02</rscale>
<asrwt>0</asrwt>
<pdfrwt beam="1">  1        1 0.24188535E-02 0.98716889E+02</pdfrwt>
<pdfrwt beam="2">  1       -1 0.83845298E-01 0.98716889E+02</pdfrwt>
<totfact> 0.63179804E+03</totfact>
</mgrwt>
</event>
<event>
 8    1  0.8438969E-004  0.1296427E+03  0.7546771E-02  0.1232596E+00
          1   -1    0    0  501    0  0.00000000000E+00  0.00000000000E+00  0.55732617758E+03  0.55732617758E+03  0.00000000000E+00 0. -1.
         -1   -1    0    0    0  501 -0.00000000000E+00 -0.00000000000E+00 -0.39073076835E+02  0.39073076835E+02  0.00000000000E+00 0.  1.
         23    2    1    2    0    0 -0.15996549298E+02  0.72747274717E+02  0.10550550145E+03  0.16714856169E+03  0.10610926100E+03 0.  0.
         23    2    1    2    0    0  0.15996549298E+02 -0.72747274717E+02  0.41274759929E+03  0.42925069272E+03  0.91364768454E+02 0.  0.
          5    1    4    4  502    0 -0.36811749053E+02 -0.43002296123E+02  0.18444771855E+03  0.19299573368E+03  0.47000000000E+01 0. -1.
         -5    1    3    3    0  503 -0.34713616622E+00  0.96799112559E+02  0.62793946450E+02  0.11547882233E+03  0.47000000000E+01 0.  1.
          5    1    3    3  503    0 -0.15649413132E+02 -0.24051837842E+02  0.42711555002E+02  0.51669739361E+02  0.47000000000E+01 0. -1.
         -5    1    4    4    0  502  0.52808298351E+02 -0.29744978594E+02  0.22829988074E+03  0.23625495904E+03  0.47000000000E+01 0.  1.
<mgrwt>
<rscale>  0 0.12659619E+03</rscale>
<asrwt>0</asrwt>
<pdfrwt beam="1">  1        1 0.85742483E-01 0.12964270E+03</pdfrwt>
<pdfrwt beam="2">  1       -1 0.60112430E-02 0.12964270E+03</pdfrwt>
<totfact> 0.50020450E+03</totfact>
</mgrwt>
</event>
<event>
 7    1  0.8438969E-004  0.1649395E+03  0.7546771E-02  0.1200953E+00
         -1   -1    0    0    0  501 -0.00000000000E+00  0.00000000000E+00  0.47898067459E+02  0.47898067459E+02  0.00000000000E+00 0.  1.
          1   -1    0    0  501    0  0.00000000000E+00 -0.00000000000E+00 -0.41097559241E+03  0.41097559241E+03  0.00000000000E+00 0. -1.
         23    2    1    2    0    0  0.51813324914E+02 -0.37273523861E+02 -0.18552748131E+03  0.21653285711E+03  0.91608382088E+02 0.  0.
          5    1    3    3  502    0  0.28086185537E+02 -0.16262771895E+02 -0.18126938068E+03  0.18421180728E+03  0.47000000000E+01 0. -1.
         -5    1    1    2    0  503  0.49667353687E+02  0.19773616382E+02 -0.27523167176E+02  0.60311331095E+02  0.47000000000E+01 0.  1.
          5    1    1    2  503    0 -0.10148067860E+03  0.17499907479E+02 -0.15002687647E+03  0.18202947167E+03  0.47000000000E+01 0. -1.
         -5    1    3    3    0  502  0.23727139377E+02 -0.21010751966E+02 -0.42581006216E+01  0.32321049830E+02  0.47000000000E+01 0.  1.
<mgrwt>
<rscale>  0 0.14960964E+03</rscale>
<asrwt>0</asrwt>
<pdfrwt beam="1">  1        1 0.63227013E-01 0.16493952E+03</pdfrwt>
<pdfrwt beam="2">  1       -1 0.73689336E-02 0.16493952E+03</pdfrwt>
<totfact> 0.55447834E+03</totfact>
</mgrwt>
</event>
<event>
 8    1  0.8438969E-004  0.1015851E+03  0.7546771E-02  0.1280646E+00
          2   -1    0    0  501    0  0.00000000000E+00  0.00000000000E+00  0.32647147980E+03  0.32647147980E+03  0.00000000000E+00 0. -1.
         -2   -1    0    0    0  501 -0.00000000000E+00 -0.00000000000E+00 -0.36757752052E+02  0.36757752052E+02  0.00000000000E+00 0.  1.
         23    2    1    2    0    0  0.18223771822E+02  0.18100101123E+02  0.60265067362E+02  0.11229854386E+03  0.91210553606E+02 0.  0.
         23    2    1    2    0    0 -0.18223771822E+02 -0.18100101123E+02  0.22944866038E+03  0.25093068799E+03  0.98284296318E+02 0.  0.
          5    1    3    3  502    0 -0.36890419309E+02  0.96537167027E+01  0.19632982314E+02  0.43146741216E+02  0.47000000000E+01 0. -1.
         -5    1    3    3    0  502  0.55114191131E+02  0.84463844206E+01  0.40632085048E+02  0.69151802646E+02  0.47000000000E+01 0.  1.
          5    1    4    4  503    0 -0.55531275701E+02 -0.79989229578E+01  0.90094275331E+02  0.10623922909E+03  0.47000000000E+01 0. -1.
         -5    1    4    4    0  503  0.37307503879E+02 -0.10101178166E+02  0.13935438505E+03  0.14469145890E+03  0.47000000000E+01 0.  1.
<mgrwt>
<rscale>  0 0.99833514E+02</rscale>
<asrwt>0</asrwt>
<pdfrwt beam="1">  1        2 0.50226380E-01 0.10158505E+03</pdfrwt>
<pdfrwt beam="2">  1       -2 0.56550390E-02 0.10158505E+03</pdfrwt>
<totfact> 0.14811965E+04</totfact>
</mgrwt>
</event>
<event>
 8    1  0.8438969E-004  0.9418189E+02  0.7546771E-02  0.1295786E+00
         -1   -1    0    0    0  501 -0.00000000000E+00  0.00000000000E+00  0.39442596850E+03  0.39442596850E+03  0.00000000000E+00 0.  1.
          1   -1    0    0  501    0  0.00000000000E+00 -0.00000000000E+00 -0.29752404861E+02  0.29752404861E+02  0.00000000000E+00 0. -1.
         23    2    1    2    0    0 -0.26441071859E+02  0.27484985241E+01  0.73207724432E+02  0.11928788762E+03  0.90352336389E+02 0.  0.
         23    2    1    2    0    0  0.26441071859E+02 -0.27484985241E+01  0.29146583921E+03  0.30489048574E+03  0.85435287476E+02 0.  0.
          5    1    3    3  502    0  0.12428471348E+01 -0.34632088497E+02  0.32181899043E+01  0.35119410145E+02  0.47000000000E+01 0. -1.
         -5    1    4    4    0  503  0.18165187861E+02  0.40109694401E+02  0.17215249032E+03  0.17775638261E+03  0.47000000000E+01 0.  1.
          5    1    4    4  503    0  0.82758839986E+01 -0.42858192925E+02  0.11931334889E+03  0.12713410314E+03  0.47000000000E+01 0. -1.
         -5    1    3    3    0  502 -0.27683918994E+02  0.37380587021E+02  0.69989534527E+02  0.84168477474E+02  0.47000000000E+01 0.  1.
<mgrwt>
<rscale>  0 0.92982593E+02</rscale>
<asrwt>0</asrwt>
<pdfrwt beam="1">  1        1 0.45772933E-02 0.94181894E+02</pdfrwt>
<pdfrwt beam="2">  1       -1 0.60680914E-01 0.94181894E+02</pdfrwt>
<totfact> 0.49691439E+03</totfact>
</mgrwt>
</event>
<event>
 8    1  0.8438969E-004  0.1447510E+03  0.7546771E-02  0.1207229E+00
         -2   -1    0    0    0  501 -0.00000000000E+00  0.00000000000E+00  0.36493139580E+03  0.36493139580E+03  0.00000000000E+00 0.  1.
          2   -1    0    0  501    0  0.00000000000E+00 -0.00000000000E+00 -0.62251501500E+02  0.62251501500E+02  0.00000000000E+00 0. -1.
         23    2    1    2    0    0 -0.49463459571E+01 -0.11189752617E+03  0.90889408237E+02  0.17092026611E+03  0.91691494347E+02 0.  0.
         23    2    1    2    0    0  0.49463459571E+01  0.11189752617E+03  0.21179048606E+03  0.25626263119E+03  0.90938459729E+02 0.  0.
          5    1    4    4  502    0  0.29457104052E+02  0.52586417729E+02  0.39167821373E+02  0.72036522263E+02  0.47000000000E+01 0. -1.
         -5    1    3    3    0  503 -0.43710943781E+02 -0.28992974842E+02  0.26773171611E+02  0.59077338418E+02  0.47000000000E+01 0.  1.
          5    1    3    3  503    0  0.38764597824E+02 -0.82904551326E+02  0.64116236626E+02  0.11184292769E+03  0.47000000000E+01 0. -1.
         -5    1    4    4    0  502 -0.24510758095E+02  0.59311108440E+02  0.17262266469E+03  0.18422610893E+03  0.47000000000E+01 0.  1.
<mgrwt>
<rscale>  0 0.14463190E+03</rscale>
<asrwt>0</asrwt>
<pdfrwt beam="1">  1        2 0.95771543E-02 0.14475100E+03</pdfrwt>
<pdfrwt beam="2">  1       -2 0.56143290E-01 0.14475100E+03</pdfrwt>
<totfact> 0.19897852E+03</totfact>
</mgrwt>
</event>
<event>
 8    1  0.8438969E-004  0.1138656E+03  0.7546771E-02  0.1259817E+00
         -2   -1    0    0    0  501 -0.00000000000E+00  0.00000000000E+00  0.21759425134E+02  0.21759425134E+02  0.00000000000E+00 0.  1.
          2   -1    0    0  501    0  0.00000000000E+00 -0.00000000000E+00 -0.58440009106E+03  0.58440009106E+03  0.00000000000E+00 0. -1.
         23    2    1    2    0    0 -0.42592257082E+02  0.72488931727E+01 -0.35904716274E+03  0.37288781070E+03  0.90905486530E+02 0.  0.
         23    2    1    2    0    0  0.42592257082E+02 -0.72488931727E+01 -0.20359350318E+03  0.23327170549E+03  0.10535049705E+03 0.  0.
          5    1    4    4  502    0  0.25328669960E+02  0.17270127626E+02 -0.20036088370E+03  0.20274706544E+03  0.47000000000E+01 0. -1.
         -5    1    4    4    0  502  0.17263587121E+02 -0.24519020798E+02 -0.32326194846E+01  0.30524640046E+02  0.47000000000E+01 0.  1.
          5    1    3    3  503    0 -0.62241190079E+02  0.15749300288E+02 -0.15743737641E+03  0.17009004583E+03  0.47000000000E+01 0. -1.
         -5    1    3    3    0  503  0.19648932997E+02 -0.85004071151E+01 -0.20160978634E+03  0.20279776487E+03  0.47000000000E+01 0.  1.
<mgrwt>
<rscale>  0 0.11040736E+03</rscale>
<asrwt>0</asrwt>
<pdfrwt beam="1">  1        2 0.89907715E-01 0.11386560E+03</pdfrwt>
<pdfrwt beam="2">  1       -2 0.33476035E-02 0.11386560E+03</pdfrwt>
<totfact> 0.17420106E+04</totfact>
</mgrwt>
</event>
<event>
 8    1  0.8438969E-004  0.1100837E+03  0.7546771E-02  0.1260463E+00
         -2   -1    0    0    0  501 -0.00000000000E+00  0.00000000000E+00  0.13972473128E+02  0.13972473128E+02  0.00000000000E+00 0.  1.
          2   -1    0    0  501    0  0.00000000000E+00 -0.00000000000E+00 -0.91335710244E+03  0.91335710244E+03  0.00000000000E+00 0. -1.
         23    2    1    2    0    0 -0.20595041895E+02  0.52220702129E+02 -0.55491399538E+03  0.56572781688E+03  0.94695633711E+02 0.  0.
         23    2    1    2    0    0  0.20595041895E+02 -0.52220702129E+02 -0.34447063394E+03  0.36160175869E+03  0.94576195535E+02 0.  0.
          5    1    4    4  502    0  0.55166601277E+02 -0.35874585791E+02 -0.26764522546E+03  0.27565630142E+03  0.47000000000E+01 0. -1.
         -5    1    3    3    0  503  0.30125382674E+01  0.73534437177E+02 -0.30676719317E+03  0.31550687733E+03  0.47000000000E+01 0.  1.
          5    1    3    3  503    0 -0.23607580162E+02 -0.21313735048E+02 -0.24814680221E+03  0.25022093955E+03  0.47000000000E+01 0. -1.
         -5    1    4    4    0  502 -0.34571559383E+02 -0.16346116338E+02 -0.76825408480E+02  0.85945457272E+02  0.47000000000E+01 0.  1.
<mgrwt>
<rscale>  0 0.11005801E+03</rscale>
<asrwt>0</asrwt>
<pdfrwt beam="1">  1        2 0.14051644E+00 0.11008370E+03</pdfrwt>
<pdfrwt beam="2">  1       -2 0.21496119E-02 0.11008370E+03</pdfrwt>
<totfact> 0.19382306E+04</totfact>
</mgrwt>
</event>
<event>
 7    1  0.8438969E-004  0.2748628E+03  0.7546771E-02  0.1126585E+00
          2   -1    0    0  501    0  0.00000000000E+00  0.00000000000E+00  0.61523906150E+03  0.61523906150E+03  0.00000000000E+00 0. -1.
         -2   -1    0    0    0  501 -0.00000000000E+00 -0.00000000000E+00 -0.12538131483E+03  0.12538131483E+03  0.00000000000E+00 0.  1.
         23    2    1    2    0    0  0.90783735047E+02  0.44381965570E+02  0.44133864289E+03  0.46150810158E+03  0.89434247928E+02 0.  0.
          5    1    1    2  502    0 -0.44482143751E+02 -0.78770926520E+02  0.14243537507E+03  0.16880001792E+03  0.47000000000E+01 0. -1.
         -5    1    1    2    0  502 -0.46301591296E+02  0.34388960950E+02 -0.93916271291E+02  0.11031225682E+03  0.47000000000E+01 0.  1.
          5    1    3    3  503    0  0.26469439475E+02  0.56130551317E+02  0.28968883271E+03  0.29629880158E+03  0.47000000000E+01 0. -1.
         -5    1    3    3    0  503  0.64314295572E+02 -0.11748585748E+02  0.15164981018E+03  0.16520930001E+03  0.47000000000E+01 0.  1.
<mgrwt>
<rscale>  0 0.23007822E+03</rscale>
<asrwt>0</asrwt>
<pdfrwt beam="1">  1        2 0.94652162E-01 0.27486280E+03</pdfrwt>
<pdfrwt beam="2">  1       -2 0.19289433E-01 0.27486280E+03</pdfrwt>
<totfact> 0.10975397E+03</totfact>
</mgrwt>
</event>
<event>
 8    1  0.8438969E-004  0.1860535E+03  0.7546771E-02  0.1163589E+00
          1   -1    0    0  501    0  0.00000000000E+00  0.00000000000E+00  0.13781589016E+04  0.13781589016E+04  0.00000000000E+00 0. -1.
         -1   -1    0    0    0  501 -0.00000000000E+00 -0.00000000000E+00 -0.33458098143E+02  0.33458098143E+02  0.00000000000E+00 0.  1.
         23    2    1    2    0    0 -0.88289435037E+02 -0.12653709107E+03  0.10338761395E+04  0.10493631053E+04  0.91958659099E+02 0.  0.
         23    2    1    2    0    0  0.88289435037E+02  0.12653709107E+03  0.31082466395E+03  0.36225389453E+03  0.10396755565E+03 0.  0.
          5    1    3    3  502    0 -0.10178849823E+03 -0.78441265697E+02  0.69563403178E+03  0.70741976698E+03  0.47000000000E+01 0. -1.
         -5    1    3    3    0  502  0.13499063193E+02 -0.48095825372E+02  0.33824210776E+03  0.34194333827E+03  0.47000000000E+01 0.  1.
          5    1    4    4  503    0 -0.98179372794E+01  0.20759922103E+02  0.48460260268E+01  0.23936169836E+02  0.47000000000E+01 0. -1.
         -5    1    4    4    0  503  0.98107372317E+02  0.10577716897E+03  0.30597863792E+03  0.33831772469E+03  0.47000000000E+01 0.  1.
<mgrwt>
<rscale>  0 0.18442365E+03</rscale>
<asrwt>0</asrwt>
<pdfrwt beam="1">  1        1 0.21202440E+00 0.18605352E+03</pdfrwt>
<pdfrwt beam="2">  1       -1 0.51474008E-02 0.18605352E+03</pdfrwt>
<totfact> 0.14580641E+03</totfact>
</mgrwt>
</event>
<event>
 7    1  0.8438969E-004  0.1337956E+03  0.7546771E-02  0.1232845E+00
         -1   -1    0    0    0  501 -0.00000000000E+00  0.00000000000E+00  0.97798981831E+03  0.97798981831E+03  0.00000000000E+00 0.  1.
          1   -1    0    0  501    0  0.00000000000E+00 -0.00000000000E+00 -0.16432695484E+02  0.16432695484E+02  0.00000000000E+00 0. -1.
         23    2    1    2    0    0 -0.19931255362E+01 -0.37297440212E+02  0.58862433420E+03  0.59821532625E+03  0.99939472401E+02 0.  0.
          5    1    3    3  502    0  0.38631634584E+01  0.32079938804E+02  0.27438746104E+03  0.27632338895E+03  0.47000000000E+01 0. -1.
         -5    1    1    2    0  503  0.55860854788E+01 -0.27196919176E+02  0.13943831214E+02  0.31422876898E+02  0.47000000000E+01 0.  1.
          5    1    1    2  503    0 -0.35929599426E+01  0.64494359388E+02  0.35898895741E+03  0.36478431065E+03  0.47000000000E+01 0. -1.
         -5    1    3    3    0  502 -0.58562889946E+01 -0.69377379017E+02  0.31423687316E+03  0.32189193729E+03  0.47000000000E+01 0.  1.
<mgrwt>
<rscale>  0 0.12643386E+03</rscale>
<asrwt>0</asrwt>
<pdfrwt beam="1">  1        1 0.25281078E-02 0.13379563E+03</pdfrwt>
<pdfrwt beam="2">  1       -1 0.15045993E+00 0.13379563E+03</pdfrwt>
<totfact> 0.15839380E+03</totfact>
</mgrwt>
</event>
<event>
 8    1  0.8438969E-004  0.1112971E+03  0.7546771E-02  0.1268464E+00
         -2   -1    0    0    0  501 -0.00000000000E+00  0.00000000000E+00  0.18606373112E+03  0.18606373112E+03  0.00000000000E+00 0.  1.
          2   -1    0    0  501    0  0.00000000000E+00 -0.00000000000E+00 -0.68101795742E+02  0.68101795742E+02  0.00000000000E+00 0. -1.
         23    2    1    2    0    0 -0.15710020847E+01 -0.13588769931E+02  0.11924882363E+03  0.16311755648E+03  0.11045330498E+03 0.  0.
         23    2    1    2    0    0  0.15710020847E+01  0.13588769931E+02 -0.12868882534E+01  0.91047970374E+02  0.90005300466E+02 0.  0.
          5    1    3    3  502    0  0.18225147332E+02  0.42194397185E+02  0.27305570632E+02  0.53667563170E+02  0.47000000000E+01 0. -1.
         -5    1    4    4    0  503 -0.15199212296E+01 -0.38415179839E+02 -0.61535140392E+00  0.38736350628E+02  0.47000000000E+01 0.  1.
          5    1    4    4  503    0  0.30909233144E+01  0.52003949770E+02 -0.67153684951E+00  0.52311619745E+02  0.47000000000E+01 0. -1.
         -5    1    3    3    0  502 -0.19796149417E+02 -0.55783167116E+02  0.91943252996E+02  0.10944999331E+03  0.47000000000E+01 0.  1.
<mgrwt>
<rscale>  0 0.10584485E+03</rscale>
<asrwt>0</asrwt>
<pdfrwt beam="1">  1        2 0.10477199E-01 0.11129715E+03</pdfrwt>
<pdfrwt beam="2">  1       -2 0.28625189E-01 0.11129715E+03</pdfrwt>
<totfact> 0.62787022E+03</totfact>
</mgrwt>
</event>
<event>
 8    1  0.8438969E-004  0.9535533E+02  0.7546771E-02  0.1291882E+00
         -1   -1    0    0    0  501 -0.00000000000E+00  0.00000000000E+00  0.14425505022E+02  0.14425505022E+02  0.00000000000E+00 0.  1.
          1   -1    0    0  501    0  0.00000000000E+00 -0.00000000000E+00 -0.72046196531E+03  0.72046196531E+03  0.00000000000E+00 0. -1.
         23    2    1    2    0    0 -0.25230496542E+02 -0.12039414240E+02 -0.21531464186E+03  0.23548467717E+03  0.91165304416E+02 0.  0.
         23    2    1    2    0    0  0.25230496542E+02  0.12039414240E+02 -0.49072181842E+03  0.49940279316E+03  0.88395256045E+02 0.  0.
          5    1    3    3  502    0 -0.48035118377E+02 -0.37069073057E+02 -0.12851762577E+03  0.14219830839E+03  0.47000000000E+01 0. -1.
         -5    1    4    4    0  503 -0.18848323050E+02  0.36988585368E+02 -0.21210039780E+03  0.21617604742E+03  0.47000000000E+01 0.  1.
          5    1    4    4  503    0  0.44078819592E+02 -0.24949171127E+02 -0.27862142062E+03  0.28322674574E+03  0.47000000000E+01 0. -1.
         -5    1    3    3    0  502  0.22804621835E+02  0.25029658817E+02 -0.86797016089E+02  0.93286368776E+02  0.47000000000E+01 0. -1.
<mgrwt>
<rscale>  0 0.94687142E+02</rscale>
<asrwt>0</asrwt>
<pdfrwt beam="1">  1        1 0.11084032E+00 0.95355326E+02</pdfrwt>
<pdfrwt beam="2">  1       -1 0.22193081E-02 0.95355326E+02</pdfrwt>
<totfact> 0.14708389E+04</totfact>
</mgrwt>
</event>
<event>
 8    1  0.8438969E-004  0.1127940E+03  0.7546771E-02  0.1256770E+00
          1   -1    0    0  501    0  0.00000000000E+00  0.00000000000E+00  0.54879901078E+03  0.54879901078E+03  0.00000000000E+00 0. -1.
         -1   -1    0    0    0  501 -0.00000000000E+00 -0.00000000000E+00 -0.26083617297E+02  0.26083617297E+02  0.00000000000E+00 0.  1.
         23    2    1    2    0    0 -0.11150322998E+02 -0.64255821496E+02  0.15347089665E+03  0.18879456478E+03  0.88526443929E+02 0.  0.
         23    2    1    2    0    0  0.11150322998E+02  0.64255821496E+02  0.36924449683E+03  0.38608806329E+03  0.92029092553E+02 0.  0.
          5    1    3    3  502    0  0.14703534079E+02 -0.54168544983E+02  0.15025383919E+03  0.16046411241E+03  0.47000000000E+01 0. -1.
         -5    1    4    4    0  503 -0.22546796717E+02  0.59413787273E+02  0.31843292257E+03  0.32474601205E+03  0.47000000000E+01 0. -1.
          5    1    4    4  503    0  0.33697119715E+02  0.48420342238E+01  0.50811574259E+02  0.61342051247E+02  0.47000000000E+01 0.  1.
         -5    1    3    3    0  502 -0.25853857077E+02 -0.10087276514E+02  0.32170574613E+01  0.28330452378E+02  0.47000000000E+01 0.  1.
<mgrwt>
<rscale>  0 0.11207744E+03</rscale>
<asrwt>0</asrwt>
<pdfrwt beam="1">  1        1 0.84430609E-01 0.11279403E+03</pdfrwt>
<pdfrwt beam="2">  1       -1 0.40128646E-02 0.11279403E+03</pdfrwt>
<totfact> 0.91841454E+03</totfact>
</mgrwt>
</event>
<event>
 8    1  0.8438969E-004  0.1057316E+03  0.7546771E-02  0.1276009E+00
         -1   -1    0    0    0  501 -0.00000000000E+00  0.00000000000E+00  0.54011328134E+02  0.54011328134E+02  0.00000000000E+00 0.  1.
          1   -1    0    0  501    0  0.00000000000E+00 -0.00000000000E+00 -0.22533460283E+03  0.22533460283E+03  0.00000000000E+00 0. -1.
         23    2    1    2    0    0  0.13399299354E+01  0.17586833835E+02 -0.14290979023E+03  0.16986307761E+03  0.90106408513E+02 0.  0.
         23    2    1    2    0    0 -0.13399299354E+01 -0.17586833835E+02 -0.28413484470E+02  0.10948285336E+03  0.10425006927E+03 0.  0.
          5    1    3    3  502    0  0.30245447011E+02  0.11044694577E+02 -0.10644916021E+02  0.34237064423E+02  0.47000000000E+01 0.  1.
         -5    1    4    4    0  503 -0.32908518214E+02 -0.41014934351E+02  0.10656014809E+02  0.53859410157E+02  0.47000000000E+01 0.  1.
          5    1    4    4  503    0  0.31568588278E+02  0.23428100516E+02 -0.39069499279E+02  0.55623443201E+02  0.47000000000E+01 0. -1.
         -5    1    3    3    0  502 -0.28905517076E+02  0.65421392583E+01 -0.13226487421E+03  0.13562601319E+03  0.47000000000E+01 0. -1.
<mgrwt>
<rscale>  0 0.10206661E+03</rscale>
<asrwt>0</asrwt>
<pdfrwt beam="1">  1        1 0.34666862E-01 0.10573159E+03</pdfrwt>
<pdfrwt beam="2">  1       -1 0.83094351E-02 0.10573159E+03</pdfrwt>
<totfact> 0.94704234E+03</totfact>
</mgrwt>
</event>
<event>
 8    1  0.8438969E-004  0.1076874E+03  0.7546771E-02  0.1272039E+00
          1   -1    0    0  501    0  0.00000000000E+00  0.00000000000E+00  0.36268950388E+02  0.36268950388E+02  0.00000000000E+00 0. -1.
         -1   -1    0    0    0  501 -0.00000000000E+00 -0.00000000000E+00 -0.32789125907E+03  0.32789125907E+03  0.00000000000E+00 0.  1.
         23    2    1    2    0    0  0.45341567536E+02  0.17252902156E+01 -0.20681069358E+03  0.22708508008E+03  0.82086151358E+02 0.  0.
         23    2    1    2    0    0 -0.45341567536E+02 -0.17252902156E+01 -0.84811615101E+02  0.13707512937E+03  0.97661387783E+02 0.  0.
          5    1    3    3  502    0  0.44499059682E+02  0.35127671216E+02 -0.15639460842E+03  0.16641959963E+03  0.47000000000E+01 0.  1.
         -5    1    4    4    0  503 -0.31338845927E+02  0.35128356056E+02 -0.45472658021E+01  0.47527805435E+02  0.47000000000E+01 0. -1.
          5    1    4    4  503    0 -0.14002721608E+02 -0.36853646271E+02 -0.80264349299E+02  0.89547323937E+02  0.47000000000E+01 0.  1.
         -5    1    3    3    0  502  0.84250785379E+00 -0.33402381001E+02 -0.50416085158E+02  0.60665480454E+02  0.47000000000E+01 0. -1.
<mgrwt>
<rscale>  0 0.10403162E+03</rscale>
<asrwt>0</asrwt>
<pdfrwt beam="1">  1        1 0.55798385E-02 0.10768742E+03</pdfrwt>
<pdfrwt beam="2">  1       -1 0.50444809E-01 0.10768742E+03</pdfrwt>
<totfact> 0.54059318E+03</totfact>
</mgrwt>
</event>
<event>
 8    1  0.8438969E-004  0.1024229E+03  0.7546771E-02  0.1275754E+00
         -3   -1    0    0    0  501 -0.00000000000E+00  0.00000000000E+00  0.14701400034E+02  0.14701400034E+02  0.00000000000E+00 0.  1.
          3   -1    0    0  501    0  0.00000000000E+00 -0.00000000000E+00 -0.91786232795E+03  0.91786232795E+03  0.00000000000E+00 0. -1.
         23    2    1    2    0    0 -0.33948030014E+02 -0.29404742937E+02 -0.67656256093E+03  0.68427139880E+03  0.92050750702E+02 0.  0.
         23    2    1    2    0    0  0.33948030014E+02  0.29404742937E+02 -0.22659836698E+03  0.24829232919E+03  0.91022816728E+02 0.  0.
          5    1    4    4  502    0 -0.11466928130E+02 -0.16465715393E+02 -0.11355347962E+02  0.23529644100E+02  0.47000000000E+01 0. -1.
         -5    1    4    4    0  502  0.45414958144E+02  0.45870458330E+02 -0.21524301902E+03  0.22476268509E+03  0.47000000000E+01 0.  1.
          5    1    3    3  503    0 -0.45787769818E+02 -0.56235759118E+02 -0.47037732402E+03  0.47595787358E+03  0.47000000000E+01 0. -1.
         -5    1    3    3    0  503  0.11839739803E+02  0.26831016181E+02 -0.20618523691E+03  0.20831352522E+03  0.47000000000E+01 0.  1.
<mgrwt>
<rscale>  0 0.10219140E+03</rscale>
<asrwt>0</asrwt>
<pdfrwt beam="1">  1        3 0.14120959E+00 0.10242289E+03</pdfrwt>
<pdfrwt beam="2">  1       -3 0.22617538E-02 0.10242289E+03</pdfrwt>
<totfact> 0.69948707E+02</totfact>
</mgrwt>
</event>
<event>
 8    1  0.8438969E-004  0.1184411E+03  0.7546771E-02  0.1247259E+00
          2   -1    0    0  501    0  0.00000000000E+00  0.00000000000E+00  0.30817844226E+02  0.30817844226E+02  0.00000000000E+00 0. -1.
         -2   -1    0    0    0  501 -0.00000000000E+00 -0.00000000000E+00 -0.51674737034E+03  0.51674737034E+03  0.00000000000E+00 0.  1.
         23    2    1    2    0    0  0.61765037257E+02 -0.44003055102E+02 -0.35091150167E+03  0.37036088656E+03  0.90978654683E+02 0.  0.
         23    2    1    2    0    0 -0.61765037257E+02  0.44003055102E+02 -0.13501802444E+03  0.17720432800E+03  0.86141269154E+02 0.  0.
          5    1    3    3  502    0  0.34697944989E+02  0.25719869327E+02 -0.12337302721E+03  0.13079928481E+03  0.47000000000E+01 0. -1.
         -5    1    4    4    0  503 -0.19625375511E+02 -0.25933767008E+02 -0.42431243446E+02  0.53667644401E+02  0.47000000000E+01 0.  1.
          5    1    4    4  503    0 -0.42139661746E+02  0.69936822111E+02 -0.92586780995E+02  0.12353668360E+03  0.47000000000E+01 0. -1.
         -5    1    3    3    0  502  0.27067092268E+02 -0.69722924429E+02 -0.22753847446E+03  0.23956160175E+03  0.47000000000E+01 0.  1.
<mgrwt>
<rscale>  0 0.11751177E+03</rscale>
<asrwt>0</asrwt>
<pdfrwt beam="1">  1        2 0.47412068E-02 0.11844114E+03</pdfrwt>
<pdfrwt beam="2">  1       -2 0.79499595E-01 0.11844114E+03</pdfrwt>
<totfact> 0.23155630E+03</totfact>
</mgrwt>
</event>
<event>
 8    1  0.8438969E-004  0.1048150E+03  0.7546771E-02  0.1270513E+00
         -2   -1    0    0    0  501 -0.00000000000E+00  0.00000000000E+00  0.15323101465E+03  0.15323101465E+03  0.00000000000E+00 0.  1.
          2   -1    0    0  501    0  0.00000000000E+00 -0.00000000000E+00 -0.82330011734E+02  0.82330011734E+02  0.00000000000E+00 0. -1.
         23    2    1    2    0    0 -0.44761238169E+02  0.26946877848E+02  0.77847457841E+02  0.13051609824E+03  0.90799353191E+02 0.  0.
         23    2    1    2    0    0  0.44761238169E+02 -0.26946877848E+02 -0.69464549226E+01  0.10504492814E+03  0.90865180486E+02 0.  0.
          5    1    4    4  502    0  0.56128144414E+02  0.16053686690E+02  0.49148760191E+01  0.58773594904E+02  0.47000000000E+01 0. -1.
         -5    1    3    3    0  503 -0.67174760042E+02  0.31252459297E+02  0.35744638121E+02  0.82394986214E+02  0.47000000000E+01 0.  1.
          5    1    3    3  503    0  0.22413521873E+02 -0.43055814497E+01  0.42102819720E+02  0.48121112028E+02  0.47000000000E+01 0. -1.
         -5    1    4    4    0  502 -0.11366906245E+02 -0.43000564538E+02 -0.11861330942E+02  0.46271333240E+02  0.47000000000E+01 0.  1.
<mgrwt>
<rscale>  0 0.10480073E+03</rscale>
<asrwt>0</asrwt>
<pdfrwt beam="1">  1        2 0.12666156E-01 0.10481500E+03</pdfrwt>
<pdfrwt beam="2">  1       -2 0.23574002E-01 0.10481500E+03</pdfrwt>
<totfact> 0.69865343E+03</totfact>
</mgrwt>
</event>
<event>
 8    1  0.8438969E-004  0.9352486E+02  0.7546771E-02  0.1296951E+00
         -1   -1    0    0    0  501 -0.00000000000E+00  0.00000000000E+00  0.16925464833E+02  0.16925464833E+02  0.00000000000E+00 0.  1.
          1   -1    0    0  501    0  0.00000000000E+00 -0.00000000000E+00 -0.56539864304E+03  0.56539864304E+03  0.00000000000E+00 0. -1.
         23    2    1    2    0    0  0.57041133024E+01 -0.15183723371E+02 -0.38279811648E+03  0.39405747872E+03  0.92107633708E+02 0.  0.
         23    2    1    2    0    0 -0.57041133024E+01  0.15183723371E+02 -0.16567506172E+03  0.18826662915E+03  0.87937564281E+02 0.  0.
          5    1    4    4  502    0 -0.30080675966E+02  0.41837192993E+02 -0.81350121224E+02  0.96411254567E+02  0.47000000000E+01 0. -1.
         -5    1    3    3    0  503 -0.71396389483E+01 -0.45887191858E+02 -0.11429413932E+03  0.12345788393E+03  0.47000000000E+01 0.  1.
          5    1    3    3  503    0  0.12843752251E+02  0.30703468487E+02 -0.26850397716E+03  0.27059959479E+03  0.47000000000E+01 0. -1.
         -5    1    4    4    0  502  0.24376562663E+02 -0.26653469622E+02 -0.84324940493E+02  0.91855374580E+02  0.47000000000E+01 0.  1.
<mgrwt>
<rscale>  0 0.92481538E+02</rscale>
<asrwt>0</asrwt>
<pdfrwt beam="1">  1        1 0.86984410E-01 0.93524855E+02</pdfrwt>
<pdfrwt beam="2">  1       -1 0.26039176E-02 0.93524855E+02</pdfrwt>
<totfact> 0.16267732E+04</totfact>
</mgrwt>
</event>
<event>
 8    1  0.8438969E-004  0.1108229E+03  0.7546771E-02  0.1260171E+00
         -2   -1    0    0    0  501 -0.00000000000E+00  0.00000000000E+00  0.18390882137E+02  0.18390882137E+02  0.00000000000E+00 0.  1.
          2   -1    0    0  501    0  0.00000000000E+00 -0.00000000000E+00 -0.68453605211E+03  0.68453605211E+03  0.00000000000E+00 0. -1.
         23    2    1    2    0    0  0.45374533549E+02  0.39409176504E+02 -0.41154181820E+03  0.42620227058E+03  0.93111631025E+02 0.  0.
         23    2    1    2    0    0 -0.45374533549E+02 -0.39409176504E+02 -0.25460335177E+03  0.27672466367E+03  0.90231597902E+02 0.  0.
          5    1    4    4  502    0 -0.35429552814E+02 -0.65772094537E+02 -0.21668626173E+03  0.22925149434E+03  0.47000000000E+01 0. -1.
         -5    1    4    4    0  502 -0.99449807353E+01  0.26362918033E+02 -0.37917090040E+02  0.47473169329E+02  0.47000000000E+01 0.  1.
          5    1    3    3  503    0 -0.22151948701E+02  0.20158544369E+02 -0.55199896523E+02  0.62977728750E+02  0.47000000000E+01 0. -1.
         -5    1    3    3    0  503  0.67526482251E+02  0.19250632135E+02 -0.35634192168E+03  0.36322454183E+03  0.47000000000E+01 0.  1.
<mgrwt>
<rscale>  0 0.11021577E+03</rscale>
<asrwt>0</asrwt>
<pdfrwt beam="1">  1        2 0.10531323E+00 0.11082286E+03</pdfrwt>
<pdfrwt beam="2">  1       -2 0.28293666E-02 0.11082286E+03</pdfrwt>
<totfact> 0.18550600E+04</totfact>
</mgrwt>
</event>
<event>
 8    1  0.8438969E-004  0.1189106E+03  0.7546771E-02  0.1255125E+00
         -1   -1    0    0    0  501 -0.00000000000E+00  0.00000000000E+00  0.25218127781E+02  0.25218127781E+02  0.00000000000E+00 0.  1.
          1   -1    0    0  501    0  0.00000000000E+00 -0.00000000000E+00 -0.49755533049E+03  0.49755533049E+03  0.00000000000E+00 0. -1.
         23    2    1    2    0    0 -0.11166432583E+02  0.32309147947E+02 -0.32808130605E+03  0.34896573143E+03  0.11389103597E+03 0.  0.
         23    2    1    2    0    0  0.11166432583E+02 -0.32309147947E+02 -0.14425589666E+03  0.17380772685E+03  0.90723712067E+02 0.  0.
          5    1    4    4  502    0 -0.21432679326E+01 -0.48050102285E+02 -0.14480646278E+03  0.15265781209E+03  0.47000000000E+01 0. -1.
         -5    1    4    4    0  502  0.13309700515E+02  0.15740954339E+02  0.55056611895E+00  0.21149914760E+02  0.47000000000E+01 0.  1.
          5    1    3    3  503    0 -0.42241314959E+02  0.24836792241E+01 -0.42643636853E+02  0.60258336486E+02  0.47000000000E+01 0. -1.
         -5    1    3    3    0  503  0.31074882376E+02  0.29825468722E+02 -0.28543766920E+03  0.28870739494E+03  0.47000000000E+01 0.  1.
<mgrwt>
<rscale>  0 0.11299333E+03</rscale>
<asrwt>0</asrwt>
<pdfrwt beam="1">  1        1 0.76546976E-01 0.11891063E+03</pdfrwt>
<pdfrwt beam="2">  1       -1 0.38797119E-02 0.11891063E+03</pdfrwt>
<totfact> 0.11011236E+04</totfact>
</mgrwt>
</event>
<event>
 8    1  0.8438969E-004  0.9285864E+02  0.7546771E-02  0.1300034E+00
          3   -1    0    0  501    0  0.00000000000E+00  0.00000000000E+00  0.13675773919E+03  0.13675773919E+03  0.00000000000E+00 0. -1.
         -3   -1    0    0    0  501 -0.00000000000E+00 -0.00000000000E+00 -0.59161554174E+02  0.59161554174E+02  0.00000000000E+00 0.  1.
         23    2    1    2    0    0 -0.60474142345E+01 -0.26327448086E+02  0.28522682439E+02  0.90891029667E+02  0.81962980172E+02 0.  0.
         23    2    1    2    0    0  0.60474142345E+01  0.26327448086E+02  0.49073502578E+02  0.10502826370E+03  0.88842679937E+02 0.  0.
          5    1    4    4  502    0 -0.15885850410E+02  0.49490626515E+02  0.50675018544E+02  0.72744277167E+02  0.47000000000E+01 0. -1.
         -5    1    3    3    0  503  0.18936344888E+02 -0.17181120476E+02 -0.21699164789E+02  0.33863251632E+02  0.47000000000E+01 0.  1.
          5    1    3    3  503    0 -0.24983759123E+02 -0.91463276098E+01  0.50221847228E+02  0.57027778035E+02  0.47000000000E+01 0. -1.
         -5    1    4    4    0  502  0.21933264644E+02 -0.23163178429E+02 -0.16015159666E+01  0.32283986530E+02  0.47000000000E+01 0.  1.
<mgrwt>
<rscale>  0 0.91173589E+02</rscale>
<asrwt>0</asrwt>
<pdfrwt beam="1">  1        3 0.21039652E-01 0.92858643E+02</pdfrwt>
<pdfrwt beam="2">  1       -3 0.91017776E-02 0.92858643E+02</pdfrwt>
<totfact> 0.37339307E+03</totfact>
</mgrwt>
</event>
<event>
 8    1  0.8438969E-004  0.1341200E+03  0.7546771E-02  0.1221654E+00
          4   -1    0    0  501    0  0.00000000000E+00  0.00000000000E+00  0.10426904718E+03  0.10426904718E+03  0.00000000000E+00 0. -1.
         -4   -1    0    0    0  501 -0.00000000000E+00 -0.00000000000E+00 -0.26627199723E+03  0.26627199723E+03  0.00000000000E+00 0.  1.
         23    2    1    2    0    0  0.41337306009E+02  0.87794930178E+02  0.29226718030E+02  0.13726752110E+03  0.92582118514E+02 0.  0.
         23    2    1    2    0    0 -0.41337306009E+02 -0.87794930178E+02 -0.19122966808E+03  0.23327352331E+03  0.91820629982E+02 0.  0.
          5    1    4    4  502    0  0.13909972325E+02 -0.38723880485E+02 -0.13233635589E+03  0.13866516267E+03  0.47000000000E+01 0. -1.
         -5    1    3    3    0  503  0.56356445003E+01  0.90909272323E+02  0.67623565679E+00  0.91207475449E+02  0.47000000000E+01 0.  1.
          5    1    3    3  503    0  0.35701661508E+02 -0.31143421447E+01  0.28550482373E+02  0.46060045649E+02  0.47000000000E+01 0. -1.
         -5    1    4    4    0  502 -0.55247278334E+02 -0.49071049694E+02 -0.58893312196E+02  0.94608360639E+02  0.47000000000E+01 0.  1.
<mgrwt>
<rscale>  0 0.13398867E+03</rscale>
<asrwt>0</asrwt>
<pdfrwt beam="1">  1        4 0.16041392E-01 0.13411999E+03</pdfrwt>
<pdfrwt beam="2">  1       -4 0.40964923E-01 0.13411999E+03</pdfrwt>
<totfact> 0.32253983E+02</totfact>
</mgrwt>
</event>
<event>
 8    1  0.8438969E-004  0.2262077E+03  0.7546771E-02  0.1132618E+00
         -2   -1    0    0    0  501 -0.00000000000E+00  0.00000000000E+00  0.44805977916E+02  0.44805977916E+02  0.00000000000E+00 0.  1.
          2   -1    0    0  501    0  0.00000000000E+00 -0.00000000000E+00 -0.10798447768E+04  0.10798447768E+04  0.00000000000E+00 0. -1.
         23    2    1    2    0    0 -0.52631008015E+02 -0.18395328593E+03 -0.58155550389E+03  0.61787957785E+03  0.83423822793E+02 0.  0.
         23    2    1    2    0    0  0.52631008015E+02  0.18395328593E+03 -0.45348329499E+03  0.50677117686E+03  0.12066935175E+03 0.  0.
          5    1    3    3  502    0 -0.51047893343E+02 -0.14929786604E+03 -0.35337818543E+03  0.38703226242E+03  0.47000000000E+01 0. -1.
         -5    1    3    3    0  502 -0.15831146720E+01 -0.34655419893E+02 -0.22817731846E+03  0.23084731543E+03  0.47000000000E+01 0.  1.
          5    1    4    4  503    0 -0.24143514384E+02  0.49392015361E+02 -0.21786985008E+03  0.22474839720E+03  0.47000000000E+01 0. -1.
         -5    1    4    4    0  503  0.76774522399E+02  0.13456127057E+03 -0.23561344491E+03  0.28202277967E+03  0.47000000000E+01 0.  1.
<mgrwt>
<rscale>  0 0.22170575E+03</rscale>
<asrwt>0</asrwt>
<pdfrwt beam="1">  1        2 0.16612995E+00 0.22620771E+03</pdfrwt>
<pdfrwt beam="2">  1       -2 0.68932281E-02 0.22620771E+03</pdfrwt>
<totfact> 0.27936548E+03</totfact>
</mgrwt>
</event>
<event>
 8    1  0.8438969E-004  0.1087517E+03  0.7546771E-02  0.1263834E+00
          1   -1    0    0  501    0  0.00000000000E+00  0.00000000000E+00  0.87618436197E+02  0.87618436197E+02  0.00000000000E+00 0. -1.
         -1   -1    0    0    0  501 -0.00000000000E+00 -0.00000000000E+00 -0.22289456385E+03  0.22289456385E+03  0.00000000000E+00 0.  1.
         23    2    1    2    0    0  0.40966762559E+02 -0.40936272978E+02  0.30836900777E+02  0.11303912345E+03  0.92048220517E+02 0.  0.
         23    2    1    2    0    0 -0.40966762559E+02  0.40936272978E+02 -0.16611302843E+03  0.19747387660E+03  0.89712538950E+02 0.  0.
          5    1    4    4  502    0 -0.14420603336E+02 -0.28150008256E+02 -0.40481639251E+02  0.51587109648E+02  0.47000000000E+01 0. -1.
         -5    1    4    4    0  502 -0.26546159223E+02  0.69086281234E+02 -0.12563138918E+03  0.14588676695E+03  0.47000000000E+01 0.  1.
          5    1    3    3  503    0  0.46432784479E+02 -0.66819156084E+02  0.19057337319E+02  0.83702301043E+02  0.47000000000E+01 0. -1.
         -5    1    3    3    0  503 -0.54660219200E+01  0.25882883106E+02  0.11779563459E+02  0.29336822404E+02  0.47000000000E+01 0.  1.
<mgrwt>
<rscale>  0 0.10825588E+03</rscale>
<asrwt>0</asrwt>
<pdfrwt beam="1">  1        1 0.13479760E-01 0.10875168E+03</pdfrwt>
<pdfrwt beam="2">  1       -1 0.34291470E-01 0.10875168E+03</pdfrwt>
<totfact> 0.33090678E+03</totfact>
</mgrwt>
</event>
<event>
 7    1  0.8438969E-004  0.1540070E+03  0.7546771E-02  0.1211328E+00
          2   -1    0    0  501    0  0.00000000000E+00  0.00000000000E+00  0.11688632821E+04  0.11688632821E+04  0.00000000000E+00 0. -1.
         -2   -1    0    0    0  501 -0.00000000000E+00 -0.00000000000E+00 -0.16303675269E+02  0.16303675269E+02  0.00000000000E+00 0.  1.
         23    2    1    2    0    0 -0.24899970208E+02 -0.53568870703E+02  0.31507828608E+03  0.33364295724E+03  0.92486021281E+02 0.  0.
          5    1    1    2  502    0  0.37274674696E+02  0.85574605012E+02  0.77021619279E+03  0.77586563787E+03  0.47000000000E+01 0. -1.
         -5    1    3    3    0  503  0.57340813052E+01 -0.55578198453E+02  0.28480506381E+03  0.29027199349E+03  0.47000000000E+01 0.  1.
          5    1    3    3  503    0 -0.30634051513E+02  0.20093277492E+01  0.30273222265E+02  0.43370963748E+02  0.47000000000E+01 0. -1.
         -5    1    1    2    0  502 -0.12374704488E+02 -0.32005734309E+02  0.67265127982E+02  0.75658362276E+02  0.47000000000E+01 0.  1.
<mgrwt>
<rscale>  0 0.14149743E+03</rscale>
<asrwt>0</asrwt>
<pdfrwt beam="1">  1        2 0.17982505E+00 0.15400701E+03</pdfrwt>
<pdfrwt beam="2">  1       -2 0.25082587E-02 0.15400701E+03</pdfrwt>
<totfact> 0.11202869E+04</totfact>
</mgrwt>
</event>
<event>
 8    1  0.8438969E-004  0.1153042E+03  0.7546771E-02  0.1251238E+00
          2   -1    0    0  501    0  0.00000000000E+00  0.00000000000E+00  0.10845343313E+03  0.10845343313E+03  0.00000000000E+00 0. -1.
         -2   -1    0    0    0  501 -0.00000000000E+00 -0.00000000000E+00 -0.12372886196E+03  0.12372886196E+03  0.00000000000E+00 0.  1.
         23    2    1    2    0    0 -0.70784185550E+02  0.14735371660E+02 -0.20813274049E+02  0.11674516802E+03  0.89267630070E+02 0.  0.
         23    2    1    2    0    0  0.70784185550E+02 -0.14735371660E+02  0.55378452185E+01  0.11543712706E+03  0.89819432601E+02 0.  0.
          5    1    3    3  502    0 -0.72940687767E+02  0.42805598860E+02 -0.68787016671E+01  0.84982761560E+02  0.47000000000E+01 0. -1.
         -5    1    4    4    0  503  0.50822318002E+02 -0.51940586052E+02  0.32814333638E+01  0.72894377639E+02  0.47000000000E+01 0.  1.
          5    1    4    4  503    0  0.19961867548E+02  0.37205214392E+02  0.22564118547E+01  0.42542749422E+02  0.47000000000E+01 0. -1.
         -5    1    3    3    0  502  0.21565022176E+01 -0.28070227200E+02 -0.13934572382E+02  0.31762406464E+02  0.47000000000E+01 0.  1.
<mgrwt>
<rscale>  0 0.11519674E+03</rscale>
<asrwt>0</asrwt>
<pdfrwt beam="1">  1        2 0.16685144E-01 0.11530422E+03</pdfrwt>
<pdfrwt beam="2">  1       -2 0.19035209E-01 0.11530422E+03</pdfrwt>
<totfact> 0.73366701E+03</totfact>
</mgrwt>
</event>
<event>
 8    1  0.8438969E-004  0.9755770E+02  0.7546771E-02  0.1286178E+00
          1   -1    0    0  501    0  0.00000000000E+00  0.00000000000E+00  0.93669502949E+03  0.93669502949E+03  0.00000000000E+00 0. -1.
         -1   -1    0    0    0  501 -0.00000000000E+00 -0.00000000000E+00 -0.10312143285E+02  0.10312143285E+02  0.00000000000E+00 0.  1.
         23    2    1    2    0    0  0.32717455901E+02  0.12243585037E+01  0.54359071243E+03  0.55227562683E+03  0.91899806179E+02 0.  0.
         23    2    1    2    0    0 -0.32717455901E+02 -0.12243585037E+01  0.38279217377E+03  0.39473154594E+03  0.90615749660E+02 0.  0.
          5    1    4    4  502    0 -0.32773518856E+02 -0.41059838047E+02  0.26777968011E+03  0.27292500969E+03  0.47000000000E+01 0. -1.
         -5    1    4    4    0  502  0.56062954989E-01  0.39835479544E+02  0.11501249366E+03  0.12180653624E+03  0.47000000000E+01 0.  1.
          5    1    3    3  503    0 -0.27519951001E+02  0.10915559212E+02  0.28363809389E+03  0.28521773339E+03  0.47000000000E+01 0. -1.
         -5    1    3    3    0  503  0.60237406902E+02 -0.96912007085E+01  0.25995261854E+03  0.26705789344E+03  0.47000000000E+01 0.  1.
<mgrwt>
<rscale>  0 0.97254133E+02</rscale>
<asrwt>0</asrwt>
<pdfrwt beam="1">  1        1 0.14410686E+00 0.97557703E+02</pdfrwt>
<pdfrwt beam="2">  1       -1 0.15864843E-02 0.97557703E+02</pdfrwt>
<totfact> 0.16022087E+04</totfact>
</mgrwt>
</event>
<event>
 8    1  0.8438969E-004  0.9616742E+02  0.7546771E-02  0.1290238E+00
         -3   -1    0    0    0  501 -0.00000000000E+00  0.00000000000E+00  0.88032085800E+02  0.88032085800E+02  0.00000000000E+00 0.  1.
          3   -1    0    0  501    0  0.00000000000E+00 -0.00000000000E+00 -0.12835092665E+03  0.12835092665E+03  0.00000000000E+00 0. -1.
         23    2    1    2    0    0  0.13145618922E+02 -0.18039931565E+02 -0.69072668525E+02  0.11600893515E+03  0.90491950301E+02 0.  0.
         23    2    1    2    0    0 -0.13145618922E+02  0.18039931565E+02  0.28753827676E+02  0.10037407730E+03  0.93541041048E+02 0.  0.
          5    1    4    4  502    0  0.38448156400E+02  0.12368103574E+02 -0.38802604949E+00  0.40662898086E+02  0.47000000000E+01 0. -1.
         -5    1    3    3    0  503  0.18921467758E+02  0.26807387735E+02  0.20361356968E+00  0.33147992968E+02  0.47000000000E+01 0.  1.
          5    1    3    3  503    0 -0.57758488355E+01 -0.44847319300E+02 -0.69276282094E+02  0.82860942180E+02  0.47000000000E+01 0. -1.
         -5    1    4    4    0  502 -0.51593775322E+02  0.56718279909E+01  0.29141853725E+02  0.59711179215E+02  0.47000000000E+01 0.  1.
<mgrwt>
<rscale>  0 0.95417921E+02</rscale>
<asrwt>0</asrwt>
<pdfrwt beam="1">  1        3 0.19746296E-01 0.96167421E+02</pdfrwt>
<pdfrwt beam="2">  1       -3 0.13543398E-01 0.96167421E+02</pdfrwt>
<totfact> 0.21789894E+03</totfact>
</mgrwt>
</event>
<event>
 8    1  0.8438969E-004  0.1022927E+03  0.7546771E-02  0.1275555E+00
          1   -1    0    0  501    0  0.00000000000E+00  0.00000000000E+00  0.39314021767E+02  0.39314021767E+02  0.00000000000E+00 0. -1.
         -1   -1    0    0    0  501 -0.00000000000E+00 -0.00000000000E+00 -0.27910789333E+03  0.27910789333E+03  0.00000000000E+00 0.  1.
         23    2    1    2    0    0 -0.27619443311E+02  0.35743677131E+02 -0.15423508384E+03  0.18506490288E+03  0.91761174184E+02 0.  0.
         23    2    1    2    0    0  0.27619443311E+02 -0.35743677131E+02 -0.85558787727E+02  0.13335701222E+03  0.91778769045E+02 0.  0.
          5    1    3    3  502    0 -0.67252869488E+01 -0.31056801392E+02 -0.47598621432E+02  0.57423628930E+02  0.47000000000E+01 0. -1.
         -5    1    3    3    0  502 -0.20894156362E+02  0.66800478523E+02 -0.10663646241E+03  0.12764127395E+03  0.47000000000E+01 0.  1.
          5    1    4    4  503    0  0.65337246714E+01 -0.53217383192E+02 -0.12587686116E+02  0.55274942548E+02  0.47000000000E+01 0. -1.
         -5    1    4    4    0  503  0.21085718640E+02  0.17473706061E+02 -0.72971101611E+02  0.78082069673E+02  0.47000000000E+01 0.  1.
<mgrwt>
<rscale>  0 0.10228870E+03</rscale>
<asrwt>0</asrwt>
<pdfrwt beam="1">  1        1 0.60483111E-02 0.10229265E+03</pdfrwt>
<pdfrwt beam="2">  1       -1 0.42939676E-01 0.10229265E+03</pdfrwt>
<totfact> 0.64412237E+03</totfact>
</mgrwt>
</event>
<event>
 8    1  0.8438969E-004  0.1438883E+03  0.7546771E-02  0.1208476E+00
          1   -1    0    0  501    0  0.00000000000E+00  0.00000000000E+00  0.45647506044E+03  0.45647506044E+03  0.00000000000E+00 0. -1.
         -1   -1    0    0    0  501 -0.00000000000E+00 -0.00000000000E+00 -0.54170361811E+02  0.54170361811E+02  0.00000000000E+00 0.  1.
         23    2    1    2    0    0 -0.15870163037E+02 -0.10967601015E+03  0.96048979992E+02  0.17227225195E+03  0.90397084898E+02 0.  0.
         23    2    1    2    0    0  0.15870163037E+02  0.10967601015E+03  0.30625571863E+03  0.33837317030E+03  0.91777709186E+02 0.  0.
          5    1    4    4  502    0  0.46173556571E+02  0.91152302847E+02  0.26310160191E+03  0.28228581716E+03  0.47000000000E+01 0. -1.
         -5    1    3    3    0  503 -0.24197684239E+02 -0.36120893830E+02 -0.80354341791E+01  0.44462400925E+02  0.47000000000E+01 0.  1.
          5    1    3    3  503    0  0.83275212025E+01 -0.73555116319E+02  0.10408441417E+03  0.12780985103E+03  0.47000000000E+01 0. -1.
         -5    1    4    4    0  502 -0.30303393534E+02  0.18523707302E+02  0.43154116723E+02  0.56087353138E+02  0.47000000000E+01 0.  1.
<mgrwt>
<rscale>  0 0.14366861E+03</rscale>
<asrwt>0</asrwt>
<pdfrwt beam="1">  1        1 0.70226930E-01 0.14388828E+03</pdfrwt>
<pdfrwt beam="2">  1       -1 0.83339021E-02 0.14388828E+03</pdfrwt>
<totfact> 0.39976981E+03</totfact>
</mgrwt>
</event>
<event>
 8    1  0.8438969E-004  0.1964759E+03  0.7546771E-02  0.1152864E+00
         -1   -1    0    0    0  501 -0.00000000000E+00  0.00000000000E+00  0.62972580545E+02  0.62972580545E+02  0.00000000000E+00 0.  1.
          1   -1    0    0  501    0  0.00000000000E+00 -0.00000000000E+00 -0.15044866517E+04  0.15044866517E+04  0.00000000000E+00 0. -1.
         23    2    1    2    0    0 -0.11193637753E+03 -0.13288612700E+03 -0.13250215221E+04  0.13395091621E+04  0.91729417171E+02 0.  0.
         23    2    1    2    0    0  0.11193637753E+03  0.13288612700E+03 -0.11649254909E+03  0.22795007018E+03  0.90566247229E+02 0.  0.
          5    1    3    3  502    0 -0.93420075889E+02 -0.95556490252E+02 -0.12045247480E+04  0.12119242188E+04  0.47000000000E+01 0. -1.
         -5    1    3    3    0  502 -0.18516301638E+02 -0.37329636748E+02 -0.12049677404E+03  0.12758494331E+03  0.47000000000E+01 0.  1.
          5    1    4    4  503    0  0.43533172815E+02  0.61085718479E+02 -0.35105856579E+00  0.75158601501E+02  0.47000000000E+01 0. -1.
         -5    1    4    4    0  503  0.68403204711E+02  0.71800408521E+02 -0.11614149053E+03  0.15279146868E+03  0.47000000000E+01 0.  1.
<mgrwt>
<rscale>  0 0.19634063E+03</rscale>
<asrwt>0</asrwt>
<pdfrwt beam="1">  1        1 0.23145949E+00 0.19647585E+03</pdfrwt>
<pdfrwt beam="2">  1       -1 0.96880892E-02 0.19647585E+03</pdfrwt>
<totfact> 0.46143830E+02</totfact>
</mgrwt>
</event>
<event>
 8    1  0.8438969E-004  0.9818623E+02  0.7546771E-02  0.1285954E+00
          2   -1    0    0  501    0  0.00000000000E+00  0.00000000000E+00  0.69675525156E+03  0.69675525156E+03  0.00000000000E+00 0. -1.
         -2   -1    0    0    0  501 -0.00000000000E+00 -0.00000000000E+00 -0.13601312289E+02  0.13601312289E+02  0.00000000000E+00 0.  1.
         23    2    1    2    0    0  0.25526404055E+02 -0.19311176223E+02  0.39270081441E+03  0.40478940809E+03  0.92822499587E+02 0.  0.
         23    2    1    2    0    0 -0.25526404055E+02  0.19311176223E+02  0.29045312486E+03  0.30556715576E+03  0.89351833269E+02 0.  0.
          5    1    4    4  502    0 -0.22570364495E+02  0.50316730178E+02  0.11895709105E+03  0.13120241690E+03  0.47000000000E+01 0. -1.
         -5    1    3    3    0  503  0.29653882445E+02 -0.54454200113E+02  0.26457933087E+03  0.27178838271E+03  0.47000000000E+01 0.  1.
          5    1    3    3  503    0 -0.41274783903E+01  0.35143023890E+02  0.12812148355E+03  0.13300102538E+03  0.47000000000E+01 0. -1.
         -5    1    4    4    0  502 -0.29560395593E+01 -0.31005553955E+02  0.17149603381E+03  0.17436473886E+03  0.47000000000E+01 0.  1.
<mgrwt>
<rscale>  0 0.97357205E+02</rscale>
<asrwt>0</asrwt>
<pdfrwt beam="1">  1        2 0.10719309E+00 0.98186227E+02</pdfrwt>
<pdfrwt beam="2">  1       -2 0.20925101E-02 0.98186227E+02</pdfrwt>
<totfact> 0.27825525E+04</totfact>
</mgrwt>
</event>
<event>
 8    1  0.8438969E-004  0.9388060E+02  0.7546771E-02  0.1293986E+00
         -2   -1    0    0    0  501 -0.00000000000E+00  0.00000000000E+00  0.47532099938E+02  0.47532099938E+02  0.00000000000E+00 0.  1.
          2   -1    0    0  501    0  0.00000000000E+00 -0.00000000000E+00 -0.37026034940E+03  0.37026034940E+03  0.00000000000E+00 0. -1.
         23    2    1    2    0    0  0.10232697460E+02 -0.17161418901E+01 -0.13602306735E+02  0.94860895881E+02  0.93305485255E+02 0.  0.
         23    2    1    2    0    0 -0.10232697460E+02  0.17161418901E+01 -0.30912594273E+03  0.32293155346E+03  0.92834726860E+02 0.  0.
          5    1    3    3  502    0  0.16265232042E+02  0.30894712407E+02  0.25413449738E+02  0.43439319236E+02  0.47000000000E+01 0. -1.
         -5    1    4    4    0  503  0.22563037590E+02 -0.45386563104E+01 -0.17321811385E+02  0.29186044886E+02  0.47000000000E+01 0.  1.
          5    1    4    4  503    0 -0.32795735049E+02  0.62547982005E+01 -0.29180413134E+03  0.29374550857E+03  0.47000000000E+01 0. -1.
         -5    1    3    3    0  502 -0.60325345829E+01 -0.32610854297E+02 -0.39015756473E+02  0.51421576645E+02  0.47000000000E+01 0.  1.
<mgrwt>
<rscale>  0 0.93763415E+02</rscale>
<asrwt>0</asrwt>
<pdfrwt beam="1">  1        2 0.56963131E-01 0.93880599E+02</pdfrwt>
<pdfrwt beam="2">  1       -2 0.73126307E-02 0.93880599E+02</pdfrwt>
<totfact> 0.87449989E+03</totfact>
</mgrwt>
</event>
<event>
 8    1  0.8438969E-004  0.1285723E+03  0.7546771E-02  0.1229652E+00
         -1   -1    0    0    0  501 -0.00000000000E+00  0.00000000000E+00  0.25419660171E+02  0.25419660171E+02  0.00000000000E+00 0.  1.
          1   -1    0    0  501    0  0.00000000000E+00 -0.00000000000E+00 -0.73318449760E+03  0.73318449760E+03  0.00000000000E+00 0. -1.
         23    2    1    2    0    0  0.90376737031E+02  0.57799956328E+01 -0.22592130514E+03  0.25994474979E+03  0.91265951384E+02 0.  0.
         23    2    1    2    0    0 -0.90376737031E+02 -0.57799956328E+01 -0.48184353229E+03  0.49865940798E+03  0.91031053013E+02 0.  0.
          5    1    3    3  502    0  0.21512088062E+02  0.13578458236E+01 -0.16881431142E+03  0.17024974425E+03  0.47000000000E+01 0. -1.
         -5    1    4    4    0  503 -0.44308989591E+02  0.42374861087E+02 -0.24119069907E+03  0.24890552169E+03  0.47000000000E+01 0.  1.
          5    1    4    4  503    0 -0.46067747440E+02 -0.48154856720E+02 -0.24065283323E+03  0.24975388630E+03  0.47000000000E+01 0. -1.
         -5    1    3    3    0  502  0.68864648969E+02  0.44221498092E+01 -0.57106993715E+02  0.89695005534E+02  0.47000000000E+01 0.  1.
<mgrwt>
<rscale>  0 0.12853062E+03</rscale>
<asrwt>0</asrwt>
<pdfrwt beam="1">  1        1 0.11279761E+00 0.12857230E+03</pdfrwt>
<pdfrwt beam="2">  1       -1 0.39107170E-02 0.12857230E+03</pdfrwt>
<totfact> 0.64471635E+03</totfact>
</mgrwt>
</event>
<event>
 8    1  0.8438969E-004  0.1188373E+03  0.7546771E-02  0.1245664E+00
         -1   -1    0    0    0  501 -0.00000000000E+00  0.00000000000E+00  0.30903573134E+03  0.30903573134E+03  0.00000000000E+00 0.  1.
          1   -1    0    0  501    0  0.00000000000E+00 -0.00000000000E+00 -0.50691956754E+02  0.50691956754E+02  0.00000000000E+00 0. -1.
         23    2    1    2    0    0  0.64983380479E+02  0.36287572032E+02  0.68793203451E+02  0.13600524962E+03  0.90693414648E+02 0.  0.
         23    2    1    2    0    0 -0.64983380479E+02 -0.36287572032E+02  0.18955057113E+03  0.22372243847E+03  0.92642770018E+02 0.  0.
          5    1    4    4  502    0  0.58699495506E+01 -0.44805570650E+02  0.93672488327E+02  0.10410869579E+03  0.47000000000E+01 0. -1.
         -5    1    3    3    0  503  0.32699709590E+02  0.31258207529E+02  0.87100142048E+02  0.98259204607E+02  0.47000000000E+01 0.  1.
          5    1    3    3  503    0  0.32283670889E+02  0.50293645034E+01 -0.18306938596E+02  0.37746045013E+02  0.47000000000E+01 0. -1.
         -5    1    4    4    0  502 -0.70853330030E+02  0.85179986174E+01  0.95878082803E+02  0.11961374268E+03  0.47000000000E+01 0.  1.
<mgrwt>
<rscale>  0 0.11845718E+03</rscale>
<asrwt>0</asrwt>
<pdfrwt beam="1">  1        1 0.77987628E-02 0.11883733E+03</pdfrwt>
<pdfrwt beam="2">  1       -1 0.47543957E-01 0.11883733E+03</pdfrwt>
<totfact> 0.38618579E+03</totfact>
</mgrwt>
</event>
<event>
 8    1  0.8438969E-004  0.9918449E+02  0.7546771E-02  0.1287761E+00
         -1   -1    0    0    0  501 -0.00000000000E+00  0.00000000000E+00  0.22916636426E+03  0.22916636426E+03  0.00000000000E+00 0.  1.
          1   -1    0    0  501    0  0.00000000000E+00 -0.00000000000E+00 -0.28181566819E+03  0.28181566819E+03  0.00000000000E+00 0. -1.
         23    2    1    2    0    0  0.18144468796E+02 -0.23917091887E+01  0.21076691194E+03  0.23293830616E+03  0.97481389419E+02 0.  0.
         23    2    1    2    0    0 -0.18144468796E+02  0.23917091887E+01 -0.26341621587E+03  0.27804372630E+03  0.87093449404E+02 0.  0.
          5    1    3    3  502    0 -0.29100530645E+02  0.59958408555E+01  0.19880186191E+02  0.36056938228E+02  0.47000000000E+01 0. -1.
         -5    1    4    4    0  503 -0.14192249551E+02 -0.24744474651E+02 -0.25630196597E+02  0.38635552936E+02  0.47000000000E+01 0.  1.
          5    1    4    4  503    0 -0.39522192456E+01  0.27136183840E+02 -0.23778601927E+03  0.23940817336E+03  0.47000000000E+01 0. -1.
         -5    1    3    3    0  502  0.47244999441E+02 -0.83875500442E+01  0.19088672575E+03  0.19688136793E+03  0.47000000000E+01 0.  1.
<mgrwt>
<rscale>  0 0.96532804E+02</rscale>
<asrwt>0</asrwt>
<pdfrwt beam="1">  1        1 0.43356256E-01 0.99184491E+02</pdfrwt>
<pdfrwt beam="2">  1       -1 0.35256364E-01 0.99184491E+02</pdfrwt>
<totfact> 0.72967123E+02</totfact>
</mgrwt>
</event>
<event>
 8    1  0.8438969E-004  0.1020863E+03  0.7546771E-02  0.1282137E+00
         -1   -1    0    0    0  501 -0.00000000000E+00  0.00000000000E+00  0.32354233800E+03  0.32354233800E+03  0.00000000000E+00 0.  1.
          1   -1    0    0  501    0  0.00000000000E+00 -0.00000000000E+00 -0.25920842130E+03  0.25920842130E+03  0.00000000000E+00 0. -1.
         23    2    1    2    0    0  0.28482592865E+02 -0.72481398997E-01  0.30707293590E+03  0.32359759924E+03  0.98032417725E+02 0.  0.
         23    2    1    2    0    0 -0.28482592865E+02  0.72481398997E-01 -0.24273901920E+03  0.25915316005E+03  0.86179264181E+02 0.  0.
          5    1    3    3  502    0 -0.10216064030E+02  0.18233238202E+02  0.10396760138E+02  0.23811794577E+02  0.47000000000E+01 0. -1.
         -5    1    3    3    0  502  0.38698656896E+02 -0.18305719601E+02  0.29667617576E+03  0.29978580467E+03  0.47000000000E+01 0.  1.
          5    1    4    4  503    0 -0.23857997933E+02  0.31151858247E+02 -0.49599819335E+02  0.63418249863E+02  0.47000000000E+01 0. -1.
         -5    1    4    4    0  503 -0.46245949317E+01 -0.31079376848E+02 -0.19313919986E+03  0.19573491019E+03  0.47000000000E+01 0.  1.
<mgrwt>
<rscale>  0 0.99129807E+02</rscale>
<asrwt>0</asrwt>
<pdfrwt beam="1">  1        1 0.39878219E-01 0.10208633E+03</pdfrwt>
<pdfrwt beam="2">  1       -1 0.49775744E-01 0.10208633E+03</pdfrwt>
<totfact> 0.44145433E+02</totfact>
</mgrwt>
</event>
<event>
 7    1  0.8438969E-004  0.1970325E+03  0.7546771E-02  0.1166717E+00
          2   -1    0    0  501    0  0.00000000000E+00  0.00000000000E+00  0.60257306286E+03  0.60257306286E+03  0.00000000000E+00 0. -1.
         -2   -1    0    0    0  501 -0.00000000000E+00 -0.00000000000E+00 -0.49107009194E+02  0.49107009194E+02  0.00000000000E+00 0.  1.
         23    2    1    2    0    0 -0.78950194630E+02 -0.65033926043E+02  0.17103746586E+03  0.22147847773E+03  0.96624823931E+02 0.  0.
          5    1    3    3  502    0 -0.27773806347E+02 -0.12417655120E+02 -0.45408869798E+01  0.31117392761E+02  0.47000000000E+01 0. -1.
         -5    1    1    2    0  503 -0.16118205827E+02  0.63599840115E+02  0.45243286782E+02  0.79835964456E+02  0.47000000000E+01 0.  1.
          5    1    1    2  503    0  0.95068400457E+02  0.14340859272E+01  0.33718530103E+03  0.35036562987E+03  0.47000000000E+01 0. -1.
         -5    1    3    3    0  502 -0.51176388283E+02 -0.52616270922E+02  0.17557835284E+03  0.19036108497E+03  0.47000000000E+01 0.  1.
<mgrwt>
<rscale>  0 0.18112711E+03</rscale>
<asrwt>0</asrwt>
<pdfrwt beam="1">  1        2 0.92703543E-01 0.19703245E+03</pdfrwt>
<pdfrwt beam="2">  1       -2 0.75549249E-02 0.19703245E+03</pdfrwt>
<totfact> 0.51062390E+03</totfact>
</mgrwt>
</event>
<event>
 8    1  0.8438969E-004  0.9192362E+02  0.7546771E-02  0.1299235E+00
          2   -1    0    0  501    0  0.00000000000E+00  0.00000000000E+00  0.45265570236E+03  0.45265570236E+03  0.00000000000E+00 0. -1.
         -2   -1    0    0    0  501 -0.00000000000E+00 -0.00000000000E+00 -0.18346988319E+02  0.18346988319E+02  0.00000000000E+00 0.  1.
         23    2    1    2    0    0 -0.90450737746E-01 -0.11792881722E+02  0.21323408409E+03  0.23220406142E+03  0.91163980159E+02 0.  0.
         23    2    1    2    0    0  0.90450737746E-01  0.11792881722E+02  0.22107462995E+03  0.23879862926E+03  0.89508173315E+02 0.  0.
          5    1    3    3  502    0 -0.96896988664E+01 -0.38385031928E+02  0.39498981914E+02  0.56120945399E+02  0.47000000000E+01 0. -1.
         -5    1    3    3    0  502  0.95992481287E+01  0.26592150206E+02  0.17373510218E+03  0.17608311602E+03  0.47000000000E+01 0.  1.
          5    1    4    4  503    0 -0.42380687615E+02  0.19451290217E+02  0.11573157120E+03  0.12486137092E+03  0.47000000000E+01 0. -1.
         -5    1    4    4    0  503  0.42471138353E+02 -0.76584084956E+01  0.10534305874E+03  0.11393725834E+03  0.47000000000E+01 0.  1.
<mgrwt>
<rscale>  0 0.91510371E+02</rscale>
<asrwt>0</asrwt>
<pdfrwt beam="1">  1        2 0.69639330E-01 0.91923618E+02</pdfrwt>
<pdfrwt beam="2">  1       -2 0.28226139E-02 0.91923618E+02</pdfrwt>
<totfact> 0.28925154E+04</totfact>
</mgrwt>
</event>
<event>
 8    1  0.8438969E-004  0.1877254E+03  0.7546771E-02  0.1160937E+00
          3   -1    0    0  501    0  0.00000000000E+00  0.00000000000E+00  0.40200518314E+03  0.40200518314E+03  0.00000000000E+00 0. -1.
         -3   -1    0    0    0  501 -0.00000000000E+00 -0.00000000000E+00 -0.88455150978E+02  0.88455150978E+02  0.00000000000E+00 0.  1.
         23    2    1    2    0    0  0.15359330189E+03  0.50863581802E+02  0.18921912784E+03  0.26529592047E+03  0.91651736136E+02 0.  0.
         23    2    1    2    0    0 -0.15359330189E+03 -0.50863581802E+02  0.12433090431E+03  0.22516441364E+03  0.95198913151E+02 0.  0.
          5    1    3    3  502    0  0.53358264811E+02  0.48880227972E+01  0.12854043103E+03  0.13934033730E+03  0.47000000000E+01 0. -1.
         -5    1    3    3    0  502  0.10023503708E+03  0.45975559005E+02  0.60678696818E+02  0.12595558317E+03  0.47000000000E+01 0.  1.
          5    1    4    4  503    0 -0.50825114314E+02 -0.65948474663E+02  0.48472303829E+02  0.96457492161E+02  0.47000000000E+01 0. -1.
         -5    1    4    4    0  503 -0.10276818758E+03  0.15084892861E+02  0.75858600484E+02  0.12870692148E+03  0.47000000000E+01 0.  1.
<mgrwt>
<rscale>  0 0.18728043E+03</rscale>
<asrwt>0</asrwt>
<pdfrwt beam="1">  1        3 0.61846950E-01 0.18772544E+03</pdfrwt>
<pdfrwt beam="2">  1       -3 0.13608485E-01 0.18772544E+03</pdfrwt>
<totfact> 0.27514548E+02</totfact>
</mgrwt>
</event>
<event>
 8    1  0.8438969E-004  0.1043682E+03  0.7546771E-02  0.1271524E+00
         -2   -1    0    0    0  501 -0.00000000000E+00  0.00000000000E+00  0.33347556510E+03  0.33347556510E+03  0.00000000000E+00 0.  1.
          2   -1    0    0  501    0  0.00000000000E+00 -0.00000000000E+00 -0.86996516564E+02  0.86996516564E+02  0.00000000000E+00 0. -1.
         23    2    1    2    0    0  0.19580491942E+02  0.46675493631E+02  0.28960092215E+03  0.30783342837E+03  0.91272822590E+02 0.  0.
         23    2    1    2    0    0 -0.19580491942E+02 -0.46675493631E+02 -0.43121873618E+02  0.11263865329E+03  0.90917395804E+02 0.  0.
          5    1    4    4  502    0 -0.20568884629E+02 -0.70229489342E+02 -0.48613336303E+02  0.87980717516E+02  0.47000000000E+01 0. -1.
         -5    1    3    3    0  503  0.44648948208E+02  0.59763670850E+02  0.18953435111E+03  0.20374146652E+03  0.47000000000E+01 0.  1.
          5    1    3    3  503    0 -0.25068456266E+02 -0.13088177219E+02  0.10006657104E+03  0.10409196185E+03  0.47000000000E+01 0. -1.
         -5    1    4    4    0  502  0.98839268706E+00  0.23553995711E+02  0.54914626855E+01  0.24657935771E+02  0.47000000000E+01 0.  1.
<mgrwt>
<rscale>  0 0.10429046E+03</rscale>
<asrwt>0</asrwt>
<pdfrwt beam="1">  1        2 0.13384080E-01 0.10436822E+03</pdfrwt>
<pdfrwt beam="2">  1       -2 0.51303933E-01 0.10436822E+03</pdfrwt>
<totfact> 0.15657400E+03</totfact>
</mgrwt>
</event>
<event>
 8    1  0.8438969E-004  0.1030556E+03  0.7546771E-02  0.1276196E+00
          1   -1    0    0  501    0  0.00000000000E+00  0.00000000000E+00  0.18254751419E+03  0.18254751419E+03  0.00000000000E+00 0. -1.
         -1   -1    0    0    0  501 -0.00000000000E+00 -0.00000000000E+00 -0.57775962941E+02  0.57775962941E+02  0.00000000000E+00 0.  1.
         23    2    1    2    0    0 -0.48178354501E+02  0.57678229300E+01  0.85859574655E+02  0.13413544346E+03  0.90917704599E+02 0.  0.
         23    2    1    2    0    0  0.48178354501E+02 -0.57678229300E+01  0.38911976596E+02  0.10618803367E+03  0.86065875632E+02 0.  0.
          5    1    4    4  502    0 -0.90974036354E+01  0.29445857840E+02  0.15687714659E+02  0.34900081491E+02  0.47000000000E+01 0. -1.
         -5    1    4    4    0  502  0.57275758136E+02 -0.35213680770E+02  0.23224261937E+02  0.71287952180E+02  0.47000000000E+01 0.  1.
          5    1    3    3  503    0 -0.12659142503E+02 -0.36184713730E+02  0.64085828063E+02  0.74824265818E+02  0.47000000000E+01 0. -1.
         -5    1    3    3    0  503 -0.35519211998E+02  0.41952536660E+02  0.21773746592E+02  0.59311177646E+02  0.47000000000E+01 0.  1.
<mgrwt>
<rscale>  0 0.10197521E+03</rscale>
<asrwt>0</asrwt>
<pdfrwt beam="1">  1        1 0.28084233E-01 0.10305557E+03</pdfrwt>
<pdfrwt beam="2">  1       -1 0.88886097E-02 0.10305557E+03</pdfrwt>
<totfact> 0.11068446E+04</totfact>
</mgrwt>
</event>
<event>
 8    1  0.8438969E-004  0.9839769E+02  0.7546771E-02  0.1286367E+00
          1   -1    0    0  501    0  0.00000000000E+00  0.00000000000E+00  0.13250047455E+03  0.13250047455E+03  0.00000000000E+00 0. -1.
         -1   -1    0    0    0  501 -0.00000000000E+00 -0.00000000000E+00 -0.70249272571E+02  0.70249272571E+02  0.00000000000E+00 0.  1.
         23    2    1    2    0    0  0.13093485745E+02 -0.13896040010E+02  0.20099231726E+02  0.95703519373E+02  0.91600465105E+02 0.  0.
         23    2    1    2    0    0 -0.13093485745E+02  0.13896040010E+02  0.42151970256E+02  0.10704622775E+03  0.96527545200E+02 0.  0.
          5    1    4    4  502    0 -0.51201409647E+02  0.24328823933E+01  0.42839920758E+02  0.66969038197E+02  0.47000000000E+01 0. -1.
         -5    1    4    4    0  502  0.38107923901E+02  0.11463157617E+02 -0.68795050228E+00  0.40077189554E+02  0.47000000000E+01 0.  1.
          5    1    3    3  503    0 -0.89467516503E+01 -0.28440941536E+02  0.48191220444E+02  0.56863127319E+02  0.47000000000E+01 0. -1.
         -5    1    3    3    0  503  0.22040237395E+02  0.14544901527E+02 -0.28091988718E+02  0.38840392055E+02  0.47000000000E+01 0.  1.
<mgrwt>
<rscale>  0 0.97167685E+02</rscale>
<asrwt>0</asrwt>
<pdfrwt beam="1">  1        1 0.20384688E-01 0.98397694E+02</pdfrwt>
<pdfrwt beam="2">  1       -1 0.10807580E-01 0.98397694E+02</pdfrwt>
<totfact> 0.12226702E+04</totfact>
</mgrwt>
</event>
<event>
 8    1  0.8438969E-004  0.1022411E+03  0.7546771E-02  0.1277697E+00
          2   -1    0    0  501    0  0.00000000000E+00  0.00000000000E+00  0.17159546046E+03  0.17159546046E+03  0.00000000000E+00 0. -1.
         -2   -1    0    0    0  501 -0.00000000000E+00 -0.00000000000E+00 -0.24389104392E+03  0.24389104392E+03  0.00000000000E+00 0.  1.
         23    2    1    2    0    0  0.37977153707E+02 -0.21513294245E+02 -0.21738170249E+03  0.24022498582E+03  0.92456223160E+02 0.  0.
         23    2    1    2    0    0 -0.37977153707E+02  0.21513294245E+02  0.14508611903E+03  0.17526151856E+03  0.88099556862E+02 0.  0.
          5    1    4    4  502    0 -0.47270723161E+02  0.40163747309E+02  0.14015289176E+03  0.15333809355E+03  0.47000000000E+01 0. -1.
         -5    1    3    3    0  503  0.60614890808E+02  0.11556300457E+02 -0.13039038704E+03  0.14433106422E+03  0.47000000000E+01 0.  1.
          5    1    3    3  503    0 -0.22637737101E+02 -0.33069594702E+02 -0.86991315455E+02  0.95893921598E+02  0.47000000000E+01 0. -1.
         -5    1    4    4    0  502  0.92935694537E+01 -0.18650453064E+02  0.49332272720E+01  0.21923425006E+02  0.47000000000E+01 0.  1.
<mgrwt>
<rscale>  0 0.10124612E+03</rscale>
<asrwt>0</asrwt>
<pdfrwt beam="1">  1        2 0.26399302E-01 0.10224108E+03</pdfrwt>
<pdfrwt beam="2">  1       -2 0.37521699E-01 0.10224108E+03</pdfrwt>
<totfact> 0.13218629E+03</totfact>
</mgrwt>
</event>
<event>
 8    1  0.8438969E-004  0.9414643E+02  0.7546771E-02  0.1293677E+00
          1   -1    0    0  501    0  0.00000000000E+00  0.00000000000E+00  0.69215521822E+02  0.69215521822E+02  0.00000000000E+00 0. -1.
         -1   -1    0    0    0  501 -0.00000000000E+00 -0.00000000000E+00 -0.21300013381E+03  0.21300013381E+03  0.00000000000E+00 0.  1.
         23    2    1    2    0    0  0.17213211439E+01  0.22417454410E+02 -0.16147659179E+03  0.18642131477E+03  0.90403051372E+02 0.  0.
         23    2    1    2    0    0 -0.17213211439E+01 -0.22417454410E+02  0.17691979801E+02  0.95794340859E+02  0.91422340719E+02 0.  0.
          5    1    3    3  502    0  0.26134870879E+02  0.15480818707E+01 -0.55760197091E+01  0.27177380837E+02  0.47000000000E+01 0. -1.
         -5    1    3    3    0  502 -0.24413549735E+02  0.20869372540E+02 -0.15590057208E+03  0.15924393393E+03  0.47000000000E+01 0.  1.
          5    1    4    4  503    0 -0.12385673354E+00 -0.56083415503E+02  0.24001534592E+02  0.61184381158E+02  0.47000000000E+01 0. -1.
         -5    1    4    4    0  503 -0.15974644104E+01  0.33665961092E+02 -0.63095547905E+01  0.34609959700E+02  0.47000000000E+01 0.  1.
<mgrwt>
<rscale>  0 0.93898076E+02</rscale>
<asrwt>0</asrwt>
<pdfrwt beam="1">  1        1 0.10648542E-01 0.94146426E+02</pdfrwt>
<pdfrwt beam="2">  1       -1 0.32769251E-01 0.94146426E+02</pdfrwt>
<totfact> 0.48090504E+03</totfact>
</mgrwt>
</event>
<event>
 8    1  0.8438969E-004  0.1105324E+03  0.7546771E-02  0.1259990E+00
          1   -1    0    0  501    0  0.00000000000E+00  0.00000000000E+00  0.46197627563E+03  0.46197627563E+03  0.00000000000E+00 0. -1.
         -1   -1    0    0    0  501 -0.00000000000E+00 -0.00000000000E+00 -0.53594826490E+02  0.53594826490E+02  0.00000000000E+00 0.  1.
         23    2    1    2    0    0  0.61973459740E+02  0.99789238683E+01  0.20411364022E+02  0.11240127125E+03  0.90978752267E+02 0.  0.
         23    2    1    2    0    0 -0.61973459740E+02 -0.99789238683E+01  0.38797008512E+03  0.40316983087E+03  0.89915721327E+02 0.  0.
          5    1    3    3  502    0 -0.22093501332E+02  0.11488449837E+02 -0.14987583133E+01  0.25385892879E+02  0.47000000000E+01 0. -1.
         -5    1    4    4    0  503 -0.16794937666E+02 -0.13102505168E+02  0.12891988563E+02  0.25338487366E+02  0.47000000000E+01 0.  1.
          5    1    4    4  503    0 -0.45178522073E+02  0.31235812999E+01  0.37507809655E+03  0.37783134350E+03  0.47000000000E+01 0. -1.
         -5    1    3    3    0  502  0.84066961072E+02 -0.15095259692E+01  0.21910122335E+02  0.87015378373E+02  0.47000000000E+01 0.  1.
<mgrwt>
<rscale>  0 0.11031347E+03</rscale>
<asrwt>0</asrwt>
<pdfrwt beam="1">  1        1 0.71073270E-01 0.11053245E+03</pdfrwt>
<pdfrwt beam="2">  1       -1 0.82453582E-02 0.11053245E+03</pdfrwt>
<totfact> 0.39498461E+03</totfact>
</mgrwt>
</event>
<event>
 8    1  0.8438969E-004  0.9781053E+02  0.7546771E-02  0.1287581E+00
          1   -1    0    0  501    0  0.00000000000E+00  0.00000000000E+00  0.39437690659E+02  0.39437690659E+02  0.00000000000E+00 0. -1.
         -1   -1    0    0    0  501 -0.00000000000E+00 -0.00000000000E+00 -0.25671206457E+03  0.25671206457E+03  0.00000000000E+00 0.  1.
         23    2    1    2    0    0 -0.23291052042E+01  0.27109982414E+02 -0.15782761488E+03  0.18567836672E+03  0.93949582065E+02 0.  0.
         23    2    1    2    0    0  0.23291052042E+01 -0.27109982414E+02 -0.59446759031E+02  0.11047138851E+03  0.89048496017E+02 0.  0.
          5    1    4    4  502    0 -0.35585440169E+02  0.73623950879E+01 -0.75968500593E+01  0.37420990691E+02  0.47000000000E+01 0. -1.
         -5    1    4    4    0  502  0.37914545373E+02 -0.34472377502E+02 -0.51849908972E+02  0.73050397822E+02  0.47000000000E+01 0.  1.
          5    1    3    3  503    0 -0.31319455916E+02 -0.17725719389E+02 -0.30065187574E+02  0.47128706227E+02  0.47000000000E+01 0. -1.
         -5    1    3    3    0  503  0.28990350712E+02  0.44835701803E+02 -0.12776242731E+03  0.13854966049E+03  0.47000000000E+01 0.  1.
<mgrwt>
<rscale>  0 0.96614356E+02</rscale>
<asrwt>0</asrwt>
<pdfrwt beam="1">  1        1 0.60673372E-02 0.97810530E+02</pdfrwt>
<pdfrwt beam="2">  1       -1 0.39494163E-01 0.97810530E+02</pdfrwt>
<totfact> 0.73954260E+03</totfact>
</mgrwt>
</event>
<event>
 7    1  0.8438969E-004  0.1774920E+03  0.7546771E-02  0.1180280E+00
          2   -1    0    0  501    0  0.00000000000E+00  0.00000000000E+00  0.56597472731E+03  0.56597472731E+03  0.00000000000E+00 0. -1.
         -2   -1    0    0    0  501 -0.00000000000E+00 -0.00000000000E+00 -0.53388791724E+02  0.53388791724E+02  0.00000000000E+00 0.  1.
         23    2    1    2    0    0  0.10463926411E+03 -0.24390985618E+02  0.10923177719E+03  0.17868449780E+03  0.91936243306E+02 0.  0.
          5    1    1    2  502    0 -0.13253282878E+03  0.51184612938E+01  0.24467977014E+03  0.27835486212E+03  0.47000000000E+01 0. -1.
         -5    1    1    2    0  502  0.27893564672E+02  0.19272524324E+02  0.15867438826E+03  0.16232415912E+03  0.47000000000E+01 0.  1.
          5    1    3    3  503    0  0.77226780713E+01  0.27091900307E+02  0.38884250843E+02  0.48246096034E+02  0.47000000000E+01 0. -1.
         -5    1    3    3    0  503  0.96916586036E+02 -0.51482885925E+02  0.70347526348E+02  0.13043840177E+03  0.47000000000E+01 0.  1.
<mgrwt>
<rscale>  0 0.16768862E+03</rscale>
<asrwt>0</asrwt>
<pdfrwt beam="1">  1        2 0.87073031E-01 0.17749204E+03</pdfrwt>
<pdfrwt beam="2">  1       -2 0.82136606E-02 0.17749204E+03</pdfrwt>
<totfact> 0.47960169E+03</totfact>
</mgrwt>
</event>
<event>
 8    1  0.8438969E-004  0.9812691E+02  0.7546771E-02  0.1287155E+00
          1   -1    0    0  501    0  0.00000000000E+00  0.00000000000E+00  0.37108872093E+03  0.37108872093E+03  0.00000000000E+00 0. -1.
         -1   -1    0    0    0  501 -0.00000000000E+00 -0.00000000000E+00 -0.29769907524E+02  0.29769907524E+02  0.00000000000E+00 0.  1.
         23    2    1    2    0    0 -0.10110425663E+02  0.21507109599E+02  0.90965081557E+02  0.13380409863E+03  0.95205642045E+02 0.  0.
         23    2    1    2    0    0  0.10110425663E+02 -0.21507109599E+02  0.25035373185E+03  0.26705452982E+03  0.89868539423E+02 0.  0.
          5    1    3    3  502    0  0.95597168965E+01 -0.21958159610E+02  0.81320269300E+02  0.84903622771E+02  0.47000000000E+01 0. -1.
         -5    1    3    3    0  502 -0.19670142559E+02  0.43465269210E+02  0.96448122566E+01  0.48900475859E+02  0.47000000000E+01 0.  1.
          5    1    4    4  503    0  0.35706238315E+02 -0.48807398371E+00  0.21644836938E+03  0.21942461183E+03  0.47000000000E+01 0. -1.
         -5    1    4    4    0  503 -0.25595812652E+02 -0.21019035616E+02  0.33905362465E+02  0.47629917987E+02  0.47000000000E+01 0.  1.
<mgrwt>
<rscale>  0 0.96808261E+02</rscale>
<asrwt>0</asrwt>
<pdfrwt beam="1">  1        1 0.57090569E-01 0.98126911E+02</pdfrwt>
<pdfrwt beam="2">  1       -1 0.45799860E-02 0.98126911E+02</pdfrwt>
<totfact> 0.12317331E+04</totfact>
</mgrwt>
</event>
<event>
 8    1  0.8438969E-004  0.9511922E+02  0.7546771E-02  0.1300852E+00
         -2   -1    0    0    0  501 -0.00000000000E+00  0.00000000000E+00  0.89520414366E+01  0.89520414366E+01  0.00000000000E+00 0.  1.
          2   -1    0    0  501    0  0.00000000000E+00 -0.00000000000E+00 -0.90937550507E+03  0.90937550507E+03  0.00000000000E+00 0. -1.
         23    2    1    2    0    0 -0.60871619746E+01  0.25158063099E+02 -0.36957269762E+03  0.38161714435E+03  0.91529691125E+02 0.  0.
         23    2    1    2    0    0  0.60871619746E+01 -0.25158063099E+02 -0.53085076601E+03  0.53671040215E+03  0.74736459134E+02 0.  0.
          5    1    4    4  502    0 -0.18187410394E+02  0.20103592357E+02 -0.18687613846E+03  0.18889075533E+03  0.47000000000E+01 0. -1.
         -5    1    4    4    0  502  0.24274572369E+02 -0.45261655456E+02 -0.34397462755E+03  0.34781964682E+03  0.47000000000E+01 0.  1.
          5    1    3    3  503    0 -0.47005461010E+02  0.12625323823E+02 -0.14701195109E+03  0.15493068104E+03  0.47000000000E+01 0. -1.
         -5    1    3    3    0  503  0.40918299035E+02  0.12532739276E+02 -0.22256074653E+03  0.22668646331E+03  0.47000000000E+01 0.  1.
<mgrwt>
<rscale>  0 0.90831009E+02</rscale>
<asrwt>0</asrwt>
<pdfrwt beam="1">  1        2 0.13990398E+00 0.95119220E+02</pdfrwt>
<pdfrwt beam="2">  1       -2 0.13772366E-02 0.95119220E+02</pdfrwt>
<totfact> 0.36448256E+04</totfact>
</mgrwt>
</event>
<event>
 8    1  0.8438969E-004  0.9875661E+02  0.7546771E-02  0.1283920E+00
          1   -1    0    0  501    0  0.00000000000E+00  0.00000000000E+00  0.15490070882E+03  0.15490070882E+03  0.00000000000E+00 0. -1.
         -1   -1    0    0    0  501 -0.00000000000E+00 -0.00000000000E+00 -0.93388703035E+02  0.93388703035E+02  0.00000000000E+00 0.  1.
         23    2    1    2    0    0  0.32132329789E+02  0.77380141078E+01 -0.41631874508E+02  0.10549050278E+03  0.91118986617E+02 0.  0.
         23    2    1    2    0    0 -0.32132329789E+02 -0.77380141078E+01  0.10314388029E+03  0.14279890907E+03  0.93061833799E+02 0.  0.
          5    1    4    4  502    0  0.27334575498E+01 -0.22646277393E+02  0.10194400216E+03  0.10457052762E+03  0.47000000000E+01 0. -1.
         -5    1    4    4    0  502 -0.34865787339E+02  0.14908263285E+02  0.11998781307E+01  0.38228381452E+02  0.47000000000E+01 0.  1.
          5    1    3    3  503    0  0.37101391015E+02 -0.35793358496E+02 -0.14566331404E+02  0.53776814132E+02  0.47000000000E+01 0. -1.
         -5    1    3    3    0  503 -0.49690612265E+01  0.43531372603E+02 -0.27065543104E+02  0.51713688650E+02  0.47000000000E+01 0.  1.
<mgrwt>
<rscale>  0 0.98296245E+02</rscale>
<asrwt>0</asrwt>
<pdfrwt beam="1">  1        1 0.23830878E-01 0.98756612E+02</pdfrwt>
<pdfrwt beam="2">  1       -1 0.14367493E-01 0.98756612E+02</pdfrwt>
<totfact> 0.64995941E+03</totfact>
</mgrwt>
</event>
<event>
 8    1  0.8438969E-004  0.9228819E+02  0.7546771E-02  0.1305662E+00
          4   -1    0    0  501    0  0.00000000000E+00  0.00000000000E+00  0.41147286831E+02  0.41147286831E+02  0.00000000000E+00 0. -1.
         -4   -1    0    0    0  501 -0.00000000000E+00 -0.00000000000E+00 -0.18471138426E+03  0.18471138426E+03  0.00000000000E+00 0.  1.
         23    2    1    2    0    0 -0.16387780002E+02  0.62294879947E+01 -0.46455409050E+02  0.91891482441E+02  0.77321236805E+02 0.  0.
         23    2    1    2    0    0  0.16387780002E+02 -0.62294879947E+01 -0.97108688377E+02  0.13396718865E+03  0.90607639975E+02 0.  0.
          5    1    4    4  502    0 -0.25539583381E+02 -0.23572396569E+02 -0.11403736113E+02  0.36879037360E+02  0.47000000000E+01 0. -1.
         -5    1    3    3    0  503 -0.36097422241E+02  0.19600420376E+02 -0.52547857777E+02  0.66862304240E+02  0.47000000000E+01 0.  1.
          5    1    3    3  503    0  0.19709642239E+02 -0.13370932381E+02  0.60924487268E+01  0.25029178201E+02  0.47000000000E+01 0. -1.
         -5    1    4    4    0  502  0.41927363383E+02  0.17342908574E+02 -0.85704952264E+02  0.97088151288E+02  0.47000000000E+01 0.  1.
<mgrwt>
<rscale>  0 0.88849682E+02</rscale>
<asrwt>0</asrwt>
<pdfrwt beam="1">  1        4 0.63303518E-02 0.92288191E+02</pdfrwt>
<pdfrwt beam="2">  1       -4 0.28417136E-01 0.92288191E+02</pdfrwt>
<totfact> 0.28511133E+03</totfact>
</mgrwt>
</event>
<event>
 8    1  0.8438969E-004  0.1406496E+03  0.7546771E-02  0.1213202E+00
          1   -1    0    0  501    0  0.00000000000E+00  0.00000000000E+00  0.77934563635E+03  0.77934563635E+03  0.00000000000E+00 0. -1.
         -1   -1    0    0    0  501 -0.00000000000E+00 -0.00000000000E+00 -0.82700992015E+02  0.82700992015E+02  0.00000000000E+00 0.  1.
         23    2    1    2    0    0  0.47022212159E+02  0.94141527217E+02 -0.12576980031E+02  0.13901300810E+03  0.89959548746E+02 0.  0.
         23    2    1    2    0    0 -0.47022212159E+02 -0.94141527217E+02  0.70922162436E+03  0.72303362026E+03  0.93319815599E+02 0.  0.
          5    1    4    4  502    0  0.26274687647E+02 -0.18810006803E+02  0.11397576973E+03  0.11856113045E+03  0.47000000000E+01 0.  1.
         -5    1    4    4    0  502 -0.73296899806E+02 -0.75331520414E+02  0.59524585463E+03  0.60447248982E+03  0.47000000000E+01 0. -1.
          5    1    3    3  503    0  0.69565841948E+02  0.86148728259E+02  0.15485397283E+01  0.11083996446E+03  0.47000000000E+01 0. -1.
         -5    1    3    3    0  503 -0.22543629789E+02  0.79927989582E+01 -0.14125519759E+02  0.28173043636E+02  0.47000000000E+01 0.  1.
<mgrwt>
<rscale>  0 0.14009463E+03</rscale>
<asrwt>0</asrwt>
<pdfrwt beam="1">  1        1 0.11989932E+00 0.14064958E+03</pdfrwt>
<pdfrwt beam="2">  1       -1 0.12723230E-01 0.14064958E+03</pdfrwt>
<totfact> 0.10043204E+03</totfact>
</mgrwt>
</event>
<event>
 8    1  0.8438969E-004  0.1237378E+03  0.7546771E-02  0.1241406E+00
          1   -1    0    0  501    0  0.00000000000E+00  0.00000000000E+00  0.73194837604E+03  0.73194837604E+03  0.00000000000E+00 0. -1.
         -1   -1    0    0    0  501 -0.00000000000E+00 -0.00000000000E+00 -0.21291352099E+02  0.21291352099E+02  0.00000000000E+00 0.  1.
         23    2    1    2    0    0 -0.69082128143E+01  0.66144863854E+02  0.45954392113E+03  0.47329537407E+03  0.91678946619E+02 0.  0.
         23    2    1    2    0    0  0.69082128143E+01 -0.66144863854E+02  0.25111310282E+03  0.27994435407E+03  0.10434646401E+03 0.  0.
          5    1    4    4  502    0 -0.17701830704E+02 -0.28892234247E+02  0.22585809775E+03  0.22843398681E+03  0.47000000000E+01 0. -1.
         -5    1    4    4    0  502  0.24610043518E+02 -0.37252629608E+02  0.25255005066E+02  0.51510367263E+02  0.47000000000E+01 0.  1.
          5    1    3    3  503    0  0.28081701014E+02 -0.58941528639E+01  0.74292939357E+02  0.79780033894E+02  0.47000000000E+01 0. -1.
         -5    1    3    3    0  503 -0.34989913828E+02  0.72039016718E+02  0.38525098177E+03  0.39351534018E+03  0.47000000000E+01 0.  1.
<mgrwt>
<rscale>  0 0.12103091E+03</rscale>
<asrwt>0</asrwt>
<pdfrwt beam="1">  1        1 0.11260742E+00 0.12373783E+03</pdfrwt>
<pdfrwt beam="2">  1       -1 0.32755932E-02 0.12373783E+03</pdfrwt>
<totfact> 0.83535811E+03</totfact>
</mgrwt>
</event>
<event>
 8    1  0.8438969E-004  0.9403801E+02  0.7546771E-02  0.1295103E+00
         -3   -1    0    0    0  501 -0.00000000000E+00  0.00000000000E+00  0.11249178989E+03  0.11249178989E+03  0.00000000000E+00 0.  1.
          3   -1    0    0  501    0  0.00000000000E+00 -0.00000000000E+00 -0.79353066319E+02  0.79353066319E+02  0.00000000000E+00 0. -1.
         23    2    1    2    0    0  0.93109335041E+01 -0.35084640692E+01  0.36186247030E+02  0.10076007176E+03  0.93510131983E+02 0.  0.
         23    2    1    2    0    0 -0.93109335041E+01  0.35084640692E+01 -0.30475234602E+01  0.91084784451E+02  0.90488384649E+02 0.  0.
          5    1    4    4  502    0 -0.86629857723E+00  0.45639981596E+02  0.77291924795E+01  0.46535887331E+02  0.47000000000E+01 0. -1.
         -5    1    3    3    0  503  0.41084149276E+02  0.16166121347E+02  0.43760317018E+02  0.62340245000E+02  0.47000000000E+01 0.  1.
          5    1    3    3  503    0 -0.31773215772E+02 -0.19674585416E+02 -0.75740699881E+01  0.38419826756E+02  0.47000000000E+01 0. -1.
         -5    1    4    4    0  502 -0.84446349269E+01 -0.42131517527E+02 -0.10776715940E+02  0.44548897120E+02  0.47000000000E+01 0.  1.
<mgrwt>
<rscale>  0 0.93277786E+02</rscale>
<asrwt>0</asrwt>
<pdfrwt beam="1">  1        3 0.12208164E-01 0.94038011E+02</pdfrwt>
<pdfrwt beam="2">  1       -3 0.17306429E-01 0.94038011E+02</pdfrwt>
<totfact> 0.32422714E+03</totfact>
</mgrwt>
</event>
<event>
 8    1  0.8438969E-004  0.1181582E+03  0.7546771E-02  0.1246546E+00
          1   -1    0    0  501    0  0.00000000000E+00  0.00000000000E+00  0.40838161329E+03  0.40838161329E+03  0.00000000000E+00 0. -1.
         -1   -1    0    0    0  501 -0.00000000000E+00 -0.00000000000E+00 -0.40794337219E+02  0.40794337219E+02  0.00000000000E+00 0.  1.
         23    2    1    2    0    0  0.44384119650E+02 -0.63055897026E+02  0.27651434646E+03  0.30070176353E+03  0.89528601935E+02 0.  0.
         23    2    1    2    0    0 -0.44384119650E+02  0.63055897026E+02  0.91072929616E+02  0.14847418698E+03  0.88342002835E+02 0.  0.
          5    1    4    4  502    0 -0.69360587632E+01  0.72996272686E+02  0.78377753518E+02  0.10743242985E+03  0.47000000000E+01 0. -1.
         -5    1    3    3    0  503  0.34286168696E+02 -0.80518141013E+02  0.16064899786E+03  0.18299973473E+03  0.47000000000E+01 0.  1.
          5    1    3    3  503    0  0.10097950954E+02  0.17462243987E+02  0.11586534859E+03  0.11770202880E+03  0.47000000000E+01 0. -1.
         -5    1    4    4    0  502 -0.37448060887E+02 -0.99403756595E+01  0.12695176098E+02  0.41041757134E+02  0.47000000000E+01 0.  1.
<mgrwt>
<rscale>  0 0.11793345E+03</rscale>
<asrwt>0</asrwt>
<pdfrwt beam="1">  1        1 0.62827937E-01 0.11815823E+03</pdfrwt>
<pdfrwt beam="2">  1       -1 0.62760522E-02 0.11815823E+03</pdfrwt>
<totfact> 0.69695845E+03</totfact>
</mgrwt>
</event>
<event>
 8    1  0.8438969E-004  0.1393414E+03  0.7546771E-02  0.1214679E+00
          2   -1    0    0  501    0  0.00000000000E+00  0.00000000000E+00  0.85199277974E+02  0.85199277974E+02  0.00000000000E+00 0. -1.
         -2   -1    0    0    0  501 -0.00000000000E+00 -0.00000000000E+00 -0.27352585360E+03  0.27352585360E+03  0.00000000000E+00 0.  1.
         23    2    1    2    0    0  0.83707381524E+02  0.58441299138E+02 -0.18768104848E+02  0.13925739271E+03  0.92833552651E+02 0.  0.
         23    2    1    2    0    0 -0.83707381524E+02 -0.58441299138E+02 -0.16955847078E+03  0.21946773887E+03  0.94835131802E+02 0.  0.
          5    1    4    4  502    0 -0.64246291247E+02 -0.20757040582E+02 -0.30915386930E+02  0.74406261979E+02  0.47000000000E+01 0. -1.
         -5    1    3    3    0  503  0.67120586234E+02  0.44080830263E+00  0.16420347583E+02  0.69260993518E+02  0.47000000000E+01 0.  1.
          5    1    3    3  503    0  0.16586795290E+02  0.58000490835E+02 -0.35188452431E+02  0.69996399190E+02  0.47000000000E+01 0. -1.
         -5    1    4    4    0  502 -0.19461090277E+02 -0.37684258555E+02 -0.13864308385E+03  0.14506147689E+03  0.47000000000E+01 0.  1.
<mgrwt>
<rscale>  0 0.13900150E+03</rscale>
<asrwt>0</asrwt>
<pdfrwt beam="1">  1        2 0.13107581E-01 0.13934136E+03</pdfrwt>
<pdfrwt beam="2">  1       -2 0.42080901E-01 0.13934136E+03</pdfrwt>
<totfact> 0.23941354E+03</totfact>
</mgrwt>
</event>
<event>
 8    1  0.8438969E-004  0.9912500E+02  0.7546771E-02  0.1282163E+00
         -3   -1    0    0    0  501 -0.00000000000E+00  0.00000000000E+00  0.75467074897E+02  0.75467074897E+02  0.00000000000E+00 0.  1.
          3   -1    0    0  501    0  0.00000000000E+00 -0.00000000000E+00 -0.18206495587E+03  0.18206495587E+03  0.00000000000E+00 0. -1.
         23    2    1    2    0    0  0.29698781914E+02  0.26239680783E+02 -0.12204637902E+03  0.15721044155E+03  0.90825468918E+02 0.  0.
         23    2    1    2    0    0 -0.29698781914E+02 -0.26239680783E+02  0.15448498047E+02  0.10032158922E+03  0.90858277979E+02 0.  0.
          5    1    3    3  502    0  0.60562214045E+02  0.21857857426E+02 -0.98880205800E+02  0.11808866500E+03  0.47000000000E+01 0. -1.
         -5    1    4    4    0  503 -0.61463481404E+02 -0.16245661000E+02  0.10960529313E+01  0.63757135912E+02  0.47000000000E+01 0.  1.
          5    1    4    4  503    0  0.31764699490E+02 -0.99940197830E+01  0.14352445116E+02  0.36564453310E+02  0.47000000000E+01 0. -1.
         -5    1    3    3    0  502 -0.30863432131E+02  0.43818233574E+01 -0.23166173225E+02  0.39121776553E+02  0.47000000000E+01 0.  1.
<mgrwt>
<rscale>  0 0.99117479E+02</rscale>
<asrwt>0</asrwt>
<pdfrwt beam="1">  1        3 0.28009993E-01 0.99124998E+02</pdfrwt>
<pdfrwt beam="2">  1       -3 0.11610319E-01 0.99124998E+02</pdfrwt>
<totfact> 0.15212359E+03</totfact>
</mgrwt>
</event>
<event>
 8    1  0.8438969E-004  0.1065328E+03  0.7546771E-02  0.1267316E+00
          2   -1    0    0  501    0  0.00000000000E+00  0.00000000000E+00  0.41547768543E+03  0.41547768543E+03  0.00000000000E+00 0. -1.
         -2   -1    0    0    0  501 -0.00000000000E+00 -0.00000000000E+00 -0.68122003031E+02  0.68122003031E+02  0.00000000000E+00 0.  1.
         23    2    1    2    0    0  0.51914262296E+02  0.15212342238E+02 -0.13565978158E+02  0.10739308121E+03  0.91775444110E+02 0.  0.
         23    2    1    2    0    0 -0.51914262296E+02 -0.15212342238E+02  0.36092166056E+03  0.37620660725E+03  0.91326120556E+02 0.  0.
          5    1    3    3  502    0  0.23772586140E+02  0.31486470002E+02  0.32143391741E+02  0.51105980839E+02  0.47000000000E+01 0. -1.
         -5    1    3    3    0  502  0.28141676156E+02 -0.16274127763E+02 -0.45709369899E+02  0.56287100368E+02  0.47000000000E+01 0.  1.
          5    1    4    4  503    0 -0.47216429432E+02  0.26125808970E+02  0.27895870079E+03  0.28416895652E+03  0.47000000000E+01 0. -1.
         -5    1    4    4    0  503 -0.46978328640E+01 -0.41338151208E+02  0.81962959768E+02  0.92037650735E+02  0.47000000000E+01 0.  1.
<mgrwt>
<rscale>  0 0.10643596E+03</rscale>
<asrwt>0</asrwt>
<pdfrwt beam="1">  1        2 0.63919642E-01 0.10653280E+03</pdfrwt>
<pdfrwt beam="2">  1       -2 0.10480308E-01 0.10653280E+03</pdfrwt>
<totfact> 0.44822850E+03</totfact>
</mgrwt>
</event>
<event>
 8    1  0.8438969E-004  0.9133050E+02  0.7546771E-02  0.1299886E+00
         -2   -1    0    0    0  501 -0.00000000000E+00  0.00000000000E+00  0.89465358912E+02  0.89465358912E+02  0.00000000000E+00 0.  1.
          2   -1    0    0  501    0  0.00000000000E+00 -0.00000000000E+00 -0.93083508681E+02  0.93083508681E+02  0.00000000000E+00 0. -1.
         23    2    1    2    0    0 -0.87318191296E+01 -0.33301690495E+00 -0.63811084319E+01  0.91176582261E+02  0.90532287292E+02 0.  0.
         23    2    1    2    0    0  0.87318191296E+01  0.33301690495E+00  0.27629586630E+01  0.91372285333E+02  0.90911523036E+02 0.  0.
          5    1    4    4  502    0  0.40882692491E+02 -0.25991903998E+01 -0.25267361272E+02  0.48359899521E+02  0.47000000000E+01 0. -1.
         -5    1    4    4    0  502 -0.32150873361E+02  0.29322073047E+01  0.28030319935E+02  0.43012385812E+02  0.47000000000E+01 0.  1.
          5    1    3    3  503    0  0.25303825582E+02  0.33818814817E+02 -0.22902623106E+01  0.42559735974E+02  0.47000000000E+01 0. -1.
         -5    1    3    3    0  503 -0.34035644712E+02 -0.34151831722E+02 -0.40908461213E+01  0.48616846287E+02  0.47000000000E+01 0.  1.
<mgrwt>
<rscale>  0 0.91235983E+02</rscale>
<asrwt>0</asrwt>
<pdfrwt beam="1">  1        2 0.14320540E-01 0.91330502E+02</pdfrwt>
<pdfrwt beam="2">  1       -2 0.13763901E-01 0.91330502E+02</pdfrwt>
<totfact> 0.14575227E+04</totfact>
</mgrwt>
</event>
<event>
 8    1  0.8438969E-004  0.9714754E+02  0.7546771E-02  0.1287014E+00
          1   -1    0    0  501    0  0.00000000000E+00  0.00000000000E+00  0.14323018172E+03  0.14323018172E+03  0.00000000000E+00 0. -1.
         -1   -1    0    0    0  501 -0.00000000000E+00 -0.00000000000E+00 -0.70738825424E+02  0.70738825424E+02  0.00000000000E+00 0.  1.
         23    2    1    2    0    0 -0.11720522295E+02 -0.27173127812E+02  0.59861192412E+01  0.96237993883E+02  0.91379255442E+02 0.  0.
         23    2    1    2    0    0  0.11720522295E+02  0.27173127812E+02  0.66505237057E+02  0.11773101326E+03  0.92530510699E+02 0.  0.
          5    1    3    3  502    0  0.23644054572E+02 -0.11580244517E+02  0.37561258731E+02  0.46109451711E+02  0.47000000000E+01 0. -1.
         -5    1    4    4    0  503 -0.32075827750E+02  0.17123761586E+02 -0.79580788092E+00  0.36671586370E+02  0.47000000000E+01 0.  1.
          5    1    4    4  503    0  0.43796350044E+02  0.10049366226E+02  0.67301044938E+02  0.81059426895E+02  0.47000000000E+01 0. -1.
         -5    1    3    3    0  502 -0.35364576866E+02 -0.15592883295E+02 -0.31575139490E+02  0.50128542171E+02  0.47000000000E+01 0.  1.
<mgrwt>
<rscale>  0 0.96872400E+02</rscale>
<asrwt>0</asrwt>
<pdfrwt beam="1">  1        1 0.22035412E-01 0.97147542E+02</pdfrwt>
<pdfrwt beam="2">  1       -1 0.10882896E-01 0.97147542E+02</pdfrwt>
<totfact> 0.10959774E+04</totfact>
</mgrwt>
</event>
<event>
 8    1  0.8438969E-004  0.1077477E+03  0.7546771E-02  0.1265380E+00
          1   -1    0    0  501    0  0.00000000000E+00  0.00000000000E+00  0.35153958337E+03  0.35153958337E+03  0.00000000000E+00 0. -1.
         -1   -1    0    0    0  501 -0.00000000000E+00 -0.00000000000E+00 -0.44121271910E+02  0.44121271910E+02  0.00000000000E+00 0.  1.
         23    2    1    2    0    0 -0.54699775960E+02 -0.75266834738E+01  0.53498348549E+02  0.12029810518E+03  0.92524831040E+02 0.  0.
         23    2    1    2    0    0  0.54699775960E+02  0.75266834738E+01  0.25391996291E+03  0.27536275010E+03  0.91107519573E+02 0.  0.
          5    1    4    4  502    0  0.38994694915E+02 -0.39924305316E+02  0.14457687836E+03  0.15504547766E+03  0.47000000000E+01 0. -1.
         -5    1    3    3    0  503 -0.66001007697E+02  0.26080522075E+02  0.28298427213E+02  0.76545526528E+02  0.47000000000E+01 0.  1.
          5    1    3    3  503    0  0.11301231737E+02 -0.33607205549E+02  0.25199921336E+02  0.43752578655E+02  0.47000000000E+01 0. -1.
         -5    1    4    4    0  502  0.15705081045E+02  0.47450988790E+02  0.10934308455E+03  0.12031727243E+03  0.47000000000E+01 0.  1.
<mgrwt>
<rscale>  0 0.10744273E+03</rscale>
<asrwt>0</asrwt>
<pdfrwt beam="1">  1        1 0.54083011E-01 0.10774767E+03</pdfrwt>
<pdfrwt beam="2">  1       -1 0.67878882E-02 0.10774767E+03</pdfrwt>
<totfact> 0.74293778E+03</totfact>
</mgrwt>
</event>
<event>
 8    1  0.8438969E-004  0.2141103E+03  0.7546771E-02  0.1138385E+00
          1   -1    0    0  501    0  0.00000000000E+00  0.00000000000E+00  0.88257711005E+03  0.88257711005E+03  0.00000000000E+00 0. -1.
         -1   -1    0    0    0  501 -0.00000000000E+00 -0.00000000000E+00 -0.14412136219E+03  0.14412136219E+03  0.00000000000E+00 0.  1.
         23    2    1    2    0    0  0.10078662096E+03 -0.16565511063E+03 -0.41465274468E+02  0.21792159640E+03  0.90393000559E+02 0.  0.
         23    2    1    2    0    0 -0.10078662096E+03  0.16565511063E+03  0.77992102233E+03  0.80877687583E+03  0.90794686905E+02 0.  0.
          5    1    4    4  502    0 -0.10535707040E+03  0.13064462570E+03  0.71773987153E+03  0.73711650619E+03  0.47000000000E+01 0. -1.
         -5    1    3    3    0  503  0.64580648372E+02 -0.14437388639E+03 -0.63219597446E+02  0.17039156879E+03  0.47000000000E+01 0.  1.
          5    1    3    3  503    0  0.36205972588E+02 -0.21281224240E+02  0.21754322978E+02  0.47530027608E+02  0.47000000000E+01 0. -1.
         -5    1    4    4    0  502  0.45704494422E+01  0.35010484932E+02  0.62181150791E+02  0.71660369640E+02  0.47000000000E+01 0.  1.
<mgrwt>
<rscale>  0 0.21406781E+03</rscale>
<asrwt>0</asrwt>
<pdfrwt beam="1">  1        1 0.13578109E+00 0.21411033E+03</pdfrwt>
<pdfrwt beam="2">  1       -1 0.22172518E-01 0.21411033E+03</pdfrwt>
<totfact> 0.34023599E+02</totfact>
</mgrwt>
</event>
<event>
 8    1  0.8438969E-004  0.9292264E+02  0.7546771E-02  0.1296502E+00
         -1   -1    0    0    0  501 -0.00000000000E+00  0.00000000000E+00  0.15834629483E+03  0.15834629483E+03  0.00000000000E+00 0.  1.
          1   -1    0    0  501    0  0.00000000000E+00 -0.00000000000E+00 -0.25873160473E+03  0.25873160473E+03  0.00000000000E+00 0. -1.
         23    2    1    2    0    0 -0.15123813993E+02 -0.33970122359E+01  0.13538987991E+03  0.16365225410E+03  0.90616616840E+02 0.  0.
         23    2    1    2    0    0  0.15123813993E+02  0.33970122359E+01 -0.23577518981E+03  0.25342564546E+03  0.91620675650E+02 0.  0.
          5    1    3    3  502    0  0.29055949948E+02 -0.89397953494E+01  0.13119827093E+02  0.33442309000E+02  0.47000000000E+01 0. -1.
         -5    1    4    4    0  503 -0.20224806582E+02 -0.26697441594E+02 -0.41052133145E+02  0.53189884609E+02  0.47000000000E+01 0.  1.
          5    1    4    4  503    0  0.35348620574E+02  0.30094453830E+02 -0.19472305666E+03  0.20023576085E+03  0.47000000000E+01 0. -1.
         -5    1    3    3    0  502 -0.44179763941E+02  0.55427831135E+01  0.12227005282E+03  0.13020994510E+03  0.47000000000E+01 0.  1.
<mgrwt>
<rscale>  0 0.92674189E+02</rscale>
<asrwt>0</asrwt>
<pdfrwt beam="1">  1        1 0.39804862E-01 0.92922643E+02</pdfrwt>
<pdfrwt beam="2">  1       -1 0.24360969E-01 0.92922643E+02</pdfrwt>
<totfact> 0.14940824E+03</totfact>
</mgrwt>
</event>
<event>
 8    1  0.8438969E-004  0.1091458E+03  0.7546771E-02  0.1263935E+00
          2   -1    0    0  501    0  0.00000000000E+00  0.00000000000E+00  0.18996390814E+03  0.18996390814E+03  0.00000000000E+00 0. -1.
         -2   -1    0    0    0  501 -0.00000000000E+00 -0.00000000000E+00 -0.82731207451E+02  0.82731207451E+02  0.00000000000E+00 0.  1.
         23    2    1    2    0    0 -0.41756737169E+02  0.33947699643E+02  0.12482707901E+03  0.16581498419E+03  0.94956505408E+02 0.  0.
         23    2    1    2    0    0  0.41756737169E+02 -0.33947699643E+02 -0.17594378317E+02  0.10688013140E+03  0.90651690165E+02 0.  0.
          5    1    4    4  502    0  0.40933211791E+02  0.23716650733E+02 -0.68977120566E+01  0.48038274127E+02  0.47000000000E+01 0. -1.
         -5    1    3    3    0  503 -0.25575350682E+02 -0.21458670506E+02  0.68682414271E+01  0.34406915623E+02  0.47000000000E+01 0.  1.
          5    1    3    3  503    0 -0.16181386488E+02  0.55406370150E+02  0.11795883758E+03  0.13140806857E+03  0.47000000000E+01 0. -1.
         -5    1    4    4    0  502  0.82352537852E+00 -0.57664350376E+02 -0.10696666260E+02  0.58841857274E+02  0.47000000000E+01 0.  1.
<mgrwt>
<rscale>  0 0.10820271E+03</rscale>
<asrwt>0</asrwt>
<pdfrwt beam="1">  1        2 0.29225217E-01 0.10914582E+03</pdfrwt>
<pdfrwt beam="2">  1       -2 0.12727878E-01 0.10914582E+03</pdfrwt>
<totfact> 0.75596585E+03</totfact>
</mgrwt>
</event>
<event>
 8    1  0.8438969E-004  0.1070335E+03  0.7546771E-02  0.1274676E+00
          1   -1    0    0  501    0  0.00000000000E+00  0.00000000000E+00  0.38359172084E+03  0.38359172084E+03  0.00000000000E+00 0. -1.
         -1   -1    0    0    0  501 -0.00000000000E+00 -0.00000000000E+00 -0.27695524792E+02  0.27695524792E+02  0.00000000000E+00 0.  1.
         23    2    1    2    0    0  0.10240248560E+02  0.18554152401E+01  0.24902494814E+03  0.27105274420E+03  0.10652633518E+03 0.  0.
         23    2    1    2    0    0 -0.10240248560E+02 -0.18554152401E+01  0.10687124791E+03  0.14023450143E+03  0.90199481740E+02 0.  0.
          5    1    3    3  502    0  0.31062870929E+02 -0.32444856473E+02  0.21028421908E+03  0.21507931899E+03  0.47000000000E+01 0. -1.
         -5    1    4    4    0  503 -0.43446446723E+02  0.22356912435E+02  0.51860549171E+02  0.71407505395E+02  0.47000000000E+01 0.  1.
          5    1    4    4  503    0  0.33206198163E+02 -0.24212327675E+02  0.55010698738E+02  0.68826996038E+02  0.47000000000E+01 0. -1.
         -5    1    3    3    0  502 -0.20822622369E+02  0.34300271713E+02  0.38740729057E+02  0.55973425210E+02  0.47000000000E+01 0.  1.
<mgrwt>
<rscale>  0 0.10272086E+03</rscale>
<asrwt>0</asrwt>
<pdfrwt beam="1">  1        1 0.59014107E-01 0.10703348E+03</pdfrwt>
<pdfrwt beam="2">  1       -1 0.42608502E-02 0.10703348E+03</pdfrwt>
<totfact> 0.13238875E+04</totfact>
</mgrwt>
</event>
<event>
 8    1  0.8438969E-004  0.9407867E+02  0.7546771E-02  0.1296830E+00
          2   -1    0    0  501    0  0.00000000000E+00  0.00000000000E+00  0.35551555400E+03  0.35551555400E+03  0.00000000000E+00 0. -1.
         -2   -1    0    0    0  501 -0.00000000000E+00 -0.00000000000E+00 -0.24491513177E+02  0.24491513177E+02  0.00000000000E+00 0.  1.
         23    2    1    2    0    0 -0.80511921256E+01 -0.10563891071E+01  0.11885440021E+03  0.14791494683E+03  0.87672831556E+02 0.  0.
         23    2    1    2    0    0  0.80511921256E+01  0.10563891071E+01  0.21216964061E+03  0.23209212034E+03  0.93727574800E+02 0.  0.
          5    1    3    3  502    0  0.30531095754E+02  0.11773313490E+02  0.94893665880E+02  0.10048709640E+03  0.47000000000E+01 0. -1.
         -5    1    4    4    0  503 -0.30083696911E+02  0.18480478827E+02  0.34882590895E+02  0.49854208098E+02  0.47000000000E+01 0.  1.
          5    1    4    4  503    0  0.38134889037E+02 -0.17424089719E+02  0.17728704971E+03  0.18223791224E+03  0.47000000000E+01 0. -1.
         -5    1    3    3    0  502 -0.38582287880E+02 -0.12829702597E+02  0.23960734334E+02  0.47427850432E+02  0.47000000000E+01 0.  1.
<mgrwt>
<rscale>  0 0.92533361E+02</rscale>
<asrwt>0</asrwt>
<pdfrwt beam="1">  1        2 0.54694697E-01 0.94078669E+02</pdfrwt>
<pdfrwt beam="2">  1       -2 0.37679253E-02 0.94078669E+02</pdfrwt>
<totfact> 0.24546181E+04</totfact>
</mgrwt>
</event>
<event>
 8    1  0.8438969E-004  0.9965721E+02  0.7546771E-02  0.1282434E+00
          1   -1    0    0  501    0  0.00000000000E+00  0.00000000000E+00  0.78423731113E+03  0.78423731113E+03  0.00000000000E+00 0. -1.
         -1   -1    0    0    0  501 -0.00000000000E+00 -0.00000000000E+00 -0.13068200012E+02  0.13068200012E+02  0.00000000000E+00 0.  1.
         23    2    1    2    0    0  0.22102323873E+02 -0.30161683157E+02  0.29576767801E+03  0.31210587691E+03  0.92375966530E+02 0.  0.
         23    2    1    2    0    0 -0.22102323873E+02  0.30161683157E+02  0.47540143310E+03  0.48519963423E+03  0.89520515027E+02 0.  0.
          5    1    3    3  502    0 -0.22144799930E+02 -0.24452888998E+02  0.38335074673E+02  0.50793738733E+02  0.47000000000E+01 0. -1.
         -5    1    4    4    0  503 -0.14863966565E+02 -0.30054679544E+02  0.12245857476E+03  0.12705279925E+03  0.47000000000E+01 0.  1.
          5    1    4    4  503    0 -0.72383573080E+01  0.60216362701E+02  0.35294285834E+03  0.35814683498E+03  0.47000000000E+01 0. -1.
         -5    1    3    3    0  502  0.44247123803E+02 -0.57087941592E+01  0.25743260334E+03  0.26131213817E+03  0.47000000000E+01 0.  1.
<mgrwt>
<rscale>  0 0.98990316E+02</rscale>
<asrwt>0</asrwt>
<pdfrwt beam="1">  1        1 0.12065186E+00 0.99657208E+02</pdfrwt>
<pdfrwt beam="2">  1       -1 0.20104929E-02 0.99657208E+02</pdfrwt>
<totfact> 0.15039125E+04</totfact>
</mgrwt>
</event>
<event>
 8    1  0.8438969E-004  0.1014770E+03  0.7546771E-02  0.1277837E+00
         -2   -1    0    0    0  501 -0.00000000000E+00  0.00000000000E+00  0.62191680681E+02  0.62191680681E+02  0.00000000000E+00 0.  1.
          2   -1    0    0  501    0  0.00000000000E+00 -0.00000000000E+00 -0.28957010058E+03  0.28957010058E+03  0.00000000000E+00 0. -1.
         23    2    1    2    0    0  0.18445480156E+02  0.42623838957E+02  0.26723972616E+01  0.10032397598E+03  0.88886056637E+02 0.  0.
         23    2    1    2    0    0 -0.18445480156E+02 -0.42623838957E+02 -0.23005081716E+03  0.25143780528E+03  0.90225074454E+02 0.  0.
          5    1    3    3  502    0  0.30521221327E+02 -0.19560695682E+02  0.41266362440E+01  0.36787020721E+02  0.47000000000E+01 0. -1.
         -5    1    3    3    0  502 -0.12075741171E+02  0.62184534639E+02 -0.14542389824E+01  0.63536955263E+02  0.47000000000E+01 0.  1.
          5    1    4    4  503    0 -0.11029085788E+02 -0.20918518291E+02 -0.22647212799E+03  0.22775192622E+03  0.47000000000E+01 0. -1.
         -5    1    4    4    0  503 -0.74163943679E+01 -0.21705320666E+02 -0.35786891751E+01  0.23685879060E+02  0.47000000000E+01 0.  1.
<mgrwt>
<rscale>  0 0.10117857E+03</rscale>
<asrwt>0</asrwt>
<pdfrwt beam="1">  1        2 0.44549246E-01 0.10147705E+03</pdfrwt>
<pdfrwt beam="2">  1       -2 0.95679509E-02 0.10147705E+03</pdfrwt>
<totfact> 0.75324831E+03</totfact>
</mgrwt>
</event>
<event>
 8    1  0.8438969E-004  0.9228752E+02  0.7546771E-02  0.1298498E+00
          1   -1    0    0  501    0  0.00000000000E+00  0.00000000000E+00  0.77725805320E+02  0.77725805320E+02  0.00000000000E+00 0. -1.
         -1   -1    0    0    0  501 -0.00000000000E+00 -0.00000000000E+00 -0.13611365305E+03  0.13611365305E+03  0.00000000000E+00 0.  1.
         23    2    1    2    0    0 -0.91694768845E+00 -0.26523351712E+01  0.20149999790E+02  0.92657034853E+02  0.90395950912E+02 0.  0.
         23    2    1    2    0    0  0.91694768845E+00  0.26523351712E+01 -0.78537847518E+02  0.12118242351E+03  0.92244840513E+02 0.  0.
          5    1    3    3  502    0 -0.39253217093E+02  0.20371223338E+02  0.31468656712E+01  0.44584689704E+02  0.47000000000E+01 0. -1.
         -5    1    4    4    0  503  0.38979819908E+02 -0.27379153644E+01 -0.71789074019E+02  0.81869919318E+02  0.47000000000E+01 0.  1.
          5    1    4    4  503    0 -0.38062872220E+02  0.53902505356E+01 -0.67487734987E+01  0.39312504196E+02  0.47000000000E+01 0. -1.
         -5    1    3    3    0  502  0.38336269404E+02 -0.23023558509E+02  0.17003134119E+02  0.48072345149E+02  0.47000000000E+01 0.  1.
<mgrwt>
<rscale>  0 0.91822005E+02</rscale>
<asrwt>0</asrwt>
<pdfrwt beam="1">  1        1 0.11957816E-01 0.92287520E+02</pdfrwt>
<pdfrwt beam="2">  1       -1 0.20940562E-01 0.92287520E+02</pdfrwt>
<totfact> 0.85923988E+03</totfact>
</mgrwt>
</event>
<event>
 8    1  0.8438969E-004  0.9354031E+02  0.7546771E-02  0.1298369E+00
         -1   -1    0    0    0  501 -0.00000000000E+00  0.00000000000E+00  0.12518790356E+02  0.12518790356E+02  0.00000000000E+00 0.  1.
          1   -1    0    0  501    0  0.00000000000E+00 -0.00000000000E+00 -0.89409369181E+03  0.89409369181E+03  0.00000000000E+00 0. -1.
         23    2    1    2    0    0 -0.99102227774E+01 -0.25756833040E+01 -0.19319204918E+03  0.21190337692E+03  0.86458236287E+02 0.  0.
         23    2    1    2    0    0  0.99102227774E+01  0.25756833040E+01 -0.68838285227E+03  0.69470910524E+03  0.92978185363E+02 0.  0.
          5    1    3    3  502    0 -0.37895617751E+02 -0.16863356513E+02 -0.16232610856E+03  0.16760759576E+03  0.47000000000E+01 0. -1.
         -5    1    4    4    0  503 -0.33696161488E+02  0.25881524206E+02 -0.26545463071E+03  0.26887457217E+03  0.47000000000E+01 0.  1.
          5    1    4    4  503    0  0.43606384265E+02 -0.23305840902E+02 -0.42292822156E+03  0.42583453308E+03  0.47000000000E+01 0. -1.
         -5    1    3    3    0  502  0.27985394973E+02  0.14287673209E+02 -0.30865940623E+02  0.44295781154E+02  0.47000000000E+01 0.  1.
<mgrwt>
<rscale>  0 0.91877009E+02</rscale>
<asrwt>0</asrwt>
<pdfrwt beam="1">  1        1 0.13755291E+00 0.93540310E+02</pdfrwt>
<pdfrwt beam="2">  1       -1 0.19259673E-02 0.93540310E+02</pdfrwt>
<totfact> 0.13039832E+04</totfact>
</mgrwt>
</event>
<event>
 8    1  0.8438969E-004  0.2171899E+03  0.7546771E-02  0.1136222E+00
         -3   -1    0    0    0  501 -0.00000000000E+00  0.00000000000E+00  0.29564409246E+02  0.29564409246E+02  0.00000000000E+00 0.  1.
          3   -1    0    0  501    0  0.00000000000E+00 -0.00000000000E+00 -0.15989790061E+04  0.15989790061E+04  0.00000000000E+00 0. -1.
         23    2    1    2    0    0  0.14845933565E+03  0.12969646030E+03 -0.71154602340E+03  0.74360842683E+03  0.88285915469E+02 0.  0.
         23    2    1    2    0    0 -0.14845933565E+03 -0.12969646030E+03 -0.85786857348E+03  0.88493498855E+03  0.91159741322E+02 0.  0.
          5    1    4    4  502    0 -0.86887689941E+02 -0.21482906978E+02 -0.43279411176E+03  0.44197717037E+03  0.47000000000E+01 0. -1.
         -5    1    4    4    0  502 -0.61571645708E+02 -0.10821355332E+03 -0.42507446171E+03  0.44295781817E+03  0.47000000000E+01 0.  1.
          5    1    3    3  503    0  0.14052095944E+03  0.10932141012E+03 -0.49789678565E+03  0.52879165076E+03  0.47000000000E+01 0. -1.
         -5    1    3    3    0  503  0.79383762070E+01  0.20375050178E+02 -0.21364923775E+03  0.21481677607E+03  0.47000000000E+01 0.  1.
<mgrwt>
<rscale>  0 0.21689165E+03</rscale>
<asrwt>0</asrwt>
<pdfrwt beam="1">  1        3 0.24599684E+00 0.21718988E+03</pdfrwt>
<pdfrwt beam="2">  1       -3 0.45483694E-02 0.21718988E+03</pdfrwt>
<totfact> 0.57130006E+01</totfact>
</mgrwt>
</event>
<event>
 8    1  0.8438969E-004  0.1332903E+03  0.7546771E-02  0.1222704E+00
          2   -1    0    0  501    0  0.00000000000E+00  0.00000000000E+00  0.33050113662E+03  0.33050113662E+03  0.00000000000E+00 0. -1.
         -2   -1    0    0    0  501 -0.00000000000E+00 -0.00000000000E+00 -0.58370833322E+02  0.58370833322E+02  0.00000000000E+00 0.  1.
         23    2    1    2    0    0 -0.10248541354E+02  0.96613526955E+02  0.19100572930E+03  0.23283510575E+03  0.91048292970E+02 0.  0.
         23    2    1    2    0    0  0.10248541354E+02 -0.96613526955E+02  0.81124573997E+02  0.15603686419E+03  0.91252946750E+02 0.  0.
          5    1    3    3  502    0 -0.50516934921E+02  0.57785633814E+02  0.11519789960E+03  0.13850554596E+03  0.47000000000E+01 0. -1.
         -5    1    3    3    0  502  0.40268393567E+02  0.38827893141E+02  0.75807829705E+02  0.94329559793E+02  0.47000000000E+01 0.  1.
          5    1    4    4  503    0 -0.36661249140E+02 -0.19710015322E+02  0.16264044397E+02  0.44934853206E+02  0.47000000000E+01 0. -1.
         -5    1    4    4    0  503  0.46909790493E+02 -0.76903511632E+02  0.64860529600E+02  0.11110201099E+03  0.47000000000E+01 0.  1.
<mgrwt>
<rscale>  0 0.13325529E+03</rscale>
<asrwt>0</asrwt>
<pdfrwt beam="1">  1        2 0.50846327E-01 0.13329031E+03</pdfrwt>
<pdfrwt beam="2">  1       -2 0.89801284E-02 0.13329031E+03</pdfrwt>
<totfact> 0.73738054E+03</totfact>
</mgrwt>
</event>
<event>
 8    1  0.8438969E-004  0.9204008E+02  0.7546771E-02  0.1298487E+00
          2   -1    0    0  501    0  0.00000000000E+00  0.00000000000E+00  0.12461443974E+03  0.12461443974E+03  0.00000000000E+00 0. -1.
         -2   -1    0    0    0  501 -0.00000000000E+00 -0.00000000000E+00 -0.86636134900E+02  0.86636134900E+02  0.00000000000E+00 0.  1.
         23    2    1    2    0    0  0.29851226392E+01  0.23388240068E+01 -0.30772339703E+02  0.97047995557E+02  0.91961924164E+02 0.  0.
         23    2    1    2    0    0 -0.29851226392E+01 -0.23388240068E+01  0.68750644545E+02  0.11420257909E+03  0.91110904339E+02 0.  0.
          5    1    3    3  502    0 -0.40914089487E+02  0.15445269926E+02 -0.49858666494E+01  0.44265877918E+02  0.47000000000E+01 0. -1.
         -5    1    4    4    0  503 -0.87238474494E+01 -0.45690825711E+02  0.29722022335E+02  0.55400773281E+02  0.47000000000E+01 0.  1.
          5    1    4    4  503    0  0.57387248102E+01  0.43352001704E+02  0.39028622211E+02  0.58801805804E+02  0.47000000000E+01 0. -1.
         -5    1    3    3    0  502  0.43899212126E+02 -0.13106445919E+02 -0.25786473053E+02  0.52782117639E+02  0.47000000000E+01 0.  1.
<mgrwt>
<rscale>  0 0.91826768E+02</rscale>
<asrwt>0</asrwt>
<pdfrwt beam="1">  1        2 0.19171452E-01 0.92040081E+02</pdfrwt>
<pdfrwt beam="2">  1       -2 0.13328636E-01 0.92040081E+02</pdfrwt>
<totfact> 0.11001846E+04</totfact>
</mgrwt>
</event>
<event>
 8    1  0.8438969E-004  0.1454711E+03  0.7546771E-02  0.1206620E+00
         -1   -1    0    0    0  501 -0.00000000000E+00  0.00000000000E+00  0.17210032226E+03  0.17210032226E+03  0.00000000000E+00 0.  1.
          1   -1    0    0  501    0  0.00000000000E+00 -0.00000000000E+00 -0.16208182739E+03  0.16208182739E+03  0.00000000000E+00 0. -1.
         23    2    1    2    0    0  0.61395383958E+02  0.92701496413E+02  0.88394877317E+02  0.17022186913E+03  0.93802290941E+02 0.  0.
         23    2    1    2    0    0 -0.61395383958E+02 -0.92701496413E+02 -0.78376382456E+02  0.16396028052E+03  0.91526802920E+02 0.  0.
          5    1    4    4  502    0  0.13705330602E+02 -0.36066190639E+02 -0.54255632158E+02  0.66741065432E+02  0.47000000000E+01 0. -1.
         -5    1    3    3    0  503  0.11882750770E+01  0.81602273294E+02  0.65280774175E+02  0.10461363430E+03  0.47000000000E+01 0.  1.
          5    1    3    3  503    0  0.60207108881E+02  0.11099223119E+02  0.23114103142E+02  0.65608234832E+02  0.47000000000E+01 0. -1.
         -5    1    4    4    0  502 -0.75100714559E+02 -0.56635305774E+02 -0.24120750298E+02  0.97219215088E+02  0.47000000000E+01 0.  1.
<mgrwt>
<rscale>  0 0.14510550E+03</rscale>
<asrwt>0</asrwt>
<pdfrwt beam="1">  1        1 0.24935666E-01 0.14547106E+03</pdfrwt>
<pdfrwt beam="2">  1       -1 0.26476973E-01 0.14547106E+03</pdfrwt>
<totfact> 0.23643149E+03</totfact>
</mgrwt>
</event>
<event>
 8    1  0.8438969E-004  0.9275297E+02  0.7546771E-02  0.1296590E+00
          1   -1    0    0  501    0  0.00000000000E+00  0.00000000000E+00  0.38068817929E+03  0.38068817929E+03  0.00000000000E+00 0. -1.
         -1   -1    0    0    0  501 -0.00000000000E+00 -0.00000000000E+00 -0.26318017760E+02  0.26318017760E+02  0.00000000000E+00 0.  1.
         23    2    1    2    0    0  0.55336932486E+01 -0.45862624052E+01  0.25522511478E+03  0.27155657402E+03  0.92474094310E+02 0.  0.
         23    2    1    2    0    0 -0.55336932486E+01  0.45862624052E+01  0.99145046753E+02  0.13544962303E+03  0.92006546062E+02 0.  0.
          5    1    3    3  502    0 -0.20030326806E+02  0.20950117525E+02  0.21612279955E+03  0.21810840401E+03  0.47000000000E+01 0. -1.
         -5    1    3    3    0  502  0.25564020055E+02 -0.25536379930E+02  0.39102315230E+02  0.53448170012E+02  0.47000000000E+01 0.  1.
          5    1    4    4  503    0 -0.35321197985E+02 -0.25930449695E+02  0.27512718266E+02  0.51952044377E+02  0.47000000000E+01 0. -1.
         -5    1    4    4    0  503  0.29787504736E+02  0.30516712101E+02  0.71632328486E+02  0.83497578649E+02  0.47000000000E+01 0.  1.
<mgrwt>
<rscale>  0 0.92636217E+02</rscale>
<asrwt>0</asrwt>
<pdfrwt beam="1">  1        1 0.58567408E-01 0.92752971E+02</pdfrwt>
<pdfrwt beam="2">  1       -1 0.40489261E-02 0.92752971E+02</pdfrwt>
<totfact> 0.14210493E+04</totfact>
</mgrwt>
</event>
<event>
 8    1  0.8438969E-004  0.1087389E+03  0.7546771E-02  0.1265747E+00
         -1   -1    0    0    0  501 -0.00000000000E+00  0.00000000000E+00  0.70343118864E+02  0.70343118864E+02  0.00000000000E+00 0.  1.
          1   -1    0    0  501    0  0.00000000000E+00 -0.00000000000E+00 -0.16095161729E+03  0.16095161729E+03  0.00000000000E+00 0. -1.
         23    2    1    2    0    0  0.30392795101E+02  0.33268084803E+02 -0.56131854689E+02  0.11722114571E+03  0.92517697929E+02 0.  0.
         23    2    1    2    0    0 -0.30392795101E+02 -0.33268084803E+02 -0.34476643735E+02  0.11407359044E+03  0.98962910287E+02 0.  0.
          5    1    4    4  502    0  0.20834917720E+02  0.23088296925E+02 -0.32257944764E+01  0.31617384479E+02  0.47000000000E+01 0. -1.
         -5    1    4    4    0  502 -0.51227712821E+02 -0.56356381728E+02 -0.31250849258E+02  0.82456205963E+02  0.47000000000E+01 0.  1.
          5    1    3    3  503    0  0.56935184641E+01  0.53450706165E+02 -0.17333180716E+01  0.53986003127E+02  0.47000000000E+01 0. -1.
         -5    1    3    3    0  503  0.24699276637E+02 -0.20182621362E+02 -0.54398536617E+02  0.63235142583E+02  0.47000000000E+01 0.  1.
<mgrwt>
<rscale>  0 0.10725084E+03</rscale>
<asrwt>0</asrwt>
<pdfrwt beam="1">  1        1 0.24761787E-01 0.10873888E+03</pdfrwt>
<pdfrwt beam="2">  1       -1 0.10822018E-01 0.10873888E+03</pdfrwt>
<totfact> 0.96515907E+03</totfact>
</mgrwt>
</event>
<event>
 8    1  0.8438969E-004  0.1137056E+03  0.7546771E-02  0.1261473E+00
          3   -1    0    0  501    0  0.00000000000E+00  0.00000000000E+00  0.13180519274E+03  0.13180519274E+03  0.00000000000E+00 0. -1.
         -3   -1    0    0    0  501 -0.00000000000E+00 -0.00000000000E+00 -0.97686651030E+02  0.97686651030E+02  0.00000000000E+00 0.  1.
         23    2    1    2    0    0  0.52511644444E+02  0.74596548755E+01 -0.25489621090E+02  0.10110924606E+03  0.82220676250E+02 0.  0.
         23    2    1    2    0    0 -0.52511644444E+02 -0.74596548755E+01  0.59608162802E+02  0.12838259771E+03  0.10057752765E+03 0.  0.
          5    1    4    4  502    0 -0.44001795891E+02 -0.46544119860E+02  0.60309291485E+02  0.88101156488E+02  0.47000000000E+01 0. -1.
         -5    1    4    4    0  502 -0.85098485529E+01  0.39084464984E+02 -0.70112868247E+00  0.40281441222E+02  0.47000000000E+01 0.  1.
          5    1    3    3  503    0 -0.15692275720E+02 -0.17134347826E+02 -0.14059677618E+02  0.27560804187E+02  0.47000000000E+01 0. -1.
         -5    1    3    3    0  503  0.68203920164E+02  0.24594002702E+02 -0.11429943472E+02  0.73548441876E+02  0.47000000000E+01 0.  1.
<mgrwt>
<rscale>  0 0.10951393E+03</rscale>
<asrwt>0</asrwt>
<pdfrwt beam="1">  1        3 0.20277722E-01 0.11370558E+03</pdfrwt>
<pdfrwt beam="2">  1       -3 0.15028715E-01 0.11370558E+03</pdfrwt>
<totfact> 0.18010216E+03</totfact>
</mgrwt>
</event>
<event>
 8    1  0.8438969E-004  0.1271764E+03  0.7546771E-02  0.1232050E+00
          3   -1    0    0  501    0  0.00000000000E+00  0.00000000000E+00  0.69709902746E+02  0.69709902746E+02  0.00000000000E+00 0. -1.
         -3   -1    0    0    0  501 -0.00000000000E+00 -0.00000000000E+00 -0.23087369645E+03  0.23087369645E+03  0.00000000000E+00 0.  1.
         23    2    1    2    0    0  0.61602970574E+02  0.60228958045E+02 -0.87219765367E+02  0.15347289420E+03  0.92326531468E+02 0.  0.
         23    2    1    2    0    0 -0.61602970574E+02 -0.60228958045E+02 -0.73944028333E+02  0.14711070499E+03  0.93548847273E+02 0.  0.
          5    1    4    4  502    0 -0.13481796288E+02  0.16583602875E+02 -0.47936579060E+02  0.52695164175E+02  0.47000000000E+01 0. -1.
         -5    1    4    4    0  502 -0.48121174286E+02 -0.76812560920E+02 -0.26007449273E+02  0.94415540816E+02  0.47000000000E+01 0.  1.
          5    1    3    3  503    0  0.51902858262E+01  0.65125998863E+02 -0.65533134257E+02  0.92655364013E+02  0.47000000000E+01 0. -1.
         -5    1    3    3    0  503  0.56412684748E+02 -0.48970408178E+01 -0.21686631111E+02  0.60817530188E+02  0.47000000000E+01 0.  1.
<mgrwt>
<rscale>  0 0.12695172E+03</rscale>
<asrwt>0</asrwt>
<pdfrwt beam="1">  1        3 0.10724601E-01 0.12717641E+03</pdfrwt>
<pdfrwt beam="2">  1       -3 0.35519030E-01 0.12717641E+03</pdfrwt>
<totfact> 0.11675063E+03</totfact>
</mgrwt>
</event>
<event>
 8    1  0.8438969E-004  0.9167791E+02  0.7546771E-02  0.1300014E+00
          2   -1    0    0  501    0  0.00000000000E+00  0.00000000000E+00  0.15933421021E+02  0.15933421021E+02  0.00000000000E+00 0. -1.
         -2   -1    0    0    0  501 -0.00000000000E+00 -0.00000000000E+00 -0.70115905610E+03  0.70115905610E+03  0.00000000000E+00 0.  1.
         23    2    1    2    0    0 -0.13195359867E+02 -0.33553249535E+01 -0.52946998755E+03  0.53734840385E+03  0.90661257853E+02 0.  0.
         23    2    1    2    0    0  0.13195359867E+02  0.33553249535E+01 -0.15575564753E+03  0.17974407327E+03  0.88672061055E+02 0.  0.
          5    1    4    4  502    0  0.43146413951E+02 -0.78051749335E+01 -0.39904202510E+02  0.59472423614E+02  0.47000000000E+01 0. -1.
         -5    1    4    4    0  502 -0.29951054084E+02  0.11160499887E+02 -0.11585144502E+03  0.12027164966E+03  0.47000000000E+01 0.  1.
          5    1    3    3  503    0  0.27942995342E+02  0.27741283364E+02 -0.24908816459E+03  0.25222488682E+03  0.47000000000E+01 0. -1.
         -5    1    3    3    0  503 -0.41138355209E+02 -0.31096608317E+02 -0.28038182296E+03  0.28512351703E+03  0.47000000000E+01 0.  1.
<mgrwt>
<rscale>  0 0.91182243E+02</rscale>
<asrwt>0</asrwt>
<pdfrwt beam="1">  1        2 0.24512958E-02 0.91677911E+02</pdfrwt>
<pdfrwt beam="2">  1       -2 0.10787061E+00 0.91677911E+02</pdfrwt>
<totfact> 0.27347180E+03</totfact>
</mgrwt>
</event>
<event>
 8    1  0.8438969E-004  0.1056443E+03  0.7546771E-02  0.1269990E+00
         -2   -1    0    0    0  501 -0.00000000000E+00  0.00000000000E+00  0.28300285931E+02  0.28300285931E+02  0.00000000000E+00 0. -1.
          2   -1    0    0  501    0  0.00000000000E+00 -0.00000000000E+00 -0.58865017059E+03  0.58865017059E+03  0.00000000000E+00 0.  1.
         23    2    1    2    0    0  0.43639509059E+02 -0.25139346318E+02 -0.97103374829E+02  0.14181042170E+03  0.90248195640E+02 0.  0.
         23    2    1    2    0    0 -0.43639509059E+02  0.25139346318E+02 -0.46324650984E+03  0.47514003482E+03  0.92867272665E+02 0.  0.
          5    1    3    3  502    0  0.67128142214E+02 -0.53516768230E+01 -0.44942827396E+02  0.81097322128E+02  0.47000000000E+01 0. -1.
         -5    1    3    3    0  502 -0.23488633156E+02 -0.19787669495E+02 -0.52160547434E+02  0.60713099576E+02  0.47000000000E+01 0.  1.
          5    1    4    4  503    0  0.19725325713E+02  0.33893967550E+01 -0.27969106798E+02  0.34712208514E+02  0.47000000000E+01 0. -1.
         -5    1    4    4    0  503 -0.63364834772E+02  0.21749949563E+02 -0.43527740304E+03  0.44042782631E+03  0.47000000000E+01 0.  1.
<mgrwt>
<rscale>  0 0.10506590E+03</rscale>
<asrwt>0</asrwt>
<pdfrwt beam="1">  1        2 0.90561572E-01 0.10564433E+03</pdfrwt>
<pdfrwt beam="2">  1       -2 0.43538898E-02 0.10564433E+03</pdfrwt>
<totfact> 0.11654768E+04</totfact>
</mgrwt>
</event>
<event>
 8    1  0.8438969E-004  0.1316283E+03  0.7546771E-02  0.1225469E+00
         -2   -1    0    0    0  501 -0.00000000000E+00  0.00000000000E+00  0.14478269607E+02  0.14478269607E+02  0.00000000000E+00 0.  1.
          2   -1    0    0  501    0  0.00000000000E+00 -0.00000000000E+00 -0.12046100192E+04  0.12046100192E+04  0.00000000000E+00 0. -1.
         23    2    1    2    0    0  0.30905906271E+02  0.85800300804E+02 -0.67217919373E+03  0.68494588573E+03  0.94916443433E+02 0.  0.
         23    2    1    2    0    0 -0.30905906271E+02 -0.85800300804E+02 -0.51795255588E+03  0.53414240309E+03  0.93361608701E+02 0.  0.
          5    1    3    3  502    0  0.33323431391E+02  0.51453104876E+02 -0.61477911695E+03  0.61784571352E+03  0.47000000000E+01 0. -1.
         -5    1    3    3    0  502 -0.24175251199E+01  0.34347195928E+02 -0.57400076781E+02  0.67100172207E+02  0.47000000000E+01 0.  1.
          5    1    4    4  503    0 -0.23916217155E+02  0.15154024086E+02 -0.13498606403E+03  0.13800346870E+03  0.47000000000E+01 0. -1.
         -5    1    4    4    0  503 -0.69896891170E+01 -0.10095432489E+03 -0.38296649184E+03  0.39613893439E+03  0.47000000000E+01 0.  1.
<mgrwt>
<rscale>  0 0.13134818E+03</rscale>
<asrwt>0</asrwt>
<pdfrwt beam="1">  1        2 0.18532472E+00 0.13162826E+03</pdfrwt>
<pdfrwt beam="2">  1       -2 0.22274249E-02 0.13162826E+03</pdfrwt>
<totfact> 0.12620702E+04</totfact>
</mgrwt>
</event>
<event>
 8    1  0.8438969E-004  0.1059116E+03  0.7546771E-02  0.1268510E+00
          1   -1    0    0  501    0  0.00000000000E+00  0.00000000000E+00  0.48217603152E+03  0.48217603152E+03  0.00000000000E+00 0. -1.
         -1   -1    0    0    0  501 -0.00000000000E+00 -0.00000000000E+00 -0.34325802983E+02  0.34325802983E+02  0.00000000000E+00 0.  1.
         23    2    1    2    0    0 -0.39640976618E+01 -0.50576948268E+02  0.37079563381E+03  0.38552598795E+03  0.92558865430E+02 0.  0.
         23    2    1    2    0    0  0.39640976618E+01  0.50576948268E+02  0.77054594724E+02  0.13097584655E+03  0.92970533202E+02 0.  0.
          5    1    3    3  502    0 -0.40194717322E+02 -0.49984213064E+02  0.28687929590E+03  0.29399975726E+03  0.47000000000E+01 0. -1.
         -5    1    4    4    0  503  0.48079027491E+02  0.24407452936E+02  0.34721463393E+02  0.64303861964E+02  0.47000000000E+01 0.  1.
          5    1    4    4  503    0 -0.44114929829E+02  0.26169495332E+02  0.42333131331E+02  0.66671984582E+02  0.47000000000E+01 0. -1.
         -5    1    3    3    0  502  0.36230619660E+02 -0.59273520380E+00  0.83916337913E+02  0.91526230692E+02  0.47000000000E+01 0.  1.
<mgrwt>
<rscale>  0 0.10582116E+03</rscale>
<asrwt>0</asrwt>
<pdfrwt beam="1">  1        1 0.74180923E-01 0.10591158E+03</pdfrwt>
<pdfrwt beam="2">  1       -1 0.52808931E-02 0.10591158E+03</pdfrwt>
<totfact> 0.72338608E+03</totfact>
</mgrwt>
</event>
<event>
 8    1  0.8438969E-004  0.9366714E+02  0.7546771E-02  0.1295288E+00
          1   -1    0    0  501    0  0.00000000000E+00  0.00000000000E+00  0.11446114869E+02  0.11446114869E+02  0.00000000000E+00 0. -1.
         -1   -1    0    0    0  501 -0.00000000000E+00 -0.00000000000E+00 -0.78006961121E+03  0.78006961121E+03  0.00000000000E+00 0.  1.
         23    2    1    2    0    0  0.16509710643E+02 -0.72277721145E+01 -0.30463351461E+03  0.31816571055E+03  0.90016831279E+02 0.  0.
         23    2    1    2    0    0 -0.16509710643E+02  0.72277721145E+01 -0.46398998173E+03  0.47335001552E+03  0.91916934325E+02 0.  0.
          5    1    3    3  502    0  0.22757366937E+02  0.26949664113E+02 -0.25457761592E+03  0.25705259126E+03  0.47000000000E+01 0. -1.
         -5    1    4    4    0  503 -0.35501735510E+02 -0.17736407108E+02 -0.39938277322E+03  0.40137718284E+03  0.47000000000E+01 0.  1.
          5    1    4    4  503    0  0.18992024867E+02  0.24964179222E+02 -0.64607208504E+02  0.71972832676E+02  0.47000000000E+01 0. -1.
         -5    1    3    3    0  502 -0.62476562944E+01 -0.34177436228E+02 -0.50055898691E+02  0.61113119295E+02  0.47000000000E+01 0.  1.
<mgrwt>
<rscale>  0 0.93197659E+02</rscale>
<asrwt>0</asrwt>
<pdfrwt beam="1">  1        1 0.17609409E-02 0.93667145E+02</pdfrwt>
<pdfrwt beam="2">  1       -1 0.12001070E+00 0.93667145E+02</pdfrwt>
<totfact> 0.44514335E+03</totfact>
</mgrwt>
</event>
<event>
 8    1  0.8438969E-004  0.9715133E+02  0.7546771E-02  0.1291960E+00
          1   -1    0    0  501    0  0.00000000000E+00  0.00000000000E+00  0.16621141478E+03  0.16621141478E+03  0.00000000000E+00 0. -1.
         -1   -1    0    0    0  501 -0.00000000000E+00 -0.00000000000E+00 -0.23260738951E+03  0.23260738951E+03  0.00000000000E+00 0.  1.
         23    2    1    2    0    0 -0.23176369598E+02 -0.12479148373E+02  0.14241821274E+03  0.17239874785E+03  0.93517419179E+02 0.  0.
         23    2    1    2    0    0  0.23176369598E+02  0.12479148373E+02 -0.20881418747E+03  0.22642005645E+03  0.83485350934E+02 0.  0.
          5    1    3    3  502    0 -0.11218767720E+01  0.37741621645E+02  0.35016368966E+02  0.51710005873E+02  0.47000000000E+01 0. -1.
         -5    1    3    3    0  502 -0.22054492826E+02 -0.50220770018E+02  0.10740184377E+03  0.12068874198E+03  0.47000000000E+01 0.  1.
          5    1    4    4  503    0 -0.24097751547E+02  0.37025096587E+01 -0.21084897974E+02  0.32574117485E+02  0.47000000000E+01 0. -1.
         -5    1    4    4    0  503  0.47274121145E+02  0.87766387146E+01 -0.18772928949E+03  0.19384593896E+03  0.47000000000E+01 0.  1.
<mgrwt>
<rscale>  0 0.94652944E+02</rscale>
<asrwt>0</asrwt>
<pdfrwt beam="1">  1        1 0.25570987E-01 0.97151330E+02</pdfrwt>
<pdfrwt beam="2">  1       -1 0.35785752E-01 0.97151330E+02</pdfrwt>
<totfact> 0.13601584E+03</totfact>
</mgrwt>
</event>
<event>
 8    1  0.8438969E-004  0.1085791E+03  0.7546771E-02  0.1276943E+00
          1   -1    0    0  501    0  0.00000000000E+00  0.00000000000E+00  0.11554495925E+03  0.11554495925E+03  0.00000000000E+00 0. -1.
         -1   -1    0    0    0  501 -0.00000000000E+00 -0.00000000000E+00 -0.84655484361E+02  0.84655484361E+02  0.00000000000E+00 0.  1.
         23    2    1    2    0    0  0.38804488370E+02  0.21279990390E+02  0.37684511248E+02  0.91408922470E+02  0.70546739190E+02 0.  0.
         23    2    1    2    0    0 -0.38804488370E+02 -0.21279990390E+02 -0.67950363612E+01  0.10879152114E+03  0.99150371880E+02 0.  0.
          5    1    4    4  502    0  0.19742831217E+02 -0.67576846196E+01  0.30843981058E+02  0.37535141579E+02  0.47000000000E+01 0. -1.
         -5    1    4    4    0  502 -0.58547319587E+02 -0.14522305770E+02 -0.37639017419E+02  0.71256379560E+02  0.47000000000E+01 0.  1.
          5    1    3    3  503    0 -0.20118066292E+02  0.19788121353E+01  0.13108021231E+02  0.24547148701E+02  0.47000000000E+01 0.  1.
         -5    1    3    3    0  503  0.58922554662E+02  0.19301178255E+02  0.24576490017E+02  0.66861773768E+02  0.47000000000E+01 0. -1.
<mgrwt>
<rscale>  0 0.10161181E+03</rscale>
<asrwt>0</asrwt>
<pdfrwt beam="1">  1        1 0.17776148E-01 0.10857911E+03</pdfrwt>
<pdfrwt beam="2">  1       -1 0.13023921E-01 0.10857911E+03</pdfrwt>
<totfact> 0.11028005E+04</totfact>
</mgrwt>
</event>
<event>
 8    1  0.8438969E-004  0.9392495E+02  0.7546771E-02  0.1294592E+00
         -1   -1    0    0    0  501 -0.00000000000E+00  0.00000000000E+00  0.16922601093E+02  0.16922601093E+02  0.00000000000E+00 0.  1.
          1   -1    0    0  501    0  0.00000000000E+00 -0.00000000000E+00 -0.53437280050E+03  0.53437280050E+03  0.00000000000E+00 0. -1.
         23    2    1    2    0    0 -0.13713092050E+02  0.20056982562E+02 -0.20003462346E+03  0.22027494303E+03  0.88976786316E+02 0.  0.
         23    2    1    2    0    0  0.13713092050E+02 -0.20056982562E+02 -0.31741557596E+03  0.33102045857E+03  0.90727970812E+02 0.  0.
          5    1    4    4  502    0 -0.15438101029E+02 -0.49168292429E+02 -0.15574856393E+03  0.16412056882E+03  0.47000000000E+01 0. -1.
         -5    1    4    4    0  502  0.29151193079E+02  0.29111309866E+02 -0.16166701203E+03  0.16689988975E+03  0.47000000000E+01 0.  1.
          5    1    3    3  503    0  0.23136678057E+02 -0.56852797003E+01 -0.15348446386E+03  0.15539369010E+03  0.47000000000E+01 0. -1.
         -5    1    3    3    0  503 -0.36849770107E+02  0.25742262263E+02 -0.46550159596E+02  0.64881252930E+02  0.47000000000E+01 0.  1.
<mgrwt>
<rscale>  0 0.93499450E+02</rscale>
<asrwt>0</asrwt>
<pdfrwt beam="1">  1        1 0.82211194E-01 0.93924949E+02</pdfrwt>
<pdfrwt beam="2">  1       -1 0.26034773E-02 0.93924949E+02</pdfrwt>
<totfact> 0.17529516E+04</totfact>
</mgrwt>
</event>
<event>
 8    1  0.8438969E-004  0.1764702E+03  0.7546771E-02  0.1171721E+00
         -1   -1    0    0    0  501 -0.00000000000E+00  0.00000000000E+00  0.80464811918E+02  0.80464811918E+02  0.00000000000E+00 0.  1.
          1   -1    0    0  501    0  0.00000000000E+00 -0.00000000000E+00 -0.42182964380E+03  0.42182964380E+03  0.00000000000E+00 0. -1.
         23    2    1    2    0    0  0.11851598822E+03 -0.91200142401E+02 -0.24605229719E+03  0.30172973708E+03  0.90197537943E+02 0.  0.
         23    2    1    2    0    0 -0.11851598822E+03  0.91200142401E+02 -0.95312534693E+02  0.20056471863E+03  0.93692164319E+02 0.  0.
          5    1    3    3  502    0  0.75535785213E+01 -0.47587434323E+02 -0.11345044820E+03  0.12334794141E+03  0.47000000000E+01 0. -1.
         -5    1    3    3    0  502  0.11096240969E+03 -0.43612708079E+02 -0.13260184899E+03  0.17838179567E+03  0.47000000000E+01 0.  1.
          5    1    4    4  503    0 -0.21652223633E+02 -0.11237510054E+02 -0.43871066031E+02  0.50416870739E+02  0.47000000000E+01 0. -1.
         -5    1    4    4    0  503 -0.96863764582E+02  0.10243765246E+03 -0.51441468662E+02  0.15014784790E+03  0.47000000000E+01 0.  1.
<mgrwt>
<rscale>  0 0.17601083E+03</rscale>
<asrwt>0</asrwt>
<pdfrwt beam="1">  1        1 0.64896868E-01 0.17647019E+03</pdfrwt>
<pdfrwt beam="2">  1       -1 0.12379202E-01 0.17647019E+03</pdfrwt>
<totfact> 0.24297421E+03</totfact>
</mgrwt>
</event>
<event>
 8    1  0.8438969E-004  0.9969542E+02  0.7546771E-02  0.1282683E+00
         -3   -1    0    0    0  501 -0.00000000000E+00  0.00000000000E+00  0.13868091865E+03  0.13868091865E+03  0.00000000000E+00 0.  1.
          3   -1    0    0  501    0  0.00000000000E+00 -0.00000000000E+00 -0.69591576664E+02  0.69591576664E+02  0.00000000000E+00 0. -1.
         23    2    1    2    0    0  0.22335220860E+02  0.31464121565E+02  0.29023187272E+02  0.10383410742E+03  0.91925640756E+02 0.  0.
         23    2    1    2    0    0 -0.22335220860E+02 -0.31464121565E+02  0.40066154715E+02  0.10443838789E+03  0.88392460508E+02 0.  0.
          5    1    3    3  502    0  0.38764887998E+02 -0.92551354694E+01 -0.13685820607E+02  0.42400067921E+02  0.47000000000E+01 0. -1.
         -5    1    3    3    0  502 -0.16429667138E+02  0.40719257034E+02  0.42709007878E+02  0.61434039503E+02  0.47000000000E+01 0.  1.
          5    1    4    4  503    0  0.24454537433E+02  0.15494209302E+02  0.18011154954E+02  0.34417824244E+02  0.47000000000E+01 0. -1.
         -5    1    4    4    0  503 -0.46789758293E+02 -0.46958330866E+02  0.22054999761E+02  0.70020563646E+02  0.47000000000E+01 0.  1.
<mgrwt>
<rscale>  0 0.98873273E+02</rscale>
<asrwt>0</asrwt>
<pdfrwt beam="1">  1        3 0.10706396E-01 0.99695418E+02</pdfrwt>
<pdfrwt beam="2">  1       -3 0.21335526E-01 0.99695418E+02</pdfrwt>
<totfact> 0.28338919E+03</totfact>
</mgrwt>
</event>
<event>
 8    1  0.8438969E-004  0.1120558E+03  0.7546771E-02  0.1257473E+00
         -2   -1    0    0    0  501 -0.00000000000E+00  0.00000000000E+00  0.16668194713E+03  0.16668194713E+03  0.00000000000E+00 0.  1.
          2   -1    0    0  501    0  0.00000000000E+00 -0.00000000000E+00 -0.74485810646E+02  0.74485810646E+02  0.00000000000E+00 0. -1.
         23    2    1    2    0    0 -0.55264490821E+02  0.34438630120E+02  0.50854005618E+02  0.12172880157E+03  0.89395682519E+02 0.  0.
         23    2    1    2    0    0  0.55264490821E+02 -0.34438630120E+02  0.41342130869E+02  0.11943895621E+03  0.91193800699E+02 0.  0.
          5    1    4    4  502    0  0.13716393226E+02 -0.55315761959E+02  0.44701644912E+02  0.72583056026E+02  0.47000000000E+01 0. -1.
         -5    1    3    3    0  503 -0.28639065778E+01  0.29661844497E+02  0.60892649346E+02  0.67956101450E+02  0.47000000000E+01 0.  1.
          5    1    3    3  503    0 -0.52400584243E+02  0.47767856234E+01 -0.10038643728E+02  0.53772700117E+02  0.47000000000E+01 0. -1.
         -5    1    4    4    0  502  0.41548097595E+02  0.20877131839E+02 -0.33595140438E+01  0.46855900185E+02  0.47000000000E+01 0.  1.
<mgrwt>
<rscale>  0 0.11168936E+03</rscale>
<asrwt>0</asrwt>
<pdfrwt beam="1">  1        2 0.11459355E-01 0.11205576E+03</pdfrwt>
<pdfrwt beam="2">  1       -2 0.25643376E-01 0.11205576E+03</pdfrwt>
<totfact> 0.68427180E+03</totfact>
</mgrwt>
</event>
<event>
 8    1  0.8438969E-004  0.1102101E+03  0.7546771E-02  0.1260837E+00
         -2   -1    0    0    0  501 -0.00000000000E+00  0.00000000000E+00  0.11805471655E+02  0.11805471655E+02  0.00000000000E+00 0.  1.
          2   -1    0    0  501    0  0.00000000000E+00 -0.00000000000E+00 -0.10159492628E+04  0.10159492628E+04  0.00000000000E+00 0. -1.
         23    2    1    2    0    0  0.40872065451E+02  0.46896051149E+02 -0.50613476032E+03  0.51769663462E+03  0.89261663335E+02 0.  0.
         23    2    1    2    0    0 -0.40872065451E+02 -0.46896051149E+02 -0.49800903087E+03  0.51005809988E+03  0.90975299292E+02 0.  0.
          5    1    3    3  502    0 -0.22121194925E+02  0.38873596938E+02 -0.19620232277E+03  0.20129069840E+03  0.47000000000E+01 0. -1.
         -5    1    4    4    0  503  0.13608980048E+02 -0.24626481170E+02 -0.45428872318E+02  0.53642710155E+02  0.47000000000E+01 0.  1.
          5    1    4    4  503    0 -0.54481045499E+02 -0.22269569979E+02 -0.45258015855E+03  0.45641538973E+03  0.47000000000E+01 0. -1.
         -5    1    3    3    0  502  0.62993260376E+02  0.80224542111E+01 -0.30993243756E+03  0.31640593622E+03  0.47000000000E+01 0.  1.
<mgrwt>
<rscale>  0 0.10985585E+03</rscale>
<asrwt>0</asrwt>
<pdfrwt beam="1">  1        2 0.15629992E+00 0.11021012E+03</pdfrwt>
<pdfrwt beam="2">  1       -2 0.18162261E-02 0.11021012E+03</pdfrwt>
<totfact> 0.21441939E+04</totfact>
</mgrwt>
</event>
<event>
 8    1  0.8438969E-004  0.1111421E+03  0.7546771E-02  0.1258638E+00
          2   -1    0    0  501    0  0.00000000000E+00  0.00000000000E+00  0.97614982354E+03  0.97614982354E+03  0.00000000000E+00 0. -1.
         -2   -1    0    0    0  501 -0.00000000000E+00 -0.00000000000E+00 -0.15529861821E+02  0.15529861821E+02  0.00000000000E+00 0.  1.
         23    2    1    2    0    0  0.24953724723E+02 -0.60163434442E+02  0.26605040828E+03  0.28833207125E+03  0.90056850612E+02 0.  0.
         23    2    1    2    0    0 -0.24953724723E+02  0.60163434442E+02  0.69456955344E+03  0.70334761412E+03  0.89602871023E+02 0.  0.
          5    1    4    4  502    0 -0.48107358145E+02  0.45289556467E+01  0.37307774818E+03  0.37622323896E+03  0.47000000000E+01 0. -1.
         -5    1    4    4    0  502  0.23153633422E+02  0.55634478795E+02  0.32149180526E+03  0.32712437515E+03  0.47000000000E+01 0.  1.
          5    1    3    3  503    0 -0.32655941894E+02 -0.34698175781E+02  0.12081761387E+03  0.12995906957E+03  0.47000000000E+01 0. -1.
         -5    1    3    3    0  503  0.57609666617E+02 -0.25465258661E+02  0.14523279442E+03  0.15837300168E+03  0.47000000000E+01 0.  1.
<mgrwt>
<rscale>  0 0.11105009E+03</rscale>
<asrwt>0</asrwt>
<pdfrwt beam="1">  1        2 0.15017685E+00 0.11114209E+03</pdfrwt>
<pdfrwt beam="2">  1       -2 0.23892103E-02 0.11114209E+03</pdfrwt>
<totfact> 0.15239668E+04</totfact>
</mgrwt>
</event>
<event>
 8    1  0.8438969E-004  0.1200289E+03  0.7546771E-02  0.1249047E+00
          1   -1    0    0  501    0  0.00000000000E+00  0.00000000000E+00  0.34293209971E+03  0.34293209971E+03  0.00000000000E+00 0. -1.
         -1   -1    0    0    0  501 -0.00000000000E+00 -0.00000000000E+00 -0.66389686328E+02  0.66389686328E+02  0.00000000000E+00 0.  1.
         23    2    1    2    0    0 -0.35363117686E+02  0.67198968823E+02  0.77953524621E+01  0.12028177268E+03  0.92955289334E+02 0.  0.
         23    2    1    2    0    0  0.35363117686E+02 -0.67198968823E+02  0.26874706092E+03  0.28904001336E+03  0.74517750011E+02 0.  0.
          5    1    3    3  502    0  0.23623428240E+02  0.27988779035E+02 -0.22347220409E+02  0.43161630804E+02  0.47000000000E+01 0. -1.
         -5    1    4    4    0  503  0.28899538633E+02 -0.12684251906E+02  0.19159611695E+03  0.19423500099E+03  0.47000000000E+01 0.  1.
          5    1    4    4  503    0  0.64635790534E+01 -0.54514716917E+02  0.77150943964E+02  0.94805012364E+02  0.47000000000E+01 0. -1.
         -5    1    3    3    0  502 -0.58986545926E+02  0.39210189788E+02  0.30142572871E+02  0.77120141874E+02  0.47000000000E+01 0.  1.
<mgrwt>
<rscale>  0 0.11646383E+03</rscale>
<asrwt>0</asrwt>
<pdfrwt beam="1">  1        1 0.52758784E-01 0.12002890E+03</pdfrwt>
<pdfrwt beam="2">  1       -1 0.10213798E-01 0.12002890E+03</pdfrwt>
<totfact> 0.41706040E+03</totfact>
</mgrwt>
</event>
<event>
 8    1  0.8438969E-004  0.1013566E+03  0.7546771E-02  0.1277485E+00
          1   -1    0    0  501    0  0.00000000000E+00  0.00000000000E+00  0.35497790302E+03  0.35497790302E+03  0.00000000000E+00 0. -1.
         -1   -1    0    0    0  501 -0.00000000000E+00 -0.00000000000E+00 -0.28952958372E+02  0.28952958372E+02  0.00000000000E+00 0.  1.
         23    2    1    2    0    0 -0.32667645180E+02  0.27078983952E+02  0.15773515922E+03  0.18747575240E+03  0.92012666910E+02 0.  0.
         23    2    1    2    0    0  0.32667645180E+02 -0.27078983952E+02  0.16828978543E+03  0.19645510899E+03  0.92047333228E+02 0.  0.
          5    1    3    3  502    0 -0.55063292868E+02 -0.13613865439E+00  0.13338439169E+03  0.14437960625E+03  0.47000000000E+01 0. -1.
         -5    1    4    4    0  503  0.31664560112E+02  0.28532834891E+02  0.95841103552E+02  0.10499701979E+03  0.47000000000E+01 0.  1.
          5    1    4    4  503    0  0.10030850675E+01 -0.55611818843E+02  0.72448681877E+02  0.91458089201E+02  0.47000000000E+01 0. -1.
         -5    1    3    3    0  502  0.22395647688E+02  0.27215122606E+02  0.24350767530E+02  0.43096146152E+02  0.47000000000E+01 0.  1.
<mgrwt>
<rscale>  0 0.10134872E+03</rscale>
<asrwt>0</asrwt>
<pdfrwt beam="1">  1        1 0.54611982E-01 0.10135659E+03</pdfrwt>
<pdfrwt beam="2">  1       -1 0.44543015E-02 0.10135659E+03</pdfrwt>
<totfact> 0.13592461E+04</totfact>
</mgrwt>
</event>
<event>
 8    1  0.8438969E-004  0.9561389E+02  0.7546771E-02  0.1289923E+00
         -4   -1    0    0    0  501 -0.00000000000E+00  0.00000000000E+00  0.66290408688E+02  0.66290408688E+02  0.00000000000E+00 0.  1.
          4   -1    0    0  501    0  0.00000000000E+00 -0.00000000000E+00 -0.42233803013E+03  0.42233803013E+03  0.00000000000E+00 0. -1.
         23    2    1    2    0    0  0.29028829988E+02 -0.45195961336E+01  0.22517274927E+02  0.98229550365E+02  0.90988555187E+02 0.  0.
         23    2    1    2    0    0 -0.29028829988E+02  0.45195961336E+01 -0.37856489636E+03  0.39039888845E+03  0.90756881958E+02 0.  0.
          5    1    3    3  502    0 -0.11984427322E+02 -0.34019280905E+02 -0.10299025955E+02  0.37803411316E+02  0.47000000000E+01 0. -1.
         -5    1    3    3    0  502  0.41013257310E+02  0.29499684771E+02  0.32816300881E+02  0.60426139049E+02  0.47000000000E+01 0.  1.
          5    1    4    4  503    0 -0.16908994930E+02  0.36820664047E+02 -0.31746266363E+03  0.32007234840E+03  0.47000000000E+01 0. -1.
         -5    1    4    4    0  503 -0.12119835058E+02 -0.32301067914E+02 -0.61102232732E+02  0.70326540048E+02  0.47000000000E+01 0.  1.
<mgrwt>
<rscale>  0 0.95558737E+02</rscale>
<asrwt>0</asrwt>
<pdfrwt beam="1">  1        4 0.64975080E-01 0.95613895E+02</pdfrwt>
<pdfrwt beam="2">  1       -4 0.10198525E-01 0.95613895E+02</pdfrwt>
<totfact> 0.25571772E+02</totfact>
</mgrwt>
</event>
<event>
 8    1  0.8438969E-004  0.1769392E+03  0.7546771E-02  0.1171233E+00
          2   -1    0    0  501    0  0.00000000000E+00  0.00000000000E+00  0.35948954072E+03  0.35948954072E+03  0.00000000000E+00 0. -1.
         -2   -1    0    0    0  501 -0.00000000000E+00 -0.00000000000E+00 -0.98382480301E+02  0.98382480301E+02  0.00000000000E+00 0.  1.
         23    2    1    2    0    0 -0.53291471057E+02  0.14033785372E+03  0.50663561896E+02  0.18404964726E+03  0.93663130854E+02 0.  0.
         23    2    1    2    0    0  0.53291471057E+02 -0.14033785372E+03  0.21044349853E+03  0.27382237376E+03  0.90319057933E+02 0.  0.
          5    1    4    4  502    0  0.58883701506E+02 -0.34672677850E+02  0.95448887245E+02  0.11748219001E+03  0.47000000000E+01 0. -1.
         -5    1    4    4    0  502 -0.55922304490E+01 -0.10566517587E+03  0.11499461128E+03  0.15634018375E+03  0.47000000000E+01 0.  1.
          5    1    3    3  503    0 -0.24006698958E+01  0.84372325147E+02  0.65348504540E+02  0.10685021999E+03  0.47000000000E+01 0. -1.
         -5    1    3    3    0  503 -0.50890801161E+02  0.55965528569E+02 -0.14684942645E+02  0.77199427273E+02  0.47000000000E+01 0.  1.
<mgrwt>
<rscale>  0 0.17650076E+03</rscale>
<asrwt>0</asrwt>
<pdfrwt beam="1">  1        2 0.55306082E-01 0.17693919E+03</pdfrwt>
<pdfrwt beam="2">  1       -2 0.15135766E-01 0.17693919E+03</pdfrwt>
<totfact> 0.29696039E+03</totfact>
</mgrwt>
</event>
<event>
 8    1  0.8438969E-004  0.1271818E+03  0.7546771E-02  0.1231821E+00
         -2   -1    0    0    0  501 -0.00000000000E+00  0.00000000000E+00  0.52973758766E+02  0.52973758766E+02  0.00000000000E+00 0.  1.
          2   -1    0    0  501    0  0.00000000000E+00 -0.00000000000E+00 -0.30761907316E+03  0.30761907316E+03  0.00000000000E+00 0. -1.
         23    2    1    2    0    0 -0.57284474694E+01 -0.88007993651E+02 -0.10921776365E+03  0.16739761986E+03  0.91187834610E+02 0.  0.
         23    2    1    2    0    0  0.57284474694E+01  0.88007993651E+02 -0.14542755074E+03  0.19319521206E+03  0.91635120957E+02 0.  0.
          5    1    3    3  502    0 -0.34986542665E+02 -0.33847071517E+02 -0.90527090559E+02  0.10289279150E+03  0.47000000000E+01 0. -1.
         -5    1    3    3    0  502  0.29258095196E+02 -0.54160922134E+02 -0.18690673093E+02  0.64504828359E+02  0.47000000000E+01 0.  1.
          5    1    4    4  503    0  0.30304478499E+02  0.89995774600E+02 -0.13691740242E+03  0.16669152932E+03  0.47000000000E+01 0. -1.
         -5    1    4    4    0  503 -0.24576031030E+02 -0.19877809484E+01 -0.85101483195E+01  0.26503682739E+02  0.47000000000E+01 0.  1.
<mgrwt>
<rscale>  0 0.12710128E+03</rscale>
<asrwt>0</asrwt>
<pdfrwt beam="1">  1        2 0.47326011E-01 0.12718183E+03</pdfrwt>
<pdfrwt beam="2">  1       -2 0.81498090E-02 0.12718183E+03</pdfrwt>
<totfact> 0.92158164E+03</totfact>
</mgrwt>
</event>
<event>
 8    1  0.8438969E-004  0.1077866E+03  0.7546771E-02  0.1266862E+00
          1   -1    0    0  501    0  0.00000000000E+00  0.00000000000E+00  0.19008910026E+03  0.19008910026E+03  0.00000000000E+00 0. -1.
         -1   -1    0    0    0  501 -0.00000000000E+00 -0.00000000000E+00 -0.66799242446E+02  0.66799242446E+02  0.00000000000E+00 0.  1.
         23    2    1    2    0    0 -0.42391440028E+02  0.21560373580E+02  0.15671795460E+02  0.10457422887E+03  0.91805665807E+02 0.  0.
         23    2    1    2    0    0  0.42391440028E+02 -0.21560373580E+02  0.10761806236E+03  0.15231411384E+03  0.96726718296E+02 0.  0.
          5    1    4    4  502    0  0.18019455406E+02  0.25147225182E+02  0.91980933448E+02  0.97157942678E+02  0.47000000000E+01 0. -1.
         -5    1    3    3    0  503 -0.70638073783E+02  0.15248999108E+02  0.25849069985E+01  0.72464068239E+02  0.47000000000E+01 0.  1.
          5    1    3    3  503    0  0.28246633754E+02  0.63113744723E+01  0.13086888462E+02  0.32110160632E+02  0.47000000000E+01 0. -1.
         -5    1    4    4    0  502  0.24371984622E+02 -0.46707598762E+02  0.15637128910E+02  0.55156171161E+02  0.47000000000E+01 0.  1.
<mgrwt>
<rscale>  0 0.10667103E+03</rscale>
<asrwt>0</asrwt>
<pdfrwt beam="1">  1        1 0.29244477E-01 0.10778656E+03</pdfrwt>
<pdfrwt beam="2">  1       -1 0.10276807E-01 0.10778656E+03</pdfrwt>
<totfact> 0.84863344E+03</totfact>
</mgrwt>
</event>
<event>
 8    1  0.8438969E-004  0.9856647E+02  0.7546771E-02  0.1283578E+00
          2   -1    0    0  501    0  0.00000000000E+00  0.00000000000E+00  0.52515701354E+03  0.52515701354E+03  0.00000000000E+00 0. -1.
         -2   -1    0    0    0  501 -0.00000000000E+00 -0.00000000000E+00 -0.26591366321E+02  0.26591366321E+02  0.00000000000E+00 0.  1.
         23    2    1    2    0    0  0.41018395532E+01 -0.28901589353E+02  0.95935170868E+02  0.13722859771E+03  0.93680329133E+02 0.  0.
         23    2    1    2    0    0 -0.41018395532E+01  0.28901589353E+02  0.40263047635E+03  0.41451978215E+03  0.94144688375E+02 0.  0.
          5    1    4    4  502    0  0.25843247135E+02  0.44201036051E+02  0.33416268903E+03  0.33809524952E+03  0.47000000000E+01 0. -1.
         -5    1    3    3    0  503  0.42202953705E+02 -0.39722132188E+02  0.59784809779E+02  0.83398144867E+02  0.47000000000E+01 0.  1.
          5    1    3    3  503    0 -0.38101114152E+02  0.10820542835E+02  0.36150361089E+02  0.53830452847E+02  0.47000000000E+01 0. -1.
         -5    1    4    4    0  502 -0.29945086688E+02 -0.15299446698E+02  0.68467787322E+02  0.76424532624E+02  0.47000000000E+01 0.  1.
<mgrwt>
<rscale>  0 0.98455426E+02</rscale>
<asrwt>0</asrwt>
<pdfrwt beam="1">  1        2 0.80793379E-01 0.98566472E+02</pdfrwt>
<pdfrwt beam="2">  1       -2 0.40909798E-02 0.98566472E+02</pdfrwt>
<totfact> 0.14416317E+04</totfact>
</mgrwt>
</event>
<event>
 8    1  0.8438969E-004  0.9191269E+02  0.7546771E-02  0.1298951E+00
          2   -1    0    0  501    0  0.00000000000E+00  0.00000000000E+00  0.37053192016E+03  0.37053192016E+03  0.00000000000E+00 0. -1.
         -2   -1    0    0    0  501 -0.00000000000E+00 -0.00000000000E+00 -0.25323923654E+02  0.25323923654E+02  0.00000000000E+00 0.  1.
         23    2    1    2    0    0 -0.11926390095E+02 -0.16056744523E+01  0.10770789369E+03  0.14159425617E+03  0.91121490581E+02 0.  0.
         23    2    1    2    0    0  0.11926390095E+02  0.16056744523E+01  0.23750010281E+03  0.25426158764E+03  0.89987994442E+02 0.  0.
          5    1    3    3  502    0  0.26574021478E+01 -0.45286710807E+02  0.54722658008E+02  0.71236277706E+02  0.47000000000E+01 0. -1.
         -5    1    4    4    0  503 -0.24045279022E+02  0.25035794551E+02  0.45269565886E+02  0.57239759325E+02  0.47000000000E+01 0.  1.
          5    1    4    4  503    0  0.35971669117E+02 -0.23430120098E+02  0.19223053693E+03  0.19702182832E+03  0.47000000000E+01 0. -1.
         -5    1    3    3    0  502 -0.14583792243E+02  0.43681036354E+02  0.52985235684E+02  0.70357978465E+02  0.47000000000E+01 0.  1.
<mgrwt>
<rscale>  0 0.91630491E+02</rscale>
<asrwt>0</asrwt>
<pdfrwt beam="1">  1        2 0.57004907E-01 0.91912692E+02</pdfrwt>
<pdfrwt beam="2">  1       -2 0.38959885E-02 0.91912692E+02</pdfrwt>
<totfact> 0.22322511E+04</totfact>
</mgrwt>
</event>
<event>
 8    1  0.8438969E-004  0.9382409E+02  0.7546771E-02  0.1293973E+00
          3   -1    0    0  501    0  0.00000000000E+00  0.00000000000E+00  0.11339069050E+03  0.11339069050E+03  0.00000000000E+00 0. -1.
         -3   -1    0    0    0  501 -0.00000000000E+00 -0.00000000000E+00 -0.77455275083E+02  0.77455275083E+02  0.00000000000E+00 0.  1.
         23    2    1    2    0    0 -0.12669979096E+02  0.16919393559E+02  0.17290710681E+02  0.95404027374E+02  0.91412064382E+02 0.  0.
         23    2    1    2    0    0  0.12669979096E+02 -0.16919393559E+02  0.18644704735E+02  0.95441938207E+02  0.91185219774E+02 0.  0.
          5    1    4    4  502    0 -0.24978388184E+02 -0.19789546662E+01  0.41494188038E+02  0.48700038797E+02  0.47000000000E+01 0. -1.
         -5    1    4    4    0  502  0.37648367281E+02 -0.14940438893E+02 -0.22849483304E+02  0.46741899410E+02  0.47000000000E+01 0.  1.
          5    1    3    3  503    0 -0.35556621164E+02 -0.12012070177E+02  0.37345085669E+02  0.53153631693E+02  0.47000000000E+01 0. -1.
         -5    1    3    3    0  503  0.22886642068E+02  0.28931463736E+02 -0.20054374988E+02  0.42250395681E+02  0.47000000000E+01 0.  1.
<mgrwt>
<rscale>  0 0.93768791E+02</rscale>
<asrwt>0</asrwt>
<pdfrwt beam="1">  1        3 0.17444721E-01 0.93824089E+02</pdfrwt>
<pdfrwt beam="2">  1       -3 0.11916196E-01 0.93824089E+02</pdfrwt>
<totfact> 0.33280187E+03</totfact>
</mgrwt>
</event>
<event>
 8    1  0.8438969E-004  0.1014567E+03  0.7546771E-02  0.1277832E+00
          3   -1    0    0  501    0  0.00000000000E+00  0.00000000000E+00  0.46875548688E+03  0.46875548688E+03  0.00000000000E+00 0. -1.
         -3   -1    0    0    0  501 -0.00000000000E+00 -0.00000000000E+00 -0.27534060475E+02  0.27534060475E+02  0.00000000000E+00 0.  1.
         23    2    1    2    0    0 -0.24755096553E+02 -0.35735795681E+02  0.10755200698E+03  0.14785428110E+03  0.91671109610E+02 0.  0.
         23    2    1    2    0    0  0.24755096553E+02  0.35735795681E+02  0.33366941942E+03  0.34843526625E+03  0.90454360918E+02 0.  0.
          5    1    4    4  502    0  0.55182297392E+02  0.30672015951E+01  0.18352336797E+03  0.19172222161E+03  0.47000000000E+01 0. -1.
         -5    1    4    4    0  502 -0.30427200838E+02  0.32668594086E+02  0.15014605146E+03  0.15671304463E+03  0.47000000000E+01 0.  1.
          5    1    3    3  503    0  0.29680716837E+01 -0.58460320372E+02  0.39431331208E+02  0.70734280151E+02  0.47000000000E+01 0. -1.
         -5    1    3    3    0  503 -0.27723168237E+02  0.22724524691E+02  0.68120675772E+02  0.77120000954E+02  0.47000000000E+01 0.  1.
<mgrwt>
<rscale>  0 0.10118103E+03</rscale>
<asrwt>0</asrwt>
<pdfrwt beam="1">  1        3 0.72116223E-01 0.10145666E+03</pdfrwt>
<pdfrwt beam="2">  1       -3 0.42360097E-02 0.10145666E+03</pdfrwt>
<totfact> 0.12136800E+03</totfact>
</mgrwt>
</event>
<event>
 8    1  0.8438969E-004  0.9452469E+02  0.7546771E-02  0.1293065E+00
         -2   -1    0    0    0  501 -0.00000000000E+00  0.00000000000E+00  0.31444867447E+03  0.31444867447E+03  0.00000000000E+00 0.  1.
          2   -1    0    0  501    0  0.00000000000E+00 -0.00000000000E+00 -0.37242527203E+02  0.37242527203E+02  0.00000000000E+00 0. -1.
         23    2    1    2    0    0  0.27339961948E+01 -0.29433706282E+02  0.22705186722E+03  0.24594200055E+03  0.89783625586E+02 0.  0.
         23    2    1    2    0    0 -0.27339961948E+01  0.29433706282E+02  0.50154280049E+02  0.10574920113E+03  0.88281503904E+02 0.  0.
          5    1    4    4  502    0  0.35224355741E+02  0.38099647502E+02  0.18286245622E+02  0.55216076971E+02  0.47000000000E+01 0. -1.
         -5    1    3    3    0  503  0.31537156731E+01 -0.54020412253E+02  0.79513046256E+02  0.96294160713E+02  0.47000000000E+01 0.  1.
          5    1    3    3  503    0 -0.41971947827E+00  0.24586705971E+02  0.14753882097E+03  0.14964783983E+03  0.47000000000E+01 0. -1.
         -5    1    4    4    0  502 -0.37958351936E+02 -0.86659412200E+01  0.31868034427E+02  0.50533124158E+02  0.47000000000E+01 0.  1.
<mgrwt>
<rscale>  0 0.94166259E+02</rscale>
<asrwt>0</asrwt>
<pdfrwt beam="1">  1        2 0.57296198E-02 0.94524691E+02</pdfrwt>
<pdfrwt beam="2">  1       -2 0.48376717E-01 0.94524691E+02</pdfrwt>
<totfact> 0.49592072E+03</totfact>
</mgrwt>
</event>
<event>
 8    1  0.8438969E-004  0.1584628E+03  0.7546771E-02  0.1197927E+00
         -2   -1    0    0    0  501 -0.00000000000E+00  0.00000000000E+00  0.45254337079E+02  0.45254337079E+02  0.00000000000E+00 0.  1.
          2   -1    0    0  501    0  0.00000000000E+00 -0.00000000000E+00 -0.54639228889E+03  0.54639228889E+03  0.00000000000E+00 0. -1.
         23    2    1    2    0    0 -0.63999948476E+02  0.73461522642E+02 -0.34009280407E+03  0.36571298157E+03  0.92683767703E+02 0.  0.
         23    2    1    2    0    0  0.63999948476E+02 -0.73461522642E+02 -0.16104514775E+03  0.22593364440E+03  0.12497153014E+03 0.  0.
          5    1    3    3  502    0 -0.51342912962E+02  0.44041823212E+02 -0.32110221479E+03  0.32818363647E+03  0.47000000000E+01 0. -1.
         -5    1    4    4    0  503 -0.22360769044E+02 -0.26707824897E+02  0.23641086984E+01  0.35227700932E+02  0.47000000000E+01 0. -1.
          5    1    4    4  503    0  0.86360717520E+02 -0.46753697745E+02 -0.16340925645E+03  0.19070594347E+03  0.47000000000E+01 0. -1.
         -5    1    3    3    0  502 -0.12657035514E+02  0.29419699429E+02 -0.18990589279E+02  0.37529345100E+02  0.47000000000E+01 0.  1.
<mgrwt>
<rscale>  0 0.15209117E+03</rscale>
<asrwt>0</asrwt>
<pdfrwt beam="1">  1        2 0.84060347E-01 0.15846284E+03</pdfrwt>
<pdfrwt beam="2">  1       -2 0.69622062E-02 0.15846284E+03</pdfrwt>
<totfact> 0.64091608E+03</totfact>
</mgrwt>
</event>
<event>
 8    1  0.8438969E-004  0.1181011E+03  0.7546771E-02  0.1251287E+00
          1   -1    0    0  501    0  0.00000000000E+00  0.00000000000E+00  0.12158182070E+03  0.12158182070E+03  0.00000000000E+00 0. -1.
         -1   -1    0    0    0  501 -0.00000000000E+00 -0.00000000000E+00 -0.16658671031E+03  0.16658671031E+03  0.00000000000E+00 0.  1.
         23    2    1    2    0    0  0.56604610794E+02  0.28225791877E+01 -0.11145025700E+03  0.16238543767E+03  0.10361381021E+03 0.  0.
         23    2    1    2    0    0 -0.56604610794E+02 -0.28225791877E+01  0.66445367382E+02  0.12578309334E+03  0.90522653551E+02 0.  0.
          5    1    4    4  502    0 -0.16076862427E+02  0.28280641848E+02  0.66833480058E+02  0.74478616163E+02  0.47000000000E+01 0. -1.
         -5    1    4    4    0  502 -0.40527748367E+02 -0.31103221035E+02 -0.38811267624E+00  0.51304477172E+02  0.47000000000E+01 0.  1.
          5    1    3    3  503    0  0.18870544177E+02 -0.45736742452E+02 -0.77264512932E+02  0.91868612737E+02  0.47000000000E+01 0. -1.
         -5    1    3    3    0  503  0.37734066617E+02  0.48559321639E+02 -0.34185744067E+02  0.70516824935E+02  0.47000000000E+01 0.  1.
<mgrwt>
<rscale>  0 0.11516859E+03</rscale>
<asrwt>0</asrwt>
<pdfrwt beam="1">  1        1 0.18704895E-01 0.11810110E+03</pdfrwt>
<pdfrwt beam="2">  1       -1 0.25628725E-01 0.11810110E+03</pdfrwt>
<totfact> 0.35516326E+03</totfact>
</mgrwt>
</event>
<event>
 8    1  0.8438969E-004  0.1105380E+03  0.7546771E-02  0.1262456E+00
          1   -1    0    0  501    0  0.00000000000E+00  0.00000000000E+00  0.52945333791E+03  0.52945333791E+03  0.00000000000E+00 0. -1.
         -1   -1    0    0    0  501 -0.00000000000E+00 -0.00000000000E+00 -0.97964563058E+02  0.97964563058E+02  0.00000000000E+00 0.  1.
         23    2    1    2    0    0 -0.43913716857E+02 -0.15219705120E+02 -0.62149299470E+02  0.12155508629E+03  0.93557734191E+02 0.  0.
         23    2    1    2    0    0  0.43913716857E+02  0.15219705120E+02  0.49363807433E+03  0.50586281468E+03  0.10029249672E+03 0.  0.
          5    1    3    3  502    0 -0.37376939219E+02  0.20687529623E+02  0.66918936210E+01  0.43495757350E+02  0.47000000000E+01 0. -1.
         -5    1    4    4    0  503 -0.11993824307E+02  0.45121621324E+02  0.21619280184E+03  0.22122664871E+03  0.47000000000E+01 0.  1.
          5    1    4    4  503    0  0.55907541164E+02 -0.29901916204E+02  0.27744527249E+03  0.28463616597E+03  0.47000000000E+01 0. -1.
         -5    1    3    3    0  502 -0.65367776385E+01 -0.35907234742E+02 -0.68841193091E+02  0.78059328942E+02  0.47000000000E+01 0.  1.
<mgrwt>
<rscale>  0 0.10898760E+03</rscale>
<asrwt>0</asrwt>
<pdfrwt beam="1">  1        1 0.81454358E-01 0.11053795E+03</pdfrwt>
<pdfrwt beam="2">  1       -1 0.15071472E-01 0.11053795E+03</pdfrwt>
<totfact> 0.13171934E+03</totfact>
</mgrwt>
</event>
<event>
 8    1  0.8438969E-004  0.9816587E+02  0.7546771E-02  0.1284357E+00
         -2   -1    0    0    0  501 -0.00000000000E+00  0.00000000000E+00  0.66048899566E+02  0.66048899566E+02  0.00000000000E+00 0.  1.
          2   -1    0    0  501    0  0.00000000000E+00 -0.00000000000E+00 -0.33008514373E+03  0.33008514373E+03  0.00000000000E+00 0. -1.
         23    2    1    2    0    0 -0.24801455960E+02  0.26292391616E+02 -0.28005854857E+03  0.29666920913E+03  0.90958380286E+02 0.  0.
         23    2    1    2    0    0  0.24801455960E+02 -0.26292391616E+02  0.16022304409E+02  0.99464834163E+02  0.91269583772E+02 0.  0.
          5    1    4    4  502    0 -0.18344385420E+02 -0.37313665012E+02 -0.15587898713E+02  0.44653092383E+02  0.47000000000E+01 0. -1.
         -5    1    3    3    0  503  0.19267217192E+02  0.10242807072E+02 -0.13738685118E+02  0.26210345740E+02  0.47000000000E+01 0.  1.
          5    1    3    3  503    0 -0.44068673152E+02  0.16049584545E+02 -0.26631986345E+03  0.27045886339E+03  0.47000000000E+01 0. -1.
         -5    1    4    4    0  502  0.43145841380E+02  0.11021273395E+02  0.31610203123E+02  0.54811741781E+02  0.47000000000E+01 0.  1.
<mgrwt>
<rscale>  0 0.98093476E+02</rscale>
<asrwt>0</asrwt>
<pdfrwt beam="1">  1        2 0.50782329E-01 0.98165875E+02</pdfrwt>
<pdfrwt beam="2">  1       -2 0.10161369E-01 0.98165875E+02</pdfrwt>
<totfact> 0.59645334E+03</totfact>
</mgrwt>
</event>
<event>
 8    1  0.8438969E-004  0.9422176E+02  0.7546771E-02  0.1295389E+00
         -2   -1    0    0    0  501 -0.00000000000E+00  0.00000000000E+00  0.71741188312E+02  0.71741188312E+02  0.00000000000E+00 0.  1.
          2   -1    0    0  501    0  0.00000000000E+00 -0.00000000000E+00 -0.13162872164E+03  0.13162872164E+03  0.00000000000E+00 0. -1.
         23    2    1    2    0    0  0.10206682540E+02 -0.82472727501E+01  0.18027302828E+01  0.94239000877E+02  0.93303513190E+02 0.  0.
         23    2    1    2    0    0 -0.10206682540E+02  0.82472727501E+01 -0.61690263611E+02  0.10913090907E+03  0.89059939450E+02 0.  0.
          5    1    3    3  502    0  0.18512207374E+02  0.36268789855E+02  0.19500630256E+02  0.45392637286E+02  0.47000000000E+01 0. -1.
         -5    1    3    3    0  502 -0.83055248334E+01 -0.44516062605E+02 -0.17697899973E+02  0.48846363591E+02  0.47000000000E+01 0.  1.
          5    1    4    4  503    0 -0.23415992507E+02 -0.36056532183E+02 -0.34216775153E+02  0.55147619351E+02  0.47000000000E+01 0.  1.
         -5    1    4    4    0  503  0.13209309967E+02  0.44303804933E+02 -0.27473488457E+02  0.53983289724E+02  0.47000000000E+01 0. -1.
<mgrwt>
<rscale>  0 0.93153662E+02</rscale>
<asrwt>0</asrwt>
<pdfrwt beam="1">  1        2 0.20250572E-01 0.94221757E+02</pdfrwt>
<pdfrwt beam="2">  1       -2 0.11037106E-01 0.94221757E+02</pdfrwt>
<totfact> 0.13981365E+04</totfact>
</mgrwt>
</event>
<event>
 8    1  0.8438969E-004  0.1028380E+03  0.7546771E-02  0.1275868E+00
         -3   -1    0    0    0  501 -0.00000000000E+00  0.00000000000E+00  0.10643310643E+03  0.10643310643E+03  0.00000000000E+00 0.  1.
          3   -1    0    0  501    0  0.00000000000E+00 -0.00000000000E+00 -0.10670004185E+03  0.10670004185E+03  0.00000000000E+00 0. -1.
         23    2    1    2    0    0  0.16517725450E+02 -0.45082809698E+02 -0.32761097802E+02  0.10528360778E+03  0.87784130415E+02 0.  0.
         23    2    1    2    0    0 -0.16517725450E+02  0.45082809698E+02  0.32494162380E+02  0.10784954050E+03  0.90941507651E+02 0.  0.
          5    1    3    3  502    0 -0.31450658129E+02 -0.31792720314E+02 -0.32159245913E+02  0.55283162530E+02  0.47000000000E+01 0. -1.
         -5    1    3    3    0  502  0.47968383579E+02 -0.13290089384E+02 -0.60185188958E+00  0.50000445245E+02  0.47000000000E+01 0.  1.
          5    1    4    4  503    0 -0.48079329358E+02  0.41722509967E+02  0.24276075864E+01  0.63877797615E+02  0.47000000000E+01 0. -1.
         -5    1    4    4    0  503  0.31561603908E+02  0.33602997305E+01  0.30066554794E+02  0.43971742889E+02  0.47000000000E+01 0.  1.
<mgrwt>
<rscale>  0 0.10213551E+03</rscale>
<asrwt>0</asrwt>
<pdfrwt beam="1">  1        3 0.16415391E-01 0.10283799E+03</pdfrwt>
<pdfrwt beam="2">  1       -3 0.16374324E-01 0.10283799E+03</pdfrwt>
<totfact> 0.22019273E+03</totfact>
</mgrwt>
</event>
<event>
 8    1  0.8438969E-004  0.8752154E+02  0.7546771E-02  0.1310474E+00
          1   -1    0    0  501    0  0.00000000000E+00  0.00000000000E+00  0.48007653722E+03  0.48007653722E+03  0.00000000000E+00 0. -1.
         -1   -1    0    0    0  501 -0.00000000000E+00 -0.00000000000E+00 -0.25110187303E+02  0.25110187303E+02  0.00000000000E+00 0.  1.
         23    2    1    2    0    0 -0.30785608964E+01 -0.47648002801E+01  0.69530252185E+02  0.10993869484E+03  0.84969875817E+02 0.  0.
         23    2    1    2    0    0  0.30785608964E+01  0.47648002801E+01  0.38543609773E+03  0.39524802968E+03  0.87337498655E+02 0.  0.
          5    1    3    3  502    0 -0.19048825405E+02  0.14384351484E+02  0.79148557089E+02  0.82803088144E+02  0.47000000000E+01 0. -1.
         -5    1    3    3    0  502  0.15970264509E+02 -0.19149151764E+02 -0.96183049039E+01  0.27135606700E+02  0.47000000000E+01 0.  1.
          5    1    4    4  503    0 -0.36090252540E+02 -0.38953175656E+01  0.27927468572E+03  0.28166313197E+03  0.47000000000E+01 0. -1.
         -5    1    4    4    0  503  0.39168813437E+02  0.86601178457E+01  0.10616141201E+03  0.11358489771E+03  0.47000000000E+01 0.  1.
<mgrwt>
<rscale>  0 0.86924836E+02</rscale>
<asrwt>0</asrwt>
<pdfrwt beam="1">  1        1 0.73857922E-01 0.87521538E+02</pdfrwt>
<pdfrwt beam="2">  1       -1 0.38631061E-02 0.87521538E+02</pdfrwt>
<totfact> 0.11315742E+04</totfact>
</mgrwt>
</event>
<event>
 8    1  0.8438969E-004  0.1135699E+03  0.7546771E-02  0.1255416E+00
          1   -1    0    0  501    0  0.00000000000E+00  0.00000000000E+00  0.82917711860E+03  0.82917711860E+03  0.00000000000E+00 0. -1.
         -1   -1    0    0    0  501 -0.00000000000E+00 -0.00000000000E+00 -0.15546455168E+02  0.15546455168E+02  0.00000000000E+00 0.  1.
         23    2    1    2    0    0  0.86477841018E+01  0.61881127016E+02  0.47884706273E+03  0.49213070474E+03  0.94837033965E+02 0.  0.
         23    2    1    2    0    0 -0.86477841018E+01 -0.61881127016E+02  0.33478360070E+03  0.35259286902E+03  0.91310535753E+02 0.  0.
          5    1    4    4  502    0 -0.41638791120E+02 -0.64022994270E+02  0.25085241306E+03  0.26226276110E+03  0.47000000000E+01 0. -1.
         -5    1    3    3    0  503  0.44311444009E+02  0.62261218246E+02  0.29330842315E+03  0.30313674218E+03  0.47000000000E+01 0.  1.
          5    1    3    3  503    0 -0.35663659908E+02 -0.38009122973E+00  0.18553863958E+03  0.18899396256E+03  0.47000000000E+01 0. -1.
         -5    1    4    4    0  502  0.32991007018E+02  0.21418672538E+01  0.83931187638E+02  0.90330107925E+02  0.47000000000E+01 0.  1.
<mgrwt>
<rscale>  0 0.11283076E+03</rscale>
<asrwt>0</asrwt>
<pdfrwt beam="1">  1        1 0.12756568E+00 0.11356990E+03</pdfrwt>
<pdfrwt beam="2">  1       -1 0.23917630E-02 0.11356990E+03</pdfrwt>
<totfact> 0.10888666E+04</totfact>
</mgrwt>
</event>
<event>
 8    1  0.8438969E-004  0.9148040E+02  0.7546771E-02  0.1299487E+00
         -2   -1    0    0    0  501 -0.00000000000E+00  0.00000000000E+00  0.55612063123E+02  0.55612063123E+02  0.00000000000E+00 0.  1.
          2   -1    0    0  501    0  0.00000000000E+00 -0.00000000000E+00 -0.19418825681E+03  0.19418825681E+03  0.00000000000E+00 0. -1.
         23    2    1    2    0    0 -0.14126029381E+01 -0.85252028215E+01 -0.12897053850E+03  0.15812040595E+03  0.91071337134E+02 0.  0.
         23    2    1    2    0    0  0.14126029381E+01  0.85252028215E+01 -0.96056551820E+01  0.91679913976E+02  0.90764880240E+02 0.  0.
          5    1    4    4  502    0 -0.38531843241E+02  0.30322259752E+00  0.17401950330E+02  0.42540718879E+02  0.47000000000E+01 0. -1.
         -5    1    4    4    0  502  0.39944446179E+02  0.82219802240E+01 -0.27007605512E+02  0.49139195097E+02  0.47000000000E+01 0.  1.
          5    1    3    3  503    0 -0.41549762862E+02  0.13385492127E+02 -0.77802666104E+02  0.89335877711E+02  0.47000000000E+01 0. -1.
         -5    1    3    3    0  503  0.40137159924E+02 -0.21910694948E+02 -0.51167872396E+02  0.68784528242E+02  0.47000000000E+01 0.  1.
<mgrwt>
<rscale>  0 0.91404031E+02</rscale>
<asrwt>0</asrwt>
<pdfrwt beam="1">  1        2 0.29875117E-01 0.91480397E+02</pdfrwt>
<pdfrwt beam="2">  1       -2 0.85557020E-02 0.91480397E+02</pdfrwt>
<totfact> 0.13538800E+04</totfact>
</mgrwt>
</event>
<event>
 8    1  0.8438969E-004  0.1055252E+03  0.7546771E-02  0.1270832E+00
          2   -1    0    0  501    0  0.00000000000E+00  0.00000000000E+00  0.11135284801E+03  0.11135284801E+03  0.00000000000E+00 0. -1.
         -2   -1    0    0    0  501 -0.00000000000E+00 -0.00000000000E+00 -0.21643820562E+03  0.21643820562E+03  0.00000000000E+00 0.  1.
         23    2    1    2    0    0  0.46207272115E+02  0.18281844414E+02 -0.17482780775E+03  0.20420656338E+03  0.93092536386E+02 0.  0.
         23    2    1    2    0    0 -0.46207272115E+02 -0.18281844414E+02  0.69742450145E+02  0.12358449026E+03  0.89105437819E+02 0.  0.
          5    1    3    3  502    0 -0.20994643549E+02 -0.12769994133E+02 -0.79950125001E+02  0.83773267189E+02  0.47000000000E+01 0. -1.
         -5    1    4    4    0  503 -0.95642795461E+01 -0.36780504258E+02 -0.45639653992E+01  0.38564241427E+02  0.47000000000E+01 0.  1.
          5    1    4    4  503    0 -0.36642992569E+02  0.18498659844E+02  0.74306415544E+02  0.85020248832E+02  0.47000000000E+01 0. -1.
         -5    1    3    3    0  502  0.67201915664E+02  0.31051838547E+02 -0.94877682752E+02  0.12043329619E+03  0.47000000000E+01 0.  1.
<mgrwt>
<rscale>  0 0.10463904E+03</rscale>
<asrwt>0</asrwt>
<pdfrwt beam="1">  1        2 0.17131207E-01 0.10552515E+03</pdfrwt>
<pdfrwt beam="2">  1       -2 0.33298185E-01 0.10552515E+03</pdfrwt>
<totfact> 0.26698886E+03</totfact>
</mgrwt>
</event>
<event>
 8    1  0.8438969E-004  0.9767338E+02  0.7546771E-02  0.1286351E+00
         -1   -1    0    0    0  501 -0.00000000000E+00  0.00000000000E+00  0.15279420524E+02  0.15279420524E+02  0.00000000000E+00 0.  1.
          1   -1    0    0  501    0  0.00000000000E+00 -0.00000000000E+00 -0.63855314979E+03  0.63855314979E+03  0.00000000000E+00 0. -1.
         23    2    1    2    0    0  0.28839879728E+02  0.10095850423E+02 -0.24777234586E+03  0.26632916424E+03  0.92770811649E+02 0.  0.
         23    2    1    2    0    0 -0.28839879728E+02 -0.10095850423E+02 -0.37550138341E+03  0.38750340608E+03  0.90685919083E+02 0.  0.
          5    1    3    3  502    0  0.48457014802E+02  0.28723634762E+02 -0.22049604419E+03  0.22762628359E+03  0.47000000000E+01 0. -1.
         -5    1    3    3    0  502 -0.19617135074E+02 -0.18627784338E+02 -0.27276301666E+02  0.38702880648E+02  0.47000000000E+01 0.  1.
          5    1    4    4  503    0 -0.32508181600E+02 -0.40943081284E+02 -0.13313003494E+03  0.14310420671E+03  0.47000000000E+01 0. -1.
         -5    1    4    4    0  503  0.36683018724E+01  0.30847230860E+02 -0.24237134847E+03  0.24439919937E+03  0.47000000000E+01 0.  1.
<mgrwt>
<rscale>  0 0.97175070E+02</rscale>
<asrwt>0</asrwt>
<pdfrwt beam="1">  1        1 0.98238942E-01 0.97673376E+02</pdfrwt>
<pdfrwt beam="2">  1       -1 0.23506802E-02 0.97673376E+02</pdfrwt>
<totfact> 0.16062080E+04</totfact>
</mgrwt>
</event>
<event>
 8    1  0.8438969E-004  0.1443235E+03  0.7546771E-02  0.1210564E+00
          2   -1    0    0  501    0  0.00000000000E+00  0.00000000000E+00  0.94588444792E+02  0.94588444792E+02  0.00000000000E+00 0. -1.
         -2   -1    0    0    0  501 -0.00000000000E+00 -0.00000000000E+00 -0.21898594043E+03  0.21898594043E+03  0.00000000000E+00 0.  1.
         23    2    1    2    0    0 -0.10243996727E+03  0.43821186961E+02 -0.10070058527E+03  0.17598257474E+03  0.91733393148E+02 0.  0.
         23    2    1    2    0    0  0.10243996727E+03 -0.43821186961E+02 -0.23696910373E+02  0.13759181048E+03  0.77173307754E+02 0.  0.
          5    1    3    3  502    0 -0.49383178135E+02 -0.24382780489E+01  0.38951385126E+01  0.49818727268E+02  0.47000000000E+01 0. -1.
         -5    1    4    4    0  503  0.45844672854E+02 -0.60748501747E+02 -0.14663111149E+02  0.77647996254E+02  0.47000000000E+01 0.  1.
          5    1    4    4  503    0  0.56595294416E+02  0.16927314786E+02 -0.90337992242E+01  0.59943814229E+02  0.47000000000E+01 0. -1.
         -5    1    3    3    0  502 -0.53056789136E+02  0.46259465010E+02 -0.10459572378E+03  0.12616384747E+03  0.47000000000E+01 0.  1.
<mgrwt>
<rscale>  0 0.14207453E+03</rscale>
<asrwt>0</asrwt>
<pdfrwt beam="1">  1        2 0.14552069E-01 0.14432345E+03</pdfrwt>
<pdfrwt beam="2">  1       -2 0.33690144E-01 0.14432345E+03</pdfrwt>
<totfact> 0.32146441E+03</totfact>
</mgrwt>
</event>
<event>
 8    1  0.8438969E-004  0.1016844E+03  0.7546771E-02  0.1280957E+00
         -1   -1    0    0    0  501 -0.00000000000E+00  0.00000000000E+00  0.20849126797E+02  0.20849126797E+02  0.00000000000E+00 0.  1.
          1   -1    0    0  501    0  0.00000000000E+00 -0.00000000000E+00 -0.48263187312E+03  0.48263187312E+03  0.00000000000E+00 0. -1.
         23    2    1    2    0    0  0.11865917545E+02 -0.40415965211E+02 -0.27807438359E+03  0.29350845258E+03  0.83949977249E+02 0.  0.
         23    2    1    2    0    0 -0.11865917545E+02  0.40415965211E+02 -0.18370836273E+03  0.20997254734E+03  0.92549758814E+02 0.  0.
          5    1    3    3  502    0  0.29509270665E+02 -0.25812581274E+02 -0.26241355749E+03  0.26536776663E+03  0.47000000000E+01 0. -1.
         -5    1    3    3    0  502 -0.17643353119E+02 -0.14603383937E+02 -0.15660826099E+02  0.28140685951E+02  0.47000000000E+01 0.  1.
          5    1    4    4  503    0  0.13067320791E+02  0.64809051290E+02 -0.11348657086E+03  0.13142396953E+03  0.47000000000E+01 0. -1.
         -5    1    4    4    0  503 -0.24933238336E+02 -0.24393086079E+02 -0.70221791867E+02  0.78548577807E+02  0.47000000000E+01 0.  1.
<mgrwt>
<rscale>  0 0.99686318E+02</rscale>
<asrwt>0</asrwt>
<pdfrwt beam="1">  1        1 0.74251058E-01 0.10168436E+03</pdfrwt>
<pdfrwt beam="2">  1       -1 0.32075579E-02 0.10168436E+03</pdfrwt>
<totfact> 0.14908572E+04</totfact>
</mgrwt>
</event>
<event>
 8    1  0.1260836E-003  0.9235457E+02  0.7546771E-02  0.1297645E+00
          1   -1    0    0  501    0  0.00000000000E+00  0.00000000000E+00  0.26226222700E+03  0.26226222700E+03  0.00000000000E+00 0. -1.
         -1   -1    0    0    0  501 -0.00000000000E+00 -0.00000000000E+00 -0.81393413401E+02  0.81393413401E+02  0.00000000000E+00 0.  1.
         23    2    1    2    0    0  0.79528473994E+01 -0.76495512332E+01  0.22403485642E+03  0.24232412859E+03  0.91692982229E+02 0.  0.
         23    2    1    2    0    0 -0.79528473994E+01  0.76495512332E+01 -0.43166042822E+02  0.10133151181E+03  0.91011013712E+02 0.  0.
          5    1    4    4  502    0 -0.48036905747E+02 -0.33428021295E+01 -0.14097380966E+02  0.50393896355E+02  0.47000000000E+01 0. -1.
         -5    1    3    3    0  503  0.35722340214E+02 -0.35737873238E+02  0.10123254340E+03  0.11324044779E+03  0.47000000000E+01 0.  1.
          5    1    3    3  503    0 -0.27769492814E+02  0.28088322005E+02  0.12280231302E+03  0.12908368079E+03  0.47000000000E+01 0. -1.
         -5    1    4    4    0  502  0.40084058347E+02  0.10992353363E+02 -0.29068661857E+02  0.50937615454E+02  0.47000000000E+01 0.  1.
<mgrwt>
<rscale>  0 0.92184840E+02</rscale>
<asrwt>0</asrwt>
<pdfrwt beam="1">  1        1 0.40348035E-01 0.92354569E+02</pdfrwt>
<pdfrwt beam="2">  1       -1 0.12522064E-01 0.92354569E+02</pdfrwt>
<totfact> 0.41828525E+03</totfact>
</mgrwt>
</event>
<event>
 8    1  0.8438969E-004  0.1248839E+03  0.7546771E-02  0.1235412E+00
         -4   -1    0    0    0  501 -0.00000000000E+00  0.00000000000E+00  0.36041338363E+02  0.36041338363E+02  0.00000000000E+00 0.  1.
          4   -1    0    0  501    0  0.00000000000E+00 -0.00000000000E+00 -0.52577312154E+03  0.52577312154E+03  0.00000000000E+00 0. -1.
         23    2    1    2    0    0 -0.86222343674E+02 -0.41346664325E+01 -0.12612441497E+03  0.17749181889E+03  0.90247380604E+02 0.  0.
         23    2    1    2    0    0  0.86222343674E+02  0.41346664325E+01 -0.36360736821E+03  0.38432264102E+03  0.89678236863E+02 0.  0.
          5    1    4    4  502    0  0.26607013774E+02 -0.10884748883E+02 -0.27404444367E+03  0.27558820375E+03  0.47000000000E+01 0. -1.
         -5    1    4    4    0  502  0.59615329899E+02  0.15019415316E+02 -0.89562924538E+02  0.10873443726E+03  0.47000000000E+01 0.  1.
          5    1    3    3  503    0  0.26268041921E+01  0.29110655420E+02 -0.35346466846E+02  0.46106323619E+02  0.47000000000E+01 0. -1.
         -5    1    3    3    0  503 -0.88849147866E+02 -0.33245321852E+02 -0.90777948127E+02  0.13138549527E+03  0.47000000000E+01 0.  1.
<mgrwt>
<rscale>  0 0.12478106E+03</rscale>
<asrwt>0</asrwt>
<pdfrwt beam="1">  1        4 0.80888165E-01 0.12488386E+03</pdfrwt>
<pdfrwt beam="2">  1       -4 0.55448218E-02 0.12488386E+03</pdfrwt>
<totfact> 0.45777335E+02</totfact>
</mgrwt>
</event>
<event>
 7    1  0.8438970E-004  0.3132036E+03  0.7546771E-02  0.1078820E+00
         -2   -1    0    0    0  501 -0.00000000000E+00  0.00000000000E+00  0.64492398882E+02  0.64492398882E+02  0.00000000000E+00 0.  1.
          2   -1    0    0  501    0  0.00000000000E+00 -0.00000000000E+00 -0.38026383493E+03  0.38026383493E+03  0.00000000000E+00 0. -1.
         23    2    1    2    0    0 -0.38062193814E+02 -0.44108401191E+02 -0.18574219088E+03  0.21284006022E+03  0.86060723373E+02 0.  0.
          5    1    1    2  502    0 -0.19156214654E+02 -0.24644185158E+02 -0.13840085074E+03  0.14195485870E+03  0.47000000000E+01 0. -1.
         -5    1    3    3    0  503  0.24977906038E+02 -0.17458961640E+01 -0.28991791447E+02  0.38594791290E+02  0.47000000000E+01 0.  1.
          5    1    3    3  503    0 -0.63040099852E+02 -0.42362505027E+02 -0.15675039944E+03  0.17424526893E+03  0.47000000000E+01 0. -1.
         -5    1    1    2    0  502  0.57218408469E+02  0.68752586349E+02  0.83716055753E+01  0.89961314893E+02  0.47000000000E+01 0.  1.
<mgrwt>
<rscale>  0 0.31320362E+03</rscale>
<asrwt>0</asrwt>
<pdfrwt beam="1">  1        2 0.58502127E-01 0.31320362E+03</pdfrwt>
<pdfrwt beam="2">  1       -2 0.99219078E-02 0.31320362E+03</pdfrwt>
<totfact> 0.56686576E+03</totfact>
</mgrwt>
</event>
<event>
 8    1  0.8438969E-004  0.1028021E+03  0.7546771E-02  0.1274561E+00
         -1   -1    0    0    0  501 -0.00000000000E+00  0.00000000000E+00  0.26774019816E+03  0.26774019816E+03  0.00000000000E+00 0.  1.
          1   -1    0    0  501    0  0.00000000000E+00 -0.00000000000E+00 -0.43988592772E+02  0.43988592772E+02  0.00000000000E+00 0. -1.
         23    2    1    2    0    0 -0.44662755704E+02 -0.15044600388E+02  0.16197756205E+03  0.19179424559E+03  0.91253494648E+02 0.  0.
         23    2    1    2    0    0  0.44662755704E+02  0.15044600388E+02  0.61774043337E+02  0.11993454534E+03  0.91362798711E+02 0.  0.
          5    1    4    4  502    0  0.46201813682E+02 -0.10850484215E+02 -0.51855170550E+01  0.47972077111E+02  0.47000000000E+01 0. -1.
         -5    1    4    4    0  502 -0.15390579778E+01  0.25895084604E+02  0.66959560392E+02  0.71962468232E+02  0.47000000000E+01 0.  1.
          5    1    3    3  503    0  0.19344505265E+02  0.21061677103E+02  0.49318016078E+02  0.57202804443E+02  0.47000000000E+01 0. -1.
         -5    1    3    3    0  503 -0.64007260969E+02 -0.36106277491E+02  0.11265954597E+03  0.13459144115E+03  0.47000000000E+01 0.  1.
<mgrwt>
<rscale>  0 0.10277777E+03</rscale>
<asrwt>0</asrwt>
<pdfrwt beam="1">  1        1 0.67674760E-02 0.10280206E+03</pdfrwt>
<pdfrwt beam="2">  1       -1 0.41190799E-01 0.10280206E+03</pdfrwt>
<totfact> 0.59608268E+03</totfact>
</mgrwt>
</event>
<event>
 8    1  0.8438969E-004  0.1145787E+03  0.7546771E-02  0.1258309E+00
         -1   -1    0    0    0  501 -0.00000000000E+00  0.00000000000E+00  0.14075696721E+03  0.14075696721E+03  0.00000000000E+00 0.  1.
          1   -1    0    0  501    0  0.00000000000E+00 -0.00000000000E+00 -0.83343812710E+02  0.83343812710E+02  0.00000000000E+00 0. -1.
         23    2    1    2    0    0  0.30757608077E+02 -0.28628974539E+02  0.21291197936E+02  0.10396300873E+03  0.92678710811E+02 0.  0.
         23    2    1    2    0    0 -0.30757608077E+02  0.28628974539E+02  0.36121956560E+02  0.12013777118E+03  0.10659568322E+03 0.  0.
          5    1    3    3  502    0 -0.26772094712E+00 -0.49920821997E+02 -0.14105815456E+02  0.52088618460E+02  0.47000000000E+01 0. -1.
         -5    1    3    3    0  502  0.31025329024E+02  0.21291847458E+02  0.35397013392E+02  0.51874390274E+02  0.47000000000E+01 0.  1.
          5    1    4    4  503    0 -0.59025982701E+02  0.49090127717E+02  0.12982052953E+02  0.78003403592E+02  0.47000000000E+01 0. -1.
         -5    1    4    4    0  503  0.28268374624E+02 -0.20461153178E+02  0.23139903607E+02  0.42134367590E+02  0.47000000000E+01 0.  1.
<mgrwt>
<rscale>  0 0.11122995E+03</rscale>
<asrwt>0</asrwt>
<pdfrwt beam="1">  1        1 0.12822125E-01 0.11457874E+03</pdfrwt>
<pdfrwt beam="2">  1       -1 0.21654918E-01 0.11457874E+03</pdfrwt>
<totfact> 0.75747422E+03</totfact>
</mgrwt>
</event>
<event>
 8    1  0.8438969E-004  0.1227393E+03  0.7546771E-02  0.1239301E+00
          2   -1    0    0  501    0  0.00000000000E+00  0.00000000000E+00  0.79656995727E+03  0.79656995727E+03  0.00000000000E+00 0. -1.
         -2   -1    0    0    0  501 -0.00000000000E+00 -0.00000000000E+00 -0.28563580814E+02  0.28563580814E+02  0.00000000000E+00 0.  1.
         23    2    1    2    0    0  0.37316256029E+02 -0.69804443888E+02  0.62857549280E+03  0.64044678466E+03  0.93807091867E+02 0.  0.
         23    2    1    2    0    0 -0.37316256029E+02  0.69804443888E+02  0.13943088366E+03  0.18468675343E+03  0.91668218170E+02 0.  0.
          5    1    3    3  502    0 -0.75410444107E+01 -0.49541792928E+02  0.50261772377E+03  0.50513158963E+03  0.47000000000E+01 0. -1.
         -5    1    3    3    0  502  0.44857300440E+02 -0.20262650960E+02  0.12595776903E+03  0.13531519502E+03  0.47000000000E+01 0.  1.
          5    1    4    4  503    0 -0.17086252021E+02 -0.20799971820E+02  0.23111139342E+02  0.35788176784E+02  0.47000000000E+01 0. -1.
         -5    1    4    4    0  503 -0.20230004008E+02  0.90604415708E+02  0.11631974432E+03  0.14889857664E+03  0.47000000000E+01 0.  1.
<mgrwt>
<rscale>  0 0.12233054E+03</rscale>
<asrwt>0</asrwt>
<pdfrwt beam="1">  1        2 0.12254921E+00 0.12273929E+03</pdfrwt>
<pdfrwt beam="2">  1       -2 0.43943977E-02 0.12273929E+03</pdfrwt>
<totfact> 0.81433341E+03</totfact>
</mgrwt>
</event>
<event>
 8    1  0.8438969E-004  0.2083539E+03  0.7546771E-02  0.1143518E+00
          2   -1    0    0  501    0  0.00000000000E+00  0.00000000000E+00  0.10051407657E+04  0.10051407657E+04  0.00000000000E+00 0. -1.
         -2   -1    0    0    0  501 -0.00000000000E+00 -0.00000000000E+00 -0.97598166224E+02  0.97598166224E+02  0.00000000000E+00 0.  1.
         23    2    1    2    0    0 -0.58521714170E+02  0.17580584063E+03  0.41142893796E+02  0.21237719804E+03  0.95283009547E+02 0.  0.
         23    2    1    2    0    0  0.58521714170E+02 -0.17580584063E+03  0.86639970572E+03  0.89036173393E+03  0.88108356815E+02 0.  0.
          5    1    4    4  502    0  0.15362503261E+02 -0.13116135475E+03  0.43922990602E+03  0.45867669205E+03  0.47000000000E+01 0. -1.
         -5    1    3    3    0  503 -0.24546667621E+02  0.16054457472E+03  0.56208828519E+02  0.17192621023E+03  0.47000000000E+01 0.  1.
          5    1    3    3  503    0 -0.33975046549E+02  0.15261265911E+02 -0.15065934722E+02  0.40450987804E+02  0.47000000000E+01 0. -1.
         -5    1    4    4    0  502  0.43159210909E+02 -0.44644485878E+02  0.42716979970E+03  0.43168504188E+03  0.47000000000E+01 0.  1.
<mgrwt>
<rscale>  0 0.20755382E+03</rscale>
<asrwt>0</asrwt>
<pdfrwt beam="1">  1        2 0.15463703E+00 0.20835387E+03</pdfrwt>
<pdfrwt beam="2">  1       -2 0.15015103E-01 0.20835387E+03</pdfrwt>
<totfact> 0.89539639E+02</totfact>
</mgrwt>
</event>
<event>
 8    1  0.8438969E-004  0.1007060E+03  0.7546771E-02  0.1281171E+00
          2   -1    0    0  501    0  0.00000000000E+00  0.00000000000E+00  0.44673258404E+03  0.44673258404E+03  0.00000000000E+00 0. -1.
         -2   -1    0    0    0  501 -0.00000000000E+00 -0.00000000000E+00 -0.23611063991E+02  0.23611063991E+02  0.00000000000E+00 0.  1.
         23    2    1    2    0    0 -0.37229761552E+02 -0.17681288987E+02  0.14064012525E+03  0.17044794914E+03  0.87029738656E+02 0.  0.
         23    2    1    2    0    0  0.37229761552E+02  0.17681288987E+02  0.28248139480E+03  0.29989569889E+03  0.91885845915E+02 0.  0.
          5    1    3    3  502    0 -0.58389069844E+02 -0.33998043990E+02  0.11282336673E+03  0.13159161278E+03  0.47000000000E+01 0. -1.
         -5    1    4    4    0  503  0.38646374942E+02  0.51704797131E+02  0.20856752865E+03  0.21837910237E+03  0.47000000000E+01 0.  1.
          5    1    4    4  503    0 -0.14166133898E+01 -0.34023508144E+02  0.73913866146E+02  0.81516596522E+02  0.47000000000E+01 0. -1.
         -5    1    3    3    0  502  0.21159308292E+02  0.16316755003E+02  0.27816758515E+02  0.38856336362E+02  0.47000000000E+01 0.  1.
<mgrwt>
<rscale>  0 0.99584812E+02</rscale>
<asrwt>0</asrwt>
<pdfrwt beam="1">  1        2 0.68728083E-01 0.10070597E+03</pdfrwt>
<pdfrwt beam="2">  1       -2 0.36324717E-02 0.10070597E+03</pdfrwt>
<totfact> 0.20490536E+04</totfact>
</mgrwt>
</event>
<event>
 8    1  0.8438969E-004  0.9417548E+02  0.7546771E-02  0.1293202E+00
         -1   -1    0    0    0  501 -0.00000000000E+00  0.00000000000E+00  0.15069823287E+03  0.15069823287E+03  0.00000000000E+00 0.  1.
          1   -1    0    0  501    0  0.00000000000E+00 -0.00000000000E+00 -0.59289592816E+02  0.59289592816E+02  0.00000000000E+00 0. -1.
         23    2    1    2    0    0 -0.13752851241E+01 -0.21532050541E+02  0.34987591219E+02  0.10020460054E+03  0.91385501149E+02 0.  0.
         23    2    1    2    0    0  0.13752851241E+01  0.21532050541E+02  0.56421048831E+02  0.10978322514E+03  0.91670612314E+02 0.  0.
          5    1    4    4  502    0 -0.15715682458E+02 -0.15259503360E+02 -0.15384016532E+02  0.27177069058E+02  0.47000000000E+01 0. -1.
         -5    1    3    3    0  503 -0.37842034142E+02 -0.36875828256E+02  0.27183253129E+02  0.59605918399E+02  0.47000000000E+01 0.  1.
          5    1    3    3  503    0  0.36466749018E+02  0.15343777715E+02  0.78043380906E+01  0.40598682140E+02  0.47000000000E+01 0. -1.
         -5    1    4    4    0  502  0.17090967582E+02  0.36791553901E+02  0.71805065363E+02  0.82606156085E+02  0.47000000000E+01 0.  1.
<mgrwt>
<rscale>  0 0.94106031E+02</rscale>
<asrwt>0</asrwt>
<pdfrwt beam="1">  1        1 0.91214759E-02 0.94175484E+02</pdfrwt>
<pdfrwt beam="2">  1       -1 0.23184343E-01 0.94175484E+02</pdfrwt>
<totfact> 0.10416814E+04</totfact>
</mgrwt>
</event>
<event>
 8    1  0.8438969E-004  0.1295191E+03  0.7546771E-02  0.1228699E+00
          1   -1    0    0  501    0  0.00000000000E+00  0.00000000000E+00  0.17664790295E+03  0.17664790295E+03  0.00000000000E+00 0. -1.
         -1   -1    0    0    0  501 -0.00000000000E+00 -0.00000000000E+00 -0.24140894042E+03  0.24140894042E+03  0.00000000000E+00 0.  1.
         23    2    1    2    0    0  0.61375999161E+02 -0.67972080564E+02 -0.19582424695E+03  0.23478143809E+03  0.91585866643E+02 0.  0.
         23    2    1    2    0    0 -0.61375999161E+02  0.67972080564E+02  0.13106320948E+03  0.18327540528E+03  0.89582879459E+02 0.  0.
          5    1    4    4  502    0 -0.83880618338E+02  0.50172270421E+02  0.11086488326E+03  0.14787267223E+03  0.47000000000E+01 0. -1.
         -5    1    3    3    0  503  0.15230483478E+02 -0.71078756427E+02 -0.16094863856E+03  0.17666553568E+03  0.47000000000E+01 0.  1.
          5    1    3    3  503    0  0.46145515683E+02  0.31066758630E+01 -0.34875608393E+02  0.58115902414E+02  0.47000000000E+01 0. -1.
         -5    1    4    4    0  502  0.22504619177E+02  0.17799810143E+02  0.20198326221E+02  0.35402733052E+02  0.47000000000E+01 0.  1.
<mgrwt>
<rscale>  0 0.12916549E+03</rscale>
<asrwt>0</asrwt>
<pdfrwt beam="1">  1        1 0.27176600E-01 0.12951906E+03</pdfrwt>
<pdfrwt beam="2">  1       -1 0.37139837E-01 0.12951906E+03</pdfrwt>
<totfact> 0.11931076E+03</totfact>
</mgrwt>
</event>
<event>
 8    1  0.8438969E-004  0.1459347E+03  0.7546771E-02  0.1205933E+00
          4   -1    0    0  501    0  0.00000000000E+00  0.00000000000E+00  0.10209345118E+03  0.10209345118E+03  0.00000000000E+00 0. -1.
         -4   -1    0    0    0  501 -0.00000000000E+00 -0.00000000000E+00 -0.20707276225E+03  0.20707276225E+03  0.00000000000E+00 0.  1.
         23    2    1    2    0    0 -0.10276535612E+03  0.47391019250E+02 -0.48302909497E+02  0.15261221120E+03  0.90281165357E+02 0.  0.
         23    2    1    2    0    0  0.10276535612E+03 -0.47391019250E+02 -0.56676401575E+02  0.15655400223E+03  0.92142899867E+02 0.  0.
          5    1    4    4  502    0  0.89010386783E+02 -0.56048490160E+00 -0.11489042832E+02  0.89873528938E+02  0.47000000000E+01 0. -1.
         -5    1    3    3    0  503 -0.11521405625E+03  0.25257912519E+02 -0.32901052817E+02  0.12254309519E+03  0.47000000000E+01 0.  1.
          5    1    3    3  503    0  0.12448700131E+02  0.22133106731E+02 -0.15401856679E+02  0.30069116011E+02  0.47000000000E+01 0. -1.
         -5    1    4    4    0  502  0.13754969337E+02 -0.46830534349E+02 -0.45187358742E+02  0.66680473296E+02  0.47000000000E+01 0.  1.
<mgrwt>
<rscale>  0 0.14564176E+03</rscale>
<asrwt>0</asrwt>
<pdfrwt beam="1">  1        4 0.15706685E-01 0.14593472E+03</pdfrwt>
<pdfrwt beam="2">  1       -4 0.31857348E-01 0.14593472E+03</pdfrwt>
<totfact> 0.55386306E+02</totfact>
</mgrwt>
</event>
<event>
 8    1  0.8438969E-004  0.9643237E+02  0.7546771E-02  0.1288121E+00
         -1   -1    0    0    0  501 -0.00000000000E+00  0.00000000000E+00  0.15629776303E+02  0.15629776303E+02  0.00000000000E+00 0.  1.
          1   -1    0    0  501    0  0.00000000000E+00 -0.00000000000E+00 -0.83983877801E+03  0.83983877801E+03  0.00000000000E+00 0. -1.
         23    2    1    2    0    0 -0.24925176167E+02  0.24986199528E+02 -0.64341816990E+03  0.65056729213E+03  0.89472262012E+02 0.  0.
         23    2    1    2    0    0  0.24925176167E+02 -0.24986199528E+02 -0.18079083181E+03  0.20490126218E+03  0.89742006894E+02 0.  0.
          5    1    3    3  502    0 -0.58547874972E+02  0.14999128206E+02 -0.38718338093E+03  0.39190035465E+03  0.47000000000E+01 0. -1.
         -5    1    3    3    0  502  0.33622698805E+02  0.99870713217E+01 -0.25623478897E+03  0.25866693748E+03  0.47000000000E+01 0.  1.
          5    1    4    4  503    0 -0.30081701933E+02  0.83048554191E+01 -0.50856790507E+02  0.59853007906E+02  0.47000000000E+01 0. -1.
         -5    1    4    4    0  503  0.55006878100E+02 -0.33291054947E+02 -0.12993404130E+03  0.14504825427E+03  0.47000000000E+01 0.  1.
<mgrwt>
<rscale>  0 0.96369566E+02</rscale>
<asrwt>0</asrwt>
<pdfrwt beam="1">  1        1 0.12920598E+00 0.96432372E+02</pdfrwt>
<pdfrwt beam="2">  1       -1 0.24045807E-02 0.96432372E+02</pdfrwt>
<totfact> 0.10476411E+04</totfact>
</mgrwt>
</event>
<event>
 8    1  0.8438969E-004  0.1074480E+03  0.7546771E-02  0.1270446E+00
         -2   -1    0    0    0  501 -0.00000000000E+00  0.00000000000E+00  0.30293250332E+02  0.30293250332E+02  0.00000000000E+00 0.  1.
          2   -1    0    0  501    0  0.00000000000E+00 -0.00000000000E+00 -0.34684227462E+03  0.34684227462E+03  0.00000000000E+00 0. -1.
         23    2    1    2    0    0  0.14639056075E+02 -0.29245793899E+02 -0.17415424135E+03  0.20463323918E+03  0.10234961833E+03 0.  0.
         23    2    1    2    0    0 -0.14639056075E+02  0.29245793899E+02 -0.14239478294E+03  0.17250228578E+03  0.91712299971E+02 0.  0.
          5    1    3    3  502    0 -0.42093723971E+01  0.31825431286E+02 -0.21096885129E+02  0.38700716462E+02  0.47000000000E+01 0. -1.
         -5    1    3    3    0  502  0.18848428472E+02 -0.61071225185E+02 -0.15305735622E+03  0.16593252272E+03  0.47000000000E+01 0.  1.
          5    1    4    4  503    0 -0.37839461678E+02  0.51281090305E+02 -0.10637866632E+03  0.12409708188E+03  0.47000000000E+01 0. -1.
         -5    1    4    4    0  503  0.23200405604E+02 -0.22035296406E+02 -0.36016116621E+02  0.48405203897E+02  0.47000000000E+01 0.  1.
<mgrwt>
<rscale>  0 0.10483445E+03</rscale>
<asrwt>0</asrwt>
<pdfrwt beam="1">  1        2 0.53360351E-01 0.10744795E+03</pdfrwt>
<pdfrwt beam="2">  1       -2 0.46605000E-02 0.10744795E+03</pdfrwt>
<totfact> 0.18652607E+04</totfact>
</mgrwt>
</event>
<event>
 8    1  0.8438969E-004  0.2545746E+03  0.7546771E-02  0.1110819E+00
         -1   -1    0    0    0  501 -0.00000000000E+00  0.00000000000E+00  0.38639624626E+02  0.38639624626E+02  0.00000000000E+00 0.  1.
          1   -1    0    0  501    0  0.00000000000E+00 -0.00000000000E+00 -0.16633507991E+04  0.16633507991E+04  0.00000000000E+00 0. -1.
         23    2    1    2    0    0 -0.11570866159E+03 -0.20864356794E+03 -0.84438432519E+03  0.88192578763E+03  0.88812011821E+02 0.  0.
         23    2    1    2    0    0  0.11570866159E+03  0.20864356794E+03 -0.78032684933E+03  0.82006463614E+03  0.81703016212E+02 0.  0.
          5    1    3    3  502    0 -0.12537431171E+03 -0.17025187224E+03 -0.75484938425E+03  0.78391587619E+03  0.47000000000E+01 0. -1.
         -5    1    4    4    0  503  0.48109956964E+02  0.13310859914E+03 -0.34230113338E+03  0.37043842003E+03  0.47000000000E+01 0.  1.
          5    1    4    4  503    0  0.67598704629E+02  0.75534968799E+02 -0.43802571595E+03  0.44962621611E+03  0.47000000000E+01 0. -1.
         -5    1    3    3    0  502  0.96656501190E+01 -0.38391695699E+02 -0.89534940944E+02  0.98009911441E+02  0.47000000000E+01 0.  1.
<mgrwt>
<rscale>  0 0.25397443E+03</rscale>
<asrwt>0</asrwt>
<pdfrwt beam="1">  1        1 0.25590011E+00 0.25457456E+03</pdfrwt>
<pdfrwt beam="2">  1       -1 0.59445579E-02 0.25457456E+03</pdfrwt>
<totfact> 0.75849581E+02</totfact>
</mgrwt>
</event>
<event>
 8    1  0.8438969E-004  0.1183392E+03  0.7546771E-02  0.1246381E+00
         -2   -1    0    0    0  501 -0.00000000000E+00  0.00000000000E+00  0.38083332502E+02  0.38083332502E+02  0.00000000000E+00 0. -1.
          2   -1    0    0  501    0  0.00000000000E+00 -0.00000000000E+00 -0.92112729372E+03  0.92112729372E+03  0.00000000000E+00 0.  1.
         23    2    1    2    0    0  0.36130315524E+02 -0.62014928668E+02 -0.81363084009E+03  0.82201609511E+03  0.92542236814E+02 0.  0.
         23    2    1    2    0    0 -0.36130315524E+02  0.62014928668E+02 -0.69413121124E+02  0.13719453111E+03  0.94089887365E+02 0.  0.
          5    1    3    3  502    0 -0.25243055328E+02 -0.26151205498E+02 -0.14337622880E+03  0.14798625063E+03  0.47000000000E+01 0. -1.
         -5    1    3    3    0  502  0.61373370852E+02 -0.35863723171E+02 -0.67025461129E+03  0.67402984448E+03  0.47000000000E+01 0.  1.
          5    1    4    4  503    0 -0.40926811208E+02  0.17053371232E+02  0.99966109047E+01  0.45692926976E+02  0.47000000000E+01 0. -1.
         -5    1    4    4    0  503  0.47964956845E+01  0.44961557437E+02 -0.79409732028E+02  0.91501604132E+02  0.47000000000E+01 0.  1.
<mgrwt>
<rscale>  0 0.11803128E+03</rscale>
<asrwt>0</asrwt>
<pdfrwt beam="1">  1        2 0.14171189E+00 0.11833917E+03</pdfrwt>
<pdfrwt beam="2">  1       -2 0.58589744E-02 0.11833917E+03</pdfrwt>
<totfact> 0.43910962E+03</totfact>
</mgrwt>
</event>
<event>
 8    1  0.8438969E-004  0.9687792E+02  0.7546771E-02  0.1288578E+00
         -1   -1    0    0    0  501 -0.00000000000E+00  0.00000000000E+00  0.23915261681E+02  0.23915261681E+02  0.00000000000E+00 0.  1.
          1   -1    0    0  501    0  0.00000000000E+00 -0.00000000000E+00 -0.39897327642E+03  0.39897327642E+03  0.00000000000E+00 0. -1.
         23    2    1    2    0    0 -0.18526312858E+02 -0.19574417659E+02 -0.14008816209E+03  0.16873078494E+03  0.90105507789E+02 0.  0.
         23    2    1    2    0    0  0.18526312858E+02  0.19574417659E+02 -0.23496985265E+03  0.25415775316E+03  0.93053477867E+02 0.  0.
          5    1    3    3  502    0 -0.49840298846E+01 -0.44195382563E+02 -0.27293392495E+02  0.52393622395E+02  0.47000000000E+01 0.  1.
         -5    1    3    3    0  502 -0.13542282973E+02  0.24620964905E+02 -0.11279476959E+03  0.11633716254E+03  0.47000000000E+01 0. -1.
          5    1    4    4  503    0  0.41246902256E+01  0.54517289098E+02 -0.10179024120E+03  0.11563948756E+03  0.47000000000E+01 0. -1.
         -5    1    4    4    0  503  0.14401622632E+02 -0.34942871439E+02 -0.13317961145E+03  0.13851826560E+03  0.47000000000E+01 0.  1.
<mgrwt>
<rscale>  0 0.96163044E+02</rscale>
<asrwt>0</asrwt>
<pdfrwt beam="1">  1        1 0.61380508E-01 0.96877922E+02</pdfrwt>
<pdfrwt beam="2">  1       -1 0.36792708E-02 0.96877922E+02</pdfrwt>
<totfact> 0.15469205E+04</totfact>
</mgrwt>
</event>
<event>
 7    1  0.1257870E-003  0.3502022E+03  0.7546771E-02  0.1062532E+00
          2   -1    0    0  501    0  0.00000000000E+00  0.00000000000E+00  0.66028313891E+03  0.66028313891E+03  0.00000000000E+00 0. -1.
         -2   -1    0    0    0  501 -0.00000000000E+00 -0.00000000000E+00 -0.46435221145E+02  0.46435221145E+02  0.00000000000E+00 0.  1.
         23    2    1    2    0    0  0.18636994976E+02 -0.43306984826E+02  0.12384330157E+03  0.16080796028E+03  0.91099968334E+02 0.  0.
          5    1    3    3  502    0  0.39028200452E+01  0.24556241491E+02  0.96663437856E+01  0.27088174590E+02  0.47000000000E+01 0. -1.
         -5    1    3    3    0  502  0.14734174930E+02 -0.67863226317E+02  0.11417695779E+03  0.13371978569E+03  0.47000000000E+01 0.  1.
          5    1    1    2  503    0  0.50906622576E+00  0.13366927666E+03  0.37615913908E+03  0.39923116435E+03  0.47000000000E+01 0. -1.
         -5    1    1    2    0  503 -0.19146061201E+02 -0.90362291837E+02  0.11384547711E+03  0.14667923543E+03  0.47000000000E+01 0.  1.
<mgrwt>
<rscale>  0 0.35020219E+03</rscale>
<asrwt>0</asrwt>
<pdfrwt beam="1">  1        2 0.10158201E+00 0.35020219E+03</pdfrwt>
<pdfrwt beam="2">  1       -2 0.71438806E-02 0.35020219E+03</pdfrwt>
<totfact> 0.51042637E+03</totfact>
</mgrwt>
</event>
<event>
 8    1  0.8438969E-004  0.9188126E+02  0.7546771E-02  0.1298858E+00
          2   -1    0    0  501    0  0.00000000000E+00  0.00000000000E+00  0.62603233579E+03  0.62603233579E+03  0.00000000000E+00 0. -1.
         -2   -1    0    0    0  501 -0.00000000000E+00 -0.00000000000E+00 -0.13361574031E+02  0.13361574031E+02  0.00000000000E+00 0.  1.
         23    2    1    2    0    0  0.69170389269E+01 -0.42075570994E+01  0.30784173964E+03  0.32126111402E+03  0.91523864414E+02 0.  0.
         23    2    1    2    0    0 -0.69170389269E+01  0.42075570994E+01  0.30482902212E+03  0.31813279580E+03  0.90676314818E+02 0.  0.
          5    1    4    4  502    0 -0.48519079508E+02  0.23861734416E+01  0.17733696026E+03  0.18393010187E+03  0.47000000000E+01 0. -1.
         -5    1    4    4    0  502  0.41602040581E+02  0.18213836578E+01  0.12749206186E+03  0.13420269393E+03  0.47000000000E+01 0.  1.
          5    1    3    3  503    0  0.87774891318E+01 -0.46279677606E+02  0.19667763358E+03  0.20229442510E+03  0.47000000000E+01 0. -1.
         -5    1    3    3    0  503 -0.18604502049E+01  0.42072120507E+02  0.11116410606E+03  0.11896668893E+03  0.47000000000E+01 0.  1.
<mgrwt>
<rscale>  0 0.91669478E+02</rscale>
<asrwt>0</asrwt>
<pdfrwt beam="1">  1        2 0.96312644E-01 0.91881264E+02</pdfrwt>
<pdfrwt beam="2">  1       -2 0.20556273E-02 0.91881264E+02</pdfrwt>
<totfact> 0.32063746E+04</totfact>
</mgrwt>
</event>
<event>
 8    1  0.8438969E-004  0.9484742E+02  0.7546771E-02  0.1293867E+00
         -1   -1    0    0    0  501 -0.00000000000E+00  0.00000000000E+00  0.11144871857E+03  0.11144871857E+03  0.00000000000E+00 0.  1.
          1   -1    0    0  501    0  0.00000000000E+00 -0.00000000000E+00 -0.77858758700E+02  0.77858758700E+02  0.00000000000E+00 0. -1.
         23    2    1    2    0    0  0.49910232701E+01 -0.19987181879E+02  0.84114463487E+01  0.91174961276E+02  0.88417890618E+02 0.  0.
         23    2    1    2    0    0 -0.49910232701E+01  0.19987181879E+02  0.25178513521E+02  0.98132515992E+02  0.92583126968E+02 0.  0.
          5    1    3    3  502    0  0.97805279623E+01 -0.52574484286E+02 -0.76586927783E+01  0.54226199390E+02  0.47000000000E+01 0. -1.
         -5    1    3    3    0  502 -0.47895046921E+01  0.32587302408E+02  0.16070139127E+02  0.36948761887E+02  0.47000000000E+01 0.  1.
          5    1    4    4  503    0 -0.46939238664E+02  0.16490574386E+01  0.37069833544E+01  0.47348107062E+02  0.47000000000E+01 0. -1.
         -5    1    4    4    0  503  0.41948215394E+02  0.18338124440E+02  0.21471530166E+02  0.50784408930E+02  0.47000000000E+01 0.  1.
<mgrwt>
<rscale>  0 0.93815375E+02</rscale>
<asrwt>0</asrwt>
<pdfrwt beam="1">  1        1 0.11978271E-01 0.94847420E+02</pdfrwt>
<pdfrwt beam="2">  1       -1 0.17145957E-01 0.94847420E+02</pdfrwt>
<totfact> 0.11792624E+04</totfact>
</mgrwt>
</event>
<event>
 8    1  0.8438969E-004  0.1191238E+03  0.7546771E-02  0.1244968E+00
          2   -1    0    0  501    0  0.00000000000E+00  0.00000000000E+00  0.15941027889E+03  0.15941027889E+03  0.00000000000E+00 0. -1.
         -2   -1    0    0    0  501 -0.00000000000E+00 -0.00000000000E+00 -0.23215785922E+03  0.23215785922E+03  0.00000000000E+00 0.  1.
         23    2    1    2    0    0  0.35224074992E+02 -0.67653020147E+02 -0.19044742427E+03  0.22410548692E+03  0.90196348392E+02 0.  0.
         23    2    1    2    0    0 -0.35224074992E+02  0.67653020147E+02  0.11769984394E+03  0.16746265118E+03  0.91503112975E+02 0.  0.
          5    1    3    3  502    0  0.36873685408E+02 -0.22994656032E+02 -0.20426612682E+02  0.48246858833E+02  0.47000000000E+01 0. -1.
         -5    1    3    3    0  502 -0.16496104161E+01 -0.44658364115E+02 -0.17002081159E+03  0.17585862809E+03  0.47000000000E+01 0.  1.
          5    1    4    4  503    0 -0.20882411630E+02  0.46481020232E+02  0.12925041828E+03  0.13901194547E+03  0.47000000000E+01 0. -1.
         -5    1    4    4    0  503 -0.14341663363E+02  0.21171999915E+02 -0.11550574337E+02  0.28450705719E+02  0.47000000000E+01 0.  1.
<mgrwt>
<rscale>  0 0.11887283E+03</rscale>
<asrwt>0</asrwt>
<pdfrwt beam="1">  1        2 0.24524659E-01 0.11912383E+03</pdfrwt>
<pdfrwt beam="2">  1       -2 0.35716593E-01 0.11912383E+03</pdfrwt>
<totfact> 0.15793441E+03</totfact>
</mgrwt>
</event>
<event>
 8    1  0.8438969E-004  0.1423800E+03  0.7546771E-02  0.1210339E+00
          1   -1    0    0  501    0  0.00000000000E+00  0.00000000000E+00  0.13791848986E+03  0.13791848986E+03  0.00000000000E+00 0. -1.
         -1   -1    0    0    0  501 -0.00000000000E+00 -0.00000000000E+00 -0.24810526260E+03  0.24810526260E+03  0.00000000000E+00 0.  1.
         23    2    1    2    0    0  0.10449662191E+03 -0.32123895706E+02 -0.17858977543E+03  0.22806475721E+03  0.90375532781E+02 0.  0.
         23    2    1    2    0    0 -0.10449662191E+03  0.32123895706E+02  0.68403002693E+02  0.15795899525E+03  0.91217239257E+02 0.  0.
          5    1    3    3  502    0  0.40450713863E+02  0.30782695703E+02 -0.77318536547E+02  0.92650314088E+02  0.47000000000E+01 0.  1.
         -5    1    3    3    0  502  0.64045908048E+02 -0.62906591409E+02 -0.10127123888E+03  0.13541444312E+03  0.47000000000E+01 0.  1.
          5    1    4    4  503    0 -0.49994558413E+02  0.52732918740E+02  0.67805633196E+02  0.99498293869E+02  0.47000000000E+01 0. -1.
         -5    1    4    4    0  503 -0.54502063497E+02 -0.20609023034E+02  0.59736949704E+00  0.58460701383E+02  0.47000000000E+01 0.  1.
<mgrwt>
<rscale>  0 0.14224540E+03</rscale>
<asrwt>0</asrwt>
<pdfrwt beam="1">  1        1 0.21218229E-01 0.14238003E+03</pdfrwt>
<pdfrwt beam="2">  1       -1 0.38170040E-01 0.14238003E+03</pdfrwt>
<totfact> 0.15575074E+03</totfact>
</mgrwt>
</event>
<event>
 8    1  0.8438969E-004  0.1052924E+03  0.7546771E-02  0.1272647E+00
          1   -1    0    0  501    0  0.00000000000E+00  0.00000000000E+00  0.56865465295E+03  0.56865465295E+03  0.00000000000E+00 0. -1.
         -1   -1    0    0    0  501 -0.00000000000E+00 -0.00000000000E+00 -0.19830476651E+02  0.19830476651E+02  0.00000000000E+00 0.  1.
         23    2    1    2    0    0 -0.11983276112E+02 -0.37999902070E+02  0.36160171061E+03  0.37661955892E+03  0.97462318788E+02 0.  0.
         23    2    1    2    0    0  0.11983276112E+02  0.37999902070E+02  0.18722246569E+03  0.21186557068E+03  0.90813968728E+02 0.  0.
          5    1    4    4  502    0  0.26121537647E+02  0.63036198693E+01  0.17118510789E+03  0.17334503603E+03  0.47000000000E+01 0. -1.
         -5    1    4    4    0  502 -0.14138261535E+02  0.31696282201E+02  0.16037357803E+02  0.38520534652E+02  0.47000000000E+01 0.  1.
          5    1    3    3  503    0  0.42334282758E+02 -0.22041985683E+02  0.18439444747E+03  0.19052937539E+03  0.47000000000E+01 0. -1.
         -5    1    3    3    0  503 -0.54317558870E+02 -0.15957916387E+02  0.17720726314E+03  0.18609018353E+03  0.47000000000E+01 0.  1.
<mgrwt>
<rscale>  0 0.10372737E+03</rscale>
<asrwt>0</asrwt>
<pdfrwt beam="1">  1        1 0.87485319E-01 0.10529243E+03</pdfrwt>
<pdfrwt beam="2">  1       -1 0.30508430E-02 0.10529243E+03</pdfrwt>
<totfact> 0.12982098E+04</totfact>
</mgrwt>
</event>
<event>
 8    1  0.8438969E-004  0.1858647E+03  0.7546771E-02  0.1162733E+00
          1   -1    0    0  501    0  0.00000000000E+00  0.00000000000E+00  0.56287710877E+03  0.56287710877E+03  0.00000000000E+00 0. -1.
         -1   -1    0    0    0  501 -0.00000000000E+00 -0.00000000000E+00 -0.92455686281E+02  0.92455686281E+02  0.00000000000E+00 0.  1.
         23    2    1    2    0    0  0.40074248810E+02  0.15622381458E+03  0.44007914544E+02  0.19100364693E+03  0.92378952902E+02 0.  0.
         23    2    1    2    0    0 -0.40074248810E+02 -0.15622381458E+03  0.42641350795E+03  0.46432914813E+03  0.88097970342E+02 0.  0.
          5    1    3    3  502    0  0.32267357985E+02  0.24486586008E+02  0.42561670962E+02  0.58943711461E+02  0.47000000000E+01 0. -1.
         -5    1    4    4    0  503  0.21955866994E+02 -0.35590856978E+02  0.57607689691E+02  0.71340767500E+02  0.47000000000E+01 0.  1.
          5    1    4    4  503    0 -0.62030115804E+02 -0.12063295760E+03  0.36880581826E+03  0.39298838063E+03  0.47000000000E+01 0. -1.
         -5    1    3    3    0  502  0.78068908247E+01  0.13173722857E+03  0.14462435812E+01  0.13205993547E+03  0.47000000000E+01 0.  1.
<mgrwt>
<rscale>  0 0.18533996E+03</rscale>
<asrwt>0</asrwt>
<pdfrwt beam="1">  1        1 0.86596476E-01 0.18586473E+03</pdfrwt>
<pdfrwt beam="2">  1       -1 0.14223952E-01 0.18586473E+03</pdfrwt>
<totfact> 0.13402993E+03</totfact>
</mgrwt>
</event>
<event>
 8    1  0.8438969E-004  0.1119152E+03  0.7546771E-02  0.1258879E+00
         -2   -1    0    0    0  501 -0.00000000000E+00  0.00000000000E+00  0.53158567796E+03  0.53158567796E+03  0.00000000000E+00 0.  1.
          2   -1    0    0  501    0  0.00000000000E+00 -0.00000000000E+00 -0.24316308523E+02  0.24316308523E+02  0.00000000000E+00 0. -1.
         23    2    1    2    0    0  0.27288203689E+02  0.61426984447E+02  0.32014202702E+03  0.33786149885E+03  0.84507718358E+02 0.  0.
         23    2    1    2    0    0 -0.27288203689E+02 -0.61426984447E+02  0.18712734241E+03  0.21804048763E+03  0.89482352945E+02 0.  0.
          5    1    3    3  502    0  0.31725291279E+02  0.28692138948E+02  0.51310123311E+02  0.66966795491E+02  0.47000000000E+01 0. -1.
         -5    1    3    3    0  502 -0.44370875904E+01  0.32734845499E+02  0.26883190371E+03  0.27089470336E+03  0.47000000000E+01 0.  1.
          5    1    4    4  503    0  0.15651993085E+02 -0.56182578184E+02  0.60588779333E+02  0.84229194227E+02  0.47000000000E+01 0. -1.
         -5    1    4    4    0  503 -0.42940196774E+02 -0.52444062624E+01  0.12653856308E+03  0.13381129340E+03  0.47000000000E+01 0.  1.
<mgrwt>
<rscale>  0 0.11091791E+03</rscale>
<asrwt>0</asrwt>
<pdfrwt beam="1">  1        2 0.37409709E-02 0.11191520E+03</pdfrwt>
<pdfrwt beam="2">  1       -2 0.81782404E-01 0.11191520E+03</pdfrwt>
<totfact> 0.29591874E+03</totfact>
</mgrwt>
</event>
<event>
 8    1  0.8438969E-004  0.9662325E+02  0.7546771E-02  0.1288333E+00
         -3   -1    0    0    0  501 -0.00000000000E+00  0.00000000000E+00  0.29049641428E+02  0.29049641428E+02  0.00000000000E+00 0.  1.
          3   -1    0    0  501    0  0.00000000000E+00 -0.00000000000E+00 -0.40138038500E+03  0.40138038500E+03  0.00000000000E+00 0. -1.
         23    2    1    2    0    0 -0.26788948487E+02  0.14288115576E+02 -0.88422183398E+02  0.13097532278E+03  0.91729246435E+02 0.  0.
         23    2    1    2    0    0  0.26788948487E+02 -0.14288115576E+02 -0.28390856018E+03  0.29945470366E+03  0.90262123797E+02 0.  0.
          5    1    4    4  502    0  0.43542884088E+02 -0.23327759966E+00 -0.26907323028E+03  0.27261425206E+03  0.47000000000E+01 0. -1.
         -5    1    3    3    0  503 -0.91553043524E+01  0.47740596516E+02 -0.20236424565E+02  0.52863853744E+02  0.47000000000E+01 0.  1.
          5    1    3    3  503    0 -0.17633644135E+02 -0.33452480941E+02 -0.68185758833E+02  0.78111469031E+02  0.47000000000E+01 0. -1.
         -5    1    4    4    0  502 -0.16753935600E+02 -0.14054837976E+02 -0.14835329892E+02  0.26840451592E+02  0.47000000000E+01 0.  1.
<mgrwt>
<rscale>  0 0.96273432E+02</rscale>
<asrwt>0</asrwt>
<pdfrwt beam="1">  1        3 0.61750826E-01 0.96623251E+02</pdfrwt>
<pdfrwt beam="2">  1       -3 0.44691758E-02 0.96623251E+02</pdfrwt>
<totfact> 0.15281470E+03</totfact>
</mgrwt>
</event>
<event>
 8    1  0.2799991E-003  0.1099670E+03  0.7546771E-02  0.1261370E+00
          1   -1    0    0  501    0  0.00000000000E+00  0.00000000000E+00  0.75070414213E+03  0.75070414213E+03  0.00000000000E+00 0. -1.
         -1   -1    0    0    0  501 -0.00000000000E+00 -0.00000000000E+00 -0.10087199541E+03  0.10087199541E+03  0.00000000000E+00 0.  1.
         23    2    1    2    0    0 -0.57921580780E+02  0.18583021451E+02  0.71538777484E+03  0.72355163535E+03  0.89705420187E+02 0.  0.
         23    2    1    2    0    0  0.57921580780E+02 -0.18583021451E+02 -0.65555628125E+02  0.12802450220E+03  0.91610559316E+02 0.  0.
          5    1    4    4  502    0  0.23522454900E+02 -0.82461728674E+01  0.21806194498E+02  0.33450042899E+02  0.47000000000E+01 0. -1.
         -5    1    4    4    0  502  0.34399125881E+02 -0.10336848584E+02 -0.87361822623E+02  0.94574459300E+02  0.47000000000E+01 0.  1.
          5    1    3    3  503    0 -0.61622112883E+02  0.47916697154E+02  0.49477138216E+03  0.50091327120E+03  0.47000000000E+01 0. -1.
         -5    1    3    3    0  503  0.37005321027E+01 -0.29333675703E+02  0.22061639268E+03  0.22263836414E+03  0.47000000000E+01 0.  1.
<mgrwt>
<rscale>  0 0.10956931E+03</rscale>
<asrwt>0</asrwt>
<pdfrwt beam="1">  1        1 0.11549294E+00 0.10996696E+03</pdfrwt>
<pdfrwt beam="2">  1       -1 0.15518769E-01 0.10996696E+03</pdfrwt>
<totfact> 0.77883951E+02</totfact>
</mgrwt>
</event>
<event>
 8    1  0.8438969E-004  0.1000651E+03  0.7546771E-02  0.1283917E+00
          2   -1    0    0  501    0  0.00000000000E+00  0.00000000000E+00  0.49218991689E+02  0.49218991689E+02  0.00000000000E+00 0. -1.
         -2   -1    0    0    0  501 -0.00000000000E+00 -0.00000000000E+00 -0.22827791454E+03  0.22827791454E+03  0.00000000000E+00 0.  1.
         23    2    1    2    0    0 -0.21064194907E+02 -0.21965575235E+01 -0.14920145957E+03  0.17964994817E+03  0.97798277938E+02 0.  0.
         23    2    1    2    0    0  0.21064194907E+02  0.21965575235E+01 -0.29857463281E+02  0.97846958058E+02  0.90741577656E+02 0.  0.
          5    1    4    4  502    0  0.45130489530E+02 -0.27043802084E+02 -0.67937602284E+01  0.53257614427E+02  0.47000000000E+01 0. -1.
         -5    1    4    4    0  502 -0.24066294624E+02  0.29240359608E+02 -0.23063703053E+02  0.44589343631E+02  0.47000000000E+01 0.  1.
          5    1    3    3  503    0 -0.44078899840E+00 -0.34425733460E+02 -0.11419035064E+02  0.36576082089E+02  0.47000000000E+01 0. -1.
         -5    1    3    3    0  503 -0.20623405908E+02  0.32229175936E+02 -0.13778242450E+03  0.14307386608E+03  0.47000000000E+01 0.  1.
<mgrwt>
<rscale>  0 0.98297622E+02</rscale>
<asrwt>0</asrwt>
<pdfrwt beam="1">  1        2 0.75721528E-02 0.10006512E+03</pdfrwt>
<pdfrwt beam="2">  1       -2 0.35119678E-01 0.10006512E+03</pdfrwt>
<totfact> 0.64184165E+03</totfact>
</mgrwt>
</event>
<event>
 8    1  0.8438969E-004  0.9989100E+02  0.7546771E-02  0.1282835E+00
          2   -1    0    0  501    0  0.00000000000E+00  0.00000000000E+00  0.78666911579E+03  0.78666911579E+03  0.00000000000E+00 0. -1.
         -2   -1    0    0    0  501 -0.00000000000E+00 -0.00000000000E+00 -0.12148317582E+02  0.12148317582E+02  0.00000000000E+00 0.  1.
         23    2    1    2    0    0  0.25889918241E+02  0.27506771083E+02  0.37326481219E+03  0.38531461811E+03  0.87828381430E+02 0.  0.
         23    2    1    2    0    0 -0.25889918241E+02 -0.27506771083E+02  0.40125598601E+03  0.41350281526E+03  0.92473248001E+02 0.  0.
          5    1    3    3  502    0  0.88626388842E+01  0.56409144549E+02  0.17396751541E+03  0.18315928689E+03  0.47000000000E+01 0. -1.
         -5    1    4    4    0  503 -0.22065718440E+02 -0.61161022869E+02  0.24280031222E+03  0.25139937999E+03  0.47000000000E+01 0.  1.
          5    1    4    4  503    0 -0.38241998009E+01  0.33654251786E+02  0.15845567380E+03  0.16210343527E+03  0.47000000000E+01 0. -1.
         -5    1    3    3    0  502  0.17027279357E+02 -0.28902373466E+02  0.19929729679E+03  0.20215533122E+03  0.47000000000E+01 0.  1.
<mgrwt>
<rscale>  0 0.98802381E+02</rscale>
<asrwt>0</asrwt>
<pdfrwt beam="1">  1        2 0.12102598E+00 0.99891000E+02</pdfrwt>
<pdfrwt beam="2">  1       -2 0.18689726E-02 0.99891000E+02</pdfrwt>
<totfact> 0.28373455E+04</totfact>
</mgrwt>
</event>
<event>
 8    1  0.8438969E-004  0.1063706E+03  0.7546771E-02  0.1268177E+00
         -3   -1    0    0    0  501 -0.00000000000E+00  0.00000000000E+00  0.15833897626E+02  0.15833897626E+02  0.00000000000E+00 0.  1.
          3   -1    0    0  501    0  0.00000000000E+00 -0.00000000000E+00 -0.75321112067E+03  0.75321112067E+03  0.00000000000E+00 0. -1.
         23    2    1    2    0    0 -0.36902731409E+02 -0.34911551810E+02 -0.46892385006E+03  0.48083705586E+03  0.93456241606E+02 0.  0.
         23    2    1    2    0    0  0.36902731409E+02  0.34911551810E+02 -0.26845337298E+03  0.28820796244E+03  0.91738694734E+02 0.  0.
          5    1    4    4  502    0  0.21927384928E+02  0.20073019652E+02 -0.26455270638E+03  0.26625919849E+03  0.47000000000E+01 0. -1.
         -5    1    3    3    0  503 -0.10590037238E+02 -0.65029033053E+02 -0.29838358647E+03  0.30560722947E+03  0.47000000000E+01 0.  1.
          5    1    3    3  503    0 -0.26312694172E+02  0.30117481243E+02 -0.17054026359E+03  0.17522982639E+03  0.47000000000E+01 0. -1.
         -5    1    4    4    0  502  0.14975346481E+02  0.14838532158E+02 -0.39006666012E+01  0.21948763946E+02  0.47000000000E+01 0.  1.
<mgrwt>
<rscale>  0 0.10599210E+03</rscale>
<asrwt>0</asrwt>
<pdfrwt beam="1">  1        3 0.11587861E+00 0.10637057E+03</pdfrwt>
<pdfrwt beam="2">  1       -3 0.24359847E-02 0.10637057E+03</pdfrwt>
<totfact> 0.10051133E+03</totfact>
</mgrwt>
</event>
<event>
 8    1  0.8438969E-004  0.1018406E+03  0.7546771E-02  0.1276715E+00
         -1   -1    0    0    0  501 -0.00000000000E+00  0.00000000000E+00  0.46655286695E+02  0.46655286695E+02  0.00000000000E+00 0.  1.
          1   -1    0    0  501    0  0.00000000000E+00 -0.00000000000E+00 -0.34891552734E+03  0.34891552734E+03  0.00000000000E+00 0. -1.
         23    2    1    2    0    0  0.44903384602E+02  0.23559251334E+01 -0.27053499790E+03  0.28890306621E+03  0.90851154331E+02 0.  0.
         23    2    1    2    0    0 -0.44903384602E+02 -0.23559251334E+01 -0.31725242740E+02  0.10666774782E+03  0.91376436059E+02 0.  0.
          5    1    4    4  502    0  0.23068212994E+02 -0.15141275225E+02  0.46599401208E+01  0.28376146815E+02  0.47000000000E+01 0. -1.
         -5    1    3    3    0  503 -0.22508865155E+02 -0.19693684853E+02 -0.78763343965E+02  0.84381541739E+02  0.47000000000E+01 0.  1.
          5    1    3    3  503    0  0.67412249757E+02  0.22049609987E+02 -0.19177165394E+03  0.20452152447E+03  0.47000000000E+01 0. -1.
         -5    1    4    4    0  502 -0.67971597596E+02  0.12785350091E+02 -0.36385182861E+02  0.78291601008E+02  0.47000000000E+01 0.  1.
<mgrwt>
<rscale>  0 0.10172268E+03</rscale>
<asrwt>0</asrwt>
<pdfrwt beam="1">  1        1 0.53679310E-01 0.10184065E+03</pdfrwt>
<pdfrwt beam="2">  1       -1 0.71777367E-02 0.10184065E+03</pdfrwt>
<totfact> 0.68719538E+03</totfact>
</mgrwt>
</event>
<event>
 8    1  0.8438969E-004  0.9734542E+02  0.7546771E-02  0.1286240E+00
          1   -1    0    0  501    0  0.00000000000E+00  0.00000000000E+00  0.67753572904E+02  0.67753572904E+02  0.00000000000E+00 0. -1.
         -1   -1    0    0    0  501 -0.00000000000E+00 -0.00000000000E+00 -0.13934088716E+03  0.13934088716E+03  0.00000000000E+00 0.  1.
         23    2    1    2    0    0 -0.24387328774E+02 -0.23996563699E+02 -0.39432115630E+02  0.10502867227E+03  0.91134808837E+02 0.  0.
         23    2    1    2    0    0  0.24387328774E+02  0.23996563699E+02 -0.32155198626E+02  0.10206578779E+03  0.90625004084E+02 0.  0.
          5    1    4    4  502    0  0.92850328303E+01  0.55833188005E+02 -0.34478113798E+02  0.66440853761E+02  0.47000000000E+01 0. -1.
         -5    1    4    4    0  502  0.15102295944E+02 -0.31836624306E+02  0.23229151720E+01  0.35624934033E+02  0.47000000000E+01 0.  1.
          5    1    3    3  503    0  0.27591491433E+02  0.13573832918E+02 -0.33402397751E+01  0.31285564424E+02  0.47000000000E+01 0. -1.
         -5    1    3    3    0  503 -0.51978820207E+02 -0.37570396617E+02 -0.36091875855E+02  0.73743107847E+02  0.47000000000E+01 0.  1.
<mgrwt>
<rscale>  0 0.97225919E+02</rscale>
<asrwt>0</asrwt>
<pdfrwt beam="1">  1        1 0.10423627E-01 0.97345417E+02</pdfrwt>
<pdfrwt beam="2">  1       -1 0.21437059E-01 0.97345417E+02</pdfrwt>
<totfact> 0.99463872E+03</totfact>
</mgrwt>
</event>
<event>
 8    1  0.8438969E-004  0.1103259E+03  0.7546771E-02  0.1262701E+00
         -1   -1    0    0    0  501 -0.00000000000E+00  0.00000000000E+00  0.20429537510E+02  0.20429537510E+02  0.00000000000E+00 0.  1.
          1   -1    0    0  501    0  0.00000000000E+00 -0.00000000000E+00 -0.56890402034E+03  0.56890402034E+03  0.00000000000E+00 0. -1.
         23    2    1    2    0    0 -0.55608081849E+02  0.26713850391E+02 -0.30560373176E+03  0.32490837814E+03  0.91465429249E+02 0.  0.
         23    2    1    2    0    0  0.55608081849E+02 -0.26713850391E+02 -0.24287075107E+03  0.26442517972E+03  0.84430950319E+02 0.  0.
          5    1    4    4  502    0  0.55824304043E+02 -0.51642245441E+02 -0.20626902207E+03  0.21989150484E+03  0.47000000000E+01 0. -1.
         -5    1    4    4    0  502 -0.21622219419E+00  0.24928395050E+02 -0.36601729002E+02  0.44533674874E+02  0.47000000000E+01 0.  1.
          5    1    3    3  503    0  0.20262141563E+02  0.75059936688E+01 -0.24179089337E+02  0.32766029403E+02  0.47000000000E+01 0. -1.
         -5    1    3    3    0  503 -0.75870223412E+02  0.19207856722E+02 -0.28142464242E+03  0.29214234873E+03  0.47000000000E+01 0.  1.
<mgrwt>
<rscale>  0 0.10885740E+03</rscale>
<asrwt>0</asrwt>
<pdfrwt beam="1">  1        1 0.87523691E-01 0.11032594E+03</pdfrwt>
<pdfrwt beam="2">  1       -1 0.31430059E-02 0.11032594E+03</pdfrwt>
<totfact> 0.12474704E+04</totfact>
</mgrwt>
</event>
<event>
 8    1  0.8438969E-004  0.1003177E+03  0.7546771E-02  0.1283854E+00
          1   -1    0    0  501    0  0.00000000000E+00  0.00000000000E+00  0.99372813691E+03  0.99372813691E+03  0.00000000000E+00 0. -1.
         -1   -1    0    0    0  501 -0.00000000000E+00 -0.00000000000E+00 -0.99809044790E+01  0.99809044790E+01  0.00000000000E+00 0.  1.
         23    2    1    2    0    0 -0.15944815090E+02  0.89453054825E+01  0.38547867726E+03  0.39831828447E+03  0.98637667767E+02 0.  0.
         23    2    1    2    0    0  0.15944815090E+02 -0.89453054825E+01  0.59826855517E+03  0.60539075692E+03  0.90765901297E+02 0.  0.
          5    1    4    4  502    0  0.48143473741E+02  0.16629704822E+02  0.34058588793E+03  0.34440554322E+03  0.47000000000E+01 0. -1.
         -5    1    4    4    0  502 -0.32198658651E+02 -0.25575010305E+02  0.25768266724E+03  0.26098521370E+03  0.47000000000E+01 0.  1.
          5    1    3    3  503    0 -0.25900447263E+02  0.36236816232E+02  0.34698765527E+03  0.34986635009E+03  0.47000000000E+01 0. -1.
         -5    1    3    3    0  503  0.99556321731E+01 -0.27291510750E+02  0.38491021996E+02  0.48451934381E+02  0.47000000000E+01 0.  1.
<mgrwt>
<rscale>  0 0.98327042E+02</rscale>
<asrwt>0</asrwt>
<pdfrwt beam="1">  1        1 0.15288117E+00 0.10031772E+03</pdfrwt>
<pdfrwt beam="2">  1       -1 0.15355246E-02 0.10031772E+03</pdfrwt>
<totfact> 0.15275704E+04</totfact>
</mgrwt>
</event>
<event>
 8    1  0.8438969E-004  0.1002556E+03  0.7546771E-02  0.1281131E+00
         -3   -1    0    0    0  501 -0.00000000000E+00  0.00000000000E+00  0.22427052967E+02  0.22427052967E+02  0.00000000000E+00 0.  1.
          3   -1    0    0  501    0  0.00000000000E+00 -0.00000000000E+00 -0.50093344142E+03  0.50093344142E+03  0.00000000000E+00 0. -1.
         23    2    1    2    0    0 -0.33172252684E+02 -0.22849262031E+02 -0.14828110176E+03  0.17899294537E+03  0.91807963858E+02 0.  0.
         23    2    1    2    0    0  0.33172252684E+02  0.22849262031E+02 -0.33022528669E+03  0.34436754902E+03  0.88981917964E+02 0.  0.
          5    1    3    3  502    0  0.20975572480E+02 -0.35655652303E+02 -0.84651677318E+02  0.94336083524E+02  0.47000000000E+01 0.  1.
         -5    1    3    3    0  502 -0.54147825164E+02  0.12806390272E+02 -0.63629424444E+02  0.84656861841E+02  0.47000000000E+01 0. -1.
          5    1    4    4  503    0  0.57869535015E+01  0.45380116028E+02 -0.27325032073E+03  0.27709325423E+03  0.47000000000E+01 0. -1.
         -5    1    4    4    0  503  0.27385299183E+02 -0.22530853997E+02 -0.56974965965E+02  0.67274294793E+02  0.47000000000E+01 0.  1.
<mgrwt>
<rscale>  0 0.99603964E+02</rscale>
<asrwt>0</asrwt>
<pdfrwt beam="1">  1        3 0.77066675E-01 0.10025562E+03</pdfrwt>
<pdfrwt beam="2">  1       -3 0.34503162E-02 0.10025562E+03</pdfrwt>
<totfact> 0.14455779E+03</totfact>
</mgrwt>
</event>
<event>
 8    1  0.8438969E-004  0.1225130E+03  0.7546771E-02  0.1243530E+00
          3   -1    0    0  501    0  0.00000000000E+00  0.00000000000E+00  0.15747858781E+03  0.15747858781E+03  0.00000000000E+00 0. -1.
         -3   -1    0    0    0  501 -0.00000000000E+00 -0.00000000000E+00 -0.12473259528E+03  0.12473259528E+03  0.00000000000E+00 0.  1.
         23    2    1    2    0    0 -0.58574798936E+01  0.56604840161E+02 -0.61551631054E+02  0.12761016961E+03  0.96215040934E+02 0.  0.
         23    2    1    2    0    0  0.58574798936E+01 -0.56604840161E+02  0.94297623580E+02  0.15460101348E+03  0.10849430195E+03 0.  0.
          5    1    3    3  502    0 -0.16750668743E+02  0.30835635754E+02  0.20417715955E+02  0.40870459510E+02  0.47000000000E+01 0. -1.
         -5    1    4    4    0  503  0.38834805667E+01  0.30140348430E+02  0.72266729166E+01  0.31588555304E+02  0.47000000000E+01 0.  1.
          5    1    4    4  503    0  0.19739993269E+01 -0.86745188590E+02  0.87070950664E+02  0.12301245818E+03  0.47000000000E+01 0. -1.
         -5    1    3    3    0  502  0.10893188849E+02  0.25769204407E+02 -0.81969347009E+02  0.86739710099E+02  0.47000000000E+01 0.  1.
<mgrwt>
<rscale>  0 0.11973797E+03</rscale>
<asrwt>0</asrwt>
<pdfrwt beam="1">  1        3 0.24227475E-01 0.12251299E+03</pdfrwt>
<pdfrwt beam="2">  1       -3 0.19189630E-01 0.12251299E+03</pdfrwt>
<totfact> 0.87230407E+02</totfact>
</mgrwt>
</event>
<event>
 8    1  0.8438969E-004  0.1004020E+03  0.7546771E-02  0.1279773E+00
         -2   -1    0    0    0  501 -0.00000000000E+00  0.00000000000E+00  0.18632886355E+03  0.18632886355E+03  0.00000000000E+00 0.  1.
          2   -1    0    0  501    0  0.00000000000E+00 -0.00000000000E+00 -0.60408508578E+02  0.60408508578E+02  0.00000000000E+00 0. -1.
         23    2    1    2    0    0 -0.97042982942E+01 -0.38686100240E+02  0.10401804219E+03  0.14456940880E+03  0.92139964734E+02 0.  0.
         23    2    1    2    0    0  0.97042982942E+01  0.38686100240E+02  0.21902312782E+02  0.10216796333E+03  0.91475645225E+02 0.  0.
          5    1    3    3  502    0 -0.31524092271E+02 -0.35263779299E+02  0.10919106553E+02  0.48771091970E+02  0.47000000000E+01 0. -1.
         -5    1    3    3    0  502  0.21819793977E+02 -0.34223209403E+01  0.93098935638E+02  0.95798316827E+02  0.47000000000E+01 0.  1.
          5    1    4    4  503    0 -0.20461617859E+02  0.10970634458E+02 -0.28492828228E+02  0.37053527312E+02  0.47000000000E+01 0. -1.
         -5    1    4    4    0  503  0.30165916153E+02  0.27715465781E+02  0.50395141011E+02  0.65114436021E+02  0.47000000000E+01 0.  1.
<mgrwt>
<rscale>  0 0.10024932E+03</rscale>
<asrwt>0</asrwt>
<pdfrwt beam="1">  1        2 0.92936168E-02 0.10040200E+03</pdfrwt>
<pdfrwt beam="2">  1       -2 0.28665979E-01 0.10040200E+03</pdfrwt>
<totfact> 0.71856012E+03</totfact>
</mgrwt>
</event>
<event>
 7    1  0.8438969E-004  0.1733837E+03  0.7546771E-02  0.1187740E+00
          2   -1    0    0  501    0  0.00000000000E+00  0.00000000000E+00  0.80790086640E+03  0.80790086640E+03  0.00000000000E+00 0. -1.
         -2   -1    0    0    0  501 -0.00000000000E+00 -0.00000000000E+00 -0.67224356241E+02  0.67224356241E+02  0.00000000000E+00 0.  1.
         23    2    1    2    0    0 -0.73361333143E+02 -0.52953678210E+02  0.15325608972E+02  0.12933983268E+03  0.91147906118E+02 0.  0.
          5    1    3    3  502    0 -0.70876353628E+02  0.40701348352E+01  0.77294143383E+01  0.71567152711E+02  0.47000000000E+01 0. -1.
         -5    1    3    3    0  502 -0.24849795155E+01 -0.57023813045E+02  0.75961946339E+01  0.57772679965E+02  0.47000000000E+01 0.  1.
          5    1    1    2  503    0  0.92980147282E+02  0.43275535065E+02  0.71274965462E+03  0.72010571439E+03  0.47000000000E+01 0. -1.
         -5    1    1    2    0  503 -0.19618814138E+02  0.96781431449E+01  0.12601246562E+02  0.25679675579E+02  0.47000000000E+01 0.  1.
<mgrwt>
<rscale>  0 0.16085025E+03</rscale>
<asrwt>0</asrwt>
<pdfrwt beam="1">  1        2 0.12429243E+00 0.17338373E+03</pdfrwt>
<pdfrwt beam="2">  1       -2 0.10342209E-01 0.17338373E+03</pdfrwt>
<totfact> 0.21844987E+03</totfact>
</mgrwt>
</event>
<event>
 8    1  0.8438969E-004  0.9886750E+02  0.7546771E-02  0.1284097E+00
          2   -1    0    0  501    0  0.00000000000E+00  0.00000000000E+00  0.11942632863E+03  0.11942632863E+03  0.00000000000E+00 0. -1.
         -2   -1    0    0    0  501 -0.00000000000E+00 -0.00000000000E+00 -0.22577747146E+03  0.22577747146E+03  0.00000000000E+00 0.  1.
         23    2    1    2    0    0 -0.31291237483E+02 -0.20856424198E+02 -0.19224578188E+03  0.21617868227E+03  0.91436590272E+02 0.  0.
         23    2    1    2    0    0  0.31291237483E+02  0.20856424198E+02  0.85894639057E+02  0.12902511782E+03  0.88631033151E+02 0.  0.
          5    1    4    4  502    0 -0.25562102978E+02  0.23330360341E+02  0.15042194666E+02  0.38027416987E+02  0.47000000000E+01 0. -1.
         -5    1    3    3    0  503  0.28698992187E+02  0.74976114007E+00 -0.98500663053E+02  0.10270669363E+03  0.47000000000E+01 0.  1.
          5    1    3    3  503    0 -0.59990229670E+02 -0.21606185338E+02 -0.93745118830E+02  0.11347198864E+03  0.47000000000E+01 0. -1.
         -5    1    4    4    0  502  0.56853340461E+02 -0.24739361426E+01  0.70852444391E+02  0.90997700838E+02  0.47000000000E+01 0.  1.
<mgrwt>
<rscale>  0 0.98213849E+02</rscale>
<asrwt>0</asrwt>
<pdfrwt beam="1">  1        2 0.18373281E-01 0.98867497E+02</pdfrwt>
<pdfrwt beam="2">  1       -2 0.34734995E-01 0.98867497E+02</pdfrwt>
<totfact> 0.22740700E+03</totfact>
</mgrwt>
</event>
<event>
 8    1  0.8438969E-004  0.9330715E+02  0.7546771E-02  0.1296258E+00
          1   -1    0    0  501    0  0.00000000000E+00  0.00000000000E+00  0.14989216670E+03  0.14989216670E+03  0.00000000000E+00 0. -1.
         -1   -1    0    0    0  501 -0.00000000000E+00 -0.00000000000E+00 -0.25022101753E+03  0.25022101753E+03  0.00000000000E+00 0.  1.
         23    2    1    2    0    0  0.87592257863E+01  0.58668194424E+01 -0.22618799444E+03  0.24467781428E+03  0.92709656277E+02 0.  0.
         23    2    1    2    0    0 -0.87592257863E+01 -0.58668194424E+01  0.12585914361E+03  0.15543536995E+03  0.90600698638E+02 0.  0.
          5    1    4    4  502    0 -0.28455635583E+02 -0.14422395090E+02  0.12923303073E+03  0.13319532615E+03  0.47000000000E+01 0. -1.
         -5    1    4    4    0  502  0.19696409797E+02  0.85555756480E+01 -0.33738871249E+01  0.22240043793E+02  0.47000000000E+01 0.  1.
          5    1    3    3  503    0 -0.16857288926E+02  0.23554857110E+02 -0.18658660274E+02  0.34774057667E+02  0.47000000000E+01 0. -1.
         -5    1    3    3    0  503  0.25616514712E+02 -0.17688037667E+02 -0.20752933416E+03  0.20990375661E+03  0.47000000000E+01 0.  1.
<mgrwt>
<rscale>  0 0.92778894E+02</rscale>
<asrwt>0</asrwt>
<pdfrwt beam="1">  1        1 0.23060333E-01 0.93307149E+02</pdfrwt>
<pdfrwt beam="2">  1       -1 0.38495541E-01 0.93307149E+02</pdfrwt>
<totfact> 0.13627737E+03</totfact>
</mgrwt>
</event>
<event>
 8    1  0.8438969E-004  0.1004494E+03  0.7546771E-02  0.1285243E+00
         -1   -1    0    0    0  501 -0.00000000000E+00  0.00000000000E+00  0.22350556301E+03  0.22350556301E+03  0.00000000000E+00 0.  1.
          1   -1    0    0  501    0  0.00000000000E+00 -0.00000000000E+00 -0.42366041575E+02  0.42366041575E+02  0.00000000000E+00 0. -1.
         23    2    1    2    0    0  0.12616607876E+02  0.19919176808E+02  0.12324916992E+03  0.15899826923E+03  0.97642917483E+02 0.  0.
         23    2    1    2    0    0 -0.12616607876E+02 -0.19919176808E+02  0.57890351521E+02  0.10687333536E+03  0.86687165207E+02 0.  0.
          5    1    4    4  502    0 -0.13425322082E+02 -0.44566438433E+02  0.34319330806E+01  0.46907087655E+02  0.47000000000E+01 0. -1.
         -5    1    4    4    0  502  0.80871420593E+00  0.24647261624E+02  0.54458418441E+02  0.59966247701E+02  0.47000000000E+01 0.  1.
          5    1    3    3  503    0 -0.17210489619E+01 -0.39157056924E+02  0.48813222202E+02  0.62777844645E+02  0.47000000000E+01 0. -1.
         -5    1    3    3    0  503  0.14337656838E+02  0.59076233732E+02  0.74435947713E+02  0.96220424586E+02  0.47000000000E+01 0.  1.
<mgrwt>
<rscale>  0 0.97684129E+02</rscale>
<asrwt>0</asrwt>
<pdfrwt beam="1">  1        1 0.65178527E-02 0.10044945E+03</pdfrwt>
<pdfrwt beam="2">  1       -1 0.34385471E-01 0.10044945E+03</pdfrwt>
<totfact> 0.85391978E+03</totfact>
</mgrwt>
</event>
<event>
 8    1  0.8438969E-004  0.9957811E+02  0.7546771E-02  0.1282216E+00
         -1   -1    0    0    0  501 -0.00000000000E+00  0.00000000000E+00  0.63081477426E+03  0.63081477426E+03  0.00000000000E+00 0.  1.
          1   -1    0    0  501    0  0.00000000000E+00 -0.00000000000E+00 -0.24780893822E+02  0.24780893822E+02  0.00000000000E+00 0. -1.
         23    2    1    2    0    0  0.72610042803E+01  0.40146141658E+02  0.50267840366E+03  0.51207509498E+03  0.88718039431E+02 0.  0.
         23    2    1    2    0    0 -0.72610042803E+01 -0.40146141658E+02  0.10335547677E+03  0.14352057310E+03  0.90837026865E+02 0.  0.
          5    1    4    4  502    0  0.33222657665E+02  0.71629461565E+01  0.53772513117E+02  0.63785781698E+02  0.47000000000E+01 0. -1.
         -5    1    3    3    0  503 -0.11707960075E+02  0.53860004054E+02  0.45879415817E+03  0.46211702624E+03  0.47000000000E+01 0.  1.
          5    1    3    3  503    0  0.18968964356E+02 -0.13713862396E+02  0.43884245490E+02  0.49958068745E+02  0.47000000000E+01 0. -1.
         -5    1    4    4    0  502 -0.40483661945E+02 -0.47309087814E+02  0.49582963657E+02  0.79734791398E+02  0.47000000000E+01 0.  1.
<mgrwt>
<rscale>  0 0.99092288E+02</rscale>
<asrwt>0</asrwt>
<pdfrwt beam="1">  1        1 0.38124457E-02 0.99578112E+02</pdfrwt>
<pdfrwt beam="2">  1       -1 0.97048415E-01 0.99578112E+02</pdfrwt>
<totfact> 0.24883386E+03</totfact>
</mgrwt>
</event>
<event>
 8    1  0.8438969E-004  0.1621241E+03  0.7546771E-02  0.1186563E+00
          1   -1    0    0  501    0  0.00000000000E+00  0.00000000000E+00  0.16854752597E+04  0.16854752597E+04  0.00000000000E+00 0. -1.
         -1   -1    0    0    0  501 -0.00000000000E+00 -0.00000000000E+00 -0.15568307277E+02  0.15568307277E+02  0.00000000000E+00 0.  1.
         23    2    1    2    0    0  0.81044391371E+02  0.10573787029E+03  0.78079292884E+03  0.79726926629E+03  0.90840490256E+02 0.  0.
         23    2    1    2    0    0 -0.81044391371E+02 -0.10573787029E+03  0.88911402357E+03  0.90377430066E+03  0.92388035210E+02 0.  0.
          5    1    4    4  502    0 -0.69431638299E+02 -0.40962966380E+02  0.67263843808E+03  0.67746828368E+03  0.47000000000E+01 0. -1.
         -5    1    3    3    0  503  0.13420916104E+01  0.45556892767E+02  0.43219227988E+03  0.43461418347E+03  0.47000000000E+01 0.  1.
          5    1    3    3  503    0  0.79702299760E+02  0.60180977521E+02  0.34860064896E+03  0.36265508282E+03  0.47000000000E+01 0. -1.
         -5    1    4    4    0  502 -0.11612753072E+02 -0.64774903908E+02  0.21647558549E+03  0.22630601698E+03  0.47000000000E+01 0.  1.
<mgrwt>
<rscale>  0 0.16190449E+03</rscale>
<asrwt>0</asrwt>
<pdfrwt beam="1">  1        1 0.25930374E+00 0.16212415E+03</pdfrwt>
<pdfrwt beam="2">  1       -1 0.23951255E-02 0.16212415E+03</pdfrwt>
<totfact> 0.28326230E+03</totfact>
</mgrwt>
</event>
<event>
 8    1  0.8438969E-004  0.1158738E+03  0.7546771E-02  0.1250655E+00
         -2   -1    0    0    0  501 -0.00000000000E+00  0.00000000000E+00  0.76214979705E+01  0.76214979705E+01  0.00000000000E+00 0.  1.
          2   -1    0    0  501    0  0.00000000000E+00 -0.00000000000E+00 -0.18079828111E+04  0.18079828111E+04  0.00000000000E+00 0. -1.
         23    2    1    2    0    0 -0.27102459202E+02  0.65884018243E+02 -0.10799129136E+04  0.10861117021E+04  0.91386439220E+02 0.  0.
         23    2    1    2    0    0  0.27102459202E+02 -0.65884018243E+02 -0.72044839952E+03  0.72949260699E+03  0.89656679168E+02 0.  0.
          5    1    4    4  502    0  0.58849277966E+02 -0.54684556957E+02 -0.49635467737E+03  0.50283565310E+03  0.47000000000E+01 0. -1.
         -5    1    3    3    0  503 -0.57896097089E+02  0.22357497364E+02 -0.60394393434E+03  0.60714263692E+03  0.47000000000E+01 0.  1.
          5    1    3    3  503    0  0.30793637888E+02  0.43526520880E+02 -0.47596897931E+03  0.47896906520E+03  0.47000000000E+01 0. -1.
         -5    1    4    4    0  502 -0.31746818765E+02 -0.11199461287E+02 -0.22409372215E+03  0.22665695388E+03  0.47000000000E+01 0.  1.
<mgrwt>
<rscale>  0 0.11553244E+03</rscale>
<asrwt>0</asrwt>
<pdfrwt beam="1">  1        2 0.27815121E+00 0.11587376E+03</pdfrwt>
<pdfrwt beam="2">  1       -2 0.11725381E-02 0.11587376E+03</pdfrwt>
<totfact> 0.15306292E+04</totfact>
</mgrwt>
</event>
<event>
 8    1  0.8438969E-004  0.3246631E+03  0.7546771E-02  0.1073637E+00
          2   -1    0    0  501    0  0.00000000000E+00  0.00000000000E+00  0.34863212381E+04  0.34863212381E+04  0.00000000000E+00 0. -1.
         -2   -1    0    0    0  501 -0.00000000000E+00 -0.00000000000E+00 -0.31984647073E+02  0.31984647073E+02  0.00000000000E+00 0.  1.
         23    2    1    2    0    0  0.14051567400E+03 -0.27853709438E+03  0.21470191759E+04  0.21712776855E+04  0.86185138948E+02 0.  0.
         23    2    1    2    0    0 -0.14051567400E+03  0.27853709438E+03  0.13073174151E+04  0.13470281997E+04  0.89880917344E+02 0.  0.
          5    1    3    3  502    0  0.12832285196E+03 -0.21084297535E+03  0.18478328143E+04  0.18642504430E+04  0.47000000000E+01 0. -1.
         -5    1    4    4    0  503 -0.43024109631E+02  0.16520333218E+03  0.58658898784E+03  0.61094348808E+03  0.47000000000E+01 0.  1.
          5    1    4    4  503    0 -0.97491564369E+02  0.11333376220E+03  0.72072842729E+03  0.73608471162E+03  0.47000000000E+01 0. -1.
         -5    1    3    3    0  502  0.12192822039E+02 -0.67694119029E+02  0.29918636166E+03  0.30702724255E+03  0.47000000000E+01 0.  1.
<mgrwt>
<rscale>  0 0.32441192E+03</rscale>
<asrwt>0</asrwt>
<pdfrwt beam="1">  1        2 0.53635681E+00 0.32466313E+03</pdfrwt>
<pdfrwt beam="2">  1       -2 0.49207177E-02 0.32466313E+03</pdfrwt>
<totfact> 0.20444340E+02</totfact>
</mgrwt>
</event>
<event>
 8    1  0.8438969E-004  0.1025503E+03  0.7546771E-02  0.1275174E+00
         -1   -1    0    0    0  501 -0.00000000000E+00  0.00000000000E+00  0.33756656002E+02  0.33756656002E+02  0.00000000000E+00 0.  1.
          1   -1    0    0  501    0  0.00000000000E+00 -0.00000000000E+00 -0.32982991969E+03  0.32982991969E+03  0.00000000000E+00 0. -1.
         23    2    1    2    0    0  0.19823267609E+02 -0.47047605200E+02 -0.19168853017E+03  0.21725563021E+03  0.88595017719E+02 0.  0.
         23    2    1    2    0    0 -0.19823267609E+02  0.47047605200E+02 -0.10438473352E+03  0.14633094549E+03  0.88938933663E+02 0.  0.
          5    1    3    3  502    0 -0.17057386524E+02 -0.23522198969E+02 -0.11217008599E+02  0.31498564432E+02  0.47000000000E+01 0. -1.
         -5    1    3    3    0  502  0.36880654133E+02 -0.23525406231E+02 -0.18047152157E+03  0.18575706578E+03  0.47000000000E+01 0.  1.
          5    1    4    4  503    0 -0.49816555976E+02  0.34554914810E+02 -0.93895418409E+02  0.11186675550E+03  0.47000000000E+01 0. -1.
         -5    1    4    4    0  503  0.29993288367E+02  0.12492690390E+02 -0.10489315112E+02  0.34464189992E+02  0.47000000000E+01 0.  1.
<mgrwt>
<rscale>  0 0.10247573E+03</rscale>
<asrwt>0</asrwt>
<pdfrwt beam="1">  1        1 0.50743067E-01 0.10255034E+03</pdfrwt>
<pdfrwt beam="2">  1       -1 0.51933314E-02 0.10255034E+03</pdfrwt>
<totfact> 0.11895348E+04</totfact>
</mgrwt>
</event>
<event>
 8    1  0.8438969E-004  0.9404924E+02  0.7546771E-02  0.1294738E+00
         -1   -1    0    0    0  501 -0.00000000000E+00  0.00000000000E+00  0.13767016698E+02  0.13767016698E+02  0.00000000000E+00 0.  1.
          1   -1    0    0  501    0  0.00000000000E+00 -0.00000000000E+00 -0.64511028156E+03  0.64511028156E+03  0.00000000000E+00 0. -1.
         23    2    1    2    0    0 -0.46108956942E+01  0.11554639236E+02 -0.26300327233E+03  0.27931340930E+03  0.93222793945E+02 0.  0.
         23    2    1    2    0    0  0.46108956942E+01 -0.11554639236E+02 -0.36833999253E+03  0.37956388896E+03  0.90772383779E+02 0.  0.
          5    1    3    3  502    0 -0.15252394389E+02 -0.26275902841E+02 -0.21458894765E+03  0.21677999229E+03  0.47000000000E+01 0. -1.
         -5    1    3    3    0  502  0.10641498695E+02  0.37830542077E+02 -0.48414324682E+02  0.62533417009E+02  0.47000000000E+01 0.  1.
          5    1    4    4  503    0  0.16522032873E+02 -0.42775011596E+02 -0.29805289232E+03  0.30159624634E+03  0.47000000000E+01 0. -1.
         -5    1    4    4    0  503 -0.11911137179E+02  0.31220372360E+02 -0.70287100210E+02  0.77967642616E+02  0.47000000000E+01 0.  1.
<mgrwt>
<rscale>  0 0.93436195E+02</rscale>
<asrwt>0</asrwt>
<pdfrwt beam="1">  1        1 0.99247736E-01 0.94049239E+02</pdfrwt>
<pdfrwt beam="2">  1       -1 0.21180026E-02 0.94049239E+02</pdfrwt>
<totfact> 0.18326376E+04</totfact>
</mgrwt>
</event>
<event>
 8    1  0.8438969E-004  0.9785096E+02  0.7546771E-02  0.1286547E+00
         -1   -1    0    0    0  501 -0.00000000000E+00  0.00000000000E+00  0.20423504248E+03  0.20423504248E+03  0.00000000000E+00 0.  1.
          1   -1    0    0  501    0  0.00000000000E+00 -0.00000000000E+00 -0.98615600853E+02  0.98615600853E+02  0.00000000000E+00 0. -1.
         23    2    1    2    0    0 -0.18306125956E+01  0.27195564871E+02  0.16361244819E+03  0.18910531863E+03  0.90823116221E+02 0.  0.
         23    2    1    2    0    0  0.18306125956E+01 -0.27195564871E+02 -0.57993006563E+02  0.11374532470E+03  0.93977977156E+02 0.  0.
          5    1    3    3  502    0 -0.23497865900E+02 -0.16141210689E+02  0.14657383911E+02  0.32397797572E+02  0.47000000000E+01 0. -1.
         -5    1    3    3    0  502  0.21667253305E+02  0.43336775560E+02  0.14895506428E+03  0.15670752106E+03  0.47000000000E+01 0.  1.
          5    1    4    4  503    0  0.60077157024E+00  0.21370210571E+02 -0.61036043268E+02  0.64842388946E+02  0.47000000000E+01 0. -1.
         -5    1    4    4    0  503  0.12298410253E+01 -0.48565775442E+02  0.30430367051E+01  0.48902935757E+02  0.47000000000E+01 0.  1.
<mgrwt>
<rscale>  0 0.97085545E+02</rscale>
<asrwt>0</asrwt>
<pdfrwt beam="1">  1        1 0.15171631E-01 0.97850959E+02</pdfrwt>
<pdfrwt beam="2">  1       -1 0.31420776E-01 0.97850959E+02</pdfrwt>
<totfact> 0.32726961E+03</totfact>
</mgrwt>
</event>
<event>
 8    1  0.8438969E-004  0.1138140E+03  0.7546771E-02  0.1254333E+00
          1   -1    0    0  501    0  0.00000000000E+00  0.00000000000E+00  0.48956650292E+03  0.48956650292E+03  0.00000000000E+00 0. -1.
         -1   -1    0    0    0  501 -0.00000000000E+00 -0.00000000000E+00 -0.27787777071E+02  0.27787777071E+02  0.00000000000E+00 0.  1.
         23    2    1    2    0    0 -0.27656064495E+02  0.59877353215E+02  0.29583995484E+03  0.31697775025E+03  0.92754837852E+02 0.  0.
         23    2    1    2    0    0  0.27656064495E+02 -0.59877353215E+02  0.16593877101E+03  0.20037652974E+03  0.90911619799E+02 0.  0.
          5    1    4    4  502    0 -0.29334197075E+02 -0.17390637419E+02  0.89477159743E+02  0.95870649854E+02  0.47000000000E+01 0. -1.
         -5    1    4    4    0  502  0.56990261570E+02 -0.42486715796E+02  0.76461611269E+02  0.10450587989E+03  0.47000000000E+01 0.  1.
          5    1    3    3  503    0  0.14645376154E+02 -0.16659335892E+02  0.98543462309E+02  0.10111836865E+03  0.47000000000E+01 0.  1.
         -5    1    3    3    0  503 -0.42301440648E+02  0.76536689107E+02  0.19729649253E+03  0.21585938160E+03  0.47000000000E+01 0. -1.
<mgrwt>
<rscale>  0 0.11343782E+03</rscale>
<asrwt>0</asrwt>
<pdfrwt beam="1">  1        1 0.75317917E-01 0.11381395E+03</pdfrwt>
<pdfrwt beam="2">  1       -1 0.42750430E-02 0.11381395E+03</pdfrwt>
<totfact> 0.97242206E+03</totfact>
</mgrwt>
</event>
<event>
 8    1  0.8438969E-004  0.9867049E+02  0.7546771E-02  0.1283994E+00
         -3   -1    0    0    0  501 -0.00000000000E+00  0.00000000000E+00  0.89704310610E+02  0.89704310610E+02  0.00000000000E+00 0.  1.
          3   -1    0    0  501    0  0.00000000000E+00 -0.00000000000E+00 -0.21802961543E+03  0.21802961543E+03  0.00000000000E+00 0. -1.
         23    2    1    2    0    0 -0.30825699271E+02 -0.20007762617E+02 -0.17434444099E+03  0.20032935395E+03  0.91571456510E+02 0.  0.
         23    2    1    2    0    0  0.30825699271E+02  0.20007762617E+02  0.46019136169E+02  0.10740457210E+03  0.89818967446E+02 0.  0.
          5    1    3    3  502    0 -0.52266035075E+02 -0.25049627606E+02 -0.16669261895E+03  0.17654387976E+03  0.47000000000E+01 0. -1.
         -5    1    3    3    0  502  0.21440335804E+02  0.50418649893E+01 -0.76518220369E+01  0.23785474190E+02  0.47000000000E+01 0.  1.
          5    1    4    4  503    0  0.30617549165E+02 -0.42056729277E+01 -0.19875997176E+02  0.37044125923E+02  0.47000000000E+01 0. -1.
         -5    1    4    4    0  503  0.20815010624E+00  0.24213435545E+02  0.65895133344E+02  0.70360446174E+02  0.47000000000E+01 0.  1.
<mgrwt>
<rscale>  0 0.98261909E+02</rscale>
<asrwt>0</asrwt>
<pdfrwt beam="1">  1        3 0.33543018E-01 0.98670492E+02</pdfrwt>
<pdfrwt beam="2">  1       -3 0.13800663E-01 0.98670492E+02</pdfrwt>
<totfact> 0.81698354E+02</totfact>
</mgrwt>
</event>
<event>
 8    1  0.8438969E-004  0.1790286E+03  0.7546771E-02  0.1169268E+00
         -1   -1    0    0    0  501 -0.00000000000E+00  0.00000000000E+00  0.26586211717E+02  0.26586211717E+02  0.00000000000E+00 0.  1.
          1   -1    0    0  501    0  0.00000000000E+00 -0.00000000000E+00 -0.11917545821E+04  0.11917545821E+04  0.00000000000E+00 0. -1.
         23    2    1    2    0    0  0.12991306347E+03  0.83948150312E+02 -0.56699037661E+03  0.59394655807E+03  0.85847135491E+02 0.  0.
         23    2    1    2    0    0 -0.12991306347E+03 -0.83948150312E+02 -0.59817799374E+03  0.62439423572E+03  0.90147398176E+02 0.  0.
          5    1    3    3  502    0  0.65175653627E+02 -0.63979042860E+01 -0.21027306650E+03  0.22028538649E+03  0.47000000000E+01 0. -1.
         -5    1    4    4    0  503 -0.12521272036E+03 -0.62038132132E+02 -0.57522616672E+03  0.59197482046E+03  0.47000000000E+01 0.  1.
          5    1    4    4  503    0 -0.47003431150E+01 -0.21910018180E+02 -0.22951827021E+02  0.32419415258E+02  0.47000000000E+01 0. -1.
         -5    1    3    3    0  502  0.64737409845E+02  0.90346054598E+02 -0.35671731011E+03  0.37366117158E+03  0.47000000000E+01 0.  1.
<mgrwt>
<rscale>  0 0.17849466E+03</rscale>
<asrwt>0</asrwt>
<pdfrwt beam="1">  1        1 0.18334692E+00 0.17902863E+03</pdfrwt>
<pdfrwt beam="2">  1       -1 0.40901851E-02 0.17902863E+03</pdfrwt>
<totfact> 0.27448052E+03</totfact>
</mgrwt>
</event>
<event>
 8    1  0.8438969E-004  0.1249279E+03  0.7546771E-02  0.1235400E+00
         -1   -1    0    0    0  501 -0.00000000000E+00  0.00000000000E+00  0.33181878269E+02  0.33181878269E+02  0.00000000000E+00 0.  1.
          1   -1    0    0  501    0  0.00000000000E+00 -0.00000000000E+00 -0.68558989357E+03  0.68558989357E+03  0.00000000000E+00 0. -1.
         23    2    1    2    0    0  0.76963830756E+02  0.36313414244E+02 -0.12435555830E+03  0.17627052284E+03  0.91459811078E+02 0.  0.
         23    2    1    2    0    0 -0.76963830756E+02 -0.36313414244E+02 -0.52805245700E+03  0.54250124900E+03  0.90697919074E+02 0.  0.
          5    1    3    3  502    0  0.22136292437E+02  0.52639571449E+02 -0.97062317984E+02  0.11271257027E+03  0.47000000000E+01 0. -1.
         -5    1    4    4    0  503  0.17580651659E+02 -0.16397685235E+02 -0.16386363060E+03  0.16568446767E+03  0.47000000000E+01 0.  1.
          5    1    4    4  503    0 -0.94544482415E+02 -0.19915729009E+02 -0.36418882640E+03  0.37681678133E+03  0.47000000000E+01 0. -1.
         -5    1    3    3    0  502  0.54827538319E+02 -0.16326157205E+02 -0.27293240317E+02  0.63557952564E+02  0.47000000000E+01 0.  1.
<mgrwt>
<rscale>  0 0.12478854E+03</rscale>
<asrwt>0</asrwt>
<pdfrwt beam="1">  1        1 0.10547536E+00 0.12492795E+03</pdfrwt>
<pdfrwt beam="2">  1       -1 0.51049049E-02 0.12492795E+03</pdfrwt>
<totfact> 0.47888325E+03</totfact>
</mgrwt>
</event>
<event>
 8    1  0.8438969E-004  0.1104500E+03  0.7546771E-02  0.1259819E+00
          2   -1    0    0  501    0  0.00000000000E+00  0.00000000000E+00  0.44475740459E+03  0.44475740459E+03  0.00000000000E+00 0. -1.
         -2   -1    0    0    0  501 -0.00000000000E+00 -0.00000000000E+00 -0.27468907812E+02  0.27468907812E+02  0.00000000000E+00 0.  1.
         23    2    1    2    0    0 -0.28464742873E+02  0.55906698516E+02  0.19581795830E+03  0.22481965275E+03  0.90903261461E+02 0.  0.
         23    2    1    2    0    0  0.28464742873E+02 -0.55906698516E+02  0.22147053848E+03  0.24740665965E+03  0.90692090615E+02 0.  0.
          5    1    3    3  502    0 -0.43910747590E+02  0.39313470173E+02  0.19256862318E+03  0.20144097727E+03  0.47000000000E+01 0. -1.
         -5    1    3    3    0  502  0.15446004717E+02  0.16593228343E+02  0.32493351241E+01  0.23378675482E+02  0.47000000000E+01 0.  1.
          5    1    4    4  503    0  0.43071335942E+02  0.71905724652E+01  0.10933123338E+03  0.11782297274E+03  0.47000000000E+01 0. -1.
         -5    1    4    4    0  503 -0.14606593069E+02 -0.63097270981E+02  0.11213930509E+03  0.12958368691E+03  0.47000000000E+01 0.  1.
<mgrwt>
<rscale>  0 0.11040655E+03</rscale>
<asrwt>0</asrwt>
<pdfrwt beam="1">  1        2 0.68424211E-01 0.11045000E+03</pdfrwt>
<pdfrwt beam="2">  1       -2 0.42259861E-02 0.11045000E+03</pdfrwt>
<totfact> 0.16613418E+04</totfact>
</mgrwt>
</event>
<event>
 8    1  0.8438969E-004  0.1154143E+03  0.7546771E-02  0.1252367E+00
          1   -1    0    0  501    0  0.00000000000E+00  0.00000000000E+00  0.74337173601E+02  0.74337173601E+02  0.00000000000E+00 0. -1.
         -1   -1    0    0    0  501 -0.00000000000E+00 -0.00000000000E+00 -0.18676496934E+03  0.18676496934E+03  0.00000000000E+00 0.  1.
         23    2    1    2    0    0  0.48135083184E+02 -0.44958265937E+02 -0.91226714664E+02  0.14711482920E+03  0.94774614703E+02 0.  0.
         23    2    1    2    0    0 -0.48135083184E+02  0.44958265937E+02 -0.21201081075E+02  0.11398731374E+03  0.90583607494E+02 0.  0.
          5    1    3    3  502    0  0.59408918282E+02  0.48804840918E+01 -0.28987447818E+02  0.66449987414E+02  0.47000000000E+01 0. -1.
         -5    1    3    3    0  502 -0.11273835098E+02 -0.49838750029E+02 -0.62239266846E+02  0.80664841782E+02  0.47000000000E+01 0.  1.
          5    1    4    4  503    0  0.22971338613E+02  0.28824468783E+02  0.23212671187E+01  0.37229164365E+02  0.47000000000E+01 0. -1.
         -5    1    4    4    0  503 -0.71106421797E+02  0.16133797154E+02 -0.23522348193E+02  0.76758149378E+02  0.47000000000E+01 0.  1.
<mgrwt>
<rscale>  0 0.11455065E+03</rscale>
<asrwt>0</asrwt>
<pdfrwt beam="1">  1        1 0.11436488E-01 0.11541430E+03</pdfrwt>
<pdfrwt beam="2">  1       -1 0.28733072E-01 0.11541430E+03</pdfrwt>
<totfact> 0.55397968E+03</totfact>
</mgrwt>
</event>
<event>
 8    1  0.8438969E-004  0.1172407E+03  0.7546771E-02  0.1248560E+00
         -1   -1    0    0    0  501 -0.00000000000E+00  0.00000000000E+00  0.12896220203E+03  0.12896220203E+03  0.00000000000E+00 0.  1.
          1   -1    0    0  501    0  0.00000000000E+00 -0.00000000000E+00 -0.10488803704E+03  0.10488803704E+03  0.00000000000E+00 0. -1.
         23    2    1    2    0    0  0.66312943587E+01 -0.69088178171E+02  0.15289816682E+02  0.11823352939E+03  0.94489356814E+02 0.  0.
         23    2    1    2    0    0 -0.66312943587E+01  0.69088178171E+02  0.87843483040E+01  0.11561670968E+03  0.92048402233E+02 0.  0.
          5    1    4    4  502    0 -0.41437038848E+02  0.67158548991E+02 -0.11663724485E+01  0.79061680451E+02  0.47000000000E+01 0. -1.
         -5    1    4    4    0  502  0.34805744489E+02  0.19296291792E+01  0.99507207525E+01  0.36555029226E+02  0.47000000000E+01 0.  1.
          5    1    3    3  503    0 -0.26730271728E+02 -0.10464748319E+02 -0.25995011580E+02  0.39010883239E+02  0.47000000000E+01 0. -1.
         -5    1    3    3    0  503  0.33361566087E+02 -0.58623429851E+02  0.41284828262E+02  0.79222646156E+02  0.47000000000E+01 0.  1.
<mgrwt>
<rscale>  0 0.11674808E+03</rscale>
<asrwt>0</asrwt>
<pdfrwt beam="1">  1        1 0.16136621E-01 0.11724073E+03</pdfrwt>
<pdfrwt beam="2">  1       -1 0.19840339E-01 0.11724073E+03</pdfrwt>
<totfact> 0.64884358E+03</totfact>
</mgrwt>
</event>
<event>
 8    1  0.8438969E-004  0.8911800E+02  0.7546771E-02  0.1305115E+00
          2   -1    0    0  501    0  0.00000000000E+00  0.00000000000E+00  0.63775935411E+03  0.63775935411E+03  0.00000000000E+00 0. -1.
         -2   -1    0    0    0  501 -0.00000000000E+00 -0.00000000000E+00 -0.12778238052E+02  0.12778238052E+02  0.00000000000E+00 0.  1.
         23    2    1    2    0    0 -0.58842763023E+01 -0.17577230178E+02  0.25825919669E+03  0.27314259360E+03  0.86979767957E+02 0.  0.
         23    2    1    2    0    0  0.58842763023E+01  0.17577230178E+02  0.36672191936E+03  0.37739499856E+03  0.87169002912E+02 0.  0.
          5    1    3    3  502    0 -0.13455714735E+02 -0.46765166457E+02  0.92777448348E+02  0.10487031026E+03  0.47000000000E+01 0. -1.
         -5    1    4    4    0  503 -0.35414099226E+02  0.94887995630E+01  0.25941845000E+03  0.26203858101E+03  0.47000000000E+01 0.  1.
          5    1    4    4  503    0  0.41298375528E+02  0.80884306149E+01  0.10730346937E+03  0.11535641755E+03  0.47000000000E+01 0. -1.
         -5    1    3    3    0  502  0.75714384325E+01  0.29187936279E+02  0.16548174834E+03  0.16827228333E+03  0.47000000000E+01 0.  1.
<mgrwt>
<rscale>  0 0.89071697E+02</rscale>
<asrwt>0</asrwt>
<pdfrwt beam="1">  1        2 0.98116799E-01 0.89118005E+02</pdfrwt>
<pdfrwt beam="2">  1       -2 0.19658833E-02 0.89118005E+02</pdfrwt>
<totfact> 0.33363425E+04</totfact>
</mgrwt>
</event>
<event>
 8    1  0.8438969E-004  0.1169074E+03  0.7546771E-02  0.1249751E+00
         -2   -1    0    0    0  501 -0.00000000000E+00  0.00000000000E+00  0.27255486846E+02  0.27255486846E+02  0.00000000000E+00 0.  1.
          2   -1    0    0  501    0  0.00000000000E+00 -0.00000000000E+00 -0.56275229785E+03  0.56275229785E+03  0.00000000000E+00 0. -1.
         23    2    1    2    0    0  0.68707036142E+02 -0.11978607761E+02 -0.37930549381E+03  0.39691309643E+03  0.93825394344E+02 0.  0.
         23    2    1    2    0    0 -0.68707036142E+02  0.11978607761E+02 -0.15619131720E+03  0.19309468827E+03  0.89586199888E+02 0.  0.
          5    1    3    3  502    0  0.48054666865E+02 -0.36190366195E+02 -0.34358155631E+03  0.34884003418E+03  0.47000000000E+01 0. -1.
         -5    1    4    4    0  503  0.38257948793E-01  0.23539053626E+02 -0.10168530976E+03  0.10448004944E+03  0.47000000000E+01 0.  1.
          5    1    4    4  503    0 -0.68745294091E+02 -0.11560445865E+02 -0.54506007432E+02  0.88614638827E+02  0.47000000000E+01 0. -1.
         -5    1    3    3    0  502  0.20652369277E+02  0.24211758434E+02 -0.35723937499E+02  0.48073062246E+02  0.47000000000E+01 0.  1.
<mgrwt>
<rscale>  0 0.11605464E+03</rscale>
<asrwt>0</asrwt>
<pdfrwt beam="1">  1        2 0.86577275E-01 0.11690744E+03</pdfrwt>
<pdfrwt beam="2">  1       -2 0.41931519E-02 0.11690744E+03</pdfrwt>
<totfact> 0.13060922E+04</totfact>
</mgrwt>
</event>
<event>
 8    1  0.8438969E-004  0.1086999E+03  0.7546771E-02  0.1263014E+00
          2   -1    0    0  501    0  0.00000000000E+00  0.00000000000E+00  0.79837129405E+03  0.79837129405E+03  0.00000000000E+00 0. -1.
         -2   -1    0    0    0  501 -0.00000000000E+00 -0.00000000000E+00 -0.15585641493E+02  0.15585641493E+02  0.00000000000E+00 0.  1.
         23    2    1    2    0    0  0.32666023205E+02 -0.50276441835E+02  0.48313094448E+03  0.49520822695E+03  0.90669117394E+02 0.  0.
         23    2    1    2    0    0 -0.32666023205E+02  0.50276441835E+02  0.29965470808E+03  0.31874870860E+03  0.90625633692E+02 0.  0.
          5    1    3    3  502    0  0.44745891380E+02 -0.71115396850E+02  0.37619185906E+03  0.38548929854E+03  0.47000000000E+01 0. -1.
         -5    1    4    4    0  503  0.74343897439E+01  0.64236953783E+02  0.20222689937E+03  0.21236634670E+03  0.47000000000E+01 0.  1.
          5    1    4    4  503    0 -0.40100412949E+02 -0.13960511948E+02  0.97427808711E+02  0.10638236190E+03  0.47000000000E+01 0. -1.
         -5    1    3    3    0  502 -0.12079868175E+02  0.20838955015E+02  0.10693908542E+03  0.10971892841E+03  0.47000000000E+01 0.  1.
<mgrwt>
<rscale>  0 0.10869088E+03</rscale>
<asrwt>0</asrwt>
<pdfrwt beam="1">  1        2 0.12282632E+00 0.10869995E+03</pdfrwt>
<pdfrwt beam="2">  1       -2 0.23977916E-02 0.10869995E+03</pdfrwt>
<totfact> 0.19595348E+04</totfact>
</mgrwt>
</event>
<event>
 8    1  0.8438969E-004  0.9393175E+02  0.7546771E-02  0.1294249E+00
         -3   -1    0    0    0  501 -0.00000000000E+00  0.00000000000E+00  0.18574297597E+02  0.18574297597E+02  0.00000000000E+00 0.  1.
          3   -1    0    0  501    0  0.00000000000E+00 -0.00000000000E+00 -0.56340457362E+03  0.56340457362E+03  0.00000000000E+00 0. -1.
         23    2    1    2    0    0 -0.34322020892E+01  0.23677693805E+02 -0.38994488307E+03  0.40083622472E+03  0.89667463530E+02 0.  0.
         23    2    1    2    0    0  0.34322020892E+01 -0.23677693805E+02 -0.15488539295E+03  0.18114264650E+03  0.90833695488E+02 0.  0.
          5    1    4    4  502    0 -0.21055742401E+02 -0.51416592674E+02 -0.10460521160E+03  0.11853839287E+03  0.47000000000E+01 0. -1.
         -5    1    3    3    0  503  0.35331144872E+02 -0.13574719272E+02 -0.13780300560E+03  0.14298363946E+03  0.47000000000E+01 0.  1.
          5    1    3    3  503    0 -0.38763346961E+02  0.37252413077E+02 -0.25214187747E+03  0.25785258526E+03  0.47000000000E+01 0. -1.
         -5    1    4    4    0  502  0.24487944491E+02  0.27738898869E+02 -0.50280181352E+02  0.62604253630E+02  0.47000000000E+01 0.  1.
<mgrwt>
<rscale>  0 0.93648649E+02</rscale>
<asrwt>0</asrwt>
<pdfrwt beam="1">  1        3 0.86677624E-01 0.93931749E+02</pdfrwt>
<pdfrwt beam="2">  1       -3 0.28575843E-02 0.93931749E+02</pdfrwt>
<totfact> 0.14799074E+03</totfact>
</mgrwt>
</event>
<event>
 8    1  0.8438969E-004  0.9710982E+02  0.7546771E-02  0.1286646E+00
         -1   -1    0    0    0  501 -0.00000000000E+00  0.00000000000E+00  0.16382591901E+02  0.16382591901E+02  0.00000000000E+00 0.  1.
          1   -1    0    0  501    0  0.00000000000E+00 -0.00000000000E+00 -0.62307944210E+03  0.62307944210E+03  0.00000000000E+00 0. -1.
         23    2    1    2    0    0 -0.27764418682E+02  0.88126341962E+00 -0.39269733618E+03  0.40445967255E+03  0.92762003558E+02 0.  0.
         23    2    1    2    0    0  0.27764418682E+02 -0.88126341962E+00 -0.21399951401E+03  0.23500236144E+03  0.93052019418E+02 0.  0.
          5    1    4    4  502    0  0.29421177751E+02  0.43177128332E+02 -0.12528662580E+03  0.13582598689E+03  0.47000000000E+01 0. -1.
         -5    1    3    3    0  503 -0.51183832144E+02  0.19842003579E+02 -0.33190198972E+03  0.33644391889E+03  0.47000000000E+01 0.  1.
          5    1    3    3  503    0  0.23419413462E+02 -0.18960740159E+02 -0.60795346468E+02  0.68015753664E+02  0.47000000000E+01 0. -1.
         -5    1    4    4    0  502 -0.16567590687E+01 -0.44058391752E+02 -0.88712888210E+02  0.99176374550E+02  0.47000000000E+01 0.  1.
<mgrwt>
<rscale>  0 0.97040284E+02</rscale>
<asrwt>0</asrwt>
<pdfrwt beam="1">  1        1 0.95858347E-01 0.97109824E+02</pdfrwt>
<pdfrwt beam="2">  1       -1 0.25203995E-02 0.97109824E+02</pdfrwt>
<totfact> 0.15018842E+04</totfact>
</mgrwt>
</event>
<event>
 8    1  0.8438969E-004  0.1120920E+03  0.7546771E-02  0.1256880E+00
          2   -1    0    0  501    0  0.00000000000E+00  0.00000000000E+00  0.23400112972E+02  0.23400112972E+02  0.00000000000E+00 0. -1.
         -2   -1    0    0    0  501 -0.00000000000E+00 -0.00000000000E+00 -0.62474234340E+03  0.62474234340E+03  0.00000000000E+00 0.  1.
         23    2    1    2    0    0  0.50532493130E+02 -0.40030111439E+02 -0.42280119893E+03  0.43733088893E+03  0.91331866900E+02 0.  0.
         23    2    1    2    0    0 -0.50532493130E+02  0.40030111439E+02 -0.17854103150E+03  0.21081156745E+03  0.91698824178E+02 0.  0.
          5    1    3    3  502    0  0.59453716956E+02 -0.49832826729E+01 -0.14093742425E+03  0.15311768389E+03  0.47000000000E+01 0. -1.
         -5    1    4    4    0  503 -0.43842517352E+02 -0.10628508874E+02 -0.13845836736E+03  0.14569811605E+03  0.47000000000E+01 0.  1.
          5    1    4    4  503    0 -0.66899757785E+01  0.50658620313E+02 -0.40082664141E+02  0.65113451395E+02  0.47000000000E+01 0. -1.
         -5    1    3    3    0  502 -0.89212238254E+01 -0.35046828766E+02 -0.28186377468E+03  0.28421320504E+03  0.47000000000E+01 0.  1.
<mgrwt>
<rscale>  0 0.11201693E+03</rscale>
<asrwt>0</asrwt>
<pdfrwt beam="1">  1        2 0.36000173E-02 0.11209200E+03</pdfrwt>
<pdfrwt beam="2">  1       -2 0.96114209E-01 0.11209200E+03</pdfrwt>
<totfact> 0.21724311E+03</totfact>
</mgrwt>
</event>
<event>
 8    1  0.8438969E-004  0.9483542E+02  0.7546771E-02  0.1291703E+00
          3   -1    0    0  501    0  0.00000000000E+00  0.00000000000E+00  0.96251760460E+02  0.96251760460E+02  0.00000000000E+00 0. -1.
         -3   -1    0    0    0  501 -0.00000000000E+00 -0.00000000000E+00 -0.95916202020E+02  0.95916202020E+02  0.00000000000E+00 0.  1.
         23    2    1    2    0    0 -0.41239913759E+01  0.25873780008E+02 -0.16091868329E+02  0.96190978193E+02  0.91144370439E+02 0.  0.
         23    2    1    2    0    0  0.41239913759E+01 -0.25873780008E+02  0.16427426769E+02  0.95976984286E+02  0.90858468871E+02 0.  0.
          5    1    4    4  502    0 -0.13052703823E+02  0.27564337566E+02 -0.11718908952E+02  0.33008917122E+02  0.47000000000E+01 0. -1.
         -5    1    3    3    0  503  0.84485731768E+01 -0.31831761344E+02 -0.16068647428E+02  0.36944970553E+02  0.47000000000E+01 0.  1.
          5    1    3    3  503    0 -0.12572564553E+02  0.57705541352E+02 -0.23220901277E-01  0.59246007640E+02  0.47000000000E+01 0. -1.
         -5    1    4    4    0  502  0.17176695199E+02 -0.53438117574E+02  0.28146335721E+02  0.62968067164E+02  0.47000000000E+01 0.  1.
<mgrwt>
<rscale>  0 0.94766656E+02</rscale>
<asrwt>0</asrwt>
<pdfrwt beam="1">  1        3 0.14807963E-01 0.94835416E+02</pdfrwt>
<pdfrwt beam="2">  1       -3 0.14756339E-01 0.94835416E+02</pdfrwt>
<totfact> 0.30827684E+03</totfact>
</mgrwt>
</event>
<event>
 8    1  0.8438969E-004  0.1043814E+03  0.7546771E-02  0.1274725E+00
          2   -1    0    0  501    0  0.00000000000E+00  0.00000000000E+00  0.94922189843E+02  0.94922189843E+02  0.00000000000E+00 0. -1.
         -2   -1    0    0    0  501 -0.00000000000E+00 -0.00000000000E+00 -0.16737770267E+03  0.16737770267E+03  0.00000000000E+00 0.  1.
         23    2    1    2    0    0  0.48964585382E+02  0.17564794461E+02 -0.11529381010E+03  0.15552534218E+03  0.90495396496E+02 0.  0.
         23    2    1    2    0    0 -0.48964585382E+02 -0.17564794461E+02  0.42838297265E+02  0.10677455034E+03  0.82822896963E+02 0.  0.
          5    1    3    3  502    0  0.53738557948E+02  0.48099456592E+02 -0.71023328772E+02  0.10133012170E+03  0.47000000000E+01 0. -1.
         -5    1    4    4    0  503 -0.20375058050E+02 -0.46569802259E+02  0.41444048490E+02  0.65754000853E+02  0.47000000000E+01 0.  1.
          5    1    4    4  503    0 -0.28589527332E+02  0.29005007798E+02  0.13942487758E+01  0.41020549486E+02  0.47000000000E+01 0. -1.
         -5    1    3    3    0  502 -0.47739725656E+01 -0.30534662131E+02 -0.44270481324E+02  0.54195220474E+02  0.47000000000E+01 0.  1.
<mgrwt>
<rscale>  0 0.10269676E+03</rscale>
<asrwt>0</asrwt>
<pdfrwt beam="1">  1        2 0.14603414E-01 0.10438137E+03</pdfrwt>
<pdfrwt beam="2">  1       -2 0.25750416E-01 0.10438137E+03</pdfrwt>
<totfact> 0.50705423E+03</totfact>
</mgrwt>
</event>
<event>
 8    1  0.8438969E-004  0.8956112E+02  0.7546771E-02  0.1305258E+00
         -1   -1    0    0    0  501 -0.00000000000E+00  0.00000000000E+00  0.41392326590E+02  0.41392326590E+02  0.00000000000E+00 0.  1.
          1   -1    0    0  501    0  0.00000000000E+00 -0.00000000000E+00 -0.19411487589E+03  0.19411487589E+03  0.00000000000E+00 0. -1.
         23    2    1    2    0    0 -0.17302380570E+02  0.14601317047E+02 -0.58379468020E+02  0.10690816993E+03  0.86652314910E+02 0.  0.
         23    2    1    2    0    0  0.17302380570E+02 -0.14601317047E+02 -0.94343081278E+02  0.12859903254E+03  0.84406891623E+02 0.  0.
          5    1    3    3  502    0 -0.15035728522E+02 -0.33575641645E+02 -0.41346881851E+02  0.55543239758E+02  0.47000000000E+01 0. -1.
         -5    1    3    3    0  502 -0.22666520487E+01  0.48176958692E+02 -0.17032586169E+02  0.51364930175E+02  0.47000000000E+01 0.  1.
          5    1    4    4  503    0  0.42130016657E+02 -0.34412209303E+02 -0.66959640511E+02  0.86399200864E+02  0.47000000000E+01 0. -1.
         -5    1    4    4    0  503 -0.24827636086E+02  0.19810892256E+02 -0.27383440767E+02  0.42199831681E+02  0.47000000000E+01 0.  1.
<mgrwt>
<rscale>  0 0.89013456E+02</rscale>
<asrwt>0</asrwt>
<pdfrwt beam="1">  1        1 0.29863827E-01 0.89561122E+02</pdfrwt>
<pdfrwt beam="2">  1       -1 0.63680503E-02 0.89561122E+02</pdfrwt>
<totfact> 0.16641070E+04</totfact>
</mgrwt>
</event>
<event>
 8    1  0.8438969E-004  0.9598621E+02  0.7546771E-02  0.1293741E+00
          1   -1    0    0  501    0  0.00000000000E+00  0.00000000000E+00  0.94232915695E+02  0.94232915695E+02  0.00000000000E+00 0. -1.
         -1   -1    0    0    0  501 -0.00000000000E+00 -0.00000000000E+00 -0.11165666815E+03  0.11165666815E+03  0.00000000000E+00 0.  1.
         23    2    1    2    0    0  0.30029993002E-01  0.72386585229E+01  0.37307684667E+02  0.95395769559E+02  0.87499088199E+02 0.  0.
         23    2    1    2    0    0 -0.30029993002E-01 -0.72386585229E+01 -0.54731437120E+02  0.11049381428E+03  0.95712871166E+02 0.  0.
          5    1    3    3  502    0  0.34214169277E+02  0.18344267862E+01  0.47734577403E+02  0.58946199036E+02  0.47000000000E+01 0. -1.
         -5    1    4    4    0  503 -0.35511931491E+02 -0.34675048099E+02 -0.36781643861E+02  0.61955109265E+02  0.47000000000E+01 0.  1.
          5    1    4    4  503    0  0.35481901498E+02  0.27436389576E+02 -0.17949793259E+02  0.48538705019E+02  0.47000000000E+01 0. -1.
         -5    1    3    3    0  502 -0.34184139284E+02  0.54042317367E+01 -0.10426892736E+02  0.36449570524E+02  0.47000000000E+01 0.  1.
<mgrwt>
<rscale>  0 0.93870212E+02</rscale>
<asrwt>0</asrwt>
<pdfrwt beam="1">  1        1 0.14497372E-01 0.95986211E+02</pdfrwt>
<pdfrwt beam="2">  1       -1 0.17177949E-01 0.95986211E+02</pdfrwt>
<totfact> 0.92005981E+03</totfact>
</mgrwt>
</event>
<event>
 8    1  0.8438969E-004  0.1001112E+03  0.7546771E-02  0.1281621E+00
          1   -1    0    0  501    0  0.00000000000E+00  0.00000000000E+00  0.22446929676E+03  0.22446929676E+03  0.00000000000E+00 0. -1.
         -1   -1    0    0    0  501 -0.00000000000E+00 -0.00000000000E+00 -0.43754802951E+02  0.43754802951E+02  0.00000000000E+00 0.  1.
         23    2    1    2    0    0  0.28513023061E+02  0.28029575503E+02  0.10185244978E+03  0.14078202070E+03  0.88583329355E+02 0.  0.
         23    2    1    2    0    0 -0.28513023061E+02 -0.28029575503E+02  0.78862044024E+02  0.12744207901E+03  0.91780237125E+02 0.  0.
          5    1    3    3  502    0 -0.27711282821E+02  0.26437434256E+02  0.56281231226E+02  0.68238699533E+02  0.47000000000E+01 0. -1.
         -5    1    4    4    0  503  0.28402840339E+02 -0.23613065116E+02  0.52558945521E+02  0.64411419312E+02  0.47000000000E+01 0.  1.
          5    1    4    4  503    0 -0.56915863400E+02 -0.44165103867E+01  0.26303098503E+02  0.63030659694E+02  0.47000000000E+01 0. -1.
         -5    1    3    3    0  502  0.56224305882E+02  0.15921412463E+01  0.45571218559E+02  0.72543321171E+02  0.47000000000E+01 0.  1.
<mgrwt>
<rscale>  0 0.99372488E+02</rscale>
<asrwt>0</asrwt>
<pdfrwt beam="1">  1        1 0.34533737E-01 0.10011125E+03</pdfrwt>
<pdfrwt beam="2">  1       -1 0.67315083E-02 0.10011125E+03</pdfrwt>
<totfact> 0.12967080E+04</totfact>
</mgrwt>
</event>
<event>
 8    1  0.8438969E-004  0.1366864E+03  0.7546771E-02  0.1217901E+00
         -4   -1    0    0    0  501 -0.00000000000E+00  0.00000000000E+00  0.33565685391E+02  0.33565685391E+02  0.00000000000E+00 0.  1.
          4   -1    0    0  501    0  0.00000000000E+00 -0.00000000000E+00 -0.62265645240E+03  0.62265645240E+03  0.00000000000E+00 0. -1.
         23    2    1    2    0    0  0.90462381942E+02  0.46599036301E+02 -0.18717249427E+03  0.23169714637E+03  0.91077507062E+02 0.  0.
         23    2    1    2    0    0 -0.90462381942E+02 -0.46599036301E+02 -0.40191827274E+03  0.42452499142E+03  0.91259288029E+02 0.  0.
          5    1    3    3  502    0  0.44725779659E+02  0.47961789032E+02 -0.17055637195E+03  0.18279030222E+03  0.47000000000E+01 0. -1.
         -5    1    4    4    0  503  0.12763750058E+02 -0.28771663612E+02 -0.92596013909E+02  0.97912377841E+02  0.47000000000E+01 0.  1.
          5    1    4    4  503    0 -0.10322613200E+03 -0.17827372690E+02 -0.30932225883E+03  0.32661261358E+03  0.47000000000E+01 0. -1.
         -5    1    3    3    0  502  0.45736602283E+02 -0.13627527303E+01 -0.16616122320E+02  0.48906844146E+02  0.47000000000E+01 0.  1.
<mgrwt>
<rscale>  0 0.13665606E+03</rscale>
<asrwt>0</asrwt>
<pdfrwt beam="1">  1        4 0.95793299E-01 0.13668639E+03</pdfrwt>
<pdfrwt beam="2">  1       -4 0.51639517E-02 0.13668639E+03</pdfrwt>
<totfact> 0.35719823E+02</totfact>
</mgrwt>
</event>
<event>
 8    1  0.8438969E-004  0.1099928E+03  0.7546771E-02  0.1266795E+00
         -1   -1    0    0    0  501 -0.00000000000E+00  0.00000000000E+00  0.10403460610E+03  0.10403460610E+03  0.00000000000E+00 0.  1.
          1   -1    0    0  501    0  0.00000000000E+00 -0.00000000000E+00 -0.10701021320E+03  0.10701021320E+03  0.00000000000E+00 0. -1.
         23    2    1    2    0    0  0.24140400522E+02 -0.34052582098E+02  0.17822141808E+02  0.11142728478E+03  0.10176479632E+03 0.  0.
         23    2    1    2    0    0 -0.24140400522E+02  0.34052582098E+02 -0.20797748908E+02  0.99617534521E+02  0.88027095485E+02 0.  0.
          5    1    3    3  502    0 -0.42537979673E+01 -0.61924539043E+02  0.30615689402E+02  0.69369689132E+02  0.47000000000E+01 0. -1.
         -5    1    4    4    0  503 -0.37692501913E+02  0.54194491234E+02  0.16781848449E+01  0.66201766479E+02  0.47000000000E+01 0.  1.
          5    1    4    4  503    0  0.13552101391E+02 -0.20141909136E+02 -0.22475933753E+02  0.33415768042E+02  0.47000000000E+01 0. -1.
         -5    1    3    3    0  502  0.28394198489E+02  0.27871956944E+02 -0.12793547594E+02  0.42057595649E+02  0.47000000000E+01 0.  1.
<mgrwt>
<rscale>  0 0.10670573E+03</rscale>
<asrwt>0</asrwt>
<pdfrwt beam="1">  1        1 0.16463110E-01 0.10999278E+03</pdfrwt>
<pdfrwt beam="2">  1       -1 0.16005324E-01 0.10999278E+03</pdfrwt>
<totfact> 0.88387923E+03</totfact>
</mgrwt>
</event>
<event>
 8    1  0.8438969E-004  0.1070722E+03  0.7546771E-02  0.1267061E+00
         -2   -1    0    0    0  501 -0.00000000000E+00  0.00000000000E+00  0.46695786620E+03  0.46695786620E+03  0.00000000000E+00 0.  1.
          2   -1    0    0  501    0  0.00000000000E+00 -0.00000000000E+00 -0.25968240021E+02  0.25968240021E+02  0.00000000000E+00 0. -1.
         23    2    1    2    0    0 -0.37541553104E+02 -0.37650898738E+02  0.15621862490E+03  0.18939035384E+03  0.92938092190E+02 0.  0.
         23    2    1    2    0    0  0.37541553104E+02  0.37650898738E+02  0.28477100128E+03  0.30353575238E+03  0.90622687081E+02 0.  0.
          5    1    4    4  502    0  0.37517068372E+02 -0.14123964054E+02  0.20047428803E+03  0.20449705852E+03  0.47000000000E+01 0. -1.
         -5    1    4    4    0  502  0.24484732025E-01  0.51774862792E+02  0.84296713251E+02  0.99038693861E+02  0.47000000000E+01 0.  1.
          5    1    3    3  503    0  0.74711369156E+01 -0.56210672664E+02  0.98295515613E+02  0.11357621229E+03  0.47000000000E+01 0. -1.
         -5    1    3    3    0  503 -0.45012690019E+02  0.18559773926E+02  0.57923109282E+02  0.75814141556E+02  0.47000000000E+01 0.  1.
<mgrwt>
<rscale>  0 0.10656774E+03</rscale>
<asrwt>0</asrwt>
<pdfrwt beam="1">  1        2 0.39951142E-02 0.10707216E+03</pdfrwt>
<pdfrwt beam="2">  1       -2 0.71839666E-01 0.10707216E+03</pdfrwt>
<totfact> 0.35770888E+03</totfact>
</mgrwt>
</event>
<event>
 8    1  0.8438969E-004  0.1051145E+03  0.7546771E-02  0.1271433E+00
          2   -1    0    0  501    0  0.00000000000E+00  0.00000000000E+00  0.13964743355E+04  0.13964743355E+04  0.00000000000E+00 0. -1.
         -2   -1    0    0    0  501 -0.00000000000E+00 -0.00000000000E+00 -0.88139591555E+01  0.88139591555E+01  0.00000000000E+00 0.  1.
         23    2    1    2    0    0 -0.44965891207E+02  0.11335536042E+02  0.43307887572E+03  0.44493685268E+03  0.90890398457E+02 0.  0.
         23    2    1    2    0    0  0.44965891207E+02 -0.11335536042E+02  0.95458150060E+03  0.96035144195E+03  0.94332523624E+02 0.  0.
          5    1    3    3  502    0  0.21310724050E+02 -0.19055591649E+02  0.12404139287E+03  0.12737982445E+03  0.47000000000E+01 0. -1.
         -5    1    4    4    0  503  0.19116386318E+02 -0.52475694401E+02  0.54332859665E+03  0.54621167020E+03  0.47000000000E+01 0.  1.
          5    1    4    4  503    0  0.25849504889E+02  0.41140158359E+02  0.41125290395E+03  0.41413977175E+03  0.47000000000E+01 0. -1.
         -5    1    3    3    0  502 -0.66276615257E+02  0.30391127691E+02  0.30903748285E+03  0.31755702823E+03  0.47000000000E+01 0.  1.
<mgrwt>
<rscale>  0 0.10433643E+03</rscale>
<asrwt>0</asrwt>
<pdfrwt beam="1">  1        2 0.21484203E+00 0.10511447E+03</pdfrwt>
<pdfrwt beam="2">  1       -2 0.13559948E-02 0.10511447E+03</pdfrwt>
<totfact> 0.20081328E+04</totfact>
</mgrwt>
</event>
<event>
 8    1  0.8438969E-004  0.1096471E+03  0.7546771E-02  0.1261509E+00
          2   -1    0    0  501    0  0.00000000000E+00  0.00000000000E+00  0.18290388704E+03  0.18290388704E+03  0.00000000000E+00 0. -1.
         -2   -1    0    0    0  501 -0.00000000000E+00 -0.00000000000E+00 -0.85454358624E+02  0.85454358624E+02  0.00000000000E+00 0.  1.
         23    2    1    2    0    0  0.45630588187E+02 -0.41082951473E+02  0.11388406085E+03  0.15808881243E+03  0.90843457762E+02 0.  0.
         23    2    1    2    0    0 -0.45630588187E+02  0.41082951473E+02 -0.16434532439E+02  0.11026943323E+03  0.90107128293E+02 0.  0.
          5    1    3    3  502    0 -0.18229005185E+02 -0.26546663705E+02  0.80243684928E+01  0.33518688423E+02  0.47000000000E+01 0. -1.
         -5    1    4    4    0  503  0.24641758129E+02  0.13562047768E+02 -0.19574295764E+02  0.34588848463E+02  0.47000000000E+01 0.  1.
          5    1    4    4  503    0 -0.70272346316E+02  0.27520903705E+02  0.31397633247E+01  0.75680584771E+02  0.47000000000E+01 0. -1.
         -5    1    3    3    0  502  0.63859593372E+02 -0.14536287769E+02  0.10585969236E+03  0.12457012400E+03  0.47000000000E+01 0.  1.
<mgrwt>
<rscale>  0 0.10949449E+03</rscale>
<asrwt>0</asrwt>
<pdfrwt beam="1">  1        2 0.28139060E-01 0.10964713E+03</pdfrwt>
<pdfrwt beam="2">  1       -2 0.13146824E-01 0.10964713E+03</pdfrwt>
<totfact> 0.74802839E+03</totfact>
</mgrwt>
</event>
<event>
 8    1  0.8438969E-004  0.1019512E+03  0.7546771E-02  0.1276660E+00
          2   -1    0    0  501    0  0.00000000000E+00  0.00000000000E+00  0.46476719408E+02  0.46476719408E+02  0.00000000000E+00 0. -1.
         -2   -1    0    0    0  501 -0.00000000000E+00 -0.00000000000E+00 -0.22906449828E+03  0.22906449828E+03  0.00000000000E+00 0.  1.
         23    2    1    2    0    0 -0.51557616192E+01 -0.43830333412E+02 -0.11604648363E+03  0.15446949277E+03  0.91904068613E+02 0.  0.
         23    2    1    2    0    0  0.51557616192E+01  0.43830333412E+02 -0.66541295239E+02  0.12107172492E+03  0.91010651012E+02 0.  0.
          5    1    4    4  502    0 -0.17261017532E+02  0.63893344008E+02 -0.28158961825E+02  0.72078563151E+02  0.47000000000E+01 0. -1.
         -5    1    3    3    0  503  0.25406472972E+02 -0.21067769178E+02 -0.11081167397E+03  0.11571800575E+03  0.47000000000E+01 0.  1.
          5    1    3    3  503    0 -0.30562234592E+02 -0.22762564234E+02 -0.52348096610E+01  0.38751487016E+02  0.47000000000E+01 0. -1.
         -5    1    4    4    0  502  0.22416779151E+02 -0.20063010596E+02 -0.38382333413E+02  0.48993161767E+02  0.47000000000E+01 0.  1.
<mgrwt>
<rscale>  0 0.10174940E+03</rscale>
<asrwt>0</asrwt>
<pdfrwt beam="1">  1        2 0.71502646E-02 0.10195115E+03</pdfrwt>
<pdfrwt beam="2">  1       -2 0.35240692E-01 0.10195115E+03</pdfrwt>
<totfact> 0.68646924E+03</totfact>
</mgrwt>
</event>
<event>
 8    1  0.8438969E-004  0.1077359E+03  0.7546771E-02  0.1265737E+00
         -2   -1    0    0    0  501 -0.00000000000E+00  0.00000000000E+00  0.16150806566E+03  0.16150806566E+03  0.00000000000E+00 0.  1.
          2   -1    0    0  501    0  0.00000000000E+00 -0.00000000000E+00 -0.71321541089E+02  0.71321541089E+02  0.00000000000E+00 0. -1.
         23    2    1    2    0    0  0.54956011846E+02  0.65087465262E+01  0.32995870605E+02  0.11085507656E+03  0.90208611023E+02 0.  0.
         23    2    1    2    0    0 -0.54956011846E+02 -0.65087465262E+01  0.57190653970E+02  0.12197453019E+03  0.92436400272E+02 0.  0.
          5    1    3    3  502    0  0.46613080427E+02  0.43878513407E+02  0.75261338918E+01  0.64628444953E+02  0.47000000000E+01 0. -1.
         -5    1    4    4    0  503 -0.16042454845E+02 -0.34440203818E+02  0.62768803772E+02  0.73522110439E+02  0.47000000000E+01 0.  1.
          5    1    4    4  503    0 -0.38913557001E+02  0.27931457292E+02 -0.55781498020E+01  0.48452419755E+02  0.47000000000E+01 0. -1.
         -5    1    3    3    0  502  0.83429314190E+01 -0.37369766881E+02  0.25469736714E+02  0.46226631606E+02  0.47000000000E+01 0.  1.
<mgrwt>
<rscale>  0 0.10725636E+03</rscale>
<asrwt>0</asrwt>
<pdfrwt beam="1">  1        2 0.10972545E-01 0.10773586E+03</pdfrwt>
<pdfrwt beam="2">  1       -2 0.24847395E-01 0.10773586E+03</pdfrwt>
<totfact> 0.75916921E+03</totfact>
</mgrwt>
</event>
<event>
 8    1  0.8438969E-004  0.1142962E+03  0.7546771E-02  0.1254820E+00
          1   -1    0    0  501    0  0.00000000000E+00  0.00000000000E+00  0.49592908059E+02  0.49592908059E+02  0.00000000000E+00 0. -1.
         -1   -1    0    0    0  501 -0.00000000000E+00 -0.00000000000E+00 -0.36826380006E+03  0.36826380006E+03  0.00000000000E+00 0.  1.
         23    2    1    2    0    0 -0.43213780942E+02  0.43092144157E+02 -0.27826663836E+03  0.30082543430E+03  0.96639826910E+02 0.  0.
         23    2    1    2    0    0  0.43213780942E+02 -0.43092144157E+02 -0.40404253638E+02  0.11703127382E+03  0.91320597831E+02 0.  0.
          5    1    4    4  502    0  0.70462820178E+02 -0.37810247393E+02 -0.20908133290E+02  0.82788066006E+02  0.47000000000E+01 0. -1.
         -5    1    4    4    0  502 -0.27249039236E+02 -0.52818967634E+01 -0.19496120348E+02  0.34243207813E+02  0.47000000000E+01 0.  1.
          5    1    3    3  503    0  0.29162545058E+02 -0.40742717891E+00 -0.79671138364E+02  0.84971761894E+02  0.47000000000E+01 0. -1.
         -5    1    3    3    0  503 -0.72376326000E+02  0.43499571336E+02 -0.19859550000E+03  0.21585367241E+03  0.47000000000E+01 0.  1.
<mgrwt>
<rscale>  0 0.11316429E+03</rscale>
<asrwt>0</asrwt>
<pdfrwt beam="1">  1        1 0.76296778E-02 0.11429619E+03</pdfrwt>
<pdfrwt beam="2">  1       -1 0.56655972E-01 0.11429619E+03</pdfrwt>
<totfact> 0.28772332E+03</totfact>
</mgrwt>
</event>
<event>
 7    1  0.8438969E-004  0.2816097E+03  0.7546771E-02  0.1134294E+00
          1   -1    0    0  501    0  0.00000000000E+00  0.00000000000E+00  0.27974031809E+03  0.27974031809E+03  0.00000000000E+00 0. -1.
         -1   -1    0    0    0  501 -0.00000000000E+00 -0.00000000000E+00 -0.13454847265E+03  0.13454847265E+03  0.00000000000E+00 0.  1.
         23    2    1    2    0    0  0.48789588552E+02 -0.12157215116E+02  0.18460545809E+02  0.10547683652E+03  0.90864456532E+02 0.  0.
          5    1    3    3  502    0  0.45899418497E+02  0.28473430821E+02 -0.10567553597E+02  0.55238175840E+02  0.47000000000E+01 0.  1.
         -5    1    3    3    0  502  0.28901700545E+01 -0.40630645936E+02  0.29028099406E+02  0.50238660683E+02  0.47000000000E+01 0. -1.
          5    1    1    2  503    0 -0.12515515364E+03  0.88041742844E+02  0.15391251780E+02  0.15386403608E+03  0.47000000000E+01 0. -1.
         -5    1    1    2    0  503  0.76365565089E+02 -0.75884527729E+02  0.11134004785E+03  0.15494791814E+03  0.47000000000E+01 0.  1.
<mgrwt>
<rscale>  0 0.21945022E+03</rscale>
<asrwt>0</asrwt>
<pdfrwt beam="1">  1        1 0.43036972E-01 0.28160966E+03</pdfrwt>
<pdfrwt beam="2">  1       -1 0.20699765E-01 0.28160966E+03</pdfrwt>
<totfact> 0.18226488E+03</totfact>
</mgrwt>
</event>
<event>
 8    1  0.8438969E-004  0.1323897E+03  0.7546771E-02  0.1228836E+00
          2   -1    0    0  501    0  0.00000000000E+00  0.00000000000E+00  0.42972322394E+03  0.42972322394E+03  0.00000000000E+00 0. -1.
         -2   -1    0    0    0  501 -0.00000000000E+00 -0.00000000000E+00 -0.46443178493E+02  0.46443178493E+02  0.00000000000E+00 0.  1.
         23    2    1    2    0    0  0.74431190597E+02 -0.89130636812E+01  0.29146215213E+03  0.31505293737E+03  0.93213316569E+02 0.  0.
         23    2    1    2    0    0 -0.74431190597E+02  0.89130636812E+01  0.91817893317E+02  0.16111346506E+03  0.10912185048E+03 0.  0.
          5    1    4    4  502    0 -0.37747037633E+02 -0.30161048276E+02 -0.65586876320E+01  0.48986059921E+02  0.47000000000E+01 0. -1.
         -5    1    4    4    0  502 -0.36684152964E+02  0.39074111957E+02  0.98376580949E+02  0.11212740514E+03  0.47000000000E+01 0.  1.
          5    1    3    3  503    0  0.31405438882E+02 -0.48407977905E+02  0.18069875043E+03  0.18974657394E+03  0.47000000000E+01 0. -1.
         -5    1    3    3    0  503  0.43025751715E+02  0.39494914223E+02  0.11076340170E+03  0.12530636343E+03  0.47000000000E+01 0.  1.
<mgrwt>
<rscale>  0 0.12907394E+03</rscale>
<asrwt>0</asrwt>
<pdfrwt beam="1">  1        2 0.66111262E-01 0.13238966E+03</pdfrwt>
<pdfrwt beam="2">  1       -2 0.71451047E-02 0.13238966E+03</pdfrwt>
<totfact> 0.79301960E+03</totfact>
</mgrwt>
</event>
<event>
 8    1  0.8438969E-004  0.1101499E+03  0.7546771E-02  0.1260712E+00
         -1   -1    0    0    0  501 -0.00000000000E+00  0.00000000000E+00  0.63135906487E+02  0.63135906487E+02  0.00000000000E+00 0.  1.
          1   -1    0    0  501    0  0.00000000000E+00 -0.00000000000E+00 -0.19346548381E+03  0.19346548381E+03  0.00000000000E+00 0. -1.
         23    2    1    2    0    0  0.52956001908E+02  0.30779363901E+02 -0.49285693293E+02  0.11984937427E+03  0.90460408847E+02 0.  0.
         23    2    1    2    0    0 -0.52956001908E+02 -0.30779363901E+02 -0.81043884030E+02  0.13675201603E+03  0.91549414902E+02 0.  0.
          5    1    3    3  502    0  0.18465297562E+02 -0.27609164286E+02 -0.38428387839E+02  0.51010431860E+02  0.47000000000E+01 0. -1.
         -5    1    4    4    0  503  0.18621959579E+02 -0.21716673750E+02 -0.11708293976E+01  0.29014688329E+02  0.47000000000E+01 0.  1.
          5    1    4    4  503    0 -0.71577961488E+02 -0.90626901505E+01 -0.79873054633E+02  0.10773732770E+03  0.47000000000E+01 0. -1.
         -5    1    3    3    0  502  0.34490704346E+02  0.58388528186E+02 -0.10857305453E+02  0.68838942408E+02  0.47000000000E+01 0.  1.
<mgrwt>
<rscale>  0 0.10992335E+03</rscale>
<asrwt>0</asrwt>
<pdfrwt beam="1">  1        1 0.29763920E-01 0.11014991E+03</pdfrwt>
<pdfrwt beam="2">  1       -1 0.97132164E-02 0.11014991E+03</pdfrwt>
<totfact> 0.90617741E+03</totfact>
</mgrwt>
</event>
<event>
 8    1  0.8438969E-004  0.1138252E+03  0.7546771E-02  0.1256064E+00
          1   -1    0    0  501    0  0.00000000000E+00  0.00000000000E+00  0.18392192577E+03  0.18392192577E+03  0.00000000000E+00 0. -1.
         -1   -1    0    0    0  501 -0.00000000000E+00 -0.00000000000E+00 -0.73183666089E+02  0.73183666089E+02  0.00000000000E+00 0.  1.
         23    2    1    2    0    0 -0.61136699933E+02  0.91941161879E+01  0.17359002100E+02  0.10987835847E+03  0.89161038887E+02 0.  0.
         23    2    1    2    0    0  0.61136699933E+02 -0.91941161879E+01  0.93379257578E+02  0.14722723339E+03  0.95571672860E+02 0.  0.
          5    1    3    3  502    0  0.21782737009E+02  0.11273452282E+02 -0.15476027278E+00  0.24973832480E+02  0.47000000000E+01 0. -1.
         -5    1    4    4    0  503  0.14830026096E+02  0.38502685235E+02  0.14549920000E+02  0.44002006958E+02  0.47000000000E+01 0.  1.
          5    1    4    4  503    0  0.46306673837E+02 -0.47696801423E+02  0.78829337579E+02  0.10322522643E+03  0.47000000000E+01 0. -1.
         -5    1    3    3    0  502 -0.82919436943E+02 -0.20793360944E+01  0.17513762372E+02  0.84904525992E+02  0.47000000000E+01 0.  1.
<mgrwt>
<rscale>  0 0.11246948E+03</rscale>
<asrwt>0</asrwt>
<pdfrwt beam="1">  1        1 0.28295681E-01 0.11382518E+03</pdfrwt>
<pdfrwt beam="2">  1       -1 0.11259026E-01 0.11382518E+03</pdfrwt>
<totfact> 0.77245230E+03</totfact>
</mgrwt>
</event>
<event>
 8    1  0.8438969E-004  0.9562463E+02  0.7546771E-02  0.1290295E+00
          1   -1    0    0  501    0  0.00000000000E+00  0.00000000000E+00  0.75178481012E+03  0.75178481012E+03  0.00000000000E+00 0. -1.
         -1   -1    0    0    0  501 -0.00000000000E+00 -0.00000000000E+00 -0.12053716083E+02  0.12053716083E+02  0.00000000000E+00 0.  1.
         23    2    1    2    0    0 -0.28464428854E+02  0.37438044369E+01  0.35816363334E+03  0.37047127140E+03  0.90241536438E+02 0.  0.
         23    2    1    2    0    0  0.28464428854E+02 -0.37438044369E+01  0.38156746069E+03  0.39336725480E+03  0.91213103839E+02 0.  0.
          5    1    3    3  502    0 -0.47420168560E+02 -0.28219037818E+02  0.24818476272E+03  0.25428871962E+03  0.47000000000E+01 0. -1.
         -5    1    4    4    0  503 -0.67740814830E+01  0.30250101160E+02  0.56649950065E+02  0.64747692179E+02  0.47000000000E+01 0.  1.
          5    1    4    4  503    0  0.35238510337E+02 -0.33993905597E+02  0.32491751062E+03  0.32861956262E+03  0.47000000000E+01 0. -1.
         -5    1    3    3    0  502  0.18955739706E+02  0.31962842255E+02  0.10997887063E+03  0.11618255178E+03  0.47000000000E+01 0.  1.
<mgrwt>
<rscale>  0 0.95392211E+02</rscale>
<asrwt>0</asrwt>
<pdfrwt beam="1">  1        1 0.11565916E+00 0.95624631E+02</pdfrwt>
<pdfrwt beam="2">  1       -1 0.18544184E-02 0.95624631E+02</pdfrwt>
<totfact> 0.17891304E+04</totfact>
</mgrwt>
</event>
<event>
 8    1  0.8438969E-004  0.1262989E+03  0.7546771E-02  0.1234472E+00
          2   -1    0    0  501    0  0.00000000000E+00  0.00000000000E+00  0.48681782513E+03  0.48681782513E+03  0.00000000000E+00 0. -1.
         -2   -1    0    0    0  501 -0.00000000000E+00 -0.00000000000E+00 -0.32094819602E+02  0.32094819602E+02  0.00000000000E+00 0.  1.
         23    2    1    2    0    0  0.81206672383E+02 -0.39438081281E+01  0.24751228519E+03  0.27624479812E+03  0.91862831998E+02 0.  0.
         23    2    1    2    0    0 -0.81206672383E+02  0.39438081281E+01  0.20721072034E+03  0.24266784662E+03  0.96650524559E+02 0.  0.
          5    1    4    4  502    0  0.13754285489E+02 -0.16783636612E+02  0.76847707817E+02  0.79990818372E+02  0.47000000000E+01 0. -1.
         -5    1    3    3    0  503  0.26877141322E+00 -0.26410008629E+02  0.12355907089E+03  0.12643771112E+03  0.47000000000E+01 0.  1.
          5    1    3    3  503    0  0.80937900970E+02  0.22466200501E+02  0.12395321430E+03  0.14980708699E+03  0.47000000000E+01 0. -1.
         -5    1    4    4    0  502 -0.94960957872E+02  0.20727444740E+02  0.13036301252E+03  0.16267702825E+03  0.47000000000E+01 0.  1.
<mgrwt>
<rscale>  0 0.12538267E+03</rscale>
<asrwt>0</asrwt>
<pdfrwt beam="1">  1        2 0.74895045E-01 0.12629886E+03</pdfrwt>
<pdfrwt beam="2">  1       -2 0.49376649E-02 0.12629886E+03</pdfrwt>
<totfact> 0.12081918E+04</totfact>
</mgrwt>
</event>
<event>
 8    1  0.8438969E-004  0.9843933E+02  0.7546771E-02  0.1283659E+00
          2   -1    0    0  501    0  0.00000000000E+00  0.00000000000E+00  0.32015414192E+03  0.32015414192E+03  0.00000000000E+00 0. -1.
         -2   -1    0    0    0  501 -0.00000000000E+00 -0.00000000000E+00 -0.40956144985E+02  0.40956144985E+02  0.00000000000E+00 0.  1.
         23    2    1    2    0    0  0.37152212676E+02  0.82177299918E+01  0.47201497184E+02  0.10909307075E+03  0.90694535423E+02 0.  0.
         23    2    1    2    0    0 -0.37152212676E+02 -0.82177299918E+01  0.23199649975E+03  0.25201721616E+03  0.90788123401E+02 0.  0.
          5    1    3    3  502    0 -0.17543854927E+01 -0.36688134055E+02  0.83883893616E+01  0.37967777456E+02  0.47000000000E+01 0. -1.
         -5    1    3    3    0  502  0.38906598169E+02  0.44905864046E+02  0.38813107822E+02  0.71125293290E+02  0.47000000000E+01 0.  1.
          5    1    4    4  503    0 -0.78093644696E+01 -0.46517493210E+02  0.14331833042E+03  0.15095395716E+03  0.47000000000E+01 0. -1.
         -5    1    4    4    0  503 -0.29342848206E+02  0.38299763218E+02  0.88678169331E+02  0.10106325900E+03  0.47000000000E+01 0.  1.
<mgrwt>
<rscale>  0 0.98417744E+02</rscale>
<asrwt>0</asrwt>
<pdfrwt beam="1">  1        2 0.49254482E-01 0.98439328E+02</pdfrwt>
<pdfrwt beam="2">  1       -2 0.63009456E-02 0.98439328E+02</pdfrwt>
<totfact> 0.12812645E+04</totfact>
</mgrwt>
</event>
<event>
 8    1  0.8438969E-004  0.1039253E+03  0.7546771E-02  0.1273081E+00
         -1   -1    0    0    0  501 -0.00000000000E+00  0.00000000000E+00  0.19936985043E+03  0.19936985043E+03  0.00000000000E+00 0.  1.
          1   -1    0    0  501    0  0.00000000000E+00 -0.00000000000E+00 -0.54569867880E+02  0.54569867880E+02  0.00000000000E+00 0. -1.
         23    2    1    2    0    0  0.47936983028E+02 -0.16448888637E+01  0.92191981821E+02  0.13892385955E+03  0.92194453406E+02 0.  0.
         23    2    1    2    0    0 -0.47936983028E+02  0.16448888637E+01  0.52608000729E+02  0.11501585876E+03  0.90334854981E+02 0.  0.
          5    1    3    3  502    0  0.23098120850E+02  0.40112608910E+02  0.17525074048E+02  0.49716826133E+02  0.47000000000E+01 0. -1.
         -5    1    3    3    0  502  0.24838862179E+02 -0.41757497773E+02  0.74666907773E+02  0.89207033417E+02  0.47000000000E+01 0.  1.
          5    1    4    4  503    0 -0.70230068612E+02  0.14234737942E+02  0.22585267583E+02  0.75279974849E+02  0.47000000000E+01 0. -1.
         -5    1    4    4    0  503  0.22293085584E+02 -0.12589849078E+02  0.30022733146E+02  0.39735883911E+02  0.47000000000E+01 0.  1.
<mgrwt>
<rscale>  0 0.10351136E+03</rscale>
<asrwt>0</asrwt>
<pdfrwt beam="1">  1        1 0.83953644E-02 0.10392534E+03</pdfrwt>
<pdfrwt beam="2">  1       -1 0.30672284E-01 0.10392534E+03</pdfrwt>
<totfact> 0.74070955E+03</totfact>
</mgrwt>
</event>
<event>
 8    1  0.8438969E-004  0.1212569E+03  0.7546771E-02  0.1241157E+00
         -3   -1    0    0    0  501 -0.00000000000E+00  0.00000000000E+00  0.22799004661E+03  0.22799004661E+03  0.00000000000E+00 0.  1.
          3   -1    0    0  501    0  0.00000000000E+00 -0.00000000000E+00 -0.79039911585E+02  0.79039911585E+02  0.00000000000E+00 0. -1.
         23    2    1    2    0    0  0.45303964448E+02  0.63483308382E+02  0.14076230457E+03  0.18578819607E+03  0.92847443539E+02 0.  0.
         23    2    1    2    0    0 -0.45303964448E+02 -0.63483308382E+02  0.81878304507E+01  0.12124176213E+03  0.92465910898E+02 0.  0.
          5    1    4    4  502    0 -0.53446377570E+02 -0.43169240845E+02 -0.31461631496E+02  0.75710124071E+02  0.47000000000E+01 0. -1.
         -5    1    3    3    0  503  0.13984414090E+02  0.47827910998E+02  0.14187227509E+03  0.15044236553E+03  0.47000000000E+01 0.  1.
          5    1    3    3  503    0  0.31319550358E+02  0.15655397384E+02 -0.11099705143E+01  0.35345830538E+02  0.47000000000E+01 0. -1.
         -5    1    4    4    0  502  0.81424131220E+01 -0.20314067537E+02  0.39649461946E+02  0.45531638055E+02  0.47000000000E+01 0.  1.
<mgrwt>
<rscale>  0 0.12118383E+03</rscale>
<asrwt>0</asrwt>
<pdfrwt beam="1">  1        3 0.12159987E-01 0.12125687E+03</pdfrwt>
<pdfrwt beam="2">  1       -3 0.35075391E-01 0.12125687E+03</pdfrwt>
<totfact> 0.96208773E+02</totfact>
</mgrwt>
</event>
<event>
 8    1  0.8438969E-004  0.9508924E+02  0.7546771E-02  0.1306235E+00
          1   -1    0    0  501    0  0.00000000000E+00  0.00000000000E+00  0.18547879799E+02  0.18547879799E+02  0.00000000000E+00 0. -1.
         -1   -1    0    0    0  501 -0.00000000000E+00 -0.00000000000E+00 -0.38322001753E+03  0.38322001753E+03  0.00000000000E+00 0.  1.
         23    2    1    2    0    0  0.60370217891E+01  0.28382712472E+02 -0.18634359652E+03  0.19967130641E+03  0.65594745503E+02 0.  0.
         23    2    1    2    0    0 -0.60370217891E+01 -0.28382712472E+02 -0.17832854121E+03  0.20209659092E+03  0.90553517069E+02 0.  0.
          5    1    3    3  502    0 -0.27659249463E+02  0.11280599126E+01 -0.69211425088E+02  0.74690146356E+02  0.47000000000E+01 0. -1.
         -5    1    3    3    0  502  0.33696271252E+02  0.27254652560E+02 -0.11713217143E+03  0.12498116005E+03  0.47000000000E+01 0.  1.
          5    1    4    4  503    0 -0.17852819952E+01 -0.51104603188E+02 -0.50191397446E+02  0.71806225889E+02  0.47000000000E+01 0. -1.
         -5    1    4    4    0  503 -0.42517397939E+01  0.22721890716E+02 -0.12813714376E+03  0.13029036503E+03  0.47000000000E+01 0.  1.
<mgrwt>
<rscale>  0 0.88617293E+02</rscale>
<asrwt>0</asrwt>
<pdfrwt beam="1">  1        1 0.28535204E-02 0.95089239E+02</pdfrwt>
<pdfrwt beam="2">  1       -1 0.58956917E-01 0.95089239E+02</pdfrwt>
<totfact> 0.10006493E+04</totfact>
</mgrwt>
</event>
<event>
 8    1  0.8438969E-004  0.1114485E+03  0.7546771E-02  0.1258876E+00
          2   -1    0    0  501    0  0.00000000000E+00  0.00000000000E+00  0.44428802113E+03  0.44428802113E+03  0.00000000000E+00 0. -1.
         -2   -1    0    0    0  501 -0.00000000000E+00 -0.00000000000E+00 -0.34975968282E+02  0.34975968282E+02  0.00000000000E+00 0.  1.
         23    2    1    2    0    0  0.32745192018E+02  0.59601306925E+02  0.31746781420E+03  0.33646185681E+03  0.88296119111E+02 0.  0.
         23    2    1    2    0    0 -0.32745192018E+02 -0.59601306925E+02  0.91844238643E+02  0.14280213259E+03  0.85630143721E+02 0.  0.
          5    1    4    4  502    0 -0.88156997979E+01 -0.50490985474E+02  0.10248107417E+03  0.11468006252E+03  0.47000000000E+01 0. -1.
         -5    1    3    3    0  503  0.63344136401E+01  0.72178043671E+02  0.27668462632E+03  0.28605290983E+03  0.47000000000E+01 0.  1.
          5    1    3    3  503    0  0.26410778378E+02 -0.12576736746E+02  0.40783187885E+02  0.50408946981E+02  0.47000000000E+01 0. -1.
         -5    1    4    4    0  502 -0.23929492220E+02 -0.91103214514E+01 -0.10636835530E+02  0.28122070069E+02  0.47000000000E+01 0.  1.
<mgrwt>
<rscale>  0 0.11091974E+03</rscale>
<asrwt>0</asrwt>
<pdfrwt beam="1">  1        2 0.68351999E-01 0.11144850E+03</pdfrwt>
<pdfrwt beam="2">  1       -2 0.53809185E-02 0.11144850E+03</pdfrwt>
<totfact> 0.11611710E+04</totfact>
</mgrwt>
</event>
<event>
 8    1  0.8438969E-004  0.9780589E+02  0.7546771E-02  0.1285647E+00
          1   -1    0    0  501    0  0.00000000000E+00  0.00000000000E+00  0.76455721318E+02  0.76455721318E+02  0.00000000000E+00 0. -1.
         -1   -1    0    0    0  501 -0.00000000000E+00 -0.00000000000E+00 -0.16538432380E+03  0.16538432380E+03  0.00000000000E+00 0.  1.
         23    2    1    2    0    0  0.16677429911E+02 -0.28257586895E+02 -0.10506603220E+03  0.14271179786E+03  0.90835886313E+02 0.  0.
         23    2    1    2    0    0 -0.16677429911E+02  0.28257586895E+02  0.16137429712E+02  0.99128247257E+02  0.92137749490E+02 0.  0.
          5    1    4    4  502    0  0.14370748530E+02  0.21248463413E+02  0.47505613012E+02  0.54193070391E+02  0.47000000000E+01 0. -1.
         -5    1    4    4    0  502 -0.31048178441E+02  0.70091234815E+01 -0.31368183300E+02  0.44935176866E+02  0.47000000000E+01 0.  1.
          5    1    3    3  503    0  0.31912371527E+02 -0.44987885497E+02 -0.10599798427E+03  0.11958249022E+03  0.47000000000E+01 0. -1.
         -5    1    3    3    0  503 -0.15234941616E+02  0.16730298602E+02  0.93195207424E+00  0.23129307643E+02  0.47000000000E+01 0.  1.
<mgrwt>
<rscale>  0 0.97498086E+02</rscale>
<asrwt>0</asrwt>
<pdfrwt beam="1">  1        1 0.11762419E-01 0.97805893E+02</pdfrwt>
<pdfrwt beam="2">  1       -1 0.25443742E-01 0.97805893E+02</pdfrwt>
<totfact> 0.64424131E+03</totfact>
</mgrwt>
</event>
<event>
 8    1  0.8438969E-004  0.1250195E+03  0.7546771E-02  0.1235478E+00
          1   -1    0    0  501    0  0.00000000000E+00  0.00000000000E+00  0.13784548563E+03  0.13784548563E+03  0.00000000000E+00 0. -1.
         -1   -1    0    0    0  501 -0.00000000000E+00 -0.00000000000E+00 -0.21750569819E+03  0.21750569819E+03  0.00000000000E+00 0.  1.
         23    2    1    2    0    0  0.83238648048E+02 -0.31205856205E+02  0.83788438957E+02  0.14957134055E+03  0.86305303553E+02 0.  0.
         23    2    1    2    0    0 -0.83238648048E+02  0.31205856205E+02 -0.16344865152E+03  0.20577984326E+03  0.87905655217E+02 0.  0.
          5    1    3    3  502    0  0.25856384473E+02 -0.15661148608E+02  0.84566768605E+02  0.89930264906E+02  0.47000000000E+01 0. -1.
         -5    1    3    3    0  502  0.57382263575E+02 -0.15544707596E+02 -0.77832964786E+00  0.59641075646E+02  0.47000000000E+01 0.  1.
          5    1    4    4  503    0 -0.71238180222E+02 -0.11889826621E+02 -0.63931420223E+02  0.96568953552E+02  0.47000000000E+01 0. -1.
         -5    1    4    4    0  503 -0.12000467826E+02  0.43095682825E+02 -0.99517231298E+02  0.10921088971E+03  0.47000000000E+01 0.  1.
<mgrwt>
<rscale>  0 0.12473857E+03</rscale>
<asrwt>0</asrwt>
<pdfrwt beam="1">  1        1 0.21206998E-01 0.12501953E+03</pdfrwt>
<pdfrwt beam="2">  1       -1 0.33462415E-01 0.12501953E+03</pdfrwt>
<totfact> 0.19456857E+03</totfact>
</mgrwt>
</event>
<event>
 8    1  0.8438969E-004  0.1331200E+03  0.7546771E-02  0.1223842E+00
         -2   -1    0    0    0  501 -0.00000000000E+00  0.00000000000E+00  0.42997803471E+02  0.42997803471E+02  0.00000000000E+00 0.  1.
          2   -1    0    0  501    0  0.00000000000E+00 -0.00000000000E+00 -0.47224097465E+03  0.47224097465E+03  0.00000000000E+00 0. -1.
         23    2    1    2    0    0  0.43488235861E+02 -0.84687385055E+02 -0.11498552529E+03  0.17394888196E+03  0.89293687700E+02 0.  0.
         23    2    1    2    0    0 -0.43488235861E+02  0.84687385055E+02 -0.31425764590E+03  0.34128989617E+03  0.93047006265E+02 0.  0.
          5    1    3    3  502    0  0.68733883481E+02 -0.47518506714E+02 -0.87432816642E+02  0.12103281640E+03  0.47000000000E+01 0. -1.
         -5    1    3    3    0  502 -0.25245647620E+02 -0.37168878341E+02 -0.27552708644E+02  0.52916065562E+02  0.47000000000E+01 0.  1.
          5    1    4    4  503    0 -0.33445414330E+02 -0.80018862515E+01 -0.13238204054E+03  0.13685656937E+03  0.47000000000E+01 0. -1.
         -5    1    4    4    0  503 -0.10042821531E+02  0.92689271307E+02 -0.18187560536E+03  0.20443332680E+03  0.47000000000E+01 0.  1.
<mgrwt>
<rscale>  0 0.13246620E+03</rscale>
<asrwt>0</asrwt>
<pdfrwt beam="1">  1        2 0.72652459E-01 0.13311997E+03</pdfrwt>
<pdfrwt beam="2">  1       -2 0.66150466E-02 0.13311997E+03</pdfrwt>
<totfact> 0.80591272E+03</totfact>
</mgrwt>
</event>
<event>
 8    1  0.8438969E-004  0.1010707E+03  0.7546771E-02  0.1278813E+00
         -1   -1    0    0    0  501 -0.00000000000E+00  0.00000000000E+00  0.65663710850E+03  0.65663710850E+03  0.00000000000E+00 0.  1.
          1   -1    0    0  501    0  0.00000000000E+00 -0.00000000000E+00 -0.15553422752E+02  0.15553422752E+02  0.00000000000E+00 0. -1.
         23    2    1    2    0    0  0.32743393218E+02  0.17850120950E+02  0.27853039968E+03  0.29581282315E+03  0.92386612532E+02 0.  0.
         23    2    1    2    0    0 -0.32743393218E+02 -0.17850120950E+02  0.36255328606E+03  0.37637770810E+03  0.93939008418E+02 0.  0.
          5    1    4    4  502    0  0.20782937185E+02 -0.28264887503E+02  0.66760395196E+02  0.75563712920E+02  0.47000000000E+01 0. -1.
         -5    1    3    3    0  503 -0.64245643688E+01  0.33524480375E+02  0.22436657149E+03  0.22699694759E+03  0.47000000000E+01 0.  1.
          5    1    3    3  503    0  0.39167957587E+02 -0.15674359426E+02  0.54163828192E+02  0.68815875561E+02  0.47000000000E+01 0. -1.
         -5    1    4    4    0  502 -0.53526330403E+02  0.10414766553E+02  0.29579289087E+03  0.30081399518E+03  0.47000000000E+01 0.  1.
<mgrwt>
<rscale>  0 0.10070849E+03</rscale>
<asrwt>0</asrwt>
<pdfrwt beam="1">  1        1 0.23928348E-02 0.10107074E+03</pdfrwt>
<pdfrwt beam="2">  1       -1 0.10102107E+00 0.10107074E+03</pdfrwt>
<totfact> 0.43268498E+03</totfact>
</mgrwt>
</event>
<event>
 8    1  0.8438969E-004  0.1023904E+03  0.7546771E-02  0.1275930E+00
         -3   -1    0    0    0  501 -0.00000000000E+00  0.00000000000E+00  0.77941030969E+02  0.77941030969E+02  0.00000000000E+00 0.  1.
          3   -1    0    0  501    0  0.00000000000E+00 -0.00000000000E+00 -0.16098013947E+03  0.16098013947E+03  0.00000000000E+00 0. -1.
         23    2    1    2    0    0  0.43802946328E+02  0.14190558707E+02 -0.91494606240E+02  0.13731372353E+03  0.91453406915E+02 0.  0.
         23    2    1    2    0    0 -0.43802946328E+02 -0.14190558707E+02  0.84554977357E+01  0.10160744691E+03  0.90180417839E+02 0.  0.
          5    1    3    3  502    0  0.21660946126E+02  0.36889834487E+02 -0.95748935928E+02  0.10497621258E+03  0.47000000000E+01 0. -1.
         -5    1    3    3    0  502  0.22142000202E+02 -0.22699275780E+02  0.42543296873E+01  0.32337510958E+02  0.47000000000E+01 0.  1.
          5    1    4    4  503    0  0.17640151573E+02 -0.21778614696E+02  0.24454437457E+02  0.37491232534E+02  0.47000000000E+01 0. -1.
         -5    1    4    4    0  503 -0.61443097901E+02  0.75880559895E+01 -0.15998939721E+02  0.64116214373E+02  0.47000000000E+01 0.  1.
<mgrwt>
<rscale>  0 0.10210537E+03</rscale>
<asrwt>0</asrwt>
<pdfrwt beam="1">  1        3 0.24766175E-01 0.10239041E+03</pdfrwt>
<pdfrwt beam="2">  1       -3 0.11990928E-01 0.10239041E+03</pdfrwt>
<totfact> 0.18117520E+03</totfact>
</mgrwt>
</event>
<event>
 8    1  0.8438969E-004  0.9469128E+02  0.7546771E-02  0.1294630E+00
          1   -1    0    0  501    0  0.00000000000E+00  0.00000000000E+00  0.48098845626E+03  0.48098845626E+03  0.00000000000E+00 0. -1.
         -1   -1    0    0    0  501 -0.00000000000E+00 -0.00000000000E+00 -0.29764358316E+02  0.29764358316E+02  0.00000000000E+00 0.  1.
         23    2    1    2    0    0  0.27561374786E+02 -0.12892375042E+02  0.59743025096E+02  0.10798257038E+03  0.84647290238E+02 0.  0.
         23    2    1    2    0    0 -0.27561374786E+02  0.12892375042E+02  0.39148107285E+03  0.40277024419E+03  0.89669373223E+02 0.  0.
          5    1    3    3  502    0  0.10031587141E+02 -0.23075197211E+02  0.76876933578E+02  0.81026232686E+02  0.47000000000E+01 0. -1.
         -5    1    3    3    0  502  0.17529787645E+02  0.10182822169E+02 -0.17133908482E+02  0.26956337697E+02  0.47000000000E+01 0.  1.
          5    1    4    4  503    0 -0.43763973015E+02  0.26371480535E+02  0.36505508117E+03  0.36864351698E+03  0.47000000000E+01 0. -1.
         -5    1    4    4    0  503  0.16202598229E+02 -0.13479105494E+02  0.26425991671E+02  0.34126727210E+02  0.47000000000E+01 0.  1.
<mgrwt>
<rscale>  0 0.93483039E+02</rscale>
<asrwt>0</asrwt>
<pdfrwt beam="1">  1        1 0.73998218E-01 0.94691284E+02</pdfrwt>
<pdfrwt beam="2">  1       -1 0.45791324E-02 0.94691284E+02</pdfrwt>
<totfact> 0.88717108E+03</totfact>
</mgrwt>
</event>
<event>
 8    1  0.8438969E-004  0.1086250E+03  0.7546771E-02  0.1263525E+00
         -1   -1    0    0    0  501 -0.00000000000E+00  0.00000000000E+00  0.21982481787E+03  0.21982481787E+03  0.00000000000E+00 0.  1.
          1   -1    0    0  501    0  0.00000000000E+00 -0.00000000000E+00 -0.25935613025E+03  0.25935613025E+03  0.00000000000E+00 0. -1.
         23    2    1    2    0    0 -0.40870516837E+02  0.38243925924E+02  0.19382074392E+03  0.22178519891E+03  0.92136836641E+02 0.  0.
         23    2    1    2    0    0  0.40870516837E+02 -0.38243925924E+02 -0.23335205630E+03  0.25739574921E+03  0.93093461187E+02 0.  0.
          5    1    3    3  502    0  0.25178985235E+02  0.41767678232E+01  0.20259528059E+02  0.32923626229E+02  0.47000000000E+01 0. -1.
         -5    1    4    4    0  503  0.13616391659E+02  0.27557975674E+02 -0.36207492836E+02  0.47727567322E+02  0.47000000000E+01 0.  1.
          5    1    4    4  503    0  0.27254125178E+02 -0.65801901598E+02 -0.19714456346E+03  0.20966818189E+03  0.47000000000E+01 0. -1.
         -5    1    3    3    0  502 -0.66049502072E+02  0.34067158101E+02  0.17356121586E+03  0.18886157269E+03  0.47000000000E+01 0.  1.
<mgrwt>
<rscale>  0 0.10841973E+03</rscale>
<asrwt>0</asrwt>
<pdfrwt beam="1">  1        1 0.39900943E-01 0.10862499E+03</pdfrwt>
<pdfrwt beam="2">  1       -1 0.33819202E-01 0.10862499E+03</pdfrwt>
<totfact> 0.86826475E+02</totfact>
</mgrwt>
</event>
<event>
 8    1  0.8438969E-004  0.3204186E+03  0.7546771E-02  0.1075796E+00
          2   -1    0    0  501    0  0.00000000000E+00  0.00000000000E+00  0.57023869954E+03  0.57023869954E+03  0.00000000000E+00 0. -1.
         -2   -1    0    0    0  501 -0.00000000000E+00 -0.00000000000E+00 -0.85294459225E+03  0.85294459225E+03  0.00000000000E+00 0.  1.
         23    2    1    2    0    0  0.28516137478E+03  0.10427515868E+03 -0.77430199687E+03  0.83798069955E+03  0.10236089131E+03 0.  0.
         23    2    1    2    0    0 -0.28516137478E+03 -0.10427515868E+03  0.49159610416E+03  0.58520259225E+03  0.92763279201E+02 0.  0.
          5    1    4    4  502    0 -0.16672084759E+03 -0.65857653148E+02  0.36968480383E+03  0.41087956348E+03  0.47000000000E+01 0. -1.
         -5    1    4    4    0  502 -0.11844052719E+03 -0.38417505532E+02  0.12191130032E+03  0.17432302877E+03  0.47000000000E+01 0.  1.
          5    1    3    3  503    0  0.18177647367E+03  0.69624443899E+02 -0.35703788391E+03  0.40667971442E+03  0.47000000000E+01 0. -1.
         -5    1    3    3    0  503  0.10338490111E+03  0.34650714781E+02 -0.41726411296E+03  0.43130098513E+03  0.47000000000E+01 0.  1.
<mgrwt>
<rscale>  0 0.31968211E+03</rscale>
<asrwt>0</asrwt>
<pdfrwt beam="1">  1        2 0.87729031E-01 0.32041859E+03</pdfrwt>
<pdfrwt beam="2">  1       -2 0.13122224E+00 0.32041859E+03</pdfrwt>
<totfact> 0.23930387E+01</totfact>
</mgrwt>
</event>
<event>
 8    1  0.8438969E-004  0.1162864E+03  0.7546771E-02  0.1250010E+00
         -2   -1    0    0    0  501 -0.00000000000E+00  0.00000000000E+00  0.82203740553E+02  0.82203740553E+02  0.00000000000E+00 0.  1.
          2   -1    0    0  501    0  0.00000000000E+00 -0.00000000000E+00 -0.21667402731E+03  0.21667402731E+03  0.00000000000E+00 0. -1.
         23    2    1    2    0    0 -0.42518583281E+02  0.51177217365E+02  0.72535177803E+01  0.11651236813E+03  0.95370754975E+02 0.  0.
         23    2    1    2    0    0  0.42518583281E+02 -0.51177217365E+02 -0.14172380453E+03  0.18236539973E+03  0.93512377507E+02 0.  0.
          5    1    4    4  502    0  0.20061798869E+02 -0.67439579909E+02 -0.13667376697E+03  0.15379330704E+03  0.47000000000E+01 0. -1.
         -5    1    3    3    0  503 -0.41286486618E+02 -0.16280471388E+02  0.17828776690E+02  0.48058121105E+02  0.47000000000E+01 0.  1.
          5    1    3    3  503    0 -0.12320966624E+01  0.67457688753E+02 -0.10575258910E+02  0.68454247020E+02  0.47000000000E+01 0. -1.
         -5    1    4    4    0  502  0.22456784412E+02  0.16262362544E+02 -0.50500375655E+01  0.28572092696E+02  0.47000000000E+01 0.  1.
<mgrwt>
<rscale>  0 0.11590469E+03</rscale>
<asrwt>0</asrwt>
<pdfrwt beam="1">  1        2 0.33334465E-01 0.11628636E+03</pdfrwt>
<pdfrwt beam="2">  1       -2 0.12646729E-01 0.11628636E+03</pdfrwt>
<totfact> 0.66622701E+03</totfact>
</mgrwt>
</event>
<event>
 8    1  0.8438969E-004  0.1019683E+03  0.7546771E-02  0.1276948E+00
          2   -1    0    0  501    0  0.00000000000E+00  0.00000000000E+00  0.34985829882E+03  0.34985829882E+03  0.00000000000E+00 0. -1.
         -2   -1    0    0    0  501 -0.00000000000E+00 -0.00000000000E+00 -0.30181296444E+02  0.30181296444E+02  0.00000000000E+00 0.  1.
         23    2    1    2    0    0 -0.25372274760E+02  0.35500331175E+02  0.12635026818E+03  0.16146980543E+03  0.90576387411E+02 0.  0.
         23    2    1    2    0    0  0.25372274760E+02 -0.35500331175E+02  0.19332673420E+03  0.21856978984E+03  0.92160192238E+02 0.  0.
          5    1    4    4  502    0  0.45160224702E+01 -0.53326145093E+02  0.17973633973E+03  0.18759348077E+03  0.47000000000E+01 0. -1.
         -5    1    4    4    0  502  0.20856252289E+02  0.17825813918E+02  0.13590394472E+02  0.30976309065E+02  0.47000000000E+01 0.  1.
          5    1    3    3  503    0 -0.53957765702E+02  0.57585792097E+00  0.79949572650E+02  0.96570162363E+02  0.47000000000E+01 0. -1.
         -5    1    3    3    0  503  0.28585490943E+02  0.34924473254E+02  0.46400695529E+02  0.64899643066E+02  0.47000000000E+01 0.  1.
<mgrwt>
<rscale>  0 0.10160908E+03</rscale>
<asrwt>0</asrwt>
<pdfrwt beam="1">  1        2 0.53824351E-01 0.10196826E+03</pdfrwt>
<pdfrwt beam="2">  1       -2 0.46432766E-02 0.10196826E+03</pdfrwt>
<totfact> 0.18490497E+04</totfact>
</mgrwt>
</event>
<event>
 8    1  0.8438969E-004  0.1053458E+03  0.7546771E-02  0.1271142E+00
          2   -1    0    0  501    0  0.00000000000E+00  0.00000000000E+00  0.12935462640E+03  0.12935462640E+03  0.00000000000E+00 0. -1.
         -2   -1    0    0    0  501 -0.00000000000E+00 -0.00000000000E+00 -0.11210949634E+03  0.11210949634E+03  0.00000000000E+00 0.  1.
         23    2    1    2    0    0 -0.21028395147E+02  0.44492737497E+02 -0.52956088218E+02  0.11487045102E+03  0.89269682115E+02 0.  0.
         23    2    1    2    0    0  0.21028395147E+02 -0.44492737497E+02  0.70201218284E+02  0.12659367173E+03  0.93144777524E+02 0.  0.
          5    1    3    3  502    0 -0.46334920508E+02  0.83903667729E+01 -0.52294010635E+02  0.70527134220E+02  0.47000000000E+01 0. -1.
         -5    1    3    3    0  502  0.25306525361E+02  0.36102370724E+02 -0.66207758346E+00  0.44343316796E+02  0.47000000000E+01 0.  1.
          5    1    4    4  503    0 -0.22248045509E+02 -0.22923827574E+02  0.71009083776E+02  0.78005495821E+02  0.47000000000E+01 0. -1.
         -5    1    4    4    0  503  0.43276440655E+02 -0.21568909924E+02 -0.80786549210E+00  0.48588175905E+02  0.47000000000E+01 0.  1.
<mgrwt>
<rscale>  0 0.10448274E+03</rscale>
<asrwt>0</asrwt>
<pdfrwt beam="1">  1        2 0.19900712E-01 0.10534584E+03</pdfrwt>
<pdfrwt beam="2">  1       -2 0.17247615E-01 0.10534584E+03</pdfrwt>
<totfact> 0.70244335E+03</totfact>
</mgrwt>
</event>
<event>
 8    1  0.8438969E-004  0.1564146E+03  0.7546771E-02  0.1192973E+00
          2   -1    0    0  501    0  0.00000000000E+00  0.00000000000E+00  0.41870894653E+03  0.41870894653E+03  0.00000000000E+00 0. -1.
         -2   -1    0    0    0  501 -0.00000000000E+00 -0.00000000000E+00 -0.10764092006E+03  0.10764092006E+03  0.00000000000E+00 0.  1.
         23    2    1    2    0    0 -0.12658415212E+03  0.21687757229E+01  0.33402052473E+03  0.36882957143E+03  0.91854725865E+02 0.  0.
         23    2    1    2    0    0  0.12658415212E+03 -0.21687757229E+01 -0.22952498263E+02  0.15752029516E+03  0.90871200369E+02 0.  0.
          5    1    4    4  502    0  0.68146859175E+02 -0.45152825144E+02 -0.22126636699E+02  0.84820104253E+02  0.47000000000E+01 0. -1.
         -5    1    4    4    0  502  0.58437292940E+02  0.42984049421E+02 -0.82586156360E+00  0.72700190908E+02  0.47000000000E+01 0.  1.
          5    1    3    3  503    0 -0.48885323592E+02 -0.17906917756E+02  0.23765660590E+03  0.24333759449E+03  0.47000000000E+01 0. -1.
         -5    1    3    3    0  503 -0.77698828523E+02  0.20075693479E+02  0.96363918833E+02  0.12549197694E+03  0.47000000000E+01 0.  1.
<mgrwt>
<rscale>  0 0.15627056E+03</rscale>
<asrwt>0</asrwt>
<pdfrwt beam="1">  1        2 0.64416760E-01 0.15641465E+03</pdfrwt>
<pdfrwt beam="2">  1       -2 0.16560142E-01 0.15641465E+03</pdfrwt>
<totfact> 0.21635878E+03</totfact>
</mgrwt>
</event>
<event>
 8    1  0.8438969E-004  0.9329921E+02  0.7546771E-02  0.1297630E+00
          1   -1    0    0  501    0  0.00000000000E+00  0.00000000000E+00  0.18047380553E+03  0.18047380553E+03  0.00000000000E+00 0. -1.
         -1   -1    0    0    0  501 -0.00000000000E+00 -0.00000000000E+00 -0.46008466852E+02  0.46008466852E+02  0.00000000000E+00 0.  1.
         23    2    1    2    0    0  0.16467351870E+02  0.16884492430E+02  0.68711539322E+02  0.11587069303E+03  0.90268943195E+02 0.  0.
         23    2    1    2    0    0 -0.16467351870E+02 -0.16884492430E+02  0.65753799355E+02  0.11061157935E+03  0.85761877279E+02 0.  0.
          5    1    3    3  502    0  0.38502889275E+02  0.43593854872E+02  0.42490321874E+02  0.72183198308E+02  0.47000000000E+01 0. -1.
         -5    1    3    3    0  502 -0.22035537405E+02 -0.26709362442E+02  0.26221217448E+02  0.43687494724E+02  0.47000000000E+01 0.  1.
          5    1    4    4  503    0  0.10385301074E+02  0.19603650369E+02 -0.78988826170E+01  0.24013328232E+02  0.47000000000E+01 0. -1.
         -5    1    4    4    0  503 -0.26852652943E+02 -0.36488142799E+02  0.73652681972E+02  0.86598251118E+02  0.47000000000E+01 0.  1.
<mgrwt>
<rscale>  0 0.92191281E+02</rscale>
<asrwt>0</asrwt>
<pdfrwt beam="1">  1        1 0.27765200E-01 0.93299206E+02</pdfrwt>
<pdfrwt beam="2">  1       -1 0.70782258E-02 0.93299206E+02</pdfrwt>
<totfact> 0.15629974E+04</totfact>
</mgrwt>
</event>
<event>
 8    1  0.8438969E-004  0.1395092E+03  0.7546771E-02  0.1214729E+00
         -1   -1    0    0    0  501 -0.00000000000E+00  0.00000000000E+00  0.23996391932E+02  0.23996391932E+02  0.00000000000E+00 0.  1.
          1   -1    0    0  501    0  0.00000000000E+00 -0.00000000000E+00 -0.10508889942E+04  0.10508889942E+04  0.00000000000E+00 0. -1.
         23    2    1    2    0    0  0.92826094762E+02 -0.43227908272E+02 -0.77985989082E+03  0.79224003323E+03  0.94749591084E+02 0.  0.
         23    2    1    2    0    0 -0.92826094762E+02  0.43227908272E+02 -0.24703271142E+03  0.28264535288E+03  0.91530864035E+02 0.  0.
          5    1    4    4  502    0 -0.44903079311E+02 -0.26055823261E+02 -0.10988333778E+03  0.12162084681E+03  0.47000000000E+01 0. -1.
         -5    1    3    3    0  503  0.29742651868E+02  0.29989326683E+02 -0.21662201092E+03  0.22075137751E+03  0.47000000000E+01 0.  1.
          5    1    3    3  503    0  0.63083442894E+02 -0.73217234956E+02 -0.56323787990E+03  0.57148865572E+03  0.47000000000E+01 0. -1.
         -5    1    4    4    0  502 -0.47923015451E+02  0.69283731533E+02 -0.13714937364E+03  0.16102450607E+03  0.47000000000E+01 0.  1.
<mgrwt>
<rscale>  0 0.13896460E+03</rscale>
<asrwt>0</asrwt>
<pdfrwt beam="1">  1        1 0.16167523E+00 0.13950921E+03</pdfrwt>
<pdfrwt beam="2">  1       -1 0.36917525E-02 0.13950921E+03</pdfrwt>
<totfact> 0.39873739E+03</totfact>
</mgrwt>
</event>
<event>
 7    1  0.8438969E-004  0.2302923E+03  0.7546771E-02  0.1130685E+00
          2   -1    0    0  501    0  0.00000000000E+00  0.00000000000E+00  0.78358662252E+03  0.78358662252E+03  0.00000000000E+00 0. -1.
         -2   -1    0    0    0  501 -0.00000000000E+00 -0.00000000000E+00 -0.70430518506E+02  0.70430518506E+02  0.00000000000E+00 0.  1.
         23    2    1    2    0    0 -0.28021981996E+02 -0.18423283313E+03  0.18534548255E+03  0.27815378131E+03  0.91047294719E+02 0.  0.
          5    1    3    3  502    0 -0.26244950087E+02 -0.12387772606E+03  0.17600473181E+03  0.21687379749E+03  0.47000000000E+01 0. -1.
         -5    1    3    3    0  502 -0.17770319086E+01 -0.60355107072E+02  0.93407507388E+01  0.61279983815E+02  0.47000000000E+01 0.  1.
          5    1    1    2  503    0 -0.51619985857E+02  0.95017234661E+02  0.20975135063E+03  0.23603096600E+03  0.47000000000E+01 0. -1.
         -5    1    1    2    0  503  0.79641967853E+02  0.89215598468E+02  0.31805927084E+03  0.33983239372E+03  0.47000000000E+01 0.  1.
<mgrwt>
<rscale>  0 0.22434381E+03</rscale>
<asrwt>0</asrwt>
<pdfrwt beam="1">  1        2 0.12055178E+00 0.23029233E+03</pdfrwt>
<pdfrwt beam="2">  1       -2 0.10835465E-01 0.23029233E+03</pdfrwt>
<totfact> 0.21176935E+03</totfact>
</mgrwt>
</event>
<event>
 8    1  0.8438969E-004  0.9177443E+02  0.7546771E-02  0.1299247E+00
         -3   -1    0    0    0  501 -0.00000000000E+00  0.00000000000E+00  0.11089335524E+02  0.11089335524E+02  0.00000000000E+00 0.  1.
          3   -1    0    0  501    0  0.00000000000E+00 -0.00000000000E+00 -0.75130745332E+03  0.75130745332E+03  0.00000000000E+00 0. -1.
         23    2    1    2    0    0 -0.78556537889E+01  0.10540449931E+02 -0.38339718866E+03  0.39422829667E+03  0.90828042183E+02 0.  0.
         23    2    1    2    0    0  0.78556537889E+01 -0.10540449931E+02 -0.35682092914E+03  0.36816849217E+03  0.89744363470E+02 0.  0.
          5    1    3    3  502    0  0.35799085015E+02 -0.38722344292E+01 -0.87372123357E+02  0.94617898028E+02  0.47000000000E+01 0. -1.
         -5    1    3    3    0  502 -0.43654738804E+02  0.14412684360E+02 -0.29602506530E+03  0.29961039864E+03  0.47000000000E+01 0.  1.
          5    1    4    4  503    0 -0.19569830052E+02 -0.40649443990E+02 -0.24280908757E+03  0.24700951106E+03  0.47000000000E+01 0. -1.
         -5    1    4    4    0  503  0.27425483841E+02  0.30108994059E+02 -0.11401184157E+03  0.12115898111E+03  0.47000000000E+01 0.  1.
<mgrwt>
<rscale>  0 0.91505152E+02</rscale>
<asrwt>0</asrwt>
<pdfrwt beam="1">  1        3 0.11558574E+00 0.91774428E+02</pdfrwt>
<pdfrwt beam="2">  1       -3 0.17060519E-02 0.91774428E+02</pdfrwt>
<totfact> 0.16865100E+03</totfact>
</mgrwt>
</event>
<event>
 8    1  0.8438969E-004  0.1127885E+03  0.7546771E-02  0.1255990E+00
          3   -1    0    0  501    0  0.00000000000E+00  0.00000000000E+00  0.26813691852E+02  0.26813691852E+02  0.00000000000E+00 0. -1.
         -3   -1    0    0    0  501 -0.00000000000E+00 -0.00000000000E+00 -0.47011197169E+03  0.47011197169E+03  0.00000000000E+00 0.  1.
         23    2    1    2    0    0 -0.44143718963E+02  0.48290573038E+02 -0.21397129083E+03  0.24136331327E+03  0.90509051069E+02 0.  0.
         23    2    1    2    0    0  0.44143718963E+02 -0.48290573038E+02 -0.22932698901E+03  0.25556235027E+03  0.91872736003E+02 0.  0.
          5    1    3    3  502    0 -0.22429917917E+02  0.10399114599E+02 -0.23996799712E+01  0.25280254472E+02  0.47000000000E+01 0. -1.
         -5    1    4    4    0  503  0.87352103850E+01  0.25755480898E+02 -0.35088933563E+02  0.44642714471E+02  0.47000000000E+01 0.  1.
          5    1    4    4  503    0  0.35408508578E+02 -0.74046053936E+02 -0.19423805545E+03  0.21091963580E+03  0.47000000000E+01 0. -1.
         -5    1    3    3    0  502 -0.21713801046E+02  0.37891458439E+02 -0.21157161086E+03  0.21608305880E+03  0.47000000000E+01 0.  1.
<mgrwt>
<rscale>  0 0.11251048E+03</rscale>
<asrwt>0</asrwt>
<pdfrwt beam="1">  1        3 0.41251834E-02 0.11278851E+03</pdfrwt>
<pdfrwt beam="2">  1       -3 0.72324918E-01 0.11278851E+03</pdfrwt>
<totfact> 0.12800369E+03</totfact>
</mgrwt>
</event>
<event>
 8    1  0.8438969E-004  0.1366286E+03  0.7546771E-02  0.1218334E+00
         -1   -1    0    0    0  501 -0.00000000000E+00  0.00000000000E+00  0.26229209981E+02  0.26229209981E+02  0.00000000000E+00 0.  1.
          1   -1    0    0  501    0  0.00000000000E+00 -0.00000000000E+00 -0.14465053539E+04  0.14465053539E+04  0.00000000000E+00 0. -1.
         23    2    1    2    0    0 -0.96676918375E+02  0.28723870641E+02 -0.12356232912E+04  0.12430302738E+04  0.90486776452E+02 0.  0.
         23    2    1    2    0    0  0.96676918375E+02 -0.28723870641E+02 -0.18465285280E+03  0.22970429009E+03  0.92173193214E+02 0.  0.
          5    1    3    3  502    0 -0.74607632508E+02 -0.23691734253E+02 -0.72285429554E+03  0.72709560560E+03  0.47000000000E+01 0. -1.
         -5    1    3    3    0  502 -0.22069285867E+02  0.52415604893E+02 -0.51276899563E+03  0.51593466824E+03  0.47000000000E+01 0.  1.
          5    1    4    4  503    0 -0.16942720245E+02 -0.11075152840E+02 -0.20149685030E+02  0.28945026974E+02  0.47000000000E+01 0. -1.
         -5    1    4    4    0  503  0.11361963862E+03 -0.17648717801E+02 -0.16450316777E+03  0.20075926311E+03  0.47000000000E+01 0.  1.
<mgrwt>
<rscale>  0 0.13634476E+03</rscale>
<asrwt>0</asrwt>
<pdfrwt beam="1">  1        1 0.22253934E+00 0.13662864E+03</pdfrwt>
<pdfrwt beam="2">  1       -1 0.40352621E-02 0.13662864E+03</pdfrwt>
<totfact> 0.18842276E+03</totfact>
</mgrwt>
</event>
<event>
 8    1  0.8438969E-004  0.1332002E+03  0.7546771E-02  0.1223490E+00
          2   -1    0    0  501    0  0.00000000000E+00  0.00000000000E+00  0.63518971817E+02  0.63518971817E+02  0.00000000000E+00 0. -1.
         -2   -1    0    0    0  501 -0.00000000000E+00 -0.00000000000E+00 -0.50921405225E+03  0.50921405225E+03  0.00000000000E+00 0.  1.
         23    2    1    2    0    0  0.16695026313E+02  0.97744084074E+02 -0.41784711798E+03  0.43856413662E+03  0.88936258345E+02 0.  0.
         23    2    1    2    0    0 -0.16695026313E+02 -0.97744084074E+02 -0.27847962448E+02  0.13416888744E+03  0.85983437187E+02 0.  0.
          5    1    4    4  502    0  0.24987097358E+02 -0.82712907397E+02 -0.15269380261E+02  0.87869357901E+02  0.47000000000E+01 0. -1.
         -5    1    3    3    0  503 -0.34493364903E+02  0.25968392146E+02 -0.17010310738E+03  0.17555998050E+03  0.47000000000E+01 0.  1.
          5    1    3    3  503    0  0.51188391217E+02  0.71775691928E+02 -0.24774401061E+03  0.26300415612E+03  0.47000000000E+01 0. -1.
         -5    1    4    4    0  502 -0.41682123672E+02 -0.15031176678E+02 -0.12578582187E+02  0.46299529544E+02  0.47000000000E+01 0.  1.
<mgrwt>
<rscale>  0 0.13270918E+03</rscale>
<asrwt>0</asrwt>
<pdfrwt beam="1">  1        2 0.97721502E-02 0.13320018E+03</pdfrwt>
<pdfrwt beam="2">  1       -2 0.78340618E-01 0.13320018E+03</pdfrwt>
<totfact> 0.96047956E+02</totfact>
</mgrwt>
</event>
<event>
 8    1  0.8438969E-004  0.9838656E+02  0.7546771E-02  0.1284013E+00
         -1   -1    0    0    0  501 -0.00000000000E+00  0.00000000000E+00  0.15427836397E+02  0.15427836397E+02  0.00000000000E+00 0. -1.
          1   -1    0    0  501    0  0.00000000000E+00 -0.00000000000E+00 -0.66794328482E+03  0.66794328482E+03  0.00000000000E+00 0.  1.
         23    2    1    2    0    0  0.20808345804E+02 -0.31402952735E+02 -0.23782218192E+03  0.25716645179E+03  0.90310913058E+02 0.  0.
         23    2    1    2    0    0 -0.20808345804E+02  0.31402952735E+02 -0.41469326650E+03  0.42620466943E+03  0.90888845652E+02 0.  0.
          5    1    3    3  502    0 -0.86222761829E+01  0.23698454622E+02 -0.27040331393E+02  0.37272374755E+02  0.47000000000E+01 0. -1.
         -5    1    3    3    0  502  0.29430621987E+02 -0.55101407357E+02 -0.21078185053E+03  0.21989407704E+03  0.47000000000E+01 0.  1.
          5    1    4    4  503    0 -0.23411809650E+02  0.61932150099E+02 -0.25268975023E+03  0.26126213640E+03  0.47000000000E+01 0. -1.
         -5    1    4    4    0  503  0.26034638462E+01 -0.30529197364E+02 -0.16200351628E+03  0.16494253303E+03  0.47000000000E+01 0.  1.
<mgrwt>
<rscale>  0 0.98252877E+02</rscale>
<asrwt>0</asrwt>
<pdfrwt beam="1">  1        1 0.10276050E+00 0.98386559E+02</pdfrwt>
<pdfrwt beam="2">  1       -1 0.23735135E-02 0.98386559E+02</pdfrwt>
<totfact> 0.14897391E+04</totfact>
</mgrwt>
</event>
<event>
 8    1  0.8438969E-004  0.1480729E+03  0.7546771E-02  0.1202983E+00
         -1   -1    0    0    0  501 -0.00000000000E+00  0.00000000000E+00  0.78783645333E+02  0.78783645333E+02  0.00000000000E+00 0.  1.
          1   -1    0    0  501    0  0.00000000000E+00 -0.00000000000E+00 -0.66256013605E+03  0.66256013605E+03  0.00000000000E+00 0. -1.
         23    2    1    2    0    0 -0.50792843818E+02 -0.10466571724E+03 -0.57460306074E+03  0.59337530936E+03  0.91601064370E+02 0.  0.
         23    2    1    2    0    0  0.50792843818E+02  0.10466571724E+03 -0.91734299794E+01  0.14796847203E+03  0.90970828009E+02 0.  0.
          5    1    4    4  502    0  0.26096569529E+02  0.15304882631E+02 -0.39803162103E+02  0.50216054076E+02  0.47000000000E+01 0. -1.
         -5    1    3    3    0  503  0.26569263326E+02 -0.22668573468E+02 -0.13836282300E+03  0.14278007832E+03  0.47000000000E+01 0.  1.
          5    1    3    3  503    0 -0.77362107144E+02 -0.81997143771E+02 -0.43624023774E+03  0.45059523104E+03  0.47000000000E+01 0. -1.
         -5    1    4    4    0  502  0.24696274289E+02  0.89360834608E+02  0.30629732124E+02  0.97752417953E+02  0.47000000000E+01 0.  1.
<mgrwt>
<rscale>  0 0.14797553E+03</rscale>
<asrwt>0</asrwt>
<pdfrwt beam="1">  1        1 0.10193233E+00 0.14807289E+03</pdfrwt>
<pdfrwt beam="2">  1       -1 0.12120561E-01 0.14807289E+03</pdfrwt>
<totfact> 0.13700129E+03</totfact>
</mgrwt>
</event>
<event>
 8    1  0.8438969E-004  0.1095815E+03  0.7546771E-02  0.1263194E+00
          2   -1    0    0  501    0  0.00000000000E+00  0.00000000000E+00  0.28197326479E+03  0.28197326479E+03  0.00000000000E+00 0. -1.
         -2   -1    0    0    0  501 -0.00000000000E+00 -0.00000000000E+00 -0.41099291355E+02  0.41099291355E+02  0.00000000000E+00 0.  1.
         23    2    1    2    0    0  0.16694539609E+02  0.55455780476E+02  0.11973341582E+03  0.16230892909E+03  0.93027127006E+02 0.  0.
         23    2    1    2    0    0 -0.16694539609E+02 -0.55455780476E+02  0.12114055762E+03  0.16076362706E+03  0.88407340431E+02 0.  0.
          5    1    4    4  502    0 -0.48509956959E+01 -0.75088512940E+02  0.63564437222E+02  0.98612091622E+02  0.47000000000E+01 0. -1.
         -5    1    3    3    0  503 -0.74320079251E+01  0.50562891822E+02  0.13372897864E+02  0.53035508562E+02  0.47000000000E+01 0.  1.
          5    1    3    3  503    0  0.24126547534E+02  0.48928886548E+01  0.10636051795E+03  0.10927342053E+03  0.47000000000E+01 0. -1.
         -5    1    4    4    0  502 -0.11843543913E+02  0.19632732463E+02  0.57576120401E+02  0.62151535434E+02  0.47000000000E+01 0.  1.
<mgrwt>
<rscale>  0 0.10859480E+03</rscale>
<asrwt>0</asrwt>
<pdfrwt beam="1">  1        2 0.43380501E-01 0.10958147E+03</pdfrwt>
<pdfrwt beam="2">  1       -2 0.63229681E-02 0.10958147E+03</pdfrwt>
<totfact> 0.14706073E+04</totfact>
</mgrwt>
</event>
<event>
 8    1  0.8438969E-004  0.1057891E+03  0.7546771E-02  0.1268975E+00
          2   -1    0    0  501    0  0.00000000000E+00  0.00000000000E+00  0.95684370985E+03  0.95684370985E+03  0.00000000000E+00 0. -1.
         -2   -1    0    0    0  501 -0.00000000000E+00 -0.00000000000E+00 -0.12405917541E+02  0.12405917541E+02  0.00000000000E+00 0.  1.
         23    2    1    2    0    0  0.26747887321E+02  0.45286525968E+02  0.34738680630E+03  0.36289889175E+03  0.90838832723E+02 0.  0.
         23    2    1    2    0    0 -0.26747887321E+02 -0.45286525968E+02  0.59705098601E+03  0.60635073565E+03  0.91787884876E+02 0.  0.
          5    1    3    3  502    0  0.75103200691E+01  0.70752593195E+02  0.21000671943E+03  0.22178197978E+03  0.47000000000E+01 0. -1.
         -5    1    4    4    0  503 -0.47456763040E+02 -0.58840063304E+02  0.51439343553E+03  0.51993941370E+03  0.47000000000E+01 0.  1.
          5    1    4    4  503    0  0.20708875720E+02  0.13553537335E+02  0.82657550487E+02  0.86411321946E+02  0.47000000000E+01 0. -1.
         -5    1    3    3    0  502  0.19237567252E+02 -0.25466067227E+02  0.13738008687E+03  0.14111691197E+03  0.47000000000E+01 0.  1.
<mgrwt>
<rscale>  0 0.10558291E+03</rscale>
<asrwt>0</asrwt>
<pdfrwt beam="1">  1        2 0.14720667E+00 0.10578910E+03</pdfrwt>
<pdfrwt beam="2">  1       -2 0.19086035E-02 0.10578910E+03</pdfrwt>
<totfact> 0.21574649E+04</totfact>
</mgrwt>
</event>
<event>
 8    1  0.8438969E-004  0.1106317E+03  0.7546771E-02  0.1261593E+00
         -1   -1    0    0    0  501 -0.00000000000E+00  0.00000000000E+00  0.13623517993E+02  0.13623517993E+02  0.00000000000E+00 0.  1.
          1   -1    0    0  501    0  0.00000000000E+00 -0.00000000000E+00 -0.10742918326E+04  0.10742918326E+04  0.00000000000E+00 0. -1.
         23    2    1    2    0    0 -0.50700351668E+02  0.11822102223E+02 -0.29713883269E+03  0.31706600291E+03  0.97616989017E+02 0.  0.
         23    2    1    2    0    0  0.50700351668E+02 -0.11822102223E+02 -0.76352948194E+03  0.77084934772E+03  0.92310125756E+02 0.  0.
          5    1    4    4  502    0 -0.24548477114E+02 -0.13872197967E+02 -0.14983741739E+03  0.15253985464E+03  0.47000000000E+01 0. -1.
         -5    1    3    3    0  503 -0.24337343533E+02  0.48698803471E+02 -0.22652437434E+03  0.23302202025E+03  0.47000000000E+01 0.  1.
          5    1    3    3  503    0 -0.26363008135E+02 -0.36876701247E+02 -0.70614458353E+02  0.84043982660E+02  0.47000000000E+01 0. -1.
         -5    1    4    4    0  502  0.75248828782E+02  0.20500957441E+01 -0.61369206456E+03  0.61830949307E+03  0.47000000000E+01 0.  1.
<mgrwt>
<rscale>  0 0.10944956E+03</rscale>
<asrwt>0</asrwt>
<pdfrwt beam="1">  1        1 0.16527569E+00 0.11063166E+03</pdfrwt>
<pdfrwt beam="2">  1       -1 0.20959255E-02 0.11063166E+03</pdfrwt>
<totfact> 0.86320035E+03</totfact>
</mgrwt>
</event>
<event>
 8    1  0.8438969E-004  0.1455699E+03  0.7546771E-02  0.1207611E+00
         -2   -1    0    0    0  501 -0.00000000000E+00  0.00000000000E+00  0.93921011593E+02  0.93921011593E+02  0.00000000000E+00 0.  1.
          2   -1    0    0  501    0  0.00000000000E+00 -0.00000000000E+00 -0.29544992126E+03  0.29544992126E+03  0.00000000000E+00 0. -1.
         23    2    1    2    0    0 -0.10716758075E+03  0.15021927609E+02  0.86702010319E-01  0.14069552545E+03  0.89914819091E+02 0.  0.
         23    2    1    2    0    0  0.10716758075E+03 -0.15021927609E+02 -0.20161561167E+03  0.24867540740E+03  0.97365572467E+02 0.  0.
          5    1    4    4  502    0  0.99132459534E+02  0.23510081529E+02 -0.16877708324E+03  0.19719980297E+03  0.47000000000E+01 0. -1.
         -5    1    4    4    0  502  0.80351212143E+01 -0.38532009137E+02 -0.32838528436E+02  0.51475604425E+02  0.47000000000E+01 0.  1.
          5    1    3    3  503    0 -0.46245931463E+02 -0.36541604804E+02 -0.10477039397E+02  0.60048592099E+02  0.47000000000E+01 0. -1.
         -5    1    3    3    0  503 -0.60921649285E+02  0.51563532413E+02  0.10563741407E+02  0.80646933352E+02  0.47000000000E+01 0.  1.
<mgrwt>
<rscale>  0 0.14433571E+03</rscale>
<asrwt>0</asrwt>
<pdfrwt beam="1">  1        2 0.45453833E-01 0.14556993E+03</pdfrwt>
<pdfrwt beam="2">  1       -2 0.14449387E-01 0.14556993E+03</pdfrwt>
<totfact> 0.39159404E+03</totfact>
</mgrwt>
</event>
<event>
 8    1  0.8438969E-004  0.9242018E+02  0.7546771E-02  0.1304369E+00
          2   -1    0    0  501    0  0.00000000000E+00  0.00000000000E+00  0.52921467247E+03  0.52921467247E+03  0.00000000000E+00 0. -1.
         -2   -1    0    0    0  501 -0.00000000000E+00 -0.00000000000E+00 -0.14705160841E+02  0.14705160841E+02  0.00000000000E+00 0.  1.
         23    2    1    2    0    0 -0.12533550412E+02  0.22789906435E+01  0.32513359577E+03  0.33801382368E+03  0.91538004221E+02 0.  0.
         23    2    1    2    0    0  0.12533550412E+02 -0.22789906435E+01  0.18937591586E+03  0.20590600963E+03  0.79823327479E+02 0.  0.
          5    1    3    3  502    0  0.97023049669E+01 -0.28125016970E+02  0.26629514692E+03  0.26799318382E+03  0.47000000000E+01 0. -1.
         -5    1    3    3    0  502 -0.22235855379E+02  0.30404007613E+02  0.58838448850E+02  0.70020639860E+02  0.47000000000E+01 0.  1.
          5    1    4    4  503    0  0.35388848350E+02 -0.77299170108E+01  0.38238715629E+02  0.52881107945E+02  0.47000000000E+01 0. -1.
         -5    1    4    4    0  503 -0.22855297938E+02  0.54509263673E+01  0.15113720023E+03  0.15302490169E+03  0.47000000000E+01 0.  1.
<mgrwt>
<rscale>  0 0.89376408E+02</rscale>
<asrwt>0</asrwt>
<pdfrwt beam="1">  1        2 0.81417627E-01 0.92420181E+02</pdfrwt>
<pdfrwt beam="2">  1       -2 0.22623328E-02 0.92420181E+02</pdfrwt>
<totfact> 0.33678752E+04</totfact>
</mgrwt>
</event>
<event>
 8    1  0.8438969E-004  0.9750298E+02  0.7546771E-02  0.1286861E+00
         -1   -1    0    0    0  501 -0.00000000000E+00  0.00000000000E+00  0.49474563125E+03  0.49474563125E+03  0.00000000000E+00 0.  1.
          1   -1    0    0  501    0  0.00000000000E+00 -0.00000000000E+00 -0.25007866444E+02  0.25007866444E+02  0.00000000000E+00 0. -1.
         23    2    1    2    0    0 -0.25716376179E+02 -0.22708867586E+02  0.10315086264E+03  0.14042146954E+03  0.88887929291E+02 0.  0.
         23    2    1    2    0    0  0.25716376179E+02  0.22708867586E+02  0.36658690217E+03  0.37933202816E+03  0.91267771268E+02 0.  0.
          5    1    3    3  502    0 -0.22508539005E+02  0.26143687051E+02  0.11961593957E+02  0.36814350881E+02  0.47000000000E+01 0. -1.
         -5    1    4    4    0  503 -0.25541059641E+02 -0.18210264261E+02  0.11498010650E+03  0.11927478503E+03  0.47000000000E+01 0.  1.
          5    1    4    4  503    0  0.51257435820E+02  0.40919131847E+02  0.25160679567E+03  0.26005724313E+03  0.47000000000E+01 0. -1.
         -5    1    3    3    0  502 -0.32078371739E+01 -0.48852554637E+02  0.91189268681E+02  0.10360711866E+03  0.47000000000E+01 0.  1.
<mgrwt>
<rscale>  0 0.96942165E+02</rscale>
<asrwt>0</asrwt>
<pdfrwt beam="1">  1        1 0.38473644E-02 0.97502978E+02</pdfrwt>
<pdfrwt beam="2">  1       -1 0.76114705E-01 0.97502978E+02</pdfrwt>
<totfact> 0.40639538E+03</totfact>
</mgrwt>
</event>
<event>
 8    1  0.8438969E-004  0.1010368E+03  0.7546771E-02  0.1286912E+00
          2   -1    0    0  501    0  0.00000000000E+00  0.00000000000E+00  0.95955331003E+03  0.95955331003E+03  0.00000000000E+00 0. -1.
         -2   -1    0    0    0  501 -0.00000000000E+00 -0.00000000000E+00 -0.91602812288E+01  0.91602812288E+01  0.00000000000E+00 0.  1.
         23    2    1    2    0    0 -0.14599292750E+02  0.36591796062E+02  0.48403727632E+03  0.49153845104E+03  0.75933293718E+02 0.  0.
         23    2    1    2    0    0  0.14599292750E+02 -0.36591796062E+02  0.46635575249E+03  0.47717514022E+03  0.93039387808E+02 0.  0.
          5    1    3    3  502    0 -0.41227746437E+02  0.35004563434E+01  0.27945732476E+03  0.28254285805E+03  0.47000000000E+01 0. -1.
         -5    1    3    3    0  502  0.26628453688E+02  0.33091339718E+02  0.20457995156E+03  0.20899559299E+03  0.47000000000E+01 0.  1.
          5    1    4    4  503    0  0.41058954635E+02 -0.22814150505E+02  0.41439946423E+03  0.41707952380E+03  0.47000000000E+01 0. -1.
         -5    1    4    4    0  503 -0.26459661885E+02 -0.13777645557E+02  0.51956288257E+02  0.60095616426E+02  0.47000000000E+01 0.  1.
<mgrwt>
<rscale>  0 0.96918869E+02</rscale>
<asrwt>0</asrwt>
<pdfrwt beam="1">  1        2 0.14762351E+00 0.10103676E+03</pdfrwt>
<pdfrwt beam="2">  1       -2 0.14092748E-02 0.10103676E+03</pdfrwt>
<totfact> 0.33072659E+04</totfact>
</mgrwt>
</event>
<event>
 8    1  0.8438969E-004  0.1047347E+03  0.7546771E-02  0.1275849E+00
         -1   -1    0    0    0  501 -0.00000000000E+00  0.00000000000E+00  0.43708010090E+02  0.43708010090E+02  0.00000000000E+00 0.  1.
          1   -1    0    0  501    0  0.00000000000E+00 -0.00000000000E+00 -0.25020927808E+03  0.25020927808E+03  0.00000000000E+00 0. -1.
         23    2    1    2    0    0 -0.27070473144E+01 -0.22084926717E+02 -0.63846557901E+02  0.12266107887E+03  0.10234395547E+03 0.  0.
         23    2    1    2    0    0  0.27070473144E+01  0.22084926717E+02 -0.14265471009E+03  0.17125620929E+03  0.92104564590E+02 0.  0.
          5    1    3    3  502    0  0.76330190022E+01 -0.60380552278E+02 -0.22197142876E+02  0.64952884650E+02  0.47000000000E+01 0. -1.
         -5    1    4    4    0  503 -0.20963418912E+02 -0.14055198695E+02 -0.40397791421E+01  0.25988908372E+02  0.47000000000E+01 0.  1.
          5    1    4    4  503    0  0.23670466226E+02  0.36140125412E+02 -0.13861493095E+03  0.14526730092E+03  0.47000000000E+01 0. -1.
         -5    1    3    3    0  502 -0.10340066317E+02  0.38295625562E+02 -0.41649415026E+02  0.57708194224E+02  0.47000000000E+01 0.  1.
<mgrwt>
<rscale>  0 0.10214505E+03</rscale>
<asrwt>0</asrwt>
<pdfrwt beam="1">  1        1 0.38493736E-01 0.10473470E+03</pdfrwt>
<pdfrwt beam="2">  1       -1 0.67243090E-02 0.10473470E+03</pdfrwt>
<totfact> 0.11415497E+04</totfact>
</mgrwt>
</event>
<event>
 8    1  0.8438969E-004  0.1012750E+03  0.7546771E-02  0.1278532E+00
         -2   -1    0    0    0  501 -0.00000000000E+00  0.00000000000E+00  0.15646198546E+02  0.15646198546E+02  0.00000000000E+00 0.  1.
          2   -1    0    0  501    0  0.00000000000E+00 -0.00000000000E+00 -0.67445730384E+03  0.67445730384E+03  0.00000000000E+00 0. -1.
         23    2    1    2    0    0 -0.38783972646E+02 -0.21693787433E+02 -0.39945344060E+03  0.41167393882E+03  0.89093006160E+02 0.  0.
         23    2    1    2    0    0  0.38783972646E+02  0.21693787433E+02 -0.25935766470E+03  0.27842956357E+03  0.91004432236E+02 0.  0.
          5    1    3    3  502    0  0.13927440709E+02 -0.26583696294E+02 -0.27046943310E+03  0.27216992992E+03  0.47000000000E+01 0. -1.
         -5    1    3    3    0  502 -0.52711413355E+02  0.48899088611E+01 -0.12898400750E+03  0.13950400889E+03  0.47000000000E+01 0.  1.
          5    1    4    4  503    0  0.24184244517E+02  0.55194513683E+02 -0.19631799062E+03  0.20541215997E+03  0.47000000000E+01 0. -1.
         -5    1    4    4    0  503  0.14599728129E+02 -0.33500726250E+02 -0.63039674082E+02  0.73017403604E+02  0.47000000000E+01 0.  1.
<mgrwt>
<rscale>  0 0.10084373E+03</rscale>
<asrwt>0</asrwt>
<pdfrwt beam="1">  1        2 0.10376265E+00 0.10127499E+03</pdfrwt>
<pdfrwt beam="2">  1       -2 0.24071078E-02 0.10127499E+03</pdfrwt>
<totfact> 0.23676982E+04</totfact>
</mgrwt>
</event>
<event>
 8    1  0.8438969E-004  0.2005392E+03  0.7546771E-02  0.1149429E+00
         -1   -1    0    0    0  501 -0.00000000000E+00  0.00000000000E+00  0.18529550607E+03  0.18529550607E+03  0.00000000000E+00 0.  1.
          1   -1    0    0  501    0  0.00000000000E+00 -0.00000000000E+00 -0.53670188958E+03  0.53670188958E+03  0.00000000000E+00 0. -1.
         23    2    1    2    0    0 -0.15610323630E+03  0.86077276464E+02  0.10334399923E+03  0.22499248300E+03  0.90355505217E+02 0.  0.
         23    2    1    2    0    0  0.15610323630E+03 -0.86077276464E+02 -0.45475038273E+03  0.49700491265E+03  0.91861061924E+02 0.  0.
          5    1    4    4  502    0  0.12072475998E+03 -0.15970594304E+02 -0.27786169677E+03  0.30341183248E+03  0.47000000000E+01 0. -1.
         -5    1    4    4    0  502  0.35378476317E+02 -0.70106682160E+02 -0.17688868596E+03  0.19359308018E+03  0.47000000000E+01 0.  1.
          5    1    3    3  503    0 -0.14808631436E+02 -0.17329966697E+02  0.39696927606E+01  0.23610840123E+02  0.47000000000E+01 0. -1.
         -5    1    3    3    0  503 -0.14129460486E+03  0.10340724316E+03  0.99374306466E+02  0.20138164287E+03  0.47000000000E+01 0.  1.
<mgrwt>
<rscale>  0 0.20036769E+03</rscale>
<asrwt>0</asrwt>
<pdfrwt beam="1">  1        1 0.82569520E-01 0.20053920E+03</pdfrwt>
<pdfrwt beam="2">  1       -1 0.28507001E-01 0.20053920E+03</pdfrwt>
<totfact> 0.46230574E+02</totfact>
</mgrwt>
</event>
<event>
 8    1  0.8438969E-004  0.1017902E+03  0.7546771E-02  0.1281644E+00
         -1   -1    0    0    0  501 -0.00000000000E+00  0.00000000000E+00  0.75364739167E+02  0.75364739167E+02  0.00000000000E+00 0.  1.
          1   -1    0    0  501    0  0.00000000000E+00 -0.00000000000E+00 -0.12722153723E+03  0.12722153723E+03  0.00000000000E+00 0. -1.
         23    2    1    2    0    0 -0.10130175004E+01 -0.91576050514E+01 -0.40177526047E+02  0.10943248966E+03  0.10137232492E+03 0.  0.
         23    2    1    2    0    0  0.10130175004E+01  0.91576050514E+01 -0.11679272013E+02  0.93153786736E+02  0.91958331073E+02 0.  0.
          5    1    4    4  502    0  0.36267828935E+02  0.31201100946E+02 -0.16963532580E+02  0.50977598546E+02  0.47000000000E+01 0. -1.
         -5    1    4    4    0  502 -0.35254811435E+02 -0.22043495894E+02  0.52842605663E+01  0.42176188191E+02  0.47000000000E+01 0.  1.
          5    1    3    3  503    0  0.77371293844E+01 -0.39785992423E+02 -0.59301378399E+02  0.71982857988E+02  0.47000000000E+01 0. -1.
         -5    1    3    3    0  503 -0.87501468848E+01  0.30628387371E+02  0.19123852351E+02  0.37449631670E+02  0.47000000000E+01 0.  1.
<mgrwt>
<rscale>  0 0.99361776E+02</rscale>
<asrwt>0</asrwt>
<pdfrwt beam="1">  1        1 0.19572544E-01 0.10179016E+03</pdfrwt>
<pdfrwt beam="2">  1       -1 0.11594575E-01 0.10179016E+03</pdfrwt>
<totfact> 0.11598851E+04</totfact>
</mgrwt>
</event>
<event>
 8    1  0.8438969E-004  0.1933282E+03  0.7546771E-02  0.1155910E+00
          2   -1    0    0  501    0  0.00000000000E+00  0.00000000000E+00  0.21229821382E+03  0.21229821382E+03  0.00000000000E+00 0. -1.
         -2   -1    0    0    0  501 -0.00000000000E+00 -0.00000000000E+00 -0.51616228712E+03  0.51616228712E+03  0.00000000000E+00 0.  1.
         23    2    1    2    0    0 -0.14952387925E+03 -0.78718778306E+02 -0.44808132110E+03  0.48726679386E+03  0.89989007977E+02 0.  0.
         23    2    1    2    0    0  0.14952387925E+03  0.78718778306E+02  0.14421724780E+03  0.24119370709E+03  0.93924188858E+02 0.  0.
          5    1    3    3  502    0 -0.14050047173E+03 -0.41301804185E+02 -0.29543965446E+03  0.32977704743E+03  0.47000000000E+01 0. -1.
         -5    1    3    3    0  502 -0.90234075192E+01 -0.37416974120E+02 -0.15264166664E+03  0.15748974643E+03  0.47000000000E+01 0.  1.
          5    1    4    4  503    0  0.56870116068E+02 -0.16955836822E+01  0.77260730125E+01  0.57609611262E+02  0.47000000000E+01 0. -1.
         -5    1    4    4    0  503  0.92653763181E+02  0.80414361988E+02  0.13649117479E+03  0.18358409583E+03  0.47000000000E+01 0.  1.
<mgrwt>
<rscale>  0 0.19285624E+03</rscale>
<asrwt>0</asrwt>
<pdfrwt beam="1">  1        2 0.32661265E-01 0.19332819E+03</pdfrwt>
<pdfrwt beam="2">  1       -2 0.79409581E-01 0.19332819E+03</pdfrwt>
<totfact> 0.23309289E+02</totfact>
</mgrwt>
</event>
<event>
 8    1  0.8438969E-004  0.1709137E+03  0.7546771E-02  0.1178466E+00
         -1   -1    0    0    0  501 -0.00000000000E+00  0.00000000000E+00  0.19931199037E+03  0.19931199037E+03  0.00000000000E+00 0.  1.
          1   -1    0    0  501    0  0.00000000000E+00 -0.00000000000E+00 -0.26476228749E+03  0.26476228749E+03  0.00000000000E+00 0. -1.
         23    2    1    2    0    0  0.27728546140E+02  0.13222585833E+03  0.12526744725E+03  0.21190427762E+03  0.10468495426E+03 0.  0.
         23    2    1    2    0    0 -0.27728546140E+02 -0.13222585833E+03 -0.19071774437E+03  0.25217000025E+03  0.94677880874E+02 0.  0.
          5    1    4    4  502    0  0.17885282902E+02 -0.11363748543E+03 -0.14088382375E+03  0.18194423111E+03  0.47000000000E+01 0. -1.
         -5    1    4    4    0  502 -0.45613829042E+02 -0.18588372894E+02 -0.49833920620E+02  0.70225769139E+02  0.47000000000E+01 0.  1.
          5    1    3    3  503    0 -0.15164048723E+02  0.11147069868E+03  0.51158148582E+02  0.12367259682E+03  0.47000000000E+01 0. -1.
         -5    1    3    3    0  503  0.42892594863E+02  0.20755159645E+02  0.74109298670E+02  0.88231680792E+02  0.47000000000E+01 0.  1.
<mgrwt>
<rscale>  0 0.16940904E+03</rscale>
<asrwt>0</asrwt>
<pdfrwt beam="1">  1        1 0.40732659E-01 0.17091369E+03</pdfrwt>
<pdfrwt beam="2">  1       -1 0.30663383E-01 0.17091369E+03</pdfrwt>
<totfact> 0.10064127E+03</totfact>
</mgrwt>
</event>
<event>
 8    1  0.8438969E-004  0.9505412E+02  0.7546771E-02  0.1291150E+00
          1   -1    0    0  501    0  0.00000000000E+00  0.00000000000E+00  0.99702905544E+02  0.99702905544E+02  0.00000000000E+00 0. -1.
         -1   -1    0    0    0  501 -0.00000000000E+00 -0.00000000000E+00 -0.18495886804E+03  0.18495886804E+03  0.00000000000E+00 0.  1.
         23    2    1    2    0    0  0.22914356484E+02 -0.16351558839E+02  0.59089147519E+02  0.11192324897E+03  0.90790115634E+02 0.  0.
         23    2    1    2    0    0 -0.22914356484E+02  0.16351558839E+02 -0.14434511002E+03  0.17273852461E+03  0.90612614407E+02 0.  0.
          5    1    3    3  502    0  0.13137443567E+02  0.18131883929E+02  0.70416932054E+02  0.74040475135E+02  0.47000000000E+01 0. -1.
         -5    1    4    4    0  503 -0.13445386777E+02 -0.22565993368E+02 -0.12535401355E+03  0.12816286980E+03  0.47000000000E+01 0.  1.
          5    1    4    4  503    0 -0.94689697072E+01  0.38917552206E+02 -0.18991096471E+02  0.44575654815E+02  0.47000000000E+01 0. -1.
         -5    1    3    3    0  502  0.97769129173E+01 -0.34483442767E+02 -0.11327784535E+02  0.37882773839E+02  0.47000000000E+01 0.  1.
<mgrwt>
<rscale>  0 0.95011714E+02</rscale>
<asrwt>0</asrwt>
<pdfrwt beam="1">  1        1 0.15338909E-01 0.95054123E+02</pdfrwt>
<pdfrwt beam="2">  1       -1 0.28455210E-01 0.95054123E+02</pdfrwt>
<totfact> 0.37990209E+03</totfact>
</mgrwt>
</event>
<event>
 8    1  0.8438969E-004  0.1346896E+03  0.7546771E-02  0.1223559E+00
         -2   -1    0    0    0  501 -0.00000000000E+00  0.00000000000E+00  0.52157845225E+02  0.52157845225E+02  0.00000000000E+00 0.  1.
          2   -1    0    0  501    0  0.00000000000E+00 -0.00000000000E+00 -0.39655165486E+03  0.39655165486E+03  0.00000000000E+00 0. -1.
         23    2    1    2    0    0  0.78355563897E+02  0.65841826285E+02 -0.83018695239E+02  0.15821945757E+03  0.87558851708E+02 0.  0.
         23    2    1    2    0    0 -0.78355563897E+02 -0.65841826285E+02 -0.26137511440E+03  0.29049004252E+03  0.74784850690E+02 0.  0.
          5    1    3    3  502    0 -0.10767348971E+02  0.22263021368E+02 -0.45599101646E+02  0.52085948155E+02  0.47000000000E+01 0. -1.
         -5    1    4    4    0  503  0.49074800350E+01 -0.29054954561E+02 -0.32436179531E+02  0.44073455587E+02  0.47000000000E+01 0.  1.
          5    1    4    4  503    0 -0.83263043932E+02 -0.36786871724E+02 -0.22893893487E+03  0.24641658693E+03  0.47000000000E+01 0. -1.
         -5    1    3    3    0  502  0.89122912868E+02  0.43578804917E+02 -0.37419593592E+02  0.10613350941E+03  0.47000000000E+01 0.  1.
<mgrwt>
<rscale>  0 0.13266128E+03</rscale>
<asrwt>0</asrwt>
<pdfrwt beam="1">  1        2 0.61007947E-01 0.13468962E+03</pdfrwt>
<pdfrwt beam="2">  1       -2 0.80242838E-02 0.13468962E+03</pdfrwt>
<totfact> 0.72381372E+03</totfact>
</mgrwt>
</event>
<event>
 7    1  0.8438969E-004  0.1342938E+03  0.7546771E-02  0.1238324E+00
          1   -1    0    0  501    0  0.00000000000E+00  0.00000000000E+00  0.79412750304E+02  0.79412750304E+02  0.00000000000E+00 0. -1.
         -1   -1    0    0    0  501 -0.00000000000E+00 -0.00000000000E+00 -0.33315367816E+03  0.33315367816E+03  0.00000000000E+00 0.  1.
         23    2    1    2    0    0  0.14602967313E+02 -0.20404775346E+02  0.29727890567E+02  0.98895609666E+02  0.90923003813E+02 0.  0.
          5    1    1    2  502    0  0.64249058919E+01 -0.43545983072E+02 -0.20701267419E+03  0.21169286557E+03  0.47000000000E+01 0. -1.
         -5    1    3    3    0  503  0.26177144807E+02  0.71143028639E+01 -0.24474759981E+02  0.36836939227E+02  0.47000000000E+01 0.  1.
          5    1    3    3  503    0 -0.11574177495E+02 -0.27519078210E+02  0.54202650548E+02  0.62058670438E+02  0.47000000000E+01 0. -1.
         -5    1    1    2    0  502 -0.21027873204E+02  0.63950758418E+02 -0.76456144232E+02  0.10197795323E+03  0.47000000000E+01 0.  1.
<mgrwt>
<rscale>  0 0.12294046E+03</rscale>
<asrwt>0</asrwt>
<pdfrwt beam="1">  1        1 0.12217346E-01 0.13429375E+03</pdfrwt>
<pdfrwt beam="2">  1       -1 0.51254412E-01 0.13429375E+03</pdfrwt>
<totfact> 0.18709287E+03</totfact>
</mgrwt>
</event>
<event>
 8    1  0.8438969E-004  0.1121580E+03  0.7546771E-02  0.1264881E+00
         -1   -1    0    0    0  501 -0.00000000000E+00  0.00000000000E+00  0.52300700845E+02  0.52300700845E+02  0.00000000000E+00 0.  1.
          1   -1    0    0  501    0  0.00000000000E+00 -0.00000000000E+00 -0.25761656775E+03  0.25761656775E+03  0.00000000000E+00 0. -1.
         23    2    1    2    0    0  0.20601273830E+02  0.16961761758E+02 -0.17855122964E+03  0.21085528752E+03  0.10893712327E+03 0.  0.
         23    2    1    2    0    0 -0.20601273830E+02 -0.16961761758E+02 -0.26764637263E+02  0.99061981069E+02  0.91568643324E+02 0.  0.
          5    1    4    4  502    0  0.61140777266E+01 -0.21140007570E+02  0.29120114460E+02  0.36801534379E+02  0.47000000000E+01 0.  1.
         -5    1    3    3    0  503  0.34217952739E+02  0.57996877022E+02 -0.12299742158E+03  0.14030310670E+03  0.47000000000E+01 0.  1.
          5    1    3    3  503    0 -0.13616678910E+02 -0.41035115265E+02 -0.55553808063E+02  0.70552180828E+02  0.47000000000E+01 0. -1.
         -5    1    4    4    0  502 -0.26715351556E+02  0.41782458125E+01 -0.55884751723E+02  0.62260446690E+02  0.47000000000E+01 0. -1.
<mgrwt>
<rscale>  0 0.10770465E+03</rscale>
<asrwt>0</asrwt>
<pdfrwt beam="1">  1        1 0.39633318E-01 0.11215797E+03</pdfrwt>
<pdfrwt beam="2">  1       -1 0.80462617E-02 0.11215797E+03</pdfrwt>
<totfact> 0.84718453E+03</totfact>
</mgrwt>
</event>
<event>
 8    1  0.8438969E-004  0.9564315E+02  0.7546771E-02  0.1290878E+00
          2   -1    0    0  501    0  0.00000000000E+00  0.00000000000E+00  0.23303597933E+03  0.23303597933E+03  0.00000000000E+00 0. -1.
         -2   -1    0    0    0  501 -0.00000000000E+00 -0.00000000000E+00 -0.42825726219E+02  0.42825726219E+02  0.00000000000E+00 0.  1.
         23    2    1    2    0    0 -0.67355811501E+01 -0.12358092032E+02  0.49988033045E+02  0.10612696107E+03  0.92552892592E+02 0.  0.
         23    2    1    2    0    0  0.67355811501E+01  0.12358092032E+02  0.14022222006E+03  0.16973474447E+03  0.94601913243E+02 0.  0.
          5    1    3    3  502    0  0.11057344947E+02  0.24436011517E+02 -0.13564008195E+02  0.30421305930E+02  0.47000000000E+01 0. -1.
         -5    1    3    3    0  502 -0.17792926097E+02 -0.36794103549E+02  0.63552041240E+02  0.75705655145E+02  0.47000000000E+01 0.  1.
          5    1    4    4  503    0 -0.15958649620E+02  0.49064153815E+02  0.68279214630E+02  0.85709455941E+02  0.47000000000E+01 0. -1.
         -5    1    4    4    0  503  0.22694230770E+02 -0.36706061783E+02  0.71943005432E+02  0.84025288530E+02  0.47000000000E+01 0.  1.
<mgrwt>
<rscale>  0 0.95132520E+02</rscale>
<asrwt>0</asrwt>
<pdfrwt beam="1">  1        2 0.35851688E-01 0.95643152E+02</pdfrwt>
<pdfrwt beam="2">  1       -2 0.65885734E-02 0.95643152E+02</pdfrwt>
<totfact> 0.16675006E+04</totfact>
</mgrwt>
</event>
<event>
 8    1  0.8438969E-004  0.9154526E+02  0.7546771E-02  0.1303623E+00
          1   -1    0    0  501    0  0.00000000000E+00  0.00000000000E+00  0.50617912103E+03  0.50617912103E+03  0.00000000000E+00 0. -1.
         -1   -1    0    0    0  501 -0.00000000000E+00 -0.00000000000E+00 -0.24137383108E+02  0.24137383108E+02  0.00000000000E+00 0.  1.
         23    2    1    2    0    0  0.53309809157E+01 -0.82849880414E+01  0.74170485815E+02  0.11229797325E+03  0.83740751403E+02 0.  0.
         23    2    1    2    0    0 -0.53309809157E+01  0.82849880414E+01  0.40787125210E+03  0.41801853088E+03  0.91013589569E+02 0.  0.
          5    1    4    4  502    0  0.19374859598E+02  0.35570761266E+02  0.32064148460E+03  0.32322394078E+03  0.47000000000E+01 0. -1.
         -5    1    3    3    0  503  0.75289604792E+01 -0.45096263002E+02  0.31578722761E+02  0.55764360607E+02  0.47000000000E+01 0.  1.
          5    1    3    3  503    0 -0.21979795636E+01  0.36811274961E+02  0.42591763053E+02  0.56533612642E+02  0.47000000000E+01 0. -1.
         -5    1    4    4    0  502 -0.24705840513E+02 -0.27285773225E+02  0.87229767498E+02  0.94794590108E+02  0.47000000000E+01 0.  1.
<mgrwt>
<rscale>  0 0.89682422E+02</rscale>
<asrwt>0</asrwt>
<pdfrwt beam="1">  1        1 0.77873703E-01 0.91545256E+02</pdfrwt>
<pdfrwt beam="2">  1       -1 0.37134439E-02 0.91545256E+02</pdfrwt>
<totfact> 0.11240782E+04</totfact>
</mgrwt>
</event>
<event>
 8    1  0.8438969E-004  0.1285658E+03  0.7546771E-02  0.1235205E+00
          1   -1    0    0  501    0  0.00000000000E+00  0.00000000000E+00  0.31769750358E+03  0.31769750358E+03  0.00000000000E+00 0. -1.
         -1   -1    0    0    0  501 -0.00000000000E+00 -0.00000000000E+00 -0.11800283505E+03  0.11800283505E+03  0.00000000000E+00 0.  1.
         23    2    1    2    0    0 -0.16720042105E+02 -0.66673850376E+02 -0.71868018941E+02  0.13524157255E+03  0.91653197800E+02 0.  0.
         23    2    1    2    0    0  0.16720042105E+02  0.66673850376E+02  0.27156268747E+03  0.30045876608E+03  0.10864720319E+03 0.  0.
          5    1    3    3  502    0  0.19186900934E+02 -0.40552237818E+02  0.59747654690E+01  0.45501747021E+02  0.47000000000E+01 0. -1.
         -5    1    4    4    0  503 -0.34482279536E+02  0.45002066684E+02  0.64469823210E+02  0.85980589162E+02  0.47000000000E+01 0.  1.
          5    1    4    4  503    0  0.51202321642E+02  0.21671783692E+02  0.20709286426E+03  0.21447817692E+03  0.47000000000E+01 0. -1.
         -5    1    3    3    0  502 -0.35906943039E+02 -0.26121612558E+02 -0.77842784410E+02  0.89739825528E+02  0.47000000000E+01 0.  1.
<mgrwt>
<rscale>  0 0.12491303E+03</rscale>
<asrwt>0</asrwt>
<pdfrwt beam="1">  1        1 0.48876539E-01 0.12856585E+03</pdfrwt>
<pdfrwt beam="2">  1       -1 0.18154282E-01 0.12856585E+03</pdfrwt>
<totfact> 0.18817470E+03</totfact>
</mgrwt>
</event>
<event>
 8    1  0.8438969E-004  0.1386255E+03  0.7546771E-02  0.1215354E+00
         -2   -1    0    0    0  501 -0.00000000000E+00  0.00000000000E+00  0.48640630050E+03  0.48640630050E+03  0.00000000000E+00 0. -1.
          2   -1    0    0  501    0  0.00000000000E+00 -0.00000000000E+00 -0.50039220760E+02  0.50039220760E+02  0.00000000000E+00 0.  1.
         23    2    1    2    0    0 -0.10134667210E+03  0.13881490370E+02  0.94046490329E+02  0.16712124228E+03  0.92848928672E+02 0.  0.
         23    2    1    2    0    0  0.10134667210E+03 -0.13881490370E+02  0.34232058941E+03  0.36932427898E+03  0.93558502508E+02 0.  0.
          5    1    4    4  502    0  0.10905044765E+03  0.12686455995E+02  0.25694756607E+03  0.27945856224E+03  0.47000000000E+01 0. -1.
         -5    1    4    4    0  502 -0.77037755523E+01 -0.26567946364E+02  0.85373023341E+02  0.89865716746E+02  0.47000000000E+01 0.  1.
          5    1    3    3  503    0 -0.53383024249E+02 -0.36472643754E+02  0.26405410573E+02  0.69995262182E+02  0.47000000000E+01 0. -1.
         -5    1    3    3    0  503 -0.47963647853E+02  0.50354134123E+02  0.67641079756E+02  0.97125980094E+02  0.47000000000E+01 0.  1.
<mgrwt>
<rscale>  0 0.13850590E+03</rscale>
<asrwt>0</asrwt>
<pdfrwt beam="1">  1        2 0.76983420E-02 0.13862553E+03</pdfrwt>
<pdfrwt beam="2">  1       -2 0.74831735E-01 0.13862553E+03</pdfrwt>
<totfact> 0.14300237E+03</totfact>
</mgrwt>
</event>
<event>
 8    1  0.8438969E-004  0.1203743E+03  0.7546771E-02  0.1243531E+00
          2   -1    0    0  501    0  0.00000000000E+00  0.00000000000E+00  0.81971325379E+03  0.81971325379E+03  0.00000000000E+00 0. -1.
         -2   -1    0    0    0  501 -0.00000000000E+00 -0.00000000000E+00 -0.24215190346E+02  0.24215190346E+02  0.00000000000E+00 0.  1.
         23    2    1    2    0    0  0.38399124817E+02  0.64086325573E+02  0.62009199128E+03  0.63119090972E+03  0.91139107690E+02 0.  0.
         23    2    1    2    0    0 -0.38399124817E+02 -0.64086325573E+02  0.17540607216E+03  0.21273753441E+03  0.94384418658E+02 0.  0.
          5    1    4    4  502    0  0.25818206349E+02 -0.42069597496E+02  0.96860896287E+02  0.10881430991E+03  0.47000000000E+01 0. -1.
         -5    1    4    4    0  502 -0.64217331166E+02 -0.22016728077E+02  0.78545175874E+02  0.10392322450E+03  0.47000000000E+01 0.  1.
          5    1    3    3  503    0  0.68200565888E+02  0.48969440032E+02  0.44621330034E+03  0.45406797139E+03  0.47000000000E+01 0. -1.
         -5    1    3    3    0  503 -0.29801441071E+02  0.15116885541E+02  0.17387869094E+03  0.17712293833E+03  0.47000000000E+01 0.  1.
<mgrwt>
<rscale>  0 0.11973740E+03</rscale>
<asrwt>0</asrwt>
<pdfrwt beam="1">  1        2 0.12610971E+00 0.12037428E+03</pdfrwt>
<pdfrwt beam="2">  1       -2 0.37254145E-02 0.12037428E+03</pdfrwt>
<totfact> 0.10027040E+04</totfact>
</mgrwt>
</event>
<event>
 8    1  0.8438969E-004  0.9957468E+02  0.7546771E-02  0.1282007E+00
          2   -1    0    0  501    0  0.00000000000E+00  0.00000000000E+00  0.52447018776E+03  0.52447018776E+03  0.00000000000E+00 0. -1.
         -2   -1    0    0    0  501 -0.00000000000E+00 -0.00000000000E+00 -0.20929748228E+02  0.20929748228E+02  0.00000000000E+00 0.  1.
         23    2    1    2    0    0 -0.89310765473E+00  0.41873140876E+02  0.34416026335E+03  0.35827559641E+03  0.90338023833E+02 0.  0.
         23    2    1    2    0    0  0.89310765473E+00 -0.41873140876E+02  0.15938017618E+03  0.18712433957E+03  0.88652807808E+02 0.  0.
          5    1    3    3  502    0 -0.19314110897E+02  0.55268345782E+02  0.31754507421E+03  0.32293124513E+03  0.47000000000E+01 0. -1.
         -5    1    4    4    0  503 -0.27545891043E+02 -0.22742988143E+02  0.14542299958E+03  0.14981975313E+03  0.47000000000E+01 0.  1.
          5    1    4    4  503    0  0.28438998698E+02 -0.19130152732E+02  0.13957176604E+02  0.37304586437E+02  0.47000000000E+01 0. -1.
         -5    1    3    3    0  502  0.18421003242E+02 -0.13395204907E+02  0.26615189138E+02  0.35344351285E+02  0.47000000000E+01 0.  1.
<mgrwt>
<rscale>  0 0.99190880E+02</rscale>
<asrwt>0</asrwt>
<pdfrwt beam="1">  1        2 0.80687711E-01 0.99574676E+02</pdfrwt>
<pdfrwt beam="2">  1       -2 0.32199617E-02 0.99574676E+02</pdfrwt>
<totfact> 0.20535806E+04</totfact>
</mgrwt>
</event>
<event>
 8    1  0.8438969E-004  0.1080365E+03  0.7546771E-02  0.1270064E+00
         -2   -1    0    0    0  501 -0.00000000000E+00  0.00000000000E+00  0.13245970387E+02  0.13245970387E+02  0.00000000000E+00 0.  1.
          2   -1    0    0  501    0  0.00000000000E+00 -0.00000000000E+00 -0.81886801219E+03  0.81886801219E+03  0.00000000000E+00 0. -1.
         23    2    1    2    0    0  0.27972923096E+02  0.66134580135E+01 -0.34612788232E+03  0.36259675201E+03  0.10414255326E+03 0.  0.
         23    2    1    2    0    0 -0.27972923096E+02 -0.66134580135E+01 -0.45949415948E+03  0.46951723056E+03  0.92115823519E+02 0.  0.
          5    1    3    3  502    0  0.18799422074E+01  0.48612900566E+02 -0.24621855706E+03  0.25102274026E+03  0.47000000000E+01 0. -1.
         -5    1    4    4    0  503  0.90828421292E+01 -0.36858594983E+02 -0.10443089998E+03  0.11121581235E+03  0.47000000000E+01 0.  1.
          5    1    4    4  503    0 -0.37055765225E+02  0.30245136969E+02 -0.35506325950E+03  0.35830141822E+03  0.47000000000E+01 0. -1.
         -5    1    3    3    0  502  0.26092980889E+02 -0.41999442553E+02 -0.99909325254E+02  0.11157401175E+03  0.47000000000E+01 0.  1.
<mgrwt>
<rscale>  0 0.10502815E+03</rscale>
<asrwt>0</asrwt>
<pdfrwt beam="1">  1        2 0.12597969E+00 0.10803654E+03</pdfrwt>
<pdfrwt beam="2">  1       -2 0.20378416E-02 0.10803654E+03</pdfrwt>
<totfact> 0.24018337E+04</totfact>
</mgrwt>
</event>
<event>
 8    1  0.8438969E-004  0.1045491E+03  0.7546771E-02  0.1272138E+00
          1   -1    0    0  501    0  0.00000000000E+00  0.00000000000E+00  0.17169617635E+03  0.17169617635E+03  0.00000000000E+00 0. -1.
         -1   -1    0    0    0  501 -0.00000000000E+00 -0.00000000000E+00 -0.69317319551E+02  0.69317319551E+02  0.00000000000E+00 0.  1.
         23    2    1    2    0    0  0.21219689137E+02  0.42565897892E+02  0.89029572149E+02  0.13561557655E+03  0.90571458057E+02 0.  0.
         23    2    1    2    0    0 -0.21219689137E+02 -0.42565897892E+02  0.13349284646E+02  0.10539791935E+03  0.93104173551E+02 0.  0.
          5    1    3    3  502    0  0.50135081925E+02  0.49104005630E+02  0.49611532526E+02  0.86070459323E+02  0.47000000000E+01 0. -1.
         -5    1    3    3    0  502 -0.28915392789E+02 -0.65381077380E+01  0.39418039624E+02  0.49545117224E+02  0.47000000000E+01 0.  1.
          5    1    4    4  503    0  0.31358725677E+02 -0.46755879877E+01 -0.13900811765E+02  0.34936418918E+02  0.47000000000E+01 0. -1.
         -5    1    4    4    0  503 -0.52578414813E+02 -0.37890309904E+02  0.27250096410E+02  0.70461500433E+02  0.47000000000E+01 0.  1.
<mgrwt>
<rscale>  0 0.10398228E+03</rscale>
<asrwt>0</asrwt>
<pdfrwt beam="1">  1        1 0.26414796E-01 0.10454912E+03</pdfrwt>
<pdfrwt beam="2">  1       -1 0.10664203E-01 0.10454912E+03</pdfrwt>
<totfact> 0.90765733E+03</totfact>
</mgrwt>
</event>
<event>
 8    1  0.8438969E-004  0.9536983E+02  0.7546771E-02  0.1290384E+00
          2   -1    0    0  501    0  0.00000000000E+00  0.00000000000E+00  0.76969281575E+02  0.76969281575E+02  0.00000000000E+00 0. -1.
         -2   -1    0    0    0  501 -0.00000000000E+00 -0.00000000000E+00 -0.15239973378E+03  0.15239973378E+03  0.00000000000E+00 0.  1.
         23    2    1    2    0    0 -0.27714092424E+02  0.92486803690E+01 -0.92125462615E+02  0.13254893323E+03  0.90711133990E+02 0.  0.
         23    2    1    2    0    0  0.27714092424E+02 -0.92486803690E+01  0.16695010408E+02  0.96820082131E+02  0.90784337437E+02 0.  0.
          5    1    3    3  502    0  0.12415537946E+02  0.20417138244E+02  0.66511732869E+01  0.25245459446E+02  0.47000000000E+01 0. -1.
         -5    1    4    4    0  503 -0.60241050095E+01  0.24708550090E+02 -0.22881884628E+02  0.34532201390E+02  0.47000000000E+01 0.  1.
          5    1    4    4  503    0  0.33738197433E+02 -0.33957230459E+02  0.39576895037E+02  0.62287880741E+02  0.47000000000E+01 0. -1.
         -5    1    3    3    0  502 -0.40129630370E+02 -0.11168457875E+02 -0.98776635902E+02  0.10730347378E+03  0.47000000000E+01 0.  1.
<mgrwt>
<rscale>  0 0.95352407E+02</rscale>
<asrwt>0</asrwt>
<pdfrwt beam="1">  1        2 0.11841428E-01 0.95369832E+02</pdfrwt>
<pdfrwt beam="2">  1       -2 0.23446113E-01 0.95369832E+02</pdfrwt>
<totfact> 0.75781982E+03</totfact>
</mgrwt>
</event>
<event>
 8    1  0.8438969E-004  0.2344879E+03  0.7546771E-02  0.1123649E+00
         -1   -1    0    0    0  501 -0.00000000000E+00  0.00000000000E+00  0.17721394922E+03  0.17721394922E+03  0.00000000000E+00 0.  1.
          1   -1    0    0  501    0  0.00000000000E+00 -0.00000000000E+00 -0.55396710479E+03  0.55396710479E+03  0.00000000000E+00 0. -1.
         23    2    1    2    0    0  0.99070115221E+02  0.19136826112E+03  0.54427287438E+02  0.24072162990E+03  0.92454715340E+02 0.  0.
         23    2    1    2    0    0 -0.99070115221E+02 -0.19136826112E+03 -0.43118044300E+03  0.49045942411E+03  0.90538241511E+02 0.  0.
          5    1    3    3  502    0  0.47793344768E+02  0.18171656876E+02 -0.21213143048E+01  0.51390688768E+02  0.47000000000E+01 0. -1.
         -5    1    3    3    0  502  0.51276770453E+02  0.17319660424E+03  0.56548601743E+02  0.18933094113E+03  0.47000000000E+01 0.  1.
          5    1    4    4  503    0 -0.11476059599E+03 -0.15294156723E+03 -0.36764003378E+03  0.41441814851E+03  0.47000000000E+01 0. -1.
         -5    1    4    4    0  503  0.15690480771E+02 -0.38426693891E+02 -0.63540409228E+02  0.76041275601E+02  0.47000000000E+01 0.  1.
<mgrwt>
<rscale>  0 0.23430042E+03</rscale>
<asrwt>0</asrwt>
<pdfrwt beam="1">  1        1 0.85225708E-01 0.23448790E+03</pdfrwt>
<pdfrwt beam="2">  1       -1 0.27263685E-01 0.23448790E+03</pdfrwt>
<totfact> 0.47644549E+02</totfact>
</mgrwt>
</event>
<event>
 8    1  0.8438969E-004  0.1019958E+03  0.7546771E-02  0.1276906E+00
         -3   -1    0    0    0  501 -0.00000000000E+00  0.00000000000E+00  0.24050804902E+03  0.24050804902E+03  0.00000000000E+00 0.  1.
          3   -1    0    0  501    0  0.00000000000E+00 -0.00000000000E+00 -0.48693523612E+02  0.48693523612E+02  0.00000000000E+00 0. -1.
         23    2    1    2    0    0 -0.15318012192E+02 -0.43774967984E+02  0.44314779551E+02  0.10987135647E+03  0.89202163467E+02 0.  0.
         23    2    1    2    0    0  0.15318012192E+02  0.43774967984E+02  0.14749974586E+03  0.17933021616E+03  0.90841962110E+02 0.  0.
          5    1    3    3  502    0 -0.16143095744E+02 -0.70885616668E+02  0.29379137592E+02  0.78553127985E+02  0.47000000000E+01 0. -1.
         -5    1    3    3    0  502  0.82508355255E+00  0.27110648684E+02  0.14935641959E+02  0.31318228489E+02  0.47000000000E+01 0.  1.
          5    1    4    4  503    0 -0.26248359843E+02  0.51092780485E+02  0.10153167705E+03  0.11674853343E+03  0.47000000000E+01 0. -1.
         -5    1    4    4    0  503  0.41566372035E+02 -0.73178125011E+01  0.45968068804E+02  0.62581682732E+02  0.47000000000E+01 0.  1.
<mgrwt>
<rscale>  0 0.10162944E+03</rscale>
<asrwt>0</asrwt>
<pdfrwt beam="1">  1        3 0.74913115E-02 0.10199584E+03</pdfrwt>
<pdfrwt beam="2">  1       -3 0.37001238E-01 0.10199584E+03</pdfrwt>
<totfact> 0.18665440E+03</totfact>
</mgrwt>
</event>
<event>
 8    1  0.8438969E-004  0.8238144E+02  0.7546771E-02  0.1323829E+00
         -2   -1    0    0    0  501 -0.00000000000E+00  0.00000000000E+00  0.30069654858E+03  0.30069654858E+03  0.00000000000E+00 0.  1.
          2   -1    0    0  501    0  0.00000000000E+00 -0.00000000000E+00 -0.22373298892E+02  0.22373298892E+02  0.00000000000E+00 0. -1.
         23    2    1    2    0    0 -0.54341359254E+01 -0.25817349618E+02  0.16124471806E+03  0.18107059755E+03  0.78042532112E+02 0.  0.
         23    2    1    2    0    0  0.54341359254E+01  0.25817349618E+02  0.11707853163E+03  0.14199924993E+03  0.75896897413E+02 0.  0.
          5    1    3    3  502    0  0.15226833125E+02  0.15003421595E+02  0.12129106413E+02  0.25023275744E+02  0.47000000000E+01 0. -1.
         -5    1    3    3    0  502 -0.20660969050E+02 -0.40820771213E+02  0.14911561165E+03  0.15604732180E+03  0.47000000000E+01 0.  1.
          5    1    4    4  503    0  0.35433647502E+02 -0.61257418120E+01  0.51545629358E+02  0.63024677659E+02  0.47000000000E+01 0. -1.
         -5    1    4    4    0  503 -0.29999511577E+02  0.31943091430E+02  0.65532902269E+02  0.78974572267E+02  0.47000000000E+01 0.  1.
<mgrwt>
<rscale>  0 0.81869264E+02</rscale>
<asrwt>0</asrwt>
<pdfrwt beam="1">  1        2 0.34420462E-02 0.82381443E+02</pdfrwt>
<pdfrwt beam="2">  1       -2 0.46261005E-01 0.82381443E+02</pdfrwt>
<totfact> 0.10333643E+04</totfact>
</mgrwt>
</event>
<event>
 8    1  0.8438969E-004  0.1160989E+03  0.7546771E-02  0.1250276E+00
         -4   -1    0    0    0  501 -0.00000000000E+00  0.00000000000E+00  0.14514227774E+03  0.14514227774E+03  0.00000000000E+00 0.  1.
          4   -1    0    0  501    0  0.00000000000E+00 -0.00000000000E+00 -0.93826588469E+02  0.93826588469E+02  0.00000000000E+00 0. -1.
         23    2    1    2    0    0 -0.69459848601E+02  0.99490280745E+01  0.43530609486E+02  0.12399141709E+03  0.92494885384E+02 0.  0.
         23    2    1    2    0    0  0.69459848601E+02 -0.99490280745E+01  0.77850797815E+01  0.11497744912E+03  0.90749945514E+02 0.  0.
          5    1    4    4  502    0  0.44191347858E+02 -0.45288243627E+02 -0.15706736157E+02  0.65365830500E+02  0.47000000000E+01 0. -1.
         -5    1    4    4    0  502  0.25268500744E+02  0.35339215552E+02  0.23491815938E+02  0.49611618617E+02  0.47000000000E+01 0.  1.
          5    1    3    3  503    0  0.20105831616E+02  0.12108723352E+02 -0.74050173141E+00  0.23947943314E+02  0.47000000000E+01 0. -1.
         -5    1    3    3    0  503 -0.89565680217E+02 -0.21596952771E+01  0.44271111217E+02  0.10004347377E+03  0.47000000000E+01 0.  1.
<mgrwt>
<rscale>  0 0.11575102E+03</rscale>
<asrwt>0</asrwt>
<pdfrwt beam="1">  1        4 0.14434860E-01 0.11609891E+03</pdfrwt>
<pdfrwt beam="2">  1       -4 0.22329581E-01 0.11609891E+03</pdfrwt>
<totfact> 0.11851793E+03</totfact>
</mgrwt>
</event>
<event>
 8    1  0.8438969E-004  0.1684601E+03  0.7546771E-02  0.1179525E+00
         -2   -1    0    0    0  501 -0.00000000000E+00  0.00000000000E+00  0.32573584173E+02  0.32573584173E+02  0.00000000000E+00 0.  1.
          2   -1    0    0  501    0  0.00000000000E+00 -0.00000000000E+00 -0.15631688312E+04  0.15631688312E+04  0.00000000000E+00 0. -1.
         23    2    1    2    0    0  0.13450718339E+03  0.46134858705E+02 -0.23369678321E+03  0.28794869269E+03  0.89886904334E+02 0.  0.
         23    2    1    2    0    0 -0.13450718339E+03 -0.46134858705E+02 -0.12968984639E+04  0.13077937227E+04  0.90322688453E+02 0.  0.
          5    1    4    4  502    0 -0.12279856970E+03 -0.18393907196E+02 -0.11948028587E+04  0.12012467630E+04  0.47000000000E+01 0. -1.
         -5    1    3    3    0  503  0.78137375378E+02 -0.20133673319E+02 -0.10428348196E+03  0.13193918615E+03  0.47000000000E+01 0.  1.
          5    1    3    3  503    0  0.56369808014E+02  0.66268532024E+02 -0.12941330125E+03  0.15600950654E+03  0.47000000000E+01 0. -1.
         -5    1    4    4    0  502 -0.11708613696E+02 -0.27740951508E+02 -0.10209560517E+03  0.10654695969E+03  0.47000000000E+01 0.  1.
<mgrwt>
<rscale>  0 0.16840173E+03</rscale>
<asrwt>0</asrwt>
<pdfrwt beam="1">  1        2 0.24048747E+00 0.16846007E+03</pdfrwt>
<pdfrwt beam="2">  1       -2 0.50113216E-02 0.16846007E+03</pdfrwt>
<totfact> 0.24637630E+03</totfact>
</mgrwt>
</event>
<event>
 8    1  0.8438969E-004  0.1234199E+03  0.7546771E-02  0.1237885E+00
          4   -1    0    0  501    0  0.00000000000E+00  0.00000000000E+00  0.29201081753E+03  0.29201081753E+03  0.00000000000E+00 0. -1.
         -4   -1    0    0    0  501 -0.00000000000E+00 -0.00000000000E+00 -0.59359459550E+02  0.59359459550E+02  0.00000000000E+00 0.  1.
         23    2    1    2    0    0 -0.81356811267E+02 -0.47609106929E+01  0.17860291366E+03  0.21663457181E+03  0.91596615255E+02 0.  0.
         23    2    1    2    0    0  0.81356811267E+02  0.47609106929E+01  0.54048444323E+02  0.13473570527E+03  0.92686994399E+02 0.  0.
          5    1    4    4  502    0  0.76876191327E+02  0.40372314504E+02  0.42112698668E+02  0.96620090874E+02  0.47000000000E+01 0. -1.
         -5    1    3    3    0  503 -0.30713849177E+02 -0.38970681667E+02  0.12727731298E+03  0.13668818150E+03  0.47000000000E+01 0.  1.
          5    1    3    3  503    0 -0.50642962090E+02  0.34209770974E+02  0.51325600672E+02  0.79946390311E+02  0.47000000000E+01 0. -1.
         -5    1    4    4    0  502  0.44806199405E+01 -0.35611403811E+02  0.11935745655E+02  0.38115614396E+02  0.47000000000E+01 0.  1.
<mgrwt>
<rscale>  0 0.12321522E+03</rscale>
<asrwt>0</asrwt>
<pdfrwt beam="1">  1        4 0.44924740E-01 0.12341992E+03</pdfrwt>
<pdfrwt beam="2">  1       -4 0.91322247E-02 0.12341992E+03</pdfrwt>
<totfact> 0.69245735E+02</totfact>
</mgrwt>
</event>
<event>
 8    1  0.8438969E-004  0.9392991E+02  0.7546771E-02  0.1293746E+00
         -1   -1    0    0    0  501 -0.00000000000E+00  0.00000000000E+00  0.61932494255E+02  0.61932494255E+02  0.00000000000E+00 0.  1.
          1   -1    0    0  501    0  0.00000000000E+00 -0.00000000000E+00 -0.23061225099E+03  0.23061225099E+03  0.00000000000E+00 0. -1.
         23    2    1    2    0    0 -0.13914574272E+02 -0.12761099252E+02  0.62197471280E+01  0.94135615452E+02  0.92012867638E+02 0.  0.
         23    2    1    2    0    0  0.13914574272E+02  0.12761099252E+02 -0.17489950386E+03  0.19840912979E+03  0.91759932991E+02 0.  0.
          5    1    4    4  502    0  0.25069276005E+02  0.34219931151E+02 -0.16725272069E+03  0.17261238329E+03  0.47000000000E+01 0. -1.
         -5    1    4    4    0  502 -0.11154701732E+02 -0.21458831898E+02 -0.76467831725E+01  0.25796746502E+02  0.47000000000E+01 0.  1.
          5    1    3    3  503    0 -0.43909520358E+02  0.33959140389E+01 -0.22179167721E+02  0.49533662201E+02  0.47000000000E+01 0. -1.
         -5    1    3    3    0  503  0.29994946086E+02 -0.16157013291E+02  0.28398914849E+02  0.44601953251E+02  0.47000000000E+01 0.  1.
<mgrwt>
<rscale>  0 0.93867914E+02</rscale>
<asrwt>0</asrwt>
<pdfrwt beam="1">  1        1 0.35478808E-01 0.93929915E+02</pdfrwt>
<pdfrwt beam="2">  1       -1 0.95280759E-02 0.93929915E+02</pdfrwt>
<totfact> 0.74209947E+03</totfact>
</mgrwt>
</event>
<event>
 8    1  0.8438969E-004  0.9854423E+02  0.7546771E-02  0.1284047E+00
          2   -1    0    0  501    0  0.00000000000E+00  0.00000000000E+00  0.21761192278E+03  0.21761192278E+03  0.00000000000E+00 0. -1.
         -2   -1    0    0    0  501 -0.00000000000E+00 -0.00000000000E+00 -0.68182737449E+02  0.68182737449E+02  0.00000000000E+00 0.  1.
         23    2    1    2    0    0  0.79183414069E+01  0.31357718145E+02 -0.10557521201E+02  0.97893857923E+02  0.91791827236E+02 0.  0.
         23    2    1    2    0    0 -0.79183414069E+01 -0.31357718145E+02  0.15998670654E+03  0.18790080231E+03  0.93085759504E+02 0.  0.
          5    1    4    4  502    0 -0.39521557637E+02 -0.15114125654E+02  0.27574321265E+02  0.50723007655E+02  0.47000000000E+01 0. -1.
         -5    1    3    3    0  503  0.10035189660E+02  0.52604874955E+02 -0.35731688415E+02  0.64550921431E+02  0.47000000000E+01 0.  1.
          5    1    3    3  503    0 -0.21168482534E+01 -0.21247156810E+02  0.25174167214E+02  0.33342936493E+02  0.47000000000E+01 0. -1.
         -5    1    4    4    0  502  0.31603216231E+02 -0.16243592491E+02  0.13241238527E+03  0.13717779465E+03  0.47000000000E+01 0.  1.
<mgrwt>
<rscale>  0 0.98237467E+02</rscale>
<asrwt>0</asrwt>
<pdfrwt beam="1">  1        2 0.33478757E-01 0.98544230E+02</pdfrwt>
<pdfrwt beam="2">  1       -2 0.10489652E-01 0.98544230E+02</pdfrwt>
<totfact> 0.88006423E+03</totfact>
</mgrwt>
</event>
<event>
 8    1  0.8438969E-004  0.9179880E+02  0.7546771E-02  0.1299150E+00
          1   -1    0    0  501    0  0.00000000000E+00  0.00000000000E+00  0.20835661289E+03  0.20835661289E+03  0.00000000000E+00 0. -1.
         -1   -1    0    0    0  501 -0.00000000000E+00 -0.00000000000E+00 -0.43689743360E+02  0.43689743360E+02  0.00000000000E+00 0.  1.
         23    2    1    2    0    0  0.15496489362E+01 -0.46382544724E+01  0.11852584004E+03  0.14930388641E+03  0.90660691167E+02 0.  0.
         23    2    1    2    0    0 -0.15496489362E+01  0.46382544724E+01  0.46141029494E+02  0.10274246985E+03  0.91668455267E+02 0.  0.
          5    1    4    4  502    0 -0.19347367925E+02 -0.39226615717E+02  0.25865856798E+02  0.51031172573E+02  0.47000000000E+01 0. -1.
         -5    1    4    4    0  502  0.17797718989E+02  0.43864870189E+02  0.20275172695E+02  0.51711297274E+02  0.47000000000E+01 0.  1.
          5    1    3    3  503    0 -0.23907672068E+02 -0.37623334118E+02  0.83071664718E+02  0.94393238809E+02  0.47000000000E+01 0. -1.
         -5    1    3    3    0  503  0.25457321004E+02  0.32985079646E+02  0.35454175321E+02  0.54910647598E+02  0.47000000000E+01 0.  1.
<mgrwt>
<rscale>  0 0.91546184E+02</rscale>
<asrwt>0</asrwt>
<pdfrwt beam="1">  1        1 0.32054863E-01 0.91798804E+02</pdfrwt>
<pdfrwt beam="2">  1       -1 0.67214991E-02 0.91798804E+02</pdfrwt>
<totfact> 0.14121384E+04</totfact>
</mgrwt>
</event>
<event>
 8    1  0.8438969E-004  0.1005036E+03  0.7546771E-02  0.1279643E+00
          1   -1    0    0  501    0  0.00000000000E+00  0.00000000000E+00  0.16794765212E+03  0.16794765212E+03  0.00000000000E+00 0. -1.
         -1   -1    0    0    0  501 -0.00000000000E+00 -0.00000000000E+00 -0.66360715513E+02  0.66360715513E+02  0.00000000000E+00 0.  1.
         23    2    1    2    0    0  0.36742560165E+01  0.42459141831E+02  0.13811282533E+02  0.10144809220E+03  0.91020245016E+02 0.  0.
         23    2    1    2    0    0 -0.36742560165E+01 -0.42459141831E+02  0.87775654075E+02  0.13286027544E+03  0.90172104661E+02 0.  0.
          5    1    3    3  502    0 -0.19394258264E+02  0.20342968669E+02  0.47108885717E+02  0.55057340486E+02  0.47000000000E+01 0. -1.
         -5    1    3    3    0  502  0.23068514281E+02  0.22116173163E+02 -0.33297603184E+02  0.46390751710E+02  0.47000000000E+01 0.  1.
          5    1    4    4  503    0 -0.40113313452E+02 -0.15359819254E+02  0.73081662968E+02  0.84900067290E+02  0.47000000000E+01 0. -1.
         -5    1    4    4    0  503  0.36439057436E+02 -0.27099322578E+02  0.14693991106E+02  0.47960208148E+02  0.47000000000E+01 0.  1.
<mgrwt>
<rscale>  0 0.10031113E+03</rscale>
<asrwt>0</asrwt>
<pdfrwt beam="1">  1        1 0.25838100E-01 0.10050355E+03</pdfrwt>
<pdfrwt beam="2">  1       -1 0.10209341E-01 0.10050355E+03</pdfrwt>
<totfact> 0.99332335E+03</totfact>
</mgrwt>
</event>
<event>
 8    1  0.8438969E-004  0.1288658E+03  0.7546771E-02  0.1234402E+00
         -1   -1    0    0    0  501 -0.00000000000E+00  0.00000000000E+00  0.66014402789E+03  0.66014402789E+03  0.00000000000E+00 0.  1.
          1   -1    0    0  501    0  0.00000000000E+00 -0.00000000000E+00 -0.28361193049E+02  0.28361193049E+02  0.00000000000E+00 0. -1.
         23    2    1    2    0    0 -0.77499801916E+02  0.11755869853E+02  0.48391771972E+03  0.50078213583E+03  0.10228376376E+03 0.  0.
         23    2    1    2    0    0  0.77499801916E+02 -0.11755869853E+02  0.14786511512E+03  0.18772308511E+03  0.85037901210E+02 0.  0.
          5    1    3    3  502    0 -0.56716631940E+00 -0.34688446250E+02  0.19689893735E+03  0.19998722837E+03  0.47000000000E+01 0. -1.
         -5    1    3    3    0  502 -0.76932635596E+02  0.46444316104E+02  0.28701878237E+03  0.30079490746E+03  0.47000000000E+01 0.  1.
          5    1    4    4  503    0  0.57315255311E+02 -0.22113085631E+01  0.24980062572E+02  0.62737723126E+02  0.47000000000E+01 0. -1.
         -5    1    4    4    0  503  0.20184546605E+02 -0.95445612903E+01  0.12288505254E+03  0.12498536199E+03  0.47000000000E+01 0.  1.
<mgrwt>
<rscale>  0 0.12542769E+03</rscale>
<asrwt>0</asrwt>
<pdfrwt beam="1">  1        1 0.43632610E-02 0.12886578E+03</pdfrwt>
<pdfrwt beam="2">  1       -1 0.10156061E+00 0.12886578E+03</pdfrwt>
<totfact> 0.18998564E+03</totfact>
</mgrwt>
</event>
<event>
 8    1  0.8438969E-004  0.2654046E+03  0.7546771E-02  0.1103982E+00
         -1   -1    0    0    0  501 -0.00000000000E+00  0.00000000000E+00  0.46934953370E+02  0.46934953370E+02  0.00000000000E+00 0.  1.
          1   -1    0    0  501    0  0.00000000000E+00 -0.00000000000E+00 -0.15256253992E+04  0.15256253992E+04  0.00000000000E+00 0. -1.
         23    2    1    2    0    0  0.24874076653E+03  0.93674693971E+01 -0.84259925766E+03  0.88332049659E+03  0.91224296472E+02 0.  0.
         23    2    1    2    0    0 -0.24874076653E+03 -0.93674693971E+01 -0.63609118816E+03  0.68923985597E+03  0.92086160702E+02 0.  0.
          5    1    4    4  502    0 -0.68020856846E+02  0.10109242235E+02 -0.29240562596E+03  0.30041999574E+03  0.47000000000E+01 0. -1.
         -5    1    3    3    0  503  0.18279752156E+03  0.44733131029E+02 -0.55254909705E+03  0.58373673994E+03  0.47000000000E+01 0.  1.
          5    1    3    3  503    0  0.65943244964E+02 -0.35365661632E+02 -0.29005016061E+03  0.29958375665E+03  0.47000000000E+01 0. -1.
         -5    1    4    4    0  502 -0.18071990968E+03 -0.19476711632E+02 -0.34368556220E+03  0.38881986024E+03  0.47000000000E+01 0.  1.
<mgrwt>
<rscale>  0 0.26533008E+03</rscale>
<asrwt>0</asrwt>
<pdfrwt beam="1">  1        1 0.23471161E+00 0.26540456E+03</pdfrwt>
<pdfrwt beam="2">  1       -1 0.72207618E-02 0.26540456E+03</pdfrwt>
<totfact> 0.69453417E+02</totfact>
</mgrwt>
</event>
<event>
 8    1  0.8438969E-004  0.1053688E+03  0.7546771E-02  0.1270465E+00
         -1   -1    0    0    0  501 -0.00000000000E+00  0.00000000000E+00  0.32041906297E+02  0.32041906297E+02  0.00000000000E+00 0.  1.
          1   -1    0    0  501    0  0.00000000000E+00 -0.00000000000E+00 -0.34000957380E+03  0.34000957380E+03  0.00000000000E+00 0. -1.
         23    2    1    2    0    0 -0.25621015509E+02  0.43346059975E+02 -0.16001202597E+03  0.19041045463E+03  0.90094258575E+02 0.  0.
         23    2    1    2    0    0  0.25621015509E+02 -0.43346059975E+02 -0.14795564153E+03  0.18164102546E+03  0.92559564164E+02 0.  0.
          5    1    4    4  502    0 -0.30562555998E+02 -0.33541309997E+02 -0.46389772057E+02  0.65062971473E+02  0.47000000000E+01 0. -1.
         -5    1    3    3    0  503  0.16210505130E+02  0.56357823684E+02 -0.98825345634E+02  0.11501097211E+03  0.47000000000E+01 0.  1.
          5    1    3    3  503    0 -0.41831520640E+02 -0.13011763709E+02 -0.61186680331E+02  0.75399482517E+02  0.47000000000E+01 0. -1.
         -5    1    4    4    0  502  0.56183571507E+02 -0.98047499787E+01 -0.10156586948E+03  0.11657805399E+03  0.47000000000E+01 0.  1.
<mgrwt>
<rscale>  0 0.10482491E+03</rscale>
<asrwt>0</asrwt>
<pdfrwt beam="1">  1        1 0.52309169E-01 0.10536883E+03</pdfrwt>
<pdfrwt beam="2">  1       -1 0.49295237E-02 0.10536883E+03</pdfrwt>
<totfact> 0.12399690E+04</totfact>
</mgrwt>
</event>
<event>
 8    1  0.8438969E-004  0.9712869E+02  0.7546771E-02  0.1287109E+00
         -2   -1    0    0    0  501 -0.00000000000E+00  0.00000000000E+00  0.31732020307E+03  0.31732020307E+03  0.00000000000E+00 0. -1.
          2   -1    0    0  501    0  0.00000000000E+00 -0.00000000000E+00 -0.74549007640E+02  0.74549007640E+02  0.00000000000E+00 0.  1.
         23    2    1    2    0    0 -0.25738501123E+02  0.11639898878E+02 -0.31446551671E+02  0.10095796008E+03  0.91682421462E+02 0.  0.
         23    2    1    2    0    0  0.25738501123E+02 -0.11639898878E+02  0.27421774710E+03  0.29091125064E+03  0.92930217008E+02 0.  0.
          5    1    4    4  502    0 -0.32859129849E+02  0.14275239241E+00  0.61264706595E+02  0.69679244160E+02  0.47000000000E+01 0.  1.
         -5    1    4    4    0  502  0.58597630971E+02 -0.11782651271E+02  0.21295304051E+03  0.22123200647E+03  0.47000000000E+01 0. -1.
          5    1    3    3  503    0  0.13209317973E+02 -0.25556943738E+02  0.12077934192E+02  0.31553287450E+02  0.47000000000E+01 0. -1.
         -5    1    3    3    0  503 -0.38947819096E+02  0.37196842616E+02 -0.43524485863E+02  0.69404672628E+02  0.47000000000E+01 0.  1.
<mgrwt>
<rscale>  0 0.96829015E+02</rscale>
<asrwt>0</asrwt>
<pdfrwt beam="1">  1        2 0.11469078E-01 0.97128693E+02</pdfrwt>
<pdfrwt beam="2">  1       -2 0.48818492E-01 0.97128693E+02</pdfrwt>
<totfact> 0.20654618E+03</totfact>
</mgrwt>
</event>
<event>
 8    1  0.1156761E-003  0.9456582E+02  0.7546771E-02  0.1293536E+00
         -3   -1    0    0    0  501 -0.00000000000E+00  0.00000000000E+00  0.29299649779E+03  0.29299649779E+03  0.00000000000E+00 0.  1.
          3   -1    0    0  501    0  0.00000000000E+00 -0.00000000000E+00 -0.79629233906E+02  0.79629233906E+02  0.00000000000E+00 0. -1.
         23    2    1    2    0    0  0.10808056022E+02 -0.19237170400E+02 -0.40254514703E+02  0.10277703837E+03  0.91955483050E+02 0.  0.
         23    2    1    2    0    0 -0.10808056022E+02  0.19237170400E+02  0.25362177859E+03  0.26984869332E+03  0.89484232769E+02 0.  0.
          5    1    3    3  502    0  0.43414777819E+02 -0.22880807129E+02  0.16765003239E+01  0.49328236552E+02  0.47000000000E+01 0. -1.
         -5    1    3    3    0  502 -0.32606721798E+02  0.36436367284E+01 -0.41931015027E+02  0.53448801822E+02  0.47000000000E+01 0.  1.
          5    1    4    4  503    0  0.32817410590E+02 -0.49489415995E+01  0.50304709401E+02  0.60449385843E+02  0.47000000000E+01 0. -1.
         -5    1    4    4    0  503 -0.43625466612E+02  0.24186112000E+02  0.20331706918E+03  0.20939930748E+03  0.47000000000E+01 0.  1.
<mgrwt>
<rscale>  0 0.93959706E+02</rscale>
<asrwt>0</asrwt>
<pdfrwt beam="1">  1        3 0.12250652E-01 0.94565817E+02</pdfrwt>
<pdfrwt beam="2">  1       -3 0.45076384E-01 0.94565817E+02</pdfrwt>
<totfact> 0.56399824E+02</totfact>
</mgrwt>
</event>
<event>
 8    1  0.2155302E-003  0.1084467E+03  0.7546771E-02  0.1265954E+00
         -1   -1    0    0    0  501 -0.00000000000E+00  0.00000000000E+00  0.65903731605E+03  0.65903731605E+03  0.00000000000E+00 0.  1.
          1   -1    0    0  501    0  0.00000000000E+00 -0.00000000000E+00 -0.58801724351E+02  0.58801724351E+02  0.00000000000E+00 0. -1.
         23    2    1    2    0    0  0.57563189184E+02 -0.14404439649E+02 -0.45325760812E+01  0.10342450140E+03  0.84587674122E+02 0.  0.
         23    2    1    2    0    0 -0.57563189184E+02  0.14404439649E+02  0.60476816778E+03  0.61441453900E+03  0.90772685017E+02 0.  0.
          5    1    4    4  502    0  0.20592376068E+02 -0.13013226327E+02  0.11228047050E+03  0.11498862582E+03  0.47000000000E+01 0. -1.
         -5    1    3    3    0  503 -0.14633221989E+02  0.15391201100E+02  0.98360346100E+01  0.23871695246E+02  0.47000000000E+01 0.  1.
          5    1    3    3  503    0  0.72196411173E+02 -0.29795640749E+02 -0.14368610691E+02  0.79552806155E+02  0.47000000000E+01 0. -1.
         -5    1    4    4    0  502 -0.78155565253E+02  0.27417665977E+02  0.49248769728E+03  0.49942591318E+03  0.47000000000E+01 0.  1.
<mgrwt>
<rscale>  0 0.10714299E+03</rscale>
<asrwt>0</asrwt>
<pdfrwt beam="1">  1        1 0.90464196E-02 0.10844671E+03</pdfrwt>
<pdfrwt beam="2">  1       -1 0.10139035E+00 0.10844671E+03</pdfrwt>
<totfact> 0.70883440E+02</totfact>
</mgrwt>
</event>
<event>
 8    1  0.8438969E-004  0.9669459E+02  0.7546771E-02  0.1288790E+00
         -1   -1    0    0    0  501 -0.00000000000E+00  0.00000000000E+00  0.15179650841E+03  0.15179650841E+03  0.00000000000E+00 0.  1.
          1   -1    0    0  501    0  0.00000000000E+00 -0.00000000000E+00 -0.25992857654E+03  0.25992857654E+03  0.00000000000E+00 0. -1.
         23    2    1    2    0    0 -0.21244969255E+02  0.15116800663E+02  0.12662864605E+03  0.15783054640E+03  0.90530663291E+02 0.  0.
         23    2    1    2    0    0  0.21244969255E+02 -0.15116800663E+02 -0.23476071419E+03  0.25389453854E+03  0.93112713385E+02 0.  0.
          5    1    3    3  502    0 -0.42370671083E+02 -0.73420863870E+01  0.21761480469E+02  0.48423465724E+02  0.47000000000E+01 0. -1.
         -5    1    4    4    0  503 -0.93581526167E+01 -0.27350081739E+02 -0.17539108213E+02  0.34136671021E+02  0.47000000000E+01 0.  1.
          5    1    4    4  503    0  0.30603121871E+02  0.12233281076E+02 -0.21722160598E+03  0.21975786752E+03  0.47000000000E+01 0. -1.
         -5    1    3    3    0  502  0.21125701828E+02  0.22458887050E+02  0.10486716558E+03  0.10940708068E+03  0.47000000000E+01 0.  1.
<mgrwt>
<rscale>  0 0.96067560E+02</rscale>
<asrwt>0</asrwt>
<pdfrwt beam="1">  1        1 0.39989011E-01 0.96694590E+02</pdfrwt>
<pdfrwt beam="2">  1       -1 0.23353309E-01 0.96694590E+02</pdfrwt>
<totfact> 0.15929992E+03</totfact>
</mgrwt>
</event>
<event>
 8    1  0.8438969E-004  0.1325471E+03  0.7546771E-02  0.1224384E+00
          1   -1    0    0  501    0  0.00000000000E+00  0.00000000000E+00  0.54599708436E+03  0.54599708436E+03  0.00000000000E+00 0. -1.
         -1   -1    0    0    0  501 -0.00000000000E+00 -0.00000000000E+00 -0.35635973189E+02  0.35635973189E+02  0.00000000000E+00 0.  1.
         23    2    1    2    0    0 -0.45571184300E+02 -0.85143842521E+02  0.35290425179E+03  0.37697498991E+03  0.90788354584E+02 0.  0.
         23    2    1    2    0    0  0.45571184300E+02  0.85143842521E+02  0.15745685938E+03  0.20465806764E+03  0.88125225251E+02 0.  0.
          5    1    4    4  502    0  0.57123116095E+01  0.20978782695E+02  0.11649701068E+03  0.11860178466E+03  0.47000000000E+01 0. -1.
         -5    1    4    4    0  502  0.39858872690E+02  0.64165059826E+02  0.40959848704E+02  0.86056282981E+02  0.47000000000E+01 0.  1.
          5    1    3    3  503    0 -0.47899110497E+02 -0.25658640736E+01  0.15925368850E+03  0.16638730644E+03  0.47000000000E+01 0. -1.
         -5    1    3    3    0  503  0.23279261972E+01 -0.82577978448E+02  0.19365056329E+03  0.21058768347E+03  0.47000000000E+01 0.  1.
<mgrwt>
<rscale>  0 0.13209233E+03</rscale>
<asrwt>0</asrwt>
<pdfrwt beam="1">  1        1 0.83999546E-01 0.13254709E+03</pdfrwt>
<pdfrwt beam="2">  1       -1 0.54824578E-02 0.13254709E+03</pdfrwt>
<totfact> 0.59012905E+03</totfact>
</mgrwt>
</event>
<event>
 8    1  0.8438969E-004  0.1476863E+03  0.7546771E-02  0.1203503E+00
         -1   -1    0    0    0  501 -0.00000000000E+00  0.00000000000E+00  0.25634290230E+02  0.25634290230E+02  0.00000000000E+00 0.  1.
          1   -1    0    0  501    0  0.00000000000E+00 -0.00000000000E+00 -0.88251798304E+03  0.88251798304E+03  0.00000000000E+00 0. -1.
         23    2    1    2    0    0  0.23289865873E+02  0.11350094117E+03 -0.51897591728E+03  0.53958062897E+03  0.91577131100E+02 0.  0.
         23    2    1    2    0    0 -0.23289865873E+02 -0.11350094117E+03 -0.33790777553E+03  0.36857164430E+03  0.90766242195E+02 0.  0.
          5    1    4    4  502    0  0.15381094276E+02 -0.10587291057E+03 -0.23400163924E+03  0.25734122955E+03  0.47000000000E+01 0. -1.
         -5    1    4    4    0  502 -0.38670960149E+02 -0.76280305960E+01 -0.10390613628E+03  0.11123041476E+03  0.47000000000E+01 0.  1.
          5    1    3    3  503    0 -0.50592871013E+01  0.10342746515E+03 -0.27815040739E+03  0.29683762576E+03  0.47000000000E+01 0. -1.
         -5    1    3    3    0  503  0.28349152974E+02  0.10073476017E+02 -0.24082550989E+03  0.24274300321E+03  0.47000000000E+01 0.  1.
<mgrwt>
<rscale>  0 0.14756081E+03</rscale>
<asrwt>0</asrwt>
<pdfrwt beam="1">  1        1 0.13577198E+00 0.14768633E+03</pdfrwt>
<pdfrwt beam="2">  1       -1 0.39437375E-02 0.14768633E+03</pdfrwt>
<totfact> 0.48420194E+03</totfact>
</mgrwt>
</event>
<event>
 8    1  0.8438969E-004  0.9210371E+02  0.7546771E-02  0.1301706E+00
         -1   -1    0    0    0  501 -0.00000000000E+00  0.00000000000E+00  0.19155417559E+03  0.19155417559E+03  0.00000000000E+00 0.  1.
          1   -1    0    0  501    0  0.00000000000E+00 -0.00000000000E+00 -0.13019121252E+03  0.13019121252E+03  0.00000000000E+00 0. -1.
         23    2    1    2    0    0 -0.88423194840E+00  0.16504487140E+02 -0.10188333134E+03  0.13734375661E+03  0.90608577475E+02 0.  0.
         23    2    1    2    0    0  0.88423194840E+00 -0.16504487140E+02  0.16324629441E+03  0.18440163151E+03  0.84151227571E+02 0.  0.
          5    1    4    4  502    0  0.26056770872E+02 -0.43237433188E+01  0.15125114732E+03  0.15361201005E+03  0.47000000000E+01 0. -1.
         -5    1    3    3    0  503  0.14427754139E+02 -0.27446154582E+02 -0.78673235789E+01  0.32333206941E+02  0.47000000000E+01 0.  1.
          5    1    3    3  503    0 -0.15311986088E+02  0.43950641722E+02 -0.94016007763E+02  0.10501054967E+03  0.47000000000E+01 0. -1.
         -5    1    4    4    0  502 -0.25172538923E+02 -0.12180743821E+02  0.11995147087E+02  0.30789621458E+02  0.47000000000E+01 0.  1.
<mgrwt>
<rscale>  0 0.90474837E+02</rscale>
<asrwt>0</asrwt>
<pdfrwt beam="1">  1        1 0.20029417E-01 0.92103715E+02</pdfrwt>
<pdfrwt beam="2">  1       -1 0.29469873E-01 0.92103715E+02</pdfrwt>
<totfact> 0.25516793E+03</totfact>
</mgrwt>
</event>
<event>
 8    1  0.8438969E-004  0.1181627E+03  0.7546771E-02  0.1249086E+00
          3   -1    0    0  501    0  0.00000000000E+00  0.00000000000E+00  0.40786200982E+02  0.40786200982E+02  0.00000000000E+00 0. -1.
         -3   -1    0    0    0  501 -0.00000000000E+00 -0.00000000000E+00 -0.39564192105E+03  0.39564192105E+03  0.00000000000E+00 0.  1.
         23    2    1    2    0    0  0.38941032494E+02 -0.50879342743E+02 -0.79767901124E+02  0.13703583693E+03  0.91163539985E+02 0.  0.
         23    2    1    2    0    0 -0.38941032494E+02  0.50879342743E+02 -0.27508781894E+03  0.29939228510E+03  0.99284040611E+02 0.  0.
          5    1    4    4  502    0  0.20812168204E+02 -0.66160094368E+00 -0.14936212303E+03  0.15087981263E+03  0.47000000000E+01 0. -1.
         -5    1    3    3    0  503 -0.26560033203E+02 -0.15866868897E+02 -0.52686260226E+01  0.31733914233E+02  0.47000000000E+01 0.  1.
          5    1    3    3  503    0  0.65501065697E+02 -0.35012473846E+02 -0.74499275101E+02  0.10530192269E+03  0.47000000000E+01 0. -1.
         -5    1    4    4    0  502 -0.59753200698E+02  0.51540943687E+02 -0.12572569591E+03  0.14851247248E+03  0.47000000000E+01 0.  1.
<mgrwt>
<rscale>  0 0.11644147E+03</rscale>
<asrwt>0</asrwt>
<pdfrwt beam="1">  1        3 0.62748000E-02 0.11816274E+03</pdfrwt>
<pdfrwt beam="2">  1       -3 0.60867989E-01 0.11816274E+03</pdfrwt>
<totfact> 0.95434587E+02</totfact>
</mgrwt>
</event>
<event>
 8    1  0.8438969E-004  0.1120075E+03  0.7546771E-02  0.1259466E+00
          4   -1    0    0  501    0  0.00000000000E+00  0.00000000000E+00  0.21565461651E+03  0.21565461651E+03  0.00000000000E+00 0. -1.
         -4   -1    0    0    0  501 -0.00000000000E+00 -0.00000000000E+00 -0.26065726397E+03  0.26065726397E+03  0.00000000000E+00 0.  1.
         23    2    1    2    0    0  0.37364594554E+02 -0.52324390158E+02 -0.23397742211E+03  0.25940531996E+03  0.91715490709E+02 0.  0.
         23    2    1    2    0    0 -0.37364594554E+02  0.52324390158E+02  0.18897477465E+03  0.21690656052E+03  0.84870700548E+02 0.  0.
          5    1    4    4  502    0 -0.19347854808E+02  0.35207995755E+02  0.18723621481E+03  0.19155529904E+03  0.47000000000E+01 0. -1.
         -5    1    4    4    0  502 -0.18016739746E+02  0.17116394403E+02  0.17385598323E+01  0.25351261482E+02  0.47000000000E+01 0.  1.
          5    1    3    3  503    0  0.34396019478E+02 -0.72766637945E+02 -0.21925184357E+03  0.23360550221E+03  0.47000000000E+01 0.  1.
         -5    1    3    3    0  503  0.29685750756E+01  0.20442247787E+02 -0.14725578532E+02  0.25799817745E+02  0.47000000000E+01 0. -1.
<mgrwt>
<rscale>  0 0.11059809E+03</rscale>
<asrwt>0</asrwt>
<pdfrwt beam="1">  1        4 0.33177634E-01 0.11200753E+03</pdfrwt>
<pdfrwt beam="2">  1       -4 0.40101117E-01 0.11200753E+03</pdfrwt>
<totfact> 0.86309043E+01</totfact>
</mgrwt>
</event>
<event>
 8    1  0.8438969E-004  0.1688832E+03  0.7546771E-02  0.1179085E+00
         -2   -1    0    0    0  501 -0.00000000000E+00  0.00000000000E+00  0.36526387293E+02  0.36526387293E+02  0.00000000000E+00 0.  1.
          2   -1    0    0  501    0  0.00000000000E+00 -0.00000000000E+00 -0.78036584886E+03  0.78036584886E+03  0.00000000000E+00 0. -1.
         23    2    1    2    0    0  0.10571602015E+03  0.94630984729E+02 -0.38390112047E+03  0.41930307200E+03  0.91126811101E+02 0.  0.
         23    2    1    2    0    0 -0.10571602015E+03 -0.94630984729E+02 -0.35993834109E+03  0.39758916415E+03  0.91600403253E+02 0.  0.
          5    1    3    3  502    0  0.59809926206E+02  0.17969389413E+02 -0.25372612967E+03  0.26134108959E+03  0.47000000000E+01 0. -1.
         -5    1    3    3    0  502  0.45906093941E+02  0.76661595316E+02 -0.13017499080E+03  0.15796198241E+03  0.47000000000E+01 0.  1.
          5    1    4    4  503    0 -0.11083017878E+03 -0.67194166802E+02 -0.33720858731E+03  0.36128950433E+03  0.47000000000E+01 0. -1.
         -5    1    4    4    0  503  0.51141586330E+01 -0.27436817927E+02 -0.22729753784E+02  0.36299659827E+02  0.47000000000E+01 0.  1.
<mgrwt>
<rscale>  0 0.16881906E+03</rscale>
<asrwt>0</asrwt>
<pdfrwt beam="1">  1        2 0.12005627E+00 0.16888320E+03</pdfrwt>
<pdfrwt beam="2">  1       -2 0.56194447E-02 0.16888320E+03</pdfrwt>
<totfact> 0.58651913E+03</totfact>
</mgrwt>
</event>
<event>
 8    1  0.8438969E-004  0.1367987E+03  0.7546771E-02  0.1226735E+00
          1   -1    0    0  501    0  0.00000000000E+00  0.00000000000E+00  0.70113392388E+02  0.70113392388E+02  0.00000000000E+00 0. -1.
         -1   -1    0    0    0  501 -0.00000000000E+00 -0.00000000000E+00 -0.24239673341E+03  0.24239673341E+03  0.00000000000E+00 0.  1.
         23    2    1    2    0    0  0.65096643206E+02 -0.27466628107E+02 -0.13769942462E+03  0.19410056159E+03  0.11714054742E+03 0.  0.
         23    2    1    2    0    0 -0.65096643206E+02  0.27466628107E+02 -0.34583916395E+02  0.11840956421E+03  0.88503045182E+02 0.  0.
          5    1    4    4  502    0 -0.45650603631E+02  0.80360878196E+01  0.24816945112E+02  0.52787565619E+02  0.47000000000E+01 0. -1.
         -5    1    3    3    0  503  0.64235718888E+02 -0.68563063816E+02 -0.10768420019E+03  0.14298635694E+03  0.47000000000E+01 0.  1.
          5    1    3    3  503    0  0.86092431747E+00  0.41096435709E+02 -0.30015224433E+02  0.51114204644E+02  0.47000000000E+01 0. -1.
         -5    1    4    4    0  502 -0.19446039575E+02  0.19430540287E+02 -0.59400861507E+02  0.65621998588E+02  0.47000000000E+01 0.  1.
<mgrwt>
<rscale>  0 0.13048717E+03</rscale>
<asrwt>0</asrwt>
<pdfrwt beam="1">  1        1 0.10786676E-01 0.13679874E+03</pdfrwt>
<pdfrwt beam="2">  1       -1 0.37291805E-01 0.13679874E+03</pdfrwt>
<totfact> 0.38868656E+03</totfact>
</mgrwt>
</event>
<event>
 8    1  0.8438969E-004  0.9382719E+02  0.7546771E-02  0.1293842E+00
         -1   -1    0    0    0  501 -0.00000000000E+00  0.00000000000E+00  0.36250191353E+02  0.36250191353E+02  0.00000000000E+00 0.  1.
          1   -1    0    0  501    0  0.00000000000E+00 -0.00000000000E+00 -0.25951758686E+03  0.25951758686E+03  0.00000000000E+00 0. -1.
         23    2    1    2    0    0 -0.88052764312E+01 -0.22356326006E+02 -0.14912307896E+03  0.17618522510E+03  0.90698415956E+02 0.  0.
         23    2    1    2    0    0  0.88052764312E+01  0.22356326006E+02 -0.74144316542E+02  0.11958255312E+03  0.90693269478E+02 0.  0.
          5    1    4    4  502    0  0.30288207571E+02 -0.18369940404E+02 -0.62277578606E+02  0.71801232756E+02  0.47000000000E+01 0. -1.
         -5    1    3    3    0  503 -0.21589251823E+02  0.26082031433E+02 -0.25293635295E+02  0.42523242402E+02  0.47000000000E+01 0.  1.
          5    1    3    3  503    0  0.12783975392E+02 -0.48438357439E+02 -0.12382944367E+03  0.13366198269E+03  0.47000000000E+01 0. -1.
         -5    1    4    4    0  502 -0.21482931140E+02  0.40726266410E+02 -0.11866737936E+02  0.47781320359E+02  0.47000000000E+01 0.  1.
<mgrwt>
<rscale>  0 0.93825942E+02</rscale>
<asrwt>0</asrwt>
<pdfrwt beam="1">  1        1 0.39925781E-01 0.93827186E+02</pdfrwt>
<pdfrwt beam="2">  1       -1 0.55769527E-02 0.93827186E+02</pdfrwt>
<totfact> 0.14249371E+04</totfact>
</mgrwt>
</event>
<event>
 8    1  0.8438969E-004  0.1088649E+03  0.7546771E-02  0.1262731E+00
         -1   -1    0    0    0  501 -0.00000000000E+00  0.00000000000E+00  0.66698400327E+02  0.66698400327E+02  0.00000000000E+00 0.  1.
          1   -1    0    0  501    0  0.00000000000E+00 -0.00000000000E+00 -0.20453723856E+03  0.20453723856E+03  0.00000000000E+00 0. -1.
         23    2    1    2    0    0  0.41912855237E+02  0.42184253575E+02 -0.11822257308E+03  0.16071134619E+03  0.91188603051E+02 0.  0.
         23    2    1    2    0    0 -0.41912855237E+02 -0.42184253575E+02 -0.19616265163E+02  0.11052429270E+03  0.91074819430E+02 0.  0.
          5    1    3    3  502    0  0.34665098157E+02  0.69145279595E+02 -0.10194915732E+03  0.12805646957E+03  0.47000000000E+01 0. -1.
         -5    1    4    4    0  503 -0.23564316832E+02 -0.33358437595E+02  0.33764301069E+02  0.53199439970E+02  0.47000000000E+01 0.  1.
          5    1    4    4  503    0 -0.18348538405E+02 -0.88258159801E+01 -0.53380566231E+02  0.57324852730E+02  0.47000000000E+01 0. -1.
         -5    1    3    3    0  502  0.72477570793E+01 -0.26961026020E+02 -0.16273415752E+02  0.32654876619E+02  0.47000000000E+01 0.  1.
<mgrwt>
<rscale>  0 0.10884104E+03</rscale>
<asrwt>0</asrwt>
<pdfrwt beam="1">  1        1 0.31467267E-01 0.10886487E+03</pdfrwt>
<pdfrwt beam="2">  1       -1 0.10261292E-01 0.10886487E+03</pdfrwt>
<totfact> 0.77765713E+03</totfact>
</mgrwt>
</event>
<event>
 8    1  0.8438969E-004  0.9433073E+02  0.7546771E-02  0.1293569E+00
         -1   -1    0    0    0  501 -0.00000000000E+00  0.00000000000E+00  0.10729100516E+03  0.10729100516E+03  0.00000000000E+00 0.  1.
          1   -1    0    0  501    0  0.00000000000E+00 -0.00000000000E+00 -0.38038617826E+03  0.38038617826E+03  0.00000000000E+00 0. -1.
         23    2    1    2    0    0  0.32310967914E+01 -0.15066855531E+02  0.79320679532E+02  0.12324794631E+03  0.93063612358E+02 0.  0.
         23    2    1    2    0    0 -0.32310967914E+01  0.15066855531E+02 -0.35241585263E+03  0.36442923711E+03  0.91511122557E+02 0.  0.
          5    1    3    3  502    0 -0.10999662861E+02  0.37392616840E+02  0.39597538474E+02  0.55760697901E+02  0.47000000000E+01 0. -1.
         -5    1    3    3    0  502  0.14230759653E+02 -0.52459472371E+02  0.39723141058E+02  0.67487248405E+02  0.47000000000E+01 0.  1.
          5    1    4    4  503    0  0.11837279997E+02  0.47556566621E+02 -0.26990356245E+03  0.27435701422E+03  0.47000000000E+01 0. -1.
         -5    1    4    4    0  503 -0.15068376788E+02 -0.32489711090E+02 -0.82512290178E+02  0.90072222889E+02  0.47000000000E+01 0.  1.
<mgrwt>
<rscale>  0 0.93945552E+02</rscale>
<asrwt>0</asrwt>
<pdfrwt beam="1">  1        1 0.58520951E-01 0.94330727E+02</pdfrwt>
<pdfrwt beam="2">  1       -1 0.16506308E-01 0.94330727E+02</pdfrwt>
<totfact> 0.17311064E+03</totfact>
</mgrwt>
</event>
<event>
 8    1  0.8438969E-004  0.1126866E+03  0.7546771E-02  0.1256465E+00
         -1   -1    0    0    0  501 -0.00000000000E+00  0.00000000000E+00  0.20898328534E+03  0.20898328534E+03  0.00000000000E+00 0.  1.
          1   -1    0    0  501    0  0.00000000000E+00 -0.00000000000E+00 -0.11521164184E+03  0.11521164184E+03  0.00000000000E+00 0. -1.
         23    2    1    2    0    0  0.65639438894E+02 -0.21190014919E+01  0.15946750585E+03  0.19526429700E+03  0.91570924178E+02 0.  0.
         23    2    1    2    0    0 -0.65639438894E+02  0.21190014919E+01 -0.65695862356E+02  0.12893063018E+03  0.89409926526E+02 0.  0.
          5    1    3    3  502    0  0.23265137550E+02 -0.87635586298E+01 -0.45140328871E+01  0.25700838080E+02  0.47000000000E+01 0. -1.
         -5    1    4    4    0  503  0.15916193386E+02 -0.19355305870E+02 -0.22765541741E+02  0.34180593441E+02  0.47000000000E+01 0.  1.
          5    1    4    4  503    0 -0.81555632280E+02  0.21474307362E+02 -0.42930320616E+02  0.94750036736E+02  0.47000000000E+01 0. -1.
         -5    1    3    3    0  502  0.42374301344E+02  0.66445571379E+01  0.16398153874E+03  0.16956345892E+03  0.47000000000E+01 0.  1.
<mgrwt>
<rscale>  0 0.11224676E+03</rscale>
<asrwt>0</asrwt>
<pdfrwt beam="1">  1        1 0.17724868E-01 0.11268656E+03</pdfrwt>
<pdfrwt beam="2">  1       -1 0.32151275E-01 0.11268656E+03</pdfrwt>
<totfact> 0.26018052E+03</totfact>
</mgrwt>
</event>
<event>
 8    1  0.8438969E-004  0.1082879E+03  0.7546771E-02  0.1269880E+00
         -1   -1    0    0    0  501 -0.00000000000E+00  0.00000000000E+00  0.64850346987E+02  0.64850346987E+02  0.00000000000E+00 0.  1.
          1   -1    0    0  501    0  0.00000000000E+00 -0.00000000000E+00 -0.40735766796E+03  0.40735766796E+03  0.00000000000E+00 0. -1.
         23    2    1    2    0    0  0.16747693578E+02  0.13723670648E+02  0.81581559299E+01  0.10859481209E+03  0.10610114669E+03 0.  0.
         23    2    1    2    0    0 -0.16747693578E+02 -0.13723670648E+02 -0.35066547691E+03  0.36361320286E+03  0.93698773871E+02 0.  0.
          5    1    4    4  502    0 -0.44287280769E+02  0.10320778085E+02 -0.28198389890E+03  0.28566569787E+03  0.47000000000E+01 0. -1.
         -5    1    3    3    0  503 -0.23104174628E+01  0.39826838515E+02  0.44355170405E+02  0.59841342202E+02  0.47000000000E+01 0.  1.
          5    1    3    3  503    0  0.19058111040E+02 -0.26103167867E+02 -0.36197014475E+02  0.48753469887E+02  0.47000000000E+01 0. -1.
         -5    1    4    4    0  502  0.27539587191E+02 -0.24044448733E+02 -0.68681578003E+02  0.77947504992E+02  0.47000000000E+01 0.  1.
<mgrwt>
<rscale>  0 0.10512178E+03</rscale>
<asrwt>0</asrwt>
<pdfrwt beam="1">  1        1 0.62670411E-01 0.10828794E+03</pdfrwt>
<pdfrwt beam="2">  1       -1 0.99769764E-02 0.10828794E+03</pdfrwt>
<totfact> 0.34691107E+03</totfact>
</mgrwt>
</event>
<event>
 8    1  0.8438969E-004  0.9429085E+02  0.7546771E-02  0.1303775E+00
          1   -1    0    0  501    0  0.00000000000E+00  0.00000000000E+00  0.51837875348E+02  0.51837875348E+02  0.00000000000E+00 0. -1.
         -1   -1    0    0    0  501 -0.00000000000E+00 -0.00000000000E+00 -0.16619284034E+03  0.16619284034E+03  0.00000000000E+00 0.  1.
         23    2    1    2    0    0 -0.22545335909E+02  0.92533126885E+01 -0.10400989653E+03  0.14038811444E+03  0.91087036022E+02 0.  0.
         23    2    1    2    0    0  0.22545335909E+02 -0.92533126885E+01 -0.10345068464E+02  0.77642601255E+02  0.72989294566E+02 0.  0.
          5    1    3    3  502    0 -0.26841834879E+02 -0.21304616953E+02 -0.30628434450E+01  0.34725233090E+02  0.47000000000E+01 0. -1.
         -5    1    3    3    0  502  0.42964989697E+01  0.30557929641E+02 -0.10094705309E+03  0.10566288135E+03  0.47000000000E+01 0.  1.
          5    1    4    4  503    0  0.15485291547E+02 -0.31927111899E+02  0.18248558636E+02  0.40177538760E+02  0.47000000000E+01 0. -1.
         -5    1    4    4    0  503  0.70600443619E+01  0.22673799211E+02 -0.28593627099E+02  0.37465062495E+02  0.47000000000E+01 0.  1.
<mgrwt>
<rscale>  0 0.89619967E+02</rscale>
<asrwt>0</asrwt>
<pdfrwt beam="1">  1        1 0.79750578E-02 0.94290848E+02</pdfrwt>
<pdfrwt beam="2">  1       -1 0.25568129E-01 0.94290848E+02</pdfrwt>
<totfact> 0.10616032E+04</totfact>
</mgrwt>
</event>
<event>
 8    1  0.8480011E-004  0.9690959E+02  0.7546771E-02  0.1287062E+00
         -1   -1    0    0    0  501 -0.00000000000E+00  0.00000000000E+00  0.12348717629E+03  0.12348717629E+03  0.00000000000E+00 0.  1.
          1   -1    0    0  501    0  0.00000000000E+00 -0.00000000000E+00 -0.13730346317E+03  0.13730346317E+03  0.00000000000E+00 0. -1.
         23    2    1    2    0    0  0.28442419361E+02 -0.17500672344E+02 -0.94136352210E+02  0.13510411052E+03  0.90973749622E+02 0.  0.
         23    2    1    2    0    0 -0.28442419361E+02  0.17500672344E+02  0.80320065332E+02  0.12568652894E+03  0.90722356178E+02 0.  0.
          5    1    3    3  502    0  0.41572287100E+02 -0.47042558662E+02 -0.51162682007E+02  0.81123161985E+02  0.47000000000E+01 0. -1.
         -5    1    4    4    0  503 -0.36978406037E+02  0.37500504244E+02  0.87563612147E+02  0.10228962070E+03  0.47000000000E+01 0.  1.
          5    1    4    4  503    0  0.85359866756E+01 -0.19999831900E+02 -0.72435468149E+01  0.23396908236E+02  0.47000000000E+01 0.  1.
         -5    1    3    3    0  502 -0.13129867739E+02  0.29541886318E+02 -0.42973670203E+02  0.53980948535E+02  0.47000000000E+01 0.  1.
<mgrwt>
<rscale>  0 0.96850543E+02</rscale>
<asrwt>0</asrwt>
<pdfrwt beam="1">  1        1 0.21123610E-01 0.96909586E+02</pdfrwt>
<pdfrwt beam="2">  1       -1 0.18998027E-01 0.96909586E+02</pdfrwt>
<totfact> 0.48730916E+03</totfact>
</mgrwt>
</event>
<event>
 8    1  0.9904884E-004  0.1013431E+03  0.7546771E-02  0.1278891E+00
         -1   -1    0    0    0  501 -0.00000000000E+00  0.00000000000E+00  0.24616907325E+03  0.24616907325E+03  0.00000000000E+00 0.  1.
          1   -1    0    0  501    0  0.00000000000E+00 -0.00000000000E+00 -0.11296010033E+03  0.11296010033E+03  0.00000000000E+00 0. -1.
         23    2    1    2    0    0 -0.35155310391E+02  0.16503660150E+02 -0.76756418950E+02  0.12712975509E+03  0.93606410742E+02 0.  0.
         23    2    1    2    0    0  0.35155310391E+02 -0.16503660150E+02  0.20996539187E+03  0.23199941849E+03  0.90719335058E+02 0.  0.
          5    1    3    3  502    0 -0.60413278735E+02  0.28326846453E+01 -0.77001807183E+02  0.98026305955E+02  0.47000000000E+01 0. -1.
         -5    1    4    4    0  503  0.47526681430E+02  0.25569255366E+02  0.10520625130E+03  0.11833434658E+03  0.47000000000E+01 0.  1.
          5    1    4    4  503    0 -0.12371371039E+02 -0.42072915516E+02  0.10475914057E+03  0.11366507192E+03  0.47000000000E+01 0. -1.
         -5    1    3    3    0  502  0.25257968344E+02  0.13670975505E+02  0.24538823293E+00  0.29103449134E+02  0.47000000000E+01 0.  1.
<mgrwt>
<rscale>  0 0.10067135E+03</rscale>
<asrwt>0</asrwt>
<pdfrwt beam="1">  1        1 0.17378477E-01 0.10134311E+03</pdfrwt>
<pdfrwt beam="2">  1       -1 0.37872165E-01 0.10134311E+03</pdfrwt>
<totfact> 0.20076318E+03</totfact>
</mgrwt>
</event>
<event>
 8    1  0.8438969E-004  0.1085748E+03  0.7546771E-02  0.1267662E+00
          2   -1    0    0  501    0  0.00000000000E+00  0.00000000000E+00  0.59359960863E+02  0.59359960863E+02  0.00000000000E+00 0.  1.
         -2   -1    0    0    0  501 -0.00000000000E+00 -0.00000000000E+00 -0.20855461645E+03  0.20855461645E+03  0.00000000000E+00 0. -1.
         23    2    1    2    0    0  0.44064804322E+02 -0.12246055492E+02 -0.11907934419E+03  0.15524061513E+03  0.88476468731E+02 0.  0.
         23    2    1    2    0    0 -0.44064804322E+02  0.12246055492E+02 -0.30115311398E+02  0.11267396218E+03  0.98472417040E+02 0.  0.
          5    1    4    4  502    0  0.43717206056E+01  0.47670361645E+02 -0.17419842319E+02  0.51157758228E+02  0.47000000000E+01 0. -1.
         -5    1    4    4    0  502 -0.48436524927E+02 -0.35424306154E+02 -0.12695469079E+02  0.61516203952E+02  0.47000000000E+01 0.  1.
          5    1    3    3  503    0  0.27085991029E+02  0.27624964410E+02 -0.10061889946E+03  0.10790293090E+03  0.47000000000E+01 0. -1.
         -5    1    3    3    0  503  0.16978813293E+02 -0.39871019902E+02 -0.18460444731E+02  0.47337684233E+02  0.47000000000E+01 0.  1.
<mgrwt>
<rscale>  0 0.10625747E+03</rscale>
<asrwt>0</asrwt>
<pdfrwt beam="1">  1        2 0.91323017E-02 0.10857481E+03</pdfrwt>
<pdfrwt beam="2">  1       -2 0.32085326E-01 0.10857481E+03</pdfrwt>
<totfact> 0.60401553E+03</totfact>
</mgrwt>
</event>
<event>
 8    1  0.8438969E-004  0.9361709E+02  0.7546771E-02  0.1296343E+00
          4   -1    0    0  501    0  0.00000000000E+00  0.00000000000E+00  0.43489432579E+02  0.43489432579E+02  0.00000000000E+00 0. -1.
         -4   -1    0    0    0  501 -0.00000000000E+00 -0.00000000000E+00 -0.20912326748E+03  0.20912326748E+03  0.00000000000E+00 0.  1.
         23    2    1    2    0    0 -0.77204371140E+01  0.13594676299E+02 -0.11514715001E+03  0.14624980706E+03  0.88801573955E+02 0.  0.
         23    2    1    2    0    0  0.77204371140E+01 -0.13594676299E+02 -0.50486684890E+02  0.10636289300E+03  0.92302433785E+02 0.  0.
          5    1    3    3  502    0 -0.11182397168E+02 -0.36599662799E+02 -0.61188533744E+02  0.72323633656E+02  0.47000000000E+01 0. -1.
         -5    1    4    4    0  503 -0.13091222704E+02  0.30078467071E+02 -0.47165418929E+02  0.57643395424E+02  0.47000000000E+01 0.  1.
          5    1    4    4  503    0  0.20811659818E+02 -0.43673143370E+02 -0.33212659613E+01  0.48719497573E+02  0.47000000000E+01 0. -1.
         -5    1    3    3    0  502  0.34619600542E+01  0.50194339098E+02 -0.53958616266E+02  0.73926173405E+02  0.47000000000E+01 0.  1.
<mgrwt>
<rscale>  0 0.92742459E+02</rscale>
<asrwt>0</asrwt>
<pdfrwt beam="1">  1        4 0.66906819E-02 0.93617091E+02</pdfrwt>
<pdfrwt beam="2">  1       -4 0.32172810E-01 0.93617091E+02</pdfrwt>
<totfact> 0.20726477E+03</totfact>
</mgrwt>
</event>
<event>
 8    1  0.8438969E-004  0.3444367E+03  0.7546771E-02  0.1065077E+00
         -1   -1    0    0    0  501 -0.00000000000E+00  0.00000000000E+00  0.11094730575E+03  0.11094730575E+03  0.00000000000E+00 0.  1.
          1   -1    0    0  501    0  0.00000000000E+00 -0.00000000000E+00 -0.11340414196E+04  0.11340414196E+04  0.00000000000E+00 0. -1.
         23    2    1    2    0    0 -0.18135153774E+03  0.27603621541E+03 -0.66441846883E+03  0.74771127257E+03  0.92389788094E+02 0.  0.
         23    2    1    2    0    0  0.18135153774E+03 -0.27603621541E+03 -0.35867564498E+03  0.49727745275E+03  0.97735736811E+02 0.  0.
          5    1    4    4  502    0  0.12833462578E+02 -0.90757031037E+02 -0.12188693233E+03  0.15257801518E+03  0.47000000000E+01 0. -1.
         -5    1    4    4    0  502  0.16851807516E+03 -0.18527918438E+03 -0.23678871265E+03  0.34469943757E+03  0.47000000000E+01 0.  1.
          5    1    3    3  503    0 -0.13752714887E+03  0.26320982711E+03 -0.57135709234E+03  0.64394421089E+03  0.47000000000E+01 0. -1.
         -5    1    3    3    0  503 -0.43824388870E+02  0.12826388307E+02 -0.93061376488E+02  0.10376706168E+03  0.47000000000E+01 0.  1.
<mgrwt>
<rscale>  0 0.34406646E+03</rscale>
<asrwt>0</asrwt>
<pdfrwt beam="1">  1        1 0.17446790E+00 0.34443671E+03</pdfrwt>
<pdfrwt beam="2">  1       -1 0.17068817E-01 0.34443671E+03</pdfrwt>
<totfact> 0.33196262E+02</totfact>
</mgrwt>
</event>
<event>
 8    1  0.8438969E-004  0.1104230E+03  0.7546771E-02  0.1260934E+00
          2   -1    0    0  501    0  0.00000000000E+00  0.00000000000E+00  0.21191700178E+03  0.21191700178E+03  0.00000000000E+00 0. -1.
         -2   -1    0    0    0  501 -0.00000000000E+00 -0.00000000000E+00 -0.61584764999E+02  0.61584764999E+02  0.00000000000E+00 0.  1.
         23    2    1    2    0    0 -0.33900004208E+01  0.60166737350E+02  0.11612838012E+03  0.16024678996E+03  0.92529479824E+02 0.  0.
         23    2    1    2    0    0  0.33900004208E+01 -0.60166737350E+02  0.34203856664E+02  0.11325497682E+03  0.89583801984E+02 0.  0.
          5    1    4    4  502    0 -0.15906031921E+02 -0.34310415316E+02  0.60409434324E+02  0.71425459089E+02  0.47000000000E+01 0. -1.
         -5    1    3    3    0  503 -0.36566969761E+02 -0.33095827995E+01  0.27039462072E+02  0.45840147523E+02  0.47000000000E+01 0.  1.
          5    1    3    3  503    0  0.33176969340E+02  0.63476320150E+02  0.89088918044E+02  0.11440664243E+03  0.47000000000E+01 0. -1.
         -5    1    4    4    0  502  0.19296032342E+02 -0.25856322035E+02 -0.26205577660E+02  0.41829517733E+02  0.47000000000E+01 0.  1.
<mgrwt>
<rscale>  0 0.10980369E+03</rscale>
<asrwt>0</asrwt>
<pdfrwt beam="1">  1        2 0.32602615E-01 0.11042297E+03</pdfrwt>
<pdfrwt beam="2">  1       -2 0.94745793E-02 0.11042297E+03</pdfrwt>
<totfact> 0.10714022E+04</totfact>
</mgrwt>
</event>
<event>
 8    1  0.8438969E-004  0.1045373E+03  0.7546771E-02  0.1274557E+00
         -3   -1    0    0    0  501 -0.00000000000E+00  0.00000000000E+00  0.16811073403E+03  0.16811073403E+03  0.00000000000E+00 0.  1.
          3   -1    0    0  501    0  0.00000000000E+00 -0.00000000000E+00 -0.60843805981E+02  0.60843805981E+02  0.00000000000E+00 0. -1.
         23    2    1    2    0    0 -0.29596107543E+02  0.25499644911E+02  0.54420949656E+02  0.11181898450E+03  0.89530352735E+02 0.  0.
         23    2    1    2    0    0  0.29596107543E+02 -0.25499644911E+02  0.52845978393E+02  0.11713555551E+03  0.96963289240E+02 0.  0.
          5    1    3    3  502    0 -0.75462963914E+01 -0.28743210382E+02 -0.22840168223E+01  0.30173257450E+02  0.47000000000E+01 0. -1.
         -5    1    3    3    0  502 -0.22049811152E+02  0.54242855293E+02  0.56704966479E+02  0.81645727050E+02  0.47000000000E+01 0.  1.
          5    1    4    4  503    0  0.33907387952E+02  0.17116849295E+02 -0.11258567088E+02  0.39894145189E+02  0.47000000000E+01 0. -1.
         -5    1    4    4    0  503 -0.43112804090E+01 -0.42616494206E+02  0.64104545481E+02  0.77241410322E+02  0.47000000000E+01 0.  1.
<mgrwt>
<rscale>  0 0.10277972E+03</rscale>
<asrwt>0</asrwt>
<pdfrwt beam="1">  1        3 0.93605856E-02 0.10453727E+03</pdfrwt>
<pdfrwt beam="2">  1       -3 0.25863190E-01 0.10453727E+03</pdfrwt>
<totfact> 0.25316942E+03</totfact>
</mgrwt>
</event>
<event>
 8    1  0.8438969E-004  0.1127283E+03  0.7546771E-02  0.1258819E+00
         -1   -1    0    0    0  501 -0.00000000000E+00  0.00000000000E+00  0.38241730368E+03  0.38241730368E+03  0.00000000000E+00 0.  1.
          1   -1    0    0  501    0  0.00000000000E+00 -0.00000000000E+00 -0.41144064162E+02  0.41144064162E+02  0.00000000000E+00 0. -1.
         23    2    1    2    0    0  0.44596086291E+02 -0.46573828672E+02  0.62526452916E+02  0.12288308458E+03  0.83861568860E+02 0.  0.
         23    2    1    2    0    0 -0.44596086291E+02  0.46573828672E+02  0.27874678661E+03  0.30067828327E+03  0.92464731418E+02 0.  0.
          5    1    4    4  502    0  0.24007086863E+02  0.12464853968E+02  0.31476605171E+02  0.41768163440E+02  0.47000000000E+01 0. -1.
         -5    1    4    4    0  502 -0.68603173154E+02  0.34108974705E+02  0.24727018144E+03  0.25891011983E+03  0.47000000000E+01 0.  1.
          5    1    3    3  503    0  0.69458872118E+02 -0.35816972316E+02  0.46128425223E+02  0.90869753138E+02  0.47000000000E+01 0. -1.
         -5    1    3    3    0  503 -0.24862785827E+02 -0.10756856356E+02  0.16398027693E+02  0.32013331441E+02  0.47000000000E+01 0.  1.
<mgrwt>
<rscale>  0 0.11095113E+03</rscale>
<asrwt>0</asrwt>
<pdfrwt beam="1">  1        1 0.63298563E-02 0.11272825E+03</pdfrwt>
<pdfrwt beam="2">  1       -1 0.58833429E-01 0.11272825E+03</pdfrwt>
<totfact> 0.34420771E+03</totfact>
</mgrwt>
</event>
<event>
 8    1  0.8438969E-004  0.9982536E+02  0.7546771E-02  0.1280973E+00
          3   -1    0    0  501    0  0.00000000000E+00  0.00000000000E+00  0.14068130184E+03  0.14068130184E+03  0.00000000000E+00 0. -1.
         -3   -1    0    0    0  501 -0.00000000000E+00 -0.00000000000E+00 -0.72510787228E+02  0.72510787228E+02  0.00000000000E+00 0.  1.
         23    2    1    2    0    0 -0.11426999005E+02 -0.39698454744E+02  0.52282262147E+02  0.11268778755E+03  0.90876613677E+02 0.  0.
         23    2    1    2    0    0  0.11426999005E+02  0.39698454744E+02  0.15888252469E+02  0.10050430152E+03  0.90233776611E+02 0.  0.
          5    1    3    3  502    0 -0.45314597465E+02 -0.24544194242E+02  0.54563354804E+02  0.75200265304E+02  0.47000000000E+01 0. -1.
         -5    1    4    4    0  503  0.25302310944E+02  0.58057110807E+02  0.32882603895E+02  0.71513569994E+02  0.47000000000E+01 0.  1.
          5    1    4    4  503    0 -0.13875311939E+02 -0.18358656063E+02 -0.16994351426E+02  0.28990731523E+02  0.47000000000E+01 0. -1.
         -5    1    3    3    0  502  0.33887598460E+02 -0.15154260502E+02 -0.22810926567E+01  0.37487522250E+02  0.47000000000E+01 0.  1.
<mgrwt>
<rscale>  0 0.99678824E+02</rscale>
<asrwt>0</asrwt>
<pdfrwt beam="1">  1        3 0.21643277E-01 0.99825360E+02</pdfrwt>
<pdfrwt beam="2">  1       -3 0.11155506E-01 0.99825360E+02</pdfrwt>
<totfact> 0.25826931E+03</totfact>
</mgrwt>
</event>
<event>
 8    1  0.8438969E-004  0.1177603E+03  0.7546771E-02  0.1252094E+00
         -3   -1    0    0    0  501 -0.00000000000E+00  0.00000000000E+00  0.15580738280E+02  0.15580738280E+02  0.00000000000E+00 0.  1.
          3   -1    0    0  501    0  0.00000000000E+00 -0.00000000000E+00 -0.94016288628E+03  0.94016288628E+03  0.00000000000E+00 0. -1.
         23    2    1    2    0    0  0.50837903737E+02  0.50791518219E+02 -0.30103044850E+03  0.32324422094E+03  0.93291074946E+02 0.  0.
         23    2    1    2    0    0 -0.50837903737E+02 -0.50791518219E+02 -0.62355169950E+03  0.63249940362E+03  0.77939097107E+02 0.  0.
          5    1    4    4  502    0 -0.40379757704E+02 -0.71495801027E+02 -0.49538077076E+03  0.50216169949E+03  0.47000000000E+01 0. -1.
         -5    1    3    3    0  503  0.20192326051E+02 -0.14023941882E+02 -0.16975386255E+02  0.30243259014E+02  0.47000000000E+01 0.  1.
          5    1    3    3  503    0  0.30645577685E+02  0.64815460101E+02 -0.28405506225E+03  0.29300096192E+03  0.47000000000E+01 0. -1.
         -5    1    4    4    0  502 -0.10458146033E+02  0.20704282808E+02 -0.12817092874E+03  0.13033770413E+03  0.47000000000E+01 0.  1.
<mgrwt>
<rscale>  0 0.11470679E+03</rscale>
<asrwt>0</asrwt>
<pdfrwt beam="1">  1        3 0.14464045E+00 0.11776033E+03</pdfrwt>
<pdfrwt beam="2">  1       -3 0.23970366E-02 0.11776033E+03</pdfrwt>
<totfact> 0.61742973E+02</totfact>
</mgrwt>
</event>
<event>
 8    1  0.8438969E-004  0.2623274E+03  0.7546771E-02  0.1105774E+00
         -1   -1    0    0    0  501 -0.00000000000E+00  0.00000000000E+00  0.11669540739E+03  0.11669540739E+03  0.00000000000E+00 0.  1.
          1   -1    0    0  501    0  0.00000000000E+00 -0.00000000000E+00 -0.80403742371E+03  0.80403742371E+03  0.00000000000E+00 0. -1.
         23    2    1    2    0    0 -0.23061082649E+03  0.85624738218E+02 -0.58160877640E+03  0.63803168098E+03  0.91119196974E+02 0.  0.
         23    2    1    2    0    0  0.23061082649E+03 -0.85624738218E+02 -0.10573323992E+03  0.28270115012E+03  0.90705419705E+02 0.  0.
          5    1    3    3  502    0 -0.12792152357E+03  0.53424837826E+02 -0.21447587438E+03  0.25542145599E+03  0.47000000000E+01 0. -1.
         -5    1    4    4    0  503  0.12667959883E+03 -0.90212349164E+02 -0.82070548145E+02  0.17590808274E+03  0.47000000000E+01 0.  1.
          5    1    4    4  503    0  0.10393122766E+03  0.45876109463E+01 -0.23662691778E+02  0.10679306737E+03  0.47000000000E+01 0. -1.
         -5    1    3    3    0  502 -0.10268930292E+03  0.32199900392E+02 -0.36713290202E+03  0.38261022499E+03  0.47000000000E+01 0.  1.
<mgrwt>
<rscale>  0 0.26229152E+03</rscale>
<asrwt>0</asrwt>
<pdfrwt beam="1">  1        1 0.12369807E+00 0.26232739E+03</pdfrwt>
<pdfrwt beam="2">  1       -1 0.17953140E-01 0.26232739E+03</pdfrwt>
<totfact> 0.55282081E+02</totfact>
</mgrwt>
</event>
<event>
 8    1  0.8438969E-004  0.9169945E+02  0.7546771E-02  0.1298877E+00
          1   -1    0    0  501    0  0.00000000000E+00  0.00000000000E+00  0.33031131227E+03  0.33031131227E+03  0.00000000000E+00 0. -1.
         -1   -1    0    0    0  501 -0.00000000000E+00 -0.00000000000E+00 -0.32408258728E+02  0.32408258728E+02  0.00000000000E+00 0.  1.
         23    2    1    2    0    0  0.10527282921E+02  0.13142677571E+01  0.64609910149E+02  0.11205150491E+03  0.90931558207E+02 0.  0.
         23    2    1    2    0    0 -0.10527282921E+02 -0.13142677571E+01  0.23329314340E+03  0.25066806609E+03  0.91083684689E+02 0.  0.
          5    1    3    3  502    0  0.21705633896E+02 -0.37148921518E+02  0.56063569664E+02  0.70826483438E+02  0.47000000000E+01 0. -1.
         -5    1    4    4    0  503  0.96910888140E+01  0.37218175900E+02  0.56301793289E+02  0.68345385706E+02  0.47000000000E+01 0.  1.
          5    1    4    4  503    0 -0.20218371735E+02 -0.38532443658E+02  0.17699135011E+03  0.18232268038E+03  0.47000000000E+01 0. -1.
         -5    1    3    3    0  502 -0.11178350975E+02  0.38463189275E+02  0.85463404849E+01  0.41225021473E+02  0.47000000000E+01 0.  1.
<mgrwt>
<rscale>  0 0.91661648E+02</rscale>
<asrwt>0</asrwt>
<pdfrwt beam="1">  1        1 0.50817123E-01 0.91699447E+02</pdfrwt>
<pdfrwt beam="2">  1       -1 0.49858862E-02 0.91699447E+02</pdfrwt>
<totfact> 0.12480820E+04</totfact>
</mgrwt>
</event>
<event>
 8    1  0.8438969E-004  0.1237250E+03  0.7546771E-02  0.1251054E+00
          2   -1    0    0  501    0  0.00000000000E+00  0.00000000000E+00  0.46500953618E+03  0.46500953618E+03  0.00000000000E+00 0. -1.
         -2   -1    0    0    0  501 -0.00000000000E+00 -0.00000000000E+00 -0.27625034595E+02  0.27625034595E+02  0.00000000000E+00 0.  1.
         23    2    1    2    0    0 -0.81214071500E+01  0.14068115552E+02  0.31717457593E+03  0.34045201712E+03  0.12265396537E+03 0.  0.
         23    2    1    2    0    0  0.81214071500E+01 -0.14068115552E+02  0.12020992566E+03  0.15218255365E+03  0.91897955798E+02 0.  0.
          5    1    4    4  502    0 -0.65302132302E+01  0.36786551631E+02  0.67779338123E+02  0.77537234553E+02  0.47000000000E+01 0. -1.
         -5    1    3    3    0  503 -0.59628105290E+02 -0.57083627086E+01  0.10308675554E+03  0.11931917496E+03  0.47000000000E+01 0.  1.
          5    1    3    3  503    0  0.51506698140E+02  0.19776478261E+02  0.21408782039E+03  0.22113284217E+03  0.47000000000E+01 0. -1.
         -5    1    4    4    0  502  0.14651620380E+02 -0.50854667183E+02  0.52430587538E+02  0.74645319101E+02  0.47000000000E+01 0.  1.
<mgrwt>
<rscale>  0 0.11530275E+03</rscale>
<asrwt>0</asrwt>
<pdfrwt beam="1">  1        2 0.71539923E-01 0.12372495E+03</pdfrwt>
<pdfrwt beam="2">  1       -2 0.42500057E-02 0.12372495E+03</pdfrwt>
<totfact> 0.15857045E+04</totfact>
</mgrwt>
</event>
<event>
 8    1  0.8438969E-004  0.1298783E+03  0.7546771E-02  0.1227828E+00
         -1   -1    0    0    0  501 -0.00000000000E+00  0.00000000000E+00  0.94779701698E+02  0.94779701698E+02  0.00000000000E+00 0.  1.
          1   -1    0    0  501    0  0.00000000000E+00 -0.00000000000E+00 -0.29300833876E+03  0.29300833876E+03  0.00000000000E+00 0. -1.
         23    2    1    2    0    0  0.73246010633E+02  0.54257435918E+02  0.22864687871E+02  0.13136918750E+03  0.91794455424E+02 0.  0.
         23    2    1    2    0    0 -0.73246010633E+02 -0.54257435918E+02 -0.22109332493E+03  0.25641885296E+03  0.92517686941E+02 0.  0.
          5    1    4    4  502    0 -0.78301670557E+02 -0.28390033752E+02 -0.21252041275E+03  0.22830716472E+03  0.47000000000E+01 0. -1.
         -5    1    4    4    0  502  0.50556599244E+01 -0.25867402166E+02 -0.85729121804E+01  0.28111688234E+02  0.47000000000E+01 0.  1.
          5    1    3    3  503    0  0.15350351870E+02  0.24089514052E+02 -0.34007064886E+02  0.44659919972E+02  0.47000000000E+01 0. -1.
         -5    1    3    3    0  503  0.57895658763E+02  0.30167921866E+02  0.56871752757E+02  0.86709267526E+02  0.47000000000E+01 0.  1.
<mgrwt>
<rscale>  0 0.12974955E+03</rscale>
<asrwt>0</asrwt>
<pdfrwt beam="1">  1        1 0.45078206E-01 0.12987829E+03</pdfrwt>
<pdfrwt beam="2">  1       -1 0.14581493E-01 0.12987829E+03</pdfrwt>
<totfact> 0.29383083E+03</totfact>
</mgrwt>
</event>
<event>
 8    1  0.8438969E-004  0.1067082E+03  0.7546771E-02  0.1267113E+00
          2   -1    0    0  501    0  0.00000000000E+00  0.00000000000E+00  0.42544292909E+03  0.42544292909E+03  0.00000000000E+00 0. -1.
         -2   -1    0    0    0  501 -0.00000000000E+00 -0.00000000000E+00 -0.26602509653E+02  0.26602509653E+02  0.00000000000E+00 0.  1.
         23    2    1    2    0    0 -0.51283717349E+02  0.17897701016E+02  0.19681485302E+03  0.22388103753E+03  0.91849252734E+02 0.  0.
         23    2    1    2    0    0  0.51283717349E+02 -0.17897701016E+02  0.20202556641E+03  0.22816440121E+03  0.91073141646E+02 0.  0.
          5    1    3    3  502    0 -0.97302348151E+01  0.23902254058E+02  0.17380625616E+03  0.17577457125E+03  0.47000000000E+01 0. -1.
         -5    1    3    3    0  502 -0.41553482534E+02 -0.60045530426E+01  0.23008596861E+02  0.48106466275E+02  0.47000000000E+01 0.  1.
          5    1    4    4  503    0  0.71318521756E+02  0.87147496649E+01  0.14661841490E+03  0.16334420099E+03  0.47000000000E+01 0. -1.
         -5    1    4    4    0  503 -0.20034804407E+02 -0.26612450681E+02  0.55407151510E+02  0.64820200226E+02  0.47000000000E+01 0.  1.
<mgrwt>
<rscale>  0 0.10654095E+03</rscale>
<asrwt>0</asrwt>
<pdfrwt beam="1">  1        2 0.65452753E-01 0.10670817E+03</pdfrwt>
<pdfrwt beam="2">  1       -2 0.40926941E-02 0.10670817E+03</pdfrwt>
<totfact> 0.18208535E+04</totfact>
</mgrwt>
</event>
<event>
 8    1  0.8438969E-004  0.1013610E+03  0.7546771E-02  0.1277702E+00
         -1   -1    0    0    0  501 -0.00000000000E+00  0.00000000000E+00  0.13651378986E+02  0.13651378986E+02  0.00000000000E+00 0.  1.
          1   -1    0    0  501    0  0.00000000000E+00 -0.00000000000E+00 -0.89959536005E+03  0.89959536005E+03  0.00000000000E+00 0. -1.
         23    2    1    2    0    0 -0.40431794678E+02  0.14593184274E+02 -0.25537017386E+03  0.27457830007E+03  0.91277741685E+02 0.  0.
         23    2    1    2    0    0  0.40431794678E+02 -0.14593184274E+02 -0.63057380721E+03  0.63866843896E+03  0.91795193463E+02 0.  0.
          5    1    4    4  502    0  0.54555959437E+02 -0.42647056896E+02 -0.41371939538E+03  0.41950083705E+03  0.47000000000E+01 0. -1.
         -5    1    4    4    0  502 -0.14124164759E+02  0.28053872622E+02 -0.21685441183E+03  0.21916760192E+03  0.47000000000E+01 0.  1.
          5    1    3    3  503    0  0.13106228431E+02 -0.28671459078E+02 -0.83541383561E+02  0.89415203163E+02  0.47000000000E+01 0. -1.
         -5    1    3    3    0  503 -0.53538023109E+02  0.43264643352E+02 -0.17182879030E+03  0.18516309691E+03  0.47000000000E+01 0.  1.
<mgrwt>
<rscale>  0 0.10124368E+03</rscale>
<asrwt>0</asrwt>
<pdfrwt beam="1">  1        1 0.13839925E+00 0.10136098E+03</pdfrwt>
<pdfrwt beam="2">  1       -1 0.21002126E-02 0.10136098E+03</pdfrwt>
<totfact> 0.11479068E+04</totfact>
</mgrwt>
</event>
<event>
 8    1  0.8438969E-004  0.1155495E+03  0.7546771E-02  0.1251440E+00
         -3   -1    0    0    0  501 -0.00000000000E+00  0.00000000000E+00  0.18850138531E+02  0.18850138531E+02  0.00000000000E+00 0.  1.
          3   -1    0    0  501    0  0.00000000000E+00 -0.00000000000E+00 -0.69986270703E+03  0.69986270703E+03  0.00000000000E+00 0. -1.
         23    2    1    2    0    0 -0.53691387551E+02 -0.43133579868E+02 -0.36099438960E+03  0.37847276242E+03  0.90451156795E+02 0.  0.
         23    2    1    2    0    0  0.53691387551E+02  0.43133579868E+02 -0.32001817890E+03  0.34024008314E+03  0.92781509670E+02 0.  0.
          5    1    3    3  502    0  0.16994724879E+02 -0.27906694819E+02 -0.56146769262E+02  0.65131820088E+02  0.47000000000E+01 0. -1.
         -5    1    3    3    0  502 -0.70686112430E+02 -0.15226885049E+02 -0.30484762034E+03  0.31334094233E+03  0.47000000000E+01 0.  1.
          5    1    4    4  503    0  0.61318144420E+02  0.41690136031E+01 -0.26592456000E+03  0.27297482873E+03  0.47000000000E+01 0. -1.
         -5    1    4    4    0  503 -0.76267568695E+01  0.38964566265E+02 -0.54093618904E+02  0.67265254409E+02  0.47000000000E+01 0.  1.
<mgrwt>
<rscale>  0 0.11508095E+03</rscale>
<asrwt>0</asrwt>
<pdfrwt beam="1">  1        3 0.10767116E+00 0.11554947E+03</pdfrwt>
<pdfrwt beam="2">  1       -3 0.29000219E-02 0.11554947E+03</pdfrwt>
<totfact> 0.92440251E+02</totfact>
</mgrwt>
</event>
<event>
 8    1  0.8438969E-004  0.9568107E+02  0.7546771E-02  0.1290139E+00
          1   -1    0    0  501    0  0.00000000000E+00  0.00000000000E+00  0.64550219081E+03  0.64550219081E+03  0.00000000000E+00 0. -1.
         -1   -1    0    0    0  501 -0.00000000000E+00 -0.00000000000E+00 -0.14745851088E+02  0.14745851088E+02  0.00000000000E+00 0.  1.
         23    2    1    2    0    0 -0.21675640867E+02  0.15913877591E+02  0.38829179883E+03  0.39990672419E+03  0.91824735816E+02 0.  0.
         23    2    1    2    0    0  0.21675640867E+02 -0.15913877591E+02  0.24246454090E+03  0.26034131771E+03  0.90914592936E+02 0.  0.
          5    1    4    4  502    0  0.26439431233E+02  0.34604827257E+02  0.10804989435E+03  0.11659076834E+03  0.47000000000E+01 0. -1.
         -5    1    3    3    0  503 -0.19564539086E+02 -0.35242343329E+02  0.11841224826E+03  0.12517325789E+03  0.47000000000E+01 0.  1.
          5    1    3    3  503    0 -0.21111017815E+01  0.51156220920E+02  0.26987955057E+03  0.27473346630E+03  0.47000000000E+01 0. -1.
         -5    1    4    4    0  502 -0.47637903653E+01 -0.50518704847E+02  0.13441464655E+03  0.14375054937E+03  0.47000000000E+01 0.  1.
<mgrwt>
<rscale>  0 0.95462039E+02</rscale>
<asrwt>0</asrwt>
<pdfrwt beam="1">  1        1 0.99308008E-01 0.95681069E+02</pdfrwt>
<pdfrwt beam="2">  1       -1 0.22685930E-02 0.95681069E+02</pdfrwt>
<totfact> 0.16622557E+04</totfact>
</mgrwt>
</event>
<event>
 7    1  0.8438969E-004  0.1438597E+03  0.7546771E-02  0.1225328E+00
         -1   -1    0    0    0  501 -0.00000000000E+00  0.00000000000E+00  0.86847882718E+02  0.86847882718E+02  0.00000000000E+00 0.  1.
          1   -1    0    0  501    0  0.00000000000E+00 -0.00000000000E+00 -0.40525787282E+03  0.40525787282E+03  0.00000000000E+00 0. -1.
         23    2    1    2    0    0  0.42620933684E+02 -0.23314731130E+02 -0.33275459787E+03  0.34753262394E+03  0.87710783945E+02 0.  0.
          5    1    3    3  502    0  0.63304082703E+02 -0.33880382551E+02 -0.28845040590E+03  0.29728944461E+03  0.47000000000E+01 0. -1.
         -5    1    1    2    0  503  0.10175563435E+01 -0.31088845909E+02  0.55253367251E+02  0.63581257878E+02  0.47000000000E+01 0.  1.
          5    1    1    2  503    0 -0.43638490028E+02  0.54403577038E+02 -0.40908759478E+02  0.80991873719E+02  0.47000000000E+01 0. -1.
         -5    1    3    3    0  502 -0.20683149018E+02  0.10565651422E+02 -0.44304191967E+02  0.50243179330E+02  0.47000000000E+01 0.  1.
<mgrwt>
<rscale>  0 0.13144468E+03</rscale>
<asrwt>0</asrwt>
<pdfrwt beam="1">  1        1 0.62347365E-01 0.14385973E+03</pdfrwt>
<pdfrwt beam="2">  1       -1 0.13361213E-01 0.14385973E+03</pdfrwt>
<totfact> 0.22557027E+03</totfact>
</mgrwt>
</event>
<event>
 8    1  0.8438969E-004  0.9159927E+02  0.7546771E-02  0.1299647E+00
          1   -1    0    0  501    0  0.00000000000E+00  0.00000000000E+00  0.25236828343E+03  0.25236828343E+03  0.00000000000E+00 0. -1.
         -1   -1    0    0    0  501 -0.00000000000E+00 -0.00000000000E+00 -0.41689869007E+02  0.41689869007E+02  0.00000000000E+00 0.  1.
         23    2    1    2    0    0 -0.27002683224E+01 -0.49700091372E+01  0.17344889925E+03  0.19615031591E+03  0.91424467967E+02 0.  0.
         23    2    1    2    0    0  0.27002683224E+01  0.49700091372E+01  0.37229515171E+02  0.97907836520E+02  0.90376519142E+02 0.  0.
          5    1    3    3  502    0 -0.12875157924E+02  0.16577376141E+02  0.17030694330E+03  0.17165990804E+03  0.47000000000E+01 0. -1.
         -5    1    3    3    0  502  0.10174889602E+02 -0.21547385278E+02  0.31419559469E+01  0.24490407876E+02  0.47000000000E+01 0.  1.
          5    1    4    4  503    0  0.23394329857E+02  0.34642256855E+02  0.43925317272E+02  0.60818616614E+02  0.47000000000E+01 0. -1.
         -5    1    4    4    0  503 -0.20694061535E+02 -0.29672247718E+02 -0.66958021004E+01  0.37089219905E+02  0.47000000000E+01 0.  1.
<mgrwt>
<rscale>  0 0.91336659E+02</rscale>
<asrwt>0</asrwt>
<pdfrwt beam="1">  1        1 0.38825889E-01 0.91599267E+02</pdfrwt>
<pdfrwt beam="2">  1       -1 0.64138262E-02 0.91599267E+02</pdfrwt>
<totfact> 0.11970706E+04</totfact>
</mgrwt>
</event>
<event>
 8    1  0.8438969E-004  0.9089710E+02  0.7546771E-02  0.1305407E+00
          3   -1    0    0  501    0  0.00000000000E+00  0.00000000000E+00  0.22561405790E+03  0.22561405790E+03  0.00000000000E+00 0. -1.
         -3   -1    0    0    0  501 -0.00000000000E+00 -0.00000000000E+00 -0.33715654306E+02  0.33715654306E+02  0.00000000000E+00 0.  1.
         23    2    1    2    0    0  0.11412463007E+02 -0.59343471894E+01  0.86110158389E+02  0.11985413680E+03  0.82368646601E+02 0.  0.
         23    2    1    2    0    0 -0.11412463007E+02  0.59343471894E+01  0.10578824521E+03  0.13947557540E+03  0.89982345610E+02 0.  0.
          5    1    4    4  502    0 -0.29568852917E+02  0.21538907515E+02  0.10881042393E+03  0.11489142682E+03  0.47000000000E+01 0. -1.
         -5    1    4    4    0  502  0.18156389910E+02 -0.15604560325E+02 -0.30221787240E+01  0.24584148587E+02  0.47000000000E+01 0.  1.
          5    1    3    3  503    0 -0.15687834774E+02  0.28765547479E+02  0.15596998819E+02  0.36591272919E+02  0.47000000000E+01 0. -1.
         -5    1    3    3    0  503  0.27100297782E+02 -0.34699894668E+02  0.70513159570E+02  0.83262863885E+02  0.47000000000E+01 0.  1.
<mgrwt>
<rscale>  0 0.88953094E+02</rscale>
<asrwt>0</asrwt>
<pdfrwt beam="1">  1        3 0.34709854E-01 0.90897103E+02</pdfrwt>
<pdfrwt beam="2">  1       -3 0.51870239E-02 0.90897103E+02</pdfrwt>
<totfact> 0.36884135E+03</totfact>
</mgrwt>
</event>
<event>
 8    1  0.8438969E-004  0.1042588E+03  0.7546771E-02  0.1272826E+00
          2   -1    0    0  501    0  0.00000000000E+00  0.00000000000E+00  0.86235579295E+02  0.86235579295E+02  0.00000000000E+00 0. -1.
         -2   -1    0    0    0  501 -0.00000000000E+00 -0.00000000000E+00 -0.13585697830E+03  0.13585697830E+03  0.00000000000E+00 0.  1.
         23    2    1    2    0    0  0.23034296424E+02 -0.36605891779E+02 -0.59115682577E+02  0.11985229105E+03  0.94864838690E+02 0.  0.
         23    2    1    2    0    0 -0.23034296424E+02  0.36605891779E+02  0.94942835751E+01  0.10224026654E+03  0.92154004559E+02 0.  0.
          5    1    4    4  502    0 -0.46083627320E+02  0.15701020167E+01  0.30112695752E+02  0.55272329178E+02  0.47000000000E+01 0. -1.
         -5    1    4    4    0  502  0.23049330896E+02  0.35035789762E+02 -0.20618412177E+02  0.46967937359E+02  0.47000000000E+01 0.  1.
          5    1    3    3  503    0 -0.24419142995E+02  0.16770849844E+02 -0.30475383281E+02  0.42759734976E+02  0.47000000000E+01 0. -1.
         -5    1    3    3    0  503  0.47453439419E+02 -0.53376741623E+02 -0.28640299296E+02  0.77092556078E+02  0.47000000000E+01 0.  1.
<mgrwt>
<rscale>  0 0.10363824E+03</rscale>
<asrwt>0</asrwt>
<pdfrwt beam="1">  1        2 0.13267012E-01 0.10425885E+03</pdfrwt>
<pdfrwt beam="2">  1       -2 0.20901074E-01 0.10425885E+03</pdfrwt>
<totfact> 0.81179553E+03</totfact>
</mgrwt>
</event>
<event>
 8    1  0.8438969E-004  0.9982182E+02  0.7546771E-02  0.1282819E+00
         -2   -1    0    0    0  501 -0.00000000000E+00  0.00000000000E+00  0.26941452686E+02  0.26941452686E+02  0.00000000000E+00 0.  1.
          2   -1    0    0  501    0  0.00000000000E+00 -0.00000000000E+00 -0.54509712250E+03  0.54509712250E+03  0.00000000000E+00 0. -1.
         23    2    1    2    0    0 -0.28661755845E+02  0.19858651872E+02 -0.93736464151E+02  0.13693400227E+03  0.93533598046E+02 0.  0.
         23    2    1    2    0    0  0.28661755845E+02 -0.19858651872E+02 -0.42441920567E+03  0.43510457292E+03  0.89266258668E+02 0.  0.
          5    1    3    3  502    0 -0.25251449288E+02  0.55957242903E+02 -0.70551398747E+02  0.93639941209E+02  0.47000000000E+01 0. -1.
         -5    1    4    4    0  503  0.29442785834E+02 -0.42684855669E+02 -0.39042494028E+03  0.39388145238E+03  0.47000000000E+01 0.  1.
          5    1    4    4  503    0 -0.78102998817E+00  0.22826203797E+02 -0.33994265390E+02  0.41223120540E+02  0.47000000000E+01 0. -1.
         -5    1    3    3    0  502 -0.34103065572E+01 -0.36098591031E+02 -0.23185065404E+02  0.43294061059E+02  0.47000000000E+01 0.  1.
<mgrwt>
<rscale>  0 0.98809805E+02</rscale>
<asrwt>0</asrwt>
<pdfrwt beam="1">  1        2 0.83861096E-01 0.99821823E+02</pdfrwt>
<pdfrwt beam="2">  1       -2 0.41448388E-02 0.99821823E+02</pdfrwt>
<totfact> 0.13588992E+04</totfact>
</mgrwt>
</event>
<event>
 8    1  0.8438969E-004  0.1649601E+03  0.7546771E-02  0.1186493E+00
         -1   -1    0    0    0  501 -0.00000000000E+00  0.00000000000E+00  0.17182978229E+02  0.17182978229E+02  0.00000000000E+00 0.  1.
          1   -1    0    0  501    0  0.00000000000E+00 -0.00000000000E+00 -0.15944287806E+04  0.15944287806E+04  0.00000000000E+00 0. -1.
         23    2    1    2    0    0 -0.49146473909E+02  0.12284556589E+03 -0.59379986264E+03  0.61628735030E+03  0.98516051036E+02 0.  0.
         23    2    1    2    0    0  0.49146473909E+02 -0.12284556589E+03 -0.98344593977E+03  0.99532440857E+03  0.77449034124E+02 0.  0.
          5    1    4    4  502    0  0.64461231890E+02 -0.83280643532E+02 -0.80345723693E+03  0.81034346889E+03  0.47000000000E+01 0. -1.
         -5    1    4    4    0  502 -0.15314757981E+02 -0.39564922355E+02 -0.17998870284E+03  0.18498093968E+03  0.47000000000E+01 0.  1.
          5    1    3    3  503    0 -0.28916198657E+02 -0.87705263383E+01 -0.14163797905E+03  0.14490160726E+03  0.47000000000E+01 0. -1.
         -5    1    3    3    0  503 -0.20230275252E+02  0.13161609222E+03 -0.45216188359E+03  0.47138574304E+03  0.47000000000E+01 0.  1.
<mgrwt>
<rscale>  0 0.16196776E+03</rscale>
<asrwt>0</asrwt>
<pdfrwt beam="1">  1        1 0.24529684E+00 0.16496006E+03</pdfrwt>
<pdfrwt beam="2">  1       -1 0.26435339E-02 0.16496006E+03</pdfrwt>
<totfact> 0.28089341E+03</totfact>
</mgrwt>
</event>
<event>
 8    1  0.8438969E-004  0.9688349E+02  0.7546771E-02  0.1287615E+00
         -1   -1    0    0    0  501 -0.00000000000E+00  0.00000000000E+00  0.10201778895E+03  0.10201778895E+03  0.00000000000E+00 0.  1.
          1   -1    0    0  501    0  0.00000000000E+00 -0.00000000000E+00 -0.97658425735E+02  0.97658425735E+02  0.00000000000E+00 0. -1.
         23    2    1    2    0    0 -0.59926323969E+00 -0.32305004019E+02 -0.24005624406E+02  0.99813229372E+02  0.91336949552E+02 0.  0.
         23    2    1    2    0    0  0.59926323969E+00  0.32305004019E+02  0.28364987622E+02  0.99862985313E+02  0.90133628085E+02 0.  0.
          5    1    4    4  502    0  0.32339082230E+02  0.22092058274E+02 -0.17344061410E+02  0.43090390395E+02  0.47000000000E+01 0. -1.
         -5    1    3    3    0  503 -0.30472064673E+02  0.17908860986E+02  0.19447454849E+01  0.35709187365E+02  0.47000000000E+01 0.  1.
          5    1    3    3  503    0  0.29872801434E+02 -0.50213865005E+02 -0.25950369891E+02  0.64104042007E+02  0.47000000000E+01 0. -1.
         -5    1    4    4    0  502 -0.31739818990E+02  0.10212945745E+02  0.45709049032E+02  0.56772594918E+02  0.47000000000E+01 0.  1.
<mgrwt>
<rscale>  0 0.96598841E+02</rscale>
<asrwt>0</asrwt>
<pdfrwt beam="1">  1        1 0.15024373E-01 0.96883491E+02</pdfrwt>
<pdfrwt beam="2">  1       -1 0.15695044E-01 0.96883491E+02</pdfrwt>
<totfact> 0.10130028E+04</totfact>
</mgrwt>
</event>
<event>
 8    1  0.8438969E-004  0.8975367E+02  0.7546771E-02  0.1314369E+00
          1   -1    0    0  501    0  0.00000000000E+00  0.00000000000E+00  0.14713908570E+03  0.14713908570E+03  0.00000000000E+00 0. -1.
         -1   -1    0    0    0  501 -0.00000000000E+00 -0.00000000000E+00 -0.71905404817E+02  0.71905404817E+02  0.00000000000E+00 0.  1.
         23    2    1    2    0    0  0.16387566845E+00 -0.10911830901E+01  0.10633366476E+03  0.13914945301E+03  0.89746891169E+02 0.  0.
         23    2    1    2    0    0 -0.16387566845E+00  0.10911830901E+01 -0.31099983883E+02  0.79895037507E+02  0.73585259971E+02 0.  0.
          5    1    4    4  502    0  0.20478682248E+02 -0.29445331785E+02 -0.11969661169E+02  0.38102057412E+02  0.47000000000E+01 0. -1.
         -5    1    3    3    0  503  0.11420091297E+02  0.38400978697E+02  0.23777582993E+02  0.46824321704E+02  0.47000000000E+01 0.  1.
          5    1    3    3  503    0 -0.11256215629E+02 -0.39492161787E+02  0.82556081770E+02  0.92325131302E+02  0.47000000000E+01 0. -1.
         -5    1    4    4    0  502 -0.20642557916E+02  0.30536514875E+02 -0.19130322714E+02  0.41792980095E+02  0.47000000000E+01 0.  1.
<mgrwt>
<rscale>  0 0.85408106E+02</rscale>
<asrwt>0</asrwt>
<pdfrwt beam="1">  1        1 0.22636782E-01 0.89753674E+02</pdfrwt>
<pdfrwt beam="2">  1       -1 0.11062370E-01 0.89753674E+02</pdfrwt>
<totfact> 0.10262587E+04</totfact>
</mgrwt>
</event>
<event>
 8    1  0.8438969E-004  0.1016641E+03  0.7546771E-02  0.1277596E+00
         -1   -1    0    0    0  501 -0.00000000000E+00  0.00000000000E+00  0.90331229363E+02  0.90331229363E+02  0.00000000000E+00 0.  1.
          1   -1    0    0  501    0  0.00000000000E+00 -0.00000000000E+00 -0.11594479321E+03  0.11594479321E+03  0.00000000000E+00 0. -1.
         23    2    1    2    0    0 -0.36799936755E+01 -0.39398662452E+02  0.43446143623E+01  0.10028976844E+03  0.92050882799E+02 0.  0.
         23    2    1    2    0    0  0.36799936755E+01  0.39398662452E+02 -0.29958178214E+02  0.10598625413E+03  0.93647192520E+02 0.  0.
          5    1    4    4  502    0  0.47155260941E+02  0.22739262975E+02 -0.46013394274E+01  0.52763197777E+02  0.47000000000E+01 0. -1.
         -5    1    4    4    0  502 -0.43475267266E+02  0.16659399477E+02 -0.25356838787E+02  0.53223056357E+02  0.47000000000E+01 0.  1.
          5    1    3    3  503    0  0.39465467034E+02 -0.15000010791E+02 -0.17468786364E+02  0.45932253471E+02  0.47000000000E+01 0. -1.
         -5    1    3    3    0  503 -0.43145460709E+02 -0.24398651661E+02  0.21813400727E+02  0.54357514972E+02  0.47000000000E+01 0.  1.
<mgrwt>
<rscale>  0 0.10129499E+03</rscale>
<asrwt>0</asrwt>
<pdfrwt beam="1">  1        1 0.17837660E-01 0.10166412E+03</pdfrwt>
<pdfrwt beam="2">  1       -1 0.13897112E-01 0.10166412E+03</pdfrwt>
<totfact> 0.98734678E+03</totfact>
</mgrwt>
</event>
<event>
 7    1  0.8438969E-004  0.1440107E+03  0.7546771E-02  0.1225483E+00
         -1   -1    0    0    0  501 -0.00000000000E+00  0.00000000000E+00  0.39047117123E+02  0.39047117123E+02  0.00000000000E+00 0.  1.
          1   -1    0    0  501    0  0.00000000000E+00 -0.00000000000E+00 -0.77213123503E+03  0.77213123503E+03  0.00000000000E+00 0. -1.
         23    2    1    2    0    0 -0.39572817349E+02 -0.47414044357E+02 -0.47028939898E+02  0.11017136262E+03  0.78178695809E+02 0.  0.
          5    1    1    2  502    0  0.86997770278E+02  0.35983287846E+02 -0.48393066012E+03  0.49302574257E+03  0.47000000000E+01 0. -1.
         -5    1    3    3    0  503 -0.30420251736E+02 -0.68700969645E+02 -0.30022278668E+02  0.81047160112E+02  0.47000000000E+01 0.  1.
          5    1    3    3  503    0 -0.91525656124E+01  0.21286925288E+02 -0.17006661230E+02  0.29124202508E+02  0.47000000000E+01 0. -1.
         -5    1    1    2    0  502 -0.47424952929E+02  0.11430756510E+02 -0.20212451789E+03  0.20798124696E+03  0.47000000000E+01 0.  1.
<mgrwt>
<rscale>  0 0.13133878E+03</rscale>
<asrwt>0</asrwt>
<pdfrwt beam="1">  1        1 0.11878942E+00 0.14401074E+03</pdfrwt>
<pdfrwt beam="2">  1       -1 0.60072488E-02 0.14401074E+03</pdfrwt>
<totfact> 0.31837713E+03</totfact>
</mgrwt>
</event>
<event>
 8    1  0.8438969E-004  0.1037288E+03  0.7546771E-02  0.1273919E+00
          1   -1    0    0  501    0  0.00000000000E+00  0.00000000000E+00  0.51070766612E+02  0.51070766612E+02  0.00000000000E+00 0. -1.
         -1   -1    0    0    0  501 -0.00000000000E+00 -0.00000000000E+00 -0.22817267285E+03  0.22817267285E+03  0.00000000000E+00 0.  1.
         23    2    1    2    0    0 -0.16244688578E+01  0.43528979872E+02 -0.45627382898E+02  0.11332042525E+03  0.94139522632E+02 0.  0.
         23    2    1    2    0    0  0.16244688578E+01 -0.43528979872E+02 -0.13147452334E+03  0.16592301421E+03  0.91364573928E+02 0.  0.
          5    1    3    3  502    0 -0.34058457620E+02  0.44433011291E+02  0.11553958524E+01  0.56193380103E+02  0.47000000000E+01 0. -1.
         -5    1    3    3    0  502  0.32433988762E+02 -0.90403141869E+00 -0.46782778750E+02  0.57127045149E+02  0.47000000000E+01 0.  1.
          5    1    4    4  503    0 -0.55189930963E+01  0.28051388135E+02 -0.33627045581E+02  0.44387023505E+02  0.47000000000E+01 0. -1.
         -5    1    4    4    0  503  0.71434619541E+01 -0.71580368007E+02 -0.97847477755E+02  0.12153599070E+03  0.47000000000E+01 0.  1.
<mgrwt>
<rscale>  0 0.10309507E+03</rscale>
<asrwt>0</asrwt>
<pdfrwt beam="1">  1        1 0.78570411E-02 0.10372878E+03</pdfrwt>
<pdfrwt beam="2">  1       -1 0.35103488E-01 0.10372878E+03</pdfrwt>
<totfact> 0.64400344E+03</totfact>
</mgrwt>
</event>
<event>
 8    1  0.8438969E-004  0.1344348E+03  0.7546771E-02  0.1222083E+00
          1   -1    0    0  501    0  0.00000000000E+00  0.00000000000E+00  0.34098627471E+03  0.34098627471E+03  0.00000000000E+00 0. -1.
         -1   -1    0    0    0  501 -0.00000000000E+00 -0.00000000000E+00 -0.69157770056E+02  0.69157770056E+02  0.00000000000E+00 0.  1.
         23    2    1    2    0    0  0.59912764406E+01 -0.94206145363E+02  0.23739342160E+03  0.27136912225E+03  0.91514319507E+02 0.  0.
         23    2    1    2    0    0 -0.59912764406E+01  0.94206145363E+02  0.34435083051E+02  0.13877492251E+03  0.95718394032E+02 0.  0.
          5    1    3    3  502    0 -0.30373157729E+02 -0.46355897555E+02  0.17899698390E+03  0.18743907862E+03  0.47000000000E+01 0. -1.
         -5    1    4    4    0  503  0.42798963785E+02  0.25679339439E+02  0.14672908660E+02  0.52235658545E+02  0.47000000000E+01 0.  1.
          5    1    4    4  503    0 -0.48790240226E+02  0.68526805924E+02  0.19762174391E+02  0.86539263967E+02  0.47000000000E+01 0. -1.
         -5    1    3    3    0  502  0.36364434170E+02 -0.47850247808E+02  0.58396437698E+02  0.83930043629E+02  0.47000000000E+01 0.  1.
<mgrwt>
<rscale>  0 0.13368852E+03</rscale>
<asrwt>0</asrwt>
<pdfrwt beam="1">  1        1 0.52459426E-01 0.13443476E+03</pdfrwt>
<pdfrwt beam="2">  1       -1 0.10639657E-01 0.13443476E+03</pdfrwt>
<totfact> 0.39699337E+03</totfact>
</mgrwt>
</event>
<event>
 8    1  0.8438969E-004  0.1019662E+03  0.7546771E-02  0.1276515E+00
         -2   -1    0    0    0  501 -0.00000000000E+00  0.00000000000E+00  0.53655403840E+02  0.53655403840E+02  0.00000000000E+00 0.  1.
          2   -1    0    0  501    0  0.00000000000E+00 -0.00000000000E+00 -0.20636380131E+03  0.20636380131E+03  0.00000000000E+00 0. -1.
         23    2    1    2    0    0  0.27995947755E+02  0.37596979441E+02 -0.11005199476E+03  0.15002851700E+03  0.90552793487E+02 0.  0.
         23    2    1    2    0    0 -0.27995947755E+02 -0.37596979441E+02 -0.42656402708E+02  0.10999068815E+03  0.89894809826E+02 0.  0.
          5    1    4    4  502    0  0.17578125798E+01 -0.57579738583E+02 -0.53516307857E+01  0.58045207834E+02  0.47000000000E+01 0. -1.
         -5    1    3    3    0  503  0.10948465398E+01  0.20267990483E+02  0.11809014238E+02  0.23948547857E+02  0.47000000000E+01 0.  1.
          5    1    3    3  503    0  0.26901101215E+02  0.17328988958E+02 -0.12186100900E+03  0.12607996914E+03  0.47000000000E+01 0. -1.
         -5    1    4    4    0  502 -0.29753760335E+02  0.19982759142E+02 -0.37304771923E+02  0.51945480315E+02  0.47000000000E+01 0.  1.
<mgrwt>
<rscale>  0 0.10181996E+03</rscale>
<asrwt>0</asrwt>
<pdfrwt beam="1">  1        2 0.31748276E-01 0.10196624E+03</pdfrwt>
<pdfrwt beam="2">  1       -2 0.82546777E-02 0.10196624E+03</pdfrwt>
<totfact> 0.13542730E+04</totfact>
</mgrwt>
</event>
<event>
 8    1  0.8438969E-004  0.9557036E+02  0.7546771E-02  0.1293197E+00
          3   -1    0    0  501    0  0.00000000000E+00  0.00000000000E+00  0.17357748988E+03  0.17357748988E+03  0.00000000000E+00 0. -1.
         -3   -1    0    0    0  501 -0.00000000000E+00 -0.00000000000E+00 -0.80780425868E+02  0.80780425868E+02  0.00000000000E+00 0.  1.
         23    2    1    2    0    0 -0.37306711355E+01 -0.21159670098E+02  0.12636680644E+03  0.15843694057E+03  0.93123814468E+02 0.  0.
         23    2    1    2    0    0  0.37306711355E+01  0.21159670098E+02 -0.33569742430E+02  0.95920975177E+02  0.87248245406E+02 0.  0.
          5    1    4    4  502    0 -0.37869012817E+02  0.24087584524E+02 -0.29149919193E+02  0.53722263997E+02  0.47000000000E+01 0. -1.
         -5    1    4    4    0  502  0.41599683953E+02 -0.29279144259E+01 -0.44198232369E+01  0.42198711181E+02  0.47000000000E+01 0.  1.
          5    1    3    3  503    0 -0.11012222792E+02 -0.53352732248E+02  0.10626114721E+03  0.11950441203E+03  0.47000000000E+01 0. -1.
         -5    1    3    3    0  503  0.72815516567E+01  0.32193062150E+02  0.20105659234E+02  0.38932528538E+02  0.47000000000E+01 0.  1.
<mgrwt>
<rscale>  0 0.94108291E+02</rscale>
<asrwt>0</asrwt>
<pdfrwt beam="1">  1        3 0.26704229E-01 0.95570363E+02</pdfrwt>
<pdfrwt beam="2">  1       -3 0.12427758E-01 0.95570363E+02</pdfrwt>
<totfact> 0.14710732E+03</totfact>
</mgrwt>
</event>
<event>
 8    1  0.8438969E-004  0.9728164E+02  0.7546771E-02  0.1286999E+00
         -2   -1    0    0    0  501 -0.00000000000E+00  0.00000000000E+00  0.11830664928E+02  0.11830664928E+02  0.00000000000E+00 0.  1.
          2   -1    0    0  501    0  0.00000000000E+00 -0.00000000000E+00 -0.94731089269E+03  0.94731089269E+03  0.00000000000E+00 0. -1.
         23    2    1    2    0    0  0.28434747654E+02 -0.88990457744E+01 -0.26713783109E+03  0.28375627724E+03  0.90924563161E+02 0.  0.
         23    2    1    2    0    0 -0.28434747654E+02  0.88990457744E+01 -0.66834239667E+03  0.67538528037E+03  0.92606640508E+02 0.  0.
          5    1    3    3  502    0 -0.11267602272E+02  0.28246988823E+02 -0.16605987809E+03  0.16888701653E+03  0.47000000000E+01 0. -1.
         -5    1    3    3    0  502  0.39702349925E+02 -0.37146034598E+02 -0.10107795299E+03  0.11486926072E+03  0.47000000000E+01 0.  1.
          5    1    4    4  503    0  0.29809483931E+02  0.21404286802E+02 -0.22228344355E+03  0.22534144781E+03  0.47000000000E+01 0.  1.
         -5    1    4    4    0  503 -0.58244231585E+02 -0.12505241028E+02 -0.44605895312E+03  0.45004383256E+03  0.47000000000E+01 0. -1.
<mgrwt>
<rscale>  0 0.96879187E+02</rscale>
<asrwt>0</asrwt>
<pdfrwt beam="1">  1        2 0.14574014E+00 0.97281641E+02</pdfrwt>
<pdfrwt beam="2">  1       -2 0.18201022E-02 0.97281641E+02</pdfrwt>
<totfact> 0.23239354E+04</totfact>
</mgrwt>
</event>
<event>
 8    1  0.8438969E-004  0.1294618E+03  0.7546771E-02  0.1228336E+00
          1   -1    0    0  501    0  0.00000000000E+00  0.00000000000E+00  0.16126600328E+03  0.16126600328E+03  0.00000000000E+00 0. -1.
         -1   -1    0    0    0  501 -0.00000000000E+00 -0.00000000000E+00 -0.14834031280E+03  0.14834031280E+03  0.00000000000E+00 0.  1.
         23    2    1    2    0    0 -0.26295104895E+02  0.89356158381E+02 -0.78397674699E+02  0.15134908661E+03  0.89913263968E+02 0.  0.
         23    2    1    2    0    0  0.26295104895E+02 -0.89356158381E+02  0.91323365182E+02  0.15825722947E+03  0.89607131795E+02 0.  0.
          5    1    3    3  502    0  0.31745817559E+02  0.18163469818E+02 -0.29246559643E+02  0.47065484373E+02  0.47000000000E+01 0. -1.
         -5    1    4    4    0  503  0.14551656542E+02  0.15958740089E+02  0.23985819765E+02  0.32616585400E+02  0.47000000000E+01 0.  1.
          5    1    4    4  503    0  0.11743448353E+02 -0.10531489847E+03  0.67337545417E+02  0.12564064407E+03  0.47000000000E+01 0. -1.
         -5    1    3    3    0  502 -0.58040922455E+02  0.71192688563E+02 -0.49151115056E+02  0.10428360224E+03  0.47000000000E+01 0.  1.
<mgrwt>
<rscale>  0 0.12940863E+03</rscale>
<asrwt>0</asrwt>
<pdfrwt beam="1">  1        1 0.24810154E-01 0.12946177E+03</pdfrwt>
<pdfrwt beam="2">  1       -1 0.22821587E-01 0.12946177E+03</pdfrwt>
<totfact> 0.30200770E+03</totfact>
</mgrwt>
</event>
<event>
 8    1  0.8438969E-004  0.9201120E+02  0.7546771E-02  0.1298561E+00
          4   -1    0    0  501    0  0.00000000000E+00  0.00000000000E+00  0.60279149222E+02  0.60279149222E+02  0.00000000000E+00 0. -1.
         -4   -1    0    0    0  501 -0.00000000000E+00 -0.00000000000E+00 -0.14533818188E+03  0.14533818188E+03  0.00000000000E+00 0.  1.
         23    2    1    2    0    0 -0.12946680152E+02  0.18936190289E+02 -0.21485310015E+02  0.94486399729E+02  0.89105922124E+02 0.  0.
         23    2    1    2    0    0  0.12946680152E+02 -0.18936190289E+02 -0.63573722641E+02  0.11113093137E+03  0.88217174448E+02 0.  0.
          5    1    3    3  502    0 -0.36591251036E+02  0.12419532992E+02 -0.45473545737E+02  0.59858982735E+02  0.47000000000E+01 0. -1.
         -5    1    4    4    0  503  0.22600541165E+02  0.99651649374E+01 -0.74337620122E+02  0.78474586578E+02  0.47000000000E+01 0.  1.
          5    1    4    4  503    0 -0.96538610131E+01 -0.28901355226E+02  0.10763897481E+02  0.32656344795E+02  0.47000000000E+01 0. -1.
         -5    1    3    3    0  502  0.23644570884E+02  0.65166572962E+01  0.23988235722E+02  0.34627416994E+02  0.47000000000E+01 0.  1.
<mgrwt>
<rscale>  0 0.91795339E+02</rscale>
<asrwt>0</asrwt>
<pdfrwt beam="1">  1        4 0.92737154E-02 0.92011201E+02</pdfrwt>
<pdfrwt beam="2">  1       -4 0.22359720E-01 0.92011201E+02</pdfrwt>
<totfact> 0.23651732E+03</totfact>
</mgrwt>
</event>
<event>
 8    1  0.8438969E-004  0.1501853E+03  0.7546771E-02  0.1200468E+00
          3   -1    0    0  501    0  0.00000000000E+00  0.00000000000E+00  0.75098700258E+03  0.75098700258E+03  0.00000000000E+00 0. -1.
         -3   -1    0    0    0  501 -0.00000000000E+00 -0.00000000000E+00 -0.34241992847E+02  0.34241992847E+02  0.00000000000E+00 0.  1.
         23    2    1    2    0    0 -0.76793246334E+01 -0.11831549482E+03  0.49758566287E+03  0.51954791851E+03  0.91000106577E+02 0.  0.
         23    2    1    2    0    0  0.76793246334E+01  0.11831549482E+03  0.21915934687E+03  0.26568107692E+03  0.92185069135E+02 0.  0.
          5    1    3    3  502    0 -0.24887808634E+02 -0.17807423077E+02  0.24753549506E+03  0.24946426327E+03  0.47000000000E+01 0. -1.
         -5    1    3    3    0  502  0.17208484001E+02 -0.10050807174E+03  0.25005016781E+03  0.27008365524E+03  0.47000000000E+01 0.  1.
          5    1    4    4  503    0  0.32426236146E+02  0.11321590678E+03  0.14305310199E+03  0.18535258921E+03  0.47000000000E+01 0. -1.
         -5    1    4    4    0  503 -0.24746911513E+02  0.50995880366E+01  0.76106244874E+02  0.80328487701E+02  0.47000000000E+01 0.  1.
<mgrwt>
<rscale>  0 0.15000384E+03</rscale>
<asrwt>0</asrwt>
<pdfrwt beam="1">  1        3 0.11553645E+00 0.15018527E+03</pdfrwt>
<pdfrwt beam="2">  1       -3 0.52679995E-02 0.15018527E+03</pdfrwt>
<totfact> 0.32109308E+02</totfact>
</mgrwt>
</event>
<event>
 7    1  0.8438969E-004  0.2522329E+03  0.7546771E-02  0.1139870E+00
         -4   -1    0    0    0  501 -0.00000000000E+00  0.00000000000E+00  0.15016963935E+03  0.15016963935E+03  0.00000000000E+00 0.  1.
          4   -1    0    0  501    0  0.00000000000E+00 -0.00000000000E+00 -0.25309805600E+03  0.25309805600E+03  0.00000000000E+00 0. -1.
         23    2    1    2    0    0  0.72653843711E+02 -0.73122759761E+02 -0.81191437374E+02  0.15009987242E+03  0.72886234609E+02 0.  0.
          5    1    3    3  502    0  0.78103508957E+02 -0.36710649998E+02 -0.41900575869E+02  0.96049873466E+02  0.47000000000E+01 0. -1.
         -5    1    1    2    0  503 -0.99491393722E+02 -0.59644184793E+02 -0.13031940338E+01  0.11610234502E+03  0.47000000000E+01 0.  1.
          5    1    1    2  503    0  0.26837550011E+02  0.13276694455E+03 -0.20433785244E+02  0.13706547792E+03  0.47000000000E+01 0. -1.
         -5    1    3    3    0  502 -0.54496652464E+01 -0.36412109763E+02 -0.39290861506E+02  0.54049998951E+02  0.47000000000E+01 0.  1.
<mgrwt>
<rscale>  0 0.21215599E+03</rscale>
<asrwt>0</asrwt>
<pdfrwt beam="1">  1        4 0.38938162E-01 0.25223293E+03</pdfrwt>
<pdfrwt beam="2">  1       -4 0.23103021E-01 0.25223293E+03</pdfrwt>
<totfact> 0.20431752E+02</totfact>
</mgrwt>
</event>
<event>
 8    1  0.8438969E-004  0.9181989E+02  0.7546771E-02  0.1298582E+00
          1   -1    0    0  501    0  0.00000000000E+00  0.00000000000E+00  0.28005332141E+02  0.28005332141E+02  0.00000000000E+00 0. -1.
         -1   -1    0    0    0  501 -0.00000000000E+00 -0.00000000000E+00 -0.30772469313E+03  0.30772469313E+03  0.00000000000E+00 0.  1.
         23    2    1    2    0    0 -0.24156849219E+02  0.20161860534E+01 -0.11443403573E+03  0.14671755327E+03  0.88562257954E+02 0.  0.
         23    2    1    2    0    0  0.24156849219E+02 -0.20161860534E+01 -0.16528532526E+03  0.18901247200E+03  0.88424303531E+02 0.  0.
          5    1    4    4  502    0  0.51861492954E+01  0.40159116672E+02 -0.10672939468E+03  0.11424930846E+03  0.47000000000E+01 0. -1.
         -5    1    3    3    0  503 -0.54641488416E+00 -0.30246226052E+02 -0.98967331166E+02  0.10359418612E+03  0.47000000000E+01 0.  1.
          5    1    3    3  503    0 -0.23610434334E+02  0.32262412106E+02 -0.15466704563E+02  0.43123367150E+02  0.47000000000E+01 0. -1.
         -5    1    4    4    0  502  0.18970699923E+02 -0.42175302725E+02 -0.58555930583E+02  0.74763163536E+02  0.47000000000E+01 0.  1.
<mgrwt>
<rscale>  0 0.91786607E+02</rscale>
<asrwt>0</asrwt>
<pdfrwt beam="1">  1        1 0.43085124E-02 0.91819888E+02</pdfrwt>
<pdfrwt beam="2">  1       -1 0.47342263E-01 0.91819888E+02</pdfrwt>
<totfact> 0.84873406E+03</totfact>
</mgrwt>
</event>
<event>
 8    1  0.8438969E-004  0.9034703E+02  0.7546771E-02  0.1302191E+00
          1   -1    0    0  501    0  0.00000000000E+00  0.00000000000E+00  0.49134678101E+03  0.49134678101E+03  0.00000000000E+00 0. -1.
         -1   -1    0    0    0  501 -0.00000000000E+00 -0.00000000000E+00 -0.18712921512E+02  0.18712921512E+02  0.00000000000E+00 0.  1.
         23    2    1    2    0    0 -0.31219853783E+01  0.11454825889E+02  0.32318741603E+03  0.33557814548E+03  0.89563530610E+02 0.  0.
         23    2    1    2    0    0  0.31219853783E+01 -0.11454825889E+02  0.14944644347E+03  0.17448155704E+03  0.89267096140E+02 0.  0.
          5    1    4    4  502    0  0.18573689313E+02  0.28615801631E+02  0.11244149776E+03  0.11759688115E+03  0.47000000000E+01 0. -1.
         -5    1    4    4    0  502 -0.15451703935E+02 -0.40070627520E+02  0.37004945709E+02  0.56884675891E+02  0.47000000000E+01 0.  1.
          5    1    3    3  503    0 -0.29250022572E+02  0.34741573611E+02  0.10423336300E+03  0.11379466033E+03  0.47000000000E+01 0. -1.
         -5    1    3    3    0  503  0.26128037194E+02 -0.23286747722E+02  0.21895405304E+03  0.22178348516E+03  0.47000000000E+01 0.  1.
<mgrwt>
<rscale>  0 0.90273476E+02</rscale>
<asrwt>0</asrwt>
<pdfrwt beam="1">  1        1 0.75591802E-01 0.90347030E+02</pdfrwt>
<pdfrwt beam="2">  1       -1 0.28789114E-02 0.90347030E+02</pdfrwt>
<totfact> 0.16845087E+04</totfact>
</mgrwt>
</event>
<event>
 8    1  0.8438969E-004  0.1025182E+03  0.7546771E-02  0.1280042E+00
          1   -1    0    0  501    0  0.00000000000E+00  0.00000000000E+00  0.41985114081E+03  0.41985114081E+03  0.00000000000E+00 0. -1.
         -1   -1    0    0    0  501 -0.00000000000E+00 -0.00000000000E+00 -0.32748964395E+02  0.32748964395E+02  0.00000000000E+00 0.  1.
         23    2    1    2    0    0 -0.29790660482E+02 -0.12433890314E+02  0.75439816178E+02  0.12728369682E+03  0.97303075646E+02 0.  0.
         23    2    1    2    0    0  0.29790660482E+02  0.12433890314E+02  0.31166236024E+03  0.32531640839E+03  0.87494306658E+02 0.  0.
          5    1    4    4  502    0  0.30298836537E+02 -0.78329109884E+01  0.29959141676E+03  0.30125816335E+03  0.47000000000E+01 0. -1.
         -5    1    4    4    0  502 -0.50817605540E+00  0.20266801302E+02  0.12070943484E+02  0.24058245042E+02  0.47000000000E+01 0.  1.
          5    1    3    3  503    0  0.35018699701E+02 -0.12181245099E+02  0.24107448659E+02  0.44474162632E+02  0.47000000000E+01 0. -1.
         -5    1    3    3    0  503 -0.64809360183E+02 -0.25264521476E+00  0.51332367519E+02  0.82809534185E+02  0.47000000000E+01 0.  1.
<mgrwt>
<rscale>  0 0.10012071E+03</rscale>
<asrwt>0</asrwt>
<pdfrwt beam="1">  1        1 0.64592479E-01 0.10251816E+03</pdfrwt>
<pdfrwt beam="2">  1       -1 0.50383025E-02 0.10251816E+03</pdfrwt>
<totfact> 0.92174602E+03</totfact>
</mgrwt>
</event>
<event>
 8    1  0.8438969E-004  0.1121622E+03  0.7546771E-02  0.1257017E+00
         -4   -1    0    0    0  501 -0.00000000000E+00  0.00000000000E+00  0.21512201394E+03  0.21512201394E+03  0.00000000000E+00 0.  1.
          4   -1    0    0  501    0  0.00000000000E+00 -0.00000000000E+00 -0.74916643285E+02  0.74916643285E+02  0.00000000000E+00 0. -1.
         23    2    1    2    0    0  0.63616399037E+02  0.10035896689E+02  0.13918567149E+03  0.17875404202E+03  0.91829139939E+02 0.  0.
         23    2    1    2    0    0 -0.63616399037E+02 -0.10035896689E+02  0.10196991608E+01  0.11128461520E+03  0.90749437161E+02 0.  0.
          5    1    4    4  502    0 -0.60181789215E+02 -0.29931995116E+02 -0.30177572316E+02  0.73827826432E+02  0.47000000000E+01 0. -1.
         -5    1    3    3    0  503  0.82595485018E+02 -0.10785073487E+02  0.99285115567E+02  0.12968406274E+03  0.47000000000E+01 0.  1.
          5    1    3    3  503    0 -0.18979085980E+02  0.20820970177E+02  0.39900555924E+02  0.49069979283E+02  0.47000000000E+01 0. -1.
         -5    1    4    4    0  502 -0.34346098225E+01  0.19896098427E+02  0.31197271477E+02  0.37456788768E+02  0.47000000000E+01 0.  1.
<mgrwt>
<rscale>  0 0.11194097E+03</rscale>
<asrwt>0</asrwt>
<pdfrwt beam="1">  1        4 0.11525638E-01 0.11216219E+03</pdfrwt>
<pdfrwt beam="2">  1       -4 0.33095694E-01 0.11216219E+03</pdfrwt>
<totfact> 0.83242199E+02</totfact>
</mgrwt>
</event>
<event>
 8    1  0.8438969E-004  0.1135461E+03  0.7546771E-02  0.1254770E+00
         -2   -1    0    0    0  501 -0.00000000000E+00  0.00000000000E+00  0.19904144780E+03  0.19904144780E+03  0.00000000000E+00 0.  1.
          2   -1    0    0  501    0  0.00000000000E+00 -0.00000000000E+00 -0.10404364584E+03  0.10404364584E+03  0.00000000000E+00 0. -1.
         23    2    1    2    0    0 -0.29737151648E+02 -0.58847080893E+02  0.14136170672E+03  0.18043793800E+03  0.90705238132E+02 0.  0.
         23    2    1    2    0    0  0.29737151648E+02  0.58847080893E+02 -0.46363904764E+02  0.12264715564E+03  0.92441527489E+02 0.  0.
          5    1    4    4  502    0  0.24150865894E+02  0.83905451346E+02 -0.36296899432E+02  0.94672826077E+02  0.47000000000E+01 0. -1.
         -5    1    3    3    0  503  0.17692078228E+02 -0.51420710964E+02  0.38397997323E+02  0.66735263141E+02  0.47000000000E+01 0.  1.
          5    1    3    3  503    0 -0.47429229876E+02 -0.74263699290E+01  0.10296370940E+03  0.11370267486E+03  0.47000000000E+01 0. -1.
         -5    1    4    4    0  502  0.55862857542E+01 -0.25058370453E+02 -0.10067005332E+02  0.27974329566E+02  0.47000000000E+01 0.  1.
<mgrwt>
<rscale>  0 0.11319217E+03</rscale>
<asrwt>0</asrwt>
<pdfrwt beam="1">  1        2 0.16006715E-01 0.11354608E+03</pdfrwt>
<pdfrwt beam="2">  1       -2 0.30621761E-01 0.11354608E+03</pdfrwt>
<totfact> 0.33737546E+03</totfact>
</mgrwt>
</event>
<event>
 8    1  0.8438969E-004  0.1008073E+03  0.7546771E-02  0.1279764E+00
         -2   -1    0    0    0  501 -0.00000000000E+00  0.00000000000E+00  0.28566406579E+03  0.28566406579E+03  0.00000000000E+00 0.  1.
          2   -1    0    0  501    0  0.00000000000E+00 -0.00000000000E+00 -0.34872748499E+02  0.34872748499E+02  0.00000000000E+00 0. -1.
         23    2    1    2    0    0 -0.46940525032E+02 -0.37579603172E+01  0.11680873624E+03  0.15286620289E+03  0.86638674786E+02 0.  0.
         23    2    1    2    0    0  0.46940525032E+02  0.37579603172E+01  0.13398258105E+03  0.16767061140E+03  0.89132299114E+02 0.  0.
          5    1    4    4  502    0  0.49154133864E+02  0.40356975495E+02  0.87784249649E+02  0.10850335863E+03  0.47000000000E+01 0. -1.
         -5    1    4    4    0  502 -0.22136088318E+01 -0.36599015178E+02  0.46198331403E+02  0.59167252771E+02  0.47000000000E+01 0.  1.
          5    1    3    3  503    0 -0.64780276495E+02  0.87868699880E+01  0.50016391669E+02  0.82446484113E+02  0.47000000000E+01 0. -1.
         -5    1    3    3    0  503  0.17839751463E+02 -0.12544830305E+02  0.66792344572E+02  0.70419718781E+02  0.47000000000E+01 0.  1.
<mgrwt>
<rscale>  0 0.10025321E+03</rscale>
<asrwt>0</asrwt>
<pdfrwt beam="1">  1        2 0.53650384E-02 0.10080725E+03</pdfrwt>
<pdfrwt beam="2">  1       -2 0.43948316E-01 0.10080725E+03</pdfrwt>
<totfact> 0.65328703E+03</totfact>
</mgrwt>
</event>
<event>
 8    1  0.8438969E-004  0.1106658E+03  0.7546771E-02  0.1266120E+00
         -1   -1    0    0    0  501 -0.00000000000E+00  0.00000000000E+00  0.25113485193E+02  0.25113485193E+02  0.00000000000E+00 0.  1.
          1   -1    0    0  501    0  0.00000000000E+00 -0.00000000000E+00 -0.81245751001E+03  0.81245751001E+03  0.00000000000E+00 0. -1.
         23    2    1    2    0    0 -0.31126117568E+02  0.62196816410E+01 -0.69482022773E+03  0.70357804770E+03  0.10601603990E+03 0.  0.
         23    2    1    2    0    0  0.31126117568E+02 -0.62196816410E+01 -0.92523797087E+02  0.13399294750E+03  0.91574763540E+02 0.  0.
          5    1    4    4  502    0  0.24617227548E+02 -0.46597465968E+02 -0.35715175791E+02  0.63835691494E+02  0.47000000000E+01 0. -1.
         -5    1    3    3    0  503 -0.57630559676E+02  0.30508460896E+02 -0.56566337451E+03  0.56942882861E+03  0.47000000000E+01 0.  1.
          5    1    3    3  503    0  0.26504442108E+02 -0.24288779255E+02 -0.12915685322E+03  0.13414921909E+03  0.47000000000E+01 0. -1.
         -5    1    4    4    0  502  0.65088900194E+01  0.40377784327E+02 -0.56808621296E+02  0.70157256004E+02  0.47000000000E+01 0.  1.
<mgrwt>
<rscale>  0 0.10705656E+03</rscale>
<asrwt>0</asrwt>
<pdfrwt beam="1">  1        1 0.12499345E+00 0.11066580E+03</pdfrwt>
<pdfrwt beam="2">  1       -1 0.38636135E-02 0.11066580E+03</pdfrwt>
<totfact> 0.55948976E+03</totfact>
</mgrwt>
</event>
<event>
 8    1  0.8438969E-004  0.9711272E+02  0.7546771E-02  0.1288143E+00
         -1   -1    0    0    0  501 -0.00000000000E+00  0.00000000000E+00  0.32653086386E+03  0.32653086386E+03  0.00000000000E+00 0.  1.
          1   -1    0    0  501    0  0.00000000000E+00 -0.00000000000E+00 -0.30060615588E+02  0.30060615588E+02  0.00000000000E+00 0. -1.
         23    2    1    2    0    0 -0.19492713777E+02 -0.75448370906E+01  0.99444323635E+02  0.13693243538E+03  0.91784682262E+02 0.  0.
         23    2    1    2    0    0  0.19492713777E+02  0.75448370906E+01  0.19702592464E+03  0.21965904407E+03  0.94836650119E+02 0.  0.
          5    1    3    3  502    0  0.22284367236E+02  0.12906602590E+02  0.83547318569E+02  0.87552372062E+02  0.47000000000E+01 0. -1.
         -5    1    4    4    0  503 -0.20456189450E+01  0.36414991531E+02  0.17116073961E+03  0.17506663002E+03  0.47000000000E+01 0.  1.
          5    1    4    4  503    0  0.21538332722E+02 -0.28870154441E+02  0.25865185029E+02  0.44592414046E+02  0.47000000000E+01 0. -1.
         -5    1    3    3    0  502 -0.41777081013E+02 -0.20451439681E+02  0.15897005066E+02  0.49380063315E+02  0.47000000000E+01 0.  1.
<mgrwt>
<rscale>  0 0.96359466E+02</rscale>
<asrwt>0</asrwt>
<pdfrwt beam="1">  1        1 0.46247103E-02 0.97112721E+02</pdfrwt>
<pdfrwt beam="2">  1       -1 0.50235515E-01 0.97112721E+02</pdfrwt>
<totfact> 0.69643251E+03</totfact>
</mgrwt>
</event>
<event>
 8    1  0.8438969E-004  0.9548468E+02  0.7546771E-02  0.1290780E+00
          1   -1    0    0  501    0  0.00000000000E+00  0.00000000000E+00  0.31794360237E+03  0.31794360237E+03  0.00000000000E+00 0. -1.
         -1   -1    0    0    0  501 -0.00000000000E+00 -0.00000000000E+00 -0.29065746683E+02  0.29065746683E+02  0.00000000000E+00 0.  1.
         23    2    1    2    0    0  0.25456949477E+02 -0.41460575357E+00  0.11733948750E+03  0.15128079759E+03  0.92027692668E+02 0.  0.
         23    2    1    2    0    0 -0.25456949477E+02  0.41460575357E+00  0.17153836819E+03  0.19572855146E+03  0.90752553261E+02 0.  0.
          5    1    4    4  502    0 -0.52692358069E+02 -0.20948953907E+02  0.83791438481E+02  0.10128394953E+03  0.47000000000E+01 0. -1.
         -5    1    4    4    0  502  0.27235408593E+02  0.21363559661E+02  0.87746929705E+02  0.94444601938E+02  0.47000000000E+01 0.  1.
          5    1    3    3  503    0  0.26386141791E+02 -0.34001717877E+02  0.10759971951E+03  0.11598333904E+03  0.47000000000E+01 0. -1.
         -5    1    3    3    0  503 -0.92919231447E+00  0.33587112124E+02  0.97397679883E+01  0.35297458544E+02  0.47000000000E+01 0.  1.
<mgrwt>
<rscale>  0 0.95176099E+02</rscale>
<asrwt>0</asrwt>
<pdfrwt beam="1">  1        1 0.48914398E-01 0.95484681E+02</pdfrwt>
<pdfrwt beam="2">  1       -1 0.44716536E-02 0.95484681E+02</pdfrwt>
<totfact> 0.15392059E+04</totfact>
</mgrwt>
</event>
<event>
 8    1  0.8438969E-004  0.1097392E+03  0.7546771E-02  0.1262696E+00
         -1   -1    0    0    0  501 -0.00000000000E+00  0.00000000000E+00  0.11961350083E+03  0.11961350083E+03  0.00000000000E+00 0.  1.
          1   -1    0    0  501    0  0.00000000000E+00 -0.00000000000E+00 -0.11293283943E+03  0.11293283943E+03  0.00000000000E+00 0. -1.
         23    2    1    2    0    0  0.43851814042E+02  0.41389360771E+02 -0.39660454948E+02  0.11342379367E+03  0.87498254289E+02 0.  0.
         23    2    1    2    0    0 -0.43851814042E+02 -0.41389360771E+02  0.46341116340E+02  0.11912254659E+03  0.91687628735E+02 0.  0.
          5    1    3    3  502    0  0.52958516581E+02 -0.80534949318E+01 -0.94931100040E+01  0.54604692076E+02  0.47000000000E+01 0. -1.
         -5    1    3    3    0  502 -0.91067025396E+01  0.49442855703E+02 -0.30167344944E+02  0.58819101593E+02  0.47000000000E+01 0.  1.
          5    1    4    4  503    0  0.90539764518E+01 -0.28169020396E+02 -0.17763551964E+02  0.34829613521E+02  0.47000000000E+01 0. -1.
         -5    1    4    4    0  503 -0.52905790494E+02 -0.13220340376E+02  0.64104668304E+02  0.84292933071E+02  0.47000000000E+01 0.  1.
<mgrwt>
<rscale>  0 0.10885981E+03</rscale>
<asrwt>0</asrwt>
<pdfrwt beam="1">  1        1 0.17374283E-01 0.10973915E+03</pdfrwt>
<pdfrwt beam="2">  1       -1 0.18402077E-01 0.10973915E+03</pdfrwt>
<totfact> 0.66220439E+03</totfact>
</mgrwt>
</event>
<event>
 8    1  0.8438969E-004  0.1183030E+03  0.7546771E-02  0.1249442E+00
          4   -1    0    0  501    0  0.00000000000E+00  0.00000000000E+00  0.12978148192E+02  0.12978148192E+02  0.00000000000E+00 0. -1.
         -4   -1    0    0    0  501 -0.00000000000E+00 -0.00000000000E+00 -0.10469741722E+04  0.10469741722E+04  0.00000000000E+00 0.  1.
         23    2    1    2    0    0  0.60172311645E+02  0.12217822406E+02 -0.63908252618E+03  0.64994006350E+03  0.10112185028E+03 0.  0.
         23    2    1    2    0    0 -0.60172311645E+02 -0.12217822406E+02 -0.39491349778E+03  0.41001225684E+03  0.91560896452E+02 0.  0.
          5    1    4    4  502    0 -0.69988414940E+02  0.17087460218E+02 -0.33200961552E+03  0.33976879539E+03  0.47000000000E+01 0. -1.
         -5    1    3    3    0  503  0.18161125700E+02  0.44314823161E+02 -0.47625221833E+03  0.47867723521E+03  0.47000000000E+01 0.  1.
          5    1    3    3  503    0  0.42011185945E+02 -0.32097000756E+02 -0.16283030784E+03  0.17126282829E+03  0.47000000000E+01 0. -1.
         -5    1    4    4    0  502  0.98161032953E+01 -0.29305282624E+02 -0.62903882263E+02  0.70243461456E+02  0.47000000000E+01 0.  1.
<mgrwt>
<rscale>  0 0.11623424E+03</rscale>
<asrwt>0</asrwt>
<pdfrwt beam="1">  1        4 0.19966385E-02 0.11830305E+03</pdfrwt>
<pdfrwt beam="2">  1       -4 0.16107292E+00 0.11830305E+03</pdfrwt>
<totfact> 0.43795577E+02</totfact>
</mgrwt>
</event>
<event>
 8    1  0.8438969E-004  0.9441584E+02  0.7546771E-02  0.1293482E+00
         -1   -1    0    0    0  501 -0.00000000000E+00  0.00000000000E+00  0.16536593136E+02  0.16536593136E+02  0.00000000000E+00 0.  1.
          1   -1    0    0  501    0  0.00000000000E+00 -0.00000000000E+00 -0.53816460030E+03  0.53816460030E+03  0.00000000000E+00 0. -1.
         23    2    1    2    0    0 -0.73538136374E+01 -0.20599275754E+02 -0.29874603862E+03  0.31331062399E+03  0.91847388513E+02 0.  0.
         23    2    1    2    0    0  0.73538136374E+01  0.20599275754E+02 -0.22288196854E+03  0.24139056945E+03  0.90081221015E+02 0.  0.
          5    1    3    3  502    0  0.65322403900E+01 -0.54187066505E+02 -0.21551772566E+03  0.22237106020E+03  0.47000000000E+01 0. -1.
         -5    1    3    3    0  502 -0.13886054027E+02  0.33587790751E+02 -0.83228312963E+02  0.90939563792E+02  0.47000000000E+01 0.  1.
          5    1    4    4  503    0  0.37636362996E+02  0.98170356169E+01 -0.19401612742E+03  0.19793235640E+03  0.47000000000E+01 0. -1.
         -5    1    4    4    0  503 -0.30282549359E+02  0.10782240137E+02 -0.28865841119E+02  0.43458213051E+02  0.47000000000E+01 0.  1.
<mgrwt>
<rscale>  0 0.93983579E+02</rscale>
<asrwt>0</asrwt>
<pdfrwt beam="1">  1        1 0.82794567E-01 0.94415844E+02</pdfrwt>
<pdfrwt beam="2">  1       -1 0.25440909E-02 0.94415844E+02</pdfrwt>
<totfact> 0.17962570E+04</totfact>
</mgrwt>
</event>
<event>
 8    1  0.8438969E-004  0.1106596E+03  0.7546771E-02  0.1260119E+00
          1   -1    0    0  501    0  0.00000000000E+00  0.00000000000E+00  0.14174916536E+03  0.14174916536E+03  0.00000000000E+00 0. -1.
         -1   -1    0    0    0  501 -0.00000000000E+00 -0.00000000000E+00 -0.90134526893E+02  0.90134526893E+02  0.00000000000E+00 0.  1.
         23    2    1    2    0    0 -0.15312916364E+02  0.60321454807E+02 -0.14011218317E+01  0.11066843764E+03  0.91500691966E+02 0.  0.
         23    2    1    2    0    0  0.15312916364E+02 -0.60321454807E+02  0.53015760302E+02  0.12121525461E+03  0.89494713772E+02 0.  0.
          5    1    3    3  502    0  0.36403619323E+02  0.41259852453E+02 -0.32546475397E+01  0.55319812498E+02  0.47000000000E+01 0. -1.
         -5    1    4    4    0  503 -0.11904655397E+02  0.18392623198E+02  0.24146517809E+02  0.32941671641E+02  0.47000000000E+01 0.  1.
          5    1    4    4  503    0  0.27217571761E+02 -0.78714078005E+02  0.28869242493E+02  0.88273582973E+02  0.47000000000E+01 0. -1.
         -5    1    3    3    0  502 -0.51716535687E+02  0.19061602354E+02  0.18535257081E+01  0.55348625144E+02  0.47000000000E+01 0.  1.
<mgrwt>
<rscale>  0 0.11024402E+03</rscale>
<asrwt>0</asrwt>
<pdfrwt beam="1">  1        1 0.21807564E-01 0.11065957E+03</pdfrwt>
<pdfrwt beam="2">  1       -1 0.13866850E-01 0.11065957E+03</pdfrwt>
<totfact> 0.77421938E+03</totfact>
</mgrwt>
</event>
<event>
 8    1  0.8438969E-004  0.3703709E+03  0.7546771E-02  0.1054840E+00
          1   -1    0    0  501    0  0.00000000000E+00  0.00000000000E+00  0.42195501511E+03  0.42195501511E+03  0.00000000000E+00 0. -1.
         -1   -1    0    0    0  501 -0.00000000000E+00 -0.00000000000E+00 -0.33222436023E+03  0.33222436023E+03  0.00000000000E+00 0.  1.
         23    2    1    2    0    0  0.30328794593E+03 -0.18688670563E+03  0.10935196008E+03  0.38328910779E+03  0.89679819869E+02 0.  0.
         23    2    1    2    0    0 -0.30328794593E+03  0.18688670563E+03 -0.19621305202E+02  0.37089026755E+03  0.10131325707E+03 0.  0.
          5    1    4    4  502    0 -0.24712167743E+02  0.57577569998E+02 -0.96394335191E+01  0.63567888749E+02  0.47000000000E+01 0. -1.
         -5    1    4    4    0  502 -0.27857577819E+03  0.12930913564E+03 -0.99818716825E+01  0.30732237880E+03  0.47000000000E+01 0.  1.
          5    1    3    3  503    0  0.23448009613E+03 -0.12524804765E+03  0.11698845391E+03  0.29047612169E+03  0.47000000000E+01 0. -1.
         -5    1    3    3    0  503  0.68807849795E+02 -0.61638657988E+02 -0.76364938318E+01  0.92812986106E+02  0.47000000000E+01 0.  1.
<mgrwt>
<rscale>  0 0.36961563E+03</rscale>
<asrwt>0</asrwt>
<pdfrwt beam="1">  1        1 0.64916157E-01 0.37037089E+03</pdfrwt>
<pdfrwt beam="2">  1       -1 0.51111440E-01 0.37037089E+03</pdfrwt>
<totfact> 0.22276742E+02</totfact>
</mgrwt>
</event>
<event>
 8    1  0.8438969E-004  0.9715622E+02  0.7546771E-02  0.1288683E+00
         -2   -1    0    0    0  501 -0.00000000000E+00  0.00000000000E+00  0.39405158735E+02  0.39405158735E+02  0.00000000000E+00 0.  1.
          2   -1    0    0  501    0  0.00000000000E+00 -0.00000000000E+00 -0.39065722058E+03  0.39065722058E+03  0.00000000000E+00 0. -1.
         23    2    1    2    0    0  0.66136091754E+01 -0.25459635678E+02 -0.31591730356E+03  0.33051940051E+03  0.93527528282E+02 0.  0.
         23    2    1    2    0    0 -0.66136091754E+01  0.25459635678E+02 -0.35334758280E+02  0.99542978804E+02  0.89265483874E+02 0.  0.
          5    1    3    3  502    0  0.42439076453E+02 -0.10915684365E+02 -0.79353672474E+02  0.90770715049E+02  0.47000000000E+01 0. -1.
         -5    1    3    3    0  502 -0.35825467278E+02 -0.14543951313E+02 -0.23656363109E+03  0.23974868546E+03  0.47000000000E+01 0.  1.
          5    1    4    4  503    0  0.23766308941E+02  0.32062968805E+02  0.12688425258E+02  0.42142111300E+02  0.47000000000E+01 0. -1.
         -5    1    4    4    0  503 -0.30379918116E+02 -0.66033331271E+01 -0.48023183538E+02  0.57400867504E+02  0.47000000000E+01 0.  1.
<mgrwt>
<rscale>  0 0.96115698E+02</rscale>
<asrwt>0</asrwt>
<pdfrwt beam="1">  1        2 0.60101110E-01 0.97156222E+02</pdfrwt>
<pdfrwt beam="2">  1       -2 0.60623322E-02 0.97156222E+02</pdfrwt>
<totfact> 0.11005203E+04</totfact>
</mgrwt>
</event>
<event>
 8    1  0.8438969E-004  0.9263867E+02  0.7546771E-02  0.1296851E+00
         -3   -1    0    0    0  501 -0.00000000000E+00  0.00000000000E+00  0.14580560892E+03  0.14580560892E+03  0.00000000000E+00 0.  1.
          3   -1    0    0  501    0  0.00000000000E+00 -0.00000000000E+00 -0.82875371345E+02  0.82875371345E+02  0.00000000000E+00 0. -1.
         23    2    1    2    0    0  0.10921587737E+02 -0.15111478336E+02  0.93441376655E+02  0.13157968589E+03  0.90742961228E+02 0.  0.
         23    2    1    2    0    0 -0.10921587737E+02  0.15111478336E+02 -0.30511139080E+02  0.97101294370E+02  0.90277870512E+02 0.  0.
          5    1    3    3  502    0 -0.29473092820E+02 -0.32540251971E+02  0.27002458575E+02  0.51756680417E+02  0.47000000000E+01 0. -1.
         -5    1    4    4    0  503 -0.11344030472E+02  0.41415145276E+02 -0.48453369945E+02  0.64913175432E+02  0.47000000000E+01 0.  1.
          5    1    4    4  503    0  0.42244273585E+00 -0.26303666940E+02  0.17942230865E+02  0.32188118938E+02  0.47000000000E+01 0. -1.
         -5    1    3    3    0  502  0.40394680556E+02  0.17428773635E+02  0.66438918080E+02  0.79823005476E+02  0.47000000000E+01 0.  1.
<mgrwt>
<rscale>  0 0.92524576E+02</rscale>
<asrwt>0</asrwt>
<pdfrwt beam="1">  1        3 0.12750057E-01 0.92638668E+02</pdfrwt>
<pdfrwt beam="2">  1       -3 0.22431632E-01 0.92638668E+02</pdfrwt>
<totfact> 0.19131001E+03</totfact>
</mgrwt>
</event>
<event>
 8    1  0.8438969E-004  0.1124247E+03  0.7546771E-02  0.1256785E+00
          1   -1    0    0  501    0  0.00000000000E+00  0.00000000000E+00  0.51317649478E+02  0.51317649478E+02  0.00000000000E+00 0. -1.
         -1   -1    0    0    0  501 -0.00000000000E+00 -0.00000000000E+00 -0.27967265059E+03  0.27967265059E+03  0.00000000000E+00 0.  1.
         23    2    1    2    0    0 -0.61585477169E+02  0.18373920631E+02 -0.55046916346E+02  0.12517775244E+03  0.92243887330E+02 0.  0.
         23    2    1    2    0    0  0.61585477169E+02 -0.18373920631E+02 -0.17330808476E+03  0.20581254762E+03  0.90513758941E+02 0.  0.
          5    1    3    3  502    0 -0.10890618275E+02  0.47631265697E+02 -0.42951788042E+02  0.65224911915E+02  0.47000000000E+01 0.  1.
         -5    1    4    4    0  503 -0.15229929623E+02  0.18300081942E+02 -0.25644979448E+02  0.35307205020E+02  0.47000000000E+01 0.  1.
          5    1    4    4  503    0  0.76815406792E+02 -0.36674002573E+02 -0.14766310532E+03  0.17050534261E+03  0.47000000000E+01 0. -1.
         -5    1    3    3    0  502 -0.50694858893E+02 -0.29257345066E+02 -0.12095128304E+02  0.59952840527E+02  0.47000000000E+01 0. -1.
<mgrwt>
<rscale>  0 0.11206920E+03</rscale>
<asrwt>0</asrwt>
<pdfrwt beam="1">  1        1 0.78950228E-02 0.11242467E+03</pdfrwt>
<pdfrwt beam="2">  1       -1 0.43026563E-01 0.11242467E+03</pdfrwt>
<totfact> 0.45231093E+03</totfact>
</mgrwt>
</event>
<event>
 8    1  0.8438969E-004  0.9612386E+02  0.7546771E-02  0.1289741E+00
          2   -1    0    0  501    0  0.00000000000E+00  0.00000000000E+00  0.51580366387E+02  0.51580366387E+02  0.00000000000E+00 0. -1.
         -2   -1    0    0    0  501 -0.00000000000E+00 -0.00000000000E+00 -0.21096334239E+03  0.21096334239E+03  0.00000000000E+00 0.  1.
         23    2    1    2    0    0  0.33750654485E+01 -0.30790587898E+02 -0.25259219521E+02  0.97531655603E+02  0.88965972730E+02 0.  0.
         23    2    1    2    0    0 -0.33750654485E+01  0.30790587898E+02 -0.13412375649E+03  0.16501205318E+03  0.90996397019E+02 0.  0.
          5    1    3    3  502    0  0.22892619625E+02  0.23233186728E+02  0.34680244460E+01  0.33135633273E+02  0.47000000000E+01 0. -1.
         -5    1    4    4    0  503  0.23677755231E+02  0.49267414091E+02 -0.48547291130E+02  0.73258744598E+02  0.47000000000E+01 0. -1.
          5    1    4    4  503    0 -0.27052820679E+02 -0.18476826192E+02 -0.85576465356E+02  0.91753308582E+02  0.47000000000E+01 0.  1.
         -5    1    3    3    0  502 -0.19517554177E+02 -0.54023774627E+02 -0.28727243967E+02  0.64396022330E+02  0.47000000000E+01 0.  1.
<mgrwt>
<rscale>  0 0.95640257E+02</rscale>
<asrwt>0</asrwt>
<pdfrwt beam="1">  1        2 0.79354409E-02 0.96123856E+02</pdfrwt>
<pdfrwt beam="2">  1       -2 0.32455899E-01 0.96123856E+02</pdfrwt>
<totfact> 0.69651165E+03</totfact>
</mgrwt>
</event>
<event>
 8    1  0.8438969E-004  0.1037047E+03  0.7546771E-02  0.1272867E+00
         -3   -1    0    0    0  501 -0.00000000000E+00  0.00000000000E+00  0.18133374762E+03  0.18133374762E+03  0.00000000000E+00 0.  1.
          3   -1    0    0  501    0  0.00000000000E+00 -0.00000000000E+00 -0.61384526837E+02  0.61384526837E+02  0.00000000000E+00 0. -1.
         23    2    1    2    0    0 -0.32942625486E+02 -0.36648626566E+02  0.36712233963E+02  0.11001112433E+03  0.91248676435E+02 0.  0.
         23    2    1    2    0    0  0.32942625486E+02  0.36648626566E+02  0.83236986824E+02  0.13270715013E+03  0.90854022018E+02 0.  0.
          5    1    4    4  502    0  0.27932100831E+02  0.60644625970E+02  0.28888971135E+02  0.72901547097E+02  0.47000000000E+01 0. -1.
         -5    1    4    4    0  502  0.50105246545E+01 -0.23995999404E+02  0.54348015689E+02  0.59805603032E+02  0.47000000000E+01 0.  1.
          5    1    3    3  503    0 -0.47443803659E+02  0.14228227037E+02  0.10786178358E+02  0.50909611998E+02  0.47000000000E+01 0. -1.
         -5    1    3    3    0  503  0.14501178173E+02 -0.50876853603E+02  0.25926055605E+02  0.59101512334E+02  0.47000000000E+01 0.  1.
<mgrwt>
<rscale>  0 0.10361779E+03</rscale>
<asrwt>0</asrwt>
<pdfrwt beam="1">  1        3 0.94437734E-02 0.10370467E+03</pdfrwt>
<pdfrwt beam="2">  1       -3 0.27897499E-01 0.10370467E+03</pdfrwt>
<totfact> 0.21720234E+03</totfact>
</mgrwt>
</event>
<event>
 8    1  0.8438969E-004  0.9869605E+02  0.7546771E-02  0.1283738E+00
         -2   -1    0    0    0  501 -0.00000000000E+00  0.00000000000E+00  0.49909824650E+02  0.49909824650E+02  0.00000000000E+00 0.  1.
          2   -1    0    0  501    0  0.00000000000E+00 -0.00000000000E+00 -0.19864357988E+03  0.19864357988E+03  0.00000000000E+00 0. -1.
         23    2    1    2    0    0 -0.91147316668E+01 -0.33385135696E+02 -0.52406615266E+02  0.11064100838E+03  0.91089701901E+02 0.  0.
         23    2    1    2    0    0  0.91147316668E+01  0.33385135696E+02 -0.96327139960E+02  0.13791239615E+03  0.92429786862E+02 0.  0.
          5    1    3    3  502    0 -0.24246702342E+02  0.23654944739E+02 -0.45162387855E+01  0.34495585193E+02  0.47000000000E+01 0. -1.
         -5    1    3    3    0  502  0.15131970675E+02 -0.57040080435E+02 -0.47890376481E+02  0.76145423185E+02  0.47000000000E+01 0.  1.
          5    1    4    4  503    0 -0.29304847008E+02  0.14652904225E+02 -0.88125714958E+02  0.94136673498E+02  0.47000000000E+01 0. -1.
         -5    1    4    4    0  503  0.38419578675E+02  0.18732231471E+02 -0.82014250026E+01  0.43775722650E+02  0.47000000000E+01 0.  1.
<mgrwt>
<rscale>  0 0.98381082E+02</rscale>
<asrwt>0</asrwt>
<pdfrwt beam="1">  1        2 0.30560551E-01 0.98696054E+02</pdfrwt>
<pdfrwt beam="2">  1       -2 0.76784346E-02 0.98696054E+02</pdfrwt>
<totfact> 0.15710567E+04</totfact>
</mgrwt>
</event>
<event>
 8    1  0.8438969E-004  0.1784132E+03  0.7546771E-02  0.1169843E+00
          2   -1    0    0  501    0  0.00000000000E+00  0.00000000000E+00  0.20827221697E+03  0.20827221697E+03  0.00000000000E+00 0. -1.
         -2   -1    0    0    0  501 -0.00000000000E+00 -0.00000000000E+00 -0.16157767725E+03  0.16157767725E+03  0.00000000000E+00 0.  1.
         23    2    1    2    0    0  0.66546129744E+02  0.13538878309E+03  0.70276954415E+02  0.18988492731E+03  0.91427158593E+02 0.  0.
         23    2    1    2    0    0 -0.66546129744E+02 -0.13538878309E+03 -0.23582414700E+02  0.17996496690E+03  0.95250979313E+02 0.  0.
          5    1    4    4  502    0 -0.72913160693E+02 -0.77184245331E+02  0.18268945081E+02  0.10784053544E+03  0.47000000000E+01 0. -1.
         -5    1    3    3    0  503  0.64344280271E+02  0.56399494643E+02  0.70120464042E+02  0.11072515016E+03  0.47000000000E+01 0.  1.
          5    1    3    3  503    0  0.22018494731E+01  0.78989288444E+02  0.15649037276E+00  0.79159777155E+02  0.47000000000E+01 0. -1.
         -5    1    4    4    0  502  0.63670309488E+01 -0.58204537757E+02 -0.41851359782E+02  0.72124431465E+02  0.47000000000E+01 0.  1.
<mgrwt>
<rscale>  0 0.17790807E+03</rscale>
<asrwt>0</asrwt>
<pdfrwt beam="1">  1        2 0.32041880E-01 0.17841317E+03</pdfrwt>
<pdfrwt beam="2">  1       -2 0.24858104E-01 0.17841317E+03</pdfrwt>
<totfact> 0.22997230E+03</totfact>
</mgrwt>
</event>
<event>
 8    1  0.8438969E-004  0.1315062E+03  0.7546771E-02  0.1225488E+00
         -2   -1    0    0    0  501 -0.00000000000E+00  0.00000000000E+00  0.75579897238E+02  0.75579897238E+02  0.00000000000E+00 0.  1.
          2   -1    0    0  501    0  0.00000000000E+00 -0.00000000000E+00 -0.26817503465E+03  0.26817503465E+03  0.00000000000E+00 0. -1.
         23    2    1    2    0    0  0.46630854089E+02  0.81132644530E+02 -0.29678165903E+02  0.13481348668E+03  0.92395563197E+02 0.  0.
         23    2    1    2    0    0 -0.46630854089E+02 -0.81132644530E+02 -0.16291697150E+03  0.20894144520E+03  0.91420158375E+02 0.  0.
          5    1    3    3  502    0  0.13733061063E+01  0.49597076058E+02 -0.54752951670E+02  0.74038717167E+02  0.47000000000E+01 0. -1.
         -5    1    3    3    0  502  0.45257547983E+02  0.31535568472E+02  0.25074785767E+02  0.60774769515E+02  0.47000000000E+01 0.  1.
          5    1    4    4  503    0 -0.68486448834E+02 -0.79248649056E+02 -0.15013518693E+03  0.18312128878E+03  0.47000000000E+01 0. -1.
         -5    1    4    4    0  503  0.21855594745E+02 -0.18839954740E+01 -0.12781784576E+02  0.25820156420E+02  0.47000000000E+01 0.  1.
<mgrwt>
<rscale>  0 0.13133501E+03</rscale>
<asrwt>0</asrwt>
<pdfrwt beam="1">  1        2 0.41257697E-01 0.13150621E+03</pdfrwt>
<pdfrwt beam="2">  1       -2 0.11627677E-01 0.13150621E+03</pdfrwt>
<totfact> 0.61215708E+03</totfact>
</mgrwt>
</event>
<event>
 8    1  0.8438969E-004  0.9868981E+02  0.7546771E-02  0.1283875E+00
          2   -1    0    0  501    0  0.00000000000E+00  0.00000000000E+00  0.52608335182E+03  0.52608335182E+03  0.00000000000E+00 0. -1.
         -2   -1    0    0    0  501 -0.00000000000E+00 -0.00000000000E+00 -0.67177221976E+02  0.67177221976E+02  0.00000000000E+00 0.  1.
         23    2    1    2    0    0 -0.31512273623E+02  0.15673034307E+02 -0.23259540396E+02  0.10139371271E+03  0.92200929300E+02 0.  0.
         23    2    1    2    0    0  0.31512273623E+02 -0.15673034307E+02  0.48216567024E+03  0.49186686109E+03  0.90612405810E+02 0.  0.
          5    1    3    3  502    0 -0.37677695722E+01  0.40096334734E+02 -0.43104739918E+02  0.59177873822E+02  0.47000000000E+01 0.  1.
         -5    1    4    4    0  503  0.72770972355E+01  0.21884282058E+02  0.33420579770E+02  0.40876681587E+02  0.47000000000E+01 0.  1.
          5    1    4    4  503    0  0.24235176387E+02 -0.37557316365E+02  0.44874509047E+03  0.45099017951E+03  0.47000000000E+01 0. -1.
         -5    1    3    3    0  502 -0.27744504051E+02 -0.24423300427E+02  0.19845199522E+02  0.42215838886E+02  0.47000000000E+01 0. -1.
<mgrwt>
<rscale>  0 0.98317098E+02</rscale>
<asrwt>0</asrwt>
<pdfrwt beam="1">  1        2 0.80935897E-01 0.98689811E+02</pdfrwt>
<pdfrwt beam="2">  1       -2 0.10334958E-01 0.98689811E+02</pdfrwt>
<totfact> 0.35390066E+03</totfact>
</mgrwt>
</event>
<event>
 8    1  0.8438969E-004  0.1409077E+03  0.7546771E-02  0.1212214E+00
          2   -1    0    0  501    0  0.00000000000E+00  0.00000000000E+00  0.15552659110E+04  0.15552659110E+04  0.00000000000E+00 0. -1.
         -2   -1    0    0    0  501 -0.00000000000E+00 -0.00000000000E+00 -0.21467363091E+02  0.21467363091E+02  0.00000000000E+00 0.  1.
         23    2    1    2    0    0 -0.10032845367E+03  0.34757406670E+02  0.26468993040E+03  0.29985954701E+03  0.92634295718E+02 0.  0.
         23    2    1    2    0    0  0.10032845367E+03 -0.34757406670E+02  0.12691086175E+04  0.12768737270E+04  0.92173509985E+02 0.  0.
          5    1    3    3  502    0 -0.29098099059E+02 -0.22794124976E+02  0.14129184406E+03  0.14612236893E+03  0.47000000000E+01 0. -1.
         -5    1    4    4    0  503 -0.12862288263E+02 -0.18492387389E+02  0.12912039193E+03  0.13115476530E+03  0.47000000000E+01 0.  1.
          5    1    4    4  503    0  0.11319074193E+03 -0.16265019281E+02  0.11399882255E+04  0.11457189617E+04  0.47000000000E+01 0. -1.
         -5    1    3    3    0  502 -0.71230354611E+02  0.57551531646E+02  0.12339808634E+03  0.15373717808E+03  0.47000000000E+01 0.  1.
<mgrwt>
<rscale>  0 0.14083205E+03</rscale>
<asrwt>0</asrwt>
<pdfrwt beam="1">  1        2 0.23927159E+00 0.14090773E+03</pdfrwt>
<pdfrwt beam="2">  1       -2 0.33026725E-02 0.14090773E+03</pdfrwt>
<totfact> 0.46242329E+03</totfact>
</mgrwt>
</event>
<event>
 8    1  0.8438969E-004  0.1249082E+03  0.7546771E-02  0.1236819E+00
         -1   -1    0    0    0  501 -0.00000000000E+00  0.00000000000E+00  0.86495590286E+02  0.86495590286E+02  0.00000000000E+00 0.  1.
          1   -1    0    0  501    0  0.00000000000E+00 -0.00000000000E+00 -0.30236171660E+03  0.30236171660E+03  0.00000000000E+00 0. -1.
         23    2    1    2    0    0 -0.15231315911E+02 -0.79071143430E+02 -0.23533230664E+03  0.26642699503E+03  0.95487226501E+02 0.  0.
         23    2    1    2    0    0  0.15231315911E+02  0.79071143430E+02  0.19466180317E+02  0.12243031186E+03  0.90144386287E+02 0.  0.
          5    1    3    3  502    0 -0.42664081627E+02 -0.54975751282E+02 -0.21117523253E+03  0.22239520212E+03  0.47000000000E+01 0. -1.
         -5    1    3    3    0  502  0.27432765716E+02 -0.24095392148E+02 -0.24157074105E+02  0.44031792910E+02  0.47000000000E+01 0.  1.
          5    1    4    4  503    0  0.30713863690E+02  0.18333021955E+02  0.42263596325E+02  0.55567460722E+02  0.47000000000E+01 0. -1.
         -5    1    4    4    0  503 -0.15482547779E+02  0.60738121476E+02 -0.22797416008E+02  0.66862851142E+02  0.47000000000E+01 0.  1.
<mgrwt>
<rscale>  0 0.12388688E+03</rscale>
<asrwt>0</asrwt>
<pdfrwt beam="1">  1        1 0.46517187E-01 0.12490816E+03</pdfrwt>
<pdfrwt beam="2">  1       -1 0.13307014E-01 0.12490816E+03</pdfrwt>
<totfact> 0.32527476E+03</totfact>
</mgrwt>
</event>
<event>
 8    1  0.8438969E-004  0.1127732E+03  0.7546771E-02  0.1261285E+00
          1   -1    0    0  501    0  0.00000000000E+00  0.00000000000E+00  0.17903094839E+03  0.17903094839E+03  0.00000000000E+00 0. -1.
         -1   -1    0    0    0  501 -0.00000000000E+00 -0.00000000000E+00 -0.74208124320E+02  0.74208124320E+02  0.00000000000E+00 0.  1.
         23    2    1    2    0    0 -0.14217155599E+02  0.39815603768E+02  0.71812445806E+01  0.11300159367E+03  0.10454845805E+03 0.  0.
         23    2    1    2    0    0  0.14217155599E+02 -0.39815603768E+02  0.97641579489E+02  0.14023747904E+03  0.91352409196E+02 0.  0.
          5    1    4    4  502    0  0.31659900260E+02  0.15767661090E+02  0.14285769533E+02  0.38433600298E+02  0.47000000000E+01 0. -1.
         -5    1    4    4    0  502 -0.17442744661E+02 -0.55583264858E+02  0.83355809957E+02  0.10180387874E+03  0.47000000000E+01 0.  1.
          5    1    3    3  503    0 -0.27637856883E+02 -0.23954466441E+02  0.25870507511E+02  0.45044874896E+02  0.47000000000E+01 0. -1.
         -5    1    3    3    0  503  0.13420701284E+02  0.63770070209E+02 -0.18689262930E+02  0.67956718772E+02  0.47000000000E+01 0.  1.
<mgrwt>
<rscale>  0 0.10961497E+03</rscale>
<asrwt>0</asrwt>
<pdfrwt beam="1">  1        1 0.27543223E-01 0.11277318E+03</pdfrwt>
<pdfrwt beam="2">  1       -1 0.11416635E-01 0.11277318E+03</pdfrwt>
<totfact> 0.78135739E+03</totfact>
</mgrwt>
</event>
<event>
 8    1  0.8438969E-004  0.9003936E+02  0.7546771E-02  0.1303791E+00
          1   -1    0    0  501    0  0.00000000000E+00  0.00000000000E+00  0.13701689053E+03  0.13701689053E+03  0.00000000000E+00 0. -1.
         -1   -1    0    0    0  501 -0.00000000000E+00 -0.00000000000E+00 -0.15594322699E+03  0.15594322699E+03  0.00000000000E+00 0.  1.
         23    2    1    2    0    0  0.74033644302E+01 -0.58710622571E+01 -0.12554456092E+03  0.15449441179E+03  0.89542209723E+02 0.  0.
         23    2    1    2    0    0 -0.74033644302E+01  0.58710622571E+01  0.10661822445E+03  0.13846570573E+03  0.87840917018E+02 0.  0.
          5    1    3    3  502    0  0.15735468250E+02  0.32381827068E+02 -0.19193841528E+02  0.41069224949E+02  0.47000000000E+01 0. -1.
         -5    1    4    4    0  503 -0.66692794343E+01 -0.23518031949E+02 -0.28180353128E+01  0.25052114441E+02  0.47000000000E+01 0.  1.
          5    1    4    4  503    0 -0.73408499593E+00  0.29389094207E+02  0.10943625976E+03  0.11341359129E+03  0.47000000000E+01 0. -1.
         -5    1    3    3    0  502 -0.83321038199E+01 -0.38252889325E+02 -0.10635071939E+03  0.11342518684E+03  0.47000000000E+01 0.  1.
<mgrwt>
<rscale>  0 0.89613418E+02</rscale>
<asrwt>0</asrwt>
<pdfrwt beam="1">  1        1 0.21079522E-01 0.90039361E+02</pdfrwt>
<pdfrwt beam="2">  1       -1 0.23991266E-01 0.90039361E+02</pdfrwt>
<totfact> 0.33473483E+03</totfact>
</mgrwt>
</event>
<event>
 8    1  0.8438969E-004  0.1050409E+03  0.7546771E-02  0.1276812E+00
         -1   -1    0    0    0  501 -0.00000000000E+00  0.00000000000E+00  0.13666519017E+02  0.13666519017E+02  0.00000000000E+00 0.  1.
          1   -1    0    0  501    0  0.00000000000E+00 -0.00000000000E+00 -0.71810847840E+03  0.71810847840E+03  0.00000000000E+00 0. -1.
         23    2    1    2    0    0 -0.81267097437E+01 -0.27342479864E+02 -0.40929302174E+03  0.42255694904E+03  0.10109373336E+03 0.  0.
         23    2    1    2    0    0  0.81267097437E+01  0.27342479864E+02 -0.29514893764E+03  0.30921804837E+03  0.87688376833E+02 0.  0.
          5    1    3    3  502    0  0.43411035713E+02 -0.29064672085E+02 -0.17980550449E+03  0.18730024728E+03  0.47000000000E+01 0. -1.
         -5    1    4    4    0  503 -0.24303396038E+02 -0.21764375971E+02 -0.11603374310E+03  0.12062446957E+03  0.47000000000E+01 0.  1.
          5    1    4    4  503    0  0.32430105782E+02  0.49106855835E+02 -0.17911519454E+03  0.18859357881E+03  0.47000000000E+01 0. -1.
         -5    1    3    3    0  502 -0.51537745457E+02  0.17221922210E+01 -0.22948751724E+03  0.23525670176E+03  0.47000000000E+01 0.  1.
<mgrwt>
<rscale>  0 0.10167516E+03</rscale>
<asrwt>0</asrwt>
<pdfrwt beam="1">  1        1 0.11047822E+00 0.10504093E+03</pdfrwt>
<pdfrwt beam="2">  1       -1 0.21025416E-02 0.10504093E+03</pdfrwt>
<totfact> 0.16098456E+04</totfact>
</mgrwt>
</event>
<event>
 8    1  0.8438969E-004  0.9153648E+02  0.7546771E-02  0.1301085E+00
         -3   -1    0    0    0  501 -0.00000000000E+00  0.00000000000E+00  0.32189420877E+02  0.32189420877E+02  0.00000000000E+00 0.  1.
          3   -1    0    0  501    0  0.00000000000E+00 -0.00000000000E+00 -0.25739529960E+03  0.25739529960E+03  0.00000000000E+00 0. -1.
         23    2    1    2    0    0  0.76499776076E+01  0.21108142094E+02 -0.92379675306E+02  0.13004973069E+03  0.88740364106E+02 0.  0.
         23    2    1    2    0    0 -0.76499776076E+01 -0.21108142094E+02 -0.13282620342E+03  0.15953498980E+03  0.85466583142E+02 0.  0.
          5    1    3    3  502    0  0.22594372863E+01 -0.27461838661E+02 -0.71371249246E+02  0.76649871875E+02  0.47000000000E+01 0. -1.
         -5    1    3    3    0  502  0.53905403213E+01  0.48569980755E+02 -0.21008426060E+02  0.53399858811E+02  0.47000000000E+01 0.  1.
          5    1    4    4  503    0 -0.41648829346E+02 -0.15485601746E+02 -0.10778153362E+03  0.11667638080E+03  0.47000000000E+01 0. -1.
         -5    1    4    4    0  503  0.33998851738E+02 -0.56225403481E+01 -0.25044669798E+02  0.42858608993E+02  0.47000000000E+01 0.  1.
<mgrwt>
<rscale>  0 0.90733446E+02</rscale>
<asrwt>0</asrwt>
<pdfrwt beam="1">  1        3 0.39599276E-01 0.91536485E+02</pdfrwt>
<pdfrwt beam="2">  1       -3 0.49522188E-02 0.91536485E+02</pdfrwt>
<totfact> 0.30977934E+03</totfact>
</mgrwt>
</event>
<event>
 8    1  0.8438969E-004  0.9179402E+02  0.7546771E-02  0.1304730E+00
         -1   -1    0    0    0  501 -0.00000000000E+00  0.00000000000E+00  0.47803121385E+03  0.47803121385E+03  0.00000000000E+00 0.  1.
          1   -1    0    0  501    0  0.00000000000E+00 -0.00000000000E+00 -0.20134641059E+02  0.20134641059E+02  0.00000000000E+00 0. -1.
         23    2    1    2    0    0  0.27926216600E+01  0.94368963162E+01  0.12353126890E+03  0.15390294283E+03  0.91264931198E+02 0.  0.
         23    2    1    2    0    0 -0.27926216600E+01 -0.94368963162E+01  0.33436530389E+03  0.34426291209E+03  0.81363028721E+02 0.  0.
          5    1    4    4  502    0 -0.60605634226E+01 -0.42254947440E+02  0.24808460006E+03  0.25177424371E+03  0.47000000000E+01 0. -1.
         -5    1    4    4    0  502  0.32679417626E+01  0.32818051123E+02  0.86280703838E+02  0.92488668374E+02  0.47000000000E+01 0.  1.
          5    1    3    3  503    0 -0.31115654213E+02 -0.26992256807E+02  0.49406174190E+02  0.64496712418E+02  0.47000000000E+01 0. -1.
         -5    1    3    3    0  503  0.33908275873E+02  0.36429153123E+02  0.74125094711E+02  0.89406230409E+02  0.47000000000E+01 0.  1.
<mgrwt>
<rscale>  0 0.89229005E+02</rscale>
<asrwt>0</asrwt>
<pdfrwt beam="1">  1        1 0.30976375E-02 0.91794016E+02</pdfrwt>
<pdfrwt beam="2">  1       -1 0.73543255E-01 0.91794016E+02</pdfrwt>
<totfact> 0.58235536E+03</totfact>
</mgrwt>
</event>
<event>
 8    1  0.8438969E-004  0.1105703E+03  0.7546771E-02  0.1261258E+00
          1   -1    0    0  501    0  0.00000000000E+00  0.00000000000E+00  0.35474057053E+02  0.35474057053E+02  0.00000000000E+00 0. -1.
         -1   -1    0    0    0  501 -0.00000000000E+00 -0.00000000000E+00 -0.33320860397E+03  0.33320860397E+03  0.00000000000E+00 0.  1.
         23    2    1    2    0    0 -0.34444702519E+02 -0.47837740956E+02 -0.15374124058E+03  0.18937305966E+03  0.93546243540E+02 0.  0.
         23    2    1    2    0    0  0.34444702519E+02  0.47837740956E+02 -0.14399330635E+03  0.17930960136E+03  0.89123363255E+02 0.  0.
          5    1    4    4  502    0  0.23430377093E+02  0.21891041962E+01  0.36808146048E+01  0.24277832359E+02  0.47000000000E+01 0. -1.
         -5    1    3    3    0  503 -0.18603773478E+02 -0.75713684322E+02 -0.11141508518E+03  0.13606643079E+03  0.47000000000E+01 0.  1.
          5    1    3    3  503    0 -0.15840929041E+02  0.27875943367E+02 -0.42326155397E+02  0.53306628877E+02  0.47000000000E+01 0. -1.
         -5    1    4    4    0  502  0.11014325426E+02  0.45648636759E+02 -0.14767412095E+03  0.15503176901E+03  0.47000000000E+01 0.  1.
<mgrwt>
<rscale>  0 0.10962936E+03</rscale>
<asrwt>0</asrwt>
<pdfrwt beam="1">  1        1 0.54575472E-02 0.11057028E+03</pdfrwt>
<pdfrwt beam="2">  1       -1 0.51262862E-01 0.11057028E+03</pdfrwt>
<totfact> 0.54207812E+03</totfact>
</mgrwt>
</event>
<event>
 8    1  0.8438969E-004  0.1628793E+03  0.7546771E-02  0.1186929E+00
         -2   -1    0    0    0  501 -0.00000000000E+00  0.00000000000E+00  0.95993819741E+02  0.95993819741E+02  0.00000000000E+00 0.  1.
          2   -1    0    0  501    0  0.00000000000E+00 -0.00000000000E+00 -0.28636465709E+03  0.28636465709E+03  0.00000000000E+00 0. -1.
         23    2    1    2    0    0  0.12790634205E+03  0.40417007831E+02 -0.44953170770E+02  0.16401021164E+03  0.82975870593E+02 0.  0.
         23    2    1    2    0    0 -0.12790634205E+03 -0.40417007831E+02 -0.14541766658E+03  0.21834826519E+03  0.92391018495E+02 0.  0.
          5    1    3    3  502    0  0.99239318300E+02  0.15555192501E+02 -0.66076777365E+02  0.12032720730E+03  0.47000000000E+01 0. -1.
         -5    1    4    4    0  503 -0.10266980329E+03 -0.61762194341E+02 -0.14032353228E+03  0.18457638221E+03  0.47000000000E+01 0.  1.
          5    1    4    4  503    0 -0.25236538764E+02  0.21345186510E+02 -0.50941343000E+01  0.33771882983E+02  0.47000000000E+01 0. -1.
         -5    1    3    3    0  502  0.28667023753E+02  0.24861815330E+02  0.21123606595E+02  0.43683004337E+02  0.47000000000E+01 0.  1.
<mgrwt>
<rscale>  0 0.16157627E+03</rscale>
<asrwt>0</asrwt>
<pdfrwt beam="1">  1        2 0.44056102E-01 0.16287930E+03</pdfrwt>
<pdfrwt beam="2">  1       -2 0.14768280E-01 0.16287930E+03</pdfrwt>
<totfact> 0.39283096E+03</totfact>
</mgrwt>
</event>
<event>
 8    1  0.8438969E-004  0.1009142E+03  0.7546771E-02  0.1278573E+00
         -1   -1    0    0    0  501 -0.00000000000E+00  0.00000000000E+00  0.11315537406E+03  0.11315537406E+03  0.00000000000E+00 0.  1.
          1   -1    0    0  501    0  0.00000000000E+00 -0.00000000000E+00 -0.89978864099E+02  0.89978864099E+02  0.00000000000E+00 0. -1.
         23    2    1    2    0    0  0.28362111761E+02  0.30451778310E+02  0.57186660012E+01  0.10107608711E+03  0.91934498741E+02 0.  0.
         23    2    1    2    0    0 -0.28362111761E+02 -0.30451778310E+02  0.17457843957E+02  0.10205815105E+03  0.91538897163E+02 0.  0.
          5    1    3    3  502    0  0.46788429430E+02  0.50169315795E+02 -0.10012348240E+02  0.69487081484E+02  0.47000000000E+01 0. -1.
         -5    1    4    4    0  503 -0.33258347545E+02  0.52456358212E+01 -0.27872678057E+02  0.43961466748E+02  0.47000000000E+01 0.  1.
          5    1    4    4  503    0  0.48962357842E+01 -0.35697414131E+02  0.45330522014E+02  0.58096684299E+02  0.47000000000E+01 0. -1.
         -5    1    3    3    0  502 -0.18426317670E+02 -0.19717537485E+02  0.15731014242E+02  0.31589005626E+02  0.47000000000E+01 0.  1.
<mgrwt>
<rscale>  0 0.10082399E+03</rscale>
<asrwt>0</asrwt>
<pdfrwt beam="1">  1        1 0.13842902E-01 0.10091418E+03</pdfrwt>
<pdfrwt beam="2">  1       -1 0.17408519E-01 0.10091418E+03</pdfrwt>
<totfact> 0.96044374E+03</totfact>
</mgrwt>
</event>
<event>
 8    1  0.8438969E-004  0.9647564E+02  0.7546771E-02  0.1288583E+00
          1   -1    0    0  501    0  0.00000000000E+00  0.00000000000E+00  0.95253589819E+03  0.95253589819E+03  0.00000000000E+00 0. -1.
         -1   -1    0    0    0  501 -0.00000000000E+00 -0.00000000000E+00 -0.97441666499E+01  0.97441666499E+01  0.00000000000E+00 0.  1.
         23    2    1    2    0    0  0.20488601457E+02 -0.22372940430E+02  0.42585676070E+03  0.43664806097E+03  0.91581751797E+02 0.  0.
         23    2    1    2    0    0 -0.20488601457E+02  0.22372940430E+02  0.51693497083E+03  0.52563200386E+03  0.90260224691E+02 0.  0.
          5    1    4    4  502    0 -0.36267857875E+02  0.49849100119E+02  0.29606240780E+03  0.30244888760E+03  0.47000000000E+01 0. -1.
         -5    1    3    3    0  503  0.51165046796E+02  0.41899933899E+01  0.17315699092E+03  0.18066779337E+03  0.47000000000E+01 0.  1.
          5    1    3    3  503    0 -0.30676445338E+02 -0.26562933820E+02  0.25269976979E+03  0.25598026760E+03  0.47000000000E+01 0. -1.
         -5    1    4    4    0  502  0.15779256418E+02 -0.27476159688E+02  0.22087256303E+03  0.22318311626E+03  0.47000000000E+01 0.  1.
<mgrwt>
<rscale>  0 0.96160702E+02</rscale>
<asrwt>0</asrwt>
<pdfrwt beam="1">  1        1 0.14654391E+00 0.96475637E+02</pdfrwt>
<pdfrwt beam="2">  1       -1 0.14991033E-02 0.96475637E+02</pdfrwt>
<totfact> 0.16888569E+04</totfact>
</mgrwt>
</event>
<event>
 8    1  0.8438969E-004  0.9281359E+02  0.7546771E-02  0.1299679E+00
         -2   -1    0    0    0  501 -0.00000000000E+00  0.00000000000E+00  0.51219499664E+02  0.51219499664E+02  0.00000000000E+00 0.  1.
          2   -1    0    0  501    0  0.00000000000E+00 -0.00000000000E+00 -0.16836951985E+03  0.16836951985E+03  0.00000000000E+00 0. -1.
         23    2    1    2    0    0 -0.16447695821E+02 -0.10987287845E+02 -0.87840347098E+02  0.12779002114E+03  0.90681396841E+02 0.  0.
         23    2    1    2    0    0  0.16447695821E+02  0.10987287845E+02 -0.29309673090E+02  0.91798998374E+02  0.84715712674E+02 0.  0.
          5    1    3    3  502    0 -0.31788496107E+02  0.26919105593E+02 -0.15759019540E+02  0.44783740660E+02  0.47000000000E+01 0. -1.
         -5    1    4    4    0  503 -0.98470331792E+01  0.41939788768E+02 -0.26547772576E+02  0.50821099684E+02  0.47000000000E+01 0. -1.
          5    1    4    4  503    0  0.26294729000E+02 -0.30952500923E+02 -0.27619005139E+01  0.40977898690E+02  0.47000000000E+01 0.  1.
         -5    1    3    3    0  502  0.15340800286E+02 -0.37906393438E+02 -0.72081327558E+02  0.83006280482E+02  0.47000000000E+01 0.  1.
<mgrwt>
<rscale>  0 0.91323242E+02</rscale>
<asrwt>0</asrwt>
<pdfrwt beam="1">  1        2 0.25903003E-01 0.92813592E+02</pdfrwt>
<pdfrwt beam="2">  1       -2 0.78799230E-02 0.92813592E+02</pdfrwt>
<totfact> 0.17935041E+04</totfact>
</mgrwt>
</event>
<event>
 8    1  0.8438969E-004  0.1210562E+03  0.7546771E-02  0.1241541E+00
         -2   -1    0    0    0  501 -0.00000000000E+00  0.00000000000E+00  0.53671627963E+02  0.53671627963E+02  0.00000000000E+00 0.  1.
          2   -1    0    0  501    0  0.00000000000E+00 -0.00000000000E+00 -0.73864226545E+03  0.73864226545E+03  0.00000000000E+00 0. -1.
         23    2    1    2    0    0 -0.59326534967E+02  0.52136619925E+02 -0.27856130210E+02  0.12421980091E+03  0.91742738459E+02 0.  0.
         23    2    1    2    0    0  0.59326534967E+02 -0.52136619925E+02 -0.65711450728E+03  0.66809409250E+03  0.91172231915E+02 0.  0.
          5    1    4    4  502    0  0.61198409706E+02 -0.81558994898E+01 -0.52762905505E+03  0.53124972827E+03  0.47000000000E+01 0. -1.
         -5    1    3    3    0  503  0.86839026182E+01  0.51600463428E+02 -0.16778335687E+02  0.55150888833E+02  0.47000000000E+01 0.  1.
          5    1    3    3  503    0 -0.68010437585E+02  0.53615649708E+00 -0.11077794523E+02  0.69068912079E+02  0.47000000000E+01 0. -1.
         -5    1    4    4    0  502 -0.18718747394E+01 -0.43980720435E+02 -0.12948545222E+03  0.13684436423E+03  0.47000000000E+01 0. -1.
<mgrwt>
<rscale>  0 0.12094807E+03</rscale>
<asrwt>0</asrwt>
<pdfrwt beam="1">  1        2 0.11363727E+00 0.12105616E+03</pdfrwt>
<pdfrwt beam="2">  1       -2 0.82571738E-02 0.12105616E+03</pdfrwt>
<totfact> 0.34344947E+03</totfact>
</mgrwt>
</event>
<event>
 8    1  0.1162553E-003  0.1278959E+03  0.7546771E-02  0.1232155E+00
         -1   -1    0    0    0  501 -0.00000000000E+00  0.00000000000E+00  0.38392120665E+02  0.38392120665E+02  0.00000000000E+00 0.  1.
          1   -1    0    0  501    0  0.00000000000E+00 -0.00000000000E+00 -0.11623461671E+04  0.11623461671E+04  0.00000000000E+00 0. -1.
         23    2    1    2    0    0 -0.84692526430E+02 -0.30545420316E+02 -0.10408862798E+04  0.10482338192E+04  0.85111958329E+02 0.  0.
         23    2    1    2    0    0  0.84692526430E+02  0.30545420316E+02 -0.83067766639E+02  0.15250446859E+03  0.90837835461E+02 0.  0.
          5    1    4    4  502    0  0.10972056212E+02  0.48992000120E+02 -0.44023758839E+02  0.66938654271E+02  0.47000000000E+01 0. -1.
         -5    1    4    4    0  502  0.73720470218E+02 -0.18446579804E+02 -0.39044007800E+02  0.85565814323E+02  0.47000000000E+01 0.  1.
          5    1    3    3  503    0 -0.55651199392E+02  0.24590328025E+02 -0.55519142558E+03  0.55853500272E+03  0.47000000000E+01 0. -1.
         -5    1    3    3    0  503 -0.29041327038E+02 -0.55135748341E+02 -0.48569485424E+03  0.48969881648E+03  0.47000000000E+01 0.  1.
<mgrwt>
<rscale>  0 0.12688363E+03</rscale>
<asrwt>0</asrwt>
<pdfrwt beam="1">  1        1 0.17882250E+00 0.12789589E+03</pdfrwt>
<pdfrwt beam="2">  1       -1 0.59064798E-02 0.12789589E+03</pdfrwt>
<totfact> 0.16613081E+03</totfact>
</mgrwt>
</event>
<event>
 8    1  0.8438969E-004  0.9417404E+02  0.7546771E-02  0.1295045E+00
         -1   -1    0    0    0  501 -0.00000000000E+00  0.00000000000E+00  0.39661772071E+02  0.39661772071E+02  0.00000000000E+00 0.  1.
          1   -1    0    0  501    0  0.00000000000E+00 -0.00000000000E+00 -0.21564709699E+03  0.21564709699E+03  0.00000000000E+00 0. -1.
         23    2    1    2    0    0  0.18883255919E+01  0.13311639664E+02 -0.92675444437E+02  0.13212678698E+03  0.93209357427E+02 0.  0.
         23    2    1    2    0    0 -0.18883255919E+01 -0.13311639664E+02 -0.83309880485E+02  0.12318208208E+03  0.89735854796E+02 0.  0.
          5    1    3    3  502    0 -0.15021105758E+02  0.47533885145E+02 -0.74059929671E+02  0.89398361496E+02  0.47000000000E+01 0. -1.
         -5    1    3    3    0  502  0.16909431350E+02 -0.34222245481E+02 -0.18615514766E+02  0.42728425484E+02  0.47000000000E+01 0.  1.
          5    1    4    4  503    0 -0.41343139635E+02 -0.96707494540E+01 -0.17380138381E+02  0.46118735889E+02  0.47000000000E+01 0. -1.
         -5    1    4    4    0  503  0.39454814044E+02 -0.36408902100E+01 -0.65929742104E+02  0.77063346195E+02  0.47000000000E+01 0.  1.
<mgrwt>
<rscale>  0 0.93302885E+02</rscale>
<asrwt>0</asrwt>
<pdfrwt beam="1">  1        1 0.33176477E-01 0.94174040E+02</pdfrwt>
<pdfrwt beam="2">  1       -1 0.61018110E-02 0.94174040E+02</pdfrwt>
<totfact> 0.15659227E+04</totfact>
</mgrwt>
</event>
<event>
 8    1  0.8438969E-004  0.1063629E+03  0.7546771E-02  0.1267595E+00
         -2   -1    0    0    0  501 -0.00000000000E+00  0.00000000000E+00  0.37084828822E+02  0.37084828822E+02  0.00000000000E+00 0.  1.
          2   -1    0    0  501    0  0.00000000000E+00 -0.00000000000E+00 -0.34440745514E+03  0.34440745514E+03  0.00000000000E+00 0. -1.
         23    2    1    2    0    0  0.53293451281E+02 -0.18704031752E+02 -0.21861598847E+03  0.24299339982E+03  0.89793146667E+02 0.  0.
         23    2    1    2    0    0 -0.53293451281E+02  0.18704031752E+02 -0.88706637844E+02  0.13849888414E+03  0.90127912197E+02 0.  0.
          5    1    4    4  502    0 -0.55033190463E+02  0.46758852279E+02 -0.81717751499E+02  0.10915550022E+03  0.47000000000E+01 0. -1.
         -5    1    3    3    0  503  0.56769889815E+02 -0.41411153520E+02 -0.10141432664E+03  0.12346926611E+03  0.47000000000E+01 0.  1.
          5    1    3    3  503    0 -0.34764385340E+01  0.22707121768E+02 -0.11720166184E+03  0.11952413372E+03  0.47000000000E+01 0. -1.
         -5    1    4    4    0  502  0.17397391820E+01 -0.28054820527E+02 -0.69888863446E+01  0.29343383915E+02  0.47000000000E+01 0.  1.
<mgrwt>
<rscale>  0 0.10629198E+03</rscale>
<asrwt>0</asrwt>
<pdfrwt beam="1">  1        2 0.52985764E-01 0.10636293E+03</pdfrwt>
<pdfrwt beam="2">  1       -2 0.57053581E-02 0.10636293E+03</pdfrwt>
<totfact> 0.13875438E+04</totfact>
</mgrwt>
</event>
<event>
 8    1  0.8438969E-004  0.1013985E+03  0.7546771E-02  0.1278754E+00
         -2   -1    0    0    0  501 -0.00000000000E+00  0.00000000000E+00  0.54192217461E+02  0.54192217461E+02  0.00000000000E+00 0.  1.
          2   -1    0    0  501    0  0.00000000000E+00 -0.00000000000E+00 -0.25102020233E+03  0.25102020233E+03  0.00000000000E+00 0. -1.
         23    2    1    2    0    0  0.19409147626E+02  0.41289277630E+02 -0.19120245810E+02  0.10061111399E+03  0.87609890995E+02 0.  0.
         23    2    1    2    0    0 -0.19409147626E+02 -0.41289277630E+02 -0.17770773906E+03  0.20460130580E+03  0.90554593225E+02 0.  0.
          5    1    3    3  502    0  0.49530659521E+02  0.26685792394E+02  0.83258979742E+01  0.57068628206E+02  0.47000000000E+01 0. -1.
         -5    1    3    3    0  502 -0.30121511894E+02  0.14603485236E+02 -0.27446143784E+02  0.43542485786E+02  0.47000000000E+01 0.  1.
          5    1    4    4  503    0  0.14310605186E+02 -0.18297842227E+02 -0.15665803060E+03  0.15844062927E+03  0.47000000000E+01 0. -1.
         -5    1    4    4    0  503 -0.33719752812E+02 -0.22991435403E+02 -0.21049708458E+02  0.46160676531E+02  0.47000000000E+01 0.  1.
<mgrwt>
<rscale>  0 0.10073682E+03</rscale>
<asrwt>0</asrwt>
<pdfrwt beam="1">  1        2 0.38618491E-01 0.10139849E+03</pdfrwt>
<pdfrwt beam="2">  1       -2 0.83372645E-02 0.10139849E+03</pdfrwt>
<totfact> 0.10827926E+04</totfact>
</mgrwt>
</event>
<event>
 8    1  0.8438969E-004  0.1646693E+03  0.7546771E-02  0.1183943E+00
         -1   -1    0    0    0  501 -0.00000000000E+00  0.00000000000E+00  0.20544978484E+02  0.20544978484E+02  0.00000000000E+00 0.  1.
          1   -1    0    0  501    0  0.00000000000E+00 -0.00000000000E+00 -0.13856288737E+04  0.13856288737E+04  0.00000000000E+00 0. -1.
         23    2    1    2    0    0 -0.15013750299E+02  0.13169161531E+03 -0.51868611094E+03  0.54419782261E+03  0.97713326648E+02 0.  0.
         23    2    1    2    0    0  0.15013750299E+02 -0.13169161531E+03 -0.84639778431E+03  0.86197602961E+03  0.95107161148E+02 0.  0.
          5    1    4    4  502    0 -0.33575458724E+02 -0.17845214147E+02 -0.16294113642E+03  0.16738478735E+03  0.47000000000E+01 0. -1.
         -5    1    3    3    0  503 -0.45207042782E+02  0.67619366100E+02 -0.17202880600E+03  0.19034719721E+03  0.47000000000E+01 0.  1.
          5    1    3    3  503    0  0.30193292483E+02  0.64072249213E+02 -0.34665730494E+03  0.35385062540E+03  0.47000000000E+01 0. -1.
         -5    1    4    4    0  502  0.48589209023E+02 -0.11384640117E+03 -0.68345664789E+03  0.69459124227E+03  0.47000000000E+01 0.  1.
<mgrwt>
<rscale>  0 0.16428474E+03</rscale>
<asrwt>0</asrwt>
<pdfrwt beam="1">  1        1 0.21317364E+00 0.16466933E+03</pdfrwt>
<pdfrwt beam="2">  1       -1 0.31607664E-02 0.16466933E+03</pdfrwt>
<totfact> 0.29623089E+03</totfact>
</mgrwt>
</event>
<event>
 8    1  0.8438969E-004  0.9265675E+02  0.7546771E-02  0.1297224E+00
         -2   -1    0    0    0  501 -0.00000000000E+00  0.00000000000E+00  0.97071011161E+02  0.97071011161E+02  0.00000000000E+00 0.  1.
          2   -1    0    0  501    0  0.00000000000E+00 -0.00000000000E+00 -0.11970874668E+03  0.11970874668E+03  0.00000000000E+00 0. -1.
         23    2    1    2    0    0 -0.14602009111E+02  0.43082972717E+00 -0.67631108014E+02  0.11377647342E+03  0.90320068909E+02 0.  0.
         23    2    1    2    0    0  0.14602009111E+02 -0.43082972717E+00  0.44993372493E+02  0.10300328443E+03  0.91497916642E+02 0.  0.
          5    1    3    3  502    0 -0.78743038429E+01 -0.43419506832E+02 -0.46951319503E+02  0.64604757082E+02  0.47000000000E+01 0. -1.
         -5    1    3    3    0  502 -0.67277052678E+01  0.43850336559E+02 -0.20679788511E+02  0.49171716335E+02  0.47000000000E+01 0.  1.
          5    1    4    4  503    0 -0.15416643605E+02 -0.38144751031E+02  0.33407959646E+02  0.53205983677E+02  0.47000000000E+01 0. -1.
         -5    1    4    4    0  503  0.30018652716E+02  0.37713921304E+02  0.11585412846E+02  0.49797300749E+02  0.47000000000E+01 0.  1.
<mgrwt>
<rscale>  0 0.92364638E+02</rscale>
<asrwt>0</asrwt>
<pdfrwt beam="1">  1        2 0.18416730E-01 0.92656748E+02</pdfrwt>
<pdfrwt beam="2">  1       -2 0.14934002E-01 0.92656748E+02</pdfrwt>
<totfact> 0.95929950E+03</totfact>
</mgrwt>
</event>
<event>
 8    1  0.8438969E-004  0.9975952E+02  0.7546771E-02  0.1281984E+00
          1   -1    0    0  501    0  0.00000000000E+00  0.00000000000E+00  0.88735114474E+03  0.88735114474E+03  0.00000000000E+00 0. -1.
         -1   -1    0    0    0  501 -0.00000000000E+00 -0.00000000000E+00 -0.13305564125E+02  0.13305564125E+02  0.00000000000E+00 0.  1.
         23    2    1    2    0    0  0.23388210320E+02 -0.26169466538E+02  0.62980854292E+03  0.63766038190E+03  0.93381542882E+02 0.  0.
         23    2    1    2    0    0 -0.23388210320E+02  0.26169466538E+02  0.24423703770E+03  0.26299632697E+03  0.91013669596E+02 0.  0.
          5    1    4    4  502    0 -0.15576800679E+02  0.49056201507E+02  0.22729585184E+03  0.23309792339E+03  0.47000000000E+01 0. -1.
         -5    1    3    3    0  503  0.47971856195E+02 -0.45770473228E+02  0.47434996011E+03  0.47898456119E+03  0.47000000000E+01 0.  1.
          5    1    3    3  503    0 -0.24583645875E+02  0.19601006690E+02  0.15545858282E+03  0.15867582071E+03  0.47000000000E+01 0. -1.
         -5    1    4    4    0  502 -0.78114096416E+01 -0.22886734969E+02  0.16941185861E+02  0.29898403578E+02  0.47000000000E+01 0.  1.
<mgrwt>
<rscale>  0 0.99201626E+02</rscale>
<asrwt>0</asrwt>
<pdfrwt beam="1">  1        1 0.13651551E+00 0.99759520E+02</pdfrwt>
<pdfrwt beam="2">  1       -1 0.20470106E-02 0.99759520E+02</pdfrwt>
<totfact> 0.12153198E+04</totfact>
</mgrwt>
</event>
<event>
 8    1  0.8438969E-004  0.1137861E+03  0.7546771E-02  0.1256312E+00
         -1   -1    0    0    0  501 -0.00000000000E+00  0.00000000000E+00  0.10234512942E+02  0.10234512942E+02  0.00000000000E+00 0.  1.
          1   -1    0    0  501    0  0.00000000000E+00 -0.00000000000E+00 -0.13982656963E+04  0.13982656963E+04  0.00000000000E+00 0. -1.
         23    2    1    2    0    0  0.57680381924E+02  0.73730319223E+01 -0.97286831148E+03  0.97949988409E+03  0.97805334162E+02 0.  0.
         23    2    1    2    0    0 -0.57680381924E+02 -0.73730319223E+01 -0.41516287191E+03  0.42900032518E+03  0.91102583590E+02 0.  0.
          5    1    3    3  502    0  0.44240893860E+02  0.50420677235E+02 -0.64875263126E+03  0.65222815636E+03  0.47000000000E+01 0. -1.
         -5    1    4    4    0  503 -0.61800314203E+01 -0.38254384362E+02 -0.87001427334E+02  0.95356851193E+02  0.47000000000E+01 0.  1.
          5    1    4    4  503    0 -0.51500350504E+02  0.30881352440E+02 -0.32816144458E+03  0.33364347399E+03  0.47000000000E+01 0. -1.
         -5    1    3    3    0  502  0.13439488065E+02 -0.43047645312E+02 -0.32411568022E+03  0.32727172773E+03  0.47000000000E+01 0.  1.
<mgrwt>
<rscale>  0 0.11233166E+03</rscale>
<asrwt>0</asrwt>
<pdfrwt beam="1">  1        1 0.21511772E+00 0.11378608E+03</pdfrwt>
<pdfrwt beam="2">  1       -1 0.15745411E-02 0.11378608E+03</pdfrwt>
<totfact> 0.78723696E+03</totfact>
</mgrwt>
</event>
<event>
 8    1  0.8438969E-004  0.9744336E+02  0.7546771E-02  0.1286774E+00
          2   -1    0    0  501    0  0.00000000000E+00  0.00000000000E+00  0.78506562778E+03  0.78506562778E+03  0.00000000000E+00 0. -1.
         -2   -1    0    0    0  501 -0.00000000000E+00 -0.00000000000E+00 -0.12022016898E+02  0.12022016898E+02  0.00000000000E+00 0.  1.
         23    2    1    2    0    0  0.28334518062E+02 -0.11290331498E+02  0.43520084833E+03  0.44597644186E+03  0.92546700693E+02 0.  0.
         23    2    1    2    0    0 -0.28334518062E+02  0.11290331498E+02  0.33784276255E+03  0.35111120281E+03  0.90614723060E+02 0.  0.
          5    1    3    3  502    0  0.36879604730E+02 -0.35478705928E+02  0.39315048343E+03  0.39649493873E+03  0.47000000000E+01 0. -1.
         -5    1    4    4    0  503  0.63164464404E+01 -0.35760834894E+02  0.14522277870E+03  0.14976808826E+03  0.47000000000E+01 0.  1.
          5    1    4    4  503    0 -0.34650964503E+02  0.47051166392E+02  0.19261998385E+03  0.20134311456E+03  0.47000000000E+01 0. -1.
         -5    1    3    3    0  502 -0.85450866677E+01  0.24188374430E+02  0.42050364905E+02  0.49481503134E+02  0.47000000000E+01 0.  1.
<mgrwt>
<rscale>  0 0.96981846E+02</rscale>
<asrwt>0</asrwt>
<pdfrwt beam="1">  1        2 0.12077929E+00 0.97443359E+02</pdfrwt>
<pdfrwt beam="2">  1       -2 0.18495417E-02 0.97443359E+02</pdfrwt>
<totfact> 0.28804384E+04</totfact>
</mgrwt>
</event>
<event>
 8    1  0.8438969E-004  0.9576367E+02  0.7546771E-02  0.1293734E+00
         -2   -1    0    0    0  501 -0.00000000000E+00  0.00000000000E+00  0.10779405834E+03  0.10779405834E+03  0.00000000000E+00 0.  1.
          2   -1    0    0  501    0  0.00000000000E+00 -0.00000000000E+00 -0.12732451816E+03  0.12732451816E+03  0.00000000000E+00 0. -1.
         23    2    1    2    0    0  0.37935600174E+01 -0.28041215537E+01 -0.82633867537E+02  0.12648730039E+03  0.95647409271E+02 0.  0.
         23    2    1    2    0    0 -0.37935600174E+01  0.28041215537E+01  0.63103407724E+02  0.10863127611E+03  0.88297564448E+02 0.  0.
          5    1    4    4  502    0 -0.42654444796E+02  0.15514078866E+02  0.22729921212E+02  0.50978697730E+02  0.47000000000E+01 0. -1.
         -5    1    4    4    0  502  0.38860884779E+02 -0.12709957313E+02  0.40373486511E+02  0.57652578379E+02  0.47000000000E+01 0.  1.
          5    1    3    3  503    0 -0.21873173945E+02 -0.25471881320E+02 -0.85329861570E+02  0.91817905400E+02  0.47000000000E+01 0. -1.
         -5    1    3    3    0  503  0.25666733962E+02  0.22667759766E+02  0.26959940325E+01  0.34669394989E+02  0.47000000000E+01 0.  1.
<mgrwt>
<rscale>  0 0.93873393E+02</rscale>
<asrwt>0</asrwt>
<pdfrwt beam="1">  1        2 0.19588387E-01 0.95763673E+02</pdfrwt>
<pdfrwt beam="2">  1       -2 0.16583701E-01 0.95763673E+02</pdfrwt>
<totfact> 0.75678272E+03</totfact>
</mgrwt>
</event>
<event>
 8    1  0.8438969E-004  0.9114073E+02  0.7546771E-02  0.1300662E+00
          1   -1    0    0  501    0  0.00000000000E+00  0.00000000000E+00  0.18980151413E+03  0.18980151413E+03  0.00000000000E+00 0. -1.
         -1   -1    0    0    0  501 -0.00000000000E+00 -0.00000000000E+00 -0.66086582226E+02  0.66086582226E+02  0.00000000000E+00 0.  1.
         23    2    1    2    0    0 -0.23869482728E+01  0.24283718695E+01 -0.13023674692E+02  0.92066544524E+02  0.91077099241E+02 0.  0.
         23    2    1    2    0    0  0.23869482728E+01 -0.24283718695E+01  0.13673860660E+03  0.16382155183E+03  0.90157971357E+02 0.  0.
          5    1    4    4  502    0 -0.26166868713E+02 -0.14560450765E+02  0.12758363503E+03  0.13113499026E+03  0.47000000000E+01 0. -1.
         -5    1    3    3    0  503 -0.79485901837E+01  0.26287614129E+02 -0.44132107958E+02  0.52191490641E+02  0.47000000000E+01 0.  1.
          5    1    3    3  503    0  0.55616419109E+01 -0.23859242260E+02  0.31108433266E+02  0.39875053883E+02  0.47000000000E+01 0. -1.
         -5    1    4    4    0  502  0.28553816986E+02  0.12132078895E+02  0.91549715693E+01  0.32686561570E+02  0.47000000000E+01 0.  1.
<mgrwt>
<rscale>  0 0.90910236E+02</rscale>
<asrwt>0</asrwt>
<pdfrwt beam="1">  1        1 0.29200233E-01 0.91140729E+02</pdfrwt>
<pdfrwt beam="2">  1       -1 0.10167167E-01 0.91140729E+02</pdfrwt>
<totfact> 0.85221114E+03</totfact>
</mgrwt>
</event>
<event>
 8    1  0.8438969E-004  0.1023256E+03  0.7546771E-02  0.1277067E+00
          2   -1    0    0  501    0  0.00000000000E+00  0.00000000000E+00  0.70337878937E+02  0.70337878937E+02  0.00000000000E+00 0. -1.
         -2   -1    0    0    0  501 -0.00000000000E+00 -0.00000000000E+00 -0.14642384915E+03  0.14642384915E+03  0.00000000000E+00 0.  1.
         23    2    1    2    0    0  0.25539733055E+02  0.32163268380E+02 -0.51229023391E+02  0.11443315280E+03  0.93721821498E+02 0.  0.
         23    2    1    2    0    0 -0.25539733055E+02 -0.32163268380E+02 -0.24856946823E+02  0.10232857529E+03  0.90368776231E+02 0.  0.
          5    1    4    4  502    0 -0.54877119068E+02  0.52215915152E+00 -0.13010822374E+02  0.56596310359E+02  0.47000000000E+01 0. -1.
         -5    1    4    4    0  502  0.29337386014E+02 -0.32685427531E+02 -0.11846124449E+02  0.45732264928E+02  0.47000000000E+01 0.  1.
          5    1    3    3  503    0 -0.96051135364E+01 -0.17946008963E+02  0.13776906340E+02  0.25024200128E+02  0.47000000000E+01 0. -1.
         -5    1    3    3    0  503  0.35144846591E+02  0.50109277343E+02 -0.65005929731E+02  0.89408952672E+02  0.47000000000E+01 0.  1.
<mgrwt>
<rscale>  0 0.10155139E+03</rscale>
<asrwt>0</asrwt>
<pdfrwt beam="1">  1        2 0.10821212E-01 0.10232563E+03</pdfrwt>
<pdfrwt beam="2">  1       -2 0.22526746E-01 0.10232563E+03</pdfrwt>
<totfact> 0.90978724E+03</totfact>
</mgrwt>
</event>
<event>
 8    1  0.8438969E-004  0.1040468E+03  0.7546771E-02  0.1272520E+00
          1   -1    0    0  501    0  0.00000000000E+00  0.00000000000E+00  0.60155586889E+03  0.60155586889E+03  0.00000000000E+00 0. -1.
         -1   -1    0    0    0  501 -0.00000000000E+00 -0.00000000000E+00 -0.21846229926E+02  0.21846229926E+02  0.00000000000E+00 0.  1.
         23    2    1    2    0    0 -0.32072794315E+02 -0.32863393736E+02  0.15721152054E+03  0.18852373796E+03  0.93365254801E+02 0.  0.
         23    2    1    2    0    0  0.32072794315E+02  0.32863393736E+02  0.42249811843E+03  0.43487836085E+03  0.92227229593E+02 0.  0.
          5    1    3    3  502    0  0.32029150098E+02 -0.24871980374E+01  0.58037225859E+02  0.66501595436E+02  0.47000000000E+01 0. -1.
         -5    1    3    3    0  502 -0.64101944413E+02 -0.30376195698E+02  0.99174294676E+02  0.12202214253E+03  0.47000000000E+01 0.  1.
          5    1    4    4  503    0  0.47583396987E+02  0.15496013301E+02  0.39645565865E+03  0.39962918484E+03  0.47000000000E+01 0. -1.
         -5    1    4    4    0  503 -0.15510602672E+02  0.17367380435E+02  0.26042459775E+02  0.35249176012E+02  0.47000000000E+01 0.  1.
<mgrwt>
<rscale>  0 0.10379087E+03</rscale>
<asrwt>0</asrwt>
<pdfrwt beam="1">  1        1 0.92547044E-01 0.10404680E+03</pdfrwt>
<pdfrwt beam="2">  1       -1 0.33609589E-02 0.10404680E+03</pdfrwt>
<totfact> 0.10455161E+04</totfact>
</mgrwt>
</event>
<event>
 8    1  0.8438969E-004  0.1014040E+03  0.7546771E-02  0.1280025E+00
          1   -1    0    0  501    0  0.00000000000E+00  0.00000000000E+00  0.21879000056E+02  0.21879000056E+02  0.00000000000E+00 0. -1.
         -1   -1    0    0    0  501 -0.00000000000E+00 -0.00000000000E+00 -0.47917232926E+03  0.47917232926E+03  0.00000000000E+00 0.  1.
         23    2    1    2    0    0  0.24095535932E+02 -0.35031603659E+02 -0.29886408182E+03  0.31559866633E+03  0.92059603943E+02 0.  0.
         23    2    1    2    0    0 -0.24095535932E+02  0.35031603659E+02 -0.15842924739E+03  0.18545266299E+03  0.86516216265E+02 0.  0.
          5    1    4    4  502    0 -0.41635411352E+02  0.28371302620E+01 -0.29478829543E+02  0.51309338115E+02  0.47000000000E+01 0. -1.
         -5    1    4    4    0  502  0.17539875421E+02  0.32194473397E+02 -0.12895041784E+03  0.13414332488E+03  0.47000000000E+01 0.  1.
          5    1    3    3  503    0 -0.32145259118E+02 -0.30472189337E+02 -0.14248405118E+03  0.14928384658E+03  0.47000000000E+01 0. -1.
         -5    1    3    3    0  503  0.56240795050E+02 -0.45594143218E+01 -0.15638003064E+03  0.16631481975E+03  0.47000000000E+01 0.  1.
<mgrwt>
<rscale>  0 0.10012906E+03</rscale>
<asrwt>0</asrwt>
<pdfrwt beam="1">  1        1 0.33660002E-02 0.10140404E+03</pdfrwt>
<pdfrwt beam="2">  1       -1 0.73718817E-01 0.10140404E+03</pdfrwt>
<totfact> 0.52158160E+03</totfact>
</mgrwt>
</event>
<event>
 8    1  0.8438969E-004  0.1168319E+03  0.7546771E-02  0.1259244E+00
         -1   -1    0    0    0  501 -0.00000000000E+00  0.00000000000E+00  0.54491009442E+02  0.54491009442E+02  0.00000000000E+00 0.  1.
          1   -1    0    0  501    0  0.00000000000E+00 -0.00000000000E+00 -0.25750279016E+03  0.25750279016E+03  0.00000000000E+00 0. -1.
         23    2    1    2    0    0 -0.67759255458E+02 -0.23728849840E+02 -0.39603817193E+02  0.12336191918E+03  0.92170091415E+02 0.  0.
         23    2    1    2    0    0  0.67759255458E+02  0.23728849840E+02 -0.16340796352E+03  0.18863188042E+03  0.61036454308E+02 0.  0.
          5    1    3    3  502    0 -0.78645671868E+00  0.22094013859E+02 -0.35360237603E+02  0.41966657788E+02  0.47000000000E+01 0. -1.
         -5    1    3    3    0  502 -0.66972798739E+02 -0.45822863698E+02 -0.42435795895E+01  0.81395261387E+02  0.47000000000E+01 0.  1.
          5    1    4    4  503    0  0.23355648471E+02  0.10803531059E+02 -0.12677954571E+03  0.12945016728E+03  0.47000000000E+01 0. -1.
         -5    1    4    4    0  503  0.44403606987E+02  0.12925318780E+02 -0.36628417815E+02  0.59181713144E+02  0.47000000000E+01 0.  1.
<mgrwt>
<rscale>  0 0.11071889E+03</rscale>
<asrwt>0</asrwt>
<pdfrwt beam="1">  1        1 0.39615814E-01 0.11683193E+03</pdfrwt>
<pdfrwt beam="2">  1       -1 0.83832322E-02 0.11683193E+03</pdfrwt>
<totfact> 0.79937623E+03</totfact>
</mgrwt>
</event>
<event>
 8    1  0.8438969E-004  0.1272690E+03  0.7546771E-02  0.1232255E+00
          2   -1    0    0  501    0  0.00000000000E+00  0.00000000000E+00  0.11162103216E+03  0.11162103216E+03  0.00000000000E+00 0. -1.
         -2   -1    0    0    0  501 -0.00000000000E+00 -0.00000000000E+00 -0.18820820509E+03  0.18820820509E+03  0.00000000000E+00 0.  1.
         23    2    1    2    0    0 -0.16953764380E+02 -0.85793158598E+02 -0.11150139814E+03  0.16785798225E+03  0.89976909425E+02 0.  0.
         23    2    1    2    0    0  0.16953764380E+02  0.85793158598E+02  0.34914225209E+02  0.13197125499E+03  0.92463575711E+02 0.  0.
          5    1    4    4  502    0  0.51820114859E+02  0.29618468552E+02  0.25288349728E+02  0.64993604419E+02  0.47000000000E+01 0. -1.
         -5    1    3    3    0  503  0.46563631857E+01 -0.79126635599E+02 -0.11944747040E+03  0.14343114851E+03  0.47000000000E+01 0.  1.
          5    1    3    3  503    0 -0.21610127566E+02 -0.66665229999E+01  0.79460722551E+01  0.24426833741E+02  0.47000000000E+01 0. -1.
         -5    1    4    4    0  502 -0.34866350479E+02  0.56174690047E+02  0.96258754811E+01  0.66977650573E+02  0.47000000000E+01 0.  1.
<mgrwt>
<rscale>  0 0.12681790E+03</rscale>
<asrwt>0</asrwt>
<pdfrwt beam="1">  1        2 0.17172467E-01 0.12726904E+03</pdfrwt>
<pdfrwt beam="2">  1       -2 0.28955108E-01 0.12726904E+03</pdfrwt>
<totfact> 0.34629481E+03</totfact>
</mgrwt>
</event>
<event>
 8    1  0.8438969E-004  0.1028355E+03  0.7546771E-02  0.1275505E+00
         -1   -1    0    0    0  501 -0.00000000000E+00  0.00000000000E+00  0.25749810572E+03  0.25749810572E+03  0.00000000000E+00 0.  1.
          1   -1    0    0  501    0  0.00000000000E+00 -0.00000000000E+00 -0.41073062118E+02  0.41073062118E+02  0.00000000000E+00 0. -1.
         23    2    1    2    0    0  0.37319691830E+02 -0.21202257510E+02  0.12832179478E+03  0.16315579301E+03  0.91164876210E+02 0.  0.
         23    2    1    2    0    0 -0.37319691830E+02  0.21202257510E+02  0.88103248815E+02  0.13541537482E+03  0.93449698584E+02 0.  0.
          5    1    3    3  502    0  0.27070669713E+02  0.19246495289E+02  0.63282589835E+01  0.34137744527E+02  0.47000000000E+01 0. -1.
         -5    1    4    4    0  503  0.13216719302E+02  0.44611531509E+02  0.36185437785E+02  0.59129910539E+02  0.47000000000E+01 0.  1.
          5    1    4    4  503    0 -0.50536411131E+02 -0.23409273999E+02  0.51917811030E+02  0.76285464286E+02  0.47000000000E+01 0. -1.
         -5    1    3    3    0  502  0.10249022117E+02 -0.40448752799E+02  0.12199353580E+03  0.12901804848E+03  0.47000000000E+01 0.  1.
<mgrwt>
<rscale>  0 0.10231360E+03</rscale>
<asrwt>0</asrwt>
<pdfrwt beam="1">  1        1 0.63189328E-02 0.10283551E+03</pdfrwt>
<pdfrwt beam="2">  1       -1 0.39615092E-01 0.10283551E+03</pdfrwt>
<totfact> 0.69955311E+03</totfact>
</mgrwt>
</event>
<event>
 8    1  0.8438969E-004  0.2460675E+03  0.7546771E-02  0.1115901E+00
         -2   -1    0    0    0  501 -0.00000000000E+00  0.00000000000E+00  0.68804896609E+02  0.68804896609E+02  0.00000000000E+00 0.  1.
          2   -1    0    0  501    0  0.00000000000E+00 -0.00000000000E+00 -0.99205300502E+03  0.99205300502E+03  0.00000000000E+00 0. -1.
         23    2    1    2    0    0  0.16085927043E+03  0.16175630502E+03 -0.28142055373E+03  0.37347750006E+03  0.90813588671E+02 0.  0.
         23    2    1    2    0    0 -0.16085927043E+03 -0.16175630502E+03 -0.64182755468E+03  0.68738040157E+03  0.92240985594E+02 0.  0.
          5    1    4    4  502    0 -0.47219422453E+02 -0.37997893027E+02 -0.30434348681E+03  0.31035554078E+03  0.47000000000E+01 0. -1.
         -5    1    3    3    0  503  0.82245023772E+02  0.14109218381E+03 -0.20114479554E+03  0.25913812348E+03  0.47000000000E+01 0.  1.
          5    1    3    3  503    0  0.78614246656E+02  0.20664121217E+02 -0.80275758192E+02  0.11433937658E+03  0.47000000000E+01 0. -1.
         -5    1    4    4    0  502 -0.11363984797E+03 -0.12375841200E+03 -0.33748406787E+03  0.37702486079E+03  0.47000000000E+01 0.  1.
<mgrwt>
<rscale>  0 0.24593450E+03</rscale>
<asrwt>0</asrwt>
<pdfrwt beam="1">  1        2 0.15262353E+00 0.24606748E+03</pdfrwt>
<pdfrwt beam="2">  1       -2 0.10585369E-01 0.24606748E+03</pdfrwt>
<totfact> 0.16080420E+03</totfact>
</mgrwt>
</event>
<event>
 8    1  0.8438969E-004  0.2010016E+03  0.7546771E-02  0.1150357E+00
         -1   -1    0    0    0  501 -0.00000000000E+00  0.00000000000E+00  0.13854760778E+03  0.13854760778E+03  0.00000000000E+00 0.  1.
          1   -1    0    0  501    0  0.00000000000E+00 -0.00000000000E+00 -0.40573641971E+03  0.40573641971E+03  0.00000000000E+00 0. -1.
         23    2    1    2    0    0 -0.11597154947E+03 -0.13711227858E+03  0.15210765521E+02  0.20157628830E+03  0.90290948570E+02 0.  0.
         23    2    1    2    0    0  0.11597154947E+03  0.13711227858E+03 -0.28239957745E+03  0.34270773919E+03  0.73823410477E+02 0.  0.
          5    1    4    4  502    0  0.93176634732E+02  0.14219149175E+03 -0.24141061953E+03  0.29529897191E+03  0.47000000000E+01 0. -1.
         -5    1    4    4    0  502  0.22794914735E+02 -0.50792131711E+01 -0.40988957917E+02  0.47408767284E+02  0.47000000000E+01 0.  1.
          5    1    3    3  503    0 -0.90709233379E+02 -0.89946514461E+02  0.50352991109E+02  0.13739015320E+03  0.47000000000E+01 0.  1.
         -5    1    3    3    0  503 -0.25262316088E+02 -0.47165764122E+02 -0.35142225588E+02  0.64186135097E+02  0.47000000000E+01 0. -1.
<mgrwt>
<rscale>  0 0.19926954E+03</rscale>
<asrwt>0</asrwt>
<pdfrwt beam="1">  1        1 0.62420986E-01 0.20100157E+03</pdfrwt>
<pdfrwt beam="2">  1       -1 0.21315017E-01 0.20100157E+03</pdfrwt>
<totfact> 0.10786642E+03</totfact>
</mgrwt>
</event>
<event>
 8    1  0.8438969E-004  0.1027981E+03  0.7546771E-02  0.1274905E+00
          2   -1    0    0  501    0  0.00000000000E+00  0.00000000000E+00  0.77792173539E+02  0.77792173539E+02  0.00000000000E+00 0. -1.
         -2   -1    0    0    0  501 -0.00000000000E+00 -0.00000000000E+00 -0.21722207036E+03  0.21722207036E+03  0.00000000000E+00 0.  1.
         23    2    1    2    0    0  0.24477731954E+02  0.37017826660E+02  0.21283283379E+02  0.10423642874E+03  0.91884580173E+02 0.  0.
         23    2    1    2    0    0 -0.24477731954E+02 -0.37017826660E+02 -0.16071318020E+03  0.19077781515E+03  0.92725237195E+02 0.  0.
          5    1    4    4  502    0 -0.42815919943E+02 -0.45662105289E+02 -0.15772003224E+03  0.16975255353E+03  0.47000000000E+01 0. -1.
         -5    1    3    3    0  503  0.36450265942E+02  0.61071409465E+02  0.27261272596E+02  0.76312554176E+02  0.47000000000E+01 0.  1.
          5    1    3    3  503    0 -0.11972533988E+02 -0.24053582804E+02 -0.59779892170E+01  0.27923874568E+02  0.47000000000E+01 0. -1.
         -5    1    4    4    0  502  0.18338187989E+02  0.86442786289E+01 -0.29931479608E+01  0.21025261626E+02  0.47000000000E+01 0.  1.
<mgrwt>
<rscale>  0 0.10260816E+03</rscale>
<asrwt>0</asrwt>
<pdfrwt beam="1">  1        2 0.11968027E-01 0.10279810E+03</pdfrwt>
<pdfrwt beam="2">  1       -2 0.33418780E-01 0.10279810E+03</pdfrwt>
<totfact> 0.40253872E+03</totfact>
</mgrwt>
</event>
<event>
 8    1  0.8438969E-004  0.1068596E+03  0.7546771E-02  0.1266798E+00
         -3   -1    0    0    0  501 -0.00000000000E+00  0.00000000000E+00  0.42901246388E+03  0.42901246388E+03  0.00000000000E+00 0.  1.
          3   -1    0    0  501    0  0.00000000000E+00 -0.00000000000E+00 -0.33628229318E+02  0.33628229318E+02  0.00000000000E+00 0. -1.
         23    2    1    2    0    0  0.39617667728E+02 -0.40332633459E+02  0.30401916923E+03  0.32204715786E+03  0.89946849323E+02 0.  0.
         23    2    1    2    0    0 -0.39617667728E+02  0.40332633459E+02  0.91365065324E+02  0.14059353534E+03  0.90679027893E+02 0.  0.
          5    1    3    3  502    0  0.49271815957E+02 -0.20785420700E+00  0.78987156539E+02  0.93213818445E+02  0.47000000000E+01 0. -1.
         -5    1    3    3    0  502 -0.96541482281E+01 -0.40124779252E+02  0.22503201270E+03  0.22883333941E+03  0.47000000000E+01 0.  1.
          5    1    4    4  503    0 -0.36366781174E+02  0.64260475751E+02  0.41111485808E+02  0.84641572422E+02  0.47000000000E+01 0. -1.
         -5    1    4    4    0  503 -0.32508865546E+01 -0.23927842292E+02  0.50253579516E+02  0.55951962918E+02  0.47000000000E+01 0.  1.
<mgrwt>
<rscale>  0 0.10670408E+03</rscale>
<asrwt>0</asrwt>
<pdfrwt beam="1">  1        3 0.51735741E-02 0.10685957E+03</pdfrwt>
<pdfrwt beam="2">  1       -3 0.66001914E-01 0.10685957E+03</pdfrwt>
<totfact> 0.10774193E+03</totfact>
</mgrwt>
</event>
<event>
 8    1  0.8438969E-004  0.1356962E+03  0.7546771E-02  0.1231868E+00
          1   -1    0    0  501    0  0.00000000000E+00  0.00000000000E+00  0.86058131168E+03  0.86058131168E+03  0.00000000000E+00 0. -1.
         -1   -1    0    0    0  501 -0.00000000000E+00 -0.00000000000E+00 -0.26801192300E+02  0.26801192300E+02  0.00000000000E+00 0.  1.
         23    2    1    2    0    0  0.52101479952E+02  0.15579358773E+01  0.11247612824E+03  0.15342547965E+03  0.90396388229E+02 0.  0.
         23    2    1    2    0    0 -0.52101479952E+02 -0.15579358773E+01  0.72130399114E+03  0.73395702433E+03  0.12528557199E+03 0.  0.
          5    1    3    3  502    0  0.22819340395E+02 -0.26997154993E+02  0.10588887957E+03  0.11173232965E+03  0.47000000000E+01 0. -1.
         -5    1    3    3    0  502  0.29282139557E+02  0.28555090871E+02  0.65872486730E+01  0.41693149998E+02  0.47000000000E+01 0.  1.
          5    1    4    4  503    0 -0.45067919239E+02  0.47098869497E+02  0.59108646237E+03  0.59468875628E+03  0.47000000000E+01 0. -1.
         -5    1    4    4    0  503 -0.70335607129E+01 -0.48656805374E+02  0.13021752877E+03  0.13926826805E+03  0.47000000000E+01 0.  1.
<mgrwt>
<rscale>  0 0.12707111E+03</rscale>
<asrwt>0</asrwt>
<pdfrwt beam="1">  1        1 0.13239710E+00 0.13569623E+03</pdfrwt>
<pdfrwt beam="2">  1       -1 0.41232610E-02 0.13569623E+03</pdfrwt>
<totfact> 0.47019710E+03</totfact>
</mgrwt>
</event>
<event>
 8    1  0.8438969E-004  0.1191029E+03  0.7546771E-02  0.1248493E+00
          2   -1    0    0  501    0  0.00000000000E+00  0.00000000000E+00  0.17141797587E+03  0.17141797587E+03  0.00000000000E+00 0. -1.
         -2   -1    0    0    0  501 -0.00000000000E+00 -0.00000000000E+00 -0.76821022535E+02  0.76821022535E+02  0.00000000000E+00 0.  1.
         23    2    1    2    0    0 -0.44046307517E+02  0.44136217150E+02  0.51755159149E+02  0.12166527160E+03  0.90751082338E+02 0.  0.
         23    2    1    2    0    0  0.44046307517E+02 -0.44136217150E+02  0.42841794185E+02  0.12657372680E+03  0.10147613570E+03 0.  0.
          5    1    4    4  502    0  0.12689625739E+02 -0.50134596776E+02  0.68067849808E+02  0.85614406339E+02  0.47000000000E+01 0. -1.
         -5    1    3    3    0  503 -0.61509841048E+02  0.28337487472E+02  0.65215559064E+02  0.94136246399E+02  0.47000000000E+01 0.  1.
          5    1    3    3  503    0  0.17463533531E+02  0.15798729678E+02 -0.13460399915E+02  0.27529025205E+02  0.47000000000E+01 0. -1.
         -5    1    4    4    0  502  0.31356681778E+02  0.59983796261E+01 -0.25226055623E+02  0.40959320461E+02  0.47000000000E+01 0.  1.
<mgrwt>
<rscale>  0 0.11678758E+03</rscale>
<asrwt>0</asrwt>
<pdfrwt beam="1">  1        2 0.26371996E-01 0.11910285E+03</pdfrwt>
<pdfrwt beam="2">  1       -2 0.11818619E-01 0.11910285E+03</pdfrwt>
<totfact> 0.95754495E+03</totfact>
</mgrwt>
</event>
<event>
 8    1  0.8438969E-004  0.1066514E+03  0.7546771E-02  0.1268057E+00
         -1   -1    0    0    0  501 -0.00000000000E+00  0.00000000000E+00  0.17765029681E+02  0.17765029681E+02  0.00000000000E+00 0.  1.
          1   -1    0    0  501    0  0.00000000000E+00 -0.00000000000E+00 -0.77247299119E+03  0.77247299119E+03  0.00000000000E+00 0. -1.
         23    2    1    2    0    0 -0.22497829823E+02  0.45344843239E+02 -0.55275950905E+03  0.56295435402E+03  0.93873439883E+02 0.  0.
         23    2    1    2    0    0  0.22497829823E+02 -0.45344843239E+02 -0.20194845246E+03  0.22728366684E+03  0.91172257893E+02 0.  0.
          5    1    4    4  502    0  0.54763249374E+02 -0.25304977355E+02 -0.15695214320E+03  0.16821242705E+03  0.47000000000E+01 0. -1.
         -5    1    3    3    0  503 -0.18535686071E+02 -0.21654445623E+02 -0.73137590409E+02  0.78636402539E+02  0.47000000000E+01 0.  1.
          5    1    3    3  503    0 -0.39621437520E+01  0.66999288862E+02 -0.47962191864E+03  0.48431795149E+03  0.47000000000E+01 0. -1.
         -5    1    4    4    0  502 -0.32265419551E+02 -0.20039865884E+02 -0.44996309258E+02  0.59071239790E+02  0.47000000000E+01 0.  1.
<mgrwt>
<rscale>  0 0.10605402E+03</rscale>
<asrwt>0</asrwt>
<pdfrwt beam="1">  1        1 0.11884203E+00 0.10665144E+03</pdfrwt>
<pdfrwt beam="2">  1       -1 0.27330809E-02 0.10665144E+03</pdfrwt>
<totfact> 0.99432699E+03</totfact>
</mgrwt>
</event>
<event>
 8    1  0.8438969E-004  0.9573596E+02  0.7546771E-02  0.1290006E+00
         -1   -1    0    0    0  501 -0.00000000000E+00  0.00000000000E+00  0.88927660362E+02  0.88927660362E+02  0.00000000000E+00 0.  1.
          1   -1    0    0  501    0  0.00000000000E+00 -0.00000000000E+00 -0.17842000129E+03  0.17842000129E+03  0.00000000000E+00 0. -1.
         23    2    1    2    0    0 -0.14752113857E+02  0.25305131801E+02  0.42538566203E+02  0.10476117616E+03  0.91144938740E+02 0.  0.
         23    2    1    2    0    0  0.14752113857E+02 -0.25305131801E+02 -0.13203090713E+03  0.16258648548E+03  0.90245389172E+02 0.  0.
          5    1    3    3  502    0 -0.69749533533E+01  0.56968442686E+02  0.99790415346E+01  0.58444201648E+02  0.47000000000E+01 0. -1.
         -5    1    4    4    0  503  0.20556227473E+02 -0.11601472994E+00 -0.13455058763E+03  0.13619296083E+03  0.47000000000E+01 0.  1.
          5    1    4    4  503    0 -0.58041136155E+01 -0.25189117071E+02  0.25196805085E+01  0.26393524652E+02  0.47000000000E+01 0. -1.
         -5    1    3    3    0  502 -0.77771605038E+01 -0.31663310884E+02  0.32559524669E+02  0.46316974516E+02  0.47000000000E+01 0.  1.
<mgrwt>
<rscale>  0 0.95521238E+02</rscale>
<asrwt>0</asrwt>
<pdfrwt beam="1">  1        1 0.27449231E-01 0.95735962E+02</pdfrwt>
<pdfrwt beam="2">  1       -1 0.13681179E-01 0.95735962E+02</pdfrwt>
<totfact> 0.58688917E+03</totfact>
</mgrwt>
</event>
<event>
 8    1  0.8438969E-004  0.1177683E+03  0.7546771E-02  0.1246889E+00
          1   -1    0    0  501    0  0.00000000000E+00  0.00000000000E+00  0.52928071010E+02  0.52928071010E+02  0.00000000000E+00 0. -1.
         -1   -1    0    0    0  501 -0.00000000000E+00 -0.00000000000E+00 -0.28593074145E+03  0.28593074145E+03  0.00000000000E+00 0.  1.
         23    2    1    2    0    0 -0.47221515291E+02 -0.56951255928E+02 -0.67116066583E+02  0.13541903672E+03  0.91435398259E+02 0.  0.
         23    2    1    2    0    0  0.47221515291E+02  0.56951255928E+02 -0.16588660385E+03  0.20343977573E+03  0.91630016670E+02 0.  0.
          5    1    3    3  502    0 -0.17042759273E+02 -0.76032412298E+02 -0.60597777490E+02  0.98820868243E+02  0.47000000000E+01 0. -1.
         -5    1    3    3    0  502 -0.30178756019E+02  0.19081156371E+02 -0.65182890929E+01  0.36598168478E+02  0.47000000000E+01 0.  1.
          5    1    4    4  503    0  0.27054230966E+02  0.18436421525E+01 -0.11090366036E+00  0.27521495765E+02  0.47000000000E+01 0. -1.
         -5    1    4    4    0  503  0.20167284326E+02  0.55107613775E+02 -0.16577570019E+03  0.17591827997E+03  0.47000000000E+01 0.  1.
<mgrwt>
<rscale>  0 0.11773046E+03</rscale>
<asrwt>0</asrwt>
<pdfrwt beam="1">  1        1 0.81427802E-02 0.11776832E+03</pdfrwt>
<pdfrwt beam="2">  1       -1 0.43989344E-01 0.11776832E+03</pdfrwt>
<totfact> 0.41865224E+03</totfact>
</mgrwt>
</event>
<event>
 8    1  0.8438969E-004  0.2297405E+03  0.7546771E-02  0.1127017E+00
         -2   -1    0    0    0  501 -0.00000000000E+00  0.00000000000E+00  0.61312289407E+02  0.61312289407E+02  0.00000000000E+00 0. -1.
          2   -1    0    0  501    0  0.00000000000E+00 -0.00000000000E+00 -0.90910292686E+03  0.90910292686E+03  0.00000000000E+00 0.  1.
         23    2    1    2    0    0  0.20472803571E+03 -0.52097622693E+02 -0.53938709288E+03  0.58584607458E+03  0.87461169836E+02 0.  0.
         23    2    1    2    0    0 -0.20472803571E+03  0.52097622693E+02 -0.30840354457E+03  0.38456914170E+03  0.90293673879E+02 0.  0.
          5    1    3    3  502    0  0.18504206571E+02 -0.29941660311E+02 -0.46807968679E+02  0.58753592357E+02  0.47000000000E+01 0.  1.
         -5    1    4    4    0  503 -0.16142010414E+03  0.60802898098E+02 -0.28787878198E+03  0.33563332009E+03  0.47000000000E+01 0.  1.
          5    1    4    4  503    0 -0.43307931575E+02 -0.87052754054E+01 -0.20524762592E+02  0.48935821610E+02  0.47000000000E+01 0. -1.
         -5    1    3    3    0  502  0.18622382914E+03 -0.22155962382E+02 -0.49257912421E+03  0.52709248222E+03  0.47000000000E+01 0.  1.
<mgrwt>
<rscale>  0 0.22946536E+03</rscale>
<asrwt>0</asrwt>
<pdfrwt beam="1">  1        2 0.13986197E+00 0.22974046E+03</pdfrwt>
<pdfrwt beam="2">  1       -2 0.94326613E-02 0.22974046E+03</pdfrwt>
<totfact> 0.21770147E+03</totfact>
</mgrwt>
</event>
<event>
 8    1  0.8438969E-004  0.1141752E+03  0.7546771E-02  0.1253093E+00
          1   -1    0    0  501    0  0.00000000000E+00  0.00000000000E+00  0.61524583271E+02  0.61524583271E+02  0.00000000000E+00 0. -1.
         -1   -1    0    0    0  501 -0.00000000000E+00 -0.00000000000E+00 -0.22249655982E+03  0.22249655982E+03  0.00000000000E+00 0.  1.
         23    2    1    2    0    0 -0.48702250058E+02 -0.47612364658E+02 -0.49019364152E+02  0.12411691456E+03  0.91450882929E+02 0.  0.
         23    2    1    2    0    0  0.48702250058E+02  0.47612364658E+02 -0.11195261240E+03  0.15990422854E+03  0.91635846978E+02 0.  0.
          5    1    3    3  502    0 -0.23277514239E+02 -0.57185097030E+02  0.63684131394E+01  0.62246483253E+02  0.47000000000E+01 0. -1.
         -5    1    3    3    0  502 -0.25424735819E+02  0.95727323719E+01 -0.55387777292E+02  0.61870431305E+02  0.47000000000E+01 0.  1.
          5    1    4    4  503    0  0.54388028937E+02 -0.56656495581E+01 -0.31963045834E+02  0.63512861497E+02  0.47000000000E+01 0. -1.
         -5    1    4    4    0  503 -0.56857788786E+01  0.53278014216E+02 -0.79989566566E+02  0.96391367039E+02  0.47000000000E+01 0.  1.
<mgrwt>
<rscale>  0 0.11413808E+03</rscale>
<asrwt>0</asrwt>
<pdfrwt beam="1">  1        1 0.94653203E-02 0.11417519E+03</pdfrwt>
<pdfrwt beam="2">  1       -1 0.34230241E-01 0.11417519E+03</pdfrwt>
<totfact> 0.52890614E+03</totfact>
</mgrwt>
</event>
<event>
 8    1  0.8438969E-004  0.1083152E+03  0.7546771E-02  0.1264096E+00
          1   -1    0    0  501    0  0.00000000000E+00  0.00000000000E+00  0.10359608878E+04  0.10359608878E+04  0.00000000000E+00 0. -1.
         -1   -1    0    0    0  501 -0.00000000000E+00 -0.00000000000E+00 -0.11399068850E+02  0.11399068850E+02  0.00000000000E+00 0.  1.
         23    2    1    2    0    0  0.55455424524E+02  0.20074815882E+02  0.57546830770E+03  0.58557318989E+03  0.90850895519E+02 0.  0.
         23    2    1    2    0    0 -0.55455424524E+02 -0.20074815882E+02  0.44909351123E+03  0.46178676674E+03  0.89909586583E+02 0.  0.
          5    1    4    4  502    0 -0.79003771022E+01  0.22833219089E+02  0.35272438042E+02  0.43011704660E+02  0.47000000000E+01 0. -1.
         -5    1    4    4    0  502 -0.47555047421E+02 -0.42908034971E+02  0.41382107319E+03  0.41877506208E+03  0.47000000000E+01 0.  1.
          5    1    3    3  503    0  0.77272237648E+02  0.24095380812E+02  0.36554656230E+03  0.37443018748E+03  0.47000000000E+01 0. -1.
         -5    1    3    3    0  503 -0.21816813125E+02 -0.40205649297E+01  0.20992174540E+03  0.21114300241E+03  0.47000000000E+01 0.  1.
<mgrwt>
<rscale>  0 0.10811760E+03</rscale>
<asrwt>0</asrwt>
<pdfrwt beam="1">  1        1 0.15937852E+00 0.10831522E+03</pdfrwt>
<pdfrwt beam="2">  1       -1 0.17537037E-02 0.10831522E+03</pdfrwt>
<totfact> 0.11849254E+04</totfact>
</mgrwt>
</event>
<event>
 8    1  0.8438969E-004  0.1581090E+03  0.7546771E-02  0.1191058E+00
          1   -1    0    0  501    0  0.00000000000E+00  0.00000000000E+00  0.10056501710E+04  0.10056501710E+04  0.00000000000E+00 0. -1.
         -1   -1    0    0    0  501 -0.00000000000E+00 -0.00000000000E+00 -0.60443771511E+02  0.60443771511E+02  0.00000000000E+00 0.  1.
         23    2    1    2    0    0 -0.11937712897E+03  0.48194452740E+02  0.63388535218E+02  0.17034248508E+03  0.91786990518E+02 0.  0.
         23    2    1    2    0    0  0.11937712897E+03 -0.48194452740E+02  0.88181786432E+03  0.89575145748E+03  0.90522503010E+02 0.  0.
          5    1    4    4  502    0  0.88890536809E+02 -0.31857333908E+02  0.81405377777E+03  0.81952550928E+03  0.47000000000E+01 0. -1.
         -5    1    3    3    0  503 -0.94629274368E+02  0.35987842675E+02  0.33079723100E+00  0.10135099316E+03  0.47000000000E+01 0.  1.
          5    1    3    3  503    0 -0.24747854605E+02  0.12206610065E+02  0.63057737987E+02  0.68991491916E+02  0.47000000000E+01 0. -1.
         -5    1    4    4    0  502  0.30486592164E+02 -0.16337118831E+02  0.67764086549E+02  0.76225948202E+02  0.47000000000E+01 0.  1.
<mgrwt>
<rscale>  0 0.15792601E+03</rscale>
<asrwt>0</asrwt>
<pdfrwt beam="1">  1        1 0.15471540E+00 0.15810900E+03</pdfrwt>
<pdfrwt beam="2">  1       -1 0.92990425E-02 0.15810900E+03</pdfrwt>
<totfact> 0.10848145E+03</totfact>
</mgrwt>
</event>
<event>
 8    1  0.8438969E-004  0.9157417E+02  0.7546771E-02  0.1300170E+00
          1   -1    0    0  501    0  0.00000000000E+00  0.00000000000E+00  0.63746271920E+03  0.63746271920E+03  0.00000000000E+00 0. -1.
         -1   -1    0    0    0  501 -0.00000000000E+00 -0.00000000000E+00 -0.17529995012E+02  0.17529995012E+02  0.00000000000E+00 0.  1.
         23    2    1    2    0    0  0.46233218634E+01 -0.64840839914E+01  0.14386279541E+03  0.17053543085E+03  0.91227248230E+02 0.  0.
         23    2    1    2    0    0 -0.46233218634E+01  0.64840839914E+01  0.47606992878E+03  0.48445728337E+03  0.89402818028E+02 0.  0.
          5    1    4    4  502    0  0.23336716953E+02  0.39459062633E+02  0.26044679774E+03  0.26449242794E+03  0.47000000000E+01 0. -1.
         -5    1    4    4    0  502 -0.27960038816E+02 -0.32974978641E+02  0.21562313104E+03  0.21996485543E+03  0.47000000000E+01 0.  1.
          5    1    3    3  503    0 -0.21551909984E+02  0.35304116675E+02  0.57694820132E+02  0.71145258087E+02  0.47000000000E+01 0. -1.
         -5    1    3    3    0  503  0.26175231847E+02 -0.41788200666E+02  0.86167975281E+02  0.99390172760E+02  0.47000000000E+01 0.  1.
<mgrwt>
<rscale>  0 0.91116408E+02</rscale>
<asrwt>0</asrwt>
<pdfrwt beam="1">  1        1 0.98071169E-01 0.91574174E+02</pdfrwt>
<pdfrwt beam="2">  1       -1 0.26969228E-02 0.91574174E+02</pdfrwt>
<totfact> 0.13144068E+04</totfact>
</mgrwt>
</event>
<event>
 8    1  0.8438969E-004  0.9147341E+02  0.7546771E-02  0.1300558E+00
          4   -1    0    0  501    0  0.00000000000E+00  0.00000000000E+00  0.94722234366E+02  0.94722234366E+02  0.00000000000E+00 0. -1.
         -4   -1    0    0    0  501 -0.00000000000E+00 -0.00000000000E+00 -0.94923798476E+02  0.94923798476E+02  0.00000000000E+00 0.  1.
         23    2    1    2    0    0 -0.43496196570E+00 -0.63686797367E+01  0.28384498017E+02  0.93809990195E+02  0.89184557292E+02 0.  0.
         23    2    1    2    0    0  0.43496196570E+00  0.63686797367E+01 -0.28586062127E+02  0.95836042647E+02  0.91250396431E+02 0.  0.
          5    1    4    4  502    0 -0.29204165475E+02  0.12237528052E+02  0.20494165323E+02  0.38009751199E+02  0.47000000000E+01 0. -1.
         -5    1    3    3    0  503 -0.16611869529E+02 -0.44497049116E+02  0.15140420158E+02  0.50072586430E+02  0.47000000000E+01 0.  1.
          5    1    3    3  503    0  0.16176907563E+02  0.38128369379E+02  0.13244077859E+02  0.43737403765E+02  0.47000000000E+01 0. -1.
         -5    1    4    4    0  502  0.29639127441E+02 -0.58688483157E+01 -0.49080227450E+02  0.57826291447E+02  0.47000000000E+01 0.  1.
<mgrwt>
<rscale>  0 0.90953825E+02</rscale>
<asrwt>0</asrwt>
<pdfrwt beam="1">  1        4 0.14572651E-01 0.91473407E+02</pdfrwt>
<pdfrwt beam="2">  1       -4 0.14603661E-01 0.91473407E+02</pdfrwt>
<totfact> 0.23312060E+03</totfact>
</mgrwt>
</event>
<event>
 8    1  0.8438969E-004  0.9264488E+02  0.7546771E-02  0.1296810E+00
          2   -1    0    0  501    0  0.00000000000E+00  0.00000000000E+00  0.57255456255E+03  0.57255456255E+03  0.00000000000E+00 0. -1.
         -2   -1    0    0    0  501 -0.00000000000E+00 -0.00000000000E+00 -0.35905771303E+02  0.35905771303E+02  0.00000000000E+00 0.  1.
         23    2    1    2    0    0  0.74065875168E+01 -0.72265645806E+01  0.35514824151E+02  0.98834660999E+02  0.91651004937E+02 0.  0.
         23    2    1    2    0    0 -0.74065875168E+01  0.72265645806E+01  0.50113396710E+03  0.50962567286E+03  0.92065154537E+02 0.  0.
          5    1    3    3  502    0 -0.38696293069E+02  0.13787219339E+02  0.15551013203E+02  0.44174817782E+02  0.47000000000E+01 0. -1.
         -5    1    4    4    0  503  0.37074762746E+02 -0.17522738739E+02  0.24260602236E+03  0.24609217072E+03  0.47000000000E+01 0.  1.
          5    1    4    4  503    0 -0.44481350263E+02  0.24749303320E+02  0.25852794474E+03  0.26353350214E+03  0.47000000000E+01 0. -1.
         -5    1    3    3    0  502  0.46102880586E+02 -0.21013783920E+02  0.19963810947E+02  0.54659843217E+02  0.47000000000E+01 0.  1.
<mgrwt>
<rscale>  0 0.92541820E+02</rscale>
<asrwt>0</asrwt>
<pdfrwt beam="1">  1        2 0.88085311E-01 0.92644878E+02</pdfrwt>
<pdfrwt beam="2">  1       -2 0.55239652E-02 0.92644878E+02</pdfrwt>
<totfact> 0.83536699E+03</totfact>
</mgrwt>
</event>
<event>
 8    1  0.8438969E-004  0.9576548E+02  0.7546771E-02  0.1292049E+00
          2   -1    0    0  501    0  0.00000000000E+00  0.00000000000E+00  0.16018752234E+03  0.16018752234E+03  0.00000000000E+00 0. -1.
         -2   -1    0    0    0  501 -0.00000000000E+00 -0.00000000000E+00 -0.55900198882E+02  0.55900198882E+02  0.00000000000E+00 0.  1.
         23    2    1    2    0    0 -0.26961141091E+02 -0.53313923662E+01  0.34302847808E+02  0.97475517450E+02  0.87002668125E+02 0.  0.
         23    2    1    2    0    0  0.26961141091E+02  0.53313923662E+01  0.69984475649E+02  0.11861220377E+03  0.91737130858E+02 0.  0.
          5    1    3    3  502    0 -0.18735864841E+02 -0.29982422363E+02  0.53870610419E+02  0.64607359867E+02  0.47000000000E+01 0. -1.
         -5    1    4    4    0  503 -0.91468207225E+01 -0.37566899258E+02  0.22468947875E+02  0.44965318499E+02  0.47000000000E+01 0.  1.
          5    1    4    4  503    0  0.36107961814E+02  0.42898291624E+02  0.47515527775E+02  0.73646885272E+02  0.47000000000E+01 0. -1.
         -5    1    3    3    0  502 -0.82252762497E+01  0.24651029997E+02 -0.19567762610E+02  0.32868157583E+02  0.47000000000E+01 0.  1.
<mgrwt>
<rscale>  0 0.94613569E+02</rscale>
<asrwt>0</asrwt>
<pdfrwt beam="1">  1        2 0.24644234E-01 0.95765485E+02</pdfrwt>
<pdfrwt beam="2">  1       -2 0.86000307E-02 0.95765485E+02</pdfrwt>
<totfact> 0.16613143E+04</totfact>
</mgrwt>
</event>
<event>
 8    1  0.8438969E-004  0.1355857E+03  0.7546771E-02  0.1220024E+00
          2   -1    0    0  501    0  0.00000000000E+00  0.00000000000E+00  0.59317003321E+02  0.59317003321E+02  0.00000000000E+00 0. -1.
         -2   -1    0    0    0  501 -0.00000000000E+00 -0.00000000000E+00 -0.43813922783E+03  0.43813922783E+03  0.00000000000E+00 0.  1.
         23    2    1    2    0    0  0.95985254575E+02 -0.16130364062E+02 -0.51875437854E+02  0.14351036831E+03  0.91819426159E+02 0.  0.
         23    2    1    2    0    0 -0.95985254575E+02  0.16130364062E+02 -0.32694678666E+03  0.35394586284E+03  0.94393404302E+02 0.  0.
          5    1    4    4  502    0  0.64196920141E+00  0.21023941472E+02 -0.12494457184E+02  0.24912239960E+02  0.47000000000E+01 0. -1.
         -5    1    3    3    0  503  0.23722079633E+02 -0.29418481168E+02 -0.58267227449E+02  0.69608504444E+02  0.47000000000E+01 0.  1.
          5    1    3    3  503    0  0.72263174943E+02  0.13288117106E+02  0.63917895955E+01  0.73901863869E+02  0.47000000000E+01 0. -1.
         -5    1    4    4    0  502 -0.96627223777E+02 -0.48935774104E+01 -0.31445232947E+03  0.32903362288E+03  0.47000000000E+01 0.  1.
<mgrwt>
<rscale>  0 0.13513865E+03</rscale>
<asrwt>0</asrwt>
<pdfrwt beam="1">  1        2 0.91256928E-02 0.13558566E+03</pdfrwt>
<pdfrwt beam="2">  1       -2 0.67406036E-01 0.13558566E+03</pdfrwt>
<totfact> 0.14431135E+03</totfact>
</mgrwt>
</event>
<event>
 8    1  0.8438969E-004  0.1013821E+03  0.7546771E-02  0.1281289E+00
         -2   -1    0    0    0  501 -0.00000000000E+00  0.00000000000E+00  0.11032570639E+02  0.11032570639E+02  0.00000000000E+00 0.  1.
          2   -1    0    0  501    0  0.00000000000E+00 -0.00000000000E+00 -0.92876210139E+03  0.92876210139E+03  0.00000000000E+00 0. -1.
         23    2    1    2    0    0  0.25064362933E+02  0.20774201657E+02 -0.32153729507E+03  0.33504388786E+03  0.88365066205E+02 0.  0.
         23    2    1    2    0    0 -0.25064362933E+02 -0.20774201657E+02 -0.59619223568E+03  0.60475078417E+03  0.96013224749E+02 0.  0.
          5    1    3    3  502    0  0.46821812598E+02 -0.12232438556E+02 -0.23222710140E+03  0.23726236809E+03  0.47000000000E+01 0. -1.
         -5    1    4    4    0  503  0.27369718121E+02 -0.36941371439E+02 -0.28518135145E+03  0.28890181656E+03  0.47000000000E+01 0.  1.
          5    1    4    4  503    0 -0.52434081054E+02  0.16167169782E+02 -0.31101088422E+03  0.31584896761E+03  0.47000000000E+01 0. -1.
         -5    1    3    3    0  502 -0.21757449665E+02  0.33006640214E+02 -0.89310193673E+02  0.97781519768E+02  0.47000000000E+01 0.  1.
<mgrwt>
<rscale>  0 0.99529134E+02</rscale>
<asrwt>0</asrwt>
<pdfrwt beam="1">  1        2 0.14288650E+00 0.10138209E+03</pdfrwt>
<pdfrwt beam="2">  1       -2 0.16973182E-02 0.10138209E+03</pdfrwt>
<totfact> 0.26463102E+04</totfact>
</mgrwt>
</event>
<event>
 8    1  0.8438969E-004  0.9876933E+02  0.7546771E-02  0.1283603E+00
          1   -1    0    0  501    0  0.00000000000E+00  0.00000000000E+00  0.26306248988E+03  0.26306248988E+03  0.00000000000E+00 0. -1.
         -1   -1    0    0    0  501 -0.00000000000E+00 -0.00000000000E+00 -0.41996079201E+02  0.41996079201E+02  0.00000000000E+00 0.  1.
         23    2    1    2    0    0  0.25209383903E+02  0.21460025081E+02  0.16457734434E+03  0.19127634224E+03  0.91678193261E+02 0.  0.
         23    2    1    2    0    0 -0.25209383903E+02 -0.21460025081E+02  0.56489066346E+02  0.11378222684E+03  0.93055546934E+02 0.  0.
          5    1    3    3  502    0 -0.18064508463E+02  0.28462918712E+02  0.13237259359E+03  0.13667866601E+03  0.47000000000E+01 0. -1.
         -5    1    4    4    0  503 -0.31022676516E+02  0.30032296615E+02  0.11331320889E+02  0.44886903783E+02  0.47000000000E+01 0.  1.
          5    1    4    4  503    0  0.58132926130E+01 -0.51492321695E+02  0.45157745456E+02  0.68895323058E+02  0.47000000000E+01 0. -1.
         -5    1    3    3    0  502  0.43273892365E+02 -0.70028936308E+01  0.32204750744E+02  0.54597676233E+02  0.47000000000E+01 0.  1.
<mgrwt>
<rscale>  0 0.98443577E+02</rscale>
<asrwt>0</asrwt>
<pdfrwt beam="1">  1        1 0.40471151E-01 0.98769330E+02</pdfrwt>
<pdfrwt beam="2">  1       -1 0.64609354E-02 0.98769330E+02</pdfrwt>
<totfact> 0.11333076E+04</totfact>
</mgrwt>
</event>
<event>
 8    1  0.8438969E-004  0.1460528E+03  0.7546771E-02  0.1205488E+00
          3   -1    0    0  501    0  0.00000000000E+00  0.00000000000E+00  0.36264998983E+03  0.36264998983E+03  0.00000000000E+00 0. -1.
         -3   -1    0    0    0  501 -0.00000000000E+00 -0.00000000000E+00 -0.74648148426E+02  0.74648148426E+02  0.00000000000E+00 0.  1.
         23    2    1    2    0    0 -0.56491985968E+02  0.98731602418E+02  0.24509206020E+03  0.28530952803E+03  0.91608596844E+02 0.  0.
         23    2    1    2    0    0  0.56491985968E+02 -0.98731602418E+02  0.42909781204E+02  0.15198861023E+03  0.91214113610E+02 0.  0.
          5    1    3    3  502    0 -0.25028590893E+02 -0.35296741346E+01  0.10974840746E+03  0.11271952760E+03  0.47000000000E+01 0. -1.
         -5    1    4    4    0  503  0.49931963606E+02 -0.32113009443E+02 -0.17105623023E+02  0.61960783598E+02  0.47000000000E+01 0.  1.
          5    1    4    4  503    0  0.65600223621E+01 -0.66618592974E+02  0.60015404228E+02  0.90027826631E+02  0.47000000000E+01 0. -1.
         -5    1    3    3    0  502 -0.31463395075E+02  0.10226127655E+03  0.13534365274E+03  0.17259000043E+03  0.47000000000E+01 0.  1.
<mgrwt>
<rscale>  0 0.14599094E+03</rscale>
<asrwt>0</asrwt>
<pdfrwt beam="1">  1        3 0.55792305E-01 0.14605276E+03</pdfrwt>
<pdfrwt beam="2">  1       -3 0.11484331E-01 0.14605276E+03</pdfrwt>
<totfact> 0.43917497E+02</totfact>
</mgrwt>
</event>
<event>
 8    1  0.8438969E-004  0.9434061E+02  0.7546771E-02  0.1293844E+00
          1   -1    0    0  501    0  0.00000000000E+00  0.00000000000E+00  0.43702215612E+02  0.43702215612E+02  0.00000000000E+00 0. -1.
         -1   -1    0    0    0  501 -0.00000000000E+00 -0.00000000000E+00 -0.19956894336E+03  0.19956894336E+03  0.00000000000E+00 0.  1.
         23    2    1    2    0    0 -0.51133782035E+01  0.12977222055E+02 -0.74041467571E+02  0.11992618049E+03  0.93303777620E+02 0.  0.
         23    2    1    2    0    0  0.51133782035E+01 -0.12977222055E+02 -0.81825260176E+02  0.12334497848E+03  0.91236262443E+02 0.  0.
          5    1    4    4  502    0  0.32002873875E+02 -0.28565734914E+02 -0.90807445632E+01  0.44099150437E+02  0.47000000000E+01 0. -1.
         -5    1    4    4    0  502 -0.26889495672E+02  0.15588512859E+02 -0.72744515612E+02  0.79245828044E+02  0.47000000000E+01 0.  1.
          5    1    3    3  503    0  0.19869593577E+02  0.10425630347E+02  0.14930349563E+02  0.27358725393E+02  0.47000000000E+01 0. -1.
         -5    1    3    3    0  503 -0.24982971780E+02  0.25515917078E+01 -0.88971817134E+02  0.92567455098E+02  0.47000000000E+01 0.  1.
<mgrwt>
<rscale>  0 0.93825328E+02</rscale>
<asrwt>0</asrwt>
<pdfrwt beam="1">  1        1 0.67234178E-02 0.94340606E+02</pdfrwt>
<pdfrwt beam="2">  1       -1 0.30702915E-01 0.94340606E+02</pdfrwt>
<totfact> 0.98544670E+03</totfact>
</mgrwt>
</event>
<event>
 8    1  0.8438969E-004  0.1124087E+03  0.7546771E-02  0.1256936E+00
          1   -1    0    0  501    0  0.00000000000E+00  0.00000000000E+00  0.70211768902E+03  0.70211768902E+03  0.00000000000E+00 0. -1.
         -1   -1    0    0    0  501 -0.00000000000E+00 -0.00000000000E+00 -0.25531488929E+02  0.25531488929E+02  0.00000000000E+00 0.  1.
         23    2    1    2    0    0  0.57007534642E+02  0.30135148487E+02  0.13893258877E+03  0.17871201473E+03  0.92074610002E+02 0.  0.
         23    2    1    2    0    0 -0.57007534642E+02 -0.30135148487E+02  0.53765361132E+03  0.54893716322E+03  0.90014538899E+02 0.  0.
          5    1    4    4  502    0 -0.64631935072E+02 -0.11526986346E+02  0.51098837330E+03  0.51521002135E+03  0.47000000000E+01 0. -1.
         -5    1    3    3    0  503  0.55202755469E+02 -0.20672320774E+02  0.56738602384E+02  0.81951498205E+02  0.47000000000E+01 0.  1.
          5    1    3    3  503    0  0.18047791725E+01  0.50807469261E+02  0.82193986382E+02  0.96760516523E+02  0.47000000000E+01 0. -1.
         -5    1    4    4    0  502  0.76244004297E+01 -0.18608162141E+02  0.26665238020E+02  0.33727141872E+02  0.47000000000E+01 0.  1.
<mgrwt>
<rscale>  0 0.11198606E+03</rscale>
<asrwt>0</asrwt>
<pdfrwt beam="1">  1        1 0.10801809E+00 0.11240872E+03</pdfrwt>
<pdfrwt beam="2">  1       -1 0.39279219E-02 0.11240872E+03</pdfrwt>
<totfact> 0.67651110E+03</totfact>
</mgrwt>
</event>
<event>
 8    1  0.8438969E-004  0.1591319E+03  0.7546771E-02  0.1190405E+00
          2   -1    0    0  501    0  0.00000000000E+00  0.00000000000E+00  0.79572180454E+03  0.79572180454E+03  0.00000000000E+00 0. -1.
         -2   -1    0    0    0  501 -0.00000000000E+00 -0.00000000000E+00 -0.39668704600E+02  0.39668704600E+02  0.00000000000E+00 0.  1.
         23    2    1    2    0    0  0.93016798995E+02 -0.89398786315E+02  0.57203146084E+03  0.59375327416E+03  0.93159489528E+02 0.  0.
         23    2    1    2    0    0 -0.93016798995E+02  0.89398786315E+02  0.18402163909E+03  0.24163723498E+03  0.88771176537E+02 0.  0.
          5    1    4    4  502    0 -0.50411712925E+01  0.62880201363E+02  0.59756073025E+02  0.87018454335E+02  0.47000000000E+01 0. -1.
         -5    1    3    3    0  503 -0.11087697467E+02 -0.39223935067E+02  0.19968129791E+03  0.20385329247E+03  0.47000000000E+01 0.  1.
          5    1    3    3  503    0  0.10410449646E+03 -0.50174851248E+02  0.37235016294E+03  0.38989998169E+03  0.47000000000E+01 0. -1.
         -5    1    4    4    0  502 -0.87975627702E+02  0.26518584952E+02  0.12426556607E+03  0.15461878064E+03  0.47000000000E+01 0.  1.
<mgrwt>
<rscale>  0 0.15849594E+03</rscale>
<asrwt>0</asrwt>
<pdfrwt beam="1">  1        2 0.12241873E+00 0.15913189E+03</pdfrwt>
<pdfrwt beam="2">  1       -2 0.61028782E-02 0.15913189E+03</pdfrwt>
<totfact> 0.50368416E+03</totfact>
</mgrwt>
</event>
<event>
 8    1  0.8438969E-004  0.9901159E+02  0.7546771E-02  0.1283276E+00
         -1   -1    0    0    0  501 -0.00000000000E+00  0.00000000000E+00  0.15310087567E+02  0.15310087567E+02  0.00000000000E+00 0.  1.
          1   -1    0    0  501    0  0.00000000000E+00 -0.00000000000E+00 -0.63593462817E+03  0.63593462817E+03  0.00000000000E+00 0. -1.
         23    2    1    2    0    0 -0.26994027940E+02  0.21575524863E+02 -0.34517877403E+03  0.35909842906E+03  0.92785316168E+02 0.  0.
         23    2    1    2    0    0  0.26994027940E+02 -0.21575524863E+02 -0.27544576657E+03  0.29214628667E+03  0.91021435260E+02 0.  0.
          5    1    4    4  502    0 -0.20845290233E+02  0.17609605718E+02 -0.39857122704E+02  0.48531480182E+02  0.47000000000E+01 0. -1.
         -5    1    3    3    0  503  0.30005659544E+02 -0.64754535557E+01 -0.68964774997E+02  0.75633995622E+02  0.47000000000E+01 0.  1.
          5    1    3    3  503    0 -0.56999687483E+02  0.28050978418E+02 -0.27621399904E+03  0.28346443344E+03  0.47000000000E+01 0. -1.
         -5    1    4    4    0  502  0.47839318173E+02 -0.39185130581E+02 -0.23558864386E+03  0.24361480649E+03  0.47000000000E+01 0.  1.
<mgrwt>
<rscale>  0 0.98596234E+02</rscale>
<asrwt>0</asrwt>
<pdfrwt beam="1">  1        1 0.97836081E-01 0.99011594E+02</pdfrwt>
<pdfrwt beam="2">  1       -1 0.23553985E-02 0.99011594E+02</pdfrwt>
<totfact> 0.16125584E+04</totfact>
</mgrwt>
</event>
<event>
 8    1  0.8438969E-004  0.1004516E+03  0.7546771E-02  0.1280701E+00
          2   -1    0    0  501    0  0.00000000000E+00  0.00000000000E+00  0.32441715204E+03  0.32441715204E+03  0.00000000000E+00 0. -1.
         -2   -1    0    0    0  501 -0.00000000000E+00 -0.00000000000E+00 -0.38542761912E+02  0.38542761912E+02  0.00000000000E+00 0.  1.
         23    2    1    2    0    0  0.12122967293E+01 -0.42058099046E+02  0.22820902236E+03  0.24933888172E+03  0.91214947743E+02 0.  0.
         23    2    1    2    0    0 -0.12122967293E+01  0.42058099046E+02  0.57665367765E+02  0.11362103223E+03  0.88397347057E+02 0.  0.
          5    1    4    4  502    0 -0.67824250052E+01 -0.27091388009E+02  0.15096632260E+02  0.32092723455E+02  0.47000000000E+01 0. -1.
         -5    1    3    3    0  503 -0.23472850413E+02  0.20977559625E+02  0.59178436936E+02  0.67195313173E+02  0.47000000000E+01 0.  1.
          5    1    3    3  503    0  0.24685147143E+02 -0.63035658672E+02  0.16903058542E+03  0.18214356854E+03  0.47000000000E+01 0. -1.
         -5    1    4    4    0  502  0.55701282759E+01  0.69149487055E+02  0.42568735506E+02  0.81528308774E+02  0.47000000000E+01 0.  1.
<mgrwt>
<rscale>  0 0.99807562E+02</rscale>
<asrwt>0</asrwt>
<pdfrwt beam="1">  1        2 0.49910329E-01 0.10045158E+03</pdfrwt>
<pdfrwt beam="2">  1       -2 0.59296559E-02 0.10045158E+03</pdfrwt>
<totfact> 0.13871399E+04</totfact>
</mgrwt>
</event>
<event>
 8    1  0.8438969E-004  0.9840824E+02  0.7546771E-02  0.1286164E+00
          2   -1    0    0  501    0  0.00000000000E+00  0.00000000000E+00  0.84658599734E+02  0.84658599734E+02  0.00000000000E+00 0. -1.
         -2   -1    0    0    0  501 -0.00000000000E+00 -0.00000000000E+00 -0.13426682791E+03  0.13426682791E+03  0.00000000000E+00 0.  1.
         23    2    1    2    0    0  0.22296231478E+02 -0.15423104460E+02 -0.72555186893E+02  0.12226380198E+03  0.94600148200E+02 0.  0.
         23    2    1    2    0    0 -0.22296231478E+02  0.15423104460E+02  0.22946958720E+02  0.96661625663E+02  0.89899459798E+02 0.  0.
          5    1    4    4  502    0  0.89183241878E+01  0.47594274178E+02  0.89469330941E+01  0.49466039387E+02  0.47000000000E+01 0. -1.
         -5    1    3    3    0  503  0.37568114730E+02 -0.44561952366E+02 -0.66380940244E+02  0.88462704405E+02  0.47000000000E+01 0.  1.
          5    1    3    3  503    0 -0.15271883252E+02  0.29138847906E+02 -0.61742466487E+01  0.33801097572E+02  0.47000000000E+01 0. -1.
         -5    1    4    4    0  502 -0.31214555665E+02 -0.32171169718E+02  0.14000025626E+02  0.47195586276E+02  0.47000000000E+01 0.  1.
<mgrwt>
<rscale>  0 0.97260867E+02</rscale>
<asrwt>0</asrwt>
<pdfrwt beam="1">  1        2 0.13024400E-01 0.98408242E+02</pdfrwt>
<pdfrwt beam="2">  1       -2 0.20656435E-01 0.98408242E+02</pdfrwt>
<totfact> 0.84203430E+03</totfact>
</mgrwt>
</event>
<event>
 8    1  0.8438969E-004  0.1067919E+03  0.7546771E-02  0.1266755E+00
         -2   -1    0    0    0  501 -0.00000000000E+00  0.00000000000E+00  0.20407026481E+02  0.20407026481E+02  0.00000000000E+00 0.  1.
          2   -1    0    0  501    0  0.00000000000E+00 -0.00000000000E+00 -0.66091936568E+03  0.66091936568E+03  0.00000000000E+00 0. -1.
         23    2    1    2    0    0 -0.30173186596E+02 -0.44633957539E+02 -0.18582023179E+03  0.21432140796E+03  0.92205726573E+02 0.  0.
         23    2    1    2    0    0  0.30173186596E+02  0.44633957539E+02 -0.45469210741E+03  0.46700498420E+03  0.91902836587E+02 0.  0.
          5    1    3    3  502    0 -0.52149899320E+02 -0.43104211881E+02 -0.17799031290E+03  0.19047368996E+03  0.47000000000E+01 0. -1.
         -5    1    4    4    0  503  0.29432142973E+02 -0.19060883094E+02 -0.25243617676E+03  0.25490327899E+03  0.47000000000E+01 0.  1.
          5    1    4    4  503    0  0.74104362320E+00  0.63694840633E+02 -0.20225593065E+03  0.21210170520E+03  0.47000000000E+01 0. -1.
         -5    1    3    3    0  502  0.21976712725E+02 -0.15297456582E+01 -0.78299188889E+01  0.23847717999E+02  0.47000000000E+01 0.  1.
<mgrwt>
<rscale>  0 0.10672648E+03</rscale>
<asrwt>0</asrwt>
<pdfrwt beam="1">  1        2 0.10167990E+00 0.10679189E+03</pdfrwt>
<pdfrwt beam="2">  1       -2 0.31395427E-02 0.10679189E+03</pdfrwt>
<totfact> 0.16546408E+04</totfact>
</mgrwt>
</event>
<event>
 8    1  0.8438969E-004  0.9757502E+02  0.7546771E-02  0.1285699E+00
          1   -1    0    0  501    0  0.00000000000E+00  0.00000000000E+00  0.15810682974E+03  0.15810682974E+03  0.00000000000E+00 0. -1.
         -1   -1    0    0    0  501 -0.00000000000E+00 -0.00000000000E+00 -0.60254753232E+02  0.60254753232E+02  0.00000000000E+00 0.  1.
         23    2    1    2    0    0 -0.19573346280E+02 -0.30748205821E+02  0.41520055258E+02  0.10604150154E+03  0.90511419252E+02 0.  0.
         23    2    1    2    0    0  0.19573346280E+02  0.30748205821E+02  0.56332021249E+02  0.11232008143E+03  0.90077389107E+02 0.  0.
          5    1    3    3  502    0  0.54708067584E-01 -0.21171923401E+02  0.68012990753E+02  0.71387045356E+02  0.47000000000E+01 0. -1.
         -5    1    3    3    0  502 -0.19628054347E+02 -0.95762824200E+01 -0.26492935495E+02  0.34654456187E+02  0.47000000000E+01 0.  1.
          5    1    4    4  503    0  0.72228106378E+01  0.58127798392E+02  0.57062015908E+02  0.81909545225E+02  0.47000000000E+01 0. -1.
         -5    1    4    4    0  503  0.12350535642E+02 -0.27379592571E+02 -0.72999465964E+00  0.30410536204E+02  0.47000000000E+01 0.  1.
<mgrwt>
<rscale>  0 0.97474248E+02</rscale>
<asrwt>0</asrwt>
<pdfrwt beam="1">  1        1 0.24324128E-01 0.97575023E+02</pdfrwt>
<pdfrwt beam="2">  1       -1 0.92699621E-02 0.97575023E+02</pdfrwt>
<totfact> 0.12355456E+04</totfact>
</mgrwt>
</event>
<event>
 8    1  0.8438969E-004  0.9693674E+02  0.7546771E-02  0.1287219E+00
          4   -1    0    0  501    0  0.00000000000E+00  0.00000000000E+00  0.72025562062E+02  0.72025562062E+02  0.00000000000E+00 0. -1.
         -4   -1    0    0    0  501 -0.00000000000E+00 -0.00000000000E+00 -0.13974254066E+03  0.13974254066E+03  0.00000000000E+00 0.  1.
         23    2    1    2    0    0  0.90627258505E+01  0.30011792826E+02 -0.52541874064E+01  0.96449706833E+02  0.91060961747E+02 0.  0.
         23    2    1    2    0    0 -0.90627258505E+01 -0.30011792826E+02 -0.62462791192E+02  0.11531839589E+03  0.91727266605E+02 0.  0.
          5    1    3    3  502    0 -0.16451697122E+02 -0.18128810255E+02  0.23851144264E+02  0.34500422928E+02  0.47000000000E+01 0. -1.
         -5    1    4    4    0  503 -0.20685567060E+02  0.42361845800E+01 -0.73975873797E+02  0.77073716976E+02  0.47000000000E+01 0.  1.
          5    1    4    4  503    0  0.11622841210E+02 -0.34247977406E+02  0.11513082605E+02  0.38244678915E+02  0.47000000000E+01 0. -1.
         -5    1    3    3    0  502  0.25514422973E+02  0.48140603082E+02 -0.29105331671E+02  0.61949283905E+02  0.47000000000E+01 0.  1.
<mgrwt>
<rscale>  0 0.96778793E+02</rscale>
<asrwt>0</asrwt>
<pdfrwt beam="1">  1        4 0.11080856E-01 0.96936743E+02</pdfrwt>
<pdfrwt beam="2">  1       -4 0.21498852E-01 0.96936743E+02</pdfrwt>
<totfact> 0.19099704E+03</totfact>
</mgrwt>
</event>
<event>
 8    1  0.8438969E-004  0.1044199E+03  0.7546771E-02  0.1271487E+00
          1   -1    0    0  501    0  0.00000000000E+00  0.00000000000E+00  0.42508555265E+03  0.42508555265E+03  0.00000000000E+00 0. -1.
         -1   -1    0    0    0  501 -0.00000000000E+00 -0.00000000000E+00 -0.32255405133E+02  0.32255405133E+02  0.00000000000E+00 0.  1.
         23    2    1    2    0    0  0.48660387508E+02 -0.15732443029E+02  0.91756136432E+02  0.13867329662E+03  0.90530390179E+02 0.  0.
         23    2    1    2    0    0 -0.48660387508E+02  0.15732443029E+02  0.30107401108E+03  0.31866766116E+03  0.91039414791E+02 0.  0.
          5    1    3    3  502    0  0.56931231933E+02  0.14790798157E+02  0.88728746311E+02  0.10655896631E+03  0.47000000000E+01 0. -1.
         -5    1    4    4    0  503  0.41899759107E+01 -0.23181380122E+02  0.24258631231E+02  0.34139470876E+02  0.47000000000E+01 0.  1.
          5    1    4    4  503    0 -0.52850363419E+02  0.38913823151E+02  0.27681537985E+03  0.28452819029E+03  0.47000000000E+01 0. -1.
         -5    1    3    3    0  502 -0.82708444253E+01 -0.30523241187E+02  0.30273901207E+01  0.32114330306E+02  0.47000000000E+01 0.  1.
<mgrwt>
<rscale>  0 0.10430886E+03</rscale>
<asrwt>0</asrwt>
<pdfrwt beam="1">  1        1 0.65397774E-01 0.10441991E+03</pdfrwt>
<pdfrwt beam="2">  1       -1 0.49623703E-02 0.10441991E+03</pdfrwt>
<totfact> 0.92930517E+03</totfact>
</mgrwt>
</event>
<event>
 8    1  0.8438969E-004  0.1025005E+03  0.7546771E-02  0.1276497E+00
         -1   -1    0    0    0  501 -0.00000000000E+00  0.00000000000E+00  0.14102364478E+02  0.14102364478E+02  0.00000000000E+00 0.  1.
          1   -1    0    0  501    0  0.00000000000E+00 -0.00000000000E+00 -0.73601437274E+03  0.73601437274E+03  0.00000000000E+00 0. -1.
         23    2    1    2    0    0 -0.42877559714E+02 -0.21120567698E+02 -0.40985604686E+03  0.42247878752E+03  0.90674049505E+02 0.  0.
         23    2    1    2    0    0  0.42877559714E+02  0.21120567698E+02 -0.31205596140E+03  0.32763794969E+03  0.87653519753E+02 0.  0.
          5    1    3    3  502    0 -0.40433175895E+02  0.29035123754E+02 -0.24627434198E+03  0.25129867020E+03  0.47000000000E+01 0. -1.
         -5    1    4    4    0  503 -0.30202612459E+01 -0.26412369720E+02 -0.15260312003E+03  0.15497269920E+03  0.47000000000E+01 0.  1.
          5    1    4    4  503    0  0.45897820959E+02  0.47532937418E+02 -0.15945284137E+03  0.17266525050E+03  0.47000000000E+01 0. -1.
         -5    1    3    3    0  502 -0.24443838180E+01 -0.50155691452E+02 -0.16358170487E+03  0.17118011732E+03  0.47000000000E+01 0.  1.
<mgrwt>
<rscale>  0 0.10182837E+03</rscale>
<asrwt>0</asrwt>
<pdfrwt beam="1">  1        1 0.11323296E+00 0.10250047E+03</pdfrwt>
<pdfrwt beam="2">  1       -1 0.21695950E-02 0.10250047E+03</pdfrwt>
<totfact> 0.14825392E+04</totfact>
</mgrwt>
</event>
<event>
 8    1  0.8438969E-004  0.9322472E+02  0.7546771E-02  0.1296881E+00
         -1   -1    0    0    0  501 -0.00000000000E+00  0.00000000000E+00  0.51079087953E+03  0.51079087953E+03  0.00000000000E+00 0.  1.
          1   -1    0    0  501    0  0.00000000000E+00 -0.00000000000E+00 -0.40777193075E+02  0.40777193075E+02  0.00000000000E+00 0. -1.
         23    2    1    2    0    0  0.34538910925E+01  0.20042056304E+01  0.23699908088E+02  0.96190089749E+02  0.93139151374E+02 0.  0.
         23    2    1    2    0    0 -0.34538910925E+01 -0.20042056304E+01  0.44631377837E+03  0.45537798285E+03  0.90317065410E+02 0.  0.
          5    1    4    4  502    0  0.24820640597E+02  0.32142881558E+02  0.28870548353E+03  0.29158562251E+03  0.47000000000E+01 0. -1.
         -5    1    4    4    0  502 -0.28274531689E+02 -0.34147087188E+02  0.15760829484E+03  0.16379236035E+03  0.47000000000E+01 0.  1.
          5    1    3    3  503    0  0.15974556070E+02  0.35813647912E+02  0.40117694446E+02  0.56296742588E+02  0.47000000000E+01 0. -1.
         -5    1    3    3    0  503 -0.12520664978E+02 -0.33809442281E+02 -0.16417786358E+02  0.39893347161E+02  0.47000000000E+01 0.  1.
<mgrwt>
<rscale>  0 0.92511725E+02</rscale>
<asrwt>0</asrwt>
<pdfrwt beam="1">  1        1 0.62734147E-02 0.93224716E+02</pdfrwt>
<pdfrwt beam="2">  1       -1 0.78583208E-01 0.93224716E+02</pdfrwt>
<totfact> 0.19614968E+03</totfact>
</mgrwt>
</event>
<event>
 8    1  0.8438969E-004  0.1150416E+03  0.7546771E-02  0.1254609E+00
          1   -1    0    0  501    0  0.00000000000E+00  0.00000000000E+00  0.14547087073E+04  0.14547087073E+04  0.00000000000E+00 0. -1.
         -1   -1    0    0    0  501 -0.00000000000E+00 -0.00000000000E+00 -0.90329949885E+01  0.90329949885E+01  0.00000000000E+00 0.  1.
         23    2    1    2    0    0 -0.58583088812E+02  0.68778877467E+01  0.86876405558E+03  0.87547167149E+03  0.90666309519E+02 0.  0.
         23    2    1    2    0    0  0.58583088812E+02 -0.68778877467E+01  0.57691165677E+03  0.58827003084E+03  0.98768850491E+02 0.  0.
          5    1    3    3  502    0 -0.43858593920E+02 -0.39517617750E+02  0.48766960372E+03  0.49125243080E+03  0.47000000000E+01 0. -1.
         -5    1    3    3    0  502 -0.14724494892E+02  0.46395505496E+02  0.38109445186E+03  0.38421924069E+03  0.47000000000E+01 0.  1.
          5    1    4    4  503    0 -0.21246271306E+02 -0.23968050824E+02  0.13246394262E+03  0.13636222937E+03  0.47000000000E+01 0. -1.
         -5    1    4    4    0  503  0.79829360118E+02  0.17090163077E+02  0.44444771415E+03  0.45190780147E+03  0.47000000000E+01 0.  1.
<mgrwt>
<rscale>  0 0.11328251E+03</rscale>
<asrwt>0</asrwt>
<pdfrwt beam="1">  1        1 0.22380115E+00 0.11504160E+03</pdfrwt>
<pdfrwt beam="2">  1       -1 0.13896927E-02 0.11504160E+03</pdfrwt>
<totfact> 0.86516660E+03</totfact>
</mgrwt>
</event>
<event>
 8    1  0.8438969E-004  0.1107795E+03  0.7546771E-02  0.1259201E+00
         -2   -1    0    0    0  501 -0.00000000000E+00  0.00000000000E+00  0.57319536141E+03  0.57319536141E+03  0.00000000000E+00 0.  1.
          2   -1    0    0  501    0  0.00000000000E+00 -0.00000000000E+00 -0.58037911608E+02  0.58037911608E+02  0.00000000000E+00 0. -1.
         23    2    1    2    0    0  0.59029053213E+02  0.21634728096E+02  0.68120876476E+01  0.11098876099E+03  0.91211895852E+02 0.  0.
         23    2    1    2    0    0 -0.59029053213E+02 -0.21634728096E+02  0.50834536216E+03  0.52024451203E+03  0.91032161837E+02 0.  0.
          5    1    3    3  502    0  0.51819678865E+02 -0.23958130753E+02  0.23169984985E+02  0.61791660854E+02  0.47000000000E+01 0. -1.
         -5    1    4    4    0  503 -0.74816794865E+02  0.26026142578E+01  0.43208216289E+03  0.43854465210E+03  0.47000000000E+01 0.  1.
          5    1    4    4  503    0  0.15787741652E+02 -0.24237342353E+02  0.76263199265E+02  0.81699859932E+02  0.47000000000E+01 0. -1.
         -5    1    3    3    0  502  0.72093743477E+01  0.45592858849E+02 -0.16357897337E+02  0.49197100136E+02  0.47000000000E+01 0.  1.
<mgrwt>
<rscale>  0 0.11074251E+03</rscale>
<asrwt>0</asrwt>
<pdfrwt beam="1">  1        2 0.89289098E-02 0.11077951E+03</pdfrwt>
<pdfrwt beam="2">  1       -2 0.88183898E-01 0.11077951E+03</pdfrwt>
<totfact> 0.82103297E+02</totfact>
</mgrwt>
</event>
<event>
 8    1  0.8438969E-004  0.1143354E+03  0.7546771E-02  0.1257156E+00
          1   -1    0    0  501    0  0.00000000000E+00  0.00000000000E+00  0.69680975674E+02  0.69680975674E+02  0.00000000000E+00 0. -1.
         -1   -1    0    0    0  501 -0.00000000000E+00 -0.00000000000E+00 -0.18191765732E+03  0.18191765732E+03  0.00000000000E+00 0.  1.
         23    2    1    2    0    0  0.57958424317E+02  0.35554957891E+02 -0.82795219753E+02  0.13353344077E+03  0.79704437831E+02 0.  0.
         23    2    1    2    0    0 -0.57958424317E+02 -0.35554957891E+02 -0.29441461890E+02  0.11806519222E+03  0.91919834398E+02 0.  0.
          5    1    3    3  502    0 -0.16803626306E+02  0.22726521310E+02 -0.19922613263E+02  0.34897810061E+02  0.47000000000E+01 0. -1.
         -5    1    4    4    0  503  0.11236384345E+02 -0.21288987586E+02 -0.39553182329E+02  0.46540536718E+02  0.47000000000E+01 0.  1.
          5    1    4    4  503    0 -0.69194808662E+02 -0.14265970305E+02  0.10111720439E+02  0.71524655502E+02  0.47000000000E+01 0. -1.
         -5    1    3    3    0  502  0.74762050623E+02  0.12828436581E+02 -0.62872606490E+02  0.98635630708E+02  0.47000000000E+01 0.  1.
<mgrwt>
<rscale>  0 0.11186437E+03</rscale>
<asrwt>0</asrwt>
<pdfrwt beam="1">  1        1 0.10720150E-01 0.11433543E+03</pdfrwt>
<pdfrwt beam="2">  1       -1 0.27987332E-01 0.11433543E+03</pdfrwt>
<totfact> 0.62952421E+03</totfact>
</mgrwt>
</event>
<event>
 8    1  0.8438969E-004  0.2591360E+03  0.7546771E-02  0.1107873E+00
          2   -1    0    0  501    0  0.00000000000E+00  0.00000000000E+00  0.18477069878E+04  0.18477069878E+04  0.00000000000E+00 0. -1.
         -2   -1    0    0    0  501 -0.00000000000E+00 -0.00000000000E+00 -0.37024761076E+02  0.37024761076E+02  0.00000000000E+00 0.  1.
         23    2    1    2    0    0  0.13509732145E+03  0.19853396568E+03  0.75802164951E+03  0.80064422243E+03  0.93634010896E+02 0.  0.
         23    2    1    2    0    0 -0.13509732145E+03 -0.19853396568E+03  0.10526605772E+04  0.10840875265E+04  0.97388153173E+02 0.  0.
          5    1    3    3  502    0  0.14480718873E+03  0.15425539126E+03  0.64262235137E+03  0.67657181741E+03  0.47000000000E+01 0. -1.
         -5    1    3    3    0  502 -0.97098672803E+01  0.44278574423E+02  0.11539929814E+03  0.12407240502E+03  0.47000000000E+01 0.  1.
          5    1    4    4  503    0 -0.75326387943E+02 -0.78745868233E+02  0.29168012618E+03  0.31140706879E+03  0.47000000000E+01 0. -1.
         -5    1    4    4    0  503 -0.59770933508E+02 -0.11978809745E+03  0.76098045106E+03  0.77268045768E+03  0.47000000000E+01 0.  1.
<mgrwt>
<rscale>  0 0.25878847E+03</rscale>
<asrwt>0</asrwt>
<pdfrwt beam="1">  1        2 0.28426254E+00 0.25913601E+03</pdfrwt>
<pdfrwt beam="2">  1       -2 0.56961185E-02 0.25913601E+03</pdfrwt>
<totfact> 0.14338269E+03</totfact>
</mgrwt>
</event>
<event>
 8    1  0.8438969E-004  0.1946270E+03  0.7546771E-02  0.1154413E+00
          1   -1    0    0  501    0  0.00000000000E+00  0.00000000000E+00  0.41603958631E+03  0.41603958631E+03  0.00000000000E+00 0. -1.
         -1   -1    0    0    0  501 -0.00000000000E+00 -0.00000000000E+00 -0.13298662655E+03  0.13298662655E+03  0.00000000000E+00 0.  1.
         23    2    1    2    0    0  0.75138152689E+01 -0.17302525014E+03  0.29585035843E+03  0.35397895247E+03  0.88201301589E+02 0.  0.
         23    2    1    2    0    0 -0.75138152689E+01  0.17302525014E+03 -0.12797398670E+02  0.19504726039E+03  0.88800145083E+02 0.  0.
          5    1    3    3  502    0 -0.15871627858E+02 -0.13643918214E+03  0.15818825220E+03  0.20955469961E+03  0.47000000000E+01 0. -1.
         -5    1    3    3    0  502  0.23385443127E+02 -0.36586067993E+02  0.13766210623E+03  0.14442425286E+03  0.47000000000E+01 0.  1.
          5    1    4    4  503    0  0.21386847328E+01  0.54286637026E+02  0.36939977909E+02  0.65865506146E+02  0.47000000000E+01 0. -1.
         -5    1    4    4    0  503 -0.96525000017E+01  0.11873861311E+03 -0.49737376579E+02  0.12918175424E+03  0.47000000000E+01 0.  1.
<mgrwt>
<rscale>  0 0.19455882E+03</rscale>
<asrwt>0</asrwt>
<pdfrwt beam="1">  1        1 0.64006090E-01 0.19462698E+03</pdfrwt>
<pdfrwt beam="2">  1       -1 0.20459481E-01 0.19462698E+03</pdfrwt>
<totfact> 0.11162397E+03</totfact>
</mgrwt>
</event>
<event>
 8    1  0.8438969E-004  0.1013336E+03  0.7546771E-02  0.1283277E+00
          2   -1    0    0  501    0  0.00000000000E+00  0.00000000000E+00  0.22596054850E+03  0.22596054850E+03  0.00000000000E+00 0. -1.
         -2   -1    0    0    0  501 -0.00000000000E+00 -0.00000000000E+00 -0.67941730318E+02  0.67941730318E+02  0.00000000000E+00 0.  1.
         23    2    1    2    0    0  0.89970620815E+00 -0.99024083048E+00 -0.11101575891E+02  0.10193991364E+03  0.10132477959E+03 0.  0.
         23    2    1    2    0    0 -0.89970620815E+00  0.99024083048E+00  0.16912039407E+03  0.19196236517E+03  0.90807774469E+02 0.  0.
          5    1    4    4  502    0 -0.43615251494E+02 -0.11164876264E+02  0.98539122647E+02  0.10843889209E+03  0.47000000000E+01 0. -1.
         -5    1    3    3    0  503  0.24529789905E+02  0.40328423669E+02  0.11841776168E+02  0.48891819472E+02  0.47000000000E+01 0.  1.
          5    1    3    3  503    0 -0.23630083697E+02 -0.41318664500E+02 -0.22943352059E+02  0.53048094172E+02  0.47000000000E+01 0. -1.
         -5    1    4    4    0  502  0.42715545286E+02  0.12155117094E+02  0.70581271425E+02  0.83523473087E+02  0.47000000000E+01 0.  1.
<mgrwt>
<rscale>  0 0.98595634E+02</rscale>
<asrwt>0</asrwt>
<pdfrwt beam="1">  1        2 0.34763161E-01 0.10133361E+03</pdfrwt>
<pdfrwt beam="2">  1       -2 0.10452574E-01 0.10133361E+03</pdfrwt>
<totfact> 0.85221015E+03</totfact>
</mgrwt>
</event>
<event>
 8    1  0.8438969E-004  0.1108886E+03  0.7546771E-02  0.1265250E+00
          1   -1    0    0  501    0  0.00000000000E+00  0.00000000000E+00  0.10632077205E+04  0.10632077205E+04  0.00000000000E+00 0. -1.
         -1   -1    0    0    0  501 -0.00000000000E+00 -0.00000000000E+00 -0.10815309400E+02  0.10815309400E+02  0.00000000000E+00 0.  1.
         23    2    1    2    0    0 -0.56230220907E+02 -0.56540166826E+02  0.43539953968E+03  0.44929838162E+03  0.77056137751E+02 0.  0.
         23    2    1    2    0    0  0.56230220907E+02  0.56540166826E+02  0.61699287145E+03  0.62472464831E+03  0.56939042654E+02 0.  0.
          5    1    4    4  502    0  0.24178682104E+02  0.47204345552E+02  0.50413908487E+03  0.50694296110E+03  0.47000000000E+01 0. -1.
         -5    1    3    3    0  503 -0.46625819921E+02 -0.33446047317E+02  0.40745298194E+03  0.41150045888E+03  0.47000000000E+01 0.  1.
          5    1    3    3  503    0 -0.96044009868E+01 -0.23094119508E+02  0.27946557740E+02  0.37797922743E+02  0.47000000000E+01 0. -1.
         -5    1    4    4    0  502  0.32051538803E+02  0.93358212738E+01  0.11285378658E+03  0.11778168722E+03  0.47000000000E+01 0.  1.
<mgrwt>
<rscale>  0 0.10751099E+03</rscale>
<asrwt>0</asrwt>
<pdfrwt beam="1">  1        1 0.16357034E+00 0.11088858E+03</pdfrwt>
<pdfrwt beam="2">  1       -1 0.16638946E-02 0.11088858E+03</pdfrwt>
<totfact> 0.12236016E+04</totfact>
</mgrwt>
</event>
<event>
 8    1  0.8438969E-004  0.9775837E+02  0.7546771E-02  0.1287979E+00
          2   -1    0    0  501    0  0.00000000000E+00  0.00000000000E+00  0.71924138576E+03  0.71924138576E+03  0.00000000000E+00 0. -1.
         -2   -1    0    0    0  501 -0.00000000000E+00 -0.00000000000E+00 -0.13283730271E+02  0.13283730271E+02  0.00000000000E+00 0.  1.
         23    2    1    2    0    0  0.19510071123E+02  0.26834179288E+02  0.26024344040E+03  0.27621616402E+03  0.86417619405E+02 0.  0.
         23    2    1    2    0    0 -0.19510071123E+02 -0.26834179288E+02  0.44571421510E+03  0.45630895201E+03  0.91956414112E+02 0.  0.
          5    1    3    3  502    0  0.41174689547E+02 -0.15527834021E+02  0.13947118472E+03  0.14632419504E+03  0.47000000000E+01 0. -1.
         -5    1    4    4    0  503 -0.52292352659E+02 -0.44069969431E+01  0.17835317760E+03  0.18597273383E+03  0.47000000000E+01 0.  1.
          5    1    4    4  503    0  0.32782281535E+02 -0.22427182345E+02  0.26736103749E+03  0.27033621818E+03  0.47000000000E+01 0. -1.
         -5    1    3    3    0  502 -0.21664618423E+02  0.42362013309E+02  0.12077225568E+03  0.12989196898E+03  0.47000000000E+01 0.  1.
<mgrwt>
<rscale>  0 0.96433949E+02</rscale>
<asrwt>0</asrwt>
<pdfrwt beam="1">  1        2 0.11065249E+00 0.97758366E+02</pdfrwt>
<pdfrwt beam="2">  1       -2 0.20436514E-02 0.97758366E+02</pdfrwt>
<totfact> 0.27722529E+04</totfact>
</mgrwt>
</event>
<event>
 8    1  0.8438969E-004  0.1131933E+03  0.7546771E-02  0.1256817E+00
          2   -1    0    0  501    0  0.00000000000E+00  0.00000000000E+00  0.43058879969E+03  0.43058879969E+03  0.00000000000E+00 0. -1.
         -2   -1    0    0    0  501 -0.00000000000E+00 -0.00000000000E+00 -0.29452956102E+02  0.29452956102E+02  0.00000000000E+00 0.  1.
         23    2    1    2    0    0 -0.41866133607E+02 -0.46578383628E+02  0.15715202319E+03  0.19107925417E+03  0.88838077499E+02 0.  0.
         23    2    1    2    0    0  0.41866133607E+02  0.46578383628E+02  0.24398382040E+03  0.26896250163E+03  0.94288937327E+02 0.  0.
          5    1    3    3  502    0 -0.24947729068E+02  0.15698445419E+02  0.10129074981E+03  0.10559704718E+03  0.47000000000E+01 0.  1.
         -5    1    3    3    0  502 -0.16918404540E+02 -0.62276829046E+02  0.55861273379E+02  0.85482206990E+02  0.47000000000E+01 0. -1.
          5    1    4    4  503    0  0.65434590607E+02  0.14179061500E+02  0.19045561781E+03  0.20193603886E+03  0.47000000000E+01 0. -1.
         -5    1    4    4    0  503 -0.23568457000E+02  0.32399322128E+02  0.53528202583E+02  0.67026462770E+02  0.47000000000E+01 0.  1.
<mgrwt>
<rscale>  0 0.11205147E+03</rscale>
<asrwt>0</asrwt>
<pdfrwt beam="1">  1        2 0.66244426E-01 0.11319330E+03</pdfrwt>
<pdfrwt beam="2">  1       -2 0.45312243E-02 0.11319330E+03</pdfrwt>
<totfact> 0.15540723E+04</totfact>
</mgrwt>
</event>
<event>
 8    1  0.8438969E-004  0.1063843E+03  0.7546771E-02  0.1269177E+00
         -3   -1    0    0    0  501 -0.00000000000E+00  0.00000000000E+00  0.25809663728E+03  0.25809663728E+03  0.00000000000E+00 0.  1.
          3   -1    0    0  501    0  0.00000000000E+00 -0.00000000000E+00 -0.50410877551E+02  0.50410877551E+02  0.00000000000E+00 0. -1.
         23    2    1    2    0    0  0.52007359467E+02  0.42616529272E+01  0.16685311923E+03  0.19788273721E+03  0.92707535651E+02 0.  0.
         23    2    1    2    0    0 -0.52007359467E+02 -0.42616529272E+01  0.40832640505E+02  0.11062477762E+03  0.88586735851E+02 0.  0.
          5    1    3    3  502    0  0.64932605879E+02 -0.26016627709E+02  0.89546935942E+02  0.11372709422E+03  0.47000000000E+01 0. -1.
         -5    1    4    4    0  503 -0.67964218338E+02 -0.18303827428E+02  0.50550752365E+02  0.86784985092E+02  0.47000000000E+01 0.  1.
          5    1    4    4  503    0  0.15956858870E+02  0.14042174501E+02 -0.97181118601E+01  0.23839792529E+02  0.47000000000E+01 0. -1.
         -5    1    3    3    0  502 -0.12925246411E+02  0.30278280636E+02  0.77306183285E+02  0.84155642990E+02  0.47000000000E+01 0.  1.
<mgrwt>
<rscale>  0 0.10548002E+03</rscale>
<asrwt>0</asrwt>
<pdfrwt beam="1">  1        3 0.77555197E-02 0.10638428E+03</pdfrwt>
<pdfrwt beam="2">  1       -3 0.39707174E-01 0.10638428E+03</pdfrwt>
<totfact> 0.15557551E+03</totfact>
</mgrwt>
</event>
<event>
 8    1  0.8438969E-004  0.1065388E+03  0.7546771E-02  0.1269211E+00
          1   -1    0    0  501    0  0.00000000000E+00  0.00000000000E+00  0.19448988920E+02  0.19448988920E+02  0.00000000000E+00 0. -1.
         -1   -1    0    0    0  501 -0.00000000000E+00 -0.00000000000E+00 -0.56257362267E+03  0.56257362267E+03  0.00000000000E+00 0.  1.
         23    2    1    2    0    0 -0.45227755435E+02 -0.17613413716E+01 -0.24886960013E+03  0.26907448122E+03  0.91740647412E+02 0.  0.
         23    2    1    2    0    0  0.45227755435E+02  0.17613413716E+01 -0.29425503361E+03  0.31294813037E+03  0.96446126458E+02 0.  0.
          5    1    4    4  502    0  0.10440908475E+02 -0.42172954760E+02 -0.18474409573E+03  0.18984214914E+03  0.47000000000E+01 0. -1.
         -5    1    3    3    0  503  0.14623935191E+02  0.23747722190E+02 -0.32486148653E+02  0.43072655409E+02  0.47000000000E+01 0.  1.
          5    1    3    3  503    0 -0.59851690626E+02 -0.25509063562E+02 -0.21638345148E+03  0.22600182581E+03  0.47000000000E+01 0. -1.
         -5    1    4    4    0  502  0.34786846959E+02  0.43934296132E+02 -0.10951093788E+03  0.12310598123E+03  0.47000000000E+01 0.  1.
<mgrwt>
<rscale>  0 0.10546252E+03</rscale>
<asrwt>0</asrwt>
<pdfrwt beam="1">  1        1 0.29921519E-02 0.10653876E+03</pdfrwt>
<pdfrwt beam="2">  1       -1 0.86549794E-01 0.10653876E+03</pdfrwt>
<totfact> 0.44418241E+03</totfact>
</mgrwt>
</event>
<event>
 8    1  0.8438969E-004  0.1401661E+03  0.7546771E-02  0.1214059E+00
          1   -1    0    0  501    0  0.00000000000E+00  0.00000000000E+00  0.66419505826E+03  0.66419505826E+03  0.00000000000E+00 0. -1.
         -1   -1    0    0    0  501 -0.00000000000E+00 -0.00000000000E+00 -0.48370030637E+02  0.48370030637E+02  0.00000000000E+00 0.  1.
         23    2    1    2    0    0  0.10803623059E+03  0.12519393724E+01  0.84266563897E+02  0.16354629485E+03  0.89292453743E+02 0.  0.
         23    2    1    2    0    0 -0.10803623059E+03 -0.12519393724E+01  0.53155846373E+03  0.54901879405E+03  0.84816515980E+02 0.  0.
          5    1    3    3  502    0 -0.14247413690E+01  0.20591300316E+02  0.37081168559E+02  0.42698180270E+02  0.47000000000E+01 0. -1.
         -5    1    3    3    0  502  0.10946097196E+03 -0.19339360943E+02  0.47185395339E+02  0.12084811458E+03  0.47000000000E+01 0.  1.
          5    1    4    4  503    0 -0.83520249672E+02 -0.14064561592E+02  0.49846608994E+03  0.50563225452E+03  0.47000000000E+01 0. -1.
         -5    1    4    4    0  503 -0.24515980922E+02  0.12812622220E+02  0.33092373793E+02  0.43386539525E+02  0.47000000000E+01 0.  1.
<mgrwt>
<rscale>  0 0.13945876E+03</rscale>
<asrwt>0</asrwt>
<pdfrwt beam="1">  1        1 0.10218385E+00 0.14016610E+03</pdfrwt>
<pdfrwt beam="2">  1       -1 0.74415436E-02 0.14016610E+03</pdfrwt>
<totfact> 0.28688540E+03</totfact>
</mgrwt>
</event>
<event>
 8    1  0.8438969E-004  0.9704062E+02  0.7546771E-02  0.1287410E+00
         -1   -1    0    0    0  501 -0.00000000000E+00  0.00000000000E+00  0.21566664806E+02  0.21566664806E+02  0.00000000000E+00 0.  1.
          1   -1    0    0  501    0  0.00000000000E+00 -0.00000000000E+00 -0.53740596520E+03  0.53740596520E+03  0.00000000000E+00 0. -1.
         23    2    1    2    0    0  0.25375558424E+02 -0.14525208176E+02 -0.13173502945E+03  0.16279972144E+03  0.91075412045E+02 0.  0.
         23    2    1    2    0    0 -0.25375558424E+02  0.14525208176E+02 -0.38410427094E+03  0.39617290856E+03  0.92530977978E+02 0.  0.
          5    1    3    3  502    0 -0.16987528706E+02  0.25764875326E+02 -0.21410645931E+02  0.37853806827E+02  0.47000000000E+01 0. -1.
         -5    1    3    3    0  502  0.42363087130E+02 -0.40290083502E+02 -0.11032438352E+03  0.12494591461E+03  0.47000000000E+01 0.  1.
          5    1    4    4  503    0 -0.49697169475E+02  0.36760710653E+02 -0.28370266406E+03  0.29039705594E+03  0.47000000000E+01 0. -1.
         -5    1    4    4    0  503  0.24321611051E+02 -0.22235502477E+02 -0.10040160688E+03  0.10577585263E+03  0.47000000000E+01 0.  1.
<mgrwt>
<rscale>  0 0.96692020E+02</rscale>
<asrwt>0</asrwt>
<pdfrwt beam="1">  1        1 0.82677833E-01 0.97040623E+02</pdfrwt>
<pdfrwt beam="2">  1       -1 0.33179487E-02 0.97040623E+02</pdfrwt>
<totfact> 0.12302593E+04</totfact>
</mgrwt>
</event>
<event>
 8    1  0.8438969E-004  0.2805772E+03  0.7546771E-02  0.1096022E+00
         -2   -1    0    0    0  501 -0.00000000000E+00  0.00000000000E+00  0.11354153726E+03  0.11354153726E+03  0.00000000000E+00 0.  1.
          2   -1    0    0  501    0  0.00000000000E+00 -0.00000000000E+00 -0.11993856087E+04  0.11993856087E+04  0.00000000000E+00 0. -1.
         23    2    1    2    0    0  0.26276987739E+03 -0.37241761490E+02 -0.97156628390E+03  0.10099701347E+04  0.75257369839E+02 0.  0.
         23    2    1    2    0    0 -0.26276987739E+03  0.37241761490E+02 -0.11427778755E+03  0.30295701128E+03  0.91041642643E+02 0.  0.
          5    1    4    4  502    0 -0.89560458764E+02 -0.17424929824E+02 -0.62468025750E+01  0.91574103849E+02  0.47000000000E+01 0. -1.
         -5    1    4    4    0  502 -0.17320941862E+03  0.54666691313E+02 -0.10803098498E+03  0.21138290743E+03  0.47000000000E+01 0.  1.
          5    1    3    3  503    0  0.14049168204E+03 -0.44340320989E+02 -0.42520764554E+03  0.45003067519E+03  0.47000000000E+01 0. -1.
         -5    1    3    3    0  503  0.12227819534E+03  0.70985594991E+01 -0.54635863836E+03  0.55993945951E+03  0.47000000000E+01 0.  1.
<mgrwt>
<rscale>  0 0.27939030E+03</rscale>
<asrwt>0</asrwt>
<pdfrwt beam="1">  1        2 0.18452085E+00 0.28057715E+03</pdfrwt>
<pdfrwt beam="2">  1       -2 0.17467930E-01 0.28057715E+03</pdfrwt>
<totfact> 0.53189192E+02</totfact>
</mgrwt>
</event>
<event>
 8    1  0.8438969E-004  0.9615362E+02  0.7546771E-02  0.1289625E+00
         -2   -1    0    0    0  501 -0.00000000000E+00  0.00000000000E+00  0.48616989218E+03  0.48616989218E+03  0.00000000000E+00 0.  1.
          2   -1    0    0  501    0  0.00000000000E+00 -0.00000000000E+00 -0.28851652914E+02  0.28851652914E+02  0.00000000000E+00 0. -1.
         23    2    1    2    0    0  0.28417865052E+02 -0.20216783611E+01  0.38315722639E+03  0.39503794721E+03  0.91836035206E+02 0.  0.
         23    2    1    2    0    0 -0.28417865052E+02  0.20216783611E+01  0.74161012875E+02  0.11998359788E+03  0.89914101749E+02 0.  0.
          5    1    4    4  502    0  0.21220448002E+02 -0.21997274088E+02  0.48725991297E+01  0.31305266378E+02  0.47000000000E+01 0. -1.
         -5    1    3    3    0  503  0.45652148247E+02  0.28880415975E+02  0.29476392165E+03  0.29970995407E+03  0.47000000000E+01 0.  1.
          5    1    3    3  503    0 -0.17234283195E+02 -0.30902094336E+02  0.88393304742E+02  0.95327993134E+02  0.47000000000E+01 0. -1.
         -5    1    4    4    0  502 -0.49638313054E+02  0.24018952449E+02  0.69288413745E+02  0.88678331507E+02  0.47000000000E+01 0.  1.
<mgrwt>
<rscale>  0 0.95691830E+02</rscale>
<asrwt>0</asrwt>
<pdfrwt beam="1">  1        2 0.44387162E-02 0.96153625E+02</pdfrwt>
<pdfrwt beam="2">  1       -2 0.74795362E-01 0.96153625E+02</pdfrwt>
<totfact> 0.28347185E+03</totfact>
</mgrwt>
</event>
<event>
 8    1  0.8438969E-004  0.1428296E+03  0.7546771E-02  0.1209826E+00
          2   -1    0    0  501    0  0.00000000000E+00  0.00000000000E+00  0.13608801971E+04  0.13608801971E+04  0.00000000000E+00 0. -1.
         -2   -1    0    0    0  501 -0.00000000000E+00 -0.00000000000E+00 -0.14934265269E+02  0.14934265269E+02  0.00000000000E+00 0.  1.
         23    2    1    2    0    0  0.64648683654E+01 -0.10922858576E+03  0.70289320641E+03  0.71725808891E+03  0.91802113402E+02 0.  0.
         23    2    1    2    0    0 -0.64648683654E+01  0.10922858576E+03  0.64305272544E+03  0.65855637347E+03  0.90592554199E+02 0.  0.
          5    1    3    3  502    0 -0.32672163079E+02 -0.75046666946E+02  0.30001074481E+03  0.31101126903E+03  0.47000000000E+01 0. -1.
         -5    1    4    4    0  503  0.15041005698E+02  0.11673826752E+03  0.50490087156E+03  0.51846025408E+03  0.47000000000E+01 0.  1.
          5    1    4    4  503    0 -0.21505874064E+02 -0.75096817581E+01  0.13815185387E+03  0.14009611939E+03  0.47000000000E+01 0. -1.
         -5    1    3    3    0  502  0.39137031444E+02 -0.34181918816E+02  0.40288246159E+03  0.40624681988E+03  0.47000000000E+01 0.  1.
<mgrwt>
<rscale>  0 0.14263564E+03</rscale>
<asrwt>0</asrwt>
<pdfrwt beam="1">  1        2 0.20936609E+00 0.14282964E+03</pdfrwt>
<pdfrwt beam="2">  1       -2 0.22975803E-02 0.14282964E+03</pdfrwt>
<totfact> 0.99668670E+03</totfact>
</mgrwt>
</event>
<event>
 8    1  0.8438969E-004  0.1508560E+03  0.7546771E-02  0.1199913E+00
         -3   -1    0    0    0  501 -0.00000000000E+00  0.00000000000E+00  0.21951529425E+02  0.21951529425E+02  0.00000000000E+00 0.  1.
          3   -1    0    0  501    0  0.00000000000E+00 -0.00000000000E+00 -0.10349760135E+04  0.10349760135E+04  0.00000000000E+00 0. -1.
         23    2    1    2    0    0  0.71781574649E+02 -0.95789694479E+02 -0.55890634534E+03  0.57890745806E+03  0.91811121942E+02 0.  0.
         23    2    1    2    0    0 -0.71781574649E+02  0.95789694479E+02 -0.45411813871E+03  0.47802008483E+03  0.89172067234E+02 0.  0.
          5    1    4    4  502    0 -0.58412095427E+02  0.51400881645E+02 -0.39565044416E+03  0.40325598259E+03  0.47000000000E+01 0. -1.
         -5    1    4    4    0  502 -0.13369479222E+02  0.44388812834E+02 -0.58467694544E+02  0.74764102247E+02  0.47000000000E+01 0.  1.
          5    1    3    3  503    0  0.65676747440E+02 -0.13145464560E+02 -0.22233222626E+03  0.23224975183E+03  0.47000000000E+01 0. -1.
         -5    1    3    3    0  503  0.61048272097E+01 -0.82644229920E+02 -0.33657411908E+03  0.34665770623E+03  0.47000000000E+01 0.  1.
<mgrwt>
<rscale>  0 0.15045659E+03</rscale>
<asrwt>0</asrwt>
<pdfrwt beam="1">  1        3 0.15922707E+00 0.15085603E+03</pdfrwt>
<pdfrwt beam="2">  1       -3 0.33771585E-02 0.15085603E+03</pdfrwt>
<totfact> 0.29636767E+02</totfact>
</mgrwt>
</event>
<event>
 8    1  0.8438969E-004  0.1292047E+03  0.7546771E-02  0.1230654E+00
          1   -1    0    0  501    0  0.00000000000E+00  0.00000000000E+00  0.27570239403E+03  0.27570239403E+03  0.00000000000E+00 0. -1.
         -1   -1    0    0    0  501 -0.00000000000E+00 -0.00000000000E+00 -0.85159531566E+03  0.85159531566E+03  0.00000000000E+00 0.  1.
         23    2    1    2    0    0 -0.65723318300E+02 -0.58711820607E+02  0.25653305834E+03  0.28490418249E+03  0.87146719568E+02 0.  0.
         23    2    1    2    0    0  0.65723318300E+02  0.58711820607E+02 -0.83242597997E+03  0.84239352720E+03  0.94483914472E+02 0.  0.
          5    1    4    4  502    0  0.88937740405E+02  0.54710537737E+02 -0.64096797453E+03  0.64943452247E+03  0.47000000000E+01 0. -1.
         -5    1    3    3    0  503 -0.63245401363E+02 -0.18446968971E+02  0.79913241490E+02  0.10367491318E+03  0.47000000000E+01 0.  1.
          5    1    3    3  503    0 -0.24779169369E+01 -0.40264851636E+02  0.17661981685E+03  0.18122926931E+03  0.47000000000E+01 0. -1.
         -5    1    4    4    0  502 -0.23214422105E+02  0.40012828696E+01 -0.19145800544E+03  0.19295900473E+03  0.47000000000E+01 0.  1.
<mgrwt>
<rscale>  0 0.12786795E+03</rscale>
<asrwt>0</asrwt>
<pdfrwt beam="1">  1        1 0.42415753E-01 0.12920465E+03</pdfrwt>
<pdfrwt beam="2">  1       -1 0.13101466E+00 0.12920465E+03</pdfrwt>
<totfact> 0.54861180E+01</totfact>
</mgrwt>
</event>
<event>
 8    1  0.8438969E-004  0.2121404E+03  0.7546771E-02  0.1139907E+00
          2   -1    0    0  501    0  0.00000000000E+00  0.00000000000E+00  0.23129635278E+03  0.23129635278E+03  0.00000000000E+00 0. -1.
         -2   -1    0    0    0  501 -0.00000000000E+00 -0.00000000000E+00 -0.24569834770E+03  0.24569834770E+03  0.00000000000E+00 0.  1.
         23    2    1    2    0    0  0.19063298324E+03 -0.19038207921E+02  0.10171454275E+03  0.23526450750E+03  0.91105173402E+02 0.  0.
         23    2    1    2    0    0 -0.19063298324E+03  0.19038207921E+02 -0.11611653767E+03  0.24173019298E+03  0.90813260151E+02 0.  0.
          5    1    4    4  502    0 -0.79203748960E+02  0.29136412029E+02 -0.60967654582E+01  0.84743288255E+02  0.47000000000E+01 0. -1.
         -5    1    3    3    0  503  0.48272754376E+02 -0.36877408206E+02  0.29116339761E+01  0.60998111967E+02  0.47000000000E+01 0.  1.
          5    1    3    3  503    0  0.14236022887E+03  0.17839200284E+02  0.98802908769E+02  0.17426639553E+03  0.47000000000E+01 0. -1.
         -5    1    4    4    0  502 -0.11142923428E+03 -0.10098204108E+02 -0.11001977221E+03  0.15698690473E+03  0.47000000000E+01 0.  1.
<mgrwt>
<rscale>  0 0.21210907E+03</rscale>
<asrwt>0</asrwt>
<pdfrwt beam="1">  1        2 0.35584054E-01 0.21214038E+03</pdfrwt>
<pdfrwt beam="2">  1       -2 0.37799746E-01 0.21214038E+03</pdfrwt>
<totfact> 0.96191925E+02</totfact>
</mgrwt>
</event>
<event>
 8    1  0.8438969E-004  0.9436391E+02  0.7546771E-02  0.1295182E+00
         -1   -1    0    0    0  501 -0.00000000000E+00  0.00000000000E+00  0.27984942564E+02  0.27984942564E+02  0.00000000000E+00 0.  1.
          1   -1    0    0  501    0  0.00000000000E+00 -0.00000000000E+00 -0.30714439580E+03  0.30714439580E+03  0.00000000000E+00 0. -1.
         23    2    1    2    0    0  0.12984777196E+02 -0.73850388757E+01 -0.12466820438E+03  0.15635443001E+03  0.93174048766E+02 0.  0.
         23    2    1    2    0    0 -0.12984777196E+02  0.73850388757E+01 -0.15449124886E+03  0.17877490835E+03  0.88711772865E+02 0.  0.
          5    1    4    4  502    0 -0.34233487022E+02  0.60645981663E+00 -0.15196094639E+03  0.15584132525E+03  0.47000000000E+01 0. -1.
         -5    1    4    4    0  502  0.21248709826E+02  0.67785790591E+01 -0.25303024648E+01  0.22933583102E+02  0.47000000000E+01 0.  1.
          5    1    3    3  503    0  0.47393778040E+02  0.17372987509E+02 -0.56181862014E+02  0.75673525828E+02  0.47000000000E+01 0. -1.
         -5    1    3    3    0  503 -0.34409000844E+02 -0.24758026385E+02 -0.68486342364E+02  0.80680904184E+02  0.47000000000E+01 0.  1.
<mgrwt>
<rscale>  0 0.93243292E+02</rscale>
<asrwt>0</asrwt>
<pdfrwt beam="1">  1        1 0.47252983E-01 0.94363905E+02</pdfrwt>
<pdfrwt beam="2">  1       -1 0.43053758E-02 0.94363905E+02</pdfrwt>
<totfact> 0.16950384E+04</totfact>
</mgrwt>
</event>
<event>
 8    1  0.8438969E-004  0.1620850E+03  0.7546771E-02  0.1187160E+00
         -2   -1    0    0    0  501 -0.00000000000E+00  0.00000000000E+00  0.11894865167E+03  0.11894865167E+03  0.00000000000E+00 0.  1.
          2   -1    0    0  501    0  0.00000000000E+00 -0.00000000000E+00 -0.42057936501E+03  0.42057936501E+03  0.00000000000E+00 0. -1.
         23    2    1    2    0    0 -0.12573375428E+03  0.45942862719E+02  0.36173614379E+02  0.16607252082E+03  0.91388337292E+02 0.  0.
         23    2    1    2    0    0  0.12573375428E+03 -0.45942862719E+02 -0.33780432772E+03  0.37345549586E+03  0.86241057284E+02 0.  0.
          5    1    4    4  502    0  0.10830654923E+03 -0.66279937257E+02 -0.30761876064E+03  0.33282838008E+03  0.47000000000E+01 0. -1.
         -5    1    4    4    0  502  0.17427205055E+02  0.20337074538E+02 -0.30185567079E+02  0.40627115781E+02  0.47000000000E+01 0.  1.
          5    1    3    3  503    0 -0.66098015065E+02  0.27429827577E+02 -0.27459897030E+02  0.76795045291E+02  0.47000000000E+01 0. -1.
         -5    1    3    3    0  503 -0.59635739219E+02  0.18513035143E+02  0.63633511409E+02  0.89277475528E+02  0.47000000000E+01 0.  1.
<mgrwt>
<rscale>  0 0.16136892E+03</rscale>
<asrwt>0</asrwt>
<pdfrwt beam="1">  1        2 0.64704518E-01 0.16208501E+03</pdfrwt>
<pdfrwt beam="2">  1       -2 0.18299792E-01 0.16208501E+03</pdfrwt>
<totfact> 0.18246049E+03</totfact>
</mgrwt>
</event>
<event>
 8    1  0.8438969E-004  0.1285023E+03  0.7546771E-02  0.1230030E+00
          1   -1    0    0  501    0  0.00000000000E+00  0.00000000000E+00  0.35568412323E+03  0.35568412323E+03  0.00000000000E+00 0. -1.
         -1   -1    0    0    0  501 -0.00000000000E+00 -0.00000000000E+00 -0.11574081856E+03  0.11574081856E+03  0.00000000000E+00 0.  1.
         23    2    1    2    0    0 -0.88811603820E+02 -0.12678675898E+02 -0.62694589434E+02  0.14298063256E+03  0.92003260531E+02 0.  0.
         23    2    1    2    0    0  0.88811603820E+02  0.12678675898E+02  0.30263789410E+03  0.32844430923E+03  0.90761883647E+02 0.  0.
          5    1    4    4  502    0  0.67357400926E+02 -0.23304606637E+01  0.29213289642E+03  0.29984357535E+03  0.47000000000E+01 0. -1.
         -5    1    4    4    0  502  0.21454202894E+02  0.15009136562E+02  0.10504997678E+02  0.28600733878E+02  0.47000000000E+01 0.  1.
          5    1    3    3  503    0  0.92946236501E+01  0.21514565432E+02 -0.65086252859E+01  0.24773347727E+02  0.47000000000E+01 0. -1.
         -5    1    3    3    0  503 -0.98106227470E+02 -0.34193241330E+02 -0.56185964148E+02  0.11820728484E+03  0.47000000000E+01 0.  1.
<mgrwt>
<rscale>  0 0.12828030E+03</rscale>
<asrwt>0</asrwt>
<pdfrwt beam="1">  1        1 0.54720634E-01 0.12850233E+03</pdfrwt>
<pdfrwt beam="2">  1       -1 0.17806280E-01 0.12850233E+03</pdfrwt>
<totfact> 0.16864557E+03</totfact>
</mgrwt>
</event>
<event>
 8    1  0.8438969E-004  0.1162448E+03  0.7546771E-02  0.1249828E+00
         -1   -1    0    0    0  501 -0.00000000000E+00  0.00000000000E+00  0.55349019290E+03  0.55349019290E+03  0.00000000000E+00 0.  1.
          1   -1    0    0  501    0  0.00000000000E+00 -0.00000000000E+00 -0.32551867518E+02  0.32551867518E+02  0.00000000000E+00 0. -1.
         23    2    1    2    0    0  0.24376951518E+02 -0.68894906795E+02  0.40795016295E+03  0.42393354196E+03  0.89193994197E+02 0.  0.
         23    2    1    2    0    0 -0.24376951518E+02  0.68894906795E+02  0.11298816243E+03  0.16210851845E+03  0.90399684507E+02 0.  0.
          5    1    4    4  502    0 -0.14938623608E+02 -0.15959603621E+02  0.26499125874E+01  0.22516293206E+02  0.47000000000E+01 0. -1.
         -5    1    4    4    0  502 -0.94383279105E+01  0.84854510416E+02  0.11033824984E+03  0.13959222525E+03  0.47000000000E+01 0.  1.
          5    1    3    3  503    0 -0.22472476810E+02 -0.28130516882E+01  0.32967064405E+02  0.40272109570E+02  0.47000000000E+01 0. -1.
         -5    1    3    3    0  503  0.46849428329E+02 -0.66081855107E+02  0.37498309855E+03  0.38366143239E+03  0.47000000000E+01 0.  1.
<mgrwt>
<rscale>  0 0.11601028E+03</rscale>
<asrwt>0</asrwt>
<pdfrwt beam="1">  1        1 0.50079800E-02 0.11624477E+03</pdfrwt>
<pdfrwt beam="2">  1       -1 0.85152330E-01 0.11624477E+03</pdfrwt>
<totfact> 0.22829403E+03</totfact>
</mgrwt>
</event>
<event>
 8    1  0.8438969E-004  0.9533311E+02  0.7546771E-02  0.1291436E+00
          1   -1    0    0  501    0  0.00000000000E+00  0.00000000000E+00  0.38033677998E+03  0.38033677998E+03  0.00000000000E+00 0. -1.
         -1   -1    0    0    0  501 -0.00000000000E+00 -0.00000000000E+00 -0.23816967780E+02  0.23816967780E+02  0.00000000000E+00 0.  1.
         23    2    1    2    0    0  0.17011996154E+01  0.23724427013E+02  0.15488200039E+03  0.18187038360E+03  0.92318253169E+02 0.  0.
         23    2    1    2    0    0 -0.17011996154E+01 -0.23724427013E+02  0.20163781181E+03  0.22228336416E+03  0.90478419054E+02 0.  0.
          5    1    4    4  502    0  0.41196097393E+02  0.49065895707E+01  0.91766847779E+02  0.10081883461E+03  0.47000000000E+01 0. -1.
         -5    1    4    4    0  502 -0.42897297008E+02 -0.28631016584E+02  0.10987096403E+03  0.12146452955E+03  0.47000000000E+01 0.  1.
          5    1    3    3  503    0  0.44592224013E+02  0.26486496449E+02  0.82800502686E+02  0.97816226577E+02  0.47000000000E+01 0. -1.
         -5    1    3    3    0  503 -0.42891024398E+02 -0.27620694364E+01  0.72081497704E+02  0.84054157022E+02  0.47000000000E+01 0.  1.
<mgrwt>
<rscale>  0 0.94884830E+02</rscale>
<asrwt>0</asrwt>
<pdfrwt beam="1">  1        1 0.58513346E-01 0.95333113E+02</pdfrwt>
<pdfrwt beam="2">  1       -1 0.36641492E-02 0.95333113E+02</pdfrwt>
<totfact> 0.16489162E+04</totfact>
</mgrwt>
</event>
<event>
 8    1  0.8438969E-004  0.1109137E+03  0.7546771E-02  0.1259358E+00
         -3   -1    0    0    0  501 -0.00000000000E+00  0.00000000000E+00  0.28959632680E+03  0.28959632680E+03  0.00000000000E+00 0.  1.
          3   -1    0    0  501    0  0.00000000000E+00 -0.00000000000E+00 -0.45825694003E+02  0.45825694003E+02  0.00000000000E+00 0. -1.
         23    2    1    2    0    0 -0.35670138173E+02  0.56645201262E+02  0.74511106007E+02  0.13361797562E+03  0.88435405274E+02 0.  0.
         23    2    1    2    0    0  0.35670138173E+02 -0.56645201262E+02  0.16925952679E+03  0.20180404519E+03  0.87149570633E+02 0.  0.
          5    1    3    3  502    0 -0.18966493593E+02  0.74818300159E+02  0.76031195133E+02  0.10844509464E+03  0.47000000000E+01 0. -1.
         -5    1    3    3    0  502 -0.16703644580E+02 -0.18173098896E+02 -0.15200891261E+01  0.25172880977E+02  0.47000000000E+01 0.  1.
          5    1    4    4  503    0  0.63031119333E+02 -0.40809024875E+02  0.96725348259E+02  0.12254053008E+03  0.47000000000E+01 0. -1.
         -5    1    4    4    0  503 -0.27360981160E+02 -0.15836176388E+02  0.72534178531E+02  0.79263515111E+02  0.47000000000E+01 0.  1.
<mgrwt>
<rscale>  0 0.11065723E+03</rscale>
<asrwt>0</asrwt>
<pdfrwt beam="1">  1        3 0.70501070E-02 0.11091374E+03</pdfrwt>
<pdfrwt beam="2">  1       -3 0.44553280E-01 0.11091374E+03</pdfrwt>
<totfact> 0.14633280E+03</totfact>
</mgrwt>
</event>
<event>
 8    1  0.8438969E-004  0.9910685E+02  0.7546771E-02  0.1283024E+00
          1   -1    0    0  501    0  0.00000000000E+00  0.00000000000E+00  0.35893100887E+03  0.35893100887E+03  0.00000000000E+00 0. -1.
         -1   -1    0    0    0  501 -0.00000000000E+00 -0.00000000000E+00 -0.83228191334E+02  0.83228191334E+02  0.00000000000E+00 0.  1.
         23    2    1    2    0    0  0.17242450878E+02 -0.28506680443E+02 -0.44320132746E+02  0.10714150558E+03  0.91679305788E+02 0.  0.
         23    2    1    2    0    0 -0.17242450878E+02  0.28506680443E+02  0.32002295028E+03  0.33501769462E+03  0.93339348935E+02 0.  0.
          5    1    3    3  502    0 -0.50599897652E+01  0.21806849950E+02 -0.46544336167E+02  0.51861425264E+02  0.47000000000E+01 0. -1.
         -5    1    4    4    0  503  0.19799820424E+01 -0.27458931896E+02  0.19054330589E+03  0.19257921666E+03  0.47000000000E+01 0.  1.
          5    1    4    4  503    0 -0.19222432920E+02  0.55965612339E+02  0.12947964438E+03  0.14243847795E+03  0.47000000000E+01 0. -1.
         -5    1    3    3    0  502  0.22302440643E+02 -0.50313530393E+02  0.22242034203E+01  0.55280080319E+02  0.47000000000E+01 0.  1.
<mgrwt>
<rscale>  0 0.98714057E+02</rscale>
<asrwt>0</asrwt>
<pdfrwt beam="1">  1        1 0.55220154E-01 0.99106846E+02</pdfrwt>
<pdfrwt beam="2">  1       -1 0.12804337E-01 0.99106846E+02</pdfrwt>
<totfact> 0.27624612E+03</totfact>
</mgrwt>
</event>
<event>
 8    1  0.8438969E-004  0.1063689E+03  0.7546771E-02  0.1268095E+00
         -1   -1    0    0    0  501 -0.00000000000E+00  0.00000000000E+00  0.11654242212E+03  0.11654242212E+03  0.00000000000E+00 0.  1.
          1   -1    0    0  501    0  0.00000000000E+00 -0.00000000000E+00 -0.14093426779E+03  0.14093426779E+03  0.00000000000E+00 0. -1.
         23    2    1    2    0    0 -0.49998895102E+02  0.20088060979E+02  0.60651322148E+02  0.12129050065E+03  0.90163090915E+02 0.  0.
         23    2    1    2    0    0  0.49998895102E+02 -0.20088060979E+02 -0.85043167819E+02  0.13618618927E+03  0.91711057399E+02 0.  0.
          5    1    3    3  502    0  0.20078778352E+02  0.23684342819E+02  0.33463048426E+02  0.45890860144E+02  0.47000000000E+01 0. -1.
         -5    1    4    4    0  503  0.62216137586E+02  0.17924110802E+02 -0.42165649465E+02  0.77409001537E+02  0.47000000000E+01 0.  1.
          5    1    4    4  503    0 -0.12217242483E+02 -0.38012171781E+02 -0.42877518354E+02  0.58777187731E+02  0.47000000000E+01 0. -1.
         -5    1    3    3    0  502 -0.70077673454E+02 -0.35962818399E+01  0.27188273722E+02  0.75399640502E+02  0.47000000000E+01 0.  1.
<mgrwt>
<rscale>  0 0.10603437E+03</rscale>
<asrwt>0</asrwt>
<pdfrwt beam="1">  1        1 0.21682195E-01 0.10636888E+03</pdfrwt>
<pdfrwt beam="2">  1       -1 0.17929603E-01 0.10636888E+03</pdfrwt>
<totfact> 0.52020949E+03</totfact>
</mgrwt>
</event>
<event>
 8    1  0.8438969E-004  0.1499593E+03  0.7546771E-02  0.1200707E+00
         -2   -1    0    0    0  501 -0.00000000000E+00  0.00000000000E+00  0.12644630568E+03  0.12644630568E+03  0.00000000000E+00 0.  1.
          2   -1    0    0  501    0  0.00000000000E+00 -0.00000000000E+00 -0.17776037133E+03  0.17776037133E+03  0.00000000000E+00 0. -1.
         23    2    1    2    0    0  0.10703233072E+03  0.51162569241E+02 -0.34606856947E+02  0.15331953058E+03  0.90750843518E+02 0.  0.
         23    2    1    2    0    0 -0.10703233072E+03 -0.51162569241E+02 -0.16707208706E+02  0.15088714643E+03  0.91729340032E+02 0.  0.
          5    1    4    4  502    0 -0.10263215896E+03 -0.72472007014E+02 -0.52189362508E+01  0.12583671622E+03  0.47000000000E+01 0. -1.
         -5    1    3    3    0  503  0.11279389197E+03  0.26995313098E+02 -0.46915838761E+02  0.12519742379E+03  0.47000000000E+01 0.  1.
          5    1    3    3  503    0 -0.57615612489E+01  0.24167256143E+02  0.12308981814E+02  0.28122106799E+02  0.47000000000E+01 0. -1.
         -5    1    4    4    0  502 -0.44001717683E+01  0.21309437772E+02 -0.11488272455E+02  0.25050430211E+02  0.47000000000E+01 0.  1.
<mgrwt>
<rscale>  0 0.14980997E+03</rscale>
<asrwt>0</asrwt>
<pdfrwt beam="1">  1        2 0.27347749E-01 0.14995933E+03</pdfrwt>
<pdfrwt beam="2">  1       -2 0.19453278E-01 0.14995933E+03</pdfrwt>
<totfact> 0.41353374E+03</totfact>
</mgrwt>
</event>
<event>
 8    1  0.8438969E-004  0.1308802E+03  0.7546771E-02  0.1226222E+00
          1   -1    0    0  501    0  0.00000000000E+00  0.00000000000E+00  0.31697104360E+03  0.31697104360E+03  0.00000000000E+00 0. -1.
         -1   -1    0    0    0  501 -0.00000000000E+00 -0.00000000000E+00 -0.83379303576E+02  0.83379303576E+02  0.00000000000E+00 0.  1.
         23    2    1    2    0    0 -0.25483821977E+02 -0.90524721917E+02  0.23573739563E+03  0.26963259684E+03  0.91024541291E+02 0.  0.
         23    2    1    2    0    0  0.25483821977E+02  0.90524721917E+02 -0.21456556045E+01  0.13071775034E+03  0.90765499810E+02 0.  0.
          5    1    4    4  502    0 -0.32833009063E+02  0.22507564133E+02 -0.77471289160E+01  0.40825297718E+02  0.47000000000E+01 0. -1.
         -5    1    3    3    0  503  0.25514918106E+02 -0.24889212362E+02  0.27172588876E+02  0.45065768874E+02  0.47000000000E+01 0.  1.
          5    1    3    3  503    0 -0.50998740083E+02 -0.65635509555E+02  0.20856480676E+03  0.22456682796E+03  0.47000000000E+01 0. -1.
         -5    1    4    4    0  502  0.58316831039E+02  0.68017157784E+02  0.56014733116E+01  0.89892452624E+02  0.47000000000E+01 0.  1.
<mgrwt>
<rscale>  0 0.13083514E+03</rscale>
<asrwt>0</asrwt>
<pdfrwt beam="1">  1        1 0.48764775E-01 0.13088016E+03</pdfrwt>
<pdfrwt beam="2">  1       -1 0.12827585E-01 0.13088016E+03</pdfrwt>
<totfact> 0.32551804E+03</totfact>
</mgrwt>
</event>
<event>
 7    1  0.8438969E-004  0.1416479E+03  0.7546771E-02  0.1228557E+00
         -1   -1    0    0    0  501 -0.00000000000E+00  0.00000000000E+00  0.62294610368E+02  0.62294610368E+02  0.00000000000E+00 0.  1.
          1   -1    0    0  501    0  0.00000000000E+00 -0.00000000000E+00 -0.24518178685E+03  0.24518178685E+03  0.00000000000E+00 0. -1.
         23    2    1    2    0    0 -0.16293452281E+02 -0.27718282300E+02 -0.11235467934E+03  0.14923934617E+03  0.92817178992E+02 0.  0.
          5    1    3    3  502    0 -0.32922872671E+01 -0.60279791583E+02 -0.54718133960E+02  0.81612845881E+02  0.47000000000E+01 0. -1.
         -5    1    1    2    0  503 -0.52950382500E+01  0.78222033036E+02 -0.14945613198E+02  0.79951142808E+02  0.47000000000E+01 0.  1.
          5    1    1    2  503    0  0.21588490531E+02 -0.50503750736E+02 -0.55586883948E+02  0.78285908240E+02  0.47000000000E+01 0. -1.
         -5    1    3    3    0  502 -0.13001165014E+02  0.32561509283E+02 -0.57636545381E+02  0.67626500294E+02  0.47000000000E+01 0.  1.
<mgrwt>
<rscale>  0 0.12926080E+03</rscale>
<asrwt>0</asrwt>
<pdfrwt beam="1">  1        1 0.37720275E-01 0.14164791E+03</pdfrwt>
<pdfrwt beam="2">  1       -1 0.95837863E-02 0.14164791E+03</pdfrwt>
<totfact> 0.70288148E+03</totfact>
</mgrwt>
</event>
<event>
 8    1  0.8438969E-004  0.9652510E+02  0.7546771E-02  0.1287789E+00
         -1   -1    0    0    0  501 -0.00000000000E+00  0.00000000000E+00  0.16175658079E+03  0.16175658079E+03  0.00000000000E+00 0.  1.
          1   -1    0    0  501    0  0.00000000000E+00 -0.00000000000E+00 -0.62318865715E+02  0.62318865715E+02  0.00000000000E+00 0. -1.
         23    2    1    2    0    0 -0.22580729605E+02  0.11806799064E+02  0.80596734596E+02  0.12574946498E+03  0.93101044361E+02 0.  0.
         23    2    1    2    0    0  0.22580729605E+02 -0.11806799064E+02  0.18840980479E+02  0.98325981527E+02  0.93079139683E+02 0.  0.
          5    1    3    3  502    0  0.35078287469E+02  0.15324762203E+02  0.31948156131E+02  0.50081027031E+02  0.47000000000E+01 0. -1.
         -5    1    4    4    0  503 -0.31518227101E+02  0.14705465017E+02  0.23381609450E+00  0.35096923098E+02  0.47000000000E+01 0.  1.
          5    1    4    4  503    0  0.54098956706E+02 -0.26512264081E+02  0.18607164384E+02  0.63229058429E+02  0.47000000000E+01 0. -1.
         -5    1    3    3    0  502 -0.57659017074E+02 -0.35179631390E+01  0.48648578465E+02  0.75668437946E+02  0.47000000000E+01 0.  1.
<mgrwt>
<rscale>  0 0.96519815E+02</rscale>
<asrwt>0</asrwt>
<pdfrwt beam="1">  1        1 0.95875179E-02 0.96525097E+02</pdfrwt>
<pdfrwt beam="2">  1       -1 0.24885628E-01 0.96525097E+02</pdfrwt>
<totfact> 0.87177484E+03</totfact>
</mgrwt>
</event>
<event>
 8    1  0.8438969E-004  0.9447006E+02  0.7546771E-02  0.1294398E+00
         -1   -1    0    0    0  501 -0.00000000000E+00  0.00000000000E+00  0.38271632882E+03  0.38271632882E+03  0.00000000000E+00 0.  1.
          1   -1    0    0  501    0  0.00000000000E+00 -0.00000000000E+00 -0.21949843703E+03  0.21949843703E+03  0.00000000000E+00 0. -1.
         23    2    1    2    0    0  0.67855071536E+01 -0.60185846327E+01  0.36704460193E+03  0.37900703427E+03  0.94033641583E+02 0.  0.
         23    2    1    2    0    0 -0.67855071536E+01  0.60185846327E+01 -0.20382671014E+03  0.22320773159E+03  0.90521252790E+02 0.  0.
          5    1    3    3  502    0 -0.15156839353E+02  0.40002391757E+02  0.15440203997E+03  0.16028724551E+03  0.47000000000E+01 0. -1.
         -5    1    3    3    0  502  0.21942346507E+02 -0.46020976389E+02  0.21264256196E+03  0.21871978876E+03  0.47000000000E+01 0.  1.
          5    1    4    4  503    0 -0.28034210009E+02  0.37917524028E+02 -0.14741861755E+03  0.15484829466E+03  0.47000000000E+01 0. -1.
         -5    1    4    4    0  503  0.21248702855E+02 -0.31898939395E+02 -0.56408092591E+02  0.68359436929E+02  0.47000000000E+01 0.  1.
<mgrwt>
<rscale>  0 0.93583781E+02</rscale>
<asrwt>0</asrwt>
<pdfrwt beam="1">  1        1 0.33768990E-01 0.94470060E+02</pdfrwt>
<pdfrwt beam="2">  1       -1 0.58879435E-01 0.94470060E+02</pdfrwt>
<totfact> 0.39726791E+02</totfact>
</mgrwt>
</event>
<event>
 8    1  0.8438969E-004  0.9868389E+02  0.7546771E-02  0.1283113E+00
          1   -1    0    0  501    0  0.00000000000E+00  0.00000000000E+00  0.14055595939E+03  0.14055595939E+03  0.00000000000E+00 0. -1.
         -1   -1    0    0    0  501 -0.00000000000E+00 -0.00000000000E+00 -0.11260839095E+03  0.11260839095E+03  0.00000000000E+00 0.  1.
         23    2    1    2    0    0 -0.36208535811E+02  0.26265946720E+01 -0.64567490048E+02  0.11792993745E+03  0.91763567443E+02 0.  0.
         23    2    1    2    0    0  0.36208535811E+02 -0.26265946720E+01  0.92515058489E+02  0.13523441290E+03  0.91713430420E+02 0.  0.
          5    1    4    4  502    0  0.21154613474E+02  0.44121514126E+02  0.42512129792E+02  0.64989205715E+02  0.47000000000E+01 0. -1.
         -5    1    3    3    0  503 -0.41323352668E+01 -0.21918832469E+02 -0.72936024945E+02  0.76415084547E+02  0.47000000000E+01 0.  1.
          5    1    3    3  503    0 -0.32076200544E+02  0.24545427141E+02  0.83685348976E+01  0.41514852899E+02  0.47000000000E+01 0. -1.
         -5    1    4    4    0  502  0.15053922338E+02 -0.46748108798E+02  0.50002928698E+02  0.70245207184E+02  0.47000000000E+01 0.  1.
<mgrwt>
<rscale>  0 0.98672229E+02</rscale>
<asrwt>0</asrwt>
<pdfrwt beam="1">  1        1 0.21623994E-01 0.98683886E+02</pdfrwt>
<pdfrwt beam="2">  1       -1 0.17324368E-01 0.98683886E+02</pdfrwt>
<totfact> 0.54802783E+03</totfact>
</mgrwt>
</event>
<event>
 8    1  0.8438969E-004  0.1230070E+03  0.7546771E-02  0.1239490E+00
         -1   -1    0    0    0  501 -0.00000000000E+00  0.00000000000E+00  0.16862333330E+02  0.16862333330E+02  0.00000000000E+00 0.  1.
          1   -1    0    0  501    0  0.00000000000E+00 -0.00000000000E+00 -0.91087530153E+03  0.91087530153E+03  0.00000000000E+00 0. -1.
         23    2    1    2    0    0 -0.75695638608E+02  0.30511408928E+02 -0.34878490305E+03  0.36880618594E+03  0.87785638987E+02 0.  0.
         23    2    1    2    0    0  0.75695638608E+02 -0.30511408928E+02 -0.54522806515E+03  0.55893144892E+03  0.92032308385E+02 0.  0.
          5    1    4    4  502    0  0.68751390833E+02 -0.33514339259E+01 -0.50490256371E+03  0.50959461799E+03  0.47000000000E+01 0. -1.
         -5    1    4    4    0  502  0.69442477744E+01 -0.27159975002E+02 -0.40325501444E+02  0.49336830927E+02  0.47000000000E+01 0.  1.
          5    1    3    3  503    0 -0.24719419761E+02 -0.22991872703E+02 -0.46931844772E+02  0.58003137651E+02  0.47000000000E+01 0. -1.
         -5    1    3    3    0  503 -0.50976218847E+02  0.53503281631E+02 -0.30185305828E+03  0.31080304829E+03  0.47000000000E+01 0.  1.
<mgrwt>
<rscale>  0 0.12221330E+03</rscale>
<asrwt>0</asrwt>
<pdfrwt beam="1">  1        1 0.14013467E+00 0.12300700E+03</pdfrwt>
<pdfrwt beam="2">  1       -1 0.25942050E-02 0.12300700E+03</pdfrwt>
<totfact> 0.84073593E+03</totfact>
</mgrwt>
</event>
<event>
 8    1  0.8438969E-004  0.1197564E+03  0.7546771E-02  0.1244374E+00
          1   -1    0    0  501    0  0.00000000000E+00  0.00000000000E+00  0.53373752043E+03  0.53373752043E+03  0.00000000000E+00 0. -1.
         -1   -1    0    0    0  501 -0.00000000000E+00 -0.00000000000E+00 -0.29516686369E+02  0.29516686369E+02  0.00000000000E+00 0.  1.
         23    2    1    2    0    0 -0.47998936667E+02  0.57349056379E+02  0.34159714327E+03  0.36129368296E+03  0.90838895123E+02 0.  0.
         23    2    1    2    0    0  0.47998936667E+02 -0.57349056379E+02  0.16262369079E+03  0.20196052384E+03  0.93534892926E+02 0.  0.
          5    1    4    4  502    0 -0.75226500301E+01 -0.63114983592E+02  0.87314202329E+02  0.10810157883E+03  0.47000000000E+01 0. -1.
         -5    1    4    4    0  502  0.55521586697E+02  0.57659272128E+01  0.75309488461E+02  0.93858945009E+02  0.47000000000E+01 0.  1.
          5    1    3    3  503    0 -0.56983580717E+02  0.13388839947E+00  0.13333701459E+03  0.14507927439E+03  0.47000000000E+01 0. -1.
         -5    1    3    3    0  503  0.89846440498E+01  0.57215167980E+02  0.20826012868E+03  0.21621440857E+03  0.47000000000E+01 0.  1.
<mgrwt>
<rscale>  0 0.11922949E+03</rscale>
<asrwt>0</asrwt>
<pdfrwt beam="1">  1        1 0.82113457E-01 0.11975637E+03</pdfrwt>
<pdfrwt beam="2">  1       -1 0.45410291E-02 0.11975637E+03</pdfrwt>
<totfact> 0.79811514E+03</totfact>
</mgrwt>
</event>
<event>
 8    1  0.8438969E-004  0.1112900E+03  0.7546771E-02  0.1258516E+00
         -1   -1    0    0    0  501 -0.00000000000E+00  0.00000000000E+00  0.23138644961E+03  0.23138644961E+03  0.00000000000E+00 0.  1.
          1   -1    0    0  501    0  0.00000000000E+00 -0.00000000000E+00 -0.11567744120E+03  0.11567744120E+03  0.00000000000E+00 0. -1.
         23    2    1    2    0    0  0.55153916905E+02 -0.35019550838E+02  0.18530755346E+03  0.21580297755E+03  0.89239633885E+02 0.  0.
         23    2    1    2    0    0 -0.55153916905E+02  0.35019550838E+02 -0.69598545048E+02  0.13126091327E+03  0.90095207355E+02 0.  0.
          5    1    3    3  502    0  0.62227982399E+02 -0.11013818849E+02  0.57776240330E+02  0.85754358174E+02  0.47000000000E+01 0. -1.
         -5    1    3    3    0  502 -0.70740654938E+01 -0.24005731989E+02  0.12753131313E+03  0.13004861937E+03  0.47000000000E+01 0.  1.
          5    1    4    4  503    0 -0.16369840636E+02 -0.20073212718E+02 -0.56683666726E+02  0.62498268975E+02  0.47000000000E+01 0. -1.
         -5    1    4    4    0  503 -0.38784076269E+02  0.55092763556E+02 -0.12914878322E+02  0.68762644294E+02  0.47000000000E+01 0.  1.
<mgrwt>
<rscale>  0 0.11111675E+03</rscale>
<asrwt>0</asrwt>
<pdfrwt beam="1">  1        1 0.17796530E-01 0.11129003E+03</pdfrwt>
<pdfrwt beam="2">  1       -1 0.35597915E-01 0.11129003E+03</pdfrwt>
<totfact> 0.21759195E+03</totfact>
</mgrwt>
</event>
<event>
 8    1  0.8438969E-004  0.1544763E+03  0.7546771E-02  0.1199319E+00
         -1   -1    0    0    0  501 -0.00000000000E+00  0.00000000000E+00  0.12387325175E+03  0.12387325175E+03  0.00000000000E+00 0.  1.
          1   -1    0    0  501    0  0.00000000000E+00 -0.00000000000E+00 -0.18188868045E+03  0.18188868045E+03  0.00000000000E+00 0. -1.
         23    2    1    2    0    0 -0.12367452042E+03  0.20621491020E+02 -0.55218815817E+02  0.15126036151E+03  0.64108864055E+02 0.  0.
         23    2    1    2    0    0  0.12367452042E+03 -0.20621491020E+02 -0.27966128855E+01  0.15450157069E+03  0.90234590990E+02 0.  0.
          5    1    4    4  502    0 -0.27151894496E+01  0.20712427702E+02  0.19809999374E-01  0.21411849698E+02  0.47000000000E+01 0. -1.
         -5    1    4    4    0  502  0.12638970987E+03 -0.41333918722E+02 -0.28164228848E+01  0.13308972100E+03  0.47000000000E+01 0.  1.
          5    1    3    3  503    0 -0.92306184295E+02  0.38067457352E+02 -0.56905595550E+02  0.11502130139E+03  0.47000000000E+01 0. -1.
         -5    1    3    3    0  503 -0.31368336122E+02 -0.17445966331E+02  0.16867797336E+01  0.36239060117E+02  0.47000000000E+01 0.  1.
<mgrwt>
<rscale>  0 0.15094309E+03</rscale>
<asrwt>0</asrwt>
<pdfrwt beam="1">  1        1 0.27982874E-01 0.15447626E+03</pdfrwt>
<pdfrwt beam="2">  1       -1 0.19057423E-01 0.15447626E+03</pdfrwt>
<totfact> 0.35045369E+03</totfact>
</mgrwt>
</event>
<event>
 8    1  0.8438969E-004  0.9344108E+02  0.7546771E-02  0.1295565E+00
         -2   -1    0    0    0  501 -0.00000000000E+00  0.00000000000E+00  0.22182486303E+02  0.22182486303E+02  0.00000000000E+00 0.  1.
          2   -1    0    0  501    0  0.00000000000E+00 -0.00000000000E+00 -0.40516427951E+03  0.40516427951E+03  0.00000000000E+00 0. -1.
         23    2    1    2    0    0  0.17028243106E+02  0.92066199108E+01 -0.23461926989E+03  0.25201087831E+03  0.89936411248E+02 0.  0.
         23    2    1    2    0    0 -0.17028243106E+02 -0.92066199108E+01 -0.14836252331E+03  0.17533588750E+03  0.91413960689E+02 0.  0.
          5    1    3    3  502    0  0.46986371998E+02  0.15969038591E+02 -0.79685231738E+02  0.93992316197E+02  0.47000000000E+01 0. -1.
         -5    1    4    4    0  503 -0.39699752278E+02 -0.32140780880E+02 -0.49671932754E+02  0.71403718601E+02  0.47000000000E+01 0.  1.
          5    1    4    4  503    0  0.22671509173E+02  0.22934160969E+02 -0.98690590558E+02  0.10393216890E+03  0.47000000000E+01 0. -1.
         -5    1    3    3    0  502 -0.29958128892E+02 -0.67624186802E+01 -0.15493403816E+03  0.15801856211E+03  0.47000000000E+01 0.  1.
<mgrwt>
<rscale>  0 0.93077718E+02</rscale>
<asrwt>0</asrwt>
<pdfrwt beam="1">  1        2 0.62332965E-01 0.93441078E+02</pdfrwt>
<pdfrwt beam="2">  1       -2 0.34126903E-02 0.93441078E+02</pdfrwt>
<totfact> 0.24716374E+04</totfact>
</mgrwt>
</event>
<event>
 8    1  0.8438969E-004  0.1652450E+03  0.7546771E-02  0.1183207E+00
          1   -1    0    0  501    0  0.00000000000E+00  0.00000000000E+00  0.58827011758E+03  0.58827011758E+03  0.00000000000E+00 0. -1.
         -1   -1    0    0    0  501 -0.00000000000E+00 -0.00000000000E+00 -0.62148717925E+02  0.62148717925E+02  0.00000000000E+00 0.  1.
         23    2    1    2    0    0 -0.13135893114E+03  0.38726392485E+02  0.42899178156E+03  0.45971716413E+03  0.92471725839E+02 0.  0.
         23    2    1    2    0    0  0.13135893114E+03 -0.38726392485E+02  0.97129618097E+02  0.19070167138E+03  0.90432640624E+02 0.  0.
          5    1    4    4  502    0  0.19220863480E+02  0.27186325450E+02  0.15180451542E+02  0.36892736323E+02  0.47000000000E+01 0. -1.
         -5    1    4    4    0  502  0.11213806766E+03 -0.65912717935E+02  0.81949166556E+02  0.15380893506E+03  0.47000000000E+01 0.  1.
          5    1    3    3  503    0 -0.11480113175E+03  0.60929948575E+02  0.28871275009E+03  0.31665264968E+03  0.47000000000E+01 0. -1.
         -5    1    3    3    0  503 -0.16557799397E+02 -0.22203556090E+02  0.14027903147E+03  0.14306451445E+03  0.47000000000E+01 0.  1.
<mgrwt>
<rscale>  0 0.16496121E+03</rscale>
<asrwt>0</asrwt>
<pdfrwt beam="1">  1        1 0.90503092E-01 0.16524504E+03</pdfrwt>
<pdfrwt beam="2">  1       -1 0.95613416E-02 0.16524504E+03</pdfrwt>
<totfact> 0.23315646E+03</totfact>
</mgrwt>
</event>
<event>
 7    1  0.8438969E-004  0.1345729E+03  0.7546771E-02  0.1237574E+00
          1   -1    0    0  501    0  0.00000000000E+00  0.00000000000E+00  0.11284695856E+02  0.11284695856E+02  0.00000000000E+00 0. -1.
         -1   -1    0    0    0  501 -0.00000000000E+00 -0.00000000000E+00 -0.11694476064E+04  0.11694476064E+04  0.00000000000E+00 0.  1.
         23    2    1    2    0    0 -0.16276099288E+02  0.19901555420E+02 -0.47695749596E+03  0.48636158444E+03  0.91641445585E+02 0.  0.
          5    1    1    2  502    0 -0.53666042651E+02 -0.23223646269E+02 -0.41256680105E+03  0.41671673498E+03  0.47000000000E+01 0. -1.
         -5    1    3    3    0  503 -0.41381258937E+02  0.42599203539E+02 -0.34171824260E+03  0.34687252422E+03  0.47000000000E+01 0.  1.
          5    1    3    3  503    0  0.25105159649E+02 -0.22697648119E+02 -0.13523925336E+03  0.13948906022E+03  0.47000000000E+01 0. -1.
         -5    1    1    2    0  502  0.69942141938E+02  0.33220908489E+01 -0.26863861350E+03  0.27765398280E+03  0.47000000000E+01 0.  1.
<mgrwt>
<rscale>  0 0.12341108E+03</rscale>
<asrwt>0</asrwt>
<pdfrwt beam="1">  1        1 0.17361076E-02 0.13457294E+03</pdfrwt>
<pdfrwt beam="2">  1       -1 0.17991496E+00 0.13457294E+03</pdfrwt>
<totfact> 0.16465081E+03</totfact>
</mgrwt>
</event>
<event>
 8    1  0.8438969E-004  0.1061983E+03  0.7546771E-02  0.1272185E+00
          3   -1    0    0  501    0  0.00000000000E+00  0.00000000000E+00  0.56912419871E+03  0.56912419871E+03  0.00000000000E+00 0. -1.
         -3   -1    0    0    0  501 -0.00000000000E+00 -0.00000000000E+00 -0.22181419602E+02  0.22181419602E+02  0.00000000000E+00 0.  1.
         23    2    1    2    0    0 -0.32278271204E+02 -0.18219168467E+02  0.38858794876E+03  0.40063748589E+03  0.90199646826E+02 0.  0.
         23    2    1    2    0    0  0.32278271204E+02  0.18219168467E+02  0.15835483034E+03  0.19066813242E+03  0.99520146376E+02 0.  0.
          5    1    4    4  502    0 -0.21259378638E+02  0.39347851889E+02  0.45931754119E+02  0.64280873242E+02  0.47000000000E+01 0. -1.
         -5    1    3    3    0  503  0.25799866257E+02 -0.25804173805E+02  0.19041472146E+03  0.19393644483E+03  0.47000000000E+01 0.  1.
          5    1    3    3  503    0 -0.58078137461E+02  0.75850053382E+01  0.19817322730E+03  0.20670104106E+03  0.47000000000E+01 0. -1.
         -5    1    4    4    0  502  0.53537649842E+02 -0.21128683422E+02  0.11242307623E+03  0.12638725917E+03  0.47000000000E+01 0.  1.
<mgrwt>
<rscale>  0 0.10395842E+03</rscale>
<asrwt>0</asrwt>
<pdfrwt beam="1">  1        3 0.87557558E-01 0.10619833E+03</pdfrwt>
<pdfrwt beam="2">  1       -3 0.34125265E-02 0.10619833E+03</pdfrwt>
<totfact> 0.11272595E+03</totfact>
</mgrwt>
</event>
<event>
 8    1  0.8438969E-004  0.1061735E+03  0.7546771E-02  0.1268867E+00
         -1   -1    0    0    0  501 -0.00000000000E+00  0.00000000000E+00  0.14932473213E+02  0.14932473213E+02  0.00000000000E+00 0.  1.
          1   -1    0    0  501    0  0.00000000000E+00 -0.00000000000E+00 -0.74056349405E+03  0.74056349405E+03  0.00000000000E+00 0. -1.
         23    2    1    2    0    0 -0.39930915803E+02  0.37022809907E+02 -0.35512627642E+03  0.37065817073E+03  0.91146260685E+02 0.  0.
         23    2    1    2    0    0  0.39930915803E+02 -0.37022809907E+02 -0.37050474442E+03  0.38483779653E+03  0.88663394434E+02 0.  0.
          5    1    3    3  502    0  0.71988584111E+01  0.44389742861E+02 -0.26248738005E+03  0.26635312560E+03  0.47000000000E+01 0. -1.
         -5    1    3    3    0  502 -0.47129774214E+02 -0.73669329540E+01 -0.92638896370E+02  0.10430504513E+03  0.47000000000E+01 0.  1.
          5    1    4    4  503    0 -0.83306990599E+01 -0.28668594885E+02 -0.28166761946E+03  0.28328435666E+03  0.47000000000E+01 0. -1.
         -5    1    4    4    0  503  0.48261614863E+02 -0.83542150216E+01 -0.88837124965E+02  0.10155343987E+03  0.47000000000E+01 0.  1.
<mgrwt>
<rscale>  0 0.10563853E+03</rscale>
<asrwt>0</asrwt>
<pdfrwt beam="1">  1        1 0.11393286E+00 0.10617348E+03</pdfrwt>
<pdfrwt beam="2">  1       -1 0.22973034E-02 0.10617348E+03</pdfrwt>
<totfact> 0.13574448E+04</totfact>
</mgrwt>
</event>
<event>
 8    1  0.8438969E-004  0.9491588E+02  0.7546771E-02  0.1301134E+00
          1   -1    0    0  501    0  0.00000000000E+00  0.00000000000E+00  0.76015450306E+01  0.76015450306E+01  0.00000000000E+00 0. -1.
         -1   -1    0    0    0  501 -0.00000000000E+00 -0.00000000000E+00 -0.10063787847E+04  0.10063787847E+04  0.00000000000E+00 0.  1.
         23    2    1    2    0    0 -0.51614336250E+01 -0.25638396613E+02 -0.40574400263E+03  0.41339940695E+03  0.74745609991E+02 0.  0.
         23    2    1    2    0    0  0.51614336250E+01  0.25638396613E+02 -0.59303323705E+03  0.60058092280E+03  0.91241749244E+02 0.  0.
          5    1    3    3  502    0  0.27734479007E+02 -0.29263926052E+02 -0.29318962049E+03  0.29598618592E+03  0.47000000000E+01 0. -1.
         -5    1    3    3    0  502 -0.32895912632E+02  0.36255294393E+01 -0.11255438215E+03  0.11741322103E+03  0.47000000000E+01 0.  1.
          5    1    4    4  503    0  0.41189179721E+02 -0.10978804180E+02 -0.29843511049E+03  0.30150072610E+03  0.47000000000E+01 0. -1.
         -5    1    4    4    0  503 -0.36027746096E+02  0.36617200793E+02 -0.29459812657E+03  0.29908019670E+03  0.47000000000E+01 0.  1.
<mgrwt>
<rscale>  0 0.90713134E+02</rscale>
<asrwt>0</asrwt>
<pdfrwt beam="1">  1        1 0.11694692E-02 0.94915882E+02</pdfrwt>
<pdfrwt beam="2">  1       -1 0.15482741E+00 0.94915882E+02</pdfrwt>
<totfact> 0.41965861E+03</totfact>
</mgrwt>
</event>
<event>
 8    1  0.8438969E-004  0.9257955E+02  0.7546771E-02  0.1297503E+00
         -3   -1    0    0    0  501 -0.00000000000E+00  0.00000000000E+00  0.19422690242E+03  0.19422690242E+03  0.00000000000E+00 0.  1.
          3   -1    0    0  501    0  0.00000000000E+00 -0.00000000000E+00 -0.88588686266E+02  0.88588686266E+02  0.00000000000E+00 0. -1.
         23    2    1    2    0    0  0.99748880320E+01 -0.12368490782E+02 -0.47877990109E+02  0.10422703707E+03  0.91205785804E+02 0.  0.
         23    2    1    2    0    0 -0.99748880320E+01  0.12368490782E+02  0.15351620627E+03  0.17858855162E+03  0.89856369988E+02 0.  0.
          5    1    4    4  502    0  0.21197395337E+02  0.88366872272E+01  0.17104724959E+01  0.23503878964E+02  0.47000000000E+01 0. -1.
         -5    1    4    4    0  502 -0.31172283369E+02  0.35318035545E+01  0.15180573377E+03  0.15508467266E+03  0.47000000000E+01 0.  1.
          5    1    3    3  503    0 -0.61369111495E+01 -0.43431635354E+02 -0.52550434118E+02  0.68612001530E+02  0.47000000000E+01 0. -1.
         -5    1    3    3    0  503  0.16111799182E+02  0.31063144572E+02  0.46724440087E+01  0.35615035541E+02  0.47000000000E+01 0.  1.
<mgrwt>
<rscale>  0 0.92245473E+02</rscale>
<asrwt>0</asrwt>
<pdfrwt beam="1">  1        3 0.13629029E-01 0.92579551E+02</pdfrwt>
<pdfrwt beam="2">  1       -3 0.29881062E-01 0.92579551E+02</pdfrwt>
<totfact> 0.10212989E+03</totfact>
</mgrwt>
</event>
<event>
 8    1  0.8438969E-004  0.1018157E+03  0.7546771E-02  0.1277142E+00
          2   -1    0    0  501    0  0.00000000000E+00  0.00000000000E+00  0.83058998310E+02  0.83058998310E+02  0.00000000000E+00 0. -1.
         -2   -1    0    0    0  501 -0.00000000000E+00 -0.00000000000E+00 -0.26612285742E+03  0.26612285742E+03  0.00000000000E+00 0.  1.
         23    2    1    2    0    0 -0.23782388488E+02 -0.38851895208E+02  0.36098503896E+02  0.10802564232E+03  0.91056936322E+02 0.  0.
         23    2    1    2    0    0  0.23782388488E+02  0.38851895208E+02 -0.21916236300E+03  0.24115621340E+03  0.89716810815E+02 0.  0.
          5    1    3    3  502    0  0.23297037760E+02  0.10897198865E+02  0.28934980430E+02  0.38997743576E+02  0.47000000000E+01 0. -1.
         -5    1    3    3    0  502 -0.47079426248E+02 -0.49749094074E+02  0.71635234657E+01  0.69027898747E+02  0.47000000000E+01 0.  1.
          5    1    4    4  503    0  0.41385216918E+02 -0.15852234677E+01 -0.16959887708E+03  0.17464569339E+03  0.47000000000E+01 0. -1.
         -5    1    4    4    0  503 -0.17602828431E+02  0.40437118676E+02 -0.49563485917E+02  0.66510520009E+02  0.47000000000E+01 0.  1.
<mgrwt>
<rscale>  0 0.10151519E+03</rscale>
<asrwt>0</asrwt>
<pdfrwt beam="1">  1        2 0.12778308E-01 0.10181570E+03</pdfrwt>
<pdfrwt beam="2">  1       -2 0.40941977E-01 0.10181570E+03</pdfrwt>
<totfact> 0.25540957E+03</totfact>
</mgrwt>
</event>
<event>
 8    1  0.8438969E-004  0.1479007E+03  0.7546771E-02  0.1203734E+00
          2   -1    0    0  501    0  0.00000000000E+00  0.00000000000E+00  0.60008979438E+03  0.60008979438E+03  0.00000000000E+00 0. -1.
         -2   -1    0    0    0  501 -0.00000000000E+00 -0.00000000000E+00 -0.36095398291E+02  0.36095398291E+02  0.00000000000E+00 0.  1.
         23    2    1    2    0    0 -0.10670493257E+03  0.42923346170E+02  0.30482706457E+03  0.33881285232E+03  0.92985231736E+02 0.  0.
         23    2    1    2    0    0  0.10670493257E+03 -0.42923346170E+02  0.25916733151E+03  0.29737234035E+03  0.89633960071E+02 0.  0.
          5    1    4    4  502    0  0.42894736325E+02 -0.41160213160E+02  0.20507465638E+03  0.21356925397E+03  0.47000000000E+01 0. -1.
         -5    1    4    4    0  502  0.63810196246E+02 -0.17631330092E+01  0.54092675128E+02  0.83803086372E+02  0.47000000000E+01 0.  1.
          5    1    3    3  503    0 -0.11768530571E+03  0.25762477957E+02  0.21414190232E+03  0.24574861298E+03  0.47000000000E+01 0. -1.
         -5    1    3    3    0  503  0.10980373140E+02  0.17160868213E+02  0.90685162249E+02  0.93064239341E+02  0.47000000000E+01 0.  1.
<mgrwt>
<rscale>  0 0.14737699E+03</rscale>
<asrwt>0</asrwt>
<pdfrwt beam="1">  1        2 0.92321499E-01 0.14790067E+03</pdfrwt>
<pdfrwt beam="2">  1       -2 0.55531386E-02 0.14790067E+03</pdfrwt>
<totfact> 0.81046019E+03</totfact>
</mgrwt>
</event>
<event>
 8    1  0.8438969E-004  0.9637808E+02  0.7546771E-02  0.1289123E+00
         -1   -1    0    0    0  501 -0.00000000000E+00  0.00000000000E+00  0.11743665717E+03  0.11743665717E+03  0.00000000000E+00 0.  1.
          1   -1    0    0  501    0  0.00000000000E+00 -0.00000000000E+00 -0.79025218030E+02  0.79025218030E+02  0.00000000000E+00 0. -1.
         23    2    1    2    0    0 -0.26539614093E+02 -0.44262337428E+01  0.32573554328E+02  0.10173381912E+03  0.92546155243E+02 0.  0.
         23    2    1    2    0    0  0.26539614093E+02  0.44262337428E+01  0.58378848161E+01  0.94728056081E+02  0.90638739226E+02 0.  0.
          5    1    4    4  502    0 -0.29201434010E+02  0.44212743317E+01  0.21271361074E+02  0.36699212756E+02  0.47000000000E+01 0. -1.
         -5    1    4    4    0  502  0.55741048104E+02  0.49594110142E-02 -0.15433476258E+02  0.58028843325E+02  0.47000000000E+01 0.  1.
          5    1    3    3  503    0 -0.45583609443E+02 -0.31279248630E+02  0.39059756488E+02  0.67852865979E+02  0.47000000000E+01 0. -1.
         -5    1    3    3    0  503  0.19043995350E+02  0.26853014887E+02 -0.64862021606E+01  0.33880953143E+02  0.47000000000E+01 0.  1.
<mgrwt>
<rscale>  0 0.95917262E+02</rscale>
<asrwt>0</asrwt>
<pdfrwt beam="1">  1        1 0.12157726E-01 0.96378076E+02</pdfrwt>
<pdfrwt beam="2">  1       -1 0.18067178E-01 0.96378076E+02</pdfrwt>
<totfact> 0.10669737E+04</totfact>
</mgrwt>
</event>
<event>
 8    1  0.1146612E-003  0.1207414E+03  0.7546771E-02  0.1251741E+00
          1   -1    0    0  501    0  0.00000000000E+00  0.00000000000E+00  0.61260942871E+02  0.61260942871E+02  0.00000000000E+00 0. -1.
         -1   -1    0    0    0  501 -0.00000000000E+00 -0.00000000000E+00 -0.35335006245E+03  0.35335006245E+03  0.00000000000E+00 0.  1.
         23    2    1    2    0    0  0.31783890178E+02  0.17041291010E+02 -0.53774403660E+00  0.99046907632E+02  0.92246297858E+02 0.  0.
         23    2    1    2    0    0 -0.31783890178E+02 -0.17041291010E+02 -0.29155137554E+03  0.31556409769E+03  0.11522965719E+03 0.  0.
          5    1    4    4  502    0  0.25825850840E+02 -0.22032209794E+02 -0.24109135180E+02  0.41901470609E+02  0.47000000000E+01 0. -1.
         -5    1    3    3    0  503 -0.29618874004E+02 -0.10890903313E+01  0.14172072077E+02  0.33187368711E+02  0.47000000000E+01 0.  1.
          5    1    3    3  503    0  0.61402764182E+02  0.18130381341E+02 -0.14709816113E+02  0.65859538921E+02  0.47000000000E+01 0. -1.
         -5    1    4    4    0  502 -0.57609741019E+02  0.49909187844E+01 -0.26744224036E+03  0.27366262708E+03  0.47000000000E+01 0.  1.
<mgrwt>
<rscale>  0 0.11490817E+03</rscale>
<asrwt>0</asrwt>
<pdfrwt beam="1">  1        1 0.94247604E-02 0.12074144E+03</pdfrwt>
<pdfrwt beam="2">  1       -1 0.54361548E-01 0.12074144E+03</pdfrwt>
<totfact> 0.23518994E+03</totfact>
</mgrwt>
</event>
<event>
 8    1  0.8438969E-004  0.1194807E+03  0.7546771E-02  0.1245106E+00
          2   -1    0    0  501    0  0.00000000000E+00  0.00000000000E+00  0.58382994718E+03  0.58382994718E+03  0.00000000000E+00 0. -1.
         -2   -1    0    0    0  501 -0.00000000000E+00 -0.00000000000E+00 -0.26273810768E+02  0.26273810768E+02  0.00000000000E+00 0.  1.
         23    2    1    2    0    0  0.53212178876E+02 -0.50065309712E+02  0.36762737855E+03  0.38571886927E+03  0.91055397630E+02 0.  0.
         23    2    1    2    0    0 -0.53212178876E+02  0.50065309712E+02  0.18992875786E+03  0.22438488867E+03  0.94538743302E+02 0.  0.
          5    1    3    3  502    0 -0.10894444733E+02 -0.20420895967E+02  0.22754978655E+03  0.22877215144E+03  0.47000000000E+01 0. -1.
         -5    1    4    4    0  503 -0.11371112411E+02  0.46634413116E+02  0.25380736892E+02  0.54500848519E+02  0.47000000000E+01 0.  1.
          5    1    4    4  503    0 -0.41841066465E+02  0.34308965956E+01  0.16454802097E+03  0.16988404015E+03  0.47000000000E+01 0. -1.
         -5    1    3    3    0  502  0.64106623609E+02 -0.29644413745E+02  0.14007759200E+03  0.15694671783E+03  0.47000000000E+01 0.  1.
<mgrwt>
<rscale>  0 0.11879059E+03</rscale>
<asrwt>0</asrwt>
<pdfrwt beam="1">  1        2 0.89819982E-01 0.11948073E+03</pdfrwt>
<pdfrwt beam="2">  1       -2 0.40421252E-02 0.11948073E+03</pdfrwt>
<totfact> 0.13256838E+04</totfact>
</mgrwt>
</event>
<event>
 8    1  0.8438969E-004  0.9642805E+02  0.7546771E-02  0.1288548E+00
          1   -1    0    0  501    0  0.00000000000E+00  0.00000000000E+00  0.17713790382E+03  0.17713790382E+03  0.00000000000E+00 0. -1.
         -1   -1    0    0    0  501 -0.00000000000E+00 -0.00000000000E+00 -0.56270577916E+02  0.56270577916E+02  0.00000000000E+00 0.  1.
         23    2    1    2    0    0  0.13969631325E+02 -0.27735536643E+02  0.92488450162E+02  0.13289117220E+03  0.90230480673E+02 0.  0.
         23    2    1    2    0    0 -0.13969631325E+02  0.27735536643E+02  0.28378875746E+02  0.10051730954E+03  0.91290516138E+02 0.  0.
          5    1    4    4  502    0 -0.33625555793E+02 -0.10667389695E+02  0.41984086037E+02  0.55038392833E+02  0.47000000000E+01 0. -1.
         -5    1    3    3    0  503 -0.55747375868E+01  0.31725834642E+02  0.28663899488E+02  0.43374133037E+02  0.47000000000E+01 0.  1.
          5    1    3    3  503    0  0.19544368912E+02 -0.59461371286E+02  0.63824550674E+02  0.89517039161E+02  0.47000000000E+01 0. -1.
         -5    1    4    4    0  502  0.19655924468E+02  0.38402926338E+02 -0.13605210290E+02  0.45478916709E+02  0.47000000000E+01 0.  1.
<mgrwt>
<rscale>  0 0.96176330E+02</rscale>
<asrwt>0</asrwt>
<pdfrwt beam="1">  1        1 0.27251985E-01 0.96428051E+02</pdfrwt>
<pdfrwt beam="2">  1       -1 0.86570121E-02 0.96428051E+02</pdfrwt>
<totfact> 0.11880270E+04</totfact>
</mgrwt>
</event>
<event>
 8    1  0.8438969E-004  0.9632575E+02  0.7546771E-02  0.1288956E+00
          2   -1    0    0  501    0  0.00000000000E+00  0.00000000000E+00  0.18993178332E+03  0.18993178332E+03  0.00000000000E+00 0. -1.
         -2   -1    0    0    0  501 -0.00000000000E+00 -0.00000000000E+00 -0.64983146171E+02  0.64983146171E+02  0.00000000000E+00 0.  1.
         23    2    1    2    0    0  0.84746585358E+01  0.28147973412E+02  0.12760093952E+03  0.15987698075E+03  0.91730698031E+02 0.  0.
         23    2    1    2    0    0 -0.84746585358E+01 -0.28147973412E+02 -0.26523023708E+01  0.95037948748E+02  0.90338523066E+02 0.  0.
          5    1    3    3  502    0 -0.37221551241E+02  0.26349661810E+02  0.39553398639E+02  0.60550061091E+02  0.47000000000E+01 0. -1.
         -5    1    4    4    0  503 -0.78358955103E+01 -0.59237365031E+02  0.10675590561E+02  0.60881236092E+02  0.47000000000E+01 0.  1.
          5    1    4    4  503    0 -0.63876302552E+00  0.31089391619E+02 -0.13327892932E+02  0.34156712656E+02  0.47000000000E+01 0. -1.
         -5    1    3    3    0  502  0.45696209777E+02  0.17983116026E+01  0.88047540885E+02  0.99326919656E+02  0.47000000000E+01 0.  1.
<mgrwt>
<rscale>  0 0.95992820E+02</rscale>
<asrwt>0</asrwt>
<pdfrwt beam="1">  1        2 0.29220274E-01 0.96325745E+02</pdfrwt>
<pdfrwt beam="2">  1       -2 0.99974072E-02 0.96325745E+02</pdfrwt>
<totfact> 0.10948681E+04</totfact>
</mgrwt>
</event>
<event>
 8    1  0.8438969E-004  0.9688797E+02  0.7546771E-02  0.1287515E+00
          1   -1    0    0  501    0  0.00000000000E+00  0.00000000000E+00  0.42858481476E+03  0.42858481476E+03  0.00000000000E+00 0. -1.
         -1   -1    0    0    0  501 -0.00000000000E+00 -0.00000000000E+00 -0.22040121377E+02  0.22040121377E+02  0.00000000000E+00 0.  1.
         23    2    1    2    0    0  0.31883336695E+02 -0.90217737174E+01  0.17563790097E+03  0.20058901015E+03  0.91045808105E+02 0.  0.
         23    2    1    2    0    0 -0.31883336695E+02  0.90217737174E+01  0.23090679241E+03  0.25003592599E+03  0.90011543399E+02 0.  0.
          5    1    4    4  502    0  0.92502218881E+01  0.20676137867E+02  0.18752652419E+03  0.18894802607E+03  0.47000000000E+01 0. -1.
         -5    1    3    3    0  503  0.62319413185E+02 -0.14815528458E+02  0.10169143474E+03  0.12027654402E+03  0.47000000000E+01 0.  1.
          5    1    3    3  503    0 -0.30436076489E+02  0.57937547410E+01  0.73946466239E+02  0.80312466126E+02  0.47000000000E+01 0. -1.
         -5    1    4    4    0  502 -0.41133558584E+02 -0.11654364150E+02  0.43380268218E+02  0.61087899916E+02  0.47000000000E+01 0.  1.
<mgrwt>
<rscale>  0 0.96644240E+02</rscale>
<asrwt>0</asrwt>
<pdfrwt beam="1">  1        1 0.65936119E-01 0.96887970E+02</pdfrwt>
<pdfrwt beam="2">  1       -1 0.33907882E-02 0.96887970E+02</pdfrwt>
<totfact> 0.15921862E+04</totfact>
</mgrwt>
</event>
<event>
 8    1  0.8438969E-004  0.2864945E+03  0.7546771E-02  0.1092212E+00
          2   -1    0    0  501    0  0.00000000000E+00  0.00000000000E+00  0.74348060984E+03  0.74348060984E+03  0.00000000000E+00 0. -1.
         -2   -1    0    0    0  501 -0.00000000000E+00 -0.00000000000E+00 -0.55093575468E+03  0.55093575468E+03  0.00000000000E+00 0.  1.
         23    2    1    2    0    0 -0.98681184487E+02  0.25280240863E+03 -0.48250988697E+03  0.56108288371E+03  0.91384776599E+02 0.  0.
         23    2    1    2    0    0  0.98681184487E+02 -0.25280240863E+03  0.67505474213E+03  0.73333348081E+03  0.91826222921E+02 0.  0.
          5    1    4    4  502    0  0.31879902038E+02 -0.18550179342E+03  0.39398419708E+03  0.43666105971E+03  0.47000000000E+01 0. -1.
         -5    1    4    4    0  502  0.66801282449E+02 -0.67300615206E+02  0.28107054505E+03  0.29667242110E+03  0.47000000000E+01 0.  1.
          5    1    3    3  503    0 -0.37210157178E+02  0.15178897571E+03 -0.19344336083E+03  0.24873060285E+03  0.47000000000E+01 0. -1.
         -5    1    3    3    0  503 -0.61471027310E+02  0.10101343292E+03 -0.28906652614E+03  0.31235228086E+03  0.47000000000E+01 0.  1.
<mgrwt>
<rscale>  0 0.28645918E+03</rscale>
<asrwt>0</asrwt>
<pdfrwt beam="1">  1        2 0.11438163E+00 0.28649448E+03</pdfrwt>
<pdfrwt beam="2">  1       -2 0.84759346E-01 0.28649448E+03</pdfrwt>
<totfact> 0.49281642E+01</totfact>
</mgrwt>
</event>
<event>
 8    1  0.8438969E-004  0.9835582E+02  0.7546771E-02  0.1284464E+00
         -2   -1    0    0    0  501 -0.00000000000E+00  0.00000000000E+00  0.27771355593E+02  0.27771355593E+02  0.00000000000E+00 0.  1.
          2   -1    0    0  501    0  0.00000000000E+00 -0.00000000000E+00 -0.42583265846E+03  0.42583265846E+03  0.00000000000E+00 0. -1.
         23    2    1    2    0    0  0.23626076072E+02  0.29254673157E+02 -0.10060327963E+03  0.14069430133E+03  0.90883657404E+02 0.  0.
         23    2    1    2    0    0 -0.23626076072E+02 -0.29254673157E+02 -0.29745802324E+03  0.31290971272E+03  0.89538736613E+02 0.  0.
          5    1    4    4  502    0 -0.19320605371E+02 -0.60262063200E+02 -0.16657636269E+03  0.17825424724E+03  0.47000000000E+01 0. -1.
         -5    1    4    4    0  502 -0.43054707014E+01  0.31007390043E+02 -0.13088166055E+03  0.13465546548E+03  0.47000000000E+01 0.  1.
          5    1    3    3  503    0 -0.16063217620E+02  0.16707593084E+02 -0.95629495059E+02  0.98510207350E+02  0.47000000000E+01 0. -1.
         -5    1    3    3    0  503  0.39689293692E+02  0.12547080073E+02 -0.49737845706E+01  0.42184093982E+02  0.47000000000E+01 0.  1.
<mgrwt>
<rscale>  0 0.98043990E+02</rscale>
<asrwt>0</asrwt>
<pdfrwt beam="1">  1        2 0.65512712E-01 0.98355816E+02</pdfrwt>
<pdfrwt beam="2">  1       -2 0.42725165E-02 0.98355816E+02</pdfrwt>
<totfact> 0.16940130E+04</totfact>
</mgrwt>
</event>
<event>
 8    1  0.8438969E-004  0.1424564E+03  0.7546771E-02  0.1210602E+00
          2   -1    0    0  501    0  0.00000000000E+00  0.00000000000E+00  0.12774522030E+04  0.12774522030E+04  0.00000000000E+00 0. -1.
         -2   -1    0    0    0  501 -0.00000000000E+00 -0.00000000000E+00 -0.16176664387E+02  0.16176664387E+02  0.00000000000E+00 0.  1.
         23    2    1    2    0    0 -0.92271488888E+02  0.54801289662E+02  0.74468411196E+03  0.75818748601E+03  0.93683660916E+02 0.  0.
         23    2    1    2    0    0  0.92271488888E+02 -0.54801289662E+02  0.51659142668E+03  0.53544138141E+03  0.91178735420E+02 0.  0.
          5    1    4    4  502    0  0.49405938261E+02  0.14861153456E+02  0.28773989753E+03  0.29236644686E+03  0.47000000000E+01 0. -1.
         -5    1    3    3    0  503 -0.40457867503E+02 -0.71209966335E+01  0.96610019997E+02  0.10508631500E+03  0.47000000000E+01 0.  1.
          5    1    3    3  503    0 -0.51813621385E+02  0.61922286295E+02  0.64807409196E+03  0.65310117101E+03  0.47000000000E+01 0. -1.
         -5    1    4    4    0  502  0.42865550627E+02 -0.69662443118E+02  0.22885152916E+03  0.24307493455E+03  0.47000000000E+01 0.  1.
<mgrwt>
<rscale>  0 0.14204600E+03</rscale>
<asrwt>0</asrwt>
<pdfrwt beam="1">  1        2 0.19653103E+00 0.14245644E+03</pdfrwt>
<pdfrwt beam="2">  1       -2 0.24887186E-02 0.14245644E+03</pdfrwt>
<totfact> 0.98333313E+03</totfact>
</mgrwt>
</event>
<event>
 8    1  0.8438969E-004  0.9347813E+02  0.7546771E-02  0.1295294E+00
         -2   -1    0    0    0  501 -0.00000000000E+00  0.00000000000E+00  0.11424680376E+03  0.11424680376E+03  0.00000000000E+00 0.  1.
          2   -1    0    0  501    0  0.00000000000E+00 -0.00000000000E+00 -0.75664295022E+02  0.75664295022E+02  0.00000000000E+00 0. -1.
         23    2    1    2    0    0 -0.13752768626E+02 -0.12036360405E+02  0.15977055876E+02  0.94833682315E+02  0.91674142321E+02 0.  0.
         23    2    1    2    0    0  0.13752768626E+02  0.12036360405E+02  0.22605452864E+02  0.95077416470E+02  0.90524560240E+02 0.  0.
          5    1    3    3  502    0 -0.20617470290E+02 -0.37360243801E+02  0.40202125268E+02  0.58814698623E+02  0.47000000000E+01 0. -1.
         -5    1    3    3    0  502  0.68647016642E+01  0.25323883396E+02 -0.24225069392E+02  0.36018983692E+02  0.47000000000E+01 0.  1.
          5    1    4    4  503    0  0.99111192301E+01 -0.39224204040E+02  0.10362189622E+02  0.42026580170E+02  0.47000000000E+01 0. -1.
         -5    1    4    4    0  503  0.38416493962E+01  0.51260564445E+02  0.12243263242E+02  0.53050836300E+02  0.47000000000E+01 0.  1.
<mgrwt>
<rscale>  0 0.93195067E+02</rscale>
<asrwt>0</asrwt>
<pdfrwt beam="1">  1        2 0.11640661E-01 0.93478131E+02</pdfrwt>
<pdfrwt beam="2">  1       -2 0.17576431E-01 0.93478131E+02</pdfrwt>
<totfact> 0.12532135E+04</totfact>
</mgrwt>
</event>
<event>
 8    1  0.8438969E-004  0.1563025E+03  0.7546771E-02  0.1193258E+00
         -1   -1    0    0    0  501 -0.00000000000E+00  0.00000000000E+00  0.22487096722E+03  0.22487096722E+03  0.00000000000E+00 0.  1.
          1   -1    0    0  501    0  0.00000000000E+00 -0.00000000000E+00 -0.30615760673E+03  0.30615760673E+03  0.00000000000E+00 0. -1.
         23    2    1    2    0    0  0.11282561152E+03 -0.54159576047E+02  0.17298174386E+03  0.23313765681E+03  0.93635490179E+02 0.  0.
         23    2    1    2    0    0 -0.11282561152E+03  0.54159576047E+02 -0.25426838337E+03  0.29789091713E+03  0.91780768325E+02 0.  0.
          5    1    3    3  502    0  0.23851279638E+02 -0.22617585743E+02 -0.30419144730E+01  0.33343394681E+02  0.47000000000E+01 0. -1.
         -5    1    3    3    0  502  0.88974331885E+02 -0.31541990304E+02  0.17602365834E+03  0.19979426213E+03  0.47000000000E+01 0.  1.
          5    1    4    4  503    0 -0.51493682405E+02  0.72802172943E+02 -0.12618448214E+03  0.15458450520E+03  0.47000000000E+01 0. -1.
         -5    1    4    4    0  503 -0.61331929118E+02 -0.18642596895E+02 -0.12808390123E+03  0.14330641194E+03  0.47000000000E+01 0.  1.
<mgrwt>
<rscale>  0 0.15602580E+03</rscale>
<asrwt>0</asrwt>
<pdfrwt beam="1">  1        1 0.47101170E-01 0.15630254E+03</pdfrwt>
<pdfrwt beam="2">  1       -1 0.34595534E-01 0.15630254E+03</pdfrwt>
<totfact> 0.68319052E+02</totfact>
</mgrwt>
</event>
<event>
 8    1  0.8438969E-004  0.9678315E+02  0.7546771E-02  0.1289937E+00
          1   -1    0    0  501    0  0.00000000000E+00  0.00000000000E+00  0.11584110943E+03  0.11584110943E+03  0.00000000000E+00 0. -1.
         -1   -1    0    0    0  501 -0.00000000000E+00 -0.00000000000E+00 -0.83499652430E+02  0.83499652430E+02  0.00000000000E+00 0.  1.
         23    2    1    2    0    0  0.24407611413E+02 -0.10979956244E+02  0.43855095344E+02  0.10187516627E+03  0.87971524829E+02 0.  0.
         23    2    1    2    0    0 -0.24407611413E+02  0.10979956244E+02 -0.11513638343E+02  0.97465595592E+02  0.93009072258E+02 0.  0.
          5    1    3    3  502    0 -0.41462092626E+01  0.35611995514E+02  0.24652843462E+02  0.43763660342E+02  0.47000000000E+01 0. -1.
         -5    1    4    4    0  503 -0.45354421305E+02 -0.23502471572E+02  0.88050453474E+01  0.52048136619E+02  0.47000000000E+01 0.  1.
          5    1    4    4  503    0  0.20946809892E+02  0.34482427815E+02 -0.20318683690E+02  0.45417458973E+02  0.47000000000E+01 0. -1.
         -5    1    3    3    0  502  0.28553820675E+02 -0.46591951758E+02  0.19202251882E+02  0.58111505927E+02  0.47000000000E+01 0.  1.
<mgrwt>
<rscale>  0 0.95552229E+02</rscale>
<asrwt>0</asrwt>
<pdfrwt beam="1">  1        1 0.17821709E-01 0.96783152E+02</pdfrwt>
<pdfrwt beam="2">  1       -1 0.12846100E-01 0.96783152E+02</pdfrwt>
<totfact> 0.11108296E+04</totfact>
</mgrwt>
</event>
<event>
 8    1  0.8438969E-004  0.1167547E+03  0.7546771E-02  0.1249344E+00
          1   -1    0    0  501    0  0.00000000000E+00  0.00000000000E+00  0.54342555638E+03  0.54342555638E+03  0.00000000000E+00 0. -1.
         -1   -1    0    0    0  501 -0.00000000000E+00 -0.00000000000E+00 -0.25492575006E+02  0.25492575006E+02  0.00000000000E+00 0.  1.
         23    2    1    2    0    0  0.21045237251E+02  0.64298765883E+02  0.31142721892E+03  0.33259370895E+03  0.95154764677E+02 0.  0.
         23    2    1    2    0    0 -0.21045237251E+02 -0.64298765883E+02  0.20650576245E+03  0.23632442244E+03  0.92883633702E+02 0.  0.
          5    1    4    4  502    0 -0.46689998296E-01 -0.67232899021E+02  0.20353680162E+03  0.21440518768E+03  0.47000000000E+01 0. -1.
         -5    1    3    3    0  503  0.67030656815E+01  0.78648994607E+02  0.14758870263E+03  0.16743688538E+03  0.47000000000E+01 0.  1.
          5    1    3    3  503    0  0.14342171569E+02 -0.14350228723E+02  0.16383851629E+03  0.16515682356E+03  0.47000000000E+01 0. -1.
         -5    1    4    4    0  502 -0.20998547253E+02  0.29341331371E+01  0.29689608336E+01  0.21919234759E+02  0.47000000000E+01 0.  1.
<mgrwt>
<rscale>  0 0.11629110E+03</rscale>
<asrwt>0</asrwt>
<pdfrwt beam="1">  1        1 0.83603923E-01 0.11675471E+03</pdfrwt>
<pdfrwt beam="2">  1       -1 0.39219350E-02 0.11675471E+03</pdfrwt>
<totfact> 0.96447483E+03</totfact>
</mgrwt>
</event>
<event>
 8    1  0.8438969E-004  0.2958460E+03  0.7546771E-02  0.1087414E+00
         -2   -1    0    0    0  501 -0.00000000000E+00  0.00000000000E+00  0.98758543788E+02  0.98758543788E+02  0.00000000000E+00 0.  1.
          2   -1    0    0  501    0  0.00000000000E+00 -0.00000000000E+00 -0.89051447317E+03  0.89051447317E+03  0.00000000000E+00 0. -1.
         23    2    1    2    0    0  0.36510480912E+02 -0.27835081782E+03 -0.43639263490E+03  0.52687931339E+03  0.91384277069E+02 0.  0.
         23    2    1    2    0    0 -0.36510480912E+02  0.27835081782E+03 -0.35536329448E+03  0.46239370356E+03  0.93341700380E+02 0.  0.
          5    1    3    3  502    0 -0.17753663946E+02 -0.37022980473E+02 -0.29861721164E+02  0.50987312711E+02  0.47000000000E+01 0. -1.
         -5    1    4    4    0  503 -0.37747305268E+02  0.64082515472E+02 -0.13976852160E+03  0.15839431011E+03  0.47000000000E+01 0.  1.
          5    1    4    4  503    0  0.12368243563E+01  0.21426830235E+03 -0.21559477288E+03  0.30399939345E+03  0.47000000000E+01 0. -1.
         -5    1    3    3    0  502  0.54264144858E+02 -0.24132783734E+03 -0.40653091373E+03  0.47589200068E+03  0.47000000000E+01 0.  1.
<mgrwt>
<rscale>  0 0.29569296E+03</rscale>
<asrwt>0</asrwt>
<pdfrwt beam="1">  1        2 0.13700222E+00 0.29584602E+03</pdfrwt>
<pdfrwt beam="2">  1       -2 0.15193622E-01 0.29584602E+03</pdfrwt>
<totfact> 0.10338107E+03</totfact>
</mgrwt>
</event>
<event>
 8    1  0.8438969E-004  0.1153984E+03  0.7546771E-02  0.1251058E+00
          4   -1    0    0  501    0  0.00000000000E+00  0.00000000000E+00  0.35581487876E+02  0.35581487876E+02  0.00000000000E+00 0.  1.
         -4   -1    0    0    0  501 -0.00000000000E+00 -0.00000000000E+00 -0.37309856081E+03  0.37309856081E+03  0.00000000000E+00 0. -1.
         23    2    1    2    0    0 -0.67260799705E+02  0.67142401145E+01 -0.16501483835E+03  0.20113776106E+03  0.93045181764E+02 0.  0.
         23    2    1    2    0    0  0.67260799705E+02 -0.67142401145E+01 -0.17250223459E+03  0.20754228763E+03  0.93529054424E+02 0.  0.
          5    1    4    4  502    0  0.50640439585E+02  0.22601600333E+02 -0.16296368091E+03  0.17220492953E+03  0.47000000000E+01 0. -1.
         -5    1    4    4    0  502  0.16620360119E+02 -0.29315840447E+02 -0.95385536808E+01  0.35337358107E+02  0.47000000000E+01 0.  1.
          5    1    3    3  503    0 -0.43823456944E+01 -0.36827316313E+02 -0.42183247811E+02  0.56364639416E+02  0.47000000000E+01 0. -1.
         -5    1    3    3    0  503 -0.62878454010E+02  0.43541556428E+02 -0.12283159054E+03  0.14477312164E+03  0.47000000000E+01 0.  1.
<mgrwt>
<rscale>  0 0.11530027E+03</rscale>
<asrwt>0</asrwt>
<pdfrwt beam="1">  1        4 0.54740748E-02 0.11539835E+03</pdfrwt>
<pdfrwt beam="2">  1       -4 0.57399781E-01 0.11539835E+03</pdfrwt>
<totfact> 0.95842469E+02</totfact>
</mgrwt>
</event>
<event>
 8    1  0.8438969E-004  0.9101764E+02  0.7546771E-02  0.1301274E+00
          2   -1    0    0  501    0  0.00000000000E+00  0.00000000000E+00  0.99110688843E+02  0.99110688843E+02  0.00000000000E+00 0. -1.
         -2   -1    0    0    0  501 -0.00000000000E+00 -0.00000000000E+00 -0.12567308491E+03  0.12567308491E+03  0.00000000000E+00 0.  1.
         23    2    1    2    0    0  0.12651078254E+01  0.51808033168E+01 -0.79263612495E+02  0.11960949277E+03  0.89416269629E+02 0.  0.
         23    2    1    2    0    0 -0.12651078254E+01 -0.51808033168E+01  0.52701216424E+02  0.10517428099E+03  0.90861267586E+02 0.  0.
          5    1    4    4  502    0 -0.45468411313E+02 -0.26314357232E+01  0.33248286401E+02  0.56584798576E+02  0.47000000000E+01 0. -1.
         -5    1    4    4    0  502  0.44203303487E+02 -0.25493675936E+01  0.19452930023E+02  0.48589482409E+02  0.47000000000E+01 0.  1.
          5    1    3    3  503    0 -0.12975513026E+02  0.44913152433E+02 -0.44736644553E+02  0.64876903176E+02  0.47000000000E+01 0. -1.
         -5    1    3    3    0  503  0.14240620852E+02 -0.39732349116E+02 -0.34526967942E+02  0.54732589595E+02  0.47000000000E+01 0.  1.
<mgrwt>
<rscale>  0 0.90654860E+02</rscale>
<asrwt>0</asrwt>
<pdfrwt beam="1">  1        2 0.15247798E-01 0.91017642E+02</pdfrwt>
<pdfrwt beam="2">  1       -2 0.19334321E-01 0.91017642E+02</pdfrwt>
<totfact> 0.77754411E+03</totfact>
</mgrwt>
</event>
<event>
 8    1  0.8438969E-004  0.2042405E+03  0.7546771E-02  0.1150877E+00
          2   -1    0    0  501    0  0.00000000000E+00  0.00000000000E+00  0.73491144828E+03  0.73491144828E+03  0.00000000000E+00 0. -1.
         -2   -1    0    0    0  501 -0.00000000000E+00 -0.00000000000E+00 -0.52498545551E+02  0.52498545551E+02  0.00000000000E+00 0.  1.
         23    2    1    2    0    0 -0.61356615380E+02 -0.14807168819E+03  0.39015790078E+03  0.43086104956E+03  0.87910166577E+02 0.  0.
         23    2    1    2    0    0  0.61356615380E+02  0.14807168819E+03  0.29225500195E+03  0.35654894428E+03  0.12658714156E+03 0.  0.
          5    1    4    4  502    0 -0.12945556395E+02  0.62620876900E+02  0.20119442749E+03  0.21116403412E+03  0.47000000000E+01 0. -1.
         -5    1    4    4    0  502  0.74302171775E+02  0.85450811287E+02  0.91060574462E+02  0.14538491016E+03  0.47000000000E+01 0.  1.
          5    1    3    3  503    0 -0.15162166914E+02 -0.13114736967E+03  0.30539565900E+03  0.33274332813E+03  0.47000000000E+01 0. -1.
         -5    1    3    3    0  503 -0.46194448466E+02 -0.16924318517E+02  0.84762241781E+02  0.98117721427E+02  0.47000000000E+01 0.  1.
<mgrwt>
<rscale>  0 0.19865705E+03</rscale>
<asrwt>0</asrwt>
<pdfrwt beam="1">  1        2 0.11306329E+00 0.20424046E+03</pdfrwt>
<pdfrwt beam="2">  1       -2 0.80766998E-02 0.20424046E+03</pdfrwt>
<totfact> 0.36392437E+03</totfact>
</mgrwt>
</event>
<event>
 8    1  0.8438969E-004  0.1447818E+03  0.7546771E-02  0.1208362E+00
          1   -1    0    0  501    0  0.00000000000E+00  0.00000000000E+00  0.39675877268E+03  0.39675877268E+03  0.00000000000E+00 0. -1.
         -1   -1    0    0    0  501 -0.00000000000E+00 -0.00000000000E+00 -0.55534822216E+02  0.55534822216E+02  0.00000000000E+00 0.  1.
         23    2    1    2    0    0  0.43768175233E+02  0.10097579653E+03  0.23035258803E+03  0.26993620861E+03  0.87701067591E+02 0.  0.
         23    2    1    2    0    0 -0.43768175233E+02 -0.10097579653E+03  0.11087136243E+03  0.18235738629E+03  0.94074399697E+02 0.  0.
          5    1    4    4  502    0 -0.11645979647E+02 -0.66747004719E+02  0.11649485745E+03  0.13484781531E+03  0.47000000000E+01 0. -1.
         -5    1    4    4    0  502 -0.32122195585E+02 -0.34228791810E+02 -0.56234950240E+01  0.47509570975E+02  0.47000000000E+01 0.  1.
          5    1    3    3  503    0 -0.15313776503E+02  0.38238188211E+02  0.28225403044E+02  0.50154104174E+02  0.47000000000E+01 0. -1.
         -5    1    3    3    0  503  0.59081951736E+02  0.62737608318E+02  0.20212718499E+03  0.21978210444E+03  0.47000000000E+01 0.  1.
<mgrwt>
<rscale>  0 0.14375648E+03</rscale>
<asrwt>0</asrwt>
<pdfrwt beam="1">  1        1 0.61039809E-01 0.14478176E+03</pdfrwt>
<pdfrwt beam="2">  1       -1 0.85438191E-02 0.14478176E+03</pdfrwt>
<totfact> 0.46037001E+03</totfact>
</mgrwt>
</event>
<event>
 8    1  0.8438969E-004  0.1014575E+03  0.7546771E-02  0.1277610E+00
          1   -1    0    0  501    0  0.00000000000E+00  0.00000000000E+00  0.18212911082E+02  0.18212911082E+02  0.00000000000E+00 0. -1.
         -1   -1    0    0    0  501 -0.00000000000E+00 -0.00000000000E+00 -0.57891053704E+03  0.57891053704E+03  0.00000000000E+00 0.  1.
         23    2    1    2    0    0  0.20957747211E+02 -0.37603057696E+02 -0.22756239838E+03  0.24888113008E+03  0.91126037083E+02 0.  0.
         23    2    1    2    0    0 -0.20957747211E+02  0.37603057696E+02 -0.33313522757E+03  0.34824231804E+03  0.91871731833E+02 0.  0.
          5    1    4    4  502    0 -0.50875214513E+02  0.46785601635E+02 -0.21144038220E+03  0.22250012404E+03  0.47000000000E+01 0. -1.
         -5    1    4    4    0  502  0.29917467302E+02 -0.91825439393E+01 -0.12169484537E+03  0.12574219401E+03  0.47000000000E+01 0.  1.
          5    1    3    3  503    0 -0.11580532260E+02 -0.59801465971E+02 -0.13550033716E+03  0.14863631935E+03  0.47000000000E+01 0. -1.
         -5    1    3    3    0  503  0.32538279471E+02  0.22198408276E+02 -0.92062061226E+02  0.10024481073E+03  0.47000000000E+01 0.  1.
<mgrwt>
<rscale>  0 0.10128843E+03</rscale>
<asrwt>0</asrwt>
<pdfrwt beam="1">  1        1 0.28019868E-02 0.10145754E+03</pdfrwt>
<pdfrwt beam="2">  1       -1 0.89063143E-01 0.10145754E+03</pdfrwt>
<totfact> 0.45619187E+03</totfact>
</mgrwt>
</event>
<event>
 8    1  0.8438969E-004  0.9829677E+02  0.7546771E-02  0.1284107E+00
         -1   -1    0    0    0  501 -0.00000000000E+00  0.00000000000E+00  0.14825412747E+03  0.14825412747E+03  0.00000000000E+00 0.  1.
          1   -1    0    0  501    0  0.00000000000E+00 -0.00000000000E+00 -0.77695450132E+02  0.77695450132E+02  0.00000000000E+00 0. -1.
         23    2    1    2    0    0 -0.21887951460E+02  0.30130083511E+02 -0.10543843276E+02  0.98513816412E+02  0.90591914879E+02 0.  0.
         23    2    1    2    0    0  0.21887951460E+02 -0.30130083511E+02  0.81102520618E+02  0.12743576119E+03  0.90968950907E+02 0.  0.
          5    1    3    3  502    0 -0.36340246288E+02  0.56453018183E+02 -0.39936193142E+01  0.67421033495E+02  0.47000000000E+01 0. -1.
         -5    1    3    3    0  502  0.14452294828E+02 -0.26322934673E+02 -0.65502239613E+01  0.31092782917E+02  0.47000000000E+01 0.  1.
          5    1    4    4  503    0 -0.28860362592E+01  0.26069209527E+02  0.13702996837E+01  0.26681465700E+02  0.47000000000E+01 0. -1.
         -5    1    4    4    0  503  0.24773987720E+02 -0.56199293038E+02  0.79732220934E+02  0.10075429549E+03  0.47000000000E+01 0.  1.
<mgrwt>
<rscale>  0 0.98209444E+02</rscale>
<asrwt>0</asrwt>
<pdfrwt beam="1">  1        1 0.11953146E-01 0.98296767E+02</pdfrwt>
<pdfrwt beam="2">  1       -1 0.22808327E-01 0.98296767E+02</pdfrwt>
<totfact> 0.75365328E+03</totfact>
</mgrwt>
</event>
<event>
 8    1  0.8438969E-004  0.1269390E+03  0.7546771E-02  0.1235341E+00
          3   -1    0    0  501    0  0.00000000000E+00  0.00000000000E+00  0.41447781014E+03  0.41447781014E+03  0.00000000000E+00 0. -1.
         -3   -1    0    0    0  501 -0.00000000000E+00 -0.00000000000E+00 -0.40217910695E+02  0.40217910695E+02  0.00000000000E+00 0.  1.
         23    2    1    2    0    0  0.85928453675E+01  0.84387607930E+02  0.11137325519E+03  0.16276612727E+03  0.83028337644E+02 0.  0.
         23    2    1    2    0    0 -0.85928453675E+01 -0.84387607930E+02  0.26288664426E+03  0.29192959356E+03  0.94437251686E+02 0.  0.
          5    1    3    3  502    0  0.31157798431E+02  0.34476747525E+02  0.94244539505E+02  0.10518354315E+03  0.47000000000E+01 0. -1.
         -5    1    3    3    0  502 -0.22564953063E+02  0.49910860405E+02  0.17128715681E+02  0.57582584121E+02  0.47000000000E+01 0.  1.
          5    1    4    4  503    0 -0.41423654732E+02 -0.74247858143E+02  0.13659446060E+03  0.16096210820E+03  0.47000000000E+01 0. -1.
         -5    1    4    4    0  503  0.32830809365E+02 -0.10139749788E+02  0.12629218366E+03  0.13096748536E+03  0.47000000000E+01 0.  1.
<mgrwt>
<rscale>  0 0.12482613E+03</rscale>
<asrwt>0</asrwt>
<pdfrwt beam="1">  1        3 0.63765814E-01 0.12693896E+03</pdfrwt>
<pdfrwt beam="2">  1       -3 0.61873712E-02 0.12693896E+03</pdfrwt>
<totfact> 0.89774582E+02</totfact>
</mgrwt>
</event>
<event>
 8    1  0.8438969E-004  0.1059538E+03  0.7546771E-02  0.1272998E+00
          2   -1    0    0  501    0  0.00000000000E+00  0.00000000000E+00  0.32949252241E+03  0.32949252241E+03  0.00000000000E+00 0. -1.
         -2   -1    0    0    0  501 -0.00000000000E+00 -0.00000000000E+00 -0.33255844488E+02  0.33255844488E+02  0.00000000000E+00 0.  1.
         23    2    1    2    0    0  0.28623818429E+02 -0.18316291816E+01  0.10889595870E+03  0.15193596468E+03  0.10199769456E+03 0.  0.
         23    2    1    2    0    0 -0.28623818429E+02  0.18316291816E+01  0.18734071922E+03  0.21081240222E+03  0.92318178074E+02 0.  0.
          5    1    4    4  502    0  0.22791867544E+02 -0.27623110201E+02  0.86795447343E+02  0.94010877683E+02  0.47000000000E+01 0. -1.
         -5    1    3    3    0  503  0.33628258163E+02  0.44653229754E+02  0.41511526609E+02  0.69785869028E+02  0.47000000000E+01 0.  1.
          5    1    3    3  503    0 -0.50044397344E+01 -0.46484858936E+02  0.67384432090E+02  0.82150095651E+02  0.47000000000E+01 0. -1.
         -5    1    4    4    0  502 -0.51415685973E+02  0.29454739383E+02  0.10054527188E+03  0.11680152453E+03  0.47000000000E+01 0.  1.
<mgrwt>
<rscale>  0 0.10355276E+03</rscale>
<asrwt>0</asrwt>
<pdfrwt beam="1">  1        2 0.50691155E-01 0.10595380E+03</pdfrwt>
<pdfrwt beam="2">  1       -2 0.51162840E-02 0.10595380E+03</pdfrwt>
<totfact> 0.17108389E+04</totfact>
</mgrwt>
</event>
<event>
 8    1  0.8438969E-004  0.1212248E+03  0.7546771E-02  0.1244668E+00
         -1   -1    0    0    0  501 -0.00000000000E+00  0.00000000000E+00  0.90355595368E+02  0.90355595368E+02  0.00000000000E+00 0.  1.
          1   -1    0    0  501    0  0.00000000000E+00 -0.00000000000E+00 -0.15225661470E+03  0.15225661470E+03  0.00000000000E+00 0. -1.
         23    2    1    2    0    0 -0.44480309853E+02 -0.49673027156E+02 -0.40663855778E+02  0.12786318834E+03  0.10124000283E+03 0.  0.
         23    2    1    2    0    0  0.44480309853E+02  0.49673027156E+02 -0.21237163555E+02  0.11474902173E+03  0.90941812611E+02 0.  0.
          5    1    4    4  502    0  0.35860910996E+02  0.70280270230E+02  0.59330424517E+01  0.79262931524E+02  0.47000000000E+01 0. -1.
         -5    1    3    3    0  503 -0.17772706984E+02 -0.62315916673E+02  0.13152210256E+02  0.66288861953E+02  0.47000000000E+01 0.  1.
          5    1    3    3  503    0 -0.26707602869E+02  0.12642889518E+02 -0.53816066034E+02  0.61574326385E+02  0.47000000000E+01 0. -1.
         -5    1    4    4    0  502  0.86193988574E+01 -0.20607243074E+02 -0.27170206007E+02  0.35486090207E+02  0.47000000000E+01 0.  1.
<mgrwt>
<rscale>  0 0.11905256E+03</rscale>
<asrwt>0</asrwt>
<pdfrwt beam="1">  1        1 0.23424094E-01 0.12122477E+03</pdfrwt>
<pdfrwt beam="2">  1       -1 0.13900861E-01 0.12122477E+03</pdfrwt>
<totfact> 0.70989411E+03</totfact>
</mgrwt>
</event>
<event>
 8    1  0.8438969E-004  0.1018507E+03  0.7546771E-02  0.1282751E+00
         -2   -1    0    0    0  501 -0.00000000000E+00  0.00000000000E+00  0.28113107109E+02  0.28113107109E+02  0.00000000000E+00 0.  1.
          2   -1    0    0  501    0  0.00000000000E+00 -0.00000000000E+00 -0.47775759364E+03  0.47775759364E+03  0.00000000000E+00 0. -1.
         23    2    1    2    0    0 -0.15424983689E+02  0.28886667273E+01 -0.74342025909E+02  0.11699346573E+03  0.88963249097E+02 0.  0.
         23    2    1    2    0    0  0.15424983689E+02 -0.28886667273E+01 -0.37530246062E+03  0.38887723502E+03  0.10063444962E+03 0.  0.
          5    1    3    3  502    0  0.14612146971E+02 -0.24707470250E+02 -0.69880530112E+02  0.75692485849E+02  0.47000000000E+01 0. -1.
         -5    1    4    4    0  503 -0.25040308230E+02 -0.17434240975E+02 -0.38691859114E+02  0.49498684389E+02  0.47000000000E+01 0.  1.
          5    1    4    4  503    0  0.40465291919E+02  0.14545574247E+02 -0.33661060151E+03  0.33937855063E+03  0.47000000000E+01 0. -1.
         -5    1    3    3    0  502 -0.30037130659E+02  0.27596136977E+02 -0.44614957963E+01  0.41300979880E+02  0.47000000000E+01 0.  1.
<mgrwt>
<rscale>  0 0.98841470E+02</rscale>
<asrwt>0</asrwt>
<pdfrwt beam="1">  1        2 0.73501166E-01 0.10185071E+03</pdfrwt>
<pdfrwt beam="2">  1       -2 0.43250935E-02 0.10185071E+03</pdfrwt>
<totfact> 0.14756603E+04</totfact>
</mgrwt>
</event>
<event>
 8    1  0.8438969E-004  0.9400673E+02  0.7546771E-02  0.1293796E+00
          1   -1    0    0  501    0  0.00000000000E+00  0.00000000000E+00  0.11787448925E+03  0.11787448925E+03  0.00000000000E+00 0. -1.
         -1   -1    0    0    0  501 -0.00000000000E+00 -0.00000000000E+00 -0.82707165418E+02  0.82707165418E+02  0.00000000000E+00 0.  1.
         23    2    1    2    0    0  0.14174322991E+02  0.79395990483E+01  0.49304154961E+02  0.10615161081E+03  0.92592203322E+02 0.  0.
         23    2    1    2    0    0 -0.14174322991E+02 -0.79395990483E+01 -0.14136831133E+02  0.94430043854E+02  0.91941473354E+02 0.  0.
          5    1    3    3  502    0 -0.24587800314E+02  0.37449939947E+02  0.22612817049E+02  0.50403248121E+02  0.47000000000E+01 0. -1.
         -5    1    3    3    0  502  0.38762123304E+02 -0.29510340898E+02  0.26691337912E+02  0.55748362689E+02  0.47000000000E+01 0.  1.
          5    1    4    4  503    0 -0.39075515046E+02  0.25703593528E+02  0.66253590024E+01  0.47471633406E+02  0.47000000000E+01 0. -1.
         -5    1    4    4    0  503  0.24901192055E+02 -0.33643192577E+02 -0.20762190135E+02  0.46958410447E+02  0.47000000000E+01 0.  1.
<mgrwt>
<rscale>  0 0.93846098E+02</rscale>
<asrwt>0</asrwt>
<pdfrwt beam="1">  1        1 0.18134537E-01 0.94006727E+02</pdfrwt>
<pdfrwt beam="2">  1       -1 0.12724179E-01 0.94006727E+02</pdfrwt>
<totfact> 0.10996598E+04</totfact>
</mgrwt>
</event>
<event>
 8    1  0.8438969E-004  0.1333091E+03  0.7546771E-02  0.1224220E+00
         -1   -1    0    0    0  501 -0.00000000000E+00  0.00000000000E+00  0.56127279481E+02  0.56127279481E+02  0.00000000000E+00 0.  1.
          1   -1    0    0  501    0  0.00000000000E+00 -0.00000000000E+00 -0.34319948524E+03  0.34319948524E+03  0.00000000000E+00 0. -1.
         23    2    1    2    0    0  0.85035500121E+02  0.47913678713E+02 -0.75988777707E+02  0.14967192341E+03  0.84265256376E+02 0.  0.
         23    2    1    2    0    0 -0.85035500121E+02 -0.47913678713E+02 -0.21108342805E+03  0.24965484131E+03  0.90799610691E+02 0.  0.
          5    1    3    3  502    0  0.39895931918E+02 -0.11209153082E+02  0.20527727589E+01  0.41756848210E+02  0.47000000000E+01 0. -1.
         -5    1    3    3    0  502  0.45139568203E+02  0.59122831795E+02 -0.78041550465E+02  0.10791507520E+03  0.47000000000E+01 0. -1.
          5    1    4    4  503    0 -0.53141614882E+02  0.56211951001E+01 -0.16058891727E+03  0.16931189980E+03  0.47000000000E+01 0. -1.
         -5    1    4    4    0  503 -0.31893885239E+02 -0.53534873814E+02 -0.50494510783E+02  0.80342941501E+02  0.47000000000E+01 0.  1.
<mgrwt>
<rscale>  0 0.13220502E+03</rscale>
<asrwt>0</asrwt>
<pdfrwt beam="1">  1        1 0.52799922E-01 0.13330914E+03</pdfrwt>
<pdfrwt beam="2">  1       -1 0.86349659E-02 0.13330914E+03</pdfrwt>
<totfact> 0.54088430E+03</totfact>
</mgrwt>
</event>
<event>
 8    1  0.8438969E-004  0.1123234E+03  0.7546771E-02  0.1256479E+00
          4   -1    0    0  501    0  0.00000000000E+00  0.00000000000E+00  0.12814969456E+03  0.12814969456E+03  0.00000000000E+00 0. -1.
         -4   -1    0    0    0  501 -0.00000000000E+00 -0.00000000000E+00 -0.21696141097E+03  0.21696141097E+03  0.00000000000E+00 0.  1.
         23    2    1    2    0    0  0.27221055411E+02  0.59264852158E+02 -0.17206508242E+03  0.20529812081E+03  0.91036351323E+02 0.  0.
         23    2    1    2    0    0 -0.27221055411E+02 -0.59264852158E+02  0.83253366007E+02  0.13981298471E+03  0.91450747308E+02 0.  0.
          5    1    4    4  502    0  0.17370825380E+02 -0.64690549490E+02  0.50712504723E+02  0.84145474643E+02  0.47000000000E+01 0. -1.
         -5    1    3    3    0  503 -0.17009412241E+02  0.47818190340E+02 -0.14078904821E+03  0.14973157826E+03  0.47000000000E+01 0.  1.
          5    1    3    3  503    0  0.44230467653E+02  0.11446661818E+02 -0.31276034211E+02  0.55566542555E+02  0.47000000000E+01 0. -1.
         -5    1    4    4    0  502 -0.44591880791E+02  0.54256973321E+01  0.32540861284E+02  0.55667510067E+02  0.47000000000E+01 0.  1.
<mgrwt>
<rscale>  0 0.11223903E+03</rscale>
<asrwt>0</asrwt>
<pdfrwt beam="1">  1        4 0.19715338E-01 0.11232341E+03</pdfrwt>
<pdfrwt beam="2">  1       -4 0.33378678E-01 0.11232341E+03</pdfrwt>
<totfact> 0.32178597E+02</totfact>
</mgrwt>
</event>
<event>
 8    1  0.8438969E-004  0.1097852E+03  0.7546771E-02  0.1261080E+00
         -1   -1    0    0    0  501 -0.00000000000E+00  0.00000000000E+00  0.22145562386E+02  0.22145562386E+02  0.00000000000E+00 0.  1.
          1   -1    0    0  501    0  0.00000000000E+00 -0.00000000000E+00 -0.60621424734E+03  0.60621424734E+03  0.00000000000E+00 0. -1.
         23    2    1    2    0    0 -0.39655717730E+02 -0.45121435584E+02 -0.19034229090E+03  0.21961383716E+03  0.91605293890E+02 0.  0.
         23    2    1    2    0    0  0.39655717730E+02  0.45121435584E+02 -0.39372639405E+03  0.40874597257E+03  0.91892746269E+02 0.  0.
          5    1    3    3  502    0 -0.36289384069E+02  0.21649733220E+02 -0.72720870834E+02  0.84238028226E+02  0.47000000000E+01 0. -1.
         -5    1    4    4    0  503  0.39330807731E+01 -0.24265317413E+02 -0.16820233037E+03  0.17005407580E+03  0.47000000000E+01 0.  1.
          5    1    4    4  503    0  0.35722636957E+02  0.69386752997E+02 -0.22552406368E+03  0.23869189677E+03  0.47000000000E+01 0. -1.
         -5    1    3    3    0  502 -0.33663336610E+01 -0.66771168804E+02 -0.11762142007E+03  0.13537580893E+03  0.47000000000E+01 0.  1.
<mgrwt>
<rscale>  0 0.10972506E+03</rscale>
<asrwt>0</asrwt>
<pdfrwt beam="1">  1        1 0.93263735E-01 0.10978523E+03</pdfrwt>
<pdfrwt beam="2">  1       -1 0.34070094E-02 0.10978523E+03</pdfrwt>
<totfact> 0.10185581E+04</totfact>
</mgrwt>
</event>
<event>
 8    1  0.8438969E-004  0.1034723E+03  0.7546771E-02  0.1275380E+00
          2   -1    0    0  501    0  0.00000000000E+00  0.00000000000E+00  0.83687418794E+03  0.83687418794E+03  0.00000000000E+00 0. -1.
         -2   -1    0    0    0  501 -0.00000000000E+00 -0.00000000000E+00 -0.26435148898E+02  0.26435148898E+02  0.00000000000E+00 0.  1.
         23    2    1    2    0    0 -0.30025058716E+02  0.18843129026E+02  0.93226406972E+02  0.13927552398E+03  0.97210806808E+02 0.  0.
         23    2    1    2    0    0  0.30025058716E+02 -0.18843129026E+02  0.71721263207E+03  0.72403381286E+03  0.92598244581E+02 0.  0.
          5    1    3    3  502    0  0.28903985519E+02 -0.12932842806E+02  0.50247321370E+02  0.59578369453E+02  0.47000000000E+01 0. -1.
         -5    1    3    3    0  502 -0.58929044235E+02  0.31775971832E+02  0.42979085602E+02  0.79697154526E+02  0.47000000000E+01 0.  1.
          5    1    4    4  503    0  0.36531314670E+02 -0.52223691087E+02  0.51138421576E+03  0.51536177293E+03  0.47000000000E+01 0. -1.
         -5    1    4    4    0  503 -0.65062559536E+01  0.33380562061E+02  0.20582841630E+03  0.20867203993E+03  0.47000000000E+01 0.  1.
<mgrwt>
<rscale>  0 0.10237471E+03</rscale>
<asrwt>0</asrwt>
<pdfrwt beam="1">  1        2 0.12874985E+00 0.10347226E+03</pdfrwt>
<pdfrwt beam="2">  1       -2 0.40669466E-02 0.10347226E+03</pdfrwt>
<totfact> 0.85028159E+03</totfact>
</mgrwt>
</event>
<event>
 8    1  0.8438969E-004  0.1029359E+03  0.7546771E-02  0.1275673E+00
         -2   -1    0    0    0  501 -0.00000000000E+00  0.00000000000E+00  0.85201044019E+02  0.85201044019E+02  0.00000000000E+00 0.  1.
          2   -1    0    0  501    0  0.00000000000E+00 -0.00000000000E+00 -0.12645516156E+03  0.12645516156E+03  0.00000000000E+00 0. -1.
         23    2    1    2    0    0  0.45206614859E+02  0.40050237270E+01  0.10511191703E+01  0.10294130304E+03  0.92391172622E+02 0.  0.
         23    2    1    2    0    0 -0.45206614859E+02 -0.40050237270E+01 -0.42305236712E+02  0.10871490254E+03  0.89272161048E+02 0.  0.
          5    1    4    4  502    0 -0.32872047714E+02  0.32895236469E+02 -0.50356722126E+02  0.68706313877E+02  0.47000000000E+01 0. -1.
         -5    1    3    3    0  503  0.69305588901E+02 -0.10013260838E+02  0.14448657699E+02  0.71654614330E+02  0.47000000000E+01 0.  1.
          5    1    3    3  503    0 -0.24098974041E+02  0.14018284565E+02 -0.13397538529E+02  0.31286688713E+02  0.47000000000E+01 0. -1.
         -5    1    4    4    0  502 -0.12334567145E+02 -0.36900260196E+02  0.80514854144E+01  0.40008588660E+02  0.47000000000E+01 0.  1.
<mgrwt>
<rscale>  0 0.10223122E+03</rscale>
<asrwt>0</asrwt>
<pdfrwt beam="1">  1        2 0.19454640E-01 0.10293594E+03</pdfrwt>
<pdfrwt beam="2">  1       -2 0.13107853E-01 0.10293594E+03</pdfrwt>
<totfact> 0.11230738E+04</totfact>
</mgrwt>
</event>
<event>
 8    1  0.8438969E-004  0.9858050E+02  0.7546771E-02  0.1284014E+00
         -1   -1    0    0    0  501 -0.00000000000E+00  0.00000000000E+00  0.18947954025E+03  0.18947954025E+03  0.00000000000E+00 0.  1.
          1   -1    0    0  501    0  0.00000000000E+00 -0.00000000000E+00 -0.16865269533E+03  0.16865269533E+03  0.00000000000E+00 0. -1.
         23    2    1    2    0    0 -0.35635484232E+02 -0.53446091291E+01  0.16019895545E+03  0.18741990586E+03  0.90355205726E+02 0.  0.
         23    2    1    2    0    0  0.35635484232E+02  0.53446091291E+01 -0.13937211054E+03  0.17071232972E+03  0.91758714787E+02 0.  0.
          5    1    3    3  502    0  0.23679857690E+02 -0.15972005168E+02  0.21298308181E+02  0.35938120995E+02  0.47000000000E+01 0. -1.
         -5    1    4    4    0  503 -0.27593149325E+02  0.15430783059E+02 -0.29700178321E+02  0.43631199248E+02  0.47000000000E+01 0.  1.
          5    1    4    4  503    0  0.63228633557E+02 -0.10086173930E+02 -0.10967193221E+03  0.12708113047E+03  0.47000000000E+01 0. -1.
         -5    1    3    3    0  502 -0.59315341922E+02  0.10627396039E+02  0.13890064727E+03  0.15148178487E+03  0.47000000000E+01 0.  1.
<mgrwt>
<rscale>  0 0.98252606E+02</rscale>
<asrwt>0</asrwt>
<pdfrwt beam="1">  1        1 0.25946569E-01 0.98580497E+02</pdfrwt>
<pdfrwt beam="2">  1       -1 0.29150698E-01 0.98580497E+02</pdfrwt>
<totfact> 0.18871324E+03</totfact>
</mgrwt>
</event>
<event>
 8    1  0.8438969E-004  0.1000898E+03  0.7546771E-02  0.1282464E+00
         -2   -1    0    0    0  501 -0.00000000000E+00  0.00000000000E+00  0.51222255718E+03  0.51222255718E+03  0.00000000000E+00 0.  1.
          2   -1    0    0  501    0  0.00000000000E+00 -0.00000000000E+00 -0.18926498607E+02  0.18926498607E+02  0.00000000000E+00 0. -1.
         23    2    1    2    0    0  0.25657753465E+02 -0.80569211935E+01  0.21287885738E+03  0.23340458735E+03  0.91853465832E+02 0.  0.
         23    2    1    2    0    0 -0.25657753465E+02  0.80569211935E+01  0.28041720119E+03  0.29774446843E+03  0.96409166922E+02 0.  0.
          5    1    4    4  502    0  0.27625929275E+02 -0.81901325323E+01  0.32870774577E+02  0.43964167916E+02  0.47000000000E+01 0. -1.
         -5    1    4    4    0  502 -0.53283682741E+02  0.16247053726E+02  0.24754642661E+03  0.25378030051E+03  0.47000000000E+01 0.  1.
          5    1    3    3  503    0  0.26835429313E+02 -0.36299078276E+02  0.19364654243E+03  0.19889403396E+03  0.47000000000E+01 0. -1.
         -5    1    3    3    0  503 -0.11776758479E+01  0.28242157083E+02  0.19232314954E+02  0.34510553394E+02  0.47000000000E+01 0.  1.
<mgrwt>
<rscale>  0 0.98976237E+02</rscale>
<asrwt>0</asrwt>
<pdfrwt beam="1">  1        2 0.29117694E-02 0.10008977E+03</pdfrwt>
<pdfrwt beam="2">  1       -2 0.78803460E-01 0.10008977E+03</pdfrwt>
<totfact> 0.44322686E+03</totfact>
</mgrwt>
</event>
<event>
 8    1  0.8438969E-004  0.9511322E+02  0.7546771E-02  0.1302906E+00
          1   -1    0    0  501    0  0.00000000000E+00  0.00000000000E+00  0.42982407443E+03  0.42982407443E+03  0.00000000000E+00 0. -1.
         -1   -1    0    0    0  501 -0.00000000000E+00 -0.00000000000E+00 -0.27146214818E+02  0.27146214818E+02  0.00000000000E+00 0.  1.
         23    2    1    2    0    0 -0.26890318768E+02 -0.65436819863E+01  0.32604841243E+03  0.33482857775E+03  0.70969713325E+02 0.  0.
         23    2    1    2    0    0  0.26890318768E+02  0.65436819863E+01  0.76629447181E+02  0.12214171150E+03  0.90997892810E+02 0.  0.
          5    1    4    4  502    0  0.57408210749E+02  0.79343958080E+01  0.69139161146E+02  0.90338092199E+02  0.47000000000E+01 0. -1.
         -5    1    4    4    0  502 -0.30517891980E+02 -0.13907138217E+01  0.74902860352E+01  0.31803619303E+02  0.47000000000E+01 0.  1.
          5    1    3    3  503    0  0.12500249665E+02 -0.27873988383E+02  0.12020830170E+03  0.12411825517E+03  0.47000000000E+01 0. -1.
         -5    1    3    3    0  503 -0.39390568433E+02  0.21330306396E+02  0.20584011074E+03  0.21071032258E+03  0.47000000000E+01 0.  1.
<mgrwt>
<rscale>  0 0.89977432E+02</rscale>
<asrwt>0</asrwt>
<pdfrwt beam="1">  1        1 0.66126776E-01 0.95113225E+02</pdfrwt>
<pdfrwt beam="2">  1       -1 0.41763411E-02 0.95113225E+02</pdfrwt>
<totfact> 0.11703481E+04</totfact>
</mgrwt>
</event>
<event>
 8    1  0.8438969E-004  0.1022506E+03  0.7546771E-02  0.1275665E+00
          2   -1    0    0  501    0  0.00000000000E+00  0.00000000000E+00  0.13379585461E+02  0.13379585461E+02  0.00000000000E+00 0. -1.
         -2   -1    0    0    0  501 -0.00000000000E+00 -0.00000000000E+00 -0.91801202562E+03  0.91801202562E+03  0.00000000000E+00 0.  1.
         23    2    1    2    0    0 -0.43607079442E+02 -0.16851100642E+02 -0.63214149013E+03  0.64034780523E+03  0.90867547270E+02 0.  0.
         23    2    1    2    0    0  0.43607079442E+02  0.16851100642E+02 -0.27249095003E+03  0.29104380586E+03  0.90937572582E+02 0.  0.
          5    1    4    4  502    0  0.48715922514E+02  0.48702794846E+02 -0.19929690689E+03  0.21091835015E+03  0.47000000000E+01 0. -1.
         -5    1    3    3    0  503 -0.34998377483E+02 -0.52873026966E+02 -0.44495216961E+03  0.44947187526E+03  0.47000000000E+01 0.  1.
          5    1    3    3  503    0 -0.86087019585E+01  0.36021926324E+02 -0.18718932052E+03  0.19087592997E+03  0.47000000000E+01 0. -1.
         -5    1    4    4    0  502 -0.51088430721E+01 -0.31851694204E+02 -0.73194043139E+02  0.80125455707E+02  0.47000000000E+01 0.  1.
<mgrwt>
<rscale>  0 0.10223500E+03</rscale>
<asrwt>0</asrwt>
<pdfrwt beam="1">  1        2 0.20583973E-02 0.10225057E+03</pdfrwt>
<pdfrwt beam="2">  1       -2 0.14123265E+00 0.10225057E+03</pdfrwt>
<totfact> 0.18266865E+03</totfact>
</mgrwt>
</event>
<event>
 8    1  0.8438969E-004  0.1347141E+03  0.7546771E-02  0.1220885E+00
          1   -1    0    0  501    0  0.00000000000E+00  0.00000000000E+00  0.49941408473E+03  0.49941408473E+03  0.00000000000E+00 0. -1.
         -1   -1    0    0    0  501 -0.00000000000E+00 -0.00000000000E+00 -0.44483685777E+02  0.44483685777E+02  0.00000000000E+00 0.  1.
         23    2    1    2    0    0  0.58023369801E+02  0.79693359659E+02  0.11019289251E+03  0.17404126062E+03  0.91815814657E+02 0.  0.
         23    2    1    2    0    0 -0.58023369801E+02 -0.79693359659E+02  0.34473750644E+03  0.36985650989E+03  0.90731177342E+02 0.  0.
          5    1    3    3  502    0  0.18319454403E+02  0.31397013333E+02  0.10490133094E+03  0.11112044856E+03  0.47000000000E+01 0. -1.
         -5    1    3    3    0  502  0.39703915398E+02  0.48296346326E+02  0.52915615750E+01  0.62920812060E+02  0.47000000000E+01 0.  1.
          5    1    4    4  503    0 -0.43588302456E+02 -0.23684828262E+02  0.54382373940E+02  0.73759364125E+02  0.47000000000E+01 0. -1.
         -5    1    4    4    0  503 -0.14435067345E+02 -0.56008531397E+02  0.29035513250E+03  0.29609714576E+03  0.47000000000E+01 0.  1.
<mgrwt>
<rscale>  0 0.13452949E+03</rscale>
<asrwt>0</asrwt>
<pdfrwt beam="1">  1        1 0.76832932E-01 0.13471409E+03</pdfrwt>
<pdfrwt beam="2">  1       -1 0.68436443E-02 0.13471409E+03</pdfrwt>
<totfact> 0.47721814E+03</totfact>
</mgrwt>
</event>
<event>
 8    1  0.8438969E-004  0.9219836E+02  0.7546771E-02  0.1298135E+00
          3   -1    0    0  501    0  0.00000000000E+00  0.00000000000E+00  0.25958205965E+03  0.25958205965E+03  0.00000000000E+00 0. -1.
         -3   -1    0    0    0  501 -0.00000000000E+00 -0.00000000000E+00 -0.34188745865E+02  0.34188745865E+02  0.00000000000E+00 0.  1.
         23    2    1    2    0    0 -0.96213273021E+01 -0.29988135060E+01  0.14546191054E+03  0.17174799273E+03  0.90755951690E+02 0.  0.
         23    2    1    2    0    0  0.96213273021E+01  0.29988135060E+01  0.79931403248E+02  0.12202281279E+03  0.91645920773E+02 0.  0.
          5    1    4    4  502    0  0.27817781712E+02 -0.37801215368E+02  0.43912404150E+02  0.64444938521E+02  0.47000000000E+01 0. -1.
         -5    1    4    4    0  502 -0.18196454410E+02  0.40800028874E+02  0.36018999098E+02  0.57577874268E+02  0.47000000000E+01 0.  1.
          5    1    3    3  503    0 -0.32585655932E+02 -0.11661611498E+02  0.14234152964E+03  0.14656404476E+03  0.47000000000E+01 0. -1.
         -5    1    3    3    0  503  0.22964328630E+02  0.86627979915E+01  0.31203808990E+01  0.25183947972E+02  0.47000000000E+01 0.  1.
<mgrwt>
<rscale>  0 0.91976414E+02</rscale>
<asrwt>0</asrwt>
<pdfrwt beam="1">  1        3 0.39935700E-01 0.92198360E+02</pdfrwt>
<pdfrwt beam="2">  1       -3 0.52598072E-02 0.92198360E+02</pdfrwt>
<totfact> 0.27773073E+03</totfact>
</mgrwt>
</event>
<event>
 8    1  0.8438969E-004  0.1211537E+03  0.7546771E-02  0.1242656E+00
         -3   -1    0    0    0  501 -0.00000000000E+00  0.00000000000E+00  0.35426674688E+02  0.35426674688E+02  0.00000000000E+00 0.  1.
          3   -1    0    0  501    0  0.00000000000E+00 -0.00000000000E+00 -0.87051261482E+03  0.87051261482E+03  0.00000000000E+00 0. -1.
         23    2    1    2    0    0  0.51436134938E+02  0.56424268412E+02 -0.88235189980E+02  0.14987886189E+03  0.94068328605E+02 0.  0.
         23    2    1    2    0    0 -0.51436134938E+02 -0.56424268412E+02 -0.74685075015E+03  0.75606042762E+03  0.89509514401E+02 0.  0.
          5    1    4    4  502    0 -0.57061196736E+02 -0.76914395236E+02 -0.61062647327E+03  0.61810887732E+03  0.47000000000E+01 0. -1.
         -5    1    3    3    0  503  0.14063660911E+02  0.71452473979E+02 -0.29969423259E+02  0.78889155950E+02  0.47000000000E+01 0.  1.
          5    1    3    3  503    0  0.37372474028E+02 -0.15028205567E+02 -0.58265766721E+02  0.70989705937E+02  0.47000000000E+01 0. -1.
         -5    1    4    4    0  502  0.56250617977E+01  0.20490126824E+02 -0.13622427688E+03  0.13795155029E+03  0.47000000000E+01 0.  1.
<mgrwt>
<rscale>  0 0.12026792E+03</rscale>
<asrwt>0</asrwt>
<pdfrwt beam="1">  1        3 0.13392502E+00 0.12115372E+03</pdfrwt>
<pdfrwt beam="2">  1       -3 0.54502574E-02 0.12115372E+03</pdfrwt>
<totfact> 0.20848549E+02</totfact>
</mgrwt>
</event>
<event>
 8    1  0.8438969E-004  0.9411124E+02  0.7546771E-02  0.1294799E+00
         -2   -1    0    0    0  501 -0.00000000000E+00  0.00000000000E+00  0.15074510299E+03  0.15074510299E+03  0.00000000000E+00 0.  1.
          2   -1    0    0  501    0  0.00000000000E+00 -0.00000000000E+00 -0.63748714791E+02  0.63748714791E+02  0.00000000000E+00 0. -1.
         23    2    1    2    0    0  0.31474986567E+01  0.12027624001E+02  0.78883640615E+02  0.12279883826E+03  0.93286416136E+02 0.  0.
         23    2    1    2    0    0 -0.31474986567E+01 -0.12027624001E+02  0.81127475822E+01  0.91694979515E+02  0.90485259065E+02 0.  0.
          5    1    4    4  502    0  0.40092678910E+02  0.48751366274E+00 -0.12074737478E+02  0.42137273961E+02  0.47000000000E+01 0. -1.
         -5    1    3    3    0  503 -0.29161137777E+02 -0.19946207045E+02  0.66506499454E+02  0.75454805026E+02  0.47000000000E+01 0.  1.
          5    1    3    3  503    0  0.32308636434E+02  0.31973831045E+02  0.12377141161E+02  0.47344033238E+02  0.47000000000E+01 0. -1.
         -5    1    4    4    0  502 -0.43240177567E+02 -0.12515137663E+02  0.20187485060E+02  0.49557705554E+02  0.47000000000E+01 0.  1.
<mgrwt>
<rscale>  0 0.93409467E+02</rscale>
<asrwt>0</asrwt>
<pdfrwt beam="1">  1        2 0.98074946E-02 0.94111242E+02</pdfrwt>
<pdfrwt beam="2">  1       -2 0.23191554E-01 0.94111242E+02</pdfrwt>
<totfact> 0.96755296E+03</totfact>
</mgrwt>
</event>
<event>
 8    1  0.8438969E-004  0.1114565E+03  0.7546771E-02  0.1258746E+00
          2   -1    0    0  501    0  0.00000000000E+00  0.00000000000E+00  0.48328525381E+03  0.48328525381E+03  0.00000000000E+00 0. -1.
         -2   -1    0    0    0  501 -0.00000000000E+00 -0.00000000000E+00 -0.41193044350E+02  0.41193044350E+02  0.00000000000E+00 0.  1.
         23    2    1    2    0    0  0.41890313481E+02  0.47265205741E+02  0.56918014289E+02  0.12350234513E+03  0.89578852770E+02 0.  0.
         23    2    1    2    0    0 -0.41890313481E+02 -0.47265205741E+02  0.38517419517E+03  0.40097595303E+03  0.91835484699E+02 0.  0.
          5    1    4    4  502    0 -0.16016890916E+02 -0.59688072528E+02  0.34948047326E+03  0.35493365294E+03  0.47000000000E+01 0. -1.
         -5    1    4    4    0  502 -0.25873422565E+02  0.12422866788E+02  0.35693721906E+02  0.46042300094E+02  0.47000000000E+01 0.  1.
          5    1    3    3  503    0 -0.35847614317E+01  0.38587383815E+02  0.65435776651E+02  0.76195587603E+02  0.47000000000E+01 0. -1.
         -5    1    3    3    0  503  0.45475074912E+02  0.86778219251E+01 -0.85177623611E+01  0.47306757522E+02  0.47000000000E+01 0.  1.
<mgrwt>
<rscale>  0 0.11099062E+03</rscale>
<asrwt>0</asrwt>
<pdfrwt beam="1">  1        2 0.74351574E-01 0.11145651E+03</pdfrwt>
<pdfrwt beam="2">  1       -2 0.63373918E-02 0.11145651E+03</pdfrwt>
<totfact> 0.82887729E+03</totfact>
</mgrwt>
</event>
<event>
 8    1  0.8438969E-004  0.1194239E+03  0.7546771E-02  0.1244827E+00
         -1   -1    0    0    0  501 -0.00000000000E+00  0.00000000000E+00  0.47351980806E+03  0.47351980806E+03  0.00000000000E+00 0.  1.
          1   -1    0    0  501    0  0.00000000000E+00 -0.00000000000E+00 -0.17659181129E+03  0.17659181129E+03  0.00000000000E+00 0. -1.
         23    2    1    2    0    0  0.37110058563E+02 -0.65686248904E+02  0.44516869686E+03  0.46090915388E+03  0.92575589243E+02 0.  0.
         23    2    1    2    0    0 -0.37110058563E+02  0.65686248904E+02 -0.14824070009E+03  0.18920246547E+03  0.90168886193E+02 0.  0.
          5    1    3    3  502    0 -0.17638231121E+02 -0.47224097218E+02  0.30584420495E+03  0.31000643583E+03  0.47000000000E+01 0. -1.
         -5    1    4    4    0  503 -0.61491395286E+01  0.27314255986E+02  0.43989018491E+01  0.28728397702E+02  0.47000000000E+01 0.  1.
          5    1    4    4  503    0 -0.30960919035E+02  0.38371992917E+02 -0.15263960194E+03  0.16047406777E+03  0.47000000000E+01 0. -1.
         -5    1    3    3    0  502  0.54748289684E+02 -0.18462151686E+02  0.13932449191E+03  0.15090271804E+03  0.47000000000E+01 0.  1.
<mgrwt>
<rscale>  0 0.11895727E+03</rscale>
<asrwt>0</asrwt>
<pdfrwt beam="1">  1        1 0.27167971E-01 0.11942395E+03</pdfrwt>
<pdfrwt beam="2">  1       -1 0.72849201E-01 0.11942395E+03</pdfrwt>
<totfact> 0.34435955E+02</totfact>
</mgrwt>
</event>
<event>
 8    1  0.8438969E-004  0.8926128E+02  0.7546771E-02  0.1306873E+00
          3   -1    0    0  501    0  0.00000000000E+00  0.00000000000E+00  0.39225153595E+03  0.39225153595E+03  0.00000000000E+00 0. -1.
         -3   -1    0    0    0  501 -0.00000000000E+00 -0.00000000000E+00 -0.19773174219E+02  0.19773174219E+02  0.00000000000E+00 0.  1.
         23    2    1    2    0    0 -0.55668657456E+01  0.14698509357E+02  0.15884316032E+03  0.18049161078E+03  0.84255776123E+02 0.  0.
         23    2    1    2    0    0  0.55668657456E+01 -0.14698509357E+02  0.21363520141E+03  0.23153309939E+03  0.87866607193E+02 0.  0.
          5    1    3    3  502    0 -0.21529507824E+02 -0.14604164092E+02  0.13877530803E+03  0.14127093628E+03  0.47000000000E+01 0. -1.
         -5    1    4    4    0  503 -0.36472502171E+02 -0.94135901218E+01  0.52066500685E+02  0.64435002810E+02  0.47000000000E+01 0.  1.
          5    1    4    4  503    0  0.42039367917E+02 -0.52849192352E+01  0.16156870072E+03  0.16709809658E+03  0.47000000000E+01 0. -1.
         -5    1    3    3    0  502  0.15962642078E+02  0.29302673449E+02  0.20067852288E+02  0.39220674507E+02  0.47000000000E+01 0.  1.
<mgrwt>
<rscale>  0 0.88359702E+02</rscale>
<asrwt>0</asrwt>
<pdfrwt beam="1">  1        3 0.60346384E-01 0.89261284E+02</pdfrwt>
<pdfrwt beam="2">  1       -3 0.30420271E-02 0.89261284E+02</pdfrwt>
<totfact> 0.28570722E+03</totfact>
</mgrwt>
</event>
<event>
 8    1  0.8438969E-004  0.1170914E+03  0.7546771E-02  0.1248649E+00
         -2   -1    0    0    0  501 -0.00000000000E+00  0.00000000000E+00  0.42771085507E+02  0.42771085507E+02  0.00000000000E+00 0.  1.
          2   -1    0    0  501    0  0.00000000000E+00 -0.00000000000E+00 -0.78011788421E+03  0.78011788421E+03  0.00000000000E+00 0. -1.
         23    2    1    2    0    0  0.69612564655E+02 -0.17450003441E+02 -0.68492513800E+03  0.69459852736E+03  0.90522139694E+02 0.  0.
         23    2    1    2    0    0 -0.69612564655E+02  0.17450003441E+02 -0.52421660709E+02  0.12829044236E+03  0.92520242711E+02 0.  0.
          5    1    4    4  502    0  0.22131883116E+02  0.13527544217E+01 -0.17753205957E+02  0.28790910312E+02  0.47000000000E+01 0. -1.
         -5    1    3    3    0  503  0.19679072030E+02  0.36518278835E+02 -0.26146185404E+03  0.26477394450E+03  0.47000000000E+01 0.  1.
          5    1    3    3  503    0  0.49933492624E+02 -0.53968282275E+02 -0.42346328395E+03  0.42982458286E+03  0.47000000000E+01 0. -1.
         -5    1    4    4    0  502 -0.91744447771E+02  0.16097249019E+02 -0.34668454752E+02  0.99499532047E+02  0.47000000000E+01 0.  1.
<mgrwt>
<rscale>  0 0.11669637E+03</rscale>
<asrwt>0</asrwt>
<pdfrwt beam="1">  1        2 0.12001812E+00 0.11709145E+03</pdfrwt>
<pdfrwt beam="2">  1       -2 0.65801678E-02 0.11709145E+03</pdfrwt>
<totfact> 0.45438406E+03</totfact>
</mgrwt>
</event>
<event>
 8    1  0.8438969E-004  0.1143049E+03  0.7546771E-02  0.1252814E+00
          2   -1    0    0  501    0  0.00000000000E+00  0.00000000000E+00  0.14009573648E+04  0.14009573648E+04  0.00000000000E+00 0. -1.
         -2   -1    0    0    0  501 -0.00000000000E+00 -0.00000000000E+00 -0.93247149572E+01  0.93247149572E+01  0.00000000000E+00 0.  1.
         23    2    1    2    0    0 -0.13084069984E+02 -0.67074752312E+02  0.70358498309E+03  0.71280433559E+03  0.91585900228E+02 0.  0.
         23    2    1    2    0    0  0.13084069984E+02  0.67074752312E+02  0.68804766676E+03  0.69747774418E+03  0.91626396852E+02 0.  0.
          5    1    3    3  502    0 -0.27809497655E+02  0.14167790298E+02  0.19862018430E+03  0.20111231203E+03  0.47000000000E+01 0. -1.
         -5    1    4    4    0  503  0.34643953979E+02 -0.79208395402E+00  0.12084114092E+03  0.12579945263E+03  0.47000000000E+01 0.  1.
          5    1    4    4  503    0 -0.21559883995E+02  0.67866836266E+02  0.56720652585E+03  0.57167829155E+03  0.47000000000E+01 0. -1.
         -5    1    3    3    0  502  0.14725427671E+02 -0.81242542610E+02  0.50496479879E+03  0.51169202356E+03  0.47000000000E+01 0.  1.
<mgrwt>
<rscale>  0 0.11429679E+03</rscale>
<asrwt>0</asrwt>
<pdfrwt beam="1">  1        2 0.21553174E+00 0.11430491E+03</pdfrwt>
<pdfrwt beam="2">  1       -2 0.14345726E-02 0.11430491E+03</pdfrwt>
<totfact> 0.18530334E+04</totfact>
</mgrwt>
</event>
<event>
 8    1  0.8438969E-004  0.1321761E+03  0.7546771E-02  0.1225309E+00
          2   -1    0    0  501    0  0.00000000000E+00  0.00000000000E+00  0.36401112267E+03  0.36401112267E+03  0.00000000000E+00 0. -1.
         -2   -1    0    0    0  501 -0.00000000000E+00 -0.00000000000E+00 -0.49702684064E+02  0.49702684064E+02  0.00000000000E+00 0.  1.
         23    2    1    2    0    0 -0.93795754614E+02 -0.18962399297E+02  0.10698509546E+03  0.16784090402E+03  0.86991621669E+02 0.  0.
         23    2    1    2    0    0  0.93795754614E+02  0.18962399297E+02  0.20732334315E+03  0.24587290271E+03  0.91177297091E+02 0.  0.
          5    1    3    3  502    0 -0.59411693434E+02 -0.31718476812E+02  0.11175103666E+03  0.13056107874E+03  0.47000000000E+01 0. -1.
         -5    1    4    4    0  503  0.46117931921E+02  0.44366446052E+02  0.56140996216E+02  0.85259290614E+02  0.47000000000E+01 0.  1.
          5    1    4    4  503    0  0.47677822693E+02 -0.25404046755E+02  0.15118234693E+03  0.16061361210E+03  0.47000000000E+01 0. -1.
         -5    1    3    3    0  502 -0.34384061180E+02  0.12756077515E+02 -0.47659412046E+01  0.37279825272E+02  0.47000000000E+01 0.  1.
<mgrwt>
<rscale>  0 0.13145728E+03</rscale>
<asrwt>0</asrwt>
<pdfrwt beam="1">  1        2 0.56001710E-01 0.13217608E+03</pdfrwt>
<pdfrwt beam="2">  1       -2 0.76465670E-02 0.13217608E+03</pdfrwt>
<totfact> 0.85302259E+03</totfact>
</mgrwt>
</event>
<event>
 8    1  0.8438969E-004  0.9495311E+02  0.7546771E-02  0.1291860E+00
         -1   -1    0    0    0  501 -0.00000000000E+00  0.00000000000E+00  0.19386609846E+02  0.19386609846E+02  0.00000000000E+00 0.  1.
          1   -1    0    0  501    0  0.00000000000E+00 -0.00000000000E+00 -0.50886087034E+03  0.50886087034E+03  0.00000000000E+00 0. -1.
         23    2    1    2    0    0 -0.30744229528E+01  0.10248976525E+02 -0.16415783005E+03  0.18964146945E+03  0.94348291851E+02 0.  0.
         23    2    1    2    0    0  0.30744229528E+01 -0.10248976525E+02 -0.32531643045E+03  0.33860601073E+03  0.93320721108E+02 0.  0.
          5    1    3    3  502    0  0.23059542162E+02 -0.31768434233E+02 -0.41610104073E+02  0.57397444710E+02  0.47000000000E+01 0. -1.
         -5    1    4    4    0  503 -0.26924078899E+02 -0.41923178922E+02 -0.17100421351E+03  0.17817685033E+03  0.47000000000E+01 0.  1.
          5    1    4    4  503    0  0.29998501852E+02  0.31674202397E+02 -0.15431221694E+03  0.16042916040E+03  0.47000000000E+01 0. -1.
         -5    1    3    3    0  502 -0.26133965114E+02  0.42017410758E+02 -0.12254772597E+03  0.13224402474E+03  0.47000000000E+01 0.  1.
<mgrwt>
<rscale>  0 0.94696839E+02</rscale>
<asrwt>0</asrwt>
<pdfrwt beam="1">  1        1 0.78286267E-01 0.94953114E+02</pdfrwt>
<pdfrwt beam="2">  1       -1 0.29825561E-02 0.94953114E+02</pdfrwt>
<totfact> 0.15375022E+04</totfact>
</mgrwt>
</event>
<event>
 8    1  0.8438969E-004  0.9200330E+02  0.7546771E-02  0.1298730E+00
         -1   -1    0    0    0  501 -0.00000000000E+00  0.00000000000E+00  0.35825943830E+02  0.35825943830E+02  0.00000000000E+00 0.  1.
          1   -1    0    0  501    0  0.00000000000E+00 -0.00000000000E+00 -0.35412617322E+03  0.35412617322E+03  0.00000000000E+00 0. -1.
         23    2    1    2    0    0  0.30247005326E+01  0.13167584028E+02 -0.45957349689E+02  0.10284301394E+03  0.91005897846E+02 0.  0.
         23    2    1    2    0    0 -0.30247005326E+01 -0.13167584028E+02 -0.27234287970E+03  0.28710910312E+03  0.89880247466E+02 0.  0.
          5    1    4    4  502    0  0.18119097401E+02 -0.35034666706E+02 -0.23672817117E+03  0.24003759412E+03  0.47000000000E+01 0. -1.
         -5    1    4    4    0  502 -0.21143797934E+02  0.21867082678E+02 -0.35614708530E+02  0.47071509000E+02  0.47000000000E+01 0.  1.
          5    1    3    3  503    0  0.31354180458E+02 -0.16673499196E+02 -0.49695628356E+02  0.61260392468E+02  0.47000000000E+01 0. -1.
         -5    1    3    3    0  503 -0.28329479925E+02  0.29841083225E+02  0.37382786670E+01  0.41582621469E+02  0.47000000000E+01 0.  1.
<mgrwt>
<rscale>  0 0.91723706E+02</rscale>
<asrwt>0</asrwt>
<pdfrwt beam="1">  1        1 0.54480949E-01 0.92003302E+02</pdfrwt>
<pdfrwt beam="2">  1       -1 0.55116837E-02 0.92003302E+02</pdfrwt>
<totfact> 0.98939318E+03</totfact>
</mgrwt>
</event>
<event>
 8    1  0.8438969E-004  0.9962250E+02  0.7546771E-02  0.1281592E+00
          2   -1    0    0  501    0  0.00000000000E+00  0.00000000000E+00  0.84128417979E+03  0.84128417979E+03  0.00000000000E+00 0. -1.
         -2   -1    0    0    0  501 -0.00000000000E+00 -0.00000000000E+00 -0.19709480046E+02  0.19709480046E+02  0.00000000000E+00 0.  1.
         23    2    1    2    0    0 -0.79773917287E+01 -0.37752774654E+02  0.13495587316E+03  0.16718528852E+03  0.90823577462E+02 0.  0.
         23    2    1    2    0    0  0.79773917287E+01  0.37752774654E+02  0.68661882658E+03  0.69380837132E+03  0.91846242825E+02 0.  0.
          5    1    3    3  502    0 -0.41195897442E+02 -0.40712898377E+02  0.11275113314E+03  0.12684459029E+03  0.47000000000E+01 0. -1.
         -5    1    4    4    0  503  0.49025122055E+02  0.11317531681E+02  0.35821585106E+03  0.36176267782E+03  0.47000000000E+01 0.  1.
          5    1    4    4  503    0 -0.41047730327E+02  0.26435242974E+02  0.32840297553E+03  0.33204569350E+03  0.47000000000E+01 0. -1.
         -5    1    3    3    0  502  0.33218505714E+02  0.29601237231E+01  0.22204740017E+02  0.40340698228E+02  0.47000000000E+01 0.  1.
<mgrwt>
<rscale>  0 0.99386152E+02</rscale>
<asrwt>0</asrwt>
<pdfrwt beam="1">  1        2 0.12942831E+00 0.99622503E+02</pdfrwt>
<pdfrwt beam="2">  1       -2 0.30322283E-02 0.99622503E+02</pdfrwt>
<totfact> 0.12961171E+04</totfact>
</mgrwt>
</event>
<event>
 8    1  0.8438969E-004  0.1331742E+03  0.7546771E-02  0.1222908E+00
          2   -1    0    0  501    0  0.00000000000E+00  0.00000000000E+00  0.81185480189E+03  0.81185480189E+03  0.00000000000E+00 0. -1.
         -2   -1    0    0    0  501 -0.00000000000E+00 -0.00000000000E+00 -0.23401562301E+02  0.23401562301E+02  0.00000000000E+00 0.  1.
         23    2    1    2    0    0  0.29496317979E+02 -0.90421577426E+02  0.28483501714E+03  0.31432769854E+03  0.92869912473E+02 0.  0.
         23    2    1    2    0    0 -0.29496317979E+02  0.90421577426E+02  0.50361822245E+03  0.52092866565E+03  0.93216233956E+02 0.  0.
          5    1    4    4  502    0 -0.60517730479E+02  0.72287779632E+02  0.31410093759E+03  0.32797775501E+03  0.47000000000E+01 0. -1.
         -5    1    4    4    0  502  0.31021412500E+02  0.18133797794E+02  0.18951728485E+03  0.19295091063E+03  0.47000000000E+01 0.  1.
          5    1    3    3  503    0 -0.32642560087E+02 -0.40026258618E+02  0.13042044698E+03  0.14035391373E+03  0.47000000000E+01 0. -1.
         -5    1    3    3    0  503  0.62138878066E+02 -0.50395318808E+02  0.15441457015E+03  0.17397378481E+03  0.47000000000E+01 0.  1.
<mgrwt>
<rscale>  0 0.13311359E+03</rscale>
<asrwt>0</asrwt>
<pdfrwt beam="1">  1        2 0.12490072E+00 0.13317417E+03</pdfrwt>
<pdfrwt beam="2">  1       -2 0.36002410E-02 0.13317417E+03</pdfrwt>
<totfact> 0.10742659E+04</totfact>
</mgrwt>
</event>
<event>
 8    1  0.8438969E-004  0.1074371E+03  0.7546771E-02  0.1265993E+00
          1   -1    0    0  501    0  0.00000000000E+00  0.00000000000E+00  0.34072935526E+03  0.34072935526E+03  0.00000000000E+00 0. -1.
         -1   -1    0    0    0  501 -0.00000000000E+00 -0.00000000000E+00 -0.40956067840E+02  0.40956067840E+02  0.00000000000E+00 0.  1.
         23    2    1    2    0    0  0.53854570609E+02  0.22786304348E+02  0.23212695825E+03  0.25578438723E+03  0.90128783193E+02 0.  0.
         23    2    1    2    0    0 -0.53854570609E+02 -0.22786304348E+02  0.67646329162E+02  0.12590103587E+03  0.88631340632E+02 0.  0.
          5    1    4    4  502    0 -0.71293979535E+02  0.65308768489E+01  0.46160785528E+02  0.85313492431E+02  0.47000000000E+01 0. -1.
         -5    1    4    4    0  502  0.17439408925E+02 -0.29317181197E+02  0.21485543634E+02  0.40587543437E+02  0.47000000000E+01 0.  1.
          5    1    3    3  503    0  0.27014709679E+02  0.56305667773E+02  0.15844694041E+03  0.17037501486E+03  0.47000000000E+01 0. -1.
         -5    1    3    3    0  503  0.26839860930E+02 -0.33519363425E+02  0.73680017847E+02  0.85409372372E+02  0.47000000000E+01 0.  1.
<mgrwt>
<rscale>  0 0.10712244E+03</rscale>
<asrwt>0</asrwt>
<pdfrwt beam="1">  1        1 0.52419899E-01 0.10743709E+03</pdfrwt>
<pdfrwt beam="2">  1       -1 0.63009338E-02 0.10743709E+03</pdfrwt>
<totfact> 0.86231613E+03</totfact>
</mgrwt>
</event>
<event>
 8    1  0.8438969E-004  0.1869489E+03  0.7546771E-02  0.1161723E+00
         -2   -1    0    0    0  501 -0.00000000000E+00  0.00000000000E+00  0.59588042992E+03  0.59588042992E+03  0.00000000000E+00 0.  1.
          2   -1    0    0  501    0  0.00000000000E+00 -0.00000000000E+00 -0.14751859062E+03  0.14751859062E+03  0.00000000000E+00 0. -1.
         23    2    1    2    0    0 -0.81273178769E+01 -0.16187183166E+03  0.51421716671E+03  0.54714641144E+03  0.93173804444E+02 0.  0.
         23    2    1    2    0    0  0.81273178769E+01  0.16187183166E+03 -0.65855327413E+02  0.19625260909E+03  0.88936040186E+02 0.  0.
          5    1    4    4  502    0  0.31517348662E+02  0.23606393313E+02 -0.34315354697E+02  0.52442717702E+02  0.47000000000E+01 0. -1.
         -5    1    4    4    0  502 -0.23390030785E+02  0.13826543835E+03 -0.31539972716E+02  0.14380989138E+03  0.47000000000E+01 0.  1.
          5    1    3    3  503    0  0.41437418566E+02 -0.68816483465E+02  0.25003449917E+03  0.26266348972E+03  0.47000000000E+01 0. -1.
         -5    1    3    3    0  503 -0.49564736443E+02 -0.93055348194E+02  0.26418266754E+03  0.28448292173E+03  0.47000000000E+01 0.  1.
<mgrwt>
<rscale>  0 0.18642786E+03</rscale>
<asrwt>0</asrwt>
<pdfrwt beam="1">  1        2 0.22695168E-01 0.18694893E+03</pdfrwt>
<pdfrwt beam="2">  1       -2 0.91673911E-01 0.18694893E+03</pdfrwt>
<totfact> 0.25295211E+02</totfact>
</mgrwt>
</event>
<event>
 8    1  0.8438969E-004  0.1014892E+03  0.7546771E-02  0.1277651E+00
          1   -1    0    0  501    0  0.00000000000E+00  0.00000000000E+00  0.11338746391E+03  0.11338746391E+03  0.00000000000E+00 0. -1.
         -1   -1    0    0    0  501 -0.00000000000E+00 -0.00000000000E+00 -0.94021736831E+02  0.94021736831E+02  0.00000000000E+00 0.  1.
         23    2    1    2    0    0  0.36227708666E+02 -0.22284863202E+02 -0.11662400526E+02  0.10128284044E+03  0.91176423368E+02 0.  0.
         23    2    1    2    0    0 -0.36227708666E+02  0.22284863202E+02  0.31028127600E+02  0.10612636030E+03  0.92146609512E+02 0.  0.
          5    1    3    3  502    0  0.41946348049E+02 -0.52385905745E+02 -0.18006030938E+02  0.69642561595E+02  0.47000000000E+01 0. -1.
         -5    1    4    4    0  503 -0.36059473869E+02 -0.28137700497E+02 -0.13847613804E+01  0.46000254445E+02  0.47000000000E+01 0.  1.
          5    1    4    4  503    0 -0.16823479790E+00  0.50422563699E+02  0.32412888980E+02  0.60126105853E+02  0.47000000000E+01 0. -1.
         -5    1    3    3    0  502 -0.57186393824E+01  0.30101042543E+02  0.63436304114E+01  0.31640278844E+02  0.47000000000E+01 0.  1.
<mgrwt>
<rscale>  0 0.10126848E+03</rscale>
<asrwt>0</asrwt>
<pdfrwt beam="1">  1        1 0.17444225E-01 0.10148921E+03</pdfrwt>
<pdfrwt beam="2">  1       -1 0.14464883E-01 0.10148921E+03</pdfrwt>
<totfact> 0.95449797E+03</totfact>
</mgrwt>
</event>
<event>
 8    1  0.8438969E-004  0.9183052E+02  0.7546771E-02  0.1298727E+00
         -2   -1    0    0    0  501 -0.00000000000E+00  0.00000000000E+00  0.21686310974E+02  0.21686310974E+02  0.00000000000E+00 0.  1.
          2   -1    0    0  501    0  0.00000000000E+00 -0.00000000000E+00 -0.70395913710E+03  0.70395913710E+03  0.00000000000E+00 0. -1.
         23    2    1    2    0    0  0.15031622755E+01 -0.12211590995E+02 -0.98139560132E+02  0.13440319059E+03  0.91002538016E+02 0.  0.
         23    2    1    2    0    0 -0.15031622755E+01  0.12211590995E+02 -0.58413326600E+03  0.59124225749E+03  0.90577878910E+02 0.  0.
          5    1    3    3  502    0  0.24629395713E+02  0.32407056523E+02 -0.50095457974E+02  0.64718384987E+02  0.47000000000E+01 0. -1.
         -5    1    4    4    0  503 -0.34820547961E+02 -0.18100946047E+02 -0.16493261605E+03  0.16960239575E+03  0.47000000000E+01 0.  1.
          5    1    4    4  503    0  0.33317385685E+02  0.30312537042E+02 -0.41920064995E+03  0.42163986174E+03  0.47000000000E+01 0. -1.
         -5    1    3    3    0  502 -0.23126233437E+02 -0.44618647517E+02 -0.48044102158E+02  0.69684805599E+02  0.47000000000E+01 0.  1.
<mgrwt>
<rscale>  0 0.91725135E+02</rscale>
<asrwt>0</asrwt>
<pdfrwt beam="1">  1        2 0.10830139E+00 0.91830520E+02</pdfrwt>
<pdfrwt beam="2">  1       -2 0.33363561E-02 0.91830520E+02</pdfrwt>
<totfact> 0.13893450E+04</totfact>
</mgrwt>
</event>
<event>
 8    1  0.8438969E-004  0.1050176E+03  0.7546771E-02  0.1270641E+00
         -2   -1    0    0    0  501 -0.00000000000E+00  0.00000000000E+00  0.41574967463E+02  0.41574967463E+02  0.00000000000E+00 0.  1.
          2   -1    0    0  501    0  0.00000000000E+00 -0.00000000000E+00 -0.10046091449E+04  0.10046091449E+04  0.00000000000E+00 0. -1.
         23    2    1    2    0    0 -0.35774701245E+02  0.35493861182E+02 -0.32591148298E+02  0.10995849974E+03  0.92136015151E+02 0.  0.
         23    2    1    2    0    0  0.35774701245E+02 -0.35493861182E+02 -0.93044302910E+03  0.93622561258E+03  0.90854410019E+02 0.  0.
          5    1    4    4  502    0  0.66014164877E+02 -0.17838444174E+02 -0.62293485971E+03  0.62669451051E+03  0.47000000000E+01 0. -1.
         -5    1    4    4    0  502 -0.30239463632E+02 -0.17655417008E+02 -0.30750816939E+03  0.30953110208E+03  0.47000000000E+01 0.  1.
          5    1    3    3  503    0 -0.54627294041E+02 -0.97090145434E+01 -0.20068307751E+02  0.59188116997E+02  0.47000000000E+01 0. -1.
         -5    1    3    3    0  503  0.18852592796E+02  0.45202875726E+02 -0.12522840548E+02  0.50770382748E+02  0.47000000000E+01 0.  1.
<mgrwt>
<rscale>  0 0.10473579E+03</rscale>
<asrwt>0</asrwt>
<pdfrwt beam="1">  1        2 0.15455525E+00 0.10501756E+03</pdfrwt>
<pdfrwt beam="2">  1       -2 0.63961489E-02 0.10501756E+03</pdfrwt>
<totfact> 0.34104079E+03</totfact>
</mgrwt>
</event>
<event>
 8    1  0.8438969E-004  0.1544191E+03  0.7546771E-02  0.1195428E+00
         -3   -1    0    0    0  501 -0.00000000000E+00  0.00000000000E+00  0.33972085621E+02  0.33972085621E+02  0.00000000000E+00 0.  1.
          3   -1    0    0  501    0  0.00000000000E+00 -0.00000000000E+00 -0.84607412435E+03  0.84607412435E+03  0.00000000000E+00 0. -1.
         23    2    1    2    0    0 -0.11587691325E+03 -0.42852865487E+02 -0.58935499574E+03  0.60900837971E+03  0.91038829302E+02 0.  0.
         23    2    1    2    0    0  0.11587691325E+03  0.42852865487E+02 -0.22274704299E+03  0.27103783026E+03  0.92636025238E+02 0.  0.
          5    1    4    4  502    0  0.50553665524E+02 -0.24774168291E+02 -0.11380274746E+03  0.12705348417E+03  0.47000000000E+01 0. -1.
         -5    1    4    4    0  502  0.65323247722E+02  0.67627033777E+02 -0.10894429553E+03  0.14398434609E+03  0.47000000000E+01 0.  1.
          5    1    3    3  503    0 -0.74441762700E+02 -0.34454519568E+02 -0.18503372278E+03  0.20245557172E+03  0.47000000000E+01 0. -1.
         -5    1    3    3    0  503 -0.41435150546E+02 -0.83983459188E+01 -0.40432127296E+03  0.40655280799E+03  0.47000000000E+01 0.  1.
<mgrwt>
<rscale>  0 0.15418034E+03</rscale>
<asrwt>0</asrwt>
<pdfrwt beam="1">  1        3 0.13016524E+00 0.15441911E+03</pdfrwt>
<pdfrwt beam="2">  1       -3 0.52264749E-02 0.15441911E+03</pdfrwt>
<totfact> 0.24589150E+02</totfact>
</mgrwt>
</event>
<event>
 8    1  0.8438969E-004  0.9083323E+02  0.7546771E-02  0.1300870E+00
          2   -1    0    0  501    0  0.00000000000E+00  0.00000000000E+00  0.52255079878E+03  0.52255079878E+03  0.00000000000E+00 0. -1.
         -2   -1    0    0    0  501 -0.00000000000E+00 -0.00000000000E+00 -0.19274376610E+02  0.19274376610E+02  0.00000000000E+00 0.  1.
         23    2    1    2    0    0 -0.69909062469E+01 -0.74359426963E+01  0.36699427890E+03  0.37806808477E+03  0.90258018821E+02 0.  0.
         23    2    1    2    0    0  0.69909062469E+01  0.74359426963E+01  0.13628214327E+03  0.16375709062E+03  0.90218601967E+02 0.  0.
          5    1    3    3  502    0  0.19239804957E+02  0.35291651606E+02  0.16113093373E+03  0.16613530201E+03  0.47000000000E+01 0. -1.
         -5    1    3    3    0  502 -0.26230711204E+02 -0.42727594302E+02  0.20586334517E+03  0.21193278276E+03  0.47000000000E+01 0.  1.
          5    1    4    4  503    0  0.47893661186E+02  0.86413082346E+01  0.84068308745E+02  0.97252483387E+02  0.47000000000E+01 0. -1.
         -5    1    4    4    0  503 -0.40902754939E+02 -0.12053655383E+01  0.52213834526E+02  0.66504607236E+02  0.47000000000E+01 0.  1.
<mgrwt>
<rscale>  0 0.90823438E+02</rscale>
<asrwt>0</asrwt>
<pdfrwt beam="1">  1        2 0.80392420E-01 0.90833232E+02</pdfrwt>
<pdfrwt beam="2">  1       -2 0.29652891E-02 0.90833232E+02</pdfrwt>
<totfact> 0.23039450E+04</totfact>
</mgrwt>
</event>
<event>
 8    1  0.8438969E-004  0.9641459E+02  0.7546771E-02  0.1289633E+00
         -2   -1    0    0    0  501 -0.00000000000E+00  0.00000000000E+00  0.12181227597E+02  0.12181227597E+02  0.00000000000E+00 0.  1.
          2   -1    0    0  501    0  0.00000000000E+00 -0.00000000000E+00 -0.78809396681E+03  0.78809396681E+03  0.00000000000E+00 0. -1.
         23    2    1    2    0    0  0.14849151562E+02  0.10017867591E+02 -0.29521212360E+03  0.31055751743E+03  0.94736047736E+02 0.  0.
         23    2    1    2    0    0 -0.14849151562E+02 -0.10017867591E+02 -0.48070061561E+03  0.48971767697E+03  0.91812125111E+02 0.  0.
          5    1    3    3  502    0 -0.12102120978E+02 -0.23068793778E+02 -0.23566693233E+03  0.23714894807E+03  0.47000000000E+01 0. -1.
         -5    1    3    3    0  502  0.26951272540E+02  0.33086661369E+02 -0.59545191271E+02  0.73408569360E+02  0.47000000000E+01 0.  1.
          5    1    4    4  503    0 -0.10613017641E+02 -0.48363407086E+02 -0.18880548309E+03  0.19524665358E+03  0.47000000000E+01 0. -1.
         -5    1    4    4    0  503 -0.42361339211E+01  0.38345539496E+02 -0.29189513252E+03  0.29447102339E+03  0.47000000000E+01 0.  1.
<mgrwt>
<rscale>  0 0.95688573E+02</rscale>
<asrwt>0</asrwt>
<pdfrwt beam="1">  1        2 0.12124526E+00 0.96414593E+02</pdfrwt>
<pdfrwt beam="2">  1       -2 0.18740345E-02 0.96414593E+02</pdfrwt>
<totfact> 0.28103777E+04</totfact>
</mgrwt>
</event>
<event>
 8    1  0.8438969E-004  0.9811550E+02  0.7546771E-02  0.1284712E+00
          1   -1    0    0  501    0  0.00000000000E+00  0.00000000000E+00  0.27446807370E+03  0.27446807370E+03  0.00000000000E+00 0. -1.
         -1   -1    0    0    0  501 -0.00000000000E+00 -0.00000000000E+00 -0.34974465496E+02  0.34974465496E+02  0.00000000000E+00 0.  1.
         23    2    1    2    0    0  0.35925137160E+02 -0.11441674207E+02  0.13084669751E+03  0.16354666151E+03  0.90582144219E+02 0.  0.
         23    2    1    2    0    0 -0.35925137160E+02  0.11441674207E+02  0.10864691069E+03  0.14589587769E+03  0.89777104742E+02 0.  0.
          5    1    3    3  502    0  0.18249878210E+02  0.22700245619E+02  0.11964256653E+03  0.12322659182E+03  0.47000000000E+01 0. -1.
         -5    1    3    3    0  502  0.17675258949E+02 -0.34141919826E+02  0.11204130983E+02  0.40320069685E+02  0.47000000000E+01 0.  1.
          5    1    4    4  503    0 -0.23260470891E+02 -0.25414240522E+02  0.50806513607E+01  0.35140235424E+02  0.47000000000E+01 0. -1.
         -5    1    4    4    0  503 -0.12664666269E+02  0.36855914729E+02  0.10356625933E+03  0.11075564227E+03  0.47000000000E+01 0.  1.
<mgrwt>
<rscale>  0 0.97929291E+02</rscale>
<asrwt>0</asrwt>
<pdfrwt beam="1">  1        1 0.42225856E-01 0.98115505E+02</pdfrwt>
<pdfrwt beam="2">  1       -1 0.53806872E-02 0.98115505E+02</pdfrwt>
<totfact> 0.14086938E+04</totfact>
</mgrwt>
</event>
<event>
 8    1  0.8438969E-004  0.9784985E+02  0.7546771E-02  0.1293167E+00
         -3   -1    0    0    0  501 -0.00000000000E+00  0.00000000000E+00  0.11827500435E+03  0.11827500435E+03  0.00000000000E+00 0.  1.
          3   -1    0    0  501    0  0.00000000000E+00 -0.00000000000E+00 -0.69754235941E+02  0.69754235941E+02  0.00000000000E+00 0. -1.
         23    2    1    2    0    0  0.18322472936E+02  0.33518355746E+02  0.28193937225E+02  0.10183070066E+03  0.90085516669E+02 0.  0.
         23    2    1    2    0    0 -0.18322472936E+02 -0.33518355746E+02  0.20326831186E+02  0.86198539637E+02  0.74550754411E+02 0.  0.
          5    1    3    3  502    0  0.17080675115E+02  0.10469291423E+02 -0.31517719854E+02  0.37640565751E+02  0.47000000000E+01 0. -1.
         -5    1    3    3    0  502  0.12417978208E+01  0.23049064323E+02  0.59711657079E+02  0.64190134905E+02  0.47000000000E+01 0.  1.
          5    1    4    4  503    0  0.23414078676E+02 -0.26991739346E+02  0.24364474868E+02  0.43502766679E+02  0.47000000000E+01 0. -1.
         -5    1    4    4    0  503 -0.41736551611E+02 -0.65266163999E+01 -0.40376436820E+01  0.42695772958E+02  0.47000000000E+01 0.  1.
<mgrwt>
<rscale>  0 0.94121562E+02</rscale>
<asrwt>0</asrwt>
<pdfrwt beam="1">  1        3 0.10731421E-01 0.97849852E+02</pdfrwt>
<pdfrwt beam="2">  1       -3 0.18196155E-01 0.97849852E+02</pdfrwt>
<totfact> 0.37125396E+03</totfact>
</mgrwt>
</event>
<event>
 8    1  0.8438969E-004  0.9474921E+02  0.7546771E-02  0.1292122E+00
          1   -1    0    0  501    0  0.00000000000E+00  0.00000000000E+00  0.42894077177E+03  0.42894077177E+03  0.00000000000E+00 0. -1.
         -1   -1    0    0    0  501 -0.00000000000E+00 -0.00000000000E+00 -0.10940947767E+03  0.10940947767E+03  0.00000000000E+00 0.  1.
         23    2    1    2    0    0  0.11486229048E+02  0.21751170067E+02 -0.82392544928E+02  0.12556251302E+03  0.91500635838E+02 0.  0.
         23    2    1    2    0    0 -0.11486229048E+02 -0.21751170067E+02  0.40192383902E+03  0.41278773642E+03  0.90806916631E+02 0.  0.
          5    1    3    3  502    0 -0.19734116379E+02  0.14356937151E+02  0.10644809477E+02  0.27036252744E+02  0.47000000000E+01 0. -1.
         -5    1    4    4    0  503  0.25668388961E+02 -0.23769492874E+02  0.66625060110E+02  0.75397901947E+02  0.47000000000E+01 0.  1.
          5    1    4    4  503    0 -0.37154618009E+02  0.20183228071E+01  0.33529877891E+03  0.33738983447E+03  0.47000000000E+01 0. -1.
         -5    1    3    3    0  502  0.31220345427E+02  0.73942329156E+01 -0.93037354405E+02  0.98526260275E+02  0.47000000000E+01 0.  1.
<mgrwt>
<rscale>  0 0.94581326E+02</rscale>
<asrwt>0</asrwt>
<pdfrwt beam="1">  1        1 0.65990887E-01 0.94749212E+02</pdfrwt>
<pdfrwt beam="2">  1       -1 0.16832227E-01 0.94749212E+02</pdfrwt>
<totfact> 0.14457208E+03</totfact>
</mgrwt>
</event>
<event>
 8    1  0.8438969E-004  0.9379855E+02  0.7546771E-02  0.1295486E+00
         -1   -1    0    0    0  501 -0.00000000000E+00  0.00000000000E+00  0.43016349624E+02  0.43016349624E+02  0.00000000000E+00 0.  1.
          1   -1    0    0  501    0  0.00000000000E+00 -0.00000000000E+00 -0.20898547783E+03  0.20898547783E+03  0.00000000000E+00 0. -1.
         23    2    1    2    0    0 -0.21815133119E+02 -0.49222023890E+01 -0.56125169126E+02  0.10930783011E+03  0.91093572801E+02 0.  0.
         23    2    1    2    0    0  0.21815133119E+02  0.49222023890E+01 -0.10984395908E+03  0.14269399734E+03  0.88293563870E+02 0.  0.
          5    1    3    3  502    0  0.56581272660E+01  0.39983095019E+02 -0.28699137377E+02  0.49763367829E+02  0.47000000000E+01 0. -1.
         -5    1    4    4    0  503 -0.32181837541E+02 -0.85978879888E+00 -0.21870301386E+02  0.39202168142E+02  0.47000000000E+01 0.  1.
          5    1    4    4  503    0  0.53996970660E+02  0.57819911879E+01 -0.87973657696E+02  0.10349182920E+03  0.47000000000E+01 0. -1.
         -5    1    3    3    0  502 -0.27473260385E+02 -0.44905297408E+02 -0.27426031748E+02  0.59544462286E+02  0.47000000000E+01 0.  1.
<mgrwt>
<rscale>  0 0.93111837E+02</rscale>
<asrwt>0</asrwt>
<pdfrwt beam="1">  1        1 0.32151611E-01 0.93798545E+02</pdfrwt>
<pdfrwt beam="2">  1       -1 0.66179001E-02 0.93798545E+02</pdfrwt>
<totfact> 0.14426912E+04</totfact>
</mgrwt>
</event>
<event>
 8    1  0.8438969E-004  0.9502060E+02  0.7546771E-02  0.1291799E+00
         -1   -1    0    0    0  501 -0.00000000000E+00  0.00000000000E+00  0.12609777721E+02  0.12609777721E+02  0.00000000000E+00 0.  1.
          1   -1    0    0  501    0  0.00000000000E+00 -0.00000000000E+00 -0.72001187737E+03  0.72001187737E+03  0.00000000000E+00 0. -1.
         23    2    1    2    0    0 -0.23259741595E+02 -0.99630637703E+01 -0.40483761269E+03  0.41583940114E+03  0.91589500894E+02 0.  0.
         23    2    1    2    0    0  0.23259741595E+02  0.99630637703E+01 -0.30256448695E+03  0.31678225394E+03  0.90362876392E+02 0.  0.
          5    1    3    3  502    0 -0.48049911980E+02  0.22884201166E+02 -0.24038657883E+03  0.24625246798E+03  0.47000000000E+01 0. -1.
         -5    1    3    3    0  502  0.24790170385E+02 -0.32847264936E+02 -0.16445103386E+03  0.16958693316E+03  0.47000000000E+01 0.  1.
          5    1    4    4  503    0 -0.34024246785E+02  0.11170105514E+02 -0.10608292040E+03  0.11206291370E+03  0.47000000000E+01 0. -1.
         -5    1    4    4    0  503  0.57283988380E+02 -0.12070417440E+01 -0.19648156655E+03  0.20471934024E+03  0.47000000000E+01 0.  1.
<mgrwt>
<rscale>  0 0.94723774E+02</rscale>
<asrwt>0</asrwt>
<pdfrwt beam="1">  1        1 0.11077104E+00 0.95020602E+02</pdfrwt>
<pdfrwt beam="2">  1       -1 0.19399660E-02 0.95020602E+02</pdfrwt>
<totfact> 0.17838355E+04</totfact>
</mgrwt>
</event>
<event>
 8    1  0.8438969E-004  0.9729733E+02  0.7546771E-02  0.1286314E+00
         -1   -1    0    0    0  501 -0.00000000000E+00  0.00000000000E+00  0.20686631946E+03  0.20686631946E+03  0.00000000000E+00 0.  1.
          1   -1    0    0  501    0  0.00000000000E+00 -0.00000000000E+00 -0.76116738194E+02  0.76116738194E+02  0.00000000000E+00 0. -1.
         23    2    1    2    0    0 -0.33577840850E+02  0.90144943637E+01  0.15510026357E+03  0.18309249411E+03  0.90873742826E+02 0.  0.
         23    2    1    2    0    0  0.33577840850E+02 -0.90144943637E+01 -0.24350682303E+02  0.99890563545E+02  0.90423649848E+02 0.  0.
          5    1    4    4  502    0  0.53664002838E+02  0.22534669989E+02 -0.20971799789E+02  0.62044685014E+02  0.47000000000E+01 0. -1.
         -5    1    3    3    0  503 -0.42092006582E+01 -0.35563545293E+02  0.99581315003E+02  0.10592927556E+03  0.47000000000E+01 0.  1.
          5    1    3    3  503    0 -0.29368640192E+02  0.44578039656E+02  0.55518948571E+02  0.77163218548E+02  0.47000000000E+01 0. -1.
         -5    1    4    4    0  502 -0.20086161988E+02 -0.31549164352E+02 -0.33788825141E+01  0.37845878531E+02  0.47000000000E+01 0.  1.
<mgrwt>
<rscale>  0 0.97192094E+02</rscale>
<asrwt>0</asrwt>
<pdfrwt beam="1">  1        1 0.11710267E-01 0.97297326E+02</pdfrwt>
<pdfrwt beam="2">  1       -1 0.31825587E-01 0.97297326E+02</pdfrwt>
<totfact> 0.44729857E+03</totfact>
</mgrwt>
</event>
<event>
 8    1  0.8438969E-004  0.9644015E+02  0.7546771E-02  0.1289220E+00
         -2   -1    0    0    0  501 -0.00000000000E+00  0.00000000000E+00  0.35946539936E+02  0.35946539936E+02  0.00000000000E+00 0.  1.
          2   -1    0    0  501    0  0.00000000000E+00 -0.00000000000E+00 -0.43010227660E+03  0.43010227660E+03  0.00000000000E+00 0. -1.
         23    2    1    2    0    0  0.11553334354E+02  0.18203648337E+02 -0.48811979812E+02  0.10808936847E+03  0.93999201360E+02 0.  0.
         23    2    1    2    0    0 -0.11553334354E+02 -0.18203648337E+02 -0.34534375686E+03  0.35795944807E+03  0.91694076765E+02 0.  0.
          5    1    4    4  502    0  0.12346862771E+02 -0.47903730680E+02 -0.12915051731E+03  0.13838048474E+03  0.47000000000E+01 0. -1.
         -5    1    3    3    0  503 -0.38733668758E+02  0.21524898907E+02 -0.14191150362E+02  0.46766410136E+02  0.47000000000E+01 0.  1.
          5    1    3    3  503    0  0.50287003112E+02 -0.33212505703E+01 -0.34620829450E+02  0.61322958337E+02  0.47000000000E+01 0. -1.
         -5    1    4    4    0  502 -0.23900197125E+02  0.29700082343E+02 -0.21619323954E+03  0.21957896333E+03  0.47000000000E+01 0.  1.
<mgrwt>
<rscale>  0 0.95873837E+02</rscale>
<asrwt>0</asrwt>
<pdfrwt beam="1">  1        2 0.66169578E-01 0.96440148E+02</pdfrwt>
<pdfrwt beam="2">  1       -2 0.55302371E-02 0.96440148E+02</pdfrwt>
<totfact> 0.11401948E+04</totfact>
</mgrwt>
</event>
<event>
 8    1  0.8438969E-004  0.1525433E+03  0.7546771E-02  0.1198878E+00
         -1   -1    0    0    0  501 -0.00000000000E+00  0.00000000000E+00  0.13073717856E+03  0.13073717856E+03  0.00000000000E+00 0.  1.
          1   -1    0    0  501    0  0.00000000000E+00 -0.00000000000E+00 -0.20611379097E+03  0.20611379097E+03  0.00000000000E+00 0. -1.
         23    2    1    2    0    0 -0.79705149249E+01  0.11782422363E+03  0.31010937671E+02  0.15087311651E+03  0.88628112064E+02 0.  0.
         23    2    1    2    0    0  0.79705149249E+01 -0.11782422363E+03 -0.10638755008E+03  0.18597785302E+03  0.96557621244E+02 0.  0.
          5    1    4    4  502    0  0.39584185743E+02 -0.11348288958E+03 -0.83096196978E+02  0.14619282451E+03  0.47000000000E+01 0. -1.
         -5    1    4    4    0  502 -0.31613670818E+02 -0.43413340543E+01 -0.23291353105E+02  0.39785028508E+02  0.47000000000E+01 0.  1.
          5    1    3    3  503    0 -0.25312891213E+01  0.57559454815E+02  0.60257577973E+02  0.83501880017E+02  0.47000000000E+01 0.  1.
         -5    1    3    3    0  503 -0.54392258036E+01  0.60264768815E+02 -0.29246640302E+02  0.67371236493E+02  0.47000000000E+01 0. -1.
<mgrwt>
<rscale>  0 0.15130539E+03</rscale>
<asrwt>0</asrwt>
<pdfrwt beam="1">  1        1 0.31709814E-01 0.15254328E+03</pdfrwt>
<pdfrwt beam="2">  1       -1 0.20113412E-01 0.15254328E+03</pdfrwt>
<totfact> 0.27473628E+03</totfact>
</mgrwt>
</event>
<event>
 8    1  0.8438969E-004  0.9344158E+02  0.7546771E-02  0.1296226E+00
         -1   -1    0    0    0  501 -0.00000000000E+00  0.00000000000E+00  0.26982825142E+02  0.26982825142E+02  0.00000000000E+00 0.  1.
          1   -1    0    0  501    0  0.00000000000E+00 -0.00000000000E+00 -0.31481433901E+03  0.31481433901E+03  0.00000000000E+00 0. -1.
         23    2    1    2    0    0  0.73359133493E+01 -0.64873370355E+01 -0.13964505552E+03  0.16660996300E+03  0.90345099882E+02 0.  0.
         23    2    1    2    0    0 -0.73359133493E+01  0.64873370355E+01 -0.14818645835E+03  0.17518720116E+03  0.92927002770E+02 0.  0.
          5    1    4    4  502    0 -0.32466618828E+02 -0.14904573530E+02 -0.13434358144E+03  0.13909175218E+03  0.47000000000E+01 0. -1.
         -5    1    3    3    0  503 -0.16108243403E+01  0.22877780622E+02  0.14533457354E+00  0.23411508353E+02  0.47000000000E+01 0.  1.
          5    1    3    3  503    0  0.89467376896E+01 -0.29365117658E+02 -0.13979039009E+03  0.14319845464E+03  0.47000000000E+01 0. -1.
         -5    1    4    4    0  502  0.25130705479E+02  0.21391910566E+02 -0.13842876908E+02  0.36095448973E+02  0.47000000000E+01 0.  1.
<mgrwt>
<rscale>  0 0.92793040E+02</rscale>
<asrwt>0</asrwt>
<pdfrwt beam="1">  1        1 0.48432972E-01 0.93441581E+02</pdfrwt>
<pdfrwt beam="2">  1       -1 0.41512041E-02 0.93441581E+02</pdfrwt>
<totfact> 0.17326303E+04</totfact>
</mgrwt>
</event>
<event>
 8    1  0.8438969E-004  0.1136213E+03  0.7546771E-02  0.1254169E+00
         -1   -1    0    0    0  501 -0.00000000000E+00  0.00000000000E+00  0.73235620029E+02  0.73235620029E+02  0.00000000000E+00 0.  1.
          1   -1    0    0  501    0  0.00000000000E+00 -0.00000000000E+00 -0.17995404698E+03  0.17995404698E+03  0.00000000000E+00 0. -1.
         23    2    1    2    0    0  0.41440001903E+02 -0.52718700441E+02 -0.72874837221E+02  0.13498351377E+03  0.91723889774E+02 0.  0.
         23    2    1    2    0    0 -0.41440001903E+02  0.52718700441E+02 -0.33843589729E+02  0.11820615324E+03  0.91273057164E+02 0.  0.
          5    1    4    4  502    0  0.22589945554E+02  0.41706366743E+02 -0.90960394546E+01  0.48523752955E+02  0.47000000000E+01 0. -1.
         -5    1    3    3    0  503 -0.17587339619E+02  0.12513180189E+02 -0.25094422983E+01  0.22232442375E+02  0.47000000000E+01 0.  1.
          5    1    3    3  503    0  0.59027341522E+02 -0.65231880630E+02 -0.70365394923E+02  0.11275107139E+03  0.47000000000E+01 0. -1.
         -5    1    4    4    0  502 -0.64029947458E+02  0.11012333698E+02 -0.24747550275E+02  0.69682400285E+02  0.47000000000E+01 0.  1.
<mgrwt>
<rscale>  0 0.11353031E+03</rscale>
<asrwt>0</asrwt>
<pdfrwt beam="1">  1        1 0.27685237E-01 0.11362133E+03</pdfrwt>
<pdfrwt beam="2">  1       -1 0.11267019E-01 0.11362133E+03</pdfrwt>
<totfact> 0.79266804E+03</totfact>
</mgrwt>
</event>
<event>
 8    1  0.8438969E-004  0.1078394E+03  0.7546771E-02  0.1270970E+00
          1   -1    0    0  501    0  0.00000000000E+00  0.00000000000E+00  0.17498685888E+03  0.17498685888E+03  0.00000000000E+00 0. -1.
         -1   -1    0    0    0  501 -0.00000000000E+00 -0.00000000000E+00 -0.16561906344E+03  0.16561906344E+03  0.00000000000E+00 0.  1.
         23    2    1    2    0    0  0.24429832924E+02 -0.93995802636E+01 -0.13177638033E+03  0.17027725414E+03  0.10461433946E+03 0.  0.
         23    2    1    2    0    0 -0.24429832924E+02  0.93995802636E+01  0.14114417576E+03  0.17032866818E+03  0.91678830737E+02 0.  0.
          5    1    3    3  502    0  0.37189986351E+02  0.37971424901E+02 -0.42161987326E+02  0.68004759900E+02  0.47000000000E+01 0. -1.
         -5    1    4    4    0  503 -0.34241204413E+02 -0.30455856918E+02  0.39767050714E+02  0.60856615275E+02  0.47000000000E+01 0.  1.
          5    1    4    4  503    0  0.98113714888E+01  0.39855437182E+02  0.10137712505E+03  0.10947205290E+03  0.47000000000E+01 0. -1.
         -5    1    3    3    0  502 -0.12760153427E+02 -0.47371005165E+02 -0.89614393002E+02  0.10227249424E+03  0.47000000000E+01 0.  1.
<mgrwt>
<rscale>  0 0.10456938E+03</rscale>
<asrwt>0</asrwt>
<pdfrwt beam="1">  1        1 0.26921055E-01 0.10783937E+03</pdfrwt>
<pdfrwt beam="2">  1       -1 0.25479856E-01 0.10783937E+03</pdfrwt>
<totfact> 0.22593556E+03</totfact>
</mgrwt>
</event>
<event>
 8    1  0.8438969E-004  0.1113306E+03  0.7546771E-02  0.1258349E+00
         -2   -1    0    0    0  501 -0.00000000000E+00  0.00000000000E+00  0.39330139354E+02  0.39330139354E+02  0.00000000000E+00 0.  1.
          2   -1    0    0  501    0  0.00000000000E+00 -0.00000000000E+00 -0.39368527332E+03  0.39368527332E+03  0.00000000000E+00 0. -1.
         23    2    1    2    0    0  0.34622410718E+02  0.53376442790E+02 -0.27504320457E+03  0.29672085801E+03  0.91360534326E+02 0.  0.
         23    2    1    2    0    0 -0.34622410718E+02 -0.53376442790E+02 -0.79311929400E+02  0.13629455466E+03  0.90763800696E+02 0.  0.
          5    1    3    3  502    0  0.52941048006E+02  0.31416693827E+02 -0.25268349713E+03  0.26011690244E+03  0.47000000000E+01 0. -1.
         -5    1    3    3    0  502 -0.18318637287E+02  0.21959748964E+02 -0.22359707437E+02  0.36603955569E+02  0.47000000000E+01 0.  1.
          5    1    4    4  503    0 -0.53271651791E+01  0.21400282022E+02  0.10656218605E+01  0.22573796965E+02  0.47000000000E+01 0. -1.
         -5    1    4    4    0  503 -0.29295245539E+02 -0.74776724812E+02 -0.80377551260E+02  0.11372075770E+03  0.47000000000E+01 0.  1.
<mgrwt>
<rscale>  0 0.11120811E+03</rscale>
<asrwt>0</asrwt>
<pdfrwt beam="1">  1        2 0.60566966E-01 0.11133060E+03</pdfrwt>
<pdfrwt beam="2">  1       -2 0.60507906E-02 0.11133060E+03</pdfrwt>
<totfact> 0.11070460E+04</totfact>
</mgrwt>
</event>
<event>
 8    1  0.8438969E-004  0.1367098E+03  0.7546771E-02  0.1217966E+00
          1   -1    0    0  501    0  0.00000000000E+00  0.00000000000E+00  0.11624374015E+04  0.11624374015E+04  0.00000000000E+00 0. -1.
         -1   -1    0    0    0  501 -0.00000000000E+00 -0.00000000000E+00 -0.16173723791E+02  0.16173723791E+02  0.00000000000E+00 0.  1.
         23    2    1    2    0    0  0.78780864093E+02  0.64098480444E+02  0.62773497653E+03  0.64236343233E+03  0.90909508275E+02 0.  0.
         23    2    1    2    0    0 -0.78780864093E+02 -0.64098480444E+02  0.51852870116E+03  0.53624769294E+03  0.91512482839E+02 0.  0.
          5    1    3    3  502    0 -0.51710228224E+01  0.48330568243E+02  0.17872055372E+03  0.18527198824E+03  0.47000000000E+01 0. -1.
         -5    1    4    4    0  503 -0.11042622566E+02 -0.61137508692E+02  0.16778018477E+03  0.17897490015E+03  0.47000000000E+01 0.  1.
          5    1    4    4  503    0 -0.67738241527E+02 -0.29609717525E+01  0.35074851640E+03  0.35727279280E+03  0.47000000000E+01 0. -1.
         -5    1    3    3    0  502  0.83951886915E+02  0.15767912202E+02  0.44901442281E+03  0.45709144409E+03  0.47000000000E+01 0.  1.
<mgrwt>
<rscale>  0 0.13660898E+03</rscale>
<asrwt>0</asrwt>
<pdfrwt beam="1">  1        1 0.17883646E+00 0.13670982E+03</pdfrwt>
<pdfrwt beam="2">  1       -1 0.24882661E-02 0.13670982E+03</pdfrwt>
<totfact> 0.59095767E+03</totfact>
</mgrwt>
</event>
<event>
 8    1  0.8438969E-004  0.2050573E+03  0.7546771E-02  0.1145702E+00
          2   -1    0    0  501    0  0.00000000000E+00  0.00000000000E+00  0.14657129472E+04  0.14657129472E+04  0.00000000000E+00 0. -1.
         -2   -1    0    0    0  501 -0.00000000000E+00 -0.00000000000E+00 -0.45278304568E+02  0.45278304568E+02  0.00000000000E+00 0.  1.
         23    2    1    2    0    0 -0.13087236800E+03 -0.12753324414E+03  0.25225218301E+03  0.32508407100E+03  0.93038617356E+02 0.  0.
         23    2    1    2    0    0  0.13087236800E+03  0.12753324414E+03  0.11681824597E+04  0.11859071808E+04  0.91286786287E+02 0.  0.
          5    1    3    3  502    0 -0.21663932496E+02 -0.16093713786E+02  0.11176957318E+03  0.11507763068E+03  0.47000000000E+01 0. -1.
         -5    1    4    4    0  503  0.12488665970E+02  0.66407969767E+02  0.30024622738E+03  0.30779193018E+03  0.47000000000E+01 0.  1.
          5    1    4    4  503    0  0.11838370203E+03  0.61125274377E+02  0.86793623228E+03  0.87811525062E+03  0.47000000000E+01 0. -1.
         -5    1    3    3    0  502 -0.10920843550E+03 -0.11143953036E+03  0.14048260982E+03  0.21000644032E+03  0.47000000000E+01 0.  1.
<mgrwt>
<rscale>  0 0.20485978E+03</rscale>
<asrwt>0</asrwt>
<pdfrwt beam="1">  1        2 0.22549426E+00 0.20505728E+03</pdfrwt>
<pdfrwt beam="2">  1       -2 0.69658941E-02 0.20505728E+03</pdfrwt>
<totfact> 0.16765169E+03</totfact>
</mgrwt>
</event>
<event>
 8    1  0.8438969E-004  0.9394117E+02  0.7546771E-02  0.1294083E+00
         -1   -1    0    0    0  501 -0.00000000000E+00  0.00000000000E+00  0.86927945020E+03  0.86927945020E+03  0.00000000000E+00 0.  1.
          1   -1    0    0  501    0  0.00000000000E+00 -0.00000000000E+00 -0.11789079591E+02  0.11789079591E+02  0.00000000000E+00 0. -1.
         23    2    1    2    0    0 -0.12103840408E+01 -0.31299931224E+01  0.59929853981E+03  0.60661658616E+03  0.93881206287E+02 0.  0.
         23    2    1    2    0    0  0.12103840408E+01  0.31299931224E+01  0.25819183080E+03  0.27445194364E+03  0.93003150417E+02 0.  0.
          5    1    3    3  502    0  0.44415181899E+02 -0.10547504227E+02  0.24235076814E+03  0.24665754204E+03  0.47000000000E+01 0. -1.
         -5    1    4    4    0  503 -0.24804041566E+02 -0.15058074267E+02  0.23657370360E+02  0.37732575462E+02  0.47000000000E+01 0.  1.
          5    1    4    4  503    0  0.26014425607E+02  0.18188067389E+02  0.23453446044E+03  0.23671936817E+03  0.47000000000E+01 0. -1.
         -5    1    3    3    0  502 -0.45625565940E+02  0.74175111048E+01  0.35694777167E+03  0.35995904411E+03  0.47000000000E+01 0.  1.
<mgrwt>
<rscale>  0 0.93721021E+02</rscale>
<asrwt>0</asrwt>
<pdfrwt beam="1">  1        1 0.18137052E-02 0.93941167E+02</pdfrwt>
<pdfrwt beam="2">  1       -1 0.13373525E+00 0.93941167E+02</pdfrwt>
<totfact> 0.33028279E+03</totfact>
</mgrwt>
</event>
<event>
 8    1  0.8804933E-004  0.8256357E+02  0.7546771E-02  0.1322348E+00
         -1   -1    0    0    0  501 -0.00000000000E+00  0.00000000000E+00  0.37325130735E+02  0.37325130735E+02  0.00000000000E+00 0.  1.
          1   -1    0    0  501    0  0.00000000000E+00 -0.00000000000E+00 -0.40129387118E+03  0.40129387118E+03  0.00000000000E+00 0. -1.
         23    2    1    2    0    0 -0.13542507772E+02  0.28265520833E+01 -0.34467798833E+03  0.35442863756E+03  0.81396281047E+02 0.  0.
         23    2    1    2    0    0  0.13542507772E+02 -0.28265520833E+01 -0.19290752112E+02  0.84190364354E+02  0.80774348772E+02 0.  0.
          5    1    4    4  502    0 -0.21493700745E+02  0.21555152117E+02 -0.26517980430E+02  0.40643536271E+02  0.47000000000E+01 0. -1.
         -5    1    4    4    0  502  0.35036208517E+02 -0.24381704200E+02  0.72272283178E+01  0.43546828083E+02  0.47000000000E+01 0.  1.
          5    1    3    3  503    0  0.48374870253E+01  0.36773874204E+02 -0.23726364775E+03  0.24019127305E+03  0.47000000000E+01 0. -1.
         -5    1    3    3    0  503 -0.18379994797E+02 -0.33947322120E+02 -0.10741434058E+03  0.11423736451E+03  0.47000000000E+01 0.  1.
<mgrwt>
<rscale>  0 0.82409875E+02</rscale>
<asrwt>0</asrwt>
<pdfrwt beam="1">  1        1 0.61737518E-01 0.82563572E+02</pdfrwt>
<pdfrwt beam="2">  1       -1 0.57423279E-02 0.82563572E+02</pdfrwt>
<totfact> 0.79118562E+03</totfact>
</mgrwt>
</event>
<event>
 7    1  0.8438969E-004  0.1622847E+03  0.7546771E-02  0.1203793E+00
         -1   -1    0    0    0  501 -0.00000000000E+00  0.00000000000E+00  0.10795918689E+03  0.10795918689E+03  0.00000000000E+00 0.  1.
          1   -1    0    0  501    0  0.00000000000E+00 -0.00000000000E+00 -0.17634559766E+03  0.17634559766E+03  0.00000000000E+00 0. -1.
         23    2    1    2    0    0  0.49538709423E+02  0.35353974393E+02 -0.49786174508E+02  0.12095760015E+03  0.91913495336E+02 0.  0.
          5    1    1    2  502    0  0.52498371692E+02 -0.23550995618E+02  0.46794610835E+01  0.57919908330E+02  0.47000000000E+01 0. -1.
         -5    1    1    2    0  502 -0.10203708112E+03 -0.11802978775E+02 -0.23279697343E+02  0.10542727607E+03  0.47000000000E+01 0.  1.
          5    1    3    3  503    0  0.76112338912E+02  0.25348836611E+02 -0.43940721645E+02  0.91588911288E+02  0.47000000000E+01 0. -1.
         -5    1    3    3    0  503 -0.26573629489E+02  0.10005137782E+02 -0.58454528630E+01  0.29368688861E+02  0.47000000000E+01 0.  1.
<mgrwt>
<rscale>  0 0.14732945E+03</rscale>
<asrwt>0</asrwt>
<pdfrwt beam="1">  1        1 0.27130092E-01 0.16228473E+03</pdfrwt>
<pdfrwt beam="2">  1       -1 0.16609106E-01 0.16228473E+03</pdfrwt>
<totfact> 0.45482585E+03</totfact>
</mgrwt>
</event>
<event>
 8    1  0.8438969E-004  0.1027734E+03  0.7546771E-02  0.1275506E+00
          2   -1    0    0  501    0  0.00000000000E+00  0.00000000000E+00  0.26978981377E+03  0.26978981377E+03  0.00000000000E+00 0. -1.
         -2   -1    0    0    0  501 -0.00000000000E+00 -0.00000000000E+00 -0.71723331706E+02  0.71723331706E+02  0.00000000000E+00 0.  1.
         23    2    1    2    0    0  0.34299101454E+02 -0.28407000711E+02 -0.17734557349E+02  0.10248915098E+03  0.90587667450E+02 0.  0.
         23    2    1    2    0    0 -0.34299101454E+02  0.28407000711E+02  0.21580103941E+03  0.23902399449E+03  0.92622865880E+02 0.  0.
          5    1    4    4  502    0 -0.10929408107E+02  0.60693815950E+02  0.14499284949E+03  0.15763314265E+03  0.47000000000E+01 0. -1.
         -5    1    4    4    0  502 -0.23369693348E+02 -0.32286815239E+02  0.70808189914E+02  0.81390851847E+02  0.47000000000E+01 0.  1.
          5    1    3    3  503    0 -0.26929038341E+02 -0.13617682283E+02  0.11826290249E+02  0.32750046073E+02  0.47000000000E+01 0. -1.
         -5    1    3    3    0  503  0.61228139795E+02 -0.14789318428E+02 -0.29560847598E+02  0.69739104906E+02  0.47000000000E+01 0.  1.
<mgrwt>
<rscale>  0 0.10231277E+03</rscale>
<asrwt>0</asrwt>
<pdfrwt beam="1">  1        2 0.41506125E-01 0.10277345E+03</pdfrwt>
<pdfrwt beam="2">  1       -2 0.11034359E-01 0.10277345E+03</pdfrwt>
<totfact> 0.64979947E+03</totfact>
</mgrwt>
</event>
<event>
 8    1  0.8438969E-004  0.9806150E+02  0.7546771E-02  0.1286557E+00
          1   -1    0    0  501    0  0.00000000000E+00  0.00000000000E+00  0.36022143782E+03  0.36022143782E+03  0.00000000000E+00 0. -1.
         -1   -1    0    0    0  501 -0.00000000000E+00 -0.00000000000E+00 -0.27968439859E+02  0.27968439859E+02  0.00000000000E+00 0.  1.
         23    2    1    2    0    0 -0.11878217233E+02 -0.12308158727E+02  0.21889504606E+03  0.23830297696E+03  0.92631985954E+02 0.  0.
         23    2    1    2    0    0  0.11878217233E+02  0.12308158727E+02  0.11335795190E+03  0.14988690072E+03  0.96558142756E+02 0.  0.
          5    1    3    3  502    0 -0.21857865485E+02  0.36773659918E+02  0.11704901772E+03  0.12471018762E+03  0.47000000000E+01 0. -1.
         -5    1    3    3    0  502  0.99796482516E+01 -0.49081818645E+02  0.10184602834E+03  0.11359278934E+03  0.47000000000E+01 0.  1.
          5    1    4    4  503    0 -0.64937632420E+01  0.52521980588E+02  0.54362537580E+02  0.76013833597E+02  0.47000000000E+01 0. -1.
         -5    1    4    4    0  503  0.18371980475E+02 -0.40213821862E+02  0.58995414319E+02  0.73873067121E+02  0.47000000000E+01 0.  1.
<mgrwt>
<rscale>  0 0.97081023E+02</rscale>
<asrwt>0</asrwt>
<pdfrwt beam="1">  1        1 0.55418680E-01 0.98061500E+02</pdfrwt>
<pdfrwt beam="2">  1       -1 0.43028372E-02 0.98061500E+02</pdfrwt>
<totfact> 0.13997708E+04</totfact>
</mgrwt>
</event>
<event>
 7    1  0.8438969E-004  0.1505401E+03  0.7546771E-02  0.1216303E+00
         -2   -1    0    0    0  501 -0.00000000000E+00  0.00000000000E+00  0.45461383371E+03  0.45461383371E+03  0.00000000000E+00 0.  1.
          2   -1    0    0  501    0  0.00000000000E+00 -0.00000000000E+00 -0.36398561045E+02  0.36398561045E+02  0.00000000000E+00 0. -1.
         23    2    1    2    0    0 -0.15848382025E+02 -0.35612615068E+02  0.15150940852E+03  0.18475379698E+03  0.98282425003E+02 0.  0.
          5    1    3    3  502    0  0.27474385204E+02 -0.44483502515E+02  0.11774689229E+03  0.12891875147E+03  0.47000000000E+01 0. -1.
         -5    1    3    3    0  502 -0.43322767229E+02  0.88708874468E+01  0.33762516231E+02  0.55835045507E+02  0.47000000000E+01 0.  1.
          5    1    1    2  503    0  0.69227311579E+02 -0.21069732802E+02  0.12581375179E+03  0.14521551036E+03  0.47000000000E+01 0. -1.
         -5    1    1    2    0  503 -0.53378929554E+02  0.56682347870E+02  0.14089211235E+03  0.16104308741E+03  0.47000000000E+01 0.  1.
<mgrwt>
<rscale>  0 0.13781255E+03</rscale>
<asrwt>0</asrwt>
<pdfrwt beam="1">  1        2 0.55997789E-02 0.15054006E+03</pdfrwt>
<pdfrwt beam="2">  1       -2 0.69940586E-01 0.15054006E+03</pdfrwt>
<totfact> 0.24953556E+03</totfact>
</mgrwt>
</event>
<event>
 8    1  0.8438969E-004  0.1240870E+03  0.7546771E-02  0.1237458E+00
         -1   -1    0    0    0  501 -0.00000000000E+00  0.00000000000E+00  0.85737728956E+02  0.85737728956E+02  0.00000000000E+00 0.  1.
          1   -1    0    0  501    0  0.00000000000E+00 -0.00000000000E+00 -0.20633994991E+03  0.20633994991E+03  0.00000000000E+00 0. -1.
         23    2    1    2    0    0 -0.37162648691E+02  0.70735895342E+02 -0.39310478853E+01  0.12175520491E+03  0.91783699195E+02 0.  0.
         23    2    1    2    0    0  0.37162648691E+02 -0.70735895342E+02 -0.11667117307E+03  0.17032247396E+03  0.94936574414E+02 0.  0.
          5    1    4    4  502    0 -0.22956130438E+02 -0.56851900938E+02 -0.67286299771E+02  0.91151844204E+02  0.47000000000E+01 0. -1.
         -5    1    4    4    0  502  0.60118779129E+02 -0.13883994403E+02 -0.49384873302E+02  0.79170629754E+02  0.47000000000E+01 0.  1.
          5    1    3    3  503    0 -0.19441308651E+01  0.26814411303E+02 -0.44500833349E+02  0.52203510103E+02  0.47000000000E+01 0. -1.
         -5    1    3    3    0  503 -0.35218517826E+02  0.43921484039E+02  0.40569785464E+02  0.69551694808E+02  0.47000000000E+01 0.  1.
<mgrwt>
<rscale>  0 0.12348379E+03</rscale>
<asrwt>0</asrwt>
<pdfrwt beam="1">  1        1 0.31744607E-01 0.12408700E+03</pdfrwt>
<pdfrwt beam="2">  1       -1 0.13190420E-01 0.12408700E+03</pdfrwt>
<totfact> 0.52818274E+03</totfact>
</mgrwt>
</event>
<event>
 8    1  0.8438969E-004  0.9918794E+02  0.7546771E-02  0.1282835E+00
         -1   -1    0    0    0  501 -0.00000000000E+00  0.00000000000E+00  0.35060651036E+02  0.35060651036E+02  0.00000000000E+00 0.  1.
          1   -1    0    0  501    0  0.00000000000E+00 -0.00000000000E+00 -0.30108587133E+03  0.30108587133E+03  0.00000000000E+00 0. -1.
         23    2    1    2    0    0  0.10818653350E+02  0.36975952193E+02 -0.83821579035E+02  0.12869432380E+03  0.89732422043E+02 0.  0.
         23    2    1    2    0    0 -0.10818653350E+02 -0.36975952193E+02 -0.18220364126E+03  0.20745219857E+03  0.91400128561E+02 0.  0.
          5    1    3    3  502    0 -0.28982782493E+02 -0.84745189403E+01 -0.51836042650E+02  0.60173785571E+02  0.47000000000E+01 0. -1.
         -5    1    4    4    0  503 -0.15396254539E+02  0.27554720196E+02 -0.83018659111E+02  0.88940963676E+02  0.47000000000E+01 0.  1.
          5    1    4    4  503    0  0.45776011894E+01 -0.64530672389E+02 -0.99184982149E+02  0.11851123489E+03  0.47000000000E+01 0. -1.
         -5    1    3    3    0  502  0.39801435843E+02  0.45450471133E+02 -0.31985536384E+02  0.68520538229E+02  0.47000000000E+01 0.  1.
<mgrwt>
<rscale>  0 0.98802041E+02</rscale>
<asrwt>0</asrwt>
<pdfrwt beam="1">  1        1 0.46320902E-01 0.99187942E+02</pdfrwt>
<pdfrwt beam="2">  1       -1 0.53939465E-02 0.99187942E+02</pdfrwt>
<totfact> 0.12545879E+04</totfact>
</mgrwt>
</event>
<event>
 8    1  0.8438969E-004  0.9944756E+02  0.7546771E-02  0.1282242E+00
         -3   -1    0    0    0  501 -0.00000000000E+00  0.00000000000E+00  0.90539347944E+02  0.90539347944E+02  0.00000000000E+00 0.  1.
          3   -1    0    0  501    0  0.00000000000E+00 -0.00000000000E+00 -0.11574964872E+03  0.11574964872E+03  0.00000000000E+00 0. -1.
         23    2    1    2    0    0  0.38468247800E+02  0.41888069902E+01 -0.40003048867E+02  0.10719170688E+03  0.91610402856E+02 0.  0.
         23    2    1    2    0    0 -0.38468247800E+02 -0.41888069902E+01  0.14792748090E+02  0.99097289789E+02  0.90022748540E+02 0.  0.
          5    1    4    4  502    0  0.13366135153E+01 -0.40913590576E+02  0.17273906567E+02  0.44678700492E+02  0.47000000000E+01 0. -1.
         -5    1    3    3    0  503  0.24671829419E+02 -0.11309414008E+02  0.25979987987E+02  0.37863594492E+02  0.47000000000E+01 0.  1.
          5    1    3    3  503    0  0.13796418381E+02  0.15498220998E+02 -0.65983036854E+02  0.69328112384E+02  0.47000000000E+01 0. -1.
         -5    1    4    4    0  502 -0.39804861315E+02  0.36724783586E+02 -0.24811584774E+01  0.54418589298E+02  0.47000000000E+01 0.  1.
<mgrwt>
<rscale>  0 0.99080389E+02</rscale>
<asrwt>0</asrwt>
<pdfrwt beam="1">  1        3 0.17807638E-01 0.99447565E+02</pdfrwt>
<pdfrwt beam="2">  1       -3 0.13929130E-01 0.99447565E+02</pdfrwt>
<totfact> 0.25031981E+03</totfact>
</mgrwt>
</event>
<event>
 8    1  0.8438969E-004  0.9585367E+02  0.7546771E-02  0.1290828E+00
          1   -1    0    0  501    0  0.00000000000E+00  0.00000000000E+00  0.46182183743E+02  0.46182183743E+02  0.00000000000E+00 0. -1.
         -1   -1    0    0    0  501 -0.00000000000E+00 -0.00000000000E+00 -0.20287805246E+03  0.20287805246E+03  0.00000000000E+00 0.  1.
         23    2    1    2    0    0 -0.31599146197E+01  0.20097369455E+02 -0.52315227014E+02  0.10920076982E+03  0.93669823487E+02 0.  0.
         23    2    1    2    0    0  0.31599146197E+01 -0.20097369455E+02 -0.10438064170E+03  0.13985946638E+03  0.90837561918E+02 0.  0.
          5    1    3    3  502    0  0.45040201779E+02  0.97474457920E+01 -0.24520865123E+02  0.52411785908E+02  0.47000000000E+01 0. -1.
         -5    1    3    3    0  502 -0.48200116399E+02  0.10349923663E+02 -0.27794361891E+02  0.56788983910E+02  0.47000000000E+01 0.  1.
          5    1    4    4  503    0  0.51765741547E+01  0.36042956042E+02 -0.41027617273E+02  0.55056761432E+02  0.47000000000E+01 0. -1.
         -5    1    4    4    0  503 -0.20166595350E+01 -0.56140325497E+02 -0.63353024428E+02  0.84802704950E+02  0.47000000000E+01 0.  1.
<mgrwt>
<rscale>  0 0.95154607E+02</rscale>
<asrwt>0</asrwt>
<pdfrwt beam="1">  1        1 0.71049515E-02 0.95853665E+02</pdfrwt>
<pdfrwt beam="2">  1       -1 0.31212007E-01 0.95853665E+02</pdfrwt>
<totfact> 0.89192246E+03</totfact>
</mgrwt>
</event>
<event>
 8    1  0.8438969E-004  0.1149062E+03  0.7546771E-02  0.1251931E+00
         -2   -1    0    0    0  501 -0.00000000000E+00  0.00000000000E+00  0.54376195641E+02  0.54376195641E+02  0.00000000000E+00 0.  1.
          2   -1    0    0  501    0  0.00000000000E+00 -0.00000000000E+00 -0.36114026468E+03  0.36114026468E+03  0.00000000000E+00 0. -1.
         23    2    1    2    0    0 -0.65988003906E+02 -0.24432235680E+02 -0.34202656953E+02  0.11988847076E+03  0.90840920728E+02 0.  0.
         23    2    1    2    0    0  0.65988003906E+02  0.24432235680E+02 -0.27256141209E+03  0.29562798956E+03  0.90304119803E+02 0.  0.
          5    1    3    3  502    0 -0.44919442661E+02 -0.31251128067E+02 -0.62791504292E+02  0.83422133428E+02  0.47000000000E+01 0. -1.
         -5    1    3    3    0  502 -0.21068561244E+02  0.68188923870E+01  0.28588847338E+02  0.36466337332E+02  0.47000000000E+01 0.  1.
          5    1    4    4  503    0  0.75481421302E+02  0.47026595503E+02 -0.22337802642E+03  0.24047614920E+03  0.47000000000E+01 0. -1.
         -5    1    4    4    0  503 -0.94934173959E+01 -0.22594359824E+02 -0.49183385670E+02  0.55151840365E+02  0.47000000000E+01 0.  1.
<mgrwt>
<rscale>  0 0.11480003E+03</rscale>
<asrwt>0</asrwt>
<pdfrwt beam="1">  1        2 0.55560044E-01 0.11490615E+03</pdfrwt>
<pdfrwt beam="2">  1       -2 0.83655681E-02 0.11490615E+03</pdfrwt>
<totfact> 0.74171096E+03</totfact>
</mgrwt>
</event>
<event>
 8    1  0.8438969E-004  0.1876832E+03  0.7546771E-02  0.1160833E+00
          1   -1    0    0  501    0  0.00000000000E+00  0.00000000000E+00  0.40044268086E+03  0.40044268086E+03  0.00000000000E+00 0. -1.
         -1   -1    0    0    0  501 -0.00000000000E+00 -0.00000000000E+00 -0.11671875033E+03  0.11671875033E+03  0.00000000000E+00 0.  1.
         23    2    1    2    0    0  0.64530687912E+02  0.14957431874E+03  0.11992679917E+02  0.18691478732E+03  0.90865982832E+02 0.  0.
         23    2    1    2    0    0 -0.64530687912E+02 -0.14957431874E+03  0.27173125061E+03  0.33024664387E+03  0.93210979615E+02 0.  0.
          5    1    3    3  502    0  0.74205406474E+02  0.93114479205E+02  0.36219873408E+02  0.12454203233E+03  0.47000000000E+01 0. -1.
         -5    1    3    3    0  502 -0.96747185621E+01  0.56459839538E+02 -0.24227193491E+02  0.62372754985E+02  0.47000000000E+01 0.  1.
          5    1    4    4  503    0 -0.50186780831E+02 -0.99577084282E+02  0.24980687019E+03  0.27360531991E+03  0.47000000000E+01 0. -1.
         -5    1    4    4    0  503 -0.14343907080E+02 -0.49997234462E+02  0.21924380417E+02  0.56641323968E+02  0.47000000000E+01 0.  1.
<mgrwt>
<rscale>  0 0.18739413E+03</rscale>
<asrwt>0</asrwt>
<pdfrwt beam="1">  1        1 0.61606565E-01 0.18768317E+03</pdfrwt>
<pdfrwt beam="2">  1       -1 0.17956731E-01 0.18768317E+03</pdfrwt>
<totfact> 0.14458816E+03</totfact>
</mgrwt>
</event>
<event>
 8    1  0.8438969E-004  0.1167274E+03  0.7546771E-02  0.1258674E+00
          2   -1    0    0  501    0  0.00000000000E+00  0.00000000000E+00  0.12644992920E+03  0.12644992920E+03  0.00000000000E+00 0. -1.
         -2   -1    0    0    0  501 -0.00000000000E+00 -0.00000000000E+00 -0.15243762981E+03  0.15243762981E+03  0.00000000000E+00 0.  1.
         23    2    1    2    0    0 -0.22166113557E+02  0.50748565777E+01 -0.10337935293E+03  0.15592490426E+03  0.11449102321E+03 0.  0.
         23    2    1    2    0    0  0.22166113557E+02 -0.50748565777E+01  0.77391652322E+02  0.12296265476E+03  0.92807628229E+02 0.  0.
          5    1    3    3  502    0 -0.46550458732E+02 -0.28669227613E+02 -0.13124908446E+02  0.56420058861E+02  0.47000000000E+01 0. -1.
         -5    1    4    4    0  503 -0.16267801771E+02 -0.18648493500E+02  0.77959864978E+02  0.81928250510E+02  0.47000000000E+01 0.  1.
          5    1    4    4  503    0  0.38433915327E+02  0.13573636923E+02 -0.56821265548E+00  0.41034404252E+02  0.47000000000E+01 0. -1.
         -5    1    3    3    0  502  0.24384345176E+02  0.33744084191E+02 -0.90254444487E+02  0.99504845396E+02  0.47000000000E+01 0.  1.
<mgrwt>
<rscale>  0 0.11103004E+03</rscale>
<asrwt>0</asrwt>
<pdfrwt beam="1">  1        2 0.19453835E-01 0.11672740E+03</pdfrwt>
<pdfrwt beam="2">  1       -2 0.23451943E-01 0.11672740E+03</pdfrwt>
<totfact> 0.43244025E+03</totfact>
</mgrwt>
</event>
<event>
 8    1  0.8438969E-004  0.1117610E+03  0.7546771E-02  0.1260469E+00
         -2   -1    0    0    0  501 -0.00000000000E+00  0.00000000000E+00  0.13087430523E+03  0.13087430523E+03  0.00000000000E+00 0.  1.
          2   -1    0    0  501    0  0.00000000000E+00 -0.00000000000E+00 -0.33069101261E+03  0.33069101261E+03  0.00000000000E+00 0. -1.
         23    2    1    2    0    0 -0.24476750711E+02  0.49884635777E+02  0.96191298801E+02  0.14745605914E+03  0.96968733105E+02 0.  0.
         23    2    1    2    0    0  0.24476750711E+02 -0.49884635777E+02 -0.29600800617E+03  0.31410925870E+03  0.89198085571E+02 0.  0.
          5    1    3    3  502    0  0.21564996023E+02 -0.11150218233E+02  0.30296447859E+00  0.24729702942E+02  0.47000000000E+01 0. -1.
         -5    1    4    4    0  503  0.82335028407E+01 -0.22642776164E+02 -0.10321480402E+02  0.26629097603E+02  0.47000000000E+01 0.  1.
          5    1    4    4  503    0  0.16243247870E+02 -0.27241859613E+02 -0.28568652577E+03  0.28748016110E+03  0.47000000000E+01 0. -1.
         -5    1    3    3    0  502 -0.46041746734E+02  0.61034854010E+02  0.95888334322E+02  0.12272635620E+03  0.47000000000E+01 0.  1.
<mgrwt>
<rscale>  0 0.11005454E+03</rscale>
<asrwt>0</asrwt>
<pdfrwt beam="1">  1        2 0.50875540E-01 0.11176101E+03</pdfrwt>
<pdfrwt beam="2">  1       -2 0.20134509E-01 0.11176101E+03</pdfrwt>
<totfact> 0.19830391E+03</totfact>
</mgrwt>
</event>
<event>
 8    1  0.8438969E-004  0.1075754E+03  0.7546771E-02  0.1265867E+00
          1   -1    0    0  501    0  0.00000000000E+00  0.00000000000E+00  0.33918773498E+03  0.33918773498E+03  0.00000000000E+00 0. -1.
         -1   -1    0    0    0  501 -0.00000000000E+00 -0.00000000000E+00 -0.47527057619E+02  0.47527057619E+02  0.00000000000E+00 0.  1.
         23    2    1    2    0    0  0.63108625115E+00 -0.58082451811E+02  0.25112197552E+03  0.27319352797E+03  0.90545500480E+02 0.  0.
         23    2    1    2    0    0 -0.63108625115E+00  0.58082451811E+02  0.40538701849E+02  0.11352126464E+03  0.88711451905E+02 0.  0.
          5    1    4    4  502    0  0.32209455698E+02  0.14004177308E+01  0.34680024114E+02  0.47583655584E+02  0.47000000000E+01 0. -1.
         -5    1    3    3    0  503 -0.31977246707E+02  0.57448731522E+01  0.51817685562E+02  0.61340935855E+02  0.47000000000E+01 0.  1.
          5    1    3    3  503    0  0.32608332958E+02 -0.63827324963E+02  0.19930428995E+03  0.21185259211E+03  0.47000000000E+01 0. -1.
         -5    1    4    4    0  502 -0.32840541949E+02  0.56682034080E+02  0.58586777355E+01  0.65937609054E+02  0.47000000000E+01 0.  1.
<mgrwt>
<rscale>  0 0.10718850E+03</rscale>
<asrwt>0</asrwt>
<pdfrwt beam="1">  1        1 0.52182727E-01 0.10757536E+03</pdfrwt>
<pdfrwt beam="2">  1       -1 0.73118552E-02 0.10757536E+03</pdfrwt>
<totfact> 0.69498462E+03</totfact>
</mgrwt>
</event>
<event>
 8    1  0.8438969E-004  0.9793104E+02  0.7546771E-02  0.1287455E+00
          2   -1    0    0  501    0  0.00000000000E+00  0.00000000000E+00  0.17583812347E+03  0.17583812347E+03  0.00000000000E+00 0. -1.
         -2   -1    0    0    0  501 -0.00000000000E+00 -0.00000000000E+00 -0.58003668334E+02  0.58003668334E+02  0.00000000000E+00 0.  1.
         23    2    1    2    0    0 -0.26550223539E+02  0.57550146314E+00  0.19403843814E+02  0.94992690490E+02  0.89117094431E+02 0.  0.
         23    2    1    2    0    0  0.26550223539E+02 -0.57550146314E+00  0.98430611326E+02  0.13884910132E+03  0.94261562255E+02 0.  0.
          5    1    4    4  502    0  0.24401200633E+02  0.37094665294E+02  0.89156202036E+02  0.99711339110E+02  0.47000000000E+01 0. -1.
         -5    1    4    4    0  502  0.21490229061E+01 -0.37670166757E+02  0.92744092908E+01  0.39137762208E+02  0.47000000000E+01 0.  1.
          5    1    3    3  503    0  0.30136404989E+02 -0.13423964516E+01  0.22607100157E+02  0.37989155182E+02  0.47000000000E+01 0. -1.
         -5    1    3    3    0  503 -0.56686628529E+02  0.19178979148E+01 -0.32032563433E+01  0.57003535308E+02  0.47000000000E+01 0.  1.
<mgrwt>
<rscale>  0 0.96671639E+02</rscale>
<asrwt>0</asrwt>
<pdfrwt beam="1">  1        2 0.27052019E-01 0.97931035E+02</pdfrwt>
<pdfrwt beam="2">  1       -2 0.89236413E-02 0.97931035E+02</pdfrwt>
<totfact> 0.14211640E+04</totfact>
</mgrwt>
</event>
<event>
 8    1  0.8438969E-004  0.9623198E+02  0.7546771E-02  0.1288699E+00
         -1   -1    0    0    0  501 -0.00000000000E+00  0.00000000000E+00  0.23157377549E+02  0.23157377549E+02  0.00000000000E+00 0.  1.
          1   -1    0    0  501    0  0.00000000000E+00 -0.00000000000E+00 -0.39855219096E+03  0.39855219096E+03  0.00000000000E+00 0. -1.
         23    2    1    2    0    0 -0.22839691276E+02 -0.14468027128E+02 -0.17934768415E+03  0.20353423621E+03  0.92355932105E+02 0.  0.
         23    2    1    2    0    0  0.22839691276E+02  0.14468027128E+02 -0.19604712926E+03  0.21817533229E+03  0.91842383590E+02 0.  0.
          5    1    4    4  502    0 -0.28918998946E+02  0.22691694017E+02 -0.45406370714E+02  0.58609299422E+02  0.47000000000E+01 0. -1.
         -5    1    4    4    0  502  0.51758690222E+02 -0.82236668895E+01 -0.15064075855E+03  0.15956603287E+03  0.47000000000E+01 0.  1.
          5    1    3    3  503    0 -0.54100935535E+02 -0.28278696723E+01 -0.14738473403E+03  0.15709633318E+03  0.47000000000E+01 0. -1.
         -5    1    3    3    0  503  0.31261244259E+02 -0.11640157455E+02 -0.31962950122E+02  0.46437903039E+02  0.47000000000E+01 0.  1.
<mgrwt>
<rscale>  0 0.96108552E+02</rscale>
<asrwt>0</asrwt>
<pdfrwt beam="1">  1        1 0.61315722E-01 0.96231978E+02</pdfrwt>
<pdfrwt beam="2">  1       -1 0.35626735E-02 0.96231978E+02</pdfrwt>
<totfact> 0.16219916E+04</totfact>
</mgrwt>
</event>
<event>
 8    1  0.8438969E-004  0.1027097E+03  0.7546771E-02  0.1275513E+00
          1   -1    0    0  501    0  0.00000000000E+00  0.00000000000E+00  0.82455106112E+02  0.82455106112E+02  0.00000000000E+00 0. -1.
         -1   -1    0    0    0  501 -0.00000000000E+00 -0.00000000000E+00 -0.12911800040E+03  0.12911800040E+03  0.00000000000E+00 0.  1.
         23    2    1    2    0    0  0.45016489672E+02  0.12060847033E+02 -0.40038418058E+02  0.11023773428E+03  0.91527781378E+02 0.  0.
         23    2    1    2    0    0 -0.45016489672E+02 -0.12060847033E+02 -0.66244762278E+01  0.10133537223E+03  0.89738651689E+02 0.  0.
          5    1    3    3  502    0  0.70066036921E+02  0.80226003587E+01 -0.11238031893E+02  0.71568114458E+02  0.47000000000E+01 0. -1.
         -5    1    3    3    0  502 -0.25049547249E+02  0.40382466746E+01 -0.28800386165E+02  0.38669619817E+02  0.47000000000E+01 0.  1.
          5    1    4    4  503    0 -0.19511998951E+02 -0.10593927046E+02  0.41128758128E+02  0.46974611637E+02  0.47000000000E+01 0. -1.
         -5    1    4    4    0  503 -0.25504490721E+02 -0.14669199869E+01 -0.47753234356E+02  0.54360760597E+02  0.47000000000E+01 0.  1.
<mgrwt>
<rscale>  0 0.10230960E+03</rscale>
<asrwt>0</asrwt>
<pdfrwt beam="1">  1        1 0.12685401E-01 0.10270970E+03</pdfrwt>
<pdfrwt beam="2">  1       -1 0.19864308E-01 0.10270970E+03</pdfrwt>
<totfact> 0.87392397E+03</totfact>
</mgrwt>
</event>
<event>
 8    1  0.8438969E-004  0.9700336E+02  0.7546771E-02  0.1288405E+00
          1   -1    0    0  501    0  0.00000000000E+00  0.00000000000E+00  0.20357849467E+03  0.20357849467E+03  0.00000000000E+00 0. -1.
         -1   -1    0    0    0  501 -0.00000000000E+00 -0.00000000000E+00 -0.44226929447E+03  0.44226929447E+03  0.00000000000E+00 0.  1.
         23    2    1    2    0    0  0.20484582516E+02  0.14748804694E+02 -0.42528396620E+03  0.43554643121E+03  0.90537817889E+02 0.  0.
         23    2    1    2    0    0 -0.20484582516E+02 -0.14748804694E+02  0.18659316640E+03  0.21030135794E+03  0.93661657272E+02 0.  0.
          5    1    4    4  502    0 -0.39380629453E+02 -0.44876386699E+02  0.13234509345E+03  0.14526540476E+03  0.47000000000E+01 0. -1.
         -5    1    4    4    0  502  0.18896046937E+02  0.30127582005E+02  0.54248072947E+02  0.65035953178E+02  0.47000000000E+01 0.  1.
          5    1    3    3  503    0 -0.17133960494E+02 -0.30215495797E+02 -0.16982571762E+03  0.17340534350E+03  0.47000000000E+01 0. -1.
         -5    1    3    3    0  503  0.37618543011E+02  0.44964300491E+02 -0.25545824858E+03  0.26214108771E+03  0.47000000000E+01 0.  1.
<mgrwt>
<rscale>  0 0.96241246E+02</rscale>
<asrwt>0</asrwt>
<pdfrwt beam="1">  1        1 0.31319769E-01 0.97003358E+02</pdfrwt>
<pdfrwt beam="2">  1       -1 0.68041429E-01 0.97003358E+02</pdfrwt>
<totfact> 0.33065736E+02</totfact>
</mgrwt>
</event>
<event>
 8    1  0.8438969E-004  0.1109730E+03  0.7546771E-02  0.1259965E+00
          2   -1    0    0  501    0  0.00000000000E+00  0.00000000000E+00  0.36942305504E+03  0.36942305504E+03  0.00000000000E+00 0. -1.
         -2   -1    0    0    0  501 -0.00000000000E+00 -0.00000000000E+00 -0.39830458586E+02  0.39830458586E+02  0.00000000000E+00 0.  1.
         23    2    1    2    0    0 -0.47322694142E+02 -0.35293471803E+02  0.25372455763E+03  0.27693169638E+03  0.93967796521E+02 0.  0.
         23    2    1    2    0    0  0.47322694142E+02  0.35293471803E+02  0.75868038826E+02  0.13232181725E+03  0.90928749422E+02 0.  0.
          5    1    3    3  502    0  0.96808896145E+01 -0.24584067198E+02  0.14045239311E+02  0.30289515199E+02  0.47000000000E+01 0.  1.
         -5    1    4    4    0  503  0.72892724695E+02  0.36793028981E+02  0.51459063136E+02  0.96629195763E+02  0.47000000000E+01 0.  1.
          5    1    4    4  503    0 -0.25570030552E+02 -0.14995571772E+01  0.24408975690E+02  0.35692621484E+02  0.47000000000E+01 0. -1.
         -5    1    3    3    0  502 -0.57003583757E+02 -0.10709404606E+02  0.23967931831E+03  0.24664218118E+03  0.47000000000E+01 0. -1.
<mgrwt>
<rscale>  0 0.11032709E+03</rscale>
<asrwt>0</asrwt>
<pdfrwt beam="1">  1        2 0.56834314E-01 0.11097303E+03</pdfrwt>
<pdfrwt beam="2">  1       -2 0.61277631E-02 0.11097303E+03</pdfrwt>
<totfact> 0.11614115E+04</totfact>
</mgrwt>
</event>
<event>
 8    1  0.8438969E-004  0.9277879E+02  0.7546771E-02  0.1300748E+00
         -2   -1    0    0    0  501 -0.00000000000E+00  0.00000000000E+00  0.18063561874E+02  0.18063561874E+02  0.00000000000E+00 0.  1.
          2   -1    0    0  501    0  0.00000000000E+00 -0.00000000000E+00 -0.45384873753E+03  0.45384873753E+03  0.00000000000E+00 0. -1.
         23    2    1    2    0    0 -0.12879141652E+02  0.73879654839E+01 -0.26877999311E+03  0.28434238034E+03  0.91583023715E+02 0.  0.
         23    2    1    2    0    0  0.12879141652E+02 -0.73879654839E+01 -0.16700518255E+03  0.18756991907E+03  0.84090958014E+02 0.  0.
          5    1    4    4  502    0  0.45855845307E+02 -0.61347768788E+01 -0.62664799701E+02  0.78034358828E+02  0.47000000000E+01 0. -1.
         -5    1    3    3    0  503 -0.31023292528E+02 -0.12347778188E+02 -0.33632931300E+02  0.47625375309E+02  0.47000000000E+01 0.  1.
          5    1    3    3  503    0  0.18144150876E+02  0.19735743672E+02 -0.23514706181E+03  0.23671700503E+03  0.47000000000E+01 0. -1.
         -5    1    4    4    0  502 -0.32976703655E+02 -0.12531886051E+01 -0.10434038284E+03  0.10953556024E+03  0.47000000000E+01 0.  1.
<mgrwt>
<rscale>  0 0.90874171E+02</rscale>
<asrwt>0</asrwt>
<pdfrwt beam="1">  1        2 0.69822875E-01 0.92778794E+02</pdfrwt>
<pdfrwt beam="2">  1       -2 0.27790098E-02 0.92778794E+02</pdfrwt>
<totfact> 0.29532954E+04</totfact>
</mgrwt>
</event>
<event>
 8    1  0.8438969E-004  0.9890861E+02  0.7546771E-02  0.1284066E+00
         -1   -1    0    0    0  501 -0.00000000000E+00  0.00000000000E+00  0.43855131411E+03  0.43855131411E+03  0.00000000000E+00 0.  1.
          1   -1    0    0  501    0  0.00000000000E+00 -0.00000000000E+00 -0.24480286670E+02  0.24480286670E+02  0.00000000000E+00 0. -1.
         23    2    1    2    0    0 -0.25685645195E+02 -0.22639472507E+02  0.28752867070E+03  0.30406520691E+03  0.92793402209E+02 0.  0.
         23    2    1    2    0    0  0.25685645195E+02  0.22639472507E+02  0.12654235673E+03  0.15896639386E+03  0.89916896334E+02 0.  0.
          5    1    4    4  502    0  0.56680372305E+02  0.29565428303E+02  0.85369758442E+02  0.10675609965E+03  0.47000000000E+01 0. -1.
         -5    1    3    3    0  503 -0.59299605291E+02 -0.65367429755E+01  0.20133446038E+03  0.21004006078E+03  0.47000000000E+01 0.  1.
          5    1    3    3  503    0  0.33613960095E+02 -0.16102729531E+02  0.86194210319E+02  0.94025146127E+02  0.47000000000E+01 0. -1.
         -5    1    4    4    0  502 -0.30994727110E+02 -0.69259557961E+01  0.41172598290E+02  0.52210294217E+02  0.47000000000E+01 0.  1.
<mgrwt>
<rscale>  0 0.98228247E+02</rscale>
<asrwt>0</asrwt>
<pdfrwt beam="1">  1        1 0.37661983E-02 0.98908612E+02</pdfrwt>
<pdfrwt beam="2">  1       -1 0.67469427E-01 0.98908612E+02</pdfrwt>
<totfact> 0.53109948E+03</totfact>
</mgrwt>
</event>
<event>
 8    1  0.8438969E-004  0.9476251E+02  0.7546771E-02  0.1292692E+00
         -1   -1    0    0    0  501 -0.00000000000E+00  0.00000000000E+00  0.15082013736E+03  0.15082013736E+03  0.00000000000E+00 0.  1.
          1   -1    0    0  501    0  0.00000000000E+00 -0.00000000000E+00 -0.61144694325E+02  0.61144694325E+02  0.00000000000E+00 0. -1.
         23    2    1    2    0    0 -0.27907038002E+01 -0.18007846570E+02  0.23049637043E+02  0.97525483671E+02  0.92993890293E+02 0.  0.
         23    2    1    2    0    0  0.27907038002E+01  0.18007846570E+02  0.66625805994E+02  0.11443934802E+03  0.91243058827E+02 0.  0.
          5    1    4    4  502    0 -0.18952439336E+02  0.36746622791E+02 -0.14035986197E+00  0.41612725749E+02  0.47000000000E+01 0. -1.
         -5    1    3    3    0  503  0.33935436507E+02 -0.10752632014E+02  0.42038958224E+02  0.55286498847E+02  0.47000000000E+01 0.  1.
          5    1    3    3  503    0 -0.36726140307E+02 -0.72552145563E+01 -0.18989321182E+02  0.42238984825E+02  0.47000000000E+01 0. -1.
         -5    1    4    4    0  502  0.21743143136E+02 -0.18738776221E+02  0.66766165856E+02  0.72826622267E+02  0.47000000000E+01 0.  1.
<mgrwt>
<rscale>  0 0.94330179E+02</rscale>
<asrwt>0</asrwt>
<pdfrwt beam="1">  1        1 0.94068761E-02 0.94762515E+02</pdfrwt>
<pdfrwt beam="2">  1       -1 0.23203098E-01 0.94762515E+02</pdfrwt>
<totfact> 0.99955004E+03</totfact>
</mgrwt>
</event>
<event>
 8    1  0.8438969E-004  0.1241562E+03  0.7546771E-02  0.1247526E+00
         -2   -1    0    0    0  501 -0.00000000000E+00  0.00000000000E+00  0.23014513078E+03  0.23014513078E+03  0.00000000000E+00 0.  1.
          2   -1    0    0  501    0  0.00000000000E+00 -0.00000000000E+00 -0.10319805350E+03  0.10319805350E+03  0.00000000000E+00 0. -1.
         23    2    1    2    0    0  0.19203130730E+02  0.35034859360E+02 -0.47319212091E+02  0.13286791226E+03  0.11755242522E+03 0.  0.
         23    2    1    2    0    0 -0.19203130730E+02 -0.35034859360E+02  0.17426628938E+03  0.20047527202E+03  0.90693955033E+02 0.  0.
          5    1    4    4  502    0  0.35668924292E+02 -0.15408818490E+02  0.87439728710E+02  0.95799269331E+02  0.47000000000E+01 0. -1.
         -5    1    3    3    0  503  0.12224925301E+02  0.70907480589E+02  0.98654743001E+00  0.72113680242E+02  0.47000000000E+01 0.  1.
          5    1    3    3  503    0  0.69782054294E+01 -0.35872621230E+02 -0.48305759521E+02  0.60754232016E+02  0.47000000000E+01 0. -1.
         -5    1    4    4    0  502 -0.54872055022E+02 -0.19626040869E+02  0.86826560667E+02  0.10467600269E+03  0.47000000000E+01 0.  1.
<mgrwt>
<rscale>  0 0.11735435E+03</rscale>
<asrwt>0</asrwt>
<pdfrwt beam="1">  1        2 0.15876624E-01 0.12415625E+03</pdfrwt>
<pdfrwt beam="2">  1       -2 0.35406943E-01 0.12415625E+03</pdfrwt>
<totfact> 0.26277304E+03</totfact>
</mgrwt>
</event>
<event>
 8    1  0.8438969E-004  0.9712189E+02  0.7546771E-02  0.1286685E+00
         -1   -1    0    0    0  501 -0.00000000000E+00  0.00000000000E+00  0.42784503637E+03  0.42784503637E+03  0.00000000000E+00 0.  1.
          1   -1    0    0  501    0  0.00000000000E+00 -0.00000000000E+00 -0.22136223631E+02  0.22136223631E+02  0.00000000000E+00 0. -1.
         23    2    1    2    0    0 -0.10203032943E+02 -0.30520825282E+02  0.22270254456E+03  0.24280028447E+03  0.91213661951E+02 0.  0.
         23    2    1    2    0    0  0.10203032943E+02  0.30520825282E+02  0.18300626818E+03  0.20718097553E+03  0.91635363117E+02 0.  0.
          5    1    3    3  502    0 -0.43570314934E+02  0.71494641666E+00  0.63917689209E+02  0.77501254735E+02  0.47000000000E+01 0. -1.
         -5    1    4    4    0  503  0.12009488076E+02 -0.26286245292E+02  0.22747869967E+02  0.37077622408E+02  0.47000000000E+01 0.  1.
          5    1    4    4  503    0 -0.18064551336E+01  0.56807070574E+02  0.16025839821E+03  0.17010335313E+03  0.47000000000E+01 0. -1.
         -5    1    3    3    0  502  0.33367281991E+02 -0.31235771699E+02  0.15878485535E+03  0.16529902973E+03  0.47000000000E+01 0.  1.
<mgrwt>
<rscale>  0 0.97022297E+02</rscale>
<asrwt>0</asrwt>
<pdfrwt beam="1">  1        1 0.34055732E-02 0.97121895E+02</pdfrwt>
<pdfrwt beam="2">  1       -1 0.65822307E-01 0.97121895E+02</pdfrwt>
<totfact> 0.63826153E+03</totfact>
</mgrwt>
</event>
<event>
 8    1  0.8438969E-004  0.9281716E+02  0.7546771E-02  0.1296218E+00
          2   -1    0    0  501    0  0.00000000000E+00  0.00000000000E+00  0.20780618709E+03  0.20780618709E+03  0.00000000000E+00 0.  1.
         -2   -1    0    0    0  501 -0.00000000000E+00 -0.00000000000E+00 -0.34916501562E+03  0.34916501562E+03  0.00000000000E+00 0. -1.
         23    2    1    2    0    0 -0.10029065255E+02 -0.12400542639E+02 -0.33212968530E+03  0.34485526480E+03  0.91436700499E+02 0.  0.
         23    2    1    2    0    0  0.10029065255E+02  0.12400542639E+02  0.19077085678E+03  0.21211593790E+03  0.91352590054E+02 0.  0.
          5    1    3    3  502    0 -0.63062759075E+01 -0.47435692621E+02 -0.11215923243E+03  0.12203154293E+03  0.47000000000E+01 0. -1.
         -5    1    3    3    0  502 -0.37227893477E+01  0.35035149982E+02 -0.21997045287E+03  0.22282372187E+03  0.47000000000E+01 0.  1.
          5    1    4    4  503    0 -0.33195187715E+02  0.26492260153E+02  0.60566494412E+02  0.74122537604E+02  0.47000000000E+01 0. -1.
         -5    1    4    4    0  503  0.43224252971E+02 -0.14091717514E+02  0.13020436236E+03  0.13799340030E+03  0.47000000000E+01 0.  1.
<mgrwt>
<rscale>  0 0.92796442E+02</rscale>
<asrwt>0</asrwt>
<pdfrwt beam="1">  1        2 0.31970183E-01 0.92817163E+02</pdfrwt>
<pdfrwt beam="2">  1       -2 0.53717694E-01 0.92817163E+02</pdfrwt>
<totfact> 0.53813008E+02</totfact>
</mgrwt>
</event>
<event>
 8    1  0.8438969E-004  0.1059582E+03  0.7546771E-02  0.1268658E+00
          1   -1    0    0  501    0  0.00000000000E+00  0.00000000000E+00  0.27887127724E+03  0.27887127724E+03  0.00000000000E+00 0. -1.
         -1   -1    0    0    0  501 -0.00000000000E+00 -0.00000000000E+00 -0.48070725242E+02  0.48070725242E+02  0.00000000000E+00 0.  1.
         23    2    1    2    0    0  0.52070170164E+02 -0.98805476691E+00  0.47774565607E+02  0.11545761974E+03  0.91300459825E+02 0.  0.
         23    2    1    2    0    0 -0.52070170164E+02  0.98805476691E+00  0.18302598639E+03  0.21148438274E+03  0.92275964238E+02 0.  0.
          5    1    3    3  502    0 -0.20338187548E+02  0.19321840375E+02  0.21510793659E+02  0.35662019461E+02  0.47000000000E+01 0. -1.
         -5    1    3    3    0  502  0.72408357711E+02 -0.20309895142E+02  0.26263771948E+02  0.79795600280E+02  0.47000000000E+01 0.  1.
          5    1    4    4  503    0  0.26302855665E+02  0.24047776743E+01  0.37274502703E+02  0.45924957524E+02  0.47000000000E+01 0.  1.
         -5    1    4    4    0  503 -0.78373025828E+02 -0.14167229074E+01  0.14575148369E+03  0.16555942522E+03  0.47000000000E+01 0. -1.
<mgrwt>
<rscale>  0 0.10574541E+03</rscale>
<asrwt>0</asrwt>
<pdfrwt beam="1">  1        1 0.42903273E-01 0.10595816E+03</pdfrwt>
<pdfrwt beam="2">  1       -1 0.73954963E-02 0.10595816E+03</pdfrwt>
<totfact> 0.86825240E+03</totfact>
</mgrwt>
</event>
<event>
 8    1  0.8438969E-004  0.1551745E+03  0.7546771E-02  0.1194326E+00
          1   -1    0    0  501    0  0.00000000000E+00  0.00000000000E+00  0.60209301288E+02  0.60209301288E+02  0.00000000000E+00 0. -1.
         -1   -1    0    0    0  501 -0.00000000000E+00 -0.00000000000E+00 -0.58939179809E+03  0.58939179809E+03  0.00000000000E+00 0.  1.
         23    2    1    2    0    0  0.12446008803E+03  0.59842566282E+01 -0.44918594107E+03  0.47523376920E+03  0.92482435600E+02 0.  0.
         23    2    1    2    0    0 -0.12446008803E+03 -0.59842566282E+01 -0.79996555730E+02  0.17436733018E+03  0.92078184524E+02 0.  0.
          5    1    4    4  502    0 -0.21584276458E+02  0.56192034091E+00  0.20633378502E+02  0.30232814178E+02  0.47000000000E+01 0. -1.
         -5    1    4    4    0  502 -0.10287581157E+03 -0.65461769691E+01 -0.10062993423E+03  0.14413451600E+03  0.47000000000E+01 0.  1.
          5    1    3    3  503    0  0.12496887051E+03 -0.21765943789E+02 -0.37363724711E+03  0.39461102029E+03  0.47000000000E+01 0. -1.
         -5    1    3    3    0  503 -0.50878248642E+00  0.27750200417E+02 -0.75548693958E+02  0.80622748908E+02  0.47000000000E+01 0.  1.
<mgrwt>
<rscale>  0 0.15511432E+03</rscale>
<asrwt>0</asrwt>
<pdfrwt beam="1">  1        1 0.92629697E-02 0.15517450E+03</pdfrwt>
<pdfrwt beam="2">  1       -1 0.90675658E-01 0.15517450E+03</pdfrwt>
<totfact> 0.88135548E+02</totfact>
</mgrwt>
</event>
<event>
 8    1  0.8438969E-004  0.1716930E+03  0.7546771E-02  0.1176118E+00
         -2   -1    0    0    0  501 -0.00000000000E+00  0.00000000000E+00  0.45308953608E+02  0.45308953608E+02  0.00000000000E+00 0.  1.
          2   -1    0    0  501    0  0.00000000000E+00 -0.00000000000E+00 -0.84849006502E+03  0.84849006502E+03  0.00000000000E+00 0. -1.
         23    2    1    2    0    0  0.61553941597E+02  0.13191981414E+03 -0.18566459704E+03  0.25288306287E+03  0.91031729646E+02 0.  0.
         23    2    1    2    0    0 -0.61553941597E+02 -0.13191981414E+03 -0.61751651437E+03  0.64091595575E+03  0.90856434750E+02 0.  0.
          5    1    4    4  502    0  0.12210719215E+02 -0.68710674574E+02 -0.33205354982E+03  0.33934040198E+03  0.47000000000E+01 0. -1.
         -5    1    3    3    0  503  0.16367985740E+02  0.71874726863E+02 -0.29543564770E+02  0.79553752508E+02  0.47000000000E+01 0.  1.
          5    1    3    3  503    0  0.45185955858E+02  0.60045087281E+02 -0.15612103227E+03  0.17332931036E+03  0.47000000000E+01 0. -1.
         -5    1    4    4    0  502 -0.73764660813E+02 -0.63209139569E+02 -0.28546296455E+03  0.30157555378E+03  0.47000000000E+01 0.  1.
<mgrwt>
<rscale>  0 0.17166982E+03</rscale>
<asrwt>0</asrwt>
<pdfrwt beam="1">  1        2 0.13053693E+00 0.17169304E+03</pdfrwt>
<pdfrwt beam="2">  1       -2 0.69706086E-02 0.17169304E+03</pdfrwt>
<totfact> 0.37979144E+03</totfact>
</mgrwt>
</event>
<event>
 8    1  0.8438969E-004  0.1006848E+03  0.7546771E-02  0.1281390E+00
          1   -1    0    0  501    0  0.00000000000E+00  0.00000000000E+00  0.11305022032E+04  0.11305022032E+04  0.00000000000E+00 0. -1.
         -1   -1    0    0    0  501 -0.00000000000E+00 -0.00000000000E+00 -0.10886560480E+02  0.10886560480E+02  0.00000000000E+00 0.  1.
         23    2    1    2    0    0 -0.43794719073E+01 -0.35399791741E+02  0.83465332512E+03  0.84070423529E+03  0.94154729396E+02 0.  0.
         23    2    1    2    0    0  0.43794719073E+01  0.35399791741E+02  0.28496231757E+03  0.30068452836E+03  0.89080514881E+02 0.  0.
          5    1    3    3  502    0  0.27326700980E+02 -0.54273380909E+02  0.60449273771E+03  0.60755732931E+03  0.47000000000E+01 0. -1.
         -5    1    4    4    0  503 -0.75844323842E+01  0.60333684372E+02  0.13523268375E+03  0.14834974162E+03  0.47000000000E+01 0.  1.
          5    1    4    4  503    0  0.11963904292E+02 -0.24933892632E+02  0.14972963382E+03  0.15233478674E+03  0.47000000000E+01 0. -1.
         -5    1    3    3    0  502 -0.31706172888E+02  0.18873589168E+02  0.23016058742E+03  0.23314690598E+03  0.47000000000E+01 0.  1.
<mgrwt>
<rscale>  0 0.99481370E+02</rscale>
<asrwt>0</asrwt>
<pdfrwt beam="1">  1        1 0.17392332E+00 0.10068485E+03</pdfrwt>
<pdfrwt beam="2">  1       -1 0.16748564E-02 0.10068485E+03</pdfrwt>
<totfact> 0.10809461E+04</totfact>
</mgrwt>
</event>
<event>
 8    1  0.8438969E-004  0.1295179E+03  0.7546771E-02  0.1229245E+00
          1   -1    0    0  501    0  0.00000000000E+00  0.00000000000E+00  0.61201427344E+03  0.61201427344E+03  0.00000000000E+00 0. -1.
         -1   -1    0    0    0  501 -0.00000000000E+00 -0.00000000000E+00 -0.29377903843E+02  0.29377903843E+02  0.00000000000E+00 0.  1.
         23    2    1    2    0    0  0.48813576737E+02  0.74884105745E+02  0.19357719208E+03  0.23134104546E+03  0.89756088663E+02 0.  0.
         23    2    1    2    0    0 -0.48813576737E+02 -0.74884105745E+02  0.38905917752E+03  0.41005113183E+03  0.93725623687E+02 0.  0.
          5    1    3    3  502    0  0.55945705798E+02  0.15058661668E+02  0.13587006322E+03  0.14778176264E+03  0.47000000000E+01 0. -1.
         -5    1    3    3    0  502 -0.71321290612E+01  0.59825444077E+02  0.57707128857E+02  0.83559282817E+02  0.47000000000E+01 0.  1.
          5    1    4    4  503    0 -0.65390905949E+02 -0.35482378625E+02  0.32101172209E+03  0.32955361551E+03  0.47000000000E+01 0. -1.
         -5    1    4    4    0  503  0.16577329212E+02 -0.39401727120E+02  0.68047455426E+02  0.80497516321E+02  0.47000000000E+01 0.  1.
<mgrwt>
<rscale>  0 0.12880125E+03</rscale>
<asrwt>0</asrwt>
<pdfrwt beam="1">  1        1 0.94156032E-01 0.12951790E+03</pdfrwt>
<pdfrwt beam="2">  1       -1 0.45196780E-02 0.12951790E+03</pdfrwt>
<totfact> 0.67230224E+03</totfact>
</mgrwt>
</event>
<event>
 8    1  0.8438969E-004  0.1019094E+03  0.7546771E-02  0.1281803E+00
         -2   -1    0    0    0  501 -0.00000000000E+00  0.00000000000E+00  0.54081284868E+02  0.54081284868E+02  0.00000000000E+00 0.  1.
          2   -1    0    0  501    0  0.00000000000E+00 -0.00000000000E+00 -0.18691672763E+03  0.18691672763E+03  0.00000000000E+00 0. -1.
         23    2    1    2    0    0 -0.15814682500E+02 -0.31138606514E+01 -0.37370510972E+02  0.10854532215E+03  0.10062669408E+03 0.  0.
         23    2    1    2    0    0  0.15814682500E+02  0.31138606514E+01 -0.95464931794E+02  0.13245269035E+03  0.90390052922E+02 0.  0.
          5    1    3    3  502    0 -0.22382290194E+02 -0.33991834445E+02 -0.57654374036E+02  0.70728555540E+02  0.47000000000E+01 0. -1.
         -5    1    4    4    0  503 -0.21517959258E+02  0.11262221935E+02  0.46674090249E+01  0.25174092249E+02  0.47000000000E+01 0.  1.
          5    1    4    4  503    0  0.37332641758E+02 -0.81483612833E+01 -0.10013234082E+03  0.10727859810E+03  0.47000000000E+01 0. -1.
         -5    1    3    3    0  502  0.65676076937E+01  0.30877973793E+02  0.20283863064E+02  0.37816766615E+02  0.47000000000E+01 0.  1.
<mgrwt>
<rscale>  0 0.99286515E+02</rscale>
<asrwt>0</asrwt>
<pdfrwt beam="1">  1        2 0.28756420E-01 0.10190943E+03</pdfrwt>
<pdfrwt beam="2">  1       -2 0.83201974E-02 0.10190943E+03</pdfrwt>
<totfact> 0.14876987E+04</totfact>
</mgrwt>
</event>
<event>
 8    1  0.8438969E-004  0.1084002E+03  0.7546771E-02  0.1264206E+00
         -2   -1    0    0    0  501 -0.00000000000E+00  0.00000000000E+00  0.35868494983E+02  0.35868494983E+02  0.00000000000E+00 0.  1.
          2   -1    0    0  501    0  0.00000000000E+00 -0.00000000000E+00 -0.63828480527E+03  0.63828480527E+03  0.00000000000E+00 0. -1.
         23    2    1    2    0    0 -0.43189628527E+02  0.32008723257E+02 -0.63540505043E+02  0.12448272891E+03  0.92567011616E+02 0.  0.
         23    2    1    2    0    0  0.43189628527E+02 -0.32008723257E+02 -0.53887580524E+03  0.54967057134E+03  0.94131297362E+02 0.  0.
          5    1    3    3  502    0 -0.52321631708E+02 -0.15569535177E+02 -0.49459902386E+02  0.73812841120E+02  0.47000000000E+01 0. -1.
         -5    1    3    3    0  502  0.91320031810E+01  0.47578258434E+02 -0.14080602657E+02  0.50669887792E+02  0.47000000000E+01 0.  1.
          5    1    4    4  503    0 -0.12781994059E+02 -0.47151284983E+02 -0.20732520394E+03  0.21305504743E+03  0.47000000000E+01 0. -1.
         -5    1    4    4    0  503  0.55971622586E+02  0.15142561726E+02 -0.33155060130E+03  0.33661552391E+03  0.47000000000E+01 0.  1.
<mgrwt>
<rscale>  0 0.10805971E+03</rscale>
<asrwt>0</asrwt>
<pdfrwt beam="1">  1        2 0.98197664E-01 0.10840020E+03</pdfrwt>
<pdfrwt beam="2">  1       -2 0.55182299E-02 0.10840020E+03</pdfrwt>
<totfact> 0.74821495E+03</totfact>
</mgrwt>
</event>
<event>
 8    1  0.8438969E-004  0.1419157E+03  0.7546771E-02  0.1211472E+00
          1   -1    0    0  501    0  0.00000000000E+00  0.00000000000E+00  0.81552503628E+03  0.81552503628E+03  0.00000000000E+00 0. -1.
         -1   -1    0    0    0  501 -0.00000000000E+00 -0.00000000000E+00 -0.32889228973E+02  0.32889228973E+02  0.00000000000E+00 0.  1.
         23    2    1    2    0    0 -0.97371298936E+02  0.45896959091E+02  0.17710134666E+03  0.22694704796E+03  0.92479051017E+02 0.  0.
         23    2    1    2    0    0  0.97371298936E+02 -0.45896959091E+02  0.60553446065E+03  0.62146721730E+03  0.89229022367E+02 0.  0.
          5    1    4    4  502    0  0.77471259914E+02 -0.71326840035E+02  0.41618415862E+03  0.42932581812E+03  0.47000000000E+01 0. -1.
         -5    1    4    4    0  502  0.19900039022E+02  0.25429880944E+02  0.18935030203E+03  0.19214139917E+03  0.47000000000E+01 0.  1.
          5    1    3    3  503    0 -0.39698487483E+00  0.27221275251E+02  0.93419407306E+02  0.97418843581E+02  0.47000000000E+01 0. -1.
         -5    1    3    3    0  503 -0.96974314062E+02  0.18675683839E+02  0.83681939353E+02  0.12952820437E+03  0.47000000000E+01 0.  1.
<mgrwt>
<rscale>  0 0.14138877E+03</rscale>
<asrwt>0</asrwt>
<pdfrwt beam="1">  1        1 0.12546537E+00 0.14191573E+03</pdfrwt>
<pdfrwt beam="2">  1       -1 0.50598820E-02 0.14191573E+03</pdfrwt>
<totfact> 0.37826767E+03</totfact>
</mgrwt>
</event>
<event>
 8    1  0.8438969E-004  0.1064948E+03  0.7546771E-02  0.1267212E+00
         -1   -1    0    0    0  501 -0.00000000000E+00  0.00000000000E+00  0.11981973503E+02  0.11981973503E+02  0.00000000000E+00 0.  1.
          1   -1    0    0  501    0  0.00000000000E+00 -0.00000000000E+00 -0.12161917488E+04  0.12161917488E+04  0.00000000000E+00 0. -1.
         23    2    1    2    0    0 -0.34851573865E+02  0.42767597477E+02 -0.89132285306E+03  0.89765992221E+03  0.91067052003E+02 0.  0.
         23    2    1    2    0    0  0.34851573865E+02 -0.42767597477E+02 -0.31288692224E+03  0.33051380010E+03  0.91090319740E+02 0.  0.
          5    1    4    4  502    0  0.21499253439E+02  0.24028774449E+02 -0.56817921300E+02  0.65497832642E+02  0.47000000000E+01 0. -1.
         -5    1    4    4    0  502  0.13352320426E+02 -0.66796371926E+02 -0.25606900094E+03  0.26501596745E+03  0.47000000000E+01 0.  1.
          5    1    3    3  503    0  0.30902992035E+02  0.15640118699E+02 -0.26582608344E+03  0.26811416387E+03  0.47000000000E+01 0. -1.
         -5    1    3    3    0  503 -0.65754565900E+02  0.27127478777E+02 -0.62549676962E+03  0.62954575834E+03  0.47000000000E+01 0.  1.
<mgrwt>
<rscale>  0 0.10648984E+03</rscale>
<asrwt>0</asrwt>
<pdfrwt beam="1">  1        1 0.18710650E+00 0.10649482E+03</pdfrwt>
<pdfrwt beam="2">  1       -1 0.18433798E-02 0.10649482E+03</pdfrwt>
<totfact> 0.82673269E+03</totfact>
</mgrwt>
</event>
<event>
 8    1  0.8438969E-004  0.9326904E+02  0.7546771E-02  0.1296564E+00
         -1   -1    0    0    0  501 -0.00000000000E+00  0.00000000000E+00  0.92111496610E+02  0.92111496610E+02  0.00000000000E+00 0.  1.
          1   -1    0    0  501    0  0.00000000000E+00 -0.00000000000E+00 -0.99891958820E+02  0.99891958820E+02  0.00000000000E+00 0. -1.
         23    2    1    2    0    0  0.73864872596E+01 -0.16817830260E+02  0.23199268791E+02  0.93723965981E+02  0.88930175521E+02 0.  0.
         23    2    1    2    0    0 -0.73864872596E+01  0.16817830260E+02 -0.30979731001E+02  0.98279489449E+02  0.91442411958E+02 0.  0.
          5    1    3    3  502    0 -0.36666728624E+02 -0.13229137184E+02 -0.71424264995E+01  0.39906933169E+02  0.47000000000E+01 0. -1.
         -5    1    4    4    0  503  0.40081028740E+02 -0.38636246701E+01 -0.74777062403E+01  0.41224053064E+02  0.47000000000E+01 0.  1.
          5    1    4    4  503    0 -0.47467515999E+02  0.20681454930E+02 -0.23502024761E+02  0.57055436384E+02  0.47000000000E+01 0. -1.
         -5    1    3    3    0  502  0.44053215884E+02 -0.35886930754E+01  0.30341695290E+02  0.53817032813E+02  0.47000000000E+01 0.  1.
<mgrwt>
<rscale>  0 0.92647434E+02</rscale>
<asrwt>0</asrwt>
<pdfrwt beam="1">  1        1 0.15367994E-01 0.93269043E+02</pdfrwt>
<pdfrwt beam="2">  1       -1 0.14170999E-01 0.93269043E+02</pdfrwt>
<totfact> 0.11490487E+04</totfact>
</mgrwt>
</event>
<event>
 8    1  0.8438969E-004  0.3101492E+03  0.7546771E-02  0.1080282E+00
          1   -1    0    0  501    0  0.00000000000E+00  0.00000000000E+00  0.16390267915E+03  0.16390267915E+03  0.00000000000E+00 0. -1.
         -1   -1    0    0    0  501 -0.00000000000E+00 -0.00000000000E+00 -0.58692634427E+03  0.58692634427E+03  0.00000000000E+00 0.  1.
         23    2    1    2    0    0 -0.25828100835E+03 -0.14628595716E+03 -0.20539020883E+03  0.37199148854E+03  0.89910339376E+02 0.  0.
         23    2    1    2    0    0  0.25828100835E+03  0.14628595716E+03 -0.21763345628E+03  0.37883753488E+03  0.89693344289E+02 0.  0.
          5    1    3    3  502    0 -0.10595134429E+03 -0.86992826870E+02 -0.13962970432E+03  0.19573447221E+03  0.47000000000E+01 0. -1.
         -5    1    4    4    0  503  0.23711631923E+03  0.12429403654E+03 -0.22177789126E+03  0.34767898904E+03  0.47000000000E+01 0.  1.
          5    1    4    4  503    0  0.21164689117E+02  0.21991920621E+02  0.41444349830E+01  0.31158545847E+02  0.47000000000E+01 0. -1.
         -5    1    3    3    0  502 -0.15232966405E+03 -0.59293130287E+02 -0.65760504513E+02  0.17625701632E+03  0.47000000000E+01 0.  1.
<mgrwt>
<rscale>  0 0.31013350E+03</rscale>
<asrwt>0</asrwt>
<pdfrwt beam="1">  1        1 0.25215797E-01 0.31014921E+03</pdfrwt>
<pdfrwt beam="2">  1       -1 0.90296360E-01 0.31014921E+03</pdfrwt>
<totfact> 0.23929374E+02</totfact>
</mgrwt>
</event>
<event>
 8    1  0.8438969E-004  0.1048581E+03  0.7546771E-02  0.1274849E+00
         -2   -1    0    0    0  501 -0.00000000000E+00  0.00000000000E+00  0.66968669571E+02  0.66968669571E+02  0.00000000000E+00 0.  1.
          2   -1    0    0  501    0  0.00000000000E+00 -0.00000000000E+00 -0.15100015980E+03  0.15100015980E+03  0.00000000000E+00 0. -1.
         23    2    1    2    0    0  0.23522256484E+02  0.27757176296E+02 -0.38893625421E+02  0.10380817361E+03  0.89104800230E+02 0.  0.
         23    2    1    2    0    0 -0.23522256484E+02 -0.27757176296E+02 -0.45137864810E+02  0.11416065576E+03  0.98343637815E+02 0.  0.
          5    1    3    3  502    0 -0.29175476108E+02 -0.70281558104E+01 -0.18094205198E+01  0.30429712171E+02  0.47000000000E+01 0. -1.
         -5    1    4    4    0  503 -0.30539190475E+02 -0.38575897218E+01  0.24776510291E+02  0.39793072457E+02  0.47000000000E+01 0.  1.
          5    1    4    4  503    0  0.70169339912E+01 -0.23899586574E+02 -0.69914375101E+02  0.74367583306E+02  0.47000000000E+01 0. -1.
         -5    1    3    3    0  502  0.52697732592E+02  0.34785332106E+02 -0.37084204902E+02  0.73378461440E+02  0.47000000000E+01 0.  1.
<mgrwt>
<rscale>  0 0.10263560E+03</rscale>
<asrwt>0</asrwt>
<pdfrwt beam="1">  1        2 0.23230793E-01 0.10485814E+03</pdfrwt>
<pdfrwt beam="2">  1       -2 0.10302872E-01 0.10485814E+03</pdfrwt>
<totfact> 0.13513511E+04</totfact>
</mgrwt>
</event>
<event>
 8    1  0.8438969E-004  0.9439667E+02  0.7546771E-02  0.1295673E+00
          3   -1    0    0  501    0  0.00000000000E+00  0.00000000000E+00  0.22346276368E+02  0.22346276368E+02  0.00000000000E+00 0. -1.
         -3   -1    0    0    0  501 -0.00000000000E+00 -0.00000000000E+00 -0.44331081506E+03  0.44331081506E+03  0.00000000000E+00 0.  1.
         23    2    1    2    0    0 -0.15392102154E+02 -0.11822458215E+02 -0.12533530760E+03  0.15690656896E+03  0.92379893513E+02 0.  0.
         23    2    1    2    0    0  0.15392102154E+02  0.11822458215E+02 -0.29562923109E+03  0.30875052246E+03  0.86911193295E+02 0.  0.
          5    1    3    3  502    0  0.27555644087E+02  0.15830112460E+01 -0.51209870616E+01  0.28462852179E+02  0.47000000000E+01 0. -1.
         -5    1    3    3    0  502 -0.42947746241E+02 -0.13405469461E+02 -0.12021432054E+03  0.12844371679E+03  0.47000000000E+01 0.  1.
          5    1    4    4  503    0 -0.37680525425E+01  0.42379641356E+02 -0.86840434233E+02  0.96817267258E+02  0.47000000000E+01 0. -1.
         -5    1    4    4    0  503  0.19160154697E+02 -0.30557183141E+02 -0.20878879686E+03  0.21193325521E+03  0.47000000000E+01 0.  1.
<mgrwt>
<rscale>  0 0.93031137E+02</rscale>
<asrwt>0</asrwt>
<pdfrwt beam="1">  1        3 0.34378887E-02 0.94396674E+02</pdfrwt>
<pdfrwt beam="2">  1       -3 0.68201663E-01 0.94396674E+02</pdfrwt>
<totfact> 0.18584799E+03</totfact>
</mgrwt>
</event>
<event>
 8    1  0.8438969E-004  0.9467940E+02  0.7546771E-02  0.1292441E+00
          1   -1    0    0  501    0  0.00000000000E+00  0.00000000000E+00  0.78984822102E+03  0.78984822102E+03  0.00000000000E+00 0. -1.
         -1   -1    0    0    0  501 -0.00000000000E+00 -0.00000000000E+00 -0.18662615942E+02  0.18662615942E+02  0.00000000000E+00 0.  1.
         23    2    1    2    0    0 -0.61046731547E+01  0.21275203992E+02  0.13174403678E+03  0.16223649195E+03  0.92055889288E+02 0.  0.
         23    2    1    2    0    0  0.61046731547E+01 -0.21275203992E+02  0.63944156830E+03  0.64627434501E+03  0.91077485802E+02 0.  0.
          5    1    4    4  502    0  0.32209399798E+02 -0.46508627842E+02  0.36094766128E+03  0.36538445791E+03  0.47000000000E+01 0. -1.
         -5    1    4    4    0  502 -0.26104726643E+02  0.25233423850E+02  0.27849390702E+03  0.28088988711E+03  0.47000000000E+01 0.  1.
          5    1    3    3  503    0  0.25780062549E+02 -0.16759305877E+02  0.13493142858E+02  0.33906354312E+02  0.47000000000E+01 0. -1.
         -5    1    3    3    0  503 -0.31884735704E+02  0.38034509869E+02  0.11825089392E+03  0.12833013763E+03  0.47000000000E+01 0.  1.
<mgrwt>
<rscale>  0 0.94440742E+02</rscale>
<asrwt>0</asrwt>
<pdfrwt beam="1">  1        1 0.12151509E+00 0.94679396E+02</pdfrwt>
<pdfrwt beam="2">  1       -1 0.28711723E-02 0.94679396E+02</pdfrwt>
<totfact> 0.88889278E+03</totfact>
</mgrwt>
</event>
<event>
 8    1  0.8438969E-004  0.9843739E+02  0.7546771E-02  0.1284328E+00
         -1   -1    0    0    0  501 -0.00000000000E+00  0.00000000000E+00  0.18540949689E+03  0.18540949689E+03  0.00000000000E+00 0.  1.
          1   -1    0    0  501    0  0.00000000000E+00 -0.00000000000E+00 -0.51774884403E+02  0.51774884403E+02  0.00000000000E+00 0. -1.
         23    2    1    2    0    0 -0.34074219185E+02 -0.16840984885E+02  0.74784221550E+02  0.12362281532E+03  0.90803356165E+02 0.  0.
         23    2    1    2    0    0  0.34074219185E+02  0.16840984885E+02  0.58850390940E+02  0.11356156597E+03  0.89376672388E+02 0.  0.
          5    1    3    3  502    0  0.21183084199E+02  0.31300753910E+00  0.59879814442E+02  0.63690683837E+02  0.47000000000E+01 0. -1.
         -5    1    4    4    0  503  0.30358250581E+02  0.38814580790E+02  0.71915276883E+02  0.87304593862E+02  0.47000000000E+01 0.  1.
          5    1    4    4  503    0  0.37159686047E+01 -0.21973595905E+02 -0.13064885943E+02  0.26256972110E+02  0.47000000000E+01 0. -1.
         -5    1    3    3    0  502 -0.55257303385E+02 -0.17153992424E+02  0.14904407107E+02  0.59932131488E+02  0.47000000000E+01 0.  1.
<mgrwt>
<rscale>  0 0.98107116E+02</rscale>
<asrwt>0</asrwt>
<pdfrwt beam="1">  1        1 0.79653669E-02 0.98437395E+02</pdfrwt>
<pdfrwt beam="2">  1       -1 0.28524538E-01 0.98437395E+02</pdfrwt>
<totfact> 0.89196712E+03</totfact>
</mgrwt>
</event>
<event>
 8    1  0.8438969E-004  0.1151338E+03  0.7546771E-02  0.1253023E+00
         -1   -1    0    0    0  501 -0.00000000000E+00  0.00000000000E+00  0.69263847625E+03  0.69263847625E+03  0.00000000000E+00 0.  1.
          1   -1    0    0  501    0  0.00000000000E+00 -0.00000000000E+00 -0.27455120440E+02  0.27455120440E+02  0.00000000000E+00 0. -1.
         23    2    1    2    0    0  0.47807755211E+02  0.41725243775E+02  0.12342390852E+03  0.16623522781E+03  0.91510176181E+02 0.  0.
         23    2    1    2    0    0 -0.47807755211E+02 -0.41725243775E+02  0.54175944729E+03  0.55385836888E+03  0.96068811913E+02 0.  0.
          5    1    4    4  502    0 -0.11066426371E+02 -0.61977226361E+02  0.20604502832E+03  0.21550008370E+03  0.47000000000E+01 0. -1.
         -5    1    3    3    0  503  0.25580665250E+02  0.70238533157E+02  0.83439826579E+02  0.11212545043E+03  0.47000000000E+01 0.  1.
          5    1    3    3  503    0  0.22227089961E+02 -0.28513289382E+02  0.39984081942E+02  0.54109777382E+02  0.47000000000E+01 0. -1.
         -5    1    4    4    0  502 -0.36741328840E+02  0.20251982586E+02  0.33571441897E+03  0.33835828517E+03  0.47000000000E+01 0.  1.
<mgrwt>
<rscale>  0 0.11417812E+03</rscale>
<asrwt>0</asrwt>
<pdfrwt beam="1">  1        1 0.42238652E-02 0.11513381E+03</pdfrwt>
<pdfrwt beam="2">  1       -1 0.10655975E+00 0.11513381E+03</pdfrwt>
<totfact> 0.17751251E+03</totfact>
</mgrwt>
</event>
<event>
 8    1  0.8438969E-004  0.9573898E+02  0.7546771E-02  0.1290789E+00
         -1   -1    0    0    0  501 -0.00000000000E+00  0.00000000000E+00  0.91547418793E+01  0.91547418793E+01  0.00000000000E+00 0.  1.
          1   -1    0    0  501    0  0.00000000000E+00 -0.00000000000E+00 -0.10153123930E+04  0.10153123930E+04  0.00000000000E+00 0. -1.
         23    2    1    2    0    0  0.17992722361E+02 -0.13822523357E+02 -0.41045933169E+03  0.42147694597E+03  0.93011573446E+02 0.  0.
         23    2    1    2    0    0 -0.17992722361E+02  0.13822523357E+02 -0.59569831945E+03  0.60299018894E+03  0.90696636929E+02 0.  0.
          5    1    4    4  502    0 -0.42764748063E+02  0.31715147173E+02 -0.48871298851E+03  0.49162704297E+03  0.47000000000E+01 0. -1.
         -5    1    3    3    0  503  0.40663009475E+02 -0.38519331854E+02 -0.31983471903E+03  0.32473613406E+03  0.47000000000E+01 0.  1.
          5    1    3    3  503    0 -0.22670287114E+02  0.24696808497E+02 -0.90624612665E+02  0.96740811907E+02  0.47000000000E+01 0. -1.
         -5    1    4    4    0  502  0.24772025702E+02 -0.17892623816E+02 -0.10698533093E+03  0.11136314597E+03  0.47000000000E+01 0.  1.
<mgrwt>
<rscale>  0 0.95172124E+02</rscale>
<asrwt>0</asrwt>
<pdfrwt beam="1">  1        1 0.15620194E+00 0.95738984E+02</pdfrwt>
<pdfrwt beam="2">  1       -1 0.14084215E-02 0.95738984E+02</pdfrwt>
<totfact> 0.16603118E+04</totfact>
</mgrwt>
</event>
<event>
 8    1  0.8438969E-004  0.1234771E+03  0.7546771E-02  0.1237783E+00
          2   -1    0    0  501    0  0.00000000000E+00  0.00000000000E+00  0.35844948435E+03  0.35844948435E+03  0.00000000000E+00 0. -1.
         -2   -1    0    0    0  501 -0.00000000000E+00 -0.00000000000E+00 -0.13881843212E+03  0.13881843212E+03  0.00000000000E+00 0.  1.
         23    2    1    2    0    0 -0.19239772349E+02  0.81269836222E+02 -0.97436386793E+02  0.15729092247E+03  0.90948500258E+02 0.  0.
         23    2    1    2    0    0  0.19239772349E+02 -0.81269836222E+02  0.31706743902E+03  0.33997699401E+03  0.89875694429E+02 0.  0.
          5    1    4    4  502    0  0.53042274984E+02 -0.33302803314E+02  0.18537589288E+03  0.19572652172E+03  0.47000000000E+01 0. -1.
         -5    1    3    3    0  503  0.21462704533E+02  0.78977213096E+02 -0.71233702984E+02  0.10860192593E+03  0.47000000000E+01 0.  1.
          5    1    3    3  503    0 -0.40702476882E+02  0.22926231266E+01 -0.26202683809E+02  0.48688996538E+02  0.47000000000E+01 0. -1.
         -5    1    4    4    0  502 -0.33802502636E+02 -0.47967032908E+02  0.13169154613E+03  0.14425047228E+03  0.47000000000E+01 0.  1.
<mgrwt>
<rscale>  0 0.12327958E+03</rscale>
<asrwt>0</asrwt>
<pdfrwt beam="1">  1        2 0.55146074E-01 0.12347706E+03</pdfrwt>
<pdfrwt beam="2">  1       -2 0.21356682E-01 0.12347706E+03</pdfrwt>
<totfact> 0.16537047E+03</totfact>
</mgrwt>
</event>
<event>
 8    1  0.8438969E-004  0.1131460E+03  0.7546771E-02  0.1255036E+00
         -1   -1    0    0    0  501 -0.00000000000E+00  0.00000000000E+00  0.52091780639E+02  0.52091780639E+02  0.00000000000E+00 0.  1.
          1   -1    0    0  501    0  0.00000000000E+00 -0.00000000000E+00 -0.39843300268E+03  0.39843300268E+03  0.00000000000E+00 0. -1.
         23    2    1    2    0    0  0.52771005097E+02  0.36496753181E+02 -0.31321350600E+03  0.33302361040E+03  0.93194596257E+02 0.  0.
         23    2    1    2    0    0 -0.52771005097E+02 -0.36496753181E+02 -0.33127716048E+02  0.11750117293E+03  0.92694595834E+02 0.  0.
          5    1    3    3  502    0  0.22092215006E+01  0.52955074959E+02 -0.21224258970E+03  0.21881071159E+03  0.47000000000E+01 0. -1.
         -5    1    3    3    0  502  0.50561783597E+02 -0.16458321779E+02 -0.10097091629E+03  0.11421289880E+03  0.47000000000E+01 0.  1.
          5    1    4    4  503    0 -0.51649267361E+02  0.17062669198E+02 -0.32860629182E+02  0.63723562748E+02  0.47000000000E+01 0. -1.
         -5    1    4    4    0  503 -0.11217377361E+01 -0.53559422378E+02 -0.26708686603E+00  0.53777610178E+02  0.47000000000E+01 0.  1.
<mgrwt>
<rscale>  0 0.11304302E+03</rscale>
<asrwt>0</asrwt>
<pdfrwt beam="1">  1        1 0.61297384E-01 0.11314603E+03</pdfrwt>
<pdfrwt beam="2">  1       -1 0.80141203E-02 0.11314603E+03</pdfrwt>
<totfact> 0.49758394E+03</totfact>
</mgrwt>
</event>
<event>
 8    1  0.8438969E-004  0.1736984E+03  0.7546771E-02  0.1174870E+00
          1   -1    0    0  501    0  0.00000000000E+00  0.00000000000E+00  0.11173500672E+04  0.11173500672E+04  0.00000000000E+00 0. -1.
         -1   -1    0    0    0  501 -0.00000000000E+00 -0.00000000000E+00 -0.30356289237E+02  0.30356289237E+02  0.00000000000E+00 0.  1.
         23    2    1    2    0    0 -0.14410438153E+03  0.13829147003E+02  0.74347304717E+03  0.76276790201E+03  0.90029897152E+02 0.  0.
         23    2    1    2    0    0  0.14410438153E+03 -0.13829147003E+02  0.34352073082E+03  0.38493845446E+03  0.95988557315E+02 0.  0.
          5    1    4    4  502    0  0.81876102154E+02  0.38691440925E+02  0.15588454428E+03  0.18034080196E+03  0.47000000000E+01 0. -1.
         -5    1    3    3    0  503 -0.11910030182E+03 -0.22280294190E+02  0.45268034422E+03  0.46863938956E+03  0.47000000000E+01 0.  1.
          5    1    3    3  503    0 -0.25004079701E+02  0.36109441193E+02  0.29079270296E+03  0.29412851245E+03  0.47000000000E+01 0. -1.
         -5    1    4    4    0  502  0.62228279371E+02 -0.52520587928E+02  0.18763618654E+03  0.20459765250E+03  0.47000000000E+01 0.  1.
<mgrwt>
<rscale>  0 0.17288758E+03</rscale>
<asrwt>0</asrwt>
<pdfrwt beam="1">  1        1 0.17189998E+00 0.17369836E+03</pdfrwt>
<pdfrwt beam="2">  1       -1 0.46701992E-02 0.17369836E+03</pdfrwt>
<totfact> 0.25409239E+03</totfact>
</mgrwt>
</event>
<event>
 8    1  0.8438969E-004  0.1003306E+03  0.7546771E-02  0.1280357E+00
          1   -1    0    0  501    0  0.00000000000E+00  0.00000000000E+00  0.69953556529E+03  0.69953556529E+03  0.00000000000E+00 0. -1.
         -1   -1    0    0    0  501 -0.00000000000E+00 -0.00000000000E+00 -0.15149159056E+02  0.15149159056E+02  0.00000000000E+00 0.  1.
         23    2    1    2    0    0  0.36098171214E+02 -0.22002244911E+02  0.43002114487E+03  0.44124750938E+03  0.89409187224E+02 0.  0.
         23    2    1    2    0    0 -0.36098171214E+02  0.22002244911E+02  0.25436526137E+03  0.27343721496E+03  0.90989271833E+02 0.  0.
          5    1    3    3  502    0 -0.25480779799E+02 -0.18331650450E+01  0.21673518272E+03  0.21828618844E+03  0.47000000000E+01 0. -1.
         -5    1    4    4    0  503 -0.38959806865E+02 -0.22440210551E+02  0.18812338891E+03  0.19347849766E+03  0.47000000000E+01 0.  1.
          5    1    4    4  503    0  0.28616356516E+01  0.44442455462E+02  0.66241872457E+02  0.79958717303E+02  0.47000000000E+01 0. -1.
         -5    1    3    3    0  502  0.61578951013E+02 -0.20169079866E+02  0.21328596214E+03  0.22296132095E+03  0.47000000000E+01 0.  1.
<mgrwt>
<rscale>  0 0.99970964E+02</rscale>
<asrwt>0</asrwt>
<pdfrwt beam="1">  1        1 0.10762083E+00 0.10033058E+03</pdfrwt>
<pdfrwt beam="2">  1       -1 0.23306404E-02 0.10033058E+03</pdfrwt>
<totfact> 0.14357734E+04</totfact>
</mgrwt>
</event>
<event>
 8    1  0.8438969E-004  0.1341755E+03  0.7546771E-02  0.1229774E+00
          3   -1    0    0  501    0  0.00000000000E+00  0.00000000000E+00  0.11030984092E+03  0.11030984092E+03  0.00000000000E+00 0. -1.
         -3   -1    0    0    0  501 -0.00000000000E+00 -0.00000000000E+00 -0.23958031529E+03  0.23958031529E+03  0.00000000000E+00 0.  1.
         23    2    1    2    0    0  0.68941835393E+02  0.23893937224E+01 -0.18147217469E+03  0.22568829737E+03  0.11508419315E+03 0.  0.
         23    2    1    2    0    0 -0.68941835393E+02 -0.23893937224E+01  0.52201700312E+02  0.12420185885E+03  0.89120134403E+02 0.  0.
          5    1    4    4  502    0 -0.19807895108E+02 -0.43769499331E+02  0.21277902771E+02  0.52753776420E+02  0.47000000000E+01 0. -1.
         -5    1    3    3    0  503  0.23437158873E+02  0.14848408587E+02 -0.17568388590E+03  0.17792327959E+03  0.47000000000E+01 0.  1.
          5    1    3    3  503    0  0.45504676520E+02 -0.12459014864E+02 -0.57882887854E+01  0.47765017781E+02  0.47000000000E+01 0. -1.
         -5    1    4    4    0  502 -0.49133940285E+02  0.41380105609E+02  0.30923797541E+02  0.71448082427E+02  0.47000000000E+01 0.  1.
<mgrwt>
<rscale>  0 0.12845025E+03</rscale>
<asrwt>0</asrwt>
<pdfrwt beam="1">  1        3 0.16970745E-01 0.13417547E+03</pdfrwt>
<pdfrwt beam="2">  1       -3 0.36858510E-01 0.13417547E+03</pdfrwt>
<totfact> 0.50461773E+02</totfact>
</mgrwt>
</event>
<event>
 8    1  0.8438969E-004  0.9650850E+02  0.7546771E-02  0.1289194E+00
          1   -1    0    0  501    0  0.00000000000E+00  0.00000000000E+00  0.27509134865E+03  0.27509134865E+03  0.00000000000E+00 0. -1.
         -1   -1    0    0    0  501 -0.00000000000E+00 -0.00000000000E+00 -0.33484245079E+02  0.33484245079E+02  0.00000000000E+00 0.  1.
         23    2    1    2    0    0 -0.15657529950E+02 -0.19606131346E+02  0.10065708654E+03  0.13775171293E+03  0.90631819541E+02 0.  0.
         23    2    1    2    0    0  0.15657529950E+02  0.19606131346E+02  0.14095001703E+03  0.17082388080E+03  0.93189765104E+02 0.  0.
          5    1    4    4  502    0  0.87010297782E+01 -0.22704692128E+02  0.12062249201E+03  0.12313848523E+03  0.47000000000E+01 0. -1.
         -5    1    3    3    0  503 -0.22382848224E+02 -0.53890579054E+02  0.57943263080E+02  0.82369279114E+02  0.47000000000E+01 0.  1.
          5    1    3    3  503    0  0.67253182732E+01  0.34284447708E+02  0.42713823465E+02  0.55382433817E+02  0.47000000000E+01 0. -1.
         -5    1    4    4    0  502  0.69565001721E+01  0.42310823474E+02  0.20327525011E+02  0.47685395571E+02  0.47000000000E+01 0.  1.
<mgrwt>
<rscale>  0 0.95885589E+02</rscale>
<asrwt>0</asrwt>
<pdfrwt beam="1">  1        1 0.42321744E-01 0.96508502E+02</pdfrwt>
<pdfrwt beam="2">  1       -1 0.51514225E-02 0.96508502E+02</pdfrwt>
<totfact> 0.14952216E+04</totfact>
</mgrwt>
</event>
<event>
 8    1  0.8438969E-004  0.9857791E+02  0.7546771E-02  0.1289151E+00
          2   -1    0    0  501    0  0.00000000000E+00  0.00000000000E+00  0.38981062548E+03  0.38981062548E+03  0.00000000000E+00 0. -1.
         -2   -1    0    0    0  501 -0.00000000000E+00 -0.00000000000E+00 -0.25444694657E+02  0.25444694657E+02  0.00000000000E+00 0.  1.
         23    2    1    2    0    0  0.89736926629E+00  0.32254738357E+02  0.10165488844E+03  0.13465828531E+03  0.82206836945E+02 0.  0.
         23    2    1    2    0    0 -0.89736926629E+00 -0.32254738357E+02  0.26271104239E+03  0.28059703483E+03  0.93147360385E+02 0.  0.
          5    1    3    3  502    0 -0.35862957902E+02  0.35569427451E+02  0.64711790319E+02  0.82225553966E+02  0.47000000000E+01 0. -1.
         -5    1    3    3    0  502  0.36760327168E+02 -0.33146890940E+01  0.36943098121E+02  0.52432731343E+02  0.47000000000E+01 0.  1.
          5    1    4    4  503    0  0.21723636609E+02 -0.34229251785E+02  0.25159189568E+03  0.25488061919E+03  0.47000000000E+01 0. -1.
         -5    1    4    4    0  503 -0.22621005875E+02  0.19745134276E+01  0.11119146703E+02  0.25716415642E+02  0.47000000000E+01 0.  1.
<mgrwt>
<rscale>  0 0.95904840E+02</rscale>
<asrwt>0</asrwt>
<pdfrwt beam="1">  1        2 0.59970861E-01 0.98577909E+02</pdfrwt>
<pdfrwt beam="2">  1       -2 0.39145687E-02 0.98577909E+02</pdfrwt>
<totfact> 0.21167086E+04</totfact>
</mgrwt>
</event>
<event>
 8    1  0.8438969E-004  0.1149979E+03  0.7546771E-02  0.1252041E+00
          2   -1    0    0  501    0  0.00000000000E+00  0.00000000000E+00  0.56886233835E+02  0.56886233835E+02  0.00000000000E+00 0. -1.
         -2   -1    0    0    0  501 -0.00000000000E+00 -0.00000000000E+00 -0.49607930459E+03  0.49607930459E+03  0.00000000000E+00 0.  1.
         23    2    1    2    0    0 -0.67503405005E+02 -0.12929015605E+01 -0.42240388068E+03  0.43777796272E+03  0.93092024066E+02 0.  0.
         23    2    1    2    0    0  0.67503405005E+02  0.12929015605E+01 -0.16789190075E+02  0.11518757571E+03  0.91803700431E+02 0.  0.
          5    1    3    3  502    0  0.33105308573E+01 -0.34226236842E+02 -0.94562998592E+02  0.10073055944E+03  0.47000000000E+01 0. -1.
         -5    1    3    3    0  502 -0.70813935863E+02  0.32933335282E+02 -0.32784088209E+03  0.33704740327E+03  0.47000000000E+01 0.  1.
          5    1    4    4  503    0  0.44857805271E+02 -0.32469780364E+02  0.21071527906E+02  0.59435752026E+02  0.47000000000E+01 0. -1.
         -5    1    4    4    0  503  0.22645599734E+02  0.33762681924E+02 -0.37860717981E+02  0.55751823684E+02  0.47000000000E+01 0.  1.
<mgrwt>
<rscale>  0 0.11473687E+03</rscale>
<asrwt>0</asrwt>
<pdfrwt beam="1">  1        2 0.87517281E-02 0.11499785E+03</pdfrwt>
<pdfrwt beam="2">  1       -2 0.76319894E-01 0.11499785E+03</pdfrwt>
<totfact> 0.11571398E+03</totfact>
</mgrwt>
</event>
<event>
 8    1  0.8438969E-004  0.1721006E+03  0.7546771E-02  0.1175791E+00
         -2   -1    0    0    0  501 -0.00000000000E+00  0.00000000000E+00  0.33692443668E+02  0.33692443668E+02  0.00000000000E+00 0.  1.
          2   -1    0    0  501    0  0.00000000000E+00 -0.00000000000E+00 -0.90552037477E+03  0.90552037477E+03  0.00000000000E+00 0. -1.
         23    2    1    2    0    0 -0.14495348037E+03  0.13552786027E+02 -0.51902208466E+03  0.54666908148E+03  0.90928382778E+02 0.  0.
         23    2    1    2    0    0  0.14495348037E+03 -0.13552786027E+02 -0.35280584643E+03  0.39254373696E+03  0.91779249635E+02 0.  0.
          5    1    3    3  502    0 -0.12408902559E+03  0.18523619540E+02 -0.50555273568E+03  0.52090965561E+03  0.47000000000E+01 0. -1.
         -5    1    4    4    0  503  0.51840743900E+02 -0.43380582835E+02 -0.94257563910E+02  0.11608581330E+03  0.47000000000E+01 0.  1.
          5    1    4    4  503    0  0.93112736472E+02  0.29827796808E+02 -0.25854828252E+03  0.27645792366E+03  0.47000000000E+01 0. -1.
         -5    1    3    3    0  502 -0.20864454782E+02 -0.49708335134E+01 -0.13469348987E+02  0.25759425873E+02  0.47000000000E+01 0.  1.
<mgrwt>
<rscale>  0 0.17198744E+03</rscale>
<asrwt>0</asrwt>
<pdfrwt beam="1">  1        2 0.13931082E+00 0.17210061E+03</pdfrwt>
<pdfrwt beam="2">  1       -2 0.51834533E-02 0.17210061E+03</pdfrwt>
<totfact> 0.54824741E+03</totfact>
</mgrwt>
</event>
<event>
 8    1  0.8438969E-004  0.1393827E+03  0.7546771E-02  0.1217947E+00
         -1   -1    0    0    0  501 -0.00000000000E+00  0.00000000000E+00  0.22495101288E+02  0.22495101288E+02  0.00000000000E+00 0.  1.
          1   -1    0    0  501    0  0.00000000000E+00 -0.00000000000E+00 -0.14447791672E+04  0.14447791672E+04  0.00000000000E+00 0. -1.
         23    2    1    2    0    0  0.38895024638E+02 -0.80452199902E+02 -0.23640480692E+03  0.27443537691E+03  0.10696805109E+03 0.  0.
         23    2    1    2    0    0 -0.38895024638E+02  0.80452199902E+02 -0.11858792590E+04  0.11928388916E+04  0.92572268741E+02 0.  0.
          5    1    4    4  502    0  0.19645786890E+02  0.64348641852E+02 -0.58075918553E+03  0.58466231812E+03  0.47000000000E+01 0. -1.
         -5    1    3    3    0  503  0.70474928886E+01 -0.42783527300E+02 -0.12868355107E+02  0.45472870235E+02  0.47000000000E+01 0.  1.
          5    1    3    3  503    0  0.31847531749E+02 -0.37668672602E+02 -0.22353645182E+03  0.22896250668E+03  0.47000000000E+01 0. -1.
         -5    1    4    4    0  502 -0.58540811528E+02  0.16103558051E+02 -0.60512007348E+03  0.60817657348E+03  0.47000000000E+01 0.  1.
<mgrwt>
<rscale>  0 0.13662270E+03</rscale>
<asrwt>0</asrwt>
<pdfrwt beam="1">  1        1 0.22227375E+00 0.13938272E+03</pdfrwt>
<pdfrwt beam="2">  1       -1 0.34607843E-02 0.13938272E+03</pdfrwt>
<totfact> 0.23664504E+03</totfact>
</mgrwt>
</event>
<event>
 8    1  0.8438969E-004  0.9310741E+02  0.7546771E-02  0.1296059E+00
         -1   -1    0    0    0  501 -0.00000000000E+00  0.00000000000E+00  0.75327411283E+02  0.75327411283E+02  0.00000000000E+00 0.  1.
          1   -1    0    0  501    0  0.00000000000E+00 -0.00000000000E+00 -0.17095514626E+03  0.17095514626E+03  0.00000000000E+00 0. -1.
         23    2    1    2    0    0 -0.94823842779E+01  0.80549495081E+01  0.23496894056E+02  0.95088419979E+02  0.91295705051E+02 0.  0.
         23    2    1    2    0    0  0.94823842779E+01 -0.80549495081E+01 -0.11912462904E+03  0.15119413757E+03  0.92272380313E+02 0.  0.
          5    1    3    3  502    0  0.22856177243E+02  0.22361701712E+02 -0.20632514928E+02  0.38343724569E+02  0.47000000000E+01 0. -1.
         -5    1    4    4    0  503 -0.36656148129E+02 -0.18018712612E+02 -0.32410069916E+02  0.52353126285E+02  0.47000000000E+01 0.  1.
          5    1    4    4  503    0  0.46138532407E+02  0.99637631042E+01 -0.86714559119E+02  0.98841011281E+02  0.47000000000E+01 0. -1.
         -5    1    3    3    0  502 -0.32338561521E+02 -0.14306752204E+02  0.44129408984E+02  0.56744695410E+02  0.47000000000E+01 0.  1.
<mgrwt>
<rscale>  0 0.92864506E+02</rscale>
<asrwt>0</asrwt>
<pdfrwt beam="1">  1        1 0.26300791E-01 0.93107411E+02</pdfrwt>
<pdfrwt beam="2">  1       -1 0.11588833E-01 0.93107411E+02</pdfrwt>
<totfact> 0.79627118E+03</totfact>
</mgrwt>
</event>
<event>
 8    1  0.8438969E-004  0.1187703E+03  0.7546771E-02  0.1250111E+00
          1   -1    0    0  501    0  0.00000000000E+00  0.00000000000E+00  0.72401935503E+03  0.72401935503E+03  0.00000000000E+00 0. -1.
         -1   -1    0    0    0  501 -0.00000000000E+00 -0.00000000000E+00 -0.18231639280E+02  0.18231639280E+02  0.00000000000E+00 0.  1.
         23    2    1    2    0    0 -0.22046337337E+02  0.70604571964E+02  0.27126664153E+03  0.29179018989E+03  0.78005625057E+02 0.  0.
         23    2    1    2    0    0  0.22046337337E+02 -0.70604571964E+02  0.43452107423E+03  0.45046080442E+03  0.92926453715E+02 0.  0.
          5    1    3    3  502    0 -0.43114124997E+02  0.28628820794E+02  0.84920629240E+02  0.99559230736E+02  0.47000000000E+01 0.  1.
         -5    1    3    3    0  502  0.21067787659E+02  0.41975751169E+02  0.18634601229E+03  0.19223095916E+03  0.47000000000E+01 0. -1.
          5    1    4    4  503    0 -0.33724674241E+02 -0.85884694511E+01  0.11969235278E+03  0.12473758365E+03  0.47000000000E+01 0. -1.
         -5    1    4    4    0  503  0.55771011578E+02 -0.62016102513E+02  0.31482872145E+03  0.32572322077E+03  0.47000000000E+01 0.  1.
<mgrwt>
<rscale>  0 0.11584608E+03</rscale>
<asrwt>0</asrwt>
<pdfrwt beam="1">  1        1 0.11138757E+00 0.11877025E+03</pdfrwt>
<pdfrwt beam="2">  1       -1 0.28048681E-02 0.11877025E+03</pdfrwt>
<totfact> 0.10601922E+04</totfact>
</mgrwt>
</event>
<event>
 8    1  0.8438969E-004  0.3138814E+03  0.7546771E-02  0.1078706E+00
          1   -1    0    0  501    0  0.00000000000E+00  0.00000000000E+00  0.85296611806E+03  0.85296611806E+03  0.00000000000E+00 0. -1.
         -1   -1    0    0    0  501 -0.00000000000E+00 -0.00000000000E+00 -0.29152936312E+03  0.29152936312E+03  0.00000000000E+00 0.  1.
         23    2    1    2    0    0 -0.81875529255E+02  0.28778349077E+03 -0.16505522339E+03  0.35309665727E+03  0.88944267684E+02 0.  0.
         23    2    1    2    0    0  0.81875529255E+02 -0.28778349077E+03  0.72649197834E+03  0.79139882390E+03  0.94860761277E+02 0.  0.
          5    1    4    4  502    0  0.35604300271E+02 -0.24816786936E+03  0.61714703827E+03  0.66614376408E+03  0.47000000000E+01 0. -1.
         -5    1    3    3    0  503 -0.73162692120E+02  0.15382114049E+03 -0.12984088563E+03  0.21422994273E+03  0.47000000000E+01 0.  1.
          5    1    3    3  503    0 -0.87128371355E+01  0.13396235028E+03 -0.35214337767E+02  0.13886671454E+03  0.47000000000E+01 0. -1.
         -5    1    4    4    0  502  0.46271228984E+02 -0.39615621410E+02  0.10934494007E+03  0.12525505982E+03  0.47000000000E+01 0.  1.
<mgrwt>
<rscale>  0 0.31344617E+03</rscale>
<asrwt>0</asrwt>
<pdfrwt beam="1">  1        1 0.13122556E+00 0.31388135E+03</pdfrwt>
<pdfrwt beam="2">  1       -1 0.44850672E-01 0.31388135E+03</pdfrwt>
<totfact> 0.10506781E+02</totfact>
</mgrwt>
</event>
<event>
 8    1  0.8438969E-004  0.2468554E+03  0.7546771E-02  0.1115953E+00
         -1   -1    0    0    0  501 -0.00000000000E+00  0.00000000000E+00  0.73151667825E+02  0.73151667825E+02  0.00000000000E+00 0.  1.
          1   -1    0    0  501    0  0.00000000000E+00 -0.00000000000E+00 -0.97459420614E+03  0.97459420614E+03  0.00000000000E+00 0. -1.
         23    2    1    2    0    0 -0.12581635744E+03  0.19261153326E+03 -0.66267338071E+03  0.70715881718E+03  0.89490919507E+02 0.  0.
         23    2    1    2    0    0  0.12581635744E+03 -0.19261153326E+03 -0.23876915761E+03  0.34058705678E+03  0.77845193031E+02 0.  0.
          5    1    3    3  502    0 -0.41185445692E+02  0.14198875176E+03 -0.41165111190E+03  0.43741944915E+03  0.47000000000E+01 0.  1.
         -5    1    4    4    0  503  0.13506398052E+03 -0.16440426470E+03 -0.20913314976E+03  0.29837862761E+03  0.47000000000E+01 0.  1.
          5    1    4    4  503    0 -0.92476230758E+01 -0.28207268559E+02 -0.29636007844E+02  0.42208429170E+02  0.47000000000E+01 0. -1.
         -5    1    3    3    0  502 -0.84630911751E+02  0.50622781501E+02 -0.25102226881E+03  0.26973936803E+03  0.47000000000E+01 0. -1.
<mgrwt>
<rscale>  0 0.24585451E+03</rscale>
<asrwt>0</asrwt>
<pdfrwt beam="1">  1        1 0.14993758E+00 0.24685539E+03</pdfrwt>
<pdfrwt beam="2">  1       -1 0.11254102E-01 0.24685539E+03</pdfrwt>
<totfact> 0.84986192E+02</totfact>
</mgrwt>
</event>
<event>
 8    1  0.8438969E-004  0.1120468E+03  0.7546771E-02  0.1257803E+00
         -1   -1    0    0    0  501 -0.00000000000E+00  0.00000000000E+00  0.10222418117E+03  0.10222418117E+03  0.00000000000E+00 0.  1.
          1   -1    0    0  501    0  0.00000000000E+00 -0.00000000000E+00 -0.15997628536E+03  0.15997628536E+03  0.00000000000E+00 0. -1.
         23    2    1    2    0    0 -0.50401210840E+02 -0.34454870471E+02  0.36474524725E+02  0.11579981064E+03  0.91388101177E+02 0.  0.
         23    2    1    2    0    0  0.50401210840E+02  0.34454870471E+02 -0.94226628913E+02  0.14640065588E+03  0.93952510843E+02 0.  0.
          5    1    4    4  502    0  0.68337255451E+02  0.23320859410E+01 -0.36141393452E+02  0.77483607480E+02  0.47000000000E+01 0.  1.
         -5    1    4    4    0  502 -0.17936044611E+02  0.32122784530E+02 -0.58085235461E+02  0.68917048404E+02  0.47000000000E+01 0. -1.
          5    1    3    3  503    0 -0.25998417956E+00  0.21549091542E+02 -0.13078790572E+02  0.25643238892E+02  0.47000000000E+01 0. -1.
         -5    1    3    3    0  503 -0.50141226661E+02 -0.56003962013E+02  0.49553315297E+02  0.90156571747E+02  0.47000000000E+01 0.  1.
<mgrwt>
<rscale>  0 0.11150761E+03</rscale>
<asrwt>0</asrwt>
<pdfrwt beam="1">  1        1 0.24611736E-01 0.11204684E+03</pdfrwt>
<pdfrwt beam="2">  1       -1 0.15726797E-01 0.11204684E+03</pdfrwt>
<totfact> 0.54742048E+03</totfact>
</mgrwt>
</event>
<event>
 8    1  0.8438969E-004  0.1216896E+03  0.7546771E-02  0.1241768E+00
         -1   -1    0    0    0  501 -0.00000000000E+00  0.00000000000E+00  0.32667744222E+03  0.32667744222E+03  0.00000000000E+00 0.  1.
          1   -1    0    0  501    0  0.00000000000E+00 -0.00000000000E+00 -0.55982333643E+02  0.55982333643E+02  0.00000000000E+00 0. -1.
         23    2    1    2    0    0  0.66600865841E+02  0.36968890101E+02  0.22215572960E+03  0.25164670154E+03  0.90390928934E+02 0.  0.
         23    2    1    2    0    0 -0.66600865841E+02 -0.36968890101E+02  0.48539378975E+02  0.13101307432E+03  0.94899842817E+02 0.  0.
          5    1    4    4  502    0 -0.88485934197E+02 -0.21486041208E+02  0.49559636428E+02  0.10377696315E+03  0.47000000000E+01 0. -1.
         -5    1    3    3    0  503  0.52944898539E+02 -0.20851123446E+01  0.19454258072E+03  0.20168395000E+03  0.47000000000E+01 0.  1.
          5    1    3    3  503    0  0.13655967302E+02  0.39054002446E+02  0.27613148884E+02  0.49962751538E+02  0.47000000000E+01 0. -1.
         -5    1    4    4    0  502  0.21885068355E+02 -0.15482848893E+02 -0.10202574527E+01  0.27236111176E+02  0.47000000000E+01 0.  1.
<mgrwt>
<rscale>  0 0.12080943E+03</rscale>
<asrwt>0</asrwt>
<pdfrwt beam="1">  1        1 0.86126669E-02 0.12168958E+03</pdfrwt>
<pdfrwt beam="2">  1       -1 0.50258067E-01 0.12168958E+03</pdfrwt>
<totfact> 0.30633293E+03</totfact>
</mgrwt>
</event>
<event>
 8    1  0.8438969E-004  0.1028392E+03  0.7546771E-02  0.1274630E+00
          1   -1    0    0  501    0  0.00000000000E+00  0.00000000000E+00  0.23631371354E+03  0.23631371354E+03  0.00000000000E+00 0. -1.
         -1   -1    0    0    0  501 -0.00000000000E+00 -0.00000000000E+00 -0.56736838837E+02  0.56736838837E+02  0.00000000000E+00 0.  1.
         23    2    1    2    0    0  0.37177901399E+02 -0.26117676722E+02  0.15746102870E+03  0.18786022296E+03  0.91832229748E+02 0.  0.
         23    2    1    2    0    0 -0.37177901399E+02  0.26117676722E+02  0.22115846005E+02  0.10519032942E+03  0.92258145275E+02 0.  0.
          5    1    3    3  502    0  0.32788572941E+02 -0.59688194925E+02  0.10349788011E+03  0.12398254843E+03  0.47000000000E+01 0. -1.
         -5    1    3    3    0  502  0.43893284575E+01  0.33570518203E+02  0.53963148588E+02  0.63877674522E+02  0.47000000000E+01 0.  1.
          5    1    4    4  503    0 -0.13593042546E+02 -0.34038447770E+02  0.70540058565E+00  0.36959089846E+02  0.47000000000E+01 0. -1.
         -5    1    4    4    0  503 -0.23584858852E+02  0.60156124492E+02  0.21410445419E+02  0.68231239576E+02  0.47000000000E+01 0.  1.
<mgrwt>
<rscale>  0 0.10274356E+03</rscale>
<asrwt>0</asrwt>
<pdfrwt beam="1">  1        1 0.36355955E-01 0.10283917E+03</pdfrwt>
<pdfrwt beam="2">  1       -1 0.87287446E-02 0.10283917E+03</pdfrwt>
<totfact> 0.82772507E+03</totfact>
</mgrwt>
</event>
<event>
 8    1  0.8438969E-004  0.9838916E+02  0.7546771E-02  0.1283808E+00
         -2   -1    0    0    0  501 -0.00000000000E+00  0.00000000000E+00  0.87354035263E+02  0.87354035263E+02  0.00000000000E+00 0.  1.
          2   -1    0    0  501    0  0.00000000000E+00 -0.00000000000E+00 -0.12074416113E+03  0.12074416113E+03  0.00000000000E+00 0. -1.
         23    2    1    2    0    0 -0.19122868607E+00 -0.34454333746E+02  0.13424602831E+02  0.99139283047E+02  0.91984997688E+02 0.  0.
         23    2    1    2    0    0  0.19122868607E+00  0.34454333746E+02 -0.46814728695E+02  0.10895891334E+03  0.92159038035E+02 0.  0.
          5    1    4    4  502    0  0.41284476184E+01  0.63809304105E+02 -0.16256466910E+02  0.66144040446E+02  0.47000000000E+01 0. -1.
         -5    1    3    3    0  503  0.26701177837E+02  0.16721074502E+02 -0.14223635514E+02  0.34884796655E+02  0.47000000000E+01 0.  1.
          5    1    3    3  503    0 -0.26892406523E+02 -0.51175408248E+02  0.27648238345E+02  0.64254486393E+02  0.47000000000E+01 0. -1.
         -5    1    4    4    0  502 -0.39372189323E+01 -0.29354970359E+02 -0.30558261786E+02  0.42814872896E+02  0.47000000000E+01 0.  1.
<mgrwt>
<rscale>  0 0.98348380E+02</rscale>
<asrwt>0</asrwt>
<pdfrwt beam="1">  1        2 0.18576025E-01 0.98389156E+02</pdfrwt>
<pdfrwt beam="2">  1       -2 0.13439082E-01 0.98389156E+02</pdfrwt>
<totfact> 0.11320228E+04</totfact>
</mgrwt>
</event>
<event>
 8    1  0.8438969E-004  0.9820496E+02  0.7546771E-02  0.1284230E+00
         -2   -1    0    0    0  501 -0.00000000000E+00  0.00000000000E+00  0.23400565201E+03  0.23400565201E+03  0.00000000000E+00 0.  1.
          2   -1    0    0  501    0  0.00000000000E+00 -0.00000000000E+00 -0.21096763489E+03  0.21096763489E+03  0.00000000000E+00 0. -1.
         23    2    1    2    0    0 -0.56271630940E+01 -0.36019358213E+02  0.21114827027E+03  0.23286864589E+03  0.91187472089E+02 0.  0.
         23    2    1    2    0    0  0.56271630940E+01  0.36019358213E+02 -0.18811025315E+03  0.21210464101E+03  0.90960718251E+02 0.  0.
          5    1    4    4  502    0 -0.29145489579E+02  0.77505147855E+01 -0.15004766957E+03  0.15312061646E+03  0.47000000000E+01 0. -1.
         -5    1    4    4    0  502  0.34772652673E+02  0.28268843428E+02 -0.38062583587E+02  0.58984024549E+02  0.47000000000E+01 0.  1.
          5    1    3    3  503    0 -0.27663073940E+02 -0.26451835185E+02  0.26938439337E+02  0.47039502106E+02  0.47000000000E+01 0. -1.
         -5    1    3    3    0  503  0.22035910846E+02 -0.95675230280E+01  0.18420983094E+03  0.18582914378E+03  0.47000000000E+01 0.  1.
<mgrwt>
<rscale>  0 0.98152289E+02</rscale>
<asrwt>0</asrwt>
<pdfrwt beam="1">  1        2 0.32456559E-01 0.98204960E+02</pdfrwt>
<pdfrwt beam="2">  1       -2 0.36000870E-01 0.98204960E+02</pdfrwt>
<totfact> 0.11411421E+03</totfact>
</mgrwt>
</event>
<event>
 8    1  0.8438969E-004  0.9919115E+02  0.7546771E-02  0.1282186E+00
          1   -1    0    0  501    0  0.00000000000E+00  0.00000000000E+00  0.11500069745E+03  0.11500069745E+03  0.00000000000E+00 0. -1.
         -1   -1    0    0    0  501 -0.00000000000E+00 -0.00000000000E+00 -0.11317237726E+03  0.11317237726E+03  0.00000000000E+00 0.  1.
         23    2    1    2    0    0  0.27041093377E+02 -0.27509185919E+02  0.57566565613E+02  0.11439417909E+03  0.91017265900E+02 0.  0.
         23    2    1    2    0    0 -0.27041093377E+02  0.27509185919E+02 -0.55738245424E+02  0.11377889562E+03  0.91383308348E+02 0.  0.
          5    1    4    4  502    0 -0.55565719849E+02  0.52549995017E+01 -0.12838243466E+02  0.57463681899E+02  0.47000000000E+01 0. -1.
         -5    1    4    4    0  502  0.28524626472E+02  0.22254186417E+02 -0.42900001959E+02  0.56315213722E+02  0.47000000000E+01 0.  1.
          5    1    3    3  503    0  0.93528480750E+01 -0.59752295756E+02  0.43897965436E+02  0.74879463037E+02  0.47000000000E+01 0. -1.
         -5    1    3    3    0  503  0.17688245302E+02  0.32243109837E+02  0.13668600177E+02  0.39514716052E+02  0.47000000000E+01 0.  1.
<mgrwt>
<rscale>  0 0.99106765E+02</rscale>
<asrwt>0</asrwt>
<pdfrwt beam="1">  1        1 0.17692415E-01 0.99191154E+02</pdfrwt>
<pdfrwt beam="2">  1       -1 0.17411135E-01 0.99191154E+02</pdfrwt>
<totfact> 0.70053670E+03</totfact>
</mgrwt>
</event>
<event>
 8    1  0.8438969E-004  0.9873991E+02  0.7546771E-02  0.1284182E+00
          2   -1    0    0  501    0  0.00000000000E+00  0.00000000000E+00  0.43482039857E+03  0.43482039857E+03  0.00000000000E+00 0. -1.
         -2   -1    0    0    0  501 -0.00000000000E+00 -0.00000000000E+00 -0.21931578643E+02  0.21931578643E+02  0.00000000000E+00 0.  1.
         23    2    1    2    0    0 -0.16589529921E+02 -0.35224155618E+02  0.21496466394E+03  0.23655734375E+03  0.90739277594E+02 0.  0.
         23    2    1    2    0    0  0.16589529921E+02  0.35224155618E+02  0.19792415599E+03  0.22019463347E+03  0.88293552652E+02 0.  0.
          5    1    4    4  502    0  0.46926309276E+02  0.15441147290E+01  0.13090172172E+03  0.13914673386E+03  0.47000000000E+01 0. -1.
         -5    1    4    4    0  502 -0.30336779355E+02  0.33680040889E+02  0.67022434269E+02  0.81047899610E+02  0.47000000000E+01 0.  1.
          5    1    3    3  503    0  0.12187816898E+02  0.19463641031E+02  0.12582626070E+03  0.12799107033E+03  0.47000000000E+01 0. -1.
         -5    1    3    3    0  503 -0.28777346819E+02 -0.54687796649E+02  0.89138403238E+02  0.10856627342E+03  0.47000000000E+01 0.  1.
<mgrwt>
<rscale>  0 0.98174388E+02</rscale>
<asrwt>0</asrwt>
<pdfrwt beam="1">  1        2 0.66895440E-01 0.98739912E+02</pdfrwt>
<pdfrwt beam="2">  1       -2 0.33740893E-02 0.98739912E+02</pdfrwt>
<totfact> 0.23452779E+04</totfact>
</mgrwt>
</event>
<event>
 8    1  0.8438969E-004  0.1366591E+03  0.7546771E-02  0.1218240E+00
          1   -1    0    0  501    0  0.00000000000E+00  0.00000000000E+00  0.67278451410E+02  0.67278451410E+02  0.00000000000E+00 0. -1.
         -1   -1    0    0    0  501 -0.00000000000E+00 -0.00000000000E+00 -0.36059471447E+03  0.36059471447E+03  0.00000000000E+00 0.  1.
         23    2    1    2    0    0 -0.91904188091E+02 -0.35145504441E+02 -0.25093347008E+03  0.28573292666E+03  0.94837295941E+02 0.  0.
         23    2    1    2    0    0  0.91904188091E+02  0.35145504441E+02 -0.42382792982E+02  0.14214023922E+03  0.93412848116E+02 0.  0.
          5    1    3    3  502    0 -0.31915323694E+02  0.27295749041E+02 -0.42280223991E+02  0.59777530419E+02  0.47000000000E+01 0. -1.
         -5    1    3    3    0  502 -0.59988864397E+02 -0.62441253483E+02 -0.20865324609E+03  0.22595539624E+03  0.47000000000E+01 0.  1.
          5    1    4    4  503    0  0.34723554152E+02  0.47182313541E+02  0.14418134273E+02  0.60513374720E+02  0.47000000000E+01 0. -1.
         -5    1    4    4    0  503  0.57180633939E+02 -0.12036809100E+02 -0.56800927255E+02  0.81626864499E+02  0.47000000000E+01 0.  1.
<mgrwt>
<rscale>  0 0.13641223E+03</rscale>
<asrwt>0</asrwt>
<pdfrwt beam="1">  1        1 0.10350531E-01 0.13665906E+03</pdfrwt>
<pdfrwt beam="2">  1       -1 0.55476110E-01 0.13665906E+03</pdfrwt>
<totfact> 0.20120268E+03</totfact>
</mgrwt>
</event>
<event>
 8    1  0.8438969E-004  0.9760617E+02  0.7546771E-02  0.1286151E+00
         -1   -1    0    0    0  501 -0.00000000000E+00  0.00000000000E+00  0.41274640517E+02  0.41274640517E+02  0.00000000000E+00 0.  1.
          1   -1    0    0  501    0  0.00000000000E+00 -0.00000000000E+00 -0.29734557776E+03  0.29734557776E+03  0.00000000000E+00 0. -1.
         23    2    1    2    0    0  0.16417887258E+02 -0.34694189355E+02 -0.45376577369E+02  0.10641539818E+03  0.88272132629E+02 0.  0.
         23    2    1    2    0    0 -0.16417887258E+02  0.34694189355E+02 -0.21069435988E+03  0.23220482010E+03  0.89742584081E+02 0.  0.
          5    1    3    3  502    0  0.29847076052E+02  0.17744112465E+02  0.89052196312E+00  0.35051169815E+02  0.47000000000E+01 0. -1.
         -5    1    3    3    0  502 -0.13429188795E+02 -0.52438301819E+02 -0.46267099332E+02  0.71364228364E+02  0.47000000000E+01 0.  1.
          5    1    4    4  503    0  0.10667185077E+02  0.53416429927E+02 -0.17533289030E+03  0.18365951172E+03  0.47000000000E+01 0. -1.
         -5    1    4    4    0  503 -0.27085072334E+02 -0.18722240573E+02 -0.35361469577E+02  0.48545308384E+02  0.47000000000E+01 0.  1.
<mgrwt>
<rscale>  0 0.97266846E+02</rscale>
<asrwt>0</asrwt>
<pdfrwt beam="1">  1        1 0.45745472E-01 0.97606174E+02</pdfrwt>
<pdfrwt beam="2">  1       -1 0.63499449E-02 0.97606174E+02</pdfrwt>
<totfact> 0.99998396E+03</totfact>
</mgrwt>
</event>
<event>
 8    1  0.8438969E-004  0.9774535E+02  0.7546771E-02  0.1293817E+00
          1   -1    0    0  501    0  0.00000000000E+00  0.00000000000E+00  0.38839934505E+03  0.38839934505E+03  0.00000000000E+00 0. -1.
         -1   -1    0    0    0  501 -0.00000000000E+00 -0.00000000000E+00 -0.21379113399E+02  0.21379113399E+02  0.00000000000E+00 0.  1.
         23    2    1    2    0    0  0.81536700784E+01  0.31454778404E+02  0.17225806545E+03  0.19805805827E+03  0.92186050542E+02 0.  0.
         23    2    1    2    0    0 -0.81536700784E+01 -0.31454778404E+02  0.19476216620E+03  0.21172040018E+03  0.76402493723E+02 0.  0.
          5    1    4    4  502    0 -0.10488805548E+02 -0.53191249254E+02  0.16931065803E+03  0.17784125776E+03  0.47000000000E+01 0. -1.
         -5    1    4    4    0  502  0.23351354693E+01  0.21736470850E+02  0.25451508172E+02  0.33879142417E+02  0.47000000000E+01 0.  1.
          5    1    3    3  503    0  0.32831254965E+02 -0.21024838665E+02  0.77048207208E+02  0.86478039857E+02  0.47000000000E+01 0. -1.
         -5    1    3    3    0  503 -0.24677584887E+02  0.52479617069E+02  0.95209858241E+02  0.11158001842E+03  0.47000000000E+01 0.  1.
<mgrwt>
<rscale>  0 0.93837169E+02</rscale>
<asrwt>0</asrwt>
<pdfrwt beam="1">  1        1 0.59753740E-01 0.97745349E+02</pdfrwt>
<pdfrwt beam="2">  1       -1 0.32890947E-02 0.97745349E+02</pdfrwt>
<totfact> 0.18832049E+04</totfact>
</mgrwt>
</event>
<event>
 8    1  0.8438969E-004  0.1691129E+03  0.7546771E-02  0.1178834E+00
          2   -1    0    0  501    0  0.00000000000E+00  0.00000000000E+00  0.56472017260E+03  0.56472017260E+03  0.00000000000E+00 0. -1.
         -2   -1    0    0    0  501 -0.00000000000E+00 -0.00000000000E+00 -0.52338246798E+02  0.52338246798E+02  0.00000000000E+00 0.  1.
         23    2    1    2    0    0  0.10428906606E+03 -0.95702831888E+02  0.31294347758E+03  0.35571446941E+03  0.92541462374E+02 0.  0.
         23    2    1    2    0    0 -0.10428906606E+03  0.95702831888E+02  0.19943844822E+03  0.26134394998E+03  0.92139699545E+02 0.  0.
          5    1    4    4  502    0 -0.11365786513E+03  0.60460283273E+02  0.17456362768E+03  0.21695185242E+03  0.47000000000E+01 0. -1.
         -5    1    3    3    0  503  0.79781184878E+02 -0.11065156260E+03  0.22585847461E+03  0.26389950041E+03  0.47000000000E+01 0.  1.
          5    1    3    3  503    0  0.24507881187E+02  0.14948730708E+02  0.87085002974E+02  0.91814969003E+02  0.47000000000E+01 0. -1.
         -5    1    4    4    0  502  0.93687990699E+01  0.35242548616E+02  0.24874820537E+02  0.44392097559E+02  0.47000000000E+01 0.  1.
<mgrwt>
<rscale>  0 0.16905797E+03</rscale>
<asrwt>0</asrwt>
<pdfrwt beam="1">  1        2 0.86880022E-01 0.16911287E+03</pdfrwt>
<pdfrwt beam="2">  1       -2 0.80520384E-02 0.16911287E+03</pdfrwt>
<totfact> 0.49485343E+03</totfact>
</mgrwt>
</event>
<event>
 8    1  0.8438969E-004  0.1000257E+03  0.7546771E-02  0.1296729E+00
         -2   -1    0    0    0  501 -0.00000000000E+00  0.00000000000E+00  0.89045913917E+02  0.89045913917E+02  0.00000000000E+00 0.  1.
          2   -1    0    0  501    0  0.00000000000E+00 -0.00000000000E+00 -0.10369750828E+03  0.10369750828E+03  0.00000000000E+00 0. -1.
         23    2    1    2    0    0  0.13221270245E+02 -0.27506218859E+02  0.34722793044E+02  0.81195347405E+02  0.66750415884E+02 0.  0.
         23    2    1    2    0    0 -0.13221270245E+02  0.27506218859E+02 -0.49374387406E+02  0.11154807479E+03  0.95256227066E+02 0.  0.
          5    1    4    4  502    0 -0.37815038657E+02  0.28349025736E+02 -0.66122837917E+02  0.81412309284E+02  0.47000000000E+01 0. -1.
         -5    1    4    4    0  502  0.24593768412E+02 -0.84280687696E+00  0.16748450511E+02  0.30135765506E+02  0.47000000000E+01 0.  1.
          5    1    3    3  503    0  0.22471228053E+02  0.13772936209E+02  0.82752748180E+00  0.26784784184E+02  0.47000000000E+01 0.  1.
         -5    1    3    3    0  503 -0.92499578078E+01 -0.41279155068E+02  0.33895265562E+02  0.54410563222E+02  0.47000000000E+01 0. -1.
<mgrwt>
<rscale>  0 0.92576814E+02</rscale>
<asrwt>0</asrwt>
<pdfrwt beam="1">  1        2 0.15953463E-01 0.10002571E+03</pdfrwt>
<pdfrwt beam="2">  1       -2 0.13699371E-01 0.10002571E+03</pdfrwt>
<totfact> 0.13078871E+04</totfact>
</mgrwt>
</event>
<event>
 8    1  0.8438969E-004  0.1015635E+03  0.7546771E-02  0.1278292E+00
         -1   -1    0    0    0  501 -0.00000000000E+00  0.00000000000E+00  0.44663209048E+02  0.44663209048E+02  0.00000000000E+00 0.  1.
          1   -1    0    0  501    0  0.00000000000E+00 -0.00000000000E+00 -0.24299331337E+03  0.24299331337E+03  0.00000000000E+00 0. -1.
         23    2    1    2    0    0 -0.37148365347E+02  0.12583368668E+01 -0.61717183939E+02  0.11884510939E+03  0.94517536859E+02 0.  0.
         23    2    1    2    0    0  0.37148365347E+02 -0.12583368668E+01 -0.13661292038E+03  0.16881141302E+03  0.91938124257E+02 0.  0.
          5    1    4    4  502    0  0.48030167865E+02 -0.33977768885E+02 -0.57578597067E+02  0.82454658108E+02  0.47000000000E+01 0. -1.
         -5    1    3    3    0  503 -0.55244234065E+02  0.11518940895E+02 -0.33762271698E+01  0.56728302519E+02  0.47000000000E+01 0.  1.
          5    1    3    3  503    0  0.18095868717E+02 -0.10260604029E+02 -0.58340956769E+02  0.62116806875E+02  0.47000000000E+01 0. -1.
         -5    1    4    4    0  502 -0.10881802517E+02  0.32719432018E+02 -0.79034323317E+02  0.86356754917E+02  0.47000000000E+01 0.  1.
<mgrwt>
<rscale>  0 0.10095916E+03</rscale>
<asrwt>0</asrwt>
<pdfrwt beam="1">  1        1 0.37383585E-01 0.10156352E+03</pdfrwt>
<pdfrwt beam="2">  1       -1 0.68712632E-02 0.10156352E+03</pdfrwt>
<totfact> 0.11427007E+04</totfact>
</mgrwt>
</event>
<event>
 8    1  0.8438969E-004  0.1669557E+03  0.7546771E-02  0.1181126E+00
          2   -1    0    0  501    0  0.00000000000E+00  0.00000000000E+00  0.29417630369E+03  0.29417630369E+03  0.00000000000E+00 0. -1.
         -2   -1    0    0    0  501 -0.00000000000E+00 -0.00000000000E+00 -0.14150282997E+03  0.14150282997E+03  0.00000000000E+00 0.  1.
         23    2    1    2    0    0 -0.13573409185E+03 -0.31851805771E+02  0.20169767926E+03  0.26167460268E+03  0.91396732147E+02 0.  0.
         23    2    1    2    0    0  0.13573409185E+03  0.31851805771E+02 -0.49024205543E+02  0.17400453097E+03  0.91847280022E+02 0.  0.
          5    1    3    3  502    0 -0.12668047719E+03 -0.54594773288E+02  0.18801975074E+03  0.23324246877E+03  0.47000000000E+01 0. -1.
         -5    1    3    3    0  502 -0.90536146667E+01  0.22742967516E+02  0.13677928519E+02  0.28432133908E+02  0.47000000000E+01 0.  1.
          5    1    4    4  503    0  0.12636373219E+02 -0.26912086344E+02 -0.13387385509E+02  0.32943139047E+02  0.47000000000E+01 0. -1.
         -5    1    4    4    0  503  0.12309771863E+03  0.58763892115E+02 -0.35636820034E+02  0.14106139192E+03  0.47000000000E+01 0.  1.
<mgrwt>
<rscale>  0 0.16689380E+03</rscale>
<asrwt>0</asrwt>
<pdfrwt beam="1">  1        2 0.45257893E-01 0.16695569E+03</pdfrwt>
<pdfrwt beam="2">  1       -2 0.21769666E-01 0.16695569E+03</pdfrwt>
<totfact> 0.19933955E+03</totfact>
</mgrwt>
</event>
<event>
 8    1  0.8438969E-004  0.1085491E+03  0.7546771E-02  0.1263381E+00
          2   -1    0    0  501    0  0.00000000000E+00  0.00000000000E+00  0.13453487947E+04  0.13453487947E+04  0.00000000000E+00 0. -1.
         -2   -1    0    0    0  501 -0.00000000000E+00 -0.00000000000E+00 -0.94822021567E+01  0.94822021567E+01  0.00000000000E+00 0.  1.
         23    2    1    2    0    0 -0.40126632022E+02 -0.42834333167E+02  0.47793100011E+03  0.49005565437E+03  0.91058095858E+02 0.  0.
         23    2    1    2    0    0  0.40126632022E+02  0.42834333167E+02  0.85793559245E+03  0.86477534250E+03  0.91312570379E+02 0.  0.
          5    1    3    3  502    0 -0.39173923030E+01 -0.42615169632E+02  0.41554846818E+03  0.41777268706E+03  0.47000000000E+01 0. -1.
         -5    1    3    3    0  502 -0.36209239719E+02 -0.21916353478E+00  0.62382531924E+02  0.72282967308E+02  0.47000000000E+01 0.  1.
          5    1    4    4  503    0  0.47331271324E+02  0.66251985331E+02  0.71972340867E+03  0.72432965547E+03  0.47000000000E+01 0. -1.
         -5    1    4    4    0  503 -0.72046393021E+01 -0.23417652164E+02  0.13821218378E+03  0.14044568704E+03  0.47000000000E+01 0.  1.
<mgrwt>
<rscale>  0 0.10849559E+03</rscale>
<asrwt>0</asrwt>
<pdfrwt beam="1">  1        2 0.20697659E+00 0.10854912E+03</pdfrwt>
<pdfrwt beam="2">  1       -2 0.14588014E-02 0.10854912E+03</pdfrwt>
<totfact> 0.19284598E+04</totfact>
</mgrwt>
</event>
<event>
 8    1  0.8438969E-004  0.1301789E+03  0.7546771E-02  0.1227526E+00
         -2   -1    0    0    0  501 -0.00000000000E+00  0.00000000000E+00  0.12893135620E+02  0.12893135620E+02  0.00000000000E+00 0.  1.
          2   -1    0    0  501    0  0.00000000000E+00 -0.00000000000E+00 -0.13165137221E+04  0.13165137221E+04  0.00000000000E+00 0. -1.
         23    2    1    2    0    0 -0.74012730880E+02 -0.54203173663E+02 -0.71542473468E+03  0.72717197957E+03  0.92361618229E+02 0.  0.
         23    2    1    2    0    0  0.74012730880E+02  0.54203173663E+02 -0.58819585179E+03  0.60223487813E+03  0.91085783800E+02 0.  0.
          5    1    4    4  502    0  0.99095954000E+01 -0.24860235768E+02 -0.11035327190E+03  0.11364931158E+03  0.47000000000E+01 0. -1.
         -5    1    4    4    0  502  0.64103135480E+02  0.79063409432E+02 -0.47784257989E+03  0.48858556656E+03  0.47000000000E+01 0.  1.
          5    1    3    3  503    0 -0.58434637813E+02 -0.68810263383E+02 -0.67660934670E+03  0.68262123999E+03  0.47000000000E+01 0. -1.
         -5    1    3    3    0  503 -0.15578093067E+02  0.14607089719E+02 -0.38815387977E+02  0.44550739584E+02  0.47000000000E+01 0.  1.
<mgrwt>
<rscale>  0 0.12995276E+03</rscale>
<asrwt>0</asrwt>
<pdfrwt beam="1">  1        2 0.20254061E+00 0.13017886E+03</pdfrwt>
<pdfrwt beam="2">  1       -2 0.19835589E-02 0.13017886E+03</pdfrwt>
<totfact> 0.12975616E+04</totfact>
</mgrwt>
</event>
<event>
 8    1  0.8438969E-004  0.3481073E+03  0.7546771E-02  0.1063447E+00
          2   -1    0    0  501    0  0.00000000000E+00  0.00000000000E+00  0.61900723795E+03  0.61900723795E+03  0.00000000000E+00 0. -1.
         -2   -1    0    0    0  501 -0.00000000000E+00 -0.00000000000E+00 -0.19551782114E+03  0.19551782114E+03  0.00000000000E+00 0.  1.
         23    2    1    2    0    0 -0.32907054589E+03  0.64740239603E+02  0.21786754786E+03  0.41066405429E+03  0.93273652672E+02 0.  0.
         23    2    1    2    0    0  0.32907054589E+03 -0.64740239603E+02  0.20562186895E+03  0.40386100480E+03  0.91348975979E+02 0.  0.
          5    1    3    3  502    0 -0.14792446689E+03 -0.12418631232E+02  0.68909472856E+02  0.16372683273E+03  0.47000000000E+01 0. -1.
         -5    1    4    4    0  503  0.50439262865E+02 -0.41544280980E+02  0.21081663721E+02  0.68822765606E+02  0.47000000000E+01 0.  1.
          5    1    4    4  503    0  0.27863128302E+03 -0.23195958623E+02  0.18454020523E+03  0.33503823919E+03  0.47000000000E+01 0. -1.
         -5    1    3    3    0  502 -0.18114607900E+03  0.77158870835E+02  0.14895807500E+03  0.24693722156E+03  0.47000000000E+01 0.  1.
<mgrwt>
<rscale>  0 0.34797955E+03</rscale>
<asrwt>0</asrwt>
<pdfrwt beam="1">  1        2 0.95231881E-01 0.34810731E+03</pdfrwt>
<pdfrwt beam="2">  1       -2 0.30079665E-01 0.34810731E+03</pdfrwt>
<totfact> 0.49600717E+02</totfact>
</mgrwt>
</event>
<event>
 8    1  0.8438969E-004  0.1102520E+03  0.7546771E-02  0.1260707E+00
         -3   -1    0    0    0  501 -0.00000000000E+00  0.00000000000E+00  0.63309854537E+03  0.63309854537E+03  0.00000000000E+00 0.  1.
          3   -1    0    0  501    0  0.00000000000E+00 -0.00000000000E+00 -0.18976007804E+02  0.18976007804E+02  0.00000000000E+00 0. -1.
         23    2    1    2    0    0  0.31924721811E+02 -0.52895523837E+02  0.30794444273E+03  0.32665092897E+03  0.89743664305E+02 0.  0.
         23    2    1    2    0    0 -0.31924721811E+02  0.52895523837E+02  0.30617809483E+03  0.32542362420E+03  0.91314758551E+02 0.  0.
          5    1    4    4  502    0 -0.53776177056E+02  0.37934604284E+02  0.11681028885E+03  0.13415530180E+03  0.47000000000E+01 0. -1.
         -5    1    3    3    0  503  0.31505792296E+02 -0.77099165502E+02  0.21895531485E+03  0.23430837836E+03  0.47000000000E+01 0.  1.
          5    1    3    3  503    0  0.41892951555E+00  0.24203641665E+02  0.88989127877E+02  0.92342550604E+02  0.47000000000E+01 0. -1.
         -5    1    4    4    0  502  0.21851455245E+02  0.14960919553E+02  0.18936780599E+03  0.19126832240E+03  0.47000000000E+01 0.  1.
<mgrwt>
<rscale>  0 0.10992616E+03</rscale>
<asrwt>0</asrwt>
<pdfrwt beam="1">  1        3 0.29193863E-02 0.11025203E+03</pdfrwt>
<pdfrwt beam="2">  1       -3 0.97399760E-01 0.11025203E+03</pdfrwt>
<totfact> 0.11376349E+03</totfact>
</mgrwt>
</event>
<event>
 8    1  0.8438969E-004  0.1218889E+03  0.7546771E-02  0.1241129E+00
         -1   -1    0    0    0  501 -0.00000000000E+00  0.00000000000E+00  0.54307382838E+02  0.54307382838E+02  0.00000000000E+00 0.  1.
          1   -1    0    0  501    0  0.00000000000E+00 -0.00000000000E+00 -0.30210273172E+03  0.30210273172E+03  0.00000000000E+00 0. -1.
         23    2    1    2    0    0  0.70934908053E+02  0.30944819656E+02 -0.62332019292E+02  0.13447872876E+03  0.90608525065E+02 0.  0.
         23    2    1    2    0    0 -0.70934908053E+02 -0.30944819656E+02 -0.18546332959E+03  0.22193138580E+03  0.94167671405E+02 0.  0.
          5    1    3    3  502    0  0.30658644260E+02  0.44183305931E+01 -0.77591034049E+02  0.83677551816E+02  0.47000000000E+01 0. -1.
         -5    1    3    3    0  502  0.40276263793E+02  0.26526489063E+02  0.15259014756E+02  0.50801176940E+02  0.47000000000E+01 0.  1.
          5    1    4    4  503    0 -0.71656692183E+02  0.16418151224E+02 -0.10150209127E+03  0.12541531707E+03  0.47000000000E+01 0. -1.
         -5    1    4    4    0  503  0.72178413008E+00 -0.47362970880E+02 -0.83961238322E+02  0.96516068732E+02  0.47000000000E+01 0.  1.
<mgrwt>
<rscale>  0 0.12120099E+03</rscale>
<asrwt>0</asrwt>
<pdfrwt beam="1">  1        1 0.46477343E-01 0.12188886E+03</pdfrwt>
<pdfrwt beam="2">  1       -1 0.83549821E-02 0.12188886E+03</pdfrwt>
<totfact> 0.66202370E+03</totfact>
</mgrwt>
</event>
<event>
 8    1  0.8438969E-004  0.1202523E+03  0.7546771E-02  0.1247310E+00
         -1   -1    0    0    0  501 -0.00000000000E+00  0.00000000000E+00  0.26567370201E+02  0.26567370201E+02  0.00000000000E+00 0.  1.
          1   -1    0    0  501    0  0.00000000000E+00 -0.00000000000E+00 -0.51299642934E+03  0.51299642934E+03  0.00000000000E+00 0. -1.
         23    2    1    2    0    0 -0.17790622943E+02  0.58074809168E+02 -0.30189131648E+03  0.32495995752E+03  0.10378543876E+03 0.  0.
         23    2    1    2    0    0  0.17790622943E+02 -0.58074809168E+02 -0.18453774266E+03  0.21460384202E+03  0.91167103834E+02 0.  0.
          5    1    4    4  502    0 -0.26341849550E+02 -0.58270045218E+02 -0.12327757370E+03  0.13895589727E+03  0.47000000000E+01 0. -1.
         -5    1    4    4    0  502  0.44132472493E+02  0.19523604937E+00 -0.61260168954E+02  0.75647944755E+02  0.47000000000E+01 0.  1.
          5    1    3    3  503    0 -0.41831621552E+02 -0.76432942497E+01 -0.17311655468E+03  0.17832480481E+03  0.47000000000E+01 0. -1.
         -5    1    3    3    0  503  0.24040998608E+02  0.65718103418E+02 -0.12877476181E+03  0.14663515271E+03  0.47000000000E+01 0.  1.
<mgrwt>
<rscale>  0 0.11748176E+03</rscale>
<asrwt>0</asrwt>
<pdfrwt beam="1">  1        1 0.78922520E-01 0.12025226E+03</pdfrwt>
<pdfrwt beam="2">  1       -1 0.40872881E-02 0.12025226E+03</pdfrwt>
<totfact> 0.98133234E+03</totfact>
</mgrwt>
</event>
<event>
 8    1  0.8438969E-004  0.1062047E+03  0.7546771E-02  0.1268254E+00
          2   -1    0    0  501    0  0.00000000000E+00  0.00000000000E+00  0.49257899194E+03  0.49257899194E+03  0.00000000000E+00 0. -1.
         -2   -1    0    0    0  501 -0.00000000000E+00 -0.00000000000E+00 -0.22882876229E+02  0.22882876229E+02  0.00000000000E+00 0.  1.
         23    2    1    2    0    0  0.51611756935E+02 -0.12999332411E+02  0.25785777109E+03  0.27849157972E+03  0.90742348263E+02 0.  0.
         23    2    1    2    0    0 -0.51611756935E+02  0.12999332411E+02  0.21183834462E+03  0.23697028844E+03  0.91905806438E+02 0.  0.
          5    1    4    4  502    0 -0.95713570912E+01  0.30700714603E+02  0.16744673795E+02  0.36559798333E+02  0.47000000000E+01 0. -1.
         -5    1    4    4    0  502 -0.42040399843E+02 -0.17701382191E+02  0.19509367082E+03  0.20041049011E+03  0.47000000000E+01 0.  1.
          5    1    3    3  503    0  0.27178030604E+02 -0.51333334208E+02  0.12312674264E+03  0.13622056123E+03  0.47000000000E+01 0.  1.
         -5    1    3    3    0  503  0.24433726330E+02  0.38334001797E+02  0.13473102845E+03  0.14227101850E+03  0.47000000000E+01 0. -1.
<mgrwt>
<rscale>  0 0.10595248E+03</rscale>
<asrwt>0</asrwt>
<pdfrwt beam="1">  1        2 0.75781376E-01 0.10620468E+03</pdfrwt>
<pdfrwt beam="2">  1       -2 0.35204429E-02 0.10620468E+03</pdfrwt>
<totfact> 0.19412640E+04</totfact>
</mgrwt>
</event>
<event>
 8    1  0.8438969E-004  0.1252257E+03  0.7546771E-02  0.1235737E+00
         -1   -1    0    0    0  501 -0.00000000000E+00  0.00000000000E+00  0.31942859176E+02  0.31942859176E+02  0.00000000000E+00 0.  1.
          1   -1    0    0  501    0  0.00000000000E+00 -0.00000000000E+00 -0.49256289423E+03  0.49256289423E+03  0.00000000000E+00 0. -1.
         23    2    1    2    0    0  0.49117000955E+02  0.69424540261E+02 -0.27313717166E+03  0.30047527455E+03  0.91919690496E+02 0.  0.
         23    2    1    2    0    0 -0.49117000955E+02 -0.69424540261E+02 -0.18748286339E+03  0.22403047885E+03  0.88360538795E+02 0.  0.
          5    1    3    3  502    0  0.74006614474E+02  0.60671104138E+02 -0.18478246156E+03  0.20814564604E+03  0.47000000000E+01 0. -1.
         -5    1    4    4    0  503 -0.27740504032E+02 -0.87016272826E+02 -0.11951331247E+03  0.15048883399E+03  0.47000000000E+01 0.  1.
          5    1    4    4  503    0 -0.21376496924E+02  0.17591732565E+02 -0.67969550926E+02  0.73541644858E+02  0.47000000000E+01 0. -1.
         -5    1    3    3    0  502 -0.24889613519E+02  0.87534361230E+01 -0.88354710099E+02  0.92329628515E+02  0.47000000000E+01 0.  1.
<mgrwt>
<rscale>  0 0.12457344E+03</rscale>
<asrwt>0</asrwt>
<pdfrwt beam="1">  1        1 0.75778898E-01 0.12522570E+03</pdfrwt>
<pdfrwt beam="2">  1       -1 0.49142866E-02 0.12522570E+03</pdfrwt>
<totfact> 0.79135788E+03</totfact>
</mgrwt>
</event>
<event>
 8    1  0.8438969E-004  0.1143883E+03  0.7546771E-02  0.1252806E+00
          1   -1    0    0  501    0  0.00000000000E+00  0.00000000000E+00  0.45119453646E+03  0.45119453646E+03  0.00000000000E+00 0. -1.
         -1   -1    0    0    0  501 -0.00000000000E+00 -0.00000000000E+00 -0.47720831612E+02  0.47720831612E+02  0.00000000000E+00 0.  1.
         23    2    1    2    0    0 -0.68180045874E+02  0.10197455060E+02  0.44938401136E+02  0.12257475944E+03  0.90843849605E+02 0.  0.
         23    2    1    2    0    0  0.68180045874E+02 -0.10197455060E+02  0.35853530372E+03  0.37634060863E+03  0.91280791786E+02 0.  0.
          5    1    3    3  502    0 -0.23648369637E+02  0.43102656920E+02  0.45281967413E+02  0.67004708736E+02  0.47000000000E+01 0. -1.
         -5    1    3    3    0  502 -0.44531676238E+02 -0.32905201860E+02 -0.34356627635E+00  0.55570050709E+02  0.47000000000E+01 0.  1.
          5    1    4    4  503    0  0.29525029537E+02 -0.41439776436E+02  0.92630637860E+02  0.10578992159E+03  0.47000000000E+01 0. -1.
         -5    1    4    4    0  503  0.38655016337E+02  0.31242321377E+02  0.26590466586E+03  0.27055068704E+03  0.47000000000E+01 0.  1.
<mgrwt>
<rscale>  0 0.11430114E+03</rscale>
<asrwt>0</asrwt>
<pdfrwt beam="1">  1        1 0.69414541E-01 0.11438833E+03</pdfrwt>
<pdfrwt beam="2">  1       -1 0.73416667E-02 0.11438833E+03</pdfrwt>
<totfact> 0.48530557E+03</totfact>
</mgrwt>
</event>
<event>
 8    1  0.8438969E-004  0.1230352E+03  0.7546771E-02  0.1238709E+00
          2   -1    0    0  501    0  0.00000000000E+00  0.00000000000E+00  0.17162245138E+03  0.17162245138E+03  0.00000000000E+00 0. -1.
         -2   -1    0    0    0  501 -0.00000000000E+00 -0.00000000000E+00 -0.10372309141E+03  0.10372309141E+03  0.00000000000E+00 0.  1.
         23    2    1    2    0    0 -0.32232510615E+02 -0.73744998598E+02  0.88974554476E+02  0.15183589766E+03  0.93061318045E+02 0.  0.
         23    2    1    2    0    0  0.32232510615E+02  0.73744998598E+02 -0.21075194509E+02  0.12350964513E+03  0.91286412225E+02 0.  0.
          5    1    4    4  502    0  0.44617141709E+02  0.52487609026E+01  0.11354627873E+02  0.46575276698E+02  0.47000000000E+01 0. -1.
         -5    1    3    3    0  503 -0.33846930599E+02 -0.27679935989E+02 -0.76880088014E+01  0.44642905894E+02  0.47000000000E+01 0.  1.
          5    1    3    3  503    0  0.16144199838E+01 -0.46065062609E+02  0.96662563278E+02  0.10719299177E+03  0.47000000000E+01 0. -1.
         -5    1    4    4    0  502 -0.12384631094E+02  0.68496237695E+02 -0.32429822383E+02  0.76934368429E+02  0.47000000000E+01 0.  1.
<mgrwt>
<rscale>  0 0.12269962E+03</rscale>
<asrwt>0</asrwt>
<pdfrwt beam="1">  1        2 0.26403454E-01 0.12303523E+03</pdfrwt>
<pdfrwt beam="2">  1       -2 0.15957399E-01 0.12303523E+03</pdfrwt>
<totfact> 0.59038203E+03</totfact>
</mgrwt>
</event>
<event>
 8    1  0.8438969E-004  0.1053304E+03  0.7546771E-02  0.1269877E+00
          1   -1    0    0  501    0  0.00000000000E+00  0.00000000000E+00  0.67528676943E+03  0.67528676943E+03  0.00000000000E+00 0. -1.
         -1   -1    0    0    0  501 -0.00000000000E+00 -0.00000000000E+00 -0.18754267515E+02  0.18754267515E+02  0.00000000000E+00 0.  1.
         23    2    1    2    0    0 -0.47722150721E+02  0.23305983676E+02  0.45490800458E+03  0.46694302485E+03  0.90961108606E+02 0.  0.
         23    2    1    2    0    0  0.47722150721E+02 -0.23305983676E+02  0.20162449733E+03  0.22709801209E+03  0.90002759002E+02 0.  0.
          5    1    3    3  502    0 -0.67701660842E+02  0.39229174566E+02  0.31222571261E+03  0.32191525070E+03  0.47000000000E+01 0. -1.
         -5    1    4    4    0  503  0.49836941671E+02  0.11092475283E+02  0.50293615065E+02  0.71821316330E+02  0.47000000000E+01 0.  1.
          5    1    4    4  503    0 -0.21147909504E+01 -0.34398458959E+02  0.15133088227E+03  0.15527669576E+03  0.47000000000E+01 0. -1.
         -5    1    3    3    0  502  0.19979510121E+02 -0.15923190890E+02  0.14268229197E+03  0.14502777415E+03  0.47000000000E+01 0.  1.
<mgrwt>
<rscale>  0 0.10512318E+03</rscale>
<asrwt>0</asrwt>
<pdfrwt beam="1">  1        1 0.10389025E+00 0.10533041E+03</pdfrwt>
<pdfrwt beam="2">  1       -1 0.28852724E-02 0.10533041E+03</pdfrwt>
<totfact> 0.11137341E+04</totfact>
</mgrwt>
</event>
<event>
 8    1  0.8438969E-004  0.9933065E+02  0.7546771E-02  0.1283761E+00
          2   -1    0    0  501    0  0.00000000000E+00  0.00000000000E+00  0.28876571935E+03  0.28876571935E+03  0.00000000000E+00 0. -1.
         -2   -1    0    0    0  501 -0.00000000000E+00 -0.00000000000E+00 -0.37213539424E+02  0.37213539424E+02  0.00000000000E+00 0.  1.
         23    2    1    2    0    0  0.67690734394E+01  0.31746157963E+02  0.18355726053E+03  0.20870995443E+03  0.93877251152E+02 0.  0.
         23    2    1    2    0    0 -0.67690734394E+01 -0.31746157963E+02  0.67994919400E+02  0.11726930435E+03  0.89861792647E+02 0.  0.
          5    1    3    3  502    0 -0.30963498135E+02  0.38388090395E+02  0.52928751464E+02  0.72497768465E+02  0.47000000000E+01 0. -1.
         -5    1    3    3    0  502  0.37732571574E+02 -0.66419324324E+01  0.13062850907E+03  0.13621218596E+03  0.47000000000E+01 0.  1.
          5    1    4    4  503    0  0.38952207398E+01  0.21920425485E+02  0.56846901025E+02  0.61231837749E+02  0.47000000000E+01 0. -1.
         -5    1    4    4    0  503 -0.10664294179E+02 -0.53666583448E+02  0.11148018376E+02  0.56037466600E+02  0.47000000000E+01 0.  1.
<mgrwt>
<rscale>  0 0.98370310E+02</rscale>
<asrwt>0</asrwt>
<pdfrwt beam="1">  1        2 0.44425494E-01 0.99330646E+02</pdfrwt>
<pdfrwt beam="2">  1       -2 0.57251601E-02 0.99330646E+02</pdfrwt>
<totfact> 0.16502527E+04</totfact>
</mgrwt>
</event>
<event>
 8    1  0.8438969E-004  0.9394570E+02  0.7546771E-02  0.1297784E+00
         -3   -1    0    0    0  501 -0.00000000000E+00  0.00000000000E+00  0.24795628288E+03  0.24795628288E+03  0.00000000000E+00 0.  1.
          3   -1    0    0  501    0  0.00000000000E+00 -0.00000000000E+00 -0.61256501440E+02  0.61256501440E+02  0.00000000000E+00 0. -1.
         23    2    1    2    0    0  0.15288998122E+02 -0.21202352307E+02 -0.13641125225E+02  0.87938578128E+02  0.82848174505E+02 0.  0.
         23    2    1    2    0    0 -0.15288998122E+02  0.21202352307E+02  0.20034090667E+03  0.22127420619E+03  0.90235814596E+02 0.  0.
          5    1    4    4  502    0 -0.47164147696E+02  0.34757868297E+02  0.11828976419E+03  0.13208756394E+03  0.47000000000E+01 0. -1.
         -5    1    3    3    0  503  0.45377958189E+02 -0.19474934299E+02  0.83945201338E+01  0.50308946755E+02  0.47000000000E+01 0.  1.
          5    1    3    3  503    0 -0.30088960067E+02 -0.17274180081E+01 -0.22035645359E+02  0.37629631373E+02  0.47000000000E+01 0. -1.
         -5    1    4    4    0  502  0.31875149574E+02 -0.13555515990E+02  0.82051142477E+02  0.89186642251E+02  0.47000000000E+01 0.  1.
<mgrwt>
<rscale>  0 0.92125595E+02</rscale>
<asrwt>0</asrwt>
<pdfrwt beam="1">  1        3 0.94240773E-02 0.93945705E+02</pdfrwt>
<pdfrwt beam="2">  1       -3 0.38147120E-01 0.93945705E+02</pdfrwt>
<totfact> 0.11961016E+03</totfact>
</mgrwt>
</event>
<event>
 8    1  0.8438969E-004  0.1048658E+03  0.7546771E-02  0.1272794E+00
          1   -1    0    0  501    0  0.00000000000E+00  0.00000000000E+00  0.55455705129E+03  0.55455705129E+03  0.00000000000E+00 0. -1.
         -1   -1    0    0    0  501 -0.00000000000E+00 -0.00000000000E+00 -0.19272077788E+02  0.19272077788E+02  0.00000000000E+00 0.  1.
         23    2    1    2    0    0 -0.34581056465E+02 -0.20273300330E+02  0.31142970043E+03  0.32861117525E+03  0.96901960832E+02 0.  0.
         23    2    1    2    0    0  0.34581056465E+02  0.20273300330E+02  0.22385527306E+03  0.24521795382E+03  0.91726797759E+02 0.  0.
          5    1    3    3  502    0 -0.62905738716E+02 -0.13393142548E+02  0.27088730227E+03  0.27845740924E+03  0.47000000000E+01 0. -1.
         -5    1    3    3    0  502  0.28324682251E+02 -0.68801577821E+01  0.40542398167E+02  0.50153766009E+02  0.47000000000E+01 0.  1.
          5    1    4    4  503    0  0.15789819790E+02  0.47505469529E+02  0.19398600328E+03  0.20039647580E+03  0.47000000000E+01 0. -1.
         -5    1    4    4    0  503  0.18791236674E+02 -0.27232169199E+02  0.29869269785E+02  0.44821478027E+02  0.47000000000E+01 0.  1.
<mgrwt>
<rscale>  0 0.10365437E+03</rscale>
<asrwt>0</asrwt>
<pdfrwt beam="1">  1        1 0.85316457E-01 0.10486585E+03</pdfrwt>
<pdfrwt beam="2">  1       -1 0.29649355E-02 0.10486585E+03</pdfrwt>
<totfact> 0.13982436E+04</totfact>
</mgrwt>
</event>
<event>
 8    1  0.8438969E-004  0.1274418E+03  0.7546771E-02  0.1238029E+00
         -1   -1    0    0    0  501 -0.00000000000E+00  0.00000000000E+00  0.10669074296E+03  0.10669074296E+03  0.00000000000E+00 0.  1.
          1   -1    0    0  501    0  0.00000000000E+00 -0.00000000000E+00 -0.27093206039E+03  0.27093206039E+03  0.00000000000E+00 0. -1.
         23    2    1    2    0    0  0.55701248192E+02  0.34039743219E+02  0.55095271146E+02  0.12394989619E+03  0.89815113948E+02 0.  0.
         23    2    1    2    0    0 -0.55701248192E+02 -0.34039743219E+02 -0.21933658858E+03  0.25367290716E+03  0.10945351328E+03 0.  0.
          5    1    4    4  502    0 -0.71353989861E+02  0.67929367804E+01 -0.18310159603E+03  0.19668711277E+03  0.47000000000E+01 0. -1.
         -5    1    4    4    0  502  0.15652741668E+02 -0.40832680000E+02 -0.36234992548E+02  0.56985794394E+02  0.47000000000E+01 0.  1.
          5    1    3    3  503    0 -0.22865996030E+02  0.20621707923E+02  0.13963408255E+02  0.34134665403E+02  0.47000000000E+01 0. -1.
         -5    1    3    3    0  503  0.78567244222E+02  0.13418035296E+02  0.41131862890E+02  0.89815230784E+02  0.47000000000E+01 0.  1.
<mgrwt>
<rscale>  0 0.12312488E+03</rscale>
<asrwt>0</asrwt>
<pdfrwt beam="1">  1        1 0.41681855E-01 0.12744177E+03</pdfrwt>
<pdfrwt beam="2">  1       -1 0.16413961E-01 0.12744177E+03</pdfrwt>
<totfact> 0.26857025E+03</totfact>
</mgrwt>
</event>
<event>
 8    1  0.8438969E-004  0.1021854E+03  0.7546771E-02  0.1276209E+00
          1   -1    0    0  501    0  0.00000000000E+00  0.00000000000E+00  0.89893104339E+02  0.89893104339E+02  0.00000000000E+00 0. -1.
         -1   -1    0    0    0  501 -0.00000000000E+00 -0.00000000000E+00 -0.11519095785E+03  0.11519095785E+03  0.00000000000E+00 0.  1.
         23    2    1    2    0    0 -0.22677561059E+02 -0.37578023296E+02 -0.11696252050E+02  0.10285257835E+03  0.92279309436E+02 0.  0.
         23    2    1    2    0    0  0.22677561059E+02  0.37578023296E+02 -0.13601601458E+02  0.10223148384E+03  0.91323015257E+02 0.  0.
          5    1    4    4  502    0  0.43704325257E+02  0.21030017724E+01  0.20468199833E+02  0.48533780680E+02  0.47000000000E+01 0. -1.
         -5    1    3    3    0  503 -0.56619139414E+02 -0.12215579215E+02 -0.15232450896E+02  0.60075493205E+02  0.47000000000E+01 0.  1.
          5    1    3    3  503    0  0.33941578354E+02 -0.25362444081E+02  0.35361988456E+01  0.42777085141E+02  0.47000000000E+01 0. -1.
         -5    1    4    4    0  502 -0.21026764198E+02  0.35475021523E+02 -0.34069801291E+02  0.53697703160E+02  0.47000000000E+01 0.  1.
<mgrwt>
<rscale>  0 0.10196900E+03</rscale>
<asrwt>0</asrwt>
<pdfrwt beam="1">  1        1 0.13829708E-01 0.10218537E+03</pdfrwt>
<pdfrwt beam="2">  1       -1 0.17721686E-01 0.10218537E+03</pdfrwt>
<totfact> 0.93605348E+03</totfact>
</mgrwt>
</event>
<event>
 8    1  0.8438969E-004  0.9351166E+02  0.7546771E-02  0.1294642E+00
         -1   -1    0    0    0  501 -0.00000000000E+00  0.00000000000E+00  0.26676842494E+03  0.26676842494E+03  0.00000000000E+00 0.  1.
          1   -1    0    0  501    0  0.00000000000E+00 -0.00000000000E+00 -0.45507190588E+02  0.45507190588E+02  0.00000000000E+00 0. -1.
         23    2    1    2    0    0 -0.13118894173E+02 -0.64937216559E+01  0.27844331444E+02  0.97439565433E+02  0.92221951362E+02 0.  0.
         23    2    1    2    0    0  0.13118894173E+02  0.64937216559E+01  0.19341690291E+03  0.21483605009E+03  0.92358845188E+02 0.  0.
          5    1    3    3  502    0  0.36707208370E+02 -0.17194173525E+02  0.20727323269E+02  0.45768664820E+02  0.47000000000E+01 0. -1.
         -5    1    4    4    0  503  0.45638077573E+02  0.26472013083E+02  0.89080733370E+02  0.10363912707E+03  0.47000000000E+01 0.  1.
          5    1    4    4  503    0 -0.32519183399E+02 -0.19978291427E+02  0.10433616954E+03  0.11119692303E+03  0.47000000000E+01 0. -1.
         -5    1    3    3    0  502 -0.49826102543E+02  0.10700451869E+02  0.71170081746E+01  0.51670900613E+02  0.47000000000E+01 0.  1.
<mgrwt>
<rscale>  0 0.93477838E+02</rscale>
<asrwt>0</asrwt>
<pdfrwt beam="1">  1        1 0.70011064E-02 0.93511658E+02</pdfrwt>
<pdfrwt beam="2">  1       -1 0.41041295E-01 0.93511658E+02</pdfrwt>
<totfact> 0.56892060E+03</totfact>
</mgrwt>
</event>
<event>
 8    1  0.8438969E-004  0.1062423E+03  0.7546771E-02  0.1268056E+00
         -2   -1    0    0    0  501 -0.00000000000E+00  0.00000000000E+00  0.40986649763E+02  0.40986649763E+02  0.00000000000E+00 0.  1.
          2   -1    0    0  501    0  0.00000000000E+00 -0.00000000000E+00 -0.27419169476E+03  0.27419169476E+03  0.00000000000E+00 0. -1.
         23    2    1    2    0    0 -0.45043475951E+02 -0.29411011321E+02 -0.12519930916E+03  0.16420198272E+03  0.91616056463E+02 0.  0.
         23    2    1    2    0    0  0.45043475951E+02  0.29411011321E+02 -0.10800573584E+03  0.15097636181E+03  0.90745250774E+02 0.  0.
          5    1    4    4  502    0 -0.21320394418E+02  0.17260781245E+02 -0.58136440443E+01  0.28432063668E+02  0.47000000000E+01 0. -1.
         -5    1    3    3    0  503 -0.50181021726E+02 -0.49164195128E+02 -0.50564262217E+02  0.86683837234E+02  0.47000000000E+01 0.  1.
          5    1    3    3  503    0  0.51375457750E+01  0.19753183807E+02 -0.74635046944E+02  0.77518145485E+02  0.47000000000E+01 0. -1.
         -5    1    4    4    0  502  0.66363870369E+02  0.12150230075E+02 -0.10219209180E+03  0.12254429814E+03  0.47000000000E+01 0.  1.
<mgrwt>
<rscale>  0 0.10605429E+03</rscale>
<asrwt>0</asrwt>
<pdfrwt beam="1">  1        2 0.42183337E-01 0.10624229E+03</pdfrwt>
<pdfrwt beam="2">  1       -2 0.63056386E-02 0.10624229E+03</pdfrwt>
<totfact> 0.15164380E+04</totfact>
</mgrwt>
</event>
<event>
 8    1  0.8438969E-004  0.9264504E+02  0.7546771E-02  0.1303435E+00
         -1   -1    0    0    0  501 -0.00000000000E+00  0.00000000000E+00  0.21237057568E+03  0.21237057568E+03  0.00000000000E+00 0.  1.
          1   -1    0    0  501    0  0.00000000000E+00 -0.00000000000E+00 -0.43972119597E+02  0.43972119597E+02  0.00000000000E+00 0. -1.
         23    2    1    2    0    0 -0.31703322557E+01  0.90972944549E+00  0.14384536739E+03  0.17109819649E+03  0.92586308437E+02 0.  0.
         23    2    1    2    0    0  0.31703322557E+01 -0.90972944549E+00  0.24553088695E+02  0.85244498783E+02  0.81565260951E+02 0.  0.
          5    1    3    3  502    0  0.16563144665E+02 -0.33583918386E+02  0.11693661579E+03  0.12287587008E+03  0.47000000000E+01 0. -1.
         -5    1    3    3    0  502 -0.19733476920E+02  0.34493647832E+02  0.26908751596E+02  0.48222326412E+02  0.47000000000E+01 0.  1.
          5    1    4    4  503    0 -0.27656156951E+01 -0.24675227775E+02  0.45911591668E+02  0.52406867349E+02  0.47000000000E+01 0. -1.
         -5    1    4    4    0  503  0.59359479508E+01  0.23765498329E+02 -0.21358502973E+02  0.32837631434E+02  0.47000000000E+01 0.  1.
<mgrwt>
<rscale>  0 0.89759749E+02</rscale>
<asrwt>0</asrwt>
<pdfrwt beam="1">  1        1 0.67649416E-02 0.92645038E+02</pdfrwt>
<pdfrwt beam="2">  1       -1 0.32672396E-01 0.92645038E+02</pdfrwt>
<totfact> 0.87919677E+03</totfact>
</mgrwt>
</event>
<event>
 8    1  0.8438969E-004  0.1022522E+03  0.7546771E-02  0.1276895E+00
          2   -1    0    0  501    0  0.00000000000E+00  0.00000000000E+00  0.29173417943E+03  0.29173417943E+03  0.00000000000E+00 0. -1.
         -2   -1    0    0    0  501 -0.00000000000E+00 -0.00000000000E+00 -0.48919110393E+02  0.48919110393E+02  0.00000000000E+00 0.  1.
         23    2    1    2    0    0  0.37533480333E+02 -0.18431712605E+02  0.21124907824E+03  0.23363959993E+03  0.90624496821E+02 0.  0.
         23    2    1    2    0    0 -0.37533480333E+02  0.18431712605E+02  0.31565990797E+02  0.10701368989E+03  0.93311456282E+02 0.  0.
          5    1    3    3  502    0 -0.18563612194E+02  0.17986541693E+02  0.10309303643E+03  0.10638791069E+03  0.47000000000E+01 0. -1.
         -5    1    4    4    0  503  0.26680667749E+02  0.20162989114E+02  0.25504515733E+02  0.42319906478E+02  0.47000000000E+01 0.  1.
          5    1    4    4  503    0 -0.64214148082E+02 -0.17312765082E+01  0.60614750635E+01  0.64693783412E+02  0.47000000000E+01 0. -1.
         -5    1    3    3    0  502  0.56097092528E+02 -0.36418254298E+02  0.10815604181E+03  0.12725168925E+03  0.47000000000E+01 0.  1.
<mgrwt>
<rscale>  0 0.10163517E+03</rscale>
<asrwt>0</asrwt>
<pdfrwt beam="1">  1        2 0.44882180E-01 0.10225223E+03</pdfrwt>
<pdfrwt beam="2">  1       -2 0.75260172E-02 0.10225223E+03</pdfrwt>
<totfact> 0.10822920E+04</totfact>
</mgrwt>
</event>
<event>
 8    1  0.8438969E-004  0.1332266E+03  0.7546771E-02  0.1224351E+00
          1   -1    0    0  501    0  0.00000000000E+00  0.00000000000E+00  0.62454802034E+02  0.62454802034E+02  0.00000000000E+00 0. -1.
         -1   -1    0    0    0  501 -0.00000000000E+00 -0.00000000000E+00 -0.36278853012E+03  0.36278853012E+03  0.00000000000E+00 0.  1.
         23    2    1    2    0    0  0.72411596884E+02 -0.56935149218E+02 -0.47435360441E+02  0.14141936474E+03  0.96251092063E+02 0.  0.
         23    2    1    2    0    0 -0.72411596884E+02  0.56935149218E+02 -0.25289836765E+03  0.28382396742E+03  0.90074466650E+02 0.  0.
          5    1    4    4  502    0  0.19196926741E+01  0.44736804233E+02 -0.49695844658E+02  0.67058436078E+02  0.47000000000E+01 0. -1.
         -5    1    3    3    0  503  0.96283328920E+01 -0.68084332172E+02 -0.19369362652E+02  0.71592201329E+02  0.47000000000E+01 0.  1.
          5    1    3    3  503    0  0.62783263992E+02  0.11149182954E+02 -0.28065997788E+02  0.69827163410E+02  0.47000000000E+01 0. -1.
         -5    1    4    4    0  502 -0.74331289558E+02  0.12198344985E+02 -0.20320252299E+03  0.21676553134E+03  0.47000000000E+01 0.  1.
<mgrwt>
<rscale>  0 0.13211485E+03</rscale>
<asrwt>0</asrwt>
<pdfrwt beam="1">  1        1 0.96084311E-02 0.13322659E+03</pdfrwt>
<pdfrwt beam="2">  1       -1 0.55813620E-01 0.13322659E+03</pdfrwt>
<totfact> 0.21932122E+03</totfact>
</mgrwt>
</event>
<event>
 8    1  0.8438969E-004  0.1664613E+03  0.7546771E-02  0.1182158E+00
          2   -1    0    0  501    0  0.00000000000E+00  0.00000000000E+00  0.11061895090E+03  0.11061895090E+03  0.00000000000E+00 0. -1.
         -2   -1    0    0    0  501 -0.00000000000E+00 -0.00000000000E+00 -0.25484389548E+03  0.25484389548E+03  0.00000000000E+00 0.  1.
         23    2    1    2    0    0 -0.13303793059E+03 -0.37093174650E+02 -0.10303825236E+03  0.19398187789E+03  0.89090363789E+02 0.  0.
         23    2    1    2    0    0  0.13303793059E+03  0.37093174650E+02 -0.41186692224E+02  0.17148096849E+03  0.92921388053E+02 0.  0.
          5    1    4    4  502    0  0.77175419603E+02  0.67384931340E+02 -0.21524193319E+02  0.10479577883E+03  0.47000000000E+01 0. -1.
         -5    1    3    3    0  503 -0.14059952979E+03 -0.17100518941E+02 -0.82555344950E+02  0.16400649531E+03  0.47000000000E+01 0.  1.
          5    1    3    3  503    0  0.75615992012E+01 -0.19992655709E+02 -0.20482907409E+02  0.29975382578E+02  0.47000000000E+01 0. -1.
         -5    1    4    4    0  502  0.55862510983E+02 -0.30291756690E+02 -0.19662498905E+02  0.66685189660E+02  0.47000000000E+01 0.  1.
<mgrwt>
<rscale>  0 0.16593187E+03</rscale>
<asrwt>0</asrwt>
<pdfrwt beam="1">  1        2 0.17018300E-01 0.16646134E+03</pdfrwt>
<pdfrwt beam="2">  1       -2 0.39206753E-01 0.16646134E+03</pdfrwt>
<totfact> 0.20322341E+03</totfact>
</mgrwt>
</event>
<event>
 8    1  0.8438969E-004  0.9464269E+02  0.7546771E-02  0.1292857E+00
         -1   -1    0    0    0  501 -0.00000000000E+00  0.00000000000E+00  0.46781731027E+03  0.46781731027E+03  0.00000000000E+00 0.  1.
          1   -1    0    0  501    0  0.00000000000E+00 -0.00000000000E+00 -0.19013190474E+03  0.19013190474E+03  0.00000000000E+00 0. -1.
         23    2    1    2    0    0  0.24207322985E+02  0.24946856319E+02  0.45120585567E+03  0.46102490507E+03  0.88027829554E+02 0.  0.
         23    2    1    2    0    0 -0.24207322985E+02 -0.24946856319E+02 -0.17352045015E+03  0.19692430994E+03  0.86379957749E+02 0.  0.
          5    1    3    3  502    0  0.19832130272E+02 -0.26156434131E+02  0.85415455869E+02  0.91626210982E+02  0.47000000000E+01 0. -1.
         -5    1    4    4    0  503 -0.19189241041E+02  0.28022397687E+02 -0.10234695852E+03  0.10793735063E+03  0.47000000000E+01 0.  1.
          5    1    4    4  503    0 -0.50180819438E+01 -0.52969254006E+02 -0.71173491631E+02  0.88986959310E+02  0.47000000000E+01 0. -1.
         -5    1    3    3    0  502  0.43751927127E+01  0.51103290450E+02  0.36579039980E+03  0.36939869409E+03  0.47000000000E+01 0.  1.
<mgrwt>
<rscale>  0 0.94257665E+02</rscale>
<asrwt>0</asrwt>
<pdfrwt beam="1">  1        1 0.29251062E-01 0.94642691E+02</pdfrwt>
<pdfrwt beam="2">  1       -1 0.71971894E-01 0.94642691E+02</pdfrwt>
<totfact> 0.32228667E+02</totfact>
</mgrwt>
</event>
<event>
 8    1  0.8438969E-004  0.9504972E+02  0.7546771E-02  0.1291984E+00
          2   -1    0    0  501    0  0.00000000000E+00  0.00000000000E+00  0.51080388286E+03  0.51080388286E+03  0.00000000000E+00 0. -1.
         -2   -1    0    0    0  501 -0.00000000000E+00 -0.00000000000E+00 -0.20679234820E+02  0.20679234820E+02  0.00000000000E+00 0.  1.
         23    2    1    2    0    0 -0.17826946549E+02  0.12318515292E+02  0.34932803448E+03  0.36160629205E+03  0.90881730508E+02 0.  0.
         23    2    1    2    0    0  0.17826946549E+02 -0.12318515292E+02  0.14079661357E+03  0.16987682563E+03  0.92546764675E+02 0.  0.
          5    1    3    3  502    0 -0.36328702393E+02  0.31164919643E+02  0.31173780401E+03  0.31542602189E+03  0.47000000000E+01 0. -1.
         -5    1    3    3    0  502  0.18501755844E+02 -0.18846404351E+02  0.37590230461E+02  0.46180270164E+02  0.47000000000E+01 0.  1.
          5    1    4    4  503    0 -0.27662166064E+02  0.15562398861E+02  0.20182092229E+02  0.37905019936E+02  0.47000000000E+01 0. -1.
         -5    1    4    4    0  503  0.45489112613E+02 -0.27880914152E+02  0.12061452134E+03  0.13197180569E+03  0.47000000000E+01 0.  1.
<mgrwt>
<rscale>  0 0.94642001E+02</rscale>
<asrwt>0</asrwt>
<pdfrwt beam="1">  1        2 0.78585203E-01 0.95049721E+02</pdfrwt>
<pdfrwt beam="2">  1       -2 0.31814211E-02 0.95049721E+02</pdfrwt>
<totfact> 0.21413274E+04</totfact>
</mgrwt>
</event>
<event>
 8    1  0.8438969E-004  0.1117477E+03  0.7546771E-02  0.1259233E+00
         -2   -1    0    0    0  501 -0.00000000000E+00  0.00000000000E+00  0.29560086622E+02  0.29560086622E+02  0.00000000000E+00 0.  1.
          2   -1    0    0  501    0  0.00000000000E+00 -0.00000000000E+00 -0.44189443544E+03  0.44189443544E+03  0.00000000000E+00 0. -1.
         23    2    1    2    0    0  0.22079432739E+02 -0.46848349841E+02 -0.13675756048E+03  0.17408249807E+03  0.94444780453E+02 0.  0.
         23    2    1    2    0    0 -0.22079432739E+02  0.46848349841E+02 -0.27557678834E+03  0.29737202399E+03  0.99021639788E+02 0.  0.
          5    1    4    4  502    0  0.89231725978E+01  0.70261136986E+02 -0.20076137143E+03  0.21294005879E+03  0.47000000000E+01 0. -1.
         -5    1    3    3    0  503 -0.37037628633E+02 -0.13966044981E+02 -0.48299368409E+02  0.62623919838E+02  0.47000000000E+01 0.  1.
          5    1    3    3  503    0  0.59117061372E+02 -0.32882304860E+02 -0.88458192069E+02  0.11145857824E+03  0.47000000000E+01 0. -1.
         -5    1    4    4    0  502 -0.31002605337E+02 -0.23412787145E+02 -0.74815416912E+02  0.84431965199E+02  0.47000000000E+01 0.  1.
<mgrwt>
<rscale>  0 0.11072509E+03</rscale>
<asrwt>0</asrwt>
<pdfrwt beam="1">  1        2 0.67983757E-01 0.11174773E+03</pdfrwt>
<pdfrwt beam="2">  1       -2 0.45477058E-02 0.11174773E+03</pdfrwt>
<totfact> 0.15017665E+04</totfact>
</mgrwt>
</event>
<event>
 8    1  0.8438969E-004  0.1049434E+03  0.7546771E-02  0.1272011E+00
         -1   -1    0    0    0  501 -0.00000000000E+00  0.00000000000E+00  0.37193781106E+02  0.37193781106E+02  0.00000000000E+00 0.  1.
          1   -1    0    0  501    0  0.00000000000E+00 -0.00000000000E+00 -0.40517874615E+03  0.40517874615E+03  0.00000000000E+00 0. -1.
         23    2    1    2    0    0 -0.43022929058E+02 -0.18182676102E+02 -0.61905184316E+02  0.11880190986E+03  0.90000332254E+02 0.  0.
         23    2    1    2    0    0  0.43022929058E+02  0.18182676102E+02 -0.30607978073E+03  0.32357061740E+03  0.93976221129E+02 0.  0.
          5    1    4    4  502    0 -0.82889191148E+01  0.40075955574E+02 -0.19353108734E+03  0.19786652108E+03  0.47000000000E+01 0. -1.
         -5    1    4    4    0  502  0.51311848173E+02 -0.21893279472E+02 -0.11254869338E+03  0.12570409632E+03  0.47000000000E+01 0.  1.
          5    1    3    3  503    0 -0.26901452032E+01  0.31857769898E+02 -0.47444262725E+01  0.32661199683E+02  0.47000000000E+01 0. -1.
         -5    1    3    3    0  503 -0.40332783855E+02 -0.50040446000E+02 -0.57160758043E+02  0.86140710175E+02  0.47000000000E+01 0.  1.
<mgrwt>
<rscale>  0 0.10404569E+03</rscale>
<asrwt>0</asrwt>
<pdfrwt beam="1">  1        1 0.62335188E-01 0.10494338E+03</pdfrwt>
<pdfrwt beam="2">  1       -1 0.57221205E-02 0.10494338E+03</pdfrwt>
<totfact> 0.80048507E+03</totfact>
</mgrwt>
</event>
<event>
 8    1  0.8438969E-004  0.1222546E+03  0.7546771E-02  0.1246141E+00
          3   -1    0    0  501    0  0.00000000000E+00  0.00000000000E+00  0.34275529150E+03  0.34275529150E+03  0.00000000000E+00 0. -1.
         -3   -1    0    0    0  501 -0.00000000000E+00 -0.00000000000E+00 -0.51697223410E+02  0.51697223410E+02  0.00000000000E+00 0.  1.
         23    2    1    2    0    0 -0.30845039267E+02 -0.47276285459E+02  0.52390613379E+02  0.13300739674E+03  0.10844227775E+03 0.  0.
         23    2    1    2    0    0  0.30845039267E+02  0.47276285459E+02  0.23866745471E+03  0.26144511817E+03  0.90581081137E+02 0.  0.
          5    1    3    3  502    0 -0.69521295395E+02 -0.43802611540E+02  0.28126309270E+02  0.86977345121E+02  0.47000000000E+01 0. -1.
         -5    1    3    3    0  502  0.38676256128E+02 -0.34736739189E+01  0.24264304108E+02  0.46030051624E+02  0.47000000000E+01 0.  1.
          5    1    4    4  503    0  0.57095710042E+02  0.52701983065E+02  0.19535016316E+03  0.21028836243E+03  0.47000000000E+01 0. -1.
         -5    1    4    4    0  503 -0.26250670775E+02 -0.54256976059E+01  0.43317291548E+02  0.51156755738E+02  0.47000000000E+01 0.  1.
<mgrwt>
<rscale>  0 0.11817376E+03</rscale>
<asrwt>0</asrwt>
<pdfrwt beam="1">  1        3 0.52731582E-01 0.12225462E+03</pdfrwt>
<pdfrwt beam="2">  1       -3 0.79534192E-02 0.12225462E+03</pdfrwt>
<totfact> 0.87784391E+02</totfact>
</mgrwt>
</event>
<event>
 8    1  0.8438969E-004  0.1949235E+03  0.7546771E-02  0.1156083E+00
          1   -1    0    0  501    0  0.00000000000E+00  0.00000000000E+00  0.67136145951E+03  0.67136145951E+03  0.00000000000E+00 0. -1.
         -1   -1    0    0    0  501 -0.00000000000E+00 -0.00000000000E+00 -0.74741215069E+02  0.74741215069E+02  0.00000000000E+00 0.  1.
         23    2    1    2    0    0  0.15426759058E+03 -0.46546774693E+02  0.96990293444E+02  0.20979562288E+03  0.92962329029E+02 0.  0.
         23    2    1    2    0    0 -0.15426759058E+03  0.46546774693E+02  0.49962995100E+03  0.53630705170E+03  0.10968169416E+03 0.  0.
          5    1    4    4  502    0 -0.14066240041E+03  0.64766081185E+02  0.48431587636E+03  0.50849239351E+03  0.47000000000E+01 0. -1.
         -5    1    3    3    0  503  0.25098172890E+02 -0.41665509246E+02  0.12724459395E+01  0.48883965284E+02  0.47000000000E+01 0.  1.
          5    1    3    3  503    0  0.12916941769E+03 -0.48812654469E+01  0.95717847505E+02  0.16091165759E+03  0.47000000000E+01 0.  1.
         -5    1    4    4    0  502 -0.13605190166E+02 -0.18219306491E+02  0.15314074642E+02  0.27814658197E+02  0.47000000000E+01 0.  1.
<mgrwt>
<rscale>  0 0.19266098E+03</rscale>
<asrwt>0</asrwt>
<pdfrwt beam="1">  1        1 0.10328637E+00 0.19492349E+03</pdfrwt>
<pdfrwt beam="2">  1       -1 0.11498649E-01 0.19492349E+03</pdfrwt>
<totfact> 0.14638264E+03</totfact>
</mgrwt>
</event>
<event>
 8    1  0.8438969E-004  0.1289331E+03  0.7546771E-02  0.1229233E+00
          2   -1    0    0  501    0  0.00000000000E+00  0.00000000000E+00  0.60023865392E+03  0.60023865392E+03  0.00000000000E+00 0. -1.
         -2   -1    0    0    0  501 -0.00000000000E+00 -0.00000000000E+00 -0.11562002299E+03  0.11562002299E+03  0.00000000000E+00 0.  1.
         23    2    1    2    0    0 -0.35717974721E+02  0.81578559551E+02 -0.69898428461E+02  0.14666126934E+03  0.93235736311E+02 0.  0.
         23    2    1    2    0    0  0.35717974721E+02 -0.81578559551E+02  0.55451705940E+03  0.56919740757E+03  0.92550983388E+02 0.  0.
          5    1    3    3  502    0 -0.18785226962E+02  0.63228632705E+02  0.62154025601E+01  0.66418867611E+02  0.47000000000E+01 0. -1.
         -5    1    3    3    0  502 -0.16932747759E+02  0.18349926847E+02 -0.76113831022E+02  0.80242401726E+02  0.47000000000E+01 0.  1.
          5    1    4    4  503    0  0.56717165633E+02 -0.68169723823E+02  0.51239379831E+03  0.52003215542E+03  0.47000000000E+01 0. -1.
         -5    1    4    4    0  503 -0.20999190912E+02 -0.13408835728E+02  0.42123261092E+02  0.49165252156E+02  0.47000000000E+01 0.  1.
<mgrwt>
<rscale>  0 0.12880932E+03</rscale>
<asrwt>0</asrwt>
<pdfrwt beam="1">  1        2 0.92344406E-01 0.12893307E+03</pdfrwt>
<pdfrwt beam="2">  1       -2 0.17787696E-01 0.12893307E+03</pdfrwt>
<totfact> 0.12856445E+03</totfact>
</mgrwt>
</event>
<event>
 8    1  0.8438969E-004  0.1131023E+03  0.7546771E-02  0.1255467E+00
         -2   -1    0    0    0  501 -0.00000000000E+00  0.00000000000E+00  0.25785331255E+03  0.25785331255E+03  0.00000000000E+00 0.  1.
          2   -1    0    0  501    0  0.00000000000E+00 -0.00000000000E+00 -0.55695763725E+02  0.55695763725E+02  0.00000000000E+00 0. -1.
         23    2    1    2    0    0  0.10455950997E+02 -0.64494382663E+02  0.46604039929E+02  0.12122378004E+03  0.90853816669E+02 0.  0.
         23    2    1    2    0    0 -0.10455950997E+02  0.64494382663E+02  0.15555350889E+03  0.19232529623E+03  0.92321574592E+02 0.  0.
          5    1    4    4  502    0 -0.38438140421E+02 -0.40042382363E+01  0.55623375399E+02  0.67893846950E+02  0.47000000000E+01 0. -1.
         -5    1    4    4    0  502  0.27982189424E+02  0.68498620899E+02  0.99930133493E+02  0.12443144928E+03  0.47000000000E+01 0.  1.
          5    1    3    3  503    0 -0.14734796283E+02 -0.18786965507E+02 -0.23413685801E+02  0.33769142382E+02  0.47000000000E+01 0. -1.
         -5    1    3    3    0  503  0.25190747280E+02 -0.45707417156E+02  0.70017725730E+02  0.87454637658E+02  0.47000000000E+01 0.  1.
<mgrwt>
<rscale>  0 0.11280237E+03</rscale>
<asrwt>0</asrwt>
<pdfrwt beam="1">  1        2 0.85685792E-02 0.11310228E+03</pdfrwt>
<pdfrwt beam="2">  1       -2 0.39669739E-01 0.11310228E+03</pdfrwt>
<totfact> 0.44315838E+03</totfact>
</mgrwt>
</event>
<event>
 8    1  0.8438969E-004  0.9928017E+02  0.7546771E-02  0.1281899E+00
          1   -1    0    0  501    0  0.00000000000E+00  0.00000000000E+00  0.16664909132E+02  0.16664909132E+02  0.00000000000E+00 0. -1.
         -1   -1    0    0    0  501 -0.00000000000E+00 -0.00000000000E+00 -0.72420215994E+03  0.72420215994E+03  0.00000000000E+00 0.  1.
         23    2    1    2    0    0  0.30733989553E+02  0.26632417360E+02 -0.51313564825E+03  0.52265164828E+03  0.90568693151E+02 0.  0.
         23    2    1    2    0    0 -0.30733989553E+02 -0.26632417360E+02 -0.19440160256E+03  0.21821542079E+03  0.90399795491E+02 0.  0.
          5    1    3    3  502    0 -0.28787779345E+02  0.79217941580E+01 -0.90612256796E+02  0.95520480233E+02  0.47000000000E+01 0. -1.
         -5    1    4    4    0  503  0.17040088681E+02  0.21621599740E+02 -0.34202505607E+02  0.44156082111E+02  0.47000000000E+01 0.  1.
          5    1    4    4  503    0 -0.47774078234E+02 -0.48254017099E+02 -0.16019909695E+03  0.17405933868E+03  0.47000000000E+01 0. -1.
         -5    1    3    3    0  502  0.59521768898E+02  0.18710623202E+02 -0.42252339146E+03  0.42713116805E+03  0.47000000000E+01 0.  1.
<mgrwt>
<rscale>  0 0.99241633E+02</rscale>
<asrwt>0</asrwt>
<pdfrwt beam="1">  1        1 0.25638321E-02 0.99280169E+02</pdfrwt>
<pdfrwt beam="2">  1       -1 0.11141572E+00 0.99280169E+02</pdfrwt>
<totfact> 0.31583308E+03</totfact>
</mgrwt>
</event>
<event>
 8    1  0.8438969E-004  0.1147600E+03  0.7546771E-02  0.1252663E+00
         -1   -1    0    0    0  501 -0.00000000000E+00  0.00000000000E+00  0.71422472415E+02  0.71422472415E+02  0.00000000000E+00 0.  1.
          1   -1    0    0  501    0  0.00000000000E+00 -0.00000000000E+00 -0.18797810318E+03  0.18797810318E+03  0.00000000000E+00 0. -1.
         23    2    1    2    0    0 -0.67613306915E+02  0.15761676226E+02 -0.81807070175E+02  0.14093349364E+03  0.91377585815E+02 0.  0.
         23    2    1    2    0    0  0.67613306915E+02 -0.15761676226E+02 -0.34748560586E+02  0.11846708195E+03  0.89481826834E+02 0.  0.
          5    1    3    3  502    0 -0.95923938550E+01  0.46958271835E+02 -0.41418923853E+02  0.63519371586E+02  0.47000000000E+01 0. -1.
         -5    1    4    4    0  503  0.11664739296E+02 -0.42879083513E+02  0.43093834465E+01  0.44892568777E+02  0.47000000000E+01 0.  1.
          5    1    4    4  503    0  0.55948567619E+02  0.27117407287E+02 -0.39057944032E+02  0.73574513173E+02  0.47000000000E+01 0. -1.
         -5    1    3    3    0  502 -0.58020913060E+02 -0.31196595609E+02 -0.40388146323E+02  0.77414122053E+02  0.47000000000E+01 0.  1.
<mgrwt>
<rscale>  0 0.11438220E+03</rscale>
<asrwt>0</asrwt>
<pdfrwt beam="1">  1        1 0.28919708E-01 0.11475998E+03</pdfrwt>
<pdfrwt beam="2">  1       -1 0.10988073E-01 0.11475998E+03</pdfrwt>
<totfact> 0.78085302E+03</totfact>
</mgrwt>
</event>
<event>
 8    1  0.8438969E-004  0.2033571E+03  0.7546771E-02  0.1147261E+00
         -1   -1    0    0    0  501 -0.00000000000E+00  0.00000000000E+00  0.23819423841E+02  0.23819423841E+02  0.00000000000E+00 0.  1.
          1   -1    0    0  501    0  0.00000000000E+00 -0.00000000000E+00 -0.17234873186E+04  0.17234873186E+04  0.00000000000E+00 0. -1.
         23    2    1    2    0    0  0.35610257041E+02 -0.17627314317E+03 -0.83635280807E+03  0.86072070795E+03  0.94941066580E+02 0.  0.
         23    2    1    2    0    0 -0.35610257041E+02  0.17627314317E+03 -0.86331508674E+03  0.88658603454E+03  0.91550785028E+02 0.  0.
          5    1    3    3  502    0  0.63217305491E+02 -0.15688455707E+03 -0.70543913404E+03  0.72544858798E+03  0.47000000000E+01 0. -1.
         -5    1    4    4    0  503 -0.55428024153E+02  0.16270030071E+03 -0.80807590748E+03  0.82616730507E+03  0.47000000000E+01 0.  1.
          5    1    4    4  503    0  0.19817767112E+02  0.13572842455E+02 -0.55239179253E+02  0.60418729465E+02  0.47000000000E+01 0. -1.
         -5    1    3    3    0  502 -0.27607048450E+02 -0.19388586093E+02 -0.13091367403E+03  0.13527211997E+03  0.47000000000E+01 0.  1.
<mgrwt>
<rscale>  0 0.20296585E+03</rscale>
<asrwt>0</asrwt>
<pdfrwt beam="1">  1        1 0.26515200E+00 0.20335712E+03</pdfrwt>
<pdfrwt beam="2">  1       -1 0.36645253E-02 0.20335712E+03</pdfrwt>
<totfact> 0.14347428E+03</totfact>
</mgrwt>
</event>
<event>
 8    1  0.8438969E-004  0.9661799E+02  0.7546771E-02  0.1288184E+00
         -2   -1    0    0    0  501 -0.00000000000E+00  0.00000000000E+00  0.38056048412E+03  0.38056048412E+03  0.00000000000E+00 0.  1.
          2   -1    0    0  501    0  0.00000000000E+00 -0.00000000000E+00 -0.26140988048E+02  0.26140988048E+02  0.00000000000E+00 0. -1.
         23    2    1    2    0    0  0.27102246957E+02 -0.20798383276E+02  0.23284287486E+03  0.25209291952E+03  0.90376607384E+02 0.  0.
         23    2    1    2    0    0 -0.27102246957E+02  0.20798383276E+02  0.12157662120E+03  0.15460855264E+03  0.89195432556E+02 0.  0.
          5    1    4    4  502    0 -0.50777009100E+02  0.27412339203E+02  0.42927359191E+02  0.72073498325E+02  0.47000000000E+01 0. -1.
         -5    1    4    4    0  502  0.23674762143E+02 -0.66139559269E+01  0.78649262013E+02  0.82535054314E+02  0.47000000000E+01 0.  1.
          5    1    3    3  503    0  0.38514897500E+02 -0.39362462104E+02  0.77679039020E+02  0.95335847693E+02  0.47000000000E+01 0. -1.
         -5    1    3    3    0  503 -0.11412650543E+02  0.18564078828E+02  0.15516383584E+03  0.15675707183E+03  0.47000000000E+01 0.  1.
<mgrwt>
<rscale>  0 0.96340808E+02</rscale>
<asrwt>0</asrwt>
<pdfrwt beam="1">  1        2 0.40216907E-02 0.96617988E+02</pdfrwt>
<pdfrwt beam="2">  1       -2 0.58547763E-01 0.96617988E+02</pdfrwt>
<totfact> 0.53755070E+03</totfact>
</mgrwt>
</event>
<event>
 8    1  0.8438969E-004  0.9291081E+02  0.7546771E-02  0.1296949E+00
          2   -1    0    0  501    0  0.00000000000E+00  0.00000000000E+00  0.18119659856E+03  0.18119659856E+03  0.00000000000E+00 0. -1.
         -2   -1    0    0    0  501 -0.00000000000E+00 -0.00000000000E+00 -0.38751742455E+03  0.38751742455E+03  0.00000000000E+00 0.  1.
         23    2    1    2    0    0  0.17493158961E+02  0.68360552962E+01 -0.36991890776E+03  0.38140846558E+03  0.90992730664E+02 0.  0.
         23    2    1    2    0    0 -0.17493158961E+02 -0.68360552962E+01  0.16359808177E+03  0.18730555754E+03  0.89254116216E+02 0.  0.
          5    1    4    4  502    0 -0.41145437100E+02 -0.22859967435E+02  0.14588821281E+03  0.15336552984E+03  0.47000000000E+01 0. -1.
         -5    1    3    3    0  503  0.38204996308E+01  0.47678653602E+02 -0.15989052948E+03  0.16695784392E+03  0.47000000000E+01 0.  1.
          5    1    3    3  503    0  0.13672659330E+02 -0.40842598306E+02 -0.21002837828E+03  0.21445062167E+03  0.47000000000E+01 0. -1.
         -5    1    4    4    0  502  0.23652278140E+02  0.16023912139E+02  0.17709868961E+02  0.33940027696E+02  0.47000000000E+01 0.  1.
<mgrwt>
<rscale>  0 0.92482348E+02</rscale>
<asrwt>0</asrwt>
<pdfrwt beam="1">  1        2 0.27876400E-01 0.92910814E+02</pdfrwt>
<pdfrwt beam="2">  1       -2 0.59618065E-01 0.92910814E+02</pdfrwt>
<totfact> 0.50517358E+02</totfact>
</mgrwt>
</event>
<event>
 8    1  0.8438969E-004  0.9705962E+02  0.7546771E-02  0.1291502E+00
         -1   -1    0    0    0  501 -0.00000000000E+00  0.00000000000E+00  0.14826748182E+03  0.14826748182E+03  0.00000000000E+00 0.  1.
          1   -1    0    0  501    0  0.00000000000E+00 -0.00000000000E+00 -0.10715036655E+03  0.10715036655E+03  0.00000000000E+00 0. -1.
         23    2    1    2    0    0 -0.28261383370E+02  0.24054600728E+02 -0.65302130600E+02  0.11698263826E+03  0.89684111121E+02 0.  0.
         23    2    1    2    0    0  0.28261383370E+02 -0.24054600728E+02  0.10641924587E+03  0.13843521012E+03  0.80386080279E+02 0.  0.
          5    1    4    4  502    0 -0.99793224991E+01  0.23461236313E+02  0.43780318417E+02  0.50880475308E+02  0.47000000000E+01 0. -1.
         -5    1    3    3    0  503 -0.97867572623E+01 -0.33777248682E+02 -0.17454481974E+02  0.39540259069E+02  0.47000000000E+01 0.  1.
          5    1    3    3  503    0 -0.18474626108E+02  0.57831849410E+02 -0.47847648626E+02  0.77442379193E+02  0.47000000000E+01 0. -1.
         -5    1    4    4    0  502  0.38240705869E+02 -0.47515837041E+02  0.62638927452E+02  0.87554734809E+02  0.47000000000E+01 0.  1.
<mgrwt>
<rscale>  0 0.94855662E+02</rscale>
<asrwt>0</asrwt>
<pdfrwt beam="1">  1        1 0.16484672E-01 0.97059618E+02</pdfrwt>
<pdfrwt beam="2">  1       -1 0.22810382E-01 0.97059618E+02</pdfrwt>
<totfact> 0.49779125E+03</totfact>
</mgrwt>
</event>
<event>
 8    1  0.8438969E-004  0.9283933E+02  0.7546771E-02  0.1297291E+00
          2   -1    0    0  501    0  0.00000000000E+00  0.00000000000E+00  0.38080048193E+03  0.38080048193E+03  0.00000000000E+00 0.  1.
         -2   -1    0    0    0  501 -0.00000000000E+00 -0.00000000000E+00 -0.27566142758E+02  0.27566142758E+02  0.00000000000E+00 0. -1.
         23    2    1    2    0    0  0.16624143914E+02  0.32936127025E+01  0.26557458399E+03  0.28068196238E+03  0.89248497460E+02 0.  0.
         23    2    1    2    0    0 -0.16624143914E+02 -0.32936127025E+01  0.87659755182E+02  0.12768466231E+03  0.91279407670E+02 0.  0.
          5    1    3    3  502    0 -0.22490894991E+02  0.28649025986E+02  0.64508351055E+02  0.74229538617E+02  0.47000000000E+01 0. -1.
         -5    1    4    4    0  503 -0.35611129923E+02 -0.14473740483E+02  0.96112702253E+02  0.10362134564E+03  0.47000000000E+01 0.  1.
          5    1    4    4  503    0  0.18986986009E+02  0.11180127780E+02 -0.84529470702E+01  0.24063316668E+02  0.47000000000E+01 0. -1.
         -5    1    3    3    0  502  0.39115038905E+02 -0.25355413283E+02  0.20106623293E+03  0.20645242376E+03  0.47000000000E+01 0.  1.
<mgrwt>
<rscale>  0 0.92336243E+02</rscale>
<asrwt>0</asrwt>
<pdfrwt beam="1">  1        2 0.58584686E-01 0.92839325E+02</pdfrwt>
<pdfrwt beam="2">  1       -2 0.42409453E-02 0.92839325E+02</pdfrwt>
<totfact> 0.19164422E+04</totfact>
</mgrwt>
</event>
<event>
 8    1  0.8438969E-004  0.9442627E+02  0.7546771E-02  0.1293142E+00
         -1   -1    0    0    0  501 -0.00000000000E+00  0.00000000000E+00  0.35929160952E+02  0.35929160952E+02  0.00000000000E+00 0.  1.
          1   -1    0    0  501    0  0.00000000000E+00 -0.00000000000E+00 -0.26765629344E+03  0.26765629344E+03  0.00000000000E+00 0. -1.
         23    2    1    2    0    0  0.38216345508E+01  0.19072111379E+02 -0.16058787087E+03  0.18629220508E+03  0.92401142204E+02 0.  0.
         23    2    1    2    0    0 -0.38216345508E+01 -0.19072111379E+02 -0.71139261620E+02  0.11729324931E+03  0.91206148187E+02 0.  0.
          5    1    3    3  502    0 -0.41461991819E+02 -0.62400040269E+01 -0.66767721634E+02  0.78981346329E+02  0.47000000000E+01 0. -1.
         -5    1    4    4    0  503 -0.62472341288E+01 -0.40172845313E+02  0.20121151982E+01  0.40975895870E+02  0.47000000000E+01 0.  1.
          5    1    4    4  503    0  0.24255995781E+01  0.21100733934E+02 -0.73151376818E+02  0.76317353441E+02  0.47000000000E+01 0. -1.
         -5    1    3    3    0  502  0.45283626369E+02  0.25312115406E+02 -0.93820149235E+02  0.10731085875E+03  0.47000000000E+01 0.  1.
<mgrwt>
<rscale>  0 0.94132648E+02</rscale>
<asrwt>0</asrwt>
<pdfrwt beam="1">  1        1 0.41177890E-01 0.94426275E+02</pdfrwt>
<pdfrwt beam="2">  1       -1 0.55275634E-02 0.94426275E+02</pdfrwt>
<totfact> 0.13911522E+04</totfact>
</mgrwt>
</event>
<event>
 8    1  0.8438969E-004  0.9554328E+02  0.7546771E-02  0.1293272E+00
         -1   -1    0    0    0  501 -0.00000000000E+00  0.00000000000E+00  0.17628589958E+02  0.17628589958E+02  0.00000000000E+00 0.  1.
          1   -1    0    0  501    0  0.00000000000E+00 -0.00000000000E+00 -0.48735385676E+03  0.48735385676E+03  0.00000000000E+00 0. -1.
         23    2    1    2    0    0 -0.12656231013E+02  0.28775005944E+02 -0.23763555319E+03  0.25612335665E+03  0.90223813546E+02 0.  0.
         23    2    1    2    0    0  0.12656231013E+02 -0.28775005944E+02 -0.23208971362E+03  0.24885909007E+03  0.84125087786E+02 0.  0.
          5    1    4    4  502    0  0.61571004047E+01 -0.54521432064E+02 -0.19730342268E+03  0.20484439714E+03  0.47000000000E+01 0. -1.
         -5    1    3    3    0  503 -0.32219962005E+02  0.39100863168E+02 -0.67701881273E+02  0.84691429200E+02  0.47000000000E+01 0.  1.
          5    1    3    3  503    0  0.19563730992E+02 -0.10325857224E+02 -0.16993367191E+03  0.17143192745E+03  0.47000000000E+01 0. -1.
         -5    1    4    4    0  502  0.64991306084E+01  0.25746426120E+02 -0.34786290936E+02  0.44014692930E+02  0.47000000000E+01 0.  1.
<mgrwt>
<rscale>  0 0.94075615E+02</rscale>
<asrwt>0</asrwt>
<pdfrwt beam="1">  1        1 0.74977507E-01 0.95543276E+02</pdfrwt>
<pdfrwt beam="2">  1       -1 0.27120911E-02 0.95543276E+02</pdfrwt>
<totfact> 0.18648517E+04</totfact>
</mgrwt>
</event>
<event>
 8    1  0.8438969E-004  0.1041015E+03  0.7546771E-02  0.1275298E+00
         -4   -1    0    0    0  501 -0.00000000000E+00  0.00000000000E+00  0.68407222966E+03  0.68407222966E+03  0.00000000000E+00 0.  1.
          4   -1    0    0  501    0  0.00000000000E+00 -0.00000000000E+00 -0.15146508925E+02  0.15146508925E+02  0.00000000000E+00 0. -1.
         23    2    1    2    0    0 -0.30451998337E+02  0.13045664169E+02  0.39356679779E+03  0.40710188004E+03  0.98689426244E+02 0.  0.
         23    2    1    2    0    0  0.30451998337E+02 -0.13045664169E+02  0.27535892294E+03  0.29211685854E+03  0.91718095514E+02 0.  0.
          5    1    4    4  502    0 -0.56246870121E+00  0.31274304222E+02  0.42311277427E+02  0.52827385636E+02  0.47000000000E+01 0. -1.
         -5    1    4    4    0  502  0.31014467038E+02 -0.44319968391E+02  0.23304764551E+03  0.23928947290E+03  0.47000000000E+01 0.  1.
          5    1    3    3  503    0 -0.26693882399E+02  0.37408001674E+02  0.36935099486E+03  0.37222865197E+03  0.47000000000E+01 0. -1.
         -5    1    3    3    0  503 -0.37581159379E+01 -0.24362337505E+02  0.24215802932E+02  0.34873228066E+02  0.47000000000E+01 0.  1.
<mgrwt>
<rscale>  0 0.10241502E+03</rscale>
<asrwt>0</asrwt>
<pdfrwt beam="1">  1        4 0.23302327E-02 0.10410147E+03</pdfrwt>
<pdfrwt beam="2">  1       -4 0.10524186E+00 0.10410147E+03</pdfrwt>
<totfact> 0.95053272E+02</totfact>
</mgrwt>
</event>
<event>
 8    1  0.8438969E-004  0.1627378E+03  0.7546771E-02  0.1189025E+00
          1   -1    0    0  501    0  0.00000000000E+00  0.00000000000E+00  0.53898655824E+03  0.53898655824E+03  0.00000000000E+00 0. -1.
         -1   -1    0    0    0  501 -0.00000000000E+00 -0.00000000000E+00 -0.11131761328E+03  0.11131761328E+03  0.00000000000E+00 0.  1.
         23    2    1    2    0    0 -0.18520135285E+02  0.11922262196E+03 -0.32548156117E+02  0.16596071967E+03  0.10920874054E+03 0.  0.
         23    2    1    2    0    0  0.18520135285E+02 -0.11922262196E+03  0.46021710107E+03  0.48434345184E+03  0.90729103510E+02 0.  0.
          5    1    3    3  502    0  0.14504818441E+02  0.22469243449E+02  0.34279899375E+02  0.43731660846E+02  0.47000000000E+01 0. -1.
         -5    1    3    3    0  502 -0.33024953726E+02  0.96753378507E+02 -0.66828055492E+02  0.12222905883E+03  0.47000000000E+01 0.  1.
          5    1    4    4  503    0  0.53876274802E+02 -0.54042953286E+02  0.24597852044E+03  0.25758652198E+03  0.47000000000E+01 0. -1.
         -5    1    4    4    0  503 -0.35356139517E+02 -0.65179668671E+02  0.21423858063E+03  0.22675692986E+03  0.47000000000E+01 0.  1.
<mgrwt>
<rscale>  0 0.15970975E+03</rscale>
<asrwt>0</asrwt>
<pdfrwt beam="1">  1        1 0.82921007E-01 0.16273776E+03</pdfrwt>
<pdfrwt beam="2">  1       -1 0.17125787E-01 0.16273776E+03</pdfrwt>
<totfact> 0.10577681E+03</totfact>
</mgrwt>
</event>
<event>
 8    1  0.8438969E-004  0.1260483E+03  0.7546771E-02  0.1234770E+00
         -1   -1    0    0    0  501 -0.00000000000E+00  0.00000000000E+00  0.29672611184E+03  0.29672611184E+03  0.00000000000E+00 0.  1.
          1   -1    0    0  501    0  0.00000000000E+00 -0.00000000000E+00 -0.53245252713E+02  0.53245252713E+02  0.00000000000E+00 0. -1.
         23    2    1    2    0    0  0.81164427466E+02 -0.10412199273E+02  0.97860452404E+02  0.15957707304E+03  0.95875418731E+02 0.  0.
         23    2    1    2    0    0 -0.81164427466E+02  0.10412199273E+02  0.14562040672E+03  0.19039429151E+03  0.91370702120E+02 0.  0.
          5    1    4    4  502    0  0.18248799248E+02  0.81931331011E+01  0.12094594810E+02  0.23843559458E+02  0.47000000000E+01 0. -1.
         -5    1    4    4    0  502 -0.99413226713E+02  0.22190661718E+01  0.13352581191E+03  0.16655073205E+03  0.47000000000E+01 0.  1.
          5    1    3    3  503    0  0.67073153824E+02 -0.49718700125E+02  0.71063677594E+02  0.10974011746E+03  0.47000000000E+01 0. -1.
         -5    1    3    3    0  503  0.14091273642E+02  0.39306500852E+02  0.26796774811E+02  0.49836955588E+02  0.47000000000E+01 0.  1.
<mgrwt>
<rscale>  0 0.12519173E+03</rscale>
<asrwt>0</asrwt>
<pdfrwt beam="1">  1        1 0.81915775E-02 0.12604830E+03</pdfrwt>
<pdfrwt beam="2">  1       -1 0.45650170E-01 0.12604830E+03</pdfrwt>
<totfact> 0.39046913E+03</totfact>
</mgrwt>
</event>
<event>
 8    1  0.8438969E-004  0.9457665E+02  0.7546771E-02  0.1293029E+00
          1   -1    0    0  501    0  0.00000000000E+00  0.00000000000E+00  0.55525895279E+03  0.55525895279E+03  0.00000000000E+00 0. -1.
         -1   -1    0    0    0  501 -0.00000000000E+00 -0.00000000000E+00 -0.30957060874E+02  0.30957060874E+02  0.00000000000E+00 0.  1.
         23    2    1    2    0    0  0.17080985191E+02 -0.12354784316E+02  0.56228111834E+02  0.10868297125E+03  0.90586902638E+02 0.  0.
         23    2    1    2    0    0 -0.17080985191E+02  0.12354784316E+02  0.46807378008E+03  0.47753304241E+03  0.92197300628E+02 0.  0.
          5    1    4    4  502    0 -0.54826001322E+02  0.27691486869E+01  0.25596030676E+03  0.26182308386E+03  0.47000000000E+01 0. -1.
         -5    1    3    3    0  503  0.35466140436E+02  0.15269174040E+02 -0.46643116249E+01  0.39177041698E+02  0.47000000000E+01 0.  1.
          5    1    3    3  503    0 -0.18385155245E+02 -0.27623958356E+02  0.60892423459E+02  0.69505929555E+02  0.47000000000E+01 0. -1.
         -5    1    4    4    0  502  0.37745016130E+02  0.95856356290E+01  0.21211347332E+03  0.21570995855E+03  0.47000000000E+01 0.  1.
<mgrwt>
<rscale>  0 0.94181889E+02</rscale>
<asrwt>0</asrwt>
<pdfrwt beam="1">  1        1 0.85424447E-01 0.94576651E+02</pdfrwt>
<pdfrwt beam="2">  1       -1 0.47626252E-02 0.94576651E+02</pdfrwt>
<totfact> 0.69540332E+03</totfact>
</mgrwt>
</event>
<event>
 8    1  0.8438969E-004  0.1083591E+03  0.7546771E-02  0.1264690E+00
         -2   -1    0    0    0  501 -0.00000000000E+00  0.00000000000E+00  0.40600671543E+02  0.40600671543E+02  0.00000000000E+00 0.  1.
          2   -1    0    0  501    0  0.00000000000E+00 -0.00000000000E+00 -0.32854905497E+03  0.32854905497E+03  0.00000000000E+00 0. -1.
         23    2    1    2    0    0 -0.50186813115E+02 -0.30106630739E+02 -0.21115116056E+03  0.23633591882E+03  0.88570471919E+02 0.  0.
         23    2    1    2    0    0  0.50186813115E+02  0.30106630739E+02 -0.76797222874E+02  0.13281380769E+03  0.91195222726E+02 0.  0.
          5    1    3    3  502    0 -0.17446270616E+02  0.29187280611E+02 -0.10367595048E+03  0.10921109109E+03  0.47000000000E+01 0. -1.
         -5    1    3    3    0  502 -0.32740542499E+02 -0.59293911350E+02 -0.10747521008E+03  0.12712482774E+03  0.47000000000E+01 0.  1.
          5    1    4    4  503    0  0.73289420243E+02  0.35552155498E+02 -0.46061514553E+02  0.93696574127E+02  0.47000000000E+01 0. -1.
         -5    1    4    4    0  503 -0.23102607128E+02 -0.54455247588E+01 -0.30735708321E+02  0.39117233568E+02  0.47000000000E+01 0.  1.
<mgrwt>
<rscale>  0 0.10780498E+03</rscale>
<asrwt>0</asrwt>
<pdfrwt beam="1">  1        2 0.50546010E-01 0.10835910E+03</pdfrwt>
<pdfrwt beam="2">  1       -2 0.62462570E-02 0.10835910E+03</pdfrwt>
<totfact> 0.12742244E+04</totfact>
</mgrwt>
</event>
<event>
 8    1  0.8438969E-004  0.1079999E+03  0.7546771E-02  0.1265370E+00
          4   -1    0    0  501    0  0.00000000000E+00  0.00000000000E+00  0.12699193376E+03  0.12699193376E+03  0.00000000000E+00 0. -1.
         -4   -1    0    0    0  501 -0.00000000000E+00 -0.00000000000E+00 -0.21310935160E+03  0.21310935160E+03  0.00000000000E+00 0.  1.
         23    2    1    2    0    0  0.54703877863E+02 -0.11949185734E+02  0.86375573128E+02  0.13658760379E+03  0.89778263423E+02 0.  0.
         23    2    1    2    0    0 -0.54703877863E+02  0.11949185734E+02 -0.17249299097E+03  0.20351368156E+03  0.92350903394E+02 0.  0.
          5    1    3    3  502    0  0.11305981322E+02 -0.46044217967E+02  0.55606504784E+02  0.73226146943E+02  0.47000000000E+01 0. -1.
         -5    1    4    4    0  503 -0.79266952237E+02  0.10259772078E+02 -0.14904993905E+03  0.16919363750E+03  0.47000000000E+01 0.  1.
          5    1    4    4  503    0  0.24563074374E+02  0.16894136560E+01 -0.23443051916E+02  0.34320044061E+02  0.47000000000E+01 0. -1.
         -5    1    3    3    0  502  0.43397896541E+02  0.34095032233E+02  0.30769068345E+02  0.63361456848E+02  0.47000000000E+01 0. -1.
<mgrwt>
<rscale>  0 0.10744785E+03</rscale>
<asrwt>0</asrwt>
<pdfrwt beam="1">  1        4 0.19537221E-01 0.10799994E+03</pdfrwt>
<pdfrwt beam="2">  1       -4 0.32786054E-01 0.10799994E+03</pdfrwt>
<totfact> 0.33572877E+02</totfact>
</mgrwt>
</event>
<event>
 8    1  0.8438969E-004  0.9268413E+02  0.7546771E-02  0.1309358E+00
         -2   -1    0    0    0  501 -0.00000000000E+00  0.00000000000E+00  0.29353175633E+02  0.29353175633E+02  0.00000000000E+00 0.  1.
          2   -1    0    0  501    0  0.00000000000E+00 -0.00000000000E+00 -0.44524759210E+03  0.44524759210E+03  0.00000000000E+00 0. -1.
         23    2    1    2    0    0  0.11135324669E+02 -0.47709805472E+01 -0.35781997224E+03  0.36522531612E+03  0.72163988901E+02 0.  0.
         23    2    1    2    0    0 -0.11135324669E+02  0.47709805472E+01 -0.58074444231E+02  0.10937545161E+03  0.91889012574E+02 0.  0.
          5    1    3    3  502    0  0.36572278723E+02  0.11742388740E+02 -0.25511552018E+03  0.25803378442E+03  0.47000000000E+01 0. -1.
         -5    1    3    3    0  502 -0.25436954055E+02 -0.16513369287E+02 -0.10270445205E+03  0.10719153170E+03  0.47000000000E+01 0.  1.
          5    1    4    4  503    0 -0.39459126336E+02 -0.92847495893E+01  0.24985394534E+01  0.40884739519E+02  0.47000000000E+01 0.  1.
         -5    1    4    4    0  503  0.28323801668E+02  0.14055730137E+02 -0.60572983685E+02  0.68490712093E+02  0.47000000000E+01 0. -1.
<mgrwt>
<rscale>  0 0.87366086E+02</rscale>
<asrwt>0</asrwt>
<pdfrwt beam="1">  1        2 0.68499629E-01 0.92684132E+02</pdfrwt>
<pdfrwt beam="2">  1       -2 0.45158732E-02 0.92684132E+02</pdfrwt>
<totfact> 0.14804206E+04</totfact>
</mgrwt>
</event>
<event>
 8    1  0.8438969E-004  0.1137187E+03  0.7546771E-02  0.1253960E+00
         -1   -1    0    0    0  501 -0.00000000000E+00  0.00000000000E+00  0.26462450561E+02  0.26462450561E+02  0.00000000000E+00 0.  1.
          1   -1    0    0  501    0  0.00000000000E+00 -0.00000000000E+00 -0.61185034810E+03  0.61185034810E+03  0.00000000000E+00 0. -1.
         23    2    1    2    0    0  0.12257205213E+02  0.64442165388E+02 -0.43688497748E+03  0.45144261004E+03  0.92891952561E+02 0.  0.
         23    2    1    2    0    0 -0.12257205213E+02 -0.64442165388E+02 -0.14850292005E+03  0.18687018862E+03  0.92543602533E+02 0.  0.
          5    1    3    3  502    0  0.32446473664E+02  0.43001500826E+02 -0.40168195435E+03  0.40530529873E+03  0.47000000000E+01 0. -1.
         -5    1    4    4    0  503 -0.14914434564E+02 -0.14646556667E+02  0.77512288561E+01  0.22784501955E+02  0.47000000000E+01 0.  1.
          5    1    4    4  503    0  0.26572293512E+01 -0.49795608721E+02 -0.15625414891E+03  0.16408568666E+03  0.47000000000E+01 0. -1.
         -5    1    3    3    0  502 -0.20189268451E+02  0.21440664562E+02 -0.35203023132E+02  0.46137311312E+02  0.47000000000E+01 0.  1.
<mgrwt>
<rscale>  0 0.11364756E+03</rscale>
<asrwt>0</asrwt>
<pdfrwt beam="1">  1        1 0.94130823E-01 0.11371872E+03</pdfrwt>
<pdfrwt beam="2">  1       -1 0.40711462E-02 0.11371872E+03</pdfrwt>
<totfact> 0.77776809E+03</totfact>
</mgrwt>
</event>
<event>
 8    1  0.8438969E-004  0.9374593E+02  0.7546771E-02  0.1298422E+00
         -1   -1    0    0    0  501 -0.00000000000E+00  0.00000000000E+00  0.26827680017E+03  0.26827680017E+03  0.00000000000E+00 0.  1.
          1   -1    0    0  501    0  0.00000000000E+00 -0.00000000000E+00 -0.88217623573E+02  0.88217623573E+02  0.00000000000E+00 0. -1.
         23    2    1    2    0    0 -0.20133987970E+02  0.92532653905E+01  0.23322894318E+03  0.24872001725E+03  0.83515906569E+02 0.  0.
         23    2    1    2    0    0  0.20133987970E+02 -0.92532653905E+01 -0.53169766590E+02  0.10777440649E+03  0.91089506657E+02 0.  0.
          5    1    3    3  502    0 -0.42686933381E+02 -0.12531949446E+02  0.74862371781E+02  0.87210599970E+02  0.47000000000E+01 0. -1.
         -5    1    4    4    0  503 -0.32592643737E+02  0.61067099026E+01 -0.36711743819E+01  0.33691836592E+02  0.47000000000E+01 0.  1.
          5    1    4    4  503    0  0.52726631707E+02 -0.15359975293E+02 -0.49498592208E+02  0.74082569898E+02  0.47000000000E+01 0. -1.
         -5    1    3    3    0  502  0.22552945411E+02  0.21785214837E+02  0.15836657140E+03  0.16150941728E+03  0.47000000000E+01 0.  1.
<mgrwt>
<rscale>  0 0.91854328E+02</rscale>
<asrwt>0</asrwt>
<pdfrwt beam="1">  1        1 0.13571942E-01 0.93745926E+02</pdfrwt>
<pdfrwt beam="2">  1       -1 0.41273354E-01 0.93745926E+02</pdfrwt>
<totfact> 0.23638631E+03</totfact>
</mgrwt>
</event>
<event>
 8    1  0.8438969E-004  0.9690641E+02  0.7546771E-02  0.1287602E+00
          1   -1    0    0  501    0  0.00000000000E+00  0.00000000000E+00  0.24633105019E+03  0.24633105019E+03  0.00000000000E+00 0. -1.
         -1   -1    0    0    0  501 -0.00000000000E+00 -0.00000000000E+00 -0.53279283878E+02  0.53279283878E+02  0.00000000000E+00 0.  1.
         23    2    1    2    0    0  0.16415596473E+02  0.24133219724E+02  0.14969240399E+02  0.96868531560E+02  0.91145763186E+02 0.  0.
         23    2    1    2    0    0 -0.16415596473E+02 -0.24133219724E+02  0.17808252591E+03  0.20274180250E+03  0.92406538440E+02 0.  0.
          5    1    4    4  502    0 -0.92132930059E+01 -0.52835523544E+02  0.15734875001E+03  0.16630452924E+03  0.47000000000E+01 0. -1.
         -5    1    4    4    0  502 -0.72023034668E+01  0.28702303820E+02  0.20733775899E+02  0.36437273263E+02  0.47000000000E+01 0.  1.
          5    1    3    3  503    0 -0.18848909119E+02  0.79552881634E+01  0.43620887184E+02  0.48409087819E+02  0.47000000000E+01 0. -1.
         -5    1    3    3    0  503  0.35264505592E+02  0.16177931560E+02 -0.28651646785E+02  0.48459443741E+02  0.47000000000E+01 0.  1.
<mgrwt>
<rscale>  0 0.96604635E+02</rscale>
<asrwt>0</asrwt>
<pdfrwt beam="1">  1        1 0.37897084E-01 0.96906411E+02</pdfrwt>
<pdfrwt beam="2">  1       -1 0.81968131E-02 0.96906411E+02</pdfrwt>
<totfact> 0.86034308E+03</totfact>
</mgrwt>
</event>
<event>
 8    1  0.8438969E-004  0.1414184E+03  0.7546771E-02  0.1211619E+00
          3   -1    0    0  501    0  0.00000000000E+00  0.00000000000E+00  0.48719626663E+03  0.48719626663E+03  0.00000000000E+00 0. -1.
         -3   -1    0    0    0  501 -0.00000000000E+00 -0.00000000000E+00 -0.75117316420E+02  0.75117316420E+02  0.00000000000E+00 0.  1.
         23    2    1    2    0    0  0.15568794204E+02 -0.10691701110E+03  0.16023737111E+02  0.14176761816E+03  0.90375122643E+02 0.  0.
         23    2    1    2    0    0 -0.15568794204E+02  0.10691701110E+03  0.39605521310E+03  0.42054596489E+03  0.91244408861E+02 0.  0.
          5    1    4    4  502    0  0.16901107730E+02  0.10424636261E+03  0.26232190028E+03  0.28282118189E+03  0.47000000000E+01 0. -1.
         -5    1    3    3    0  503 -0.20989219717E+02 -0.71847103595E+02 -0.22106448789E+02  0.78187842516E+02  0.47000000000E+01 0.  1.
          5    1    3    3  503    0  0.36558013921E+02 -0.35069907503E+02  0.38130185901E+02  0.63579775644E+02  0.47000000000E+01 0. -1.
         -5    1    4    4    0  502 -0.32469901933E+02  0.26706484881E+01  0.13373331282E+03  0.13772478300E+03  0.47000000000E+01 0.  1.
<mgrwt>
<rscale>  0 0.14127841E+03</rscale>
<asrwt>0</asrwt>
<pdfrwt beam="1">  1        3 0.74953270E-01 0.14141845E+03</pdfrwt>
<pdfrwt beam="2">  1       -3 0.11556511E-01 0.14141845E+03</pdfrwt>
<totfact> 0.23363395E+02</totfact>
</mgrwt>
</event>
<event>
 8    1  0.8438969E-004  0.9803046E+02  0.7546771E-02  0.1291611E+00
         -2   -1    0    0    0  501 -0.00000000000E+00  0.00000000000E+00  0.39151280607E+03  0.39151280607E+03  0.00000000000E+00 0.  1.
          2   -1    0    0  501    0  0.00000000000E+00 -0.00000000000E+00 -0.21600875935E+02  0.21600875935E+02  0.00000000000E+00 0. -1.
         23    2    1    2    0    0 -0.18553923123E+02  0.55947532227E+01  0.20515147042E+03  0.22736995699E+03  0.96095901057E+02 0.  0.
         23    2    1    2    0    0  0.18553923123E+02 -0.55947532227E+01  0.16476045971E+03  0.18574372501E+03  0.83541444624E+02 0.  0.
          5    1    3    3  502    0  0.24707810964E+02 -0.11148547288E+02  0.14497159382E+02  0.31097004026E+02  0.47000000000E+01 0. -1.
         -5    1    3    3    0  502 -0.43261734087E+02  0.16743300511E+02  0.19065431104E+03  0.19627295297E+03  0.47000000000E+01 0.  1.
          5    1    4    4  503    0  0.40953674958E+02 -0.99871957031E+01  0.15461266926E+03  0.16032502945E+03  0.47000000000E+01 0. -1.
         -5    1    4    4    0  503 -0.22399751835E+02  0.43924424804E+01  0.10147790449E+02  0.25418695564E+02  0.47000000000E+01 0.  1.
<mgrwt>
<rscale>  0 0.94807255E+02</rscale>
<asrwt>0</asrwt>
<pdfrwt beam="1">  1        2 0.33232120E-02 0.98030462E+02</pdfrwt>
<pdfrwt beam="2">  1       -2 0.60232734E-01 0.98030462E+02</pdfrwt>
<totfact> 0.65327802E+03</totfact>
</mgrwt>
</event>
<event>
 8    1  0.8438969E-004  0.9846564E+02  0.7546771E-02  0.1287673E+00
         -1   -1    0    0    0  501 -0.00000000000E+00  0.00000000000E+00  0.19109835072E+03  0.19109835072E+03  0.00000000000E+00 0.  1.
          1   -1    0    0  501    0  0.00000000000E+00 -0.00000000000E+00 -0.12083251149E+03  0.12083251149E+03  0.00000000000E+00 0. -1.
         23    2    1    2    0    0 -0.65316553063E+01 -0.91533072673E+00 -0.86203875686E+02  0.13086860246E+03  0.98244504047E+02 0.  0.
         23    2    1    2    0    0  0.65316553063E+01  0.91533072673E+00  0.15646971492E+03  0.18106225975E+03  0.90869521121E+02 0.  0.
          5    1    4    4  502    0 -0.35266550579E+02  0.24160242264E+02  0.71058960200E+02  0.83059693719E+02  0.47000000000E+01 0. -1.
         -5    1    3    3    0  503 -0.47561454270E+02 -0.15593809148E+02 -0.65020110867E+02  0.82188585784E+02  0.47000000000E+01 0.  1.
          5    1    3    3  503    0  0.41029798963E+02  0.14678478421E+02 -0.21183764819E+02  0.48680016677E+02  0.47000000000E+01 0. -1.
         -5    1    4    4    0  502  0.41798205885E+02 -0.23244911537E+02  0.85410754720E+02  0.98002566035E+02  0.47000000000E+01 0.  1.
<mgrwt>
<rscale>  0 0.96572470E+02</rscale>
<asrwt>0</asrwt>
<pdfrwt beam="1">  1        1 0.18589617E-01 0.98465643E+02</pdfrwt>
<pdfrwt beam="2">  1       -1 0.29399746E-01 0.98465643E+02</pdfrwt>
<totfact> 0.28244308E+03</totfact>
</mgrwt>
</event>
<event>
 8    1  0.8438969E-004  0.9658640E+02  0.7546771E-02  0.1288208E+00
         -2   -1    0    0    0  501 -0.00000000000E+00  0.00000000000E+00  0.15232352343E+03  0.15232352343E+03  0.00000000000E+00 0.  1.
          2   -1    0    0  501    0  0.00000000000E+00 -0.00000000000E+00 -0.67160965992E+02  0.67160965992E+02  0.00000000000E+00 0. -1.
         23    2    1    2    0    0 -0.87376180715E+00  0.28973194727E+02  0.80741242945E+01  0.95906340426E+02  0.91063852205E+02 0.  0.
         23    2    1    2    0    0  0.87376180715E+00 -0.28973194727E+02  0.77088433141E+02  0.12357814899E+03  0.92134265677E+02 0.  0.
          5    1    3    3  502    0 -0.29454344005E+02  0.50910803409E+02  0.81985645167E+01  0.59571593437E+02  0.47000000000E+01 0. -1.
         -5    1    3    3    0  502  0.28580582198E+02 -0.21937608681E+02 -0.12444022215E+00  0.36334746989E+02  0.47000000000E+01 0.  1.
          5    1    4    4  503    0 -0.27301542828E+02  0.19007408955E+02  0.53028527584E+02  0.62775557136E+02  0.47000000000E+01 0. -1.
         -5    1    4    4    0  503  0.28175304635E+02 -0.47980603683E+02  0.24059905557E+02  0.60802591856E+02  0.47000000000E+01 0.  1.
<mgrwt>
<rscale>  0 0.96330248E+02</rscale>
<asrwt>0</asrwt>
<pdfrwt beam="1">  1        2 0.10332456E-01 0.96586399E+02</pdfrwt>
<pdfrwt beam="2">  1       -2 0.23434388E-01 0.96586399E+02</pdfrwt>
<totfact> 0.89434863E+03</totfact>
</mgrwt>
</event>
<event>
 8    1  0.8438969E-004  0.1674778E+03  0.7546771E-02  0.1180576E+00
         -1   -1    0    0    0  501 -0.00000000000E+00  0.00000000000E+00  0.66085240648E+02  0.66085240648E+02  0.00000000000E+00 0.  1.
          1   -1    0    0  501    0  0.00000000000E+00 -0.00000000000E+00 -0.45354398752E+03  0.45354398752E+03  0.00000000000E+00 0. -1.
         23    2    1    2    0    0 -0.71675272923E+02  0.12023065067E+03 -0.12728007123E+03  0.21035450226E+03  0.91956761463E+02 0.  0.
         23    2    1    2    0    0  0.71675272923E+02 -0.12023065067E+03 -0.26017867564E+03  0.30927472590E+03  0.91461241614E+02 0.  0.
          5    1    3    3  502    0 -0.52060111530E+01  0.86508507540E+02 -0.95911298767E+02  0.12935181352E+03  0.47000000000E+01 0. -1.
         -5    1    3    3    0  502 -0.66469261770E+02  0.33722143131E+02 -0.31368772464E+02  0.81002688743E+02  0.47000000000E+01 0.  1.
          5    1    4    4  503    0  0.64465436026E+02 -0.99183194355E+02 -0.12487091552E+03  0.17206956159E+03  0.47000000000E+01 0. -1.
         -5    1    4    4    0  503  0.72098368969E+01 -0.21047456316E+02 -0.13530776012E+03  0.13720516431E+03  0.47000000000E+01 0.  1.
<mgrwt>
<rscale>  0 0.16740983E+03</rscale>
<asrwt>0</asrwt>
<pdfrwt beam="1">  1        1 0.69776000E-01 0.16747776E+03</pdfrwt>
<pdfrwt beam="2">  1       -1 0.10166960E-01 0.16747776E+03</pdfrwt>
<totfact> 0.29956709E+03</totfact>
</mgrwt>
</event>
<event>
 7    1  0.1378031E-003  0.1588892E+03  0.7546771E-02  0.1211017E+00
          2   -1    0    0  501    0  0.00000000000E+00  0.00000000000E+00  0.81558712293E+03  0.81558712293E+03  0.00000000000E+00 0. -1.
         -2   -1    0    0    0  501 -0.00000000000E+00 -0.00000000000E+00 -0.33245212908E+02  0.33245212908E+02  0.00000000000E+00 0.  1.
         23    2    1    2    0    0 -0.19338856551E+02  0.30578293459E+02  0.79402970277E+02  0.12815978467E+03  0.93867328256E+02 0.  0.
          5    1    3    3  502    0 -0.22693067101E+02  0.63051324632E+02  0.58772758685E+02  0.89256775629E+02  0.47000000000E+01 0. -1.
         -5    1    1    2    0  503  0.10973502939E+02 -0.91102951263E+02  0.32264476258E+03  0.33547264913E+03  0.47000000000E+01 0.  1.
          5    1    1    2  503    0  0.83653536126E+01  0.60524657804E+02  0.38029417717E+03  0.38519990204E+03  0.47000000000E+01 0. -1.
         -5    1    3    3    0  502  0.33542105493E+01 -0.32473031173E+02  0.20630211592E+02  0.38903009039E+02  0.47000000000E+01 0.  1.
<mgrwt>
<rscale>  0 0.14173230E+03</rscale>
<asrwt>0</asrwt>
<pdfrwt beam="1">  1        2 0.12547493E+00 0.15888918E+03</pdfrwt>
<pdfrwt beam="2">  1       -2 0.51146488E-02 0.15888918E+03</pdfrwt>
<totfact> 0.63826344E+03</totfact>
</mgrwt>
</event>
<event>
 8    1  0.8438969E-004  0.9141558E+02  0.7546771E-02  0.1300039E+00
         -1   -1    0    0    0  501 -0.00000000000E+00  0.00000000000E+00  0.23153272216E+02  0.23153272216E+02  0.00000000000E+00 0.  1.
          1   -1    0    0  501    0  0.00000000000E+00 -0.00000000000E+00 -0.49025144567E+03  0.49025144567E+03  0.00000000000E+00 0. -1.
         23    2    1    2    0    0  0.59110574877E+01 -0.43404551672E-01 -0.10068328915E+03  0.13599239744E+03  0.91224256431E+02 0.  0.
         23    2    1    2    0    0 -0.59110574877E+01  0.43404551672E-01 -0.36641488430E+03  0.37741232045E+03  0.90251037139E+02 0.  0.
          5    1    4    4  502    0 -0.13026646165E+02  0.31475830172E+02 -0.59098864463E+02  0.68375340410E+02  0.47000000000E+01 0. -1.
         -5    1    3    3    0  503 -0.39964968269E+02 -0.14806247658E+02 -0.43871896106E+02  0.61345390425E+02  0.47000000000E+01 0.  1.
          5    1    3    3  503    0  0.45876025757E+02  0.14762843106E+02 -0.56811393047E+02  0.74647007012E+02  0.47000000000E+01 0. -1.
         -5    1    4    4    0  502  0.71155886773E+01 -0.31432425620E+02 -0.30731601984E+03  0.30903698004E+03  0.47000000000E+01 0.  1.
<mgrwt>
<rscale>  0 0.91171812E+02</rscale>
<asrwt>0</asrwt>
<pdfrwt beam="1">  1        1 0.75423297E-01 0.91415576E+02</pdfrwt>
<pdfrwt beam="2">  1       -1 0.35620420E-02 0.91415576E+02</pdfrwt>
<totfact> 0.12438176E+04</totfact>
</mgrwt>
</event>
<event>
 8    1  0.8438969E-004  0.1133755E+03  0.7546771E-02  0.1256490E+00
          1   -1    0    0  501    0  0.00000000000E+00  0.00000000000E+00  0.96521915383E+03  0.96521915383E+03  0.00000000000E+00 0. -1.
         -1   -1    0    0    0  501 -0.00000000000E+00 -0.00000000000E+00 -0.17427887278E+02  0.17427887278E+02  0.00000000000E+00 0.  1.
         23    2    1    2    0    0 -0.54999541902E+02  0.39281269468E+02  0.21353219081E+03  0.23968648831E+03  0.85356009877E+02 0.  0.
         23    2    1    2    0    0  0.54999541902E+02 -0.39281269468E+02  0.73425907574E+03  0.74296055280E+03  0.91027605568E+02 0.  0.
          5    1    3    3  502    0  0.26846613416E+01  0.34042607516E+02  0.14860867329E+03  0.15255403734E+03  0.47000000000E+01 0. -1.
         -5    1    4    4    0  503  0.21117964154E+02  0.28933028083E+02  0.19349550342E+03  0.19683924499E+03  0.47000000000E+01 0.  1.
          5    1    4    4  503    0  0.33881577747E+02 -0.68214297550E+02  0.54076357232E+03  0.54612130781E+03  0.47000000000E+01 0. -1.
         -5    1    3    3    0  502 -0.57684203243E+02  0.52386619513E+01  0.64923517524E+02  0.87132450961E+02  0.47000000000E+01 0.  1.
<mgrwt>
<rscale>  0 0.11223301E+03</rscale>
<asrwt>0</asrwt>
<pdfrwt beam="1">  1        1 0.14849521E+00 0.11337545E+03</pdfrwt>
<pdfrwt beam="2">  1       -1 0.26812142E-02 0.11337545E+03</pdfrwt>
<totfact> 0.72652230E+03</totfact>
</mgrwt>
</event>
<event>
 8    1  0.8497321E-004  0.2629316E+03  0.7546771E-02  0.1107510E+00
          2   -1    0    0  501    0  0.00000000000E+00  0.00000000000E+00  0.46444803189E+03  0.46444803189E+03  0.00000000000E+00 0.  1.
         -2   -1    0    0    0  501 -0.00000000000E+00 -0.00000000000E+00 -0.14118573150E+03  0.14118573150E+03  0.00000000000E+00 0. -1.
         23    2    1    2    0    0 -0.17887105135E+03 -0.14643089255E+03  0.16488364580E+03  0.29868619991E+03  0.92682091354E+02 0.  0.
         23    2    1    2    0    0  0.17887105135E+03  0.14643089255E+03  0.15837865459E+03  0.30694756348E+03  0.12528427352E+03 0.  0.
          5    1    4    4  502    0  0.94350833172E+02  0.49240140708E+01  0.82144172731E+02  0.12528400037E+03  0.47000000000E+01 0. -1.
         -5    1    4    4    0  502  0.84520218179E+02  0.14150687848E+03  0.76234481859E+02  0.18166356311E+03  0.47000000000E+01 0. -1.
          5    1    3    3  503    0 -0.11965161040E+03 -0.11782848569E+03  0.16092465217E+03  0.23263467839E+03  0.47000000000E+01 0. -1.
         -5    1    3    3    0  503 -0.59219440953E+02 -0.28602406853E+02  0.39589936329E+01  0.66051521521E+02  0.47000000000E+01 0.  1.
<mgrwt>
<rscale>  0 0.25939076E+03</rscale>
<asrwt>0</asrwt>
<pdfrwt beam="1">  1        2 0.71453543E-01 0.26293157E+03</pdfrwt>
<pdfrwt beam="2">  1       -2 0.21720882E-01 0.26293157E+03</pdfrwt>
<totfact> 0.12322782E+03</totfact>
</mgrwt>
</event>
<event>
 7    1  0.8438969E-004  0.3818134E+03  0.7546771E-02  0.1050266E+00
          2   -1    0    0  501    0  0.00000000000E+00  0.00000000000E+00  0.24398431258E+03  0.24398431258E+03  0.00000000000E+00 0. -1.
         -2   -1    0    0    0  501 -0.00000000000E+00 -0.00000000000E+00 -0.14937587412E+03  0.14937587412E+03  0.00000000000E+00 0.  1.
         23    2    1    2    0    0  0.37318512258E+01 -0.48983102228E+02  0.58721972350E+02  0.11912752009E+03  0.91267874905E+02 0.  0.
          5    1    3    3  502    0  0.42424399269E+02 -0.78942922285E+01  0.10296533651E+02  0.44612308933E+02  0.47000000000E+01 0. -1.
         -5    1    1    2    0  503  0.25326728190E+02  0.13690342106E+03 -0.49844056669E+02  0.14795441813E+03  0.47000000000E+01 0.  1.
          5    1    1    2  503    0 -0.29058579416E+02 -0.87920318835E+02  0.85730522775E+02  0.12627824847E+03  0.47000000000E+01 0. -1.
         -5    1    3    3    0  502 -0.38692548043E+02 -0.41088810000E+02  0.48425438698E+02  0.74515211161E+02  0.47000000000E+01 0.  1.
<mgrwt>
<rscale>  0 0.38181341E+03</rscale>
<asrwt>0</asrwt>
<pdfrwt beam="1">  1        2 0.37536048E-01 0.38181341E+03</pdfrwt>
<pdfrwt beam="2">  1       -2 0.22980904E-01 0.38181341E+03</pdfrwt>
<totfact> 0.22735617E+03</totfact>
</mgrwt>
</event>
<event>
 8    1  0.8438969E-004  0.1028321E+03  0.7546771E-02  0.1280908E+00
          1   -1    0    0  501    0  0.00000000000E+00  0.00000000000E+00  0.34864299223E+03  0.34864299223E+03  0.00000000000E+00 0. -1.
         -1   -1    0    0    0  501 -0.00000000000E+00 -0.00000000000E+00 -0.27565042915E+02  0.27565042915E+02  0.00000000000E+00 0.  1.
         23    2    1    2    0    0 -0.88381214987E+01 -0.13128195526E+01  0.17976775427E+03  0.20144243668E+03  0.90458686329E+02 0.  0.
         23    2    1    2    0    0  0.88381214987E+01  0.13128195526E+01  0.14131019504E+03  0.17476559847E+03  0.10244319059E+03 0.  0.
          5    1    4    4  502    0 -0.30209419322E+02  0.19714396903E+02  0.12188361932E+03  0.12719659241E+03  0.47000000000E+01 0. -1.
         -5    1    4    4    0  502  0.39047540821E+02 -0.18401577350E+02  0.19426575719E+02  0.47569006057E+02  0.47000000000E+01 0.  1.
          5    1    3    3  503    0  0.32113023307E+01 -0.40078166178E+02  0.44596673617E+02  0.60228939594E+02  0.47000000000E+01 0. -1.
         -5    1    3    3    0  503 -0.12049423829E+02  0.38765346626E+02  0.13517108066E+03  0.14121349709E+03  0.47000000000E+01 0.  1.
<mgrwt>
<rscale>  0 0.99709427E+02</rscale>
<asrwt>0</asrwt>
<pdfrwt beam="1">  1        1 0.53637380E-01 0.10283211E+03</pdfrwt>
<pdfrwt beam="2">  1       -1 0.42407761E-02 0.10283211E+03</pdfrwt>
<totfact> 0.14952429E+04</totfact>
</mgrwt>
</event>
<event>
 8    1  0.8438969E-004  0.1453988E+03  0.7546771E-02  0.1206373E+00
         -1   -1    0    0    0  501 -0.00000000000E+00  0.00000000000E+00  0.19816121871E+03  0.19816121871E+03  0.00000000000E+00 0.  1.
          1   -1    0    0  501    0  0.00000000000E+00 -0.00000000000E+00 -0.11590725889E+03  0.11590725889E+03  0.00000000000E+00 0. -1.
         23    2    1    2    0    0 -0.99832672326E+02  0.54126149544E+02  0.86179437741E+02  0.16901981315E+03  0.90799775436E+02 0.  0.
         23    2    1    2    0    0  0.99832672326E+02 -0.54126149544E+02 -0.39254779255E+01  0.14504866445E+03  0.90152665816E+02 0.  0.
          5    1    3    3  502    0 -0.63240035154E+02 -0.14899798819E+02  0.53132454048E+02  0.84062201519E+02  0.47000000000E+01 0. -1.
         -5    1    4    4    0  503  0.27303108560E+02 -0.49778058569E+02  0.30377106989E+02  0.64561393115E+02  0.47000000000E+01 0.  1.
          5    1    4    4  503    0  0.72529563766E+02 -0.43480909755E+01 -0.34302584914E+02  0.80487271336E+02  0.47000000000E+01 0. -1.
         -5    1    3    3    0  502 -0.36592637172E+02  0.69025948363E+02  0.33046983693E+02  0.84957611630E+02  0.47000000000E+01 0.  1.
<mgrwt>
<rscale>  0 0.14529786E+03</rscale>
<asrwt>0</asrwt>
<pdfrwt beam="1">  1        1 0.17831886E-01 0.14539877E+03</pdfrwt>
<pdfrwt beam="2">  1       -1 0.30486341E-01 0.14539877E+03</pdfrwt>
<totfact> 0.28594259E+03</totfact>
</mgrwt>
</event>
<event>
 8    1  0.8438969E-004  0.1198412E+03  0.7546771E-02  0.1244301E+00
         -4   -1    0    0    0  501 -0.00000000000E+00  0.00000000000E+00  0.25158867196E+03  0.25158867196E+03  0.00000000000E+00 0.  1.
          4   -1    0    0  501    0  0.00000000000E+00 -0.00000000000E+00 -0.20484817783E+03  0.20484817783E+03  0.00000000000E+00 0. -1.
         23    2    1    2    0    0  0.77943099632E+02 -0.61873945886E+01 -0.17109566747E+03  0.20889143440E+03  0.90821216171E+02 0.  0.
         23    2    1    2    0    0 -0.77943099632E+02  0.61873945886E+01  0.21783616160E+03  0.24754541540E+03  0.87822142704E+02 0.  0.
          5    1    4    4  502    0 -0.43795089383E+02 -0.34579773544E+02  0.65770963772E+02  0.86381017984E+02  0.47000000000E+01 0. -1.
         -5    1    3    3    0  503  0.24598211748E+02 -0.61015563360E+01  0.37332277418E+01  0.26044730758E+02  0.47000000000E+01 0.  1.
          5    1    3    3  503    0  0.53344887885E+02 -0.85838252557E-01 -0.17482889522E+03  0.18284670365E+03  0.47000000000E+01 0. -1.
         -5    1    4    4    0  502 -0.34148010250E+02  0.40767168133E+02  0.15206519783E+03  0.16116439741E+03  0.47000000000E+01 0.  1.
<mgrwt>
<rscale>  0 0.11927299E+03</rscale>
<asrwt>0</asrwt>
<pdfrwt beam="1">  1        4 0.31515104E-01 0.11984116E+03</pdfrwt>
<pdfrwt beam="2">  1       -4 0.38705949E-01 0.11984116E+03</pdfrwt>
<totfact> 0.10317895E+02</totfact>
</mgrwt>
</event>
<event>
 8    1  0.8438969E-004  0.1413777E+03  0.7546771E-02  0.1220068E+00
          1   -1    0    0  501    0  0.00000000000E+00  0.00000000000E+00  0.86468706306E+03  0.86468706306E+03  0.00000000000E+00 0. -1.
         -1   -1    0    0    0  501 -0.00000000000E+00 -0.00000000000E+00 -0.33430415400E+02  0.33430415400E+02  0.00000000000E+00 0.  1.
         23    2    1    2    0    0  0.50792323918E+02 -0.63863648113E+02  0.68358400834E+03  0.69367959150E+03  0.85122579200E+02 0.  0.
         23    2    1    2    0    0 -0.50792323918E+02  0.63863648113E+02  0.14767263932E+03  0.20443788696E+03  0.11545222172E+03 0.  0.
          5    1    3    3  502    0 -0.13008517015E+01 -0.60846429679E+02  0.27143789294E+03  0.27821682182E+03  0.47000000000E+01 0. -1.
         -5    1    4    4    0  503 -0.82983216857E+02  0.20280527097E+02  0.75769636748E+02  0.11428316548E+03  0.47000000000E+01 0.  1.
          5    1    4    4  503    0  0.32190892939E+02  0.43583121017E+02  0.71903002575E+02  0.90154721480E+02  0.47000000000E+01 0. -1.
         -5    1    3    3    0  502  0.52093175619E+02 -0.30172184345E+01  0.41214611540E+03  0.41546276968E+03  0.47000000000E+01 0.  1.
<mgrwt>
<rscale>  0 0.13510740E+03</rscale>
<asrwt>0</asrwt>
<pdfrwt beam="1">  1        1 0.13302876E+00 0.14137765E+03</pdfrwt>
<pdfrwt beam="2">  1       -1 0.51431415E-02 0.14137765E+03</pdfrwt>
<totfact> 0.33730840E+03</totfact>
</mgrwt>
</event>
<event>
 7    1  0.8438969E-004  0.1509791E+03  0.7546771E-02  0.1211192E+00
          2   -1    0    0  501    0  0.00000000000E+00  0.00000000000E+00  0.26231423924E+03  0.26231423924E+03  0.00000000000E+00 0. -1.
         -2   -1    0    0    0  501 -0.00000000000E+00 -0.00000000000E+00 -0.16879607719E+03  0.16879607719E+03  0.00000000000E+00 0.  1.
         23    2    1    2    0    0 -0.39223320981E+02 -0.23035918420E+02  0.21007788680E+03  0.24037261127E+03  0.10759717133E+03 0.  0.
          5    1    1    2  502    0  0.63140434962E+02 -0.28188384965E+02 -0.10007131849E+02  0.70025225897E+02  0.47000000000E+01 0. -1.
         -5    1    1    2    0  502 -0.23917113981E+02  0.51224303385E+02 -0.10655259289E+03  0.12071247927E+03  0.47000000000E+01 0.  1.
          5    1    3    3  503    0 -0.40757327438E+02  0.13116661948E+02  0.19693241190E+03  0.20158787518E+03  0.47000000000E+01 0. -1.
         -5    1    3    3    0  503  0.15340064574E+01 -0.36152580368E+02  0.13145474895E+02  0.38784736086E+02  0.47000000000E+01 0.  1.
<mgrwt>
<rscale>  0 0.14160040E+03</rscale>
<asrwt>0</asrwt>
<pdfrwt beam="1">  1        2 0.40356037E-01 0.15097915E+03</pdfrwt>
<pdfrwt beam="2">  1       -2 0.25968627E-01 0.15097915E+03</pdfrwt>
<totfact> 0.16519911E+03</totfact>
</mgrwt>
</event>
<event>
 8    1  0.8438969E-004  0.9413655E+02  0.7546771E-02  0.1293162E+00
         -2   -1    0    0    0  501 -0.00000000000E+00  0.00000000000E+00  0.35458939784E+02  0.35458939784E+02  0.00000000000E+00 0.  1.
          2   -1    0    0  501    0  0.00000000000E+00 -0.00000000000E+00 -0.31149781428E+03  0.31149781428E+03  0.00000000000E+00 0. -1.
         23    2    1    2    0    0  0.22870416075E+02 -0.65919215367E+01 -0.21526964599E+03  0.23495257181E+03  0.91077885105E+02 0.  0.
         23    2    1    2    0    0 -0.22870416075E+02  0.65919215367E+01 -0.60769228511E+02  0.11200418226E+03  0.91024877633E+02 0.  0.
          5    1    4    4  502    0  0.16252622999E+02 -0.21448025628E+02  0.75109824110E+01  0.28331438624E+02  0.47000000000E+01 0. -1.
         -5    1    3    3    0  503 -0.11648569935E+02 -0.31781517058E+02 -0.32378281832E+02  0.47076503082E+02  0.47000000000E+01 0.  1.
          5    1    3    3  503    0  0.34518986010E+02  0.25189595521E+02 -0.18289136416E+03  0.18787606873E+03  0.47000000000E+01 0. -1.
         -5    1    4    4    0  502 -0.39123039075E+02  0.28039947165E+02 -0.68280210922E+02  0.83672743633E+02  0.47000000000E+01 0.  1.
<mgrwt>
<rscale>  0 0.94123729E+02</rscale>
<asrwt>0</asrwt>
<pdfrwt beam="1">  1        2 0.47922739E-01 0.94136552E+02</pdfrwt>
<pdfrwt beam="2">  1       -2 0.54552217E-02 0.94136552E+02</pdfrwt>
<totfact> 0.16301630E+04</totfact>
</mgrwt>
</event>
<event>
 8    1  0.8438969E-004  0.9361607E+02  0.7546771E-02  0.1295391E+00
          2   -1    0    0  501    0  0.00000000000E+00  0.00000000000E+00  0.47229808917E+02  0.47229808917E+02  0.00000000000E+00 0. -1.
         -2   -1    0    0    0  501 -0.00000000000E+00 -0.00000000000E+00 -0.25556322382E+03  0.25556322382E+03  0.00000000000E+00 0.  1.
         23    2    1    2    0    0 -0.15287381128E+02  0.14115163305E+02 -0.18469113102E+03  0.20623773358E+03  0.89388181652E+02 0.  0.
         23    2    1    2    0    0  0.15287381128E+02 -0.14115163305E+02 -0.23642283891E+02  0.96555299161E+02  0.91274456184E+02 0.  0.
          5    1    4    4  502    0  0.18387734718E+02 -0.45434148304E+02  0.10004096175E+02  0.50244826206E+02  0.47000000000E+01 0. -1.
         -5    1    3    3    0  503 -0.35252133568E+02  0.41246447120E+02 -0.13891411442E+03  0.14920859059E+03  0.47000000000E+01 0.  1.
          5    1    3    3  503    0  0.19964752441E+02 -0.27131283815E+02 -0.45777016597E+02  0.57029142989E+02  0.47000000000E+01 0. -1.
         -5    1    4    4    0  502 -0.31003535904E+01  0.31318984999E+02 -0.33646380066E+02  0.46310472955E+02  0.47000000000E+01 0.  1.
<mgrwt>
<rscale>  0 0.93153111E+02</rscale>
<asrwt>0</asrwt>
<pdfrwt beam="1">  1        2 0.72661243E-02 0.93616068E+02</pdfrwt>
<pdfrwt beam="2">  1       -2 0.39317420E-01 0.93616068E+02</pdfrwt>
<totfact> 0.54511272E+03</totfact>
</mgrwt>
</event>
<event>
 8    1  0.8438969E-004  0.1007455E+03  0.7546771E-02  0.1280464E+00
          2   -1    0    0  501    0  0.00000000000E+00  0.00000000000E+00  0.52527304065E+03  0.52527304065E+03  0.00000000000E+00 0. -1.
         -2   -1    0    0    0  501 -0.00000000000E+00 -0.00000000000E+00 -0.17003219205E+03  0.17003219205E+03  0.00000000000E+00 0.  1.
         23    2    1    2    0    0 -0.40321726792E+02 -0.10874979840E+02 -0.15067256024E+03  0.17945833132E+03  0.88084989827E+02 0.  0.
         23    2    1    2    0    0  0.40321726792E+02  0.10874979840E+02  0.50591340883E+03  0.51584690138E+03  0.91681740767E+02 0.  0.
          5    1    3    3  502    0  0.11543483042E+02  0.22181610476E+02 -0.12941533945E+02  0.28545562613E+02  0.47000000000E+01 0. -1.
         -5    1    4    4    0  503 -0.23170915939E+02  0.10260603423E+02  0.58498284599E+02  0.63924256969E+02  0.47000000000E+01 0.  1.
          5    1    4    4  503    0  0.63492642731E+02  0.61437641696E+00  0.44741512423E+03  0.45192264441E+03  0.47000000000E+01 0. -1.
         -5    1    3    3    0  502 -0.51865209834E+02 -0.33056590316E+02 -0.13773102629E+03  0.15091276871E+03  0.47000000000E+01 0.  1.
<mgrwt>
<rscale>  0 0.99919932E+02</rscale>
<asrwt>0</asrwt>
<pdfrwt beam="1">  1        2 0.80811236E-01 0.10074546E+03</pdfrwt>
<pdfrwt beam="2">  1       -2 0.26158799E-01 0.10074546E+03</pdfrwt>
<totfact> 0.77058201E+02</totfact>
</mgrwt>
</event>
<event>
 8    1  0.8438969E-004  0.9530890E+02  0.7546771E-02  0.1291167E+00
          4   -1    0    0  501    0  0.00000000000E+00  0.00000000000E+00  0.51255880566E+03  0.51255880566E+03  0.00000000000E+00 0. -1.
         -4   -1    0    0    0  501 -0.00000000000E+00 -0.00000000000E+00 -0.17503631767E+02  0.17503631767E+02  0.00000000000E+00 0.  1.
         23    2    1    2    0    0 -0.21632484914E+02  0.58198694696E+01  0.25414223318E+03  0.27142597861E+03  0.92638825007E+02 0.  0.
         23    2    1    2    0    0  0.21632484914E+02 -0.58198694696E+01  0.24091294072E+03  0.25863645881E+03  0.91388935536E+02 0.  0.
          5    1    4    4  502    0 -0.15184486618E+02 -0.39802310557E+02  0.12890654715E+03  0.13584469241E+03  0.47000000000E+01 0. -1.
         -5    1    3    3    0  503 -0.48962556466E+02  0.19984256711E+02  0.91143856792E+02  0.10547983259E+03  0.47000000000E+01 0.  1.
          5    1    3    3  503    0  0.27330071552E+02 -0.14164387242E+02  0.16299837638E+03  0.16594614603E+03  0.47000000000E+01 0. -1.
         -5    1    4    4    0  502  0.36816971532E+02  0.33982441087E+02  0.11200639357E+03  0.12279176640E+03  0.47000000000E+01 0.  1.
<mgrwt>
<rscale>  0 0.95003839E+02</rscale>
<asrwt>0</asrwt>
<pdfrwt beam="1">  1        4 0.78855189E-01 0.95308904E+02</pdfrwt>
<pdfrwt beam="2">  1       -4 0.26928668E-02 0.95308904E+02</pdfrwt>
<totfact> 0.14256149E+03</totfact>
</mgrwt>
</event>
<event>
 8    1  0.8438969E-004  0.1108339E+03  0.7546771E-02  0.1259444E+00
         -2   -1    0    0    0  501 -0.00000000000E+00  0.00000000000E+00  0.22530938805E+03  0.22530938805E+03  0.00000000000E+00 0.  1.
          2   -1    0    0  501    0  0.00000000000E+00 -0.00000000000E+00 -0.55605948658E+02  0.55605948658E+02  0.00000000000E+00 0. -1.
         23    2    1    2    0    0  0.10790507911E+02  0.62813270060E+02  0.10776360292E+03  0.15394801428E+03  0.89582671492E+02 0.  0.
         23    2    1    2    0    0 -0.10790507911E+02 -0.62813270060E+02  0.61939836479E+02  0.12696732243E+03  0.90676433901E+02 0.  0.
          5    1    4    4  502    0  0.31437775885E+02 -0.56163783989E+02  0.21740847709E+02  0.68098890179E+02  0.47000000000E+01 0. -1.
         -5    1    3    3    0  503  0.32795751735E+02  0.76415447926E+02  0.76408427634E+02  0.11302751801E+03  0.47000000000E+01 0.  1.
          5    1    3    3  503    0 -0.22005243823E+02 -0.13602177866E+02  0.31355175283E+02  0.40920496276E+02  0.47000000000E+01 0. -1.
         -5    1    4    4    0  502 -0.42228283796E+02 -0.66494860713E+01  0.40198988770E+02  0.58868432249E+02  0.47000000000E+01 0.  1.
<mgrwt>
<rscale>  0 0.11060998E+03</rscale>
<asrwt>0</asrwt>
<pdfrwt beam="1">  1        2 0.85547614E-02 0.11083392E+03</pdfrwt>
<pdfrwt beam="2">  1       -2 0.34662982E-01 0.11083392E+03</pdfrwt>
<totfact> 0.56970648E+03</totfact>
</mgrwt>
</event>
<event>
 8    1  0.8438969E-004  0.1007631E+03  0.7546771E-02  0.1279717E+00
          2   -1    0    0  501    0  0.00000000000E+00  0.00000000000E+00  0.13464866129E+03  0.13464866129E+03  0.00000000000E+00 0. -1.
         -2   -1    0    0    0  501 -0.00000000000E+00 -0.00000000000E+00 -0.11182475599E+03  0.11182475599E+03  0.00000000000E+00 0.  1.
         23    2    1    2    0    0 -0.37239298937E+02  0.10639539018E+02 -0.60367147427E+02  0.11580609040E+03  0.90922455469E+02 0.  0.
         23    2    1    2    0    0  0.37239298937E+02 -0.10639539018E+02  0.83191052724E+02  0.13066732689E+03  0.93022760050E+02 0.  0.
          5    1    4    4  502    0 -0.22157231551E+02  0.14668694671E+02  0.52492844214E+02  0.59022895618E+02  0.47000000000E+01 0. -1.
         -5    1    3    3    0  503 -0.31678243174E+02 -0.37967125401E+02 -0.31101110458E+02  0.58603607172E+02  0.47000000000E+01 0.  1.
          5    1    3    3  503    0 -0.55610557627E+01  0.48606664419E+02 -0.29266036968E+02  0.57202483224E+02  0.47000000000E+01 0. -1.
         -5    1    4    4    0  502  0.59396530489E+02 -0.25308233689E+02  0.30698208510E+02  0.71644431272E+02  0.47000000000E+01 0.  1.
<mgrwt>
<rscale>  0 0.10027564E+03</rscale>
<asrwt>0</asrwt>
<pdfrwt beam="1">  1        2 0.20715179E-01 0.10076308E+03</pdfrwt>
<pdfrwt beam="2">  1       -2 0.17203809E-01 0.10076308E+03</pdfrwt>
<totfact> 0.67204336E+03</totfact>
</mgrwt>
</event>
<event>
 8    1  0.8438969E-004  0.1106233E+03  0.7546771E-02  0.1263916E+00
         -3   -1    0    0    0  501 -0.00000000000E+00  0.00000000000E+00  0.80135486326E+03  0.80135486326E+03  0.00000000000E+00 0.  1.
          3   -1    0    0  501    0  0.00000000000E+00 -0.00000000000E+00 -0.34899448353E+02  0.34899448353E+02  0.00000000000E+00 0. -1.
         23    2    1    2    0    0 -0.33403131639E+01  0.58775115377E+02  0.71336742922E+03  0.72189376071E+03  0.93658105931E+02 0.  0.
         23    2    1    2    0    0  0.33403131639E+01 -0.58775115377E+02  0.53087985688E+02  0.11436055090E+03  0.82427722873E+02 0.  0.
          5    1    4    4  502    0  0.18348737271E+01 -0.30175323620E+02 -0.19435415680E+02  0.36245583177E+02  0.47000000000E+01 0. -1.
         -5    1    3    3    0  503  0.41392694289E+02  0.10738167411E+02  0.22103195095E+03  0.22517965432E+03  0.47000000000E+01 0.  1.
          5    1    3    3  503    0 -0.44733007452E+02  0.48036947967E+02  0.49233547827E+03  0.49671410639E+03  0.47000000000E+01 0. -1.
         -5    1    4    4    0  502  0.15054394368E+01 -0.28599791757E+02  0.72523401368E+02  0.78114967723E+02  0.47000000000E+01 0.  1.
<mgrwt>
<rscale>  0 0.10821273E+03</rscale>
<asrwt>0</asrwt>
<pdfrwt beam="1">  1        3 0.53691465E-02 0.11062329E+03</pdfrwt>
<pdfrwt beam="2">  1       -3 0.12328535E+00 0.11062329E+03</pdfrwt>
<totfact> 0.25611577E+02</totfact>
</mgrwt>
</event>
<event>
 8    1  0.8438969E-004  0.1010842E+03  0.7546771E-02  0.1278900E+00
         -1   -1    0    0    0  501 -0.00000000000E+00  0.00000000000E+00  0.71698369850E+01  0.71698369850E+01  0.00000000000E+00 0.  1.
          1   -1    0    0  501    0  0.00000000000E+00 -0.00000000000E+00 -0.14028725753E+04  0.14028725753E+04  0.00000000000E+00 0. -1.
         23    2    1    2    0    0  0.18633222751E+02  0.34486416949E+02 -0.67303109930E+03  0.68033540952E+03  0.91372309113E+02 0.  0.
         23    2    1    2    0    0 -0.18633222751E+02 -0.34486416949E+02 -0.72267163903E+03  0.72970700279E+03  0.93174578665E+02 0.  0.
          5    1    3    3  502    0  0.41197603137E+02  0.50285343523E+02 -0.56507916444E+03  0.56882546564E+03  0.47000000000E+01 0. -1.
         -5    1    4    4    0  503 -0.50393598224E+02  0.40645908042E+01 -0.34434972609E+03  0.34807306632E+03  0.47000000000E+01 0.  1.
          5    1    4    4  503    0  0.31760375473E+02 -0.38551007753E+02 -0.37832191295E+03  0.38163393647E+03  0.47000000000E+01 0. -1.
         -5    1    3    3    0  502 -0.22564380385E+02 -0.15798926575E+02 -0.10795193487E+03  0.11150994388E+03  0.47000000000E+01 0.  1.
<mgrwt>
<rscale>  0 0.10066691E+03</rscale>
<asrwt>0</asrwt>
<pdfrwt beam="1">  1        1 0.21582650E+00 0.10108418E+03</pdfrwt>
<pdfrwt beam="2">  1       -1 0.11030521E-02 0.10108418E+03</pdfrwt>
<totfact> 0.12887031E+04</totfact>
</mgrwt>
</event>
<event>
 8    1  0.8438969E-004  0.1179287E+03  0.7546771E-02  0.1249061E+00
          1   -1    0    0  501    0  0.00000000000E+00  0.00000000000E+00  0.23608796153E+03  0.23608796153E+03  0.00000000000E+00 0. -1.
         -1   -1    0    0    0  501 -0.00000000000E+00 -0.00000000000E+00 -0.60144572679E+02  0.60144572679E+02  0.00000000000E+00 0.  1.
         23    2    1    2    0    0  0.25598505666E+01 -0.65555041423E+02  0.51417494394E+02  0.12865046645E+03  0.97995752443E+02 0.  0.
         23    2    1    2    0    0 -0.25598505666E+01  0.65555041423E+02  0.12452589446E+03  0.16758206776E+03  0.90956224381E+02 0.  0.
          5    1    4    4  502    0 -0.93872650233E+01  0.38423474678E+02 -0.34515085090E-01  0.39831838298E+02  0.47000000000E+01 0.  1.
         -5    1    4    4    0  502  0.68274144567E+01  0.27131566746E+02  0.12456040955E+03  0.12775022947E+03  0.47000000000E+01 0. -1.
          5    1    3    3  503    0  0.14823537253E+02 -0.20138705038E+02  0.72537300254E+02  0.76870375474E+02  0.47000000000E+01 0. -1.
         -5    1    3    3    0  503 -0.12263686687E+02 -0.45416336385E+02 -0.21119805860E+02  0.51780090975E+02  0.47000000000E+01 0.  1.
<mgrwt>
<rscale>  0 0.11645605E+03</rscale>
<asrwt>0</asrwt>
<pdfrwt beam="1">  1        1 0.36321224E-01 0.11792872E+03</pdfrwt>
<pdfrwt beam="2">  1       -1 0.92530113E-02 0.11792872E+03</pdfrwt>
<totfact> 0.76690609E+03</totfact>
</mgrwt>
</event>
<event>
 8    1  0.8438969E-004  0.9333054E+02  0.7546771E-02  0.1295272E+00
          1   -1    0    0  501    0  0.00000000000E+00  0.00000000000E+00  0.40932837540E+03  0.40932837540E+03  0.00000000000E+00 0. -1.
         -1   -1    0    0    0  501 -0.00000000000E+00 -0.00000000000E+00 -0.21205908594E+02  0.21205908594E+02  0.00000000000E+00 0.  1.
         23    2    1    2    0    0  0.11271272905E+02  0.73622304228E+00  0.18415540379E+03  0.20622834904E+03  0.92137590518E+02 0.  0.
         23    2    1    2    0    0 -0.11271272905E+02 -0.73622304228E+00  0.20396706301E+03  0.22430593495E+03  0.92644514363E+02 0.  0.
          5    1    4    4  502    0  0.57770839257E+01  0.26963777575E+02  0.18343472950E+03  0.18555540948E+03  0.47000000000E+01 0. -1.
         -5    1    4    4    0  502 -0.17048356830E+02 -0.27700000617E+02  0.20532333514E+02  0.38750525472E+02  0.47000000000E+01 0.  1.
          5    1    3    3  503    0  0.24060182170E+02 -0.28628298815E+02  0.16359204274E+03  0.16787768853E+03  0.47000000000E+01 0. -1.
         -5    1    3    3    0  503 -0.12788909265E+02  0.29364521858E+02  0.20563361057E+02  0.38350660517E+02  0.47000000000E+01 0.  1.
<mgrwt>
<rscale>  0 0.93204490E+02</rscale>
<asrwt>0</asrwt>
<pdfrwt beam="1">  1        1 0.62973591E-01 0.93330540E+02</pdfrwt>
<pdfrwt beam="2">  1       -1 0.32624478E-02 0.93330540E+02</pdfrwt>
<totfact> 0.17768659E+04</totfact>
</mgrwt>
</event>
<event>
 8    1  0.8438969E-004  0.1331999E+03  0.7546771E-02  0.1222818E+00
          3   -1    0    0  501    0  0.00000000000E+00  0.00000000000E+00  0.17306638994E+03  0.17306638994E+03  0.00000000000E+00 0. -1.
         -3   -1    0    0    0  501 -0.00000000000E+00 -0.00000000000E+00 -0.11347458935E+03  0.11347458935E+03  0.00000000000E+00 0.  1.
         23    2    1    2    0    0  0.42626682418E+02 -0.86400345818E+02  0.74457076921E+02  0.15251411203E+03  0.91840319315E+02 0.  0.
         23    2    1    2    0    0 -0.42626682418E+02  0.86400345818E+02 -0.14865276332E+02  0.13402686726E+03  0.91979187292E+02 0.  0.
          5    1    3    3  502    0 -0.25844733905E+02 -0.37710097040E+02  0.42201137682E+02  0.62394132024E+02  0.47000000000E+01 0. -1.
         -5    1    3    3    0  502  0.68471416323E+02 -0.48690248778E+02  0.32255939239E+02  0.90119980002E+02  0.47000000000E+01 0.  1.
          5    1    4    4  503    0  0.22003580788E+02  0.11570849548E+02 -0.23671690865E+02  0.34647959178E+02  0.47000000000E+01 0. -1.
         -5    1    4    4    0  503 -0.64630263206E+02  0.74829496270E+02  0.88064145335E+01  0.99378908079E+02  0.47000000000E+01 0.  1.
<mgrwt>
<rscale>  0 0.13317597E+03</rscale>
<asrwt>0</asrwt>
<pdfrwt beam="1">  1        3 0.26625599E-01 0.13319994E+03</pdfrwt>
<pdfrwt beam="2">  1       -3 0.17457629E-01 0.13319994E+03</pdfrwt>
<totfact> 0.87896630E+02</totfact>
</mgrwt>
</event>
<event>
 8    1  0.8438969E-004  0.1555337E+03  0.7546771E-02  0.1194460E+00
         -2   -1    0    0    0  501 -0.00000000000E+00  0.00000000000E+00  0.41054406580E+02  0.41054406580E+02  0.00000000000E+00 0.  1.
          2   -1    0    0  501    0  0.00000000000E+00 -0.00000000000E+00 -0.63771848698E+03  0.63771848698E+03  0.00000000000E+00 0. -1.
         23    2    1    2    0    0 -0.54194990637E+02  0.11336560771E+03 -0.19918627104E+03  0.25271702032E+03  0.91661681030E+02 0.  0.
         23    2    1    2    0    0  0.54194990637E+02 -0.11336560771E+03 -0.39747780936E+03  0.42605587323E+03  0.88012159183E+02 0.  0.
          5    1    4    4  502    0  0.83302673269E+01 -0.10062666778E+03 -0.21767081346E+03  0.23999540133E+03  0.47000000000E+01 0. -1.
         -5    1    4    4    0  502  0.45864723311E+02 -0.12738939925E+02 -0.17980699589E+03  0.18606047191E+03  0.47000000000E+01 0.  1.
          5    1    3    3  503    0 -0.12285904568E+02  0.72955396031E+02 -0.17395578491E+03  0.18909293578E+03  0.47000000000E+01 0. -1.
         -5    1    3    3    0  503 -0.41909086070E+02  0.40410211678E+02 -0.25230486134E+02  0.63624084540E+02  0.47000000000E+01 0.  1.
<mgrwt>
<rscale>  0 0.15500032E+03</rscale>
<asrwt>0</asrwt>
<pdfrwt beam="1">  1        2 0.98110536E-01 0.15553367E+03</pdfrwt>
<pdfrwt beam="2">  1       -2 0.63160626E-02 0.15553367E+03</pdfrwt>
<totfact> 0.62312112E+03</totfact>
</mgrwt>
</event>
<event>
 8    1  0.8438969E-004  0.9696531E+02  0.7546771E-02  0.1288497E+00
         -1   -1    0    0    0  501 -0.00000000000E+00  0.00000000000E+00  0.66249822263E+02  0.66249822263E+02  0.00000000000E+00 0.  1.
          1   -1    0    0  501    0  0.00000000000E+00 -0.00000000000E+00 -0.14030332078E+03  0.14030332078E+03  0.00000000000E+00 0. -1.
         23    2    1    2    0    0  0.15158385726E+02 -0.23398047046E+02 -0.50981750092E+02  0.10688079922E+03  0.89705747503E+02 0.  0.
         23    2    1    2    0    0 -0.15158385726E+02  0.23398047046E+02 -0.23071748428E+02  0.99672343831E+02  0.92871014239E+02 0.  0.
          5    1    3    3  502    0  0.22027851292E+02  0.38551898616E-01 -0.71295318544E+02  0.74768577391E+02  0.47000000000E+01 0. -1.
         -5    1    4    4    0  503  0.11951197011E+02 -0.27023723728E+02 -0.29322739385E+02  0.41893028050E+02  0.47000000000E+01 0.  1.
          5    1    4    4  503    0 -0.27109582737E+02  0.50421770774E+02  0.62509909567E+01  0.57779315781E+02  0.47000000000E+01 0. -1.
         -5    1    3    3    0  502 -0.68694655661E+01 -0.23436598944E+02  0.20313568452E+02  0.32112221824E+02  0.47000000000E+01 0.  1.
<mgrwt>
<rscale>  0 0.96199479E+02</rscale>
<asrwt>0</asrwt>
<pdfrwt beam="1">  1        1 0.21585126E-01 0.96965306E+02</pdfrwt>
<pdfrwt beam="2">  1       -1 0.10192280E-01 0.96965306E+02</pdfrwt>
<totfact> 0.12420624E+04</totfact>
</mgrwt>
</event>
<event>
 8    1  0.8438969E-004  0.1493195E+03  0.7546771E-02  0.1201766E+00
          2   -1    0    0  501    0  0.00000000000E+00  0.00000000000E+00  0.61421947642E+03  0.61421947642E+03  0.00000000000E+00 0. -1.
         -2   -1    0    0    0  501 -0.00000000000E+00 -0.00000000000E+00 -0.38046365175E+02  0.38046365175E+02  0.00000000000E+00 0.  1.
         23    2    1    2    0    0 -0.10814472756E+03  0.40101630478E+02  0.21279769893E+03  0.25995994219E+03  0.94830838899E+02 0.  0.
         23    2    1    2    0    0  0.10814472756E+03 -0.40101630478E+02  0.36337541231E+03  0.39230589940E+03  0.92513812848E+02 0.  0.
          5    1    4    4  502    0  0.10586364822E+03 -0.12909532955E+02  0.33901765440E+03  0.35542766923E+03  0.47000000000E+01 0. -1.
         -5    1    4    4    0  502  0.22810793413E+01 -0.27192097523E+02  0.24357757913E+02  0.36878230180E+02  0.47000000000E+01 0.  1.
          5    1    3    3  503    0 -0.23496171532E+02 -0.30253382816E+02  0.65430614273E+02  0.75964416227E+02  0.47000000000E+01 0. -1.
         -5    1    3    3    0  503 -0.84648556030E+02  0.70355013295E+02  0.14736708466E+03  0.18399552596E+03  0.47000000000E+01 0.  1.
<mgrwt>
<rscale>  0 0.14895298E+03</rscale>
<asrwt>0</asrwt>
<pdfrwt beam="1">  1        2 0.94495297E-01 0.14931949E+03</pdfrwt>
<pdfrwt beam="2">  1       -2 0.58532874E-02 0.14931949E+03</pdfrwt>
<totfact> 0.72904504E+03</totfact>
</mgrwt>
</event>
<event>
 8    1  0.8438969E-004  0.1028483E+03  0.7546771E-02  0.1274557E+00
          1   -1    0    0  501    0  0.00000000000E+00  0.00000000000E+00  0.57530804388E+02  0.57530804388E+02  0.00000000000E+00 0. -1.
         -1   -1    0    0    0  501 -0.00000000000E+00 -0.00000000000E+00 -0.21040070785E+03  0.21040070785E+03  0.00000000000E+00 0.  1.
         23    2    1    2    0    0  0.23373539132E+02  0.40328655524E+02 -0.28329248527E+02  0.10641327342E+03  0.91370212048E+02 0.  0.
         23    2    1    2    0    0 -0.23373539132E+02 -0.40328655524E+02 -0.12454065493E+03  0.16151823882E+03  0.91679026781E+02 0.  0.
          5    1    4    4  502    0 -0.53156591306E+02 -0.37462462788E+02 -0.53676930639E+02  0.84453313731E+02  0.47000000000E+01 0. -1.
         -5    1    3    3    0  503  0.49190980859E+02  0.57982533922E+01 -0.37227311196E+02  0.62139641447E+02  0.47000000000E+01 0.  1.
          5    1    3    3  503    0 -0.25817441727E+02  0.34530402132E+02  0.88980626691E+01  0.44273631972E+02  0.47000000000E+01 0. -1.
         -5    1    4    4    0  502  0.29783052175E+02 -0.28661927366E+01 -0.70863724292E+02  0.77064925084E+02  0.47000000000E+01 0.  1.
<mgrwt>
<rscale>  0 0.10277941E+03</rscale>
<asrwt>0</asrwt>
<pdfrwt beam="1">  1        1 0.88508931E-02 0.10284827E+03</pdfrwt>
<pdfrwt beam="2">  1       -1 0.32369339E-01 0.10284827E+03</pdfrwt>
<totfact> 0.63037202E+03</totfact>
</mgrwt>
</event>
<event>
 8    1  0.8438969E-004  0.1443268E+03  0.7546771E-02  0.1207718E+00
         -2   -1    0    0    0  501 -0.00000000000E+00  0.00000000000E+00  0.51503133224E+02  0.51503133224E+02  0.00000000000E+00 0. -1.
          2   -1    0    0  501    0  0.00000000000E+00 -0.00000000000E+00 -0.42137942753E+03  0.42137942753E+03  0.00000000000E+00 0.  1.
         23    2    1    2    0    0 -0.30750453150E+02 -0.10812875769E+03 -0.23329943079E+03  0.27417807346E+03  0.90042062125E+02 0.  0.
         23    2    1    2    0    0  0.30750453150E+02  0.10812875769E+03 -0.13657686352E+03  0.19870448730E+03  0.90514170242E+02 0.  0.
          5    1    3    3  502    0 -0.44922015008E+02 -0.11990607208E+02 -0.77130498846E+02  0.90182958178E+02  0.47000000000E+01 0. -1.
         -5    1    4    4    0  503  0.46871382908E+02  0.26964674583E+02 -0.85729354561E+02  0.10146739597E+03  0.47000000000E+01 0.  1.
          5    1    4    4  503    0 -0.16120929758E+02  0.81164083106E+02 -0.50847508959E+02  0.97237091328E+02  0.47000000000E+01 0. -1.
         -5    1    3    3    0  502  0.14171561858E+02 -0.96138150481E+02 -0.15616893194E+03  0.18399511528E+03  0.47000000000E+01 0.  1.
<mgrwt>
<rscale>  0 0.14425287E+03</rscale>
<asrwt>0</asrwt>
<pdfrwt beam="1">  1        2 0.64827607E-01 0.14432683E+03</pdfrwt>
<pdfrwt beam="2">  1       -2 0.79235587E-02 0.14432683E+03</pdfrwt>
<totfact> 0.69450731E+03</totfact>
</mgrwt>
</event>
<event>
 8    1  0.8438969E-004  0.1012840E+03  0.7546771E-02  0.1279190E+00
          2   -1    0    0  501    0  0.00000000000E+00  0.00000000000E+00  0.13707621653E+03  0.13707621653E+03  0.00000000000E+00 0. -1.
         -2   -1    0    0    0  501 -0.00000000000E+00 -0.00000000000E+00 -0.72644484297E+02  0.72644484297E+02  0.00000000000E+00 0.  1.
         23    2    1    2    0    0  0.42149808849E+02  0.83362222482E+01  0.32903536241E+02  0.10649459733E+03  0.91718905223E+02 0.  0.
         23    2    1    2    0    0 -0.42149808849E+02 -0.83362222482E+01  0.31528195993E+02  0.10322610350E+03  0.88405329670E+02 0.  0.
          5    1    3    3  502    0  0.21540269044E+02  0.32295667731E+02  0.55117567302E+02  0.67579801494E+02  0.47000000000E+01 0. -1.
         -5    1    3    3    0  502  0.20609539805E+02 -0.23959445483E+02 -0.22214031060E+02  0.38914795833E+02  0.47000000000E+01 0.  1.
          5    1    4    4  503    0 -0.50772979280E+02 -0.30866189002E+02  0.45471413952E+02  0.74969037177E+02  0.47000000000E+01 0. -1.
         -5    1    4    4    0  503  0.86231704304E+01  0.22529966754E+02 -0.13943217959E+02  0.28257066324E+02  0.47000000000E+01 0.  1.
<mgrwt>
<rscale>  0 0.10052797E+03</rscale>
<asrwt>0</asrwt>
<pdfrwt beam="1">  1        2 0.21088649E-01 0.10128404E+03</pdfrwt>
<pdfrwt beam="2">  1       -2 0.11176074E-01 0.10128404E+03</pdfrwt>
<totfact> 0.13195432E+04</totfact>
</mgrwt>
</event>
<event>
 8    1  0.8438969E-004  0.9475098E+02  0.7546771E-02  0.1292758E+00
         -3   -1    0    0    0  501 -0.00000000000E+00  0.00000000000E+00  0.10901183665E+02  0.10901183665E+02  0.00000000000E+00 0.  1.
          3   -1    0    0  501    0  0.00000000000E+00 -0.00000000000E+00 -0.80922777017E+03  0.80922777017E+03  0.00000000000E+00 0. -1.
         23    2    1    2    0    0 -0.18935849670E+02 -0.43316772822E+01 -0.38006038335E+03  0.39126491320E+03  0.90912086524E+02 0.  0.
         23    2    1    2    0    0  0.18935849670E+02  0.43316772822E+01 -0.41826620315E+03  0.42886404064E+03  0.92738443057E+02 0.  0.
          5    1    3    3  502    0 -0.28416878728E+02 -0.34038239180E+02 -0.32306084476E+03  0.32612347377E+03  0.47000000000E+01 0. -1.
         -5    1    3    3    0  502  0.94810290584E+01  0.29706561898E+02 -0.56999538586E+02  0.65141439429E+02  0.47000000000E+01 0.  1.
          5    1    4    4  503    0  0.32213600567E+02 -0.37658174059E+02 -0.24681596440E+03  0.25178575102E+03  0.47000000000E+01 0. -1.
         -5    1    4    4    0  503 -0.13277750898E+02  0.41989851341E+02 -0.17145023875E+03  0.17707828962E+03  0.47000000000E+01 0.  1.
<mgrwt>
<rscale>  0 0.94301086E+02</rscale>
<asrwt>0</asrwt>
<pdfrwt beam="1">  1        3 0.12449660E+00 0.94750982E+02</pdfrwt>
<pdfrwt beam="2">  1       -3 0.16771049E-02 0.94750982E+02</pdfrwt>
<totfact> 0.14641866E+03</totfact>
</mgrwt>
</event>
<event>
 8    1  0.8438969E-004  0.1067205E+03  0.7546771E-02  0.1267176E+00
         -2   -1    0    0    0  501 -0.00000000000E+00  0.00000000000E+00  0.20422126494E+03  0.20422126494E+03  0.00000000000E+00 0.  1.
          2   -1    0    0  501    0  0.00000000000E+00 -0.00000000000E+00 -0.61606331628E+02  0.61606331628E+02  0.00000000000E+00 0. -1.
         23    2    1    2    0    0  0.31564633202E+02  0.46074103640E+02  0.11348224866E+03  0.15520220622E+03  0.89946400473E+02 0.  0.
         23    2    1    2    0    0 -0.31564633202E+02 -0.46074103640E+02  0.29132684649E+02  0.11062539035E+03  0.90940170331E+02 0.  0.
          5    1    4    4  502    0  0.28733216088E+02 -0.34209462608E+02  0.92512930565E+01  0.45864599223E+02  0.47000000000E+01 0. -1.
         -5    1    4    4    0  502 -0.60297849290E+02 -0.11864641032E+02  0.19881391592E+02  0.64760791127E+02  0.47000000000E+01 0.  1.
          5    1    3    3  503    0 -0.24028424042E+02 -0.83180866453E+01  0.42782264628E+02  0.49989677875E+02  0.47000000000E+01 0. -1.
         -5    1    3    3    0  503  0.55593057244E+02  0.54392190285E+02  0.70699984035E+02  0.10521252834E+03  0.47000000000E+01 0.  1.
<mgrwt>
<rscale>  0 0.10650848E+03</rscale>
<asrwt>0</asrwt>
<pdfrwt beam="1">  1        2 0.94778972E-02 0.10672049E+03</pdfrwt>
<pdfrwt beam="2">  1       -2 0.31418656E-01 0.10672049E+03</pdfrwt>
<totfact> 0.59853927E+03</totfact>
</mgrwt>
</event>
<event>
 8    1  0.8438969E-004  0.1104524E+03  0.7546771E-02  0.1260923E+00
          1   -1    0    0  501    0  0.00000000000E+00  0.00000000000E+00  0.19369714211E+03  0.19369714211E+03  0.00000000000E+00 0. -1.
         -1   -1    0    0    0  501 -0.00000000000E+00 -0.00000000000E+00 -0.61537941090E+02  0.61537941090E+02  0.00000000000E+00 0.  1.
         23    2    1    2    0    0 -0.60228656451E+02  0.11463002857E+02  0.65261871736E+02  0.12610344349E+03  0.88792314226E+02 0.  0.
         23    2    1    2    0    0  0.60228656451E+02 -0.11463002857E+02  0.66897329287E+02  0.12913163971E+03  0.91874023622E+02 0.  0.
          5    1    4    4  502    0  0.20879797708E+02 -0.88000346543E+01  0.83080681316E+02  0.86243238402E+02  0.47000000000E+01 0. -1.
         -5    1    3    3    0  503 -0.86933447306E+01 -0.35439416216E+02  0.31934538765E+02  0.48717873829E+02  0.47000000000E+01 0.  1.
          5    1    3    3  503    0 -0.51535311721E+02  0.46902419073E+02  0.33327332972E+02  0.77385569663E+02  0.47000000000E+01 0. -1.
         -5    1    4    4    0  502  0.39348858743E+02 -0.26629682030E+01 -0.16183352029E+02  0.42888401310E+02  0.47000000000E+01 0.  1.
<mgrwt>
<rscale>  0 0.10980933E+03</rscale>
<asrwt>0</asrwt>
<pdfrwt beam="1">  1        1 0.29799560E-01 0.11045238E+03</pdfrwt>
<pdfrwt beam="2">  1       -1 0.94673756E-02 0.11045238E+03</pdfrwt>
<totfact> 0.94086359E+03</totfact>
</mgrwt>
</event>
<event>
 8    1  0.8438969E-004  0.1033000E+03  0.7546771E-02  0.1275052E+00
         -3   -1    0    0    0  501 -0.00000000000E+00  0.00000000000E+00  0.56417664828E+02  0.56417664828E+02  0.00000000000E+00 0.  1.
          3   -1    0    0  501    0  0.00000000000E+00 -0.00000000000E+00 -0.66102466253E+03  0.66102466253E+03  0.00000000000E+00 0. -1.
         23    2    1    2    0    0  0.29728649763E+02  0.32896546139E+02  0.37798852258E+01  0.10034793936E+03  0.89941347760E+02 0.  0.
         23    2    1    2    0    0 -0.29728649763E+02 -0.32896546139E+02 -0.60838688293E+03  0.61709438800E+03  0.93300101906E+02 0.  0.
          5    1    4    4  502    0 -0.59701860250E+02 -0.24503257385E+01 -0.38006171103E+03  0.38475876911E+03  0.47000000000E+01 0. -1.
         -5    1    3    3    0  503  0.11164940919E+02 -0.22105592886E+02  0.27641209984E+02  0.37409084885E+02  0.47000000000E+01 0.  1.
          5    1    3    3  503    0  0.18563708844E+02  0.55002139025E+02 -0.23861324758E+02  0.62938854475E+02  0.47000000000E+01 0. -1.
         -5    1    4    4    0  502  0.29973210486E+02 -0.30446220401E+02 -0.22832517190E+03  0.23233561889E+03  0.47000000000E+01 0.  1.
<mgrwt>
<rscale>  0 0.10253572E+03</rscale>
<asrwt>0</asrwt>
<pdfrwt beam="1">  1        3 0.10169610E+00 0.10329997E+03</pdfrwt>
<pdfrwt beam="2">  1       -3 0.86796412E-02 0.10329997E+03</pdfrwt>
<totfact> 0.18376335E+02</totfact>
</mgrwt>
</event>
<event>
 8    1  0.8438969E-004  0.1001027E+03  0.7546771E-02  0.1283739E+00
          1   -1    0    0  501    0  0.00000000000E+00  0.00000000000E+00  0.41676313435E+02  0.41676313435E+02  0.00000000000E+00 0. -1.
         -1   -1    0    0    0  501 -0.00000000000E+00 -0.00000000000E+00 -0.24560599045E+03  0.24560599045E+03  0.00000000000E+00 0.  1.
         23    2    1    2    0    0  0.36217054014E+02 -0.21926566679E+02 -0.14073160474E+03  0.16889927836E+03  0.83241409960E+02 0.  0.
         23    2    1    2    0    0 -0.36217054014E+02  0.21926566679E+02 -0.63198072282E+02  0.11838302553E+03  0.90708847775E+02 0.  0.
          5    1    3    3  502    0  0.38144531928E+02  0.21203103101E+02 -0.40750612313E+02  0.59893900365E+02  0.47000000000E+01 0. -1.
         -5    1    3    3    0  502 -0.19274779140E+01 -0.43129669780E+02 -0.99980992424E+02  0.10900537800E+03  0.47000000000E+01 0.  1.
          5    1    4    4  503    0  0.44078172759E+01  0.49814149400E+02 -0.36941273362E+02  0.62350830076E+02  0.47000000000E+01 0. -1.
         -5    1    4    4    0  503 -0.40624871290E+02 -0.27887582721E+02 -0.26256798920E+02  0.56032195449E+02  0.47000000000E+01 0.  1.
<mgrwt>
<rscale>  0 0.98380415E+02</rscale>
<asrwt>0</asrwt>
<pdfrwt beam="1">  1        1 0.64117403E-02 0.10010267E+03</pdfrwt>
<pdfrwt beam="2">  1       -1 0.37785538E-01 0.10010267E+03</pdfrwt>
<totfact> 0.74271779E+03</totfact>
</mgrwt>
</event>
<event>
 8    1  0.8438969E-004  0.1128559E+03  0.7546771E-02  0.1258723E+00
          3   -1    0    0  501    0  0.00000000000E+00  0.00000000000E+00  0.50122676550E+03  0.50122676550E+03  0.00000000000E+00 0. -1.
         -3   -1    0    0    0  501 -0.00000000000E+00 -0.00000000000E+00 -0.23959230852E+02  0.23959230852E+02  0.00000000000E+00 0.  1.
         23    2    1    2    0    0  0.63454627152E+02  0.26645075720E+02  0.20999103778E+03  0.23505983460E+03  0.80127648964E+02 0.  0.
         23    2    1    2    0    0 -0.63454627152E+02 -0.26645075720E+02  0.26727649687E+03  0.29012616175E+03  0.89442798404E+02 0.  0.
          5    1    3    3  502    0  0.46282547985E+01 -0.21082089139E+02  0.93136844061E+02  0.95720619235E+02  0.47000000000E+01 0. -1.
         -5    1    4    4    0  503 -0.51969380864E+02  0.24529840923E+02  0.16999097479E+03  0.17950362434E+03  0.47000000000E+01 0.  1.
          5    1    4    4  503    0 -0.11485246288E+02 -0.51174916643E+02  0.97285522078E+02  0.11062253740E+03  0.47000000000E+01 0. -1.
         -5    1    3    3    0  502  0.58826372353E+02  0.47727164859E+02  0.11685419372E+03  0.13933921537E+03  0.47000000000E+01 0.  1.
<mgrwt>
<rscale>  0 0.11100338E+03</rscale>
<asrwt>0</asrwt>
<pdfrwt beam="1">  1        3 0.77111803E-01 0.11285594E+03</pdfrwt>
<pdfrwt beam="2">  1       -3 0.36860359E-02 0.11285594E+03</pdfrwt>
<totfact> 0.13319740E+03</totfact>
</mgrwt>
</event>
<event>
 8    1  0.8438969E-004  0.9534988E+02  0.7546771E-02  0.1290575E+00
          2   -1    0    0  501    0  0.00000000000E+00  0.00000000000E+00  0.72724837904E+03  0.72724837904E+03  0.00000000000E+00 0. -1.
         -2   -1    0    0    0  501 -0.00000000000E+00 -0.00000000000E+00 -0.13640627313E+02  0.13640627313E+02  0.00000000000E+00 0.  1.
         23    2    1    2    0    0  0.15861075611E+02 -0.21560959314E+02  0.46642797230E+03  0.47607420854E+03  0.91515845636E+02 0.  0.
         23    2    1    2    0    0 -0.15861075611E+02  0.21560959314E+02  0.24717977943E+03  0.26481479782E+03  0.91173379337E+02 0.  0.
          5    1    4    4  502    0  0.24949896858E+02  0.42045629032E+02  0.12763053220E+03  0.13675516452E+03  0.47000000000E+01 0. -1.
         -5    1    3    3    0  503 -0.26746639827E+02 -0.35484133265E+02  0.15197596224E+03  0.15840861578E+03  0.47000000000E+01 0.  1.
          5    1    3    3  503    0  0.42607715437E+02  0.13923173951E+02  0.31445201006E+03  0.31766559275E+03  0.47000000000E+01 0. -1.
         -5    1    4    4    0  502 -0.40810972468E+02 -0.20484669718E+02  0.11954924723E+03  0.12805963330E+03  0.47000000000E+01 0.  1.
<mgrwt>
<rscale>  0 0.95267607E+02</rscale>
<asrwt>0</asrwt>
<pdfrwt beam="1">  1        2 0.11188434E+00 0.95349875E+02</pdfrwt>
<pdfrwt beam="2">  1       -2 0.20985586E-02 0.95349875E+02</pdfrwt>
<totfact> 0.26272439E+04</totfact>
</mgrwt>
</event>
<event>
 7    1  0.8438969E-004  0.1695984E+03  0.7546771E-02  0.1188338E+00
         -1   -1    0    0    0  501 -0.00000000000E+00  0.00000000000E+00  0.89596383285E+02  0.89596383285E+02  0.00000000000E+00 0.  1.
          1   -1    0    0  501    0  0.00000000000E+00 -0.00000000000E+00 -0.29453728055E+03  0.29453728055E+03  0.00000000000E+00 0. -1.
         23    2    1    2    0    0  0.77442271228E+02  0.64185589528E+02 -0.26554079287E+02  0.13799249121E+03  0.90662634130E+02 0.  0.
          5    1    3    3  502    0  0.97412768135E+02  0.45339199051E+02 -0.20608368191E+02  0.10950655325E+03  0.47000000000E+01 0. -1.
         -5    1    3    3    0  502 -0.19970496907E+02  0.18846390477E+02 -0.59457110959E+01  0.28485937954E+02  0.47000000000E+01 0.  1.
          5    1    1    2  503    0 -0.19672341284E+02  0.15399437597E+02 -0.13700548919E+03  0.13934395487E+03  0.47000000000E+01 0. -1.
         -5    1    1    2    0  503 -0.57769929944E+02 -0.79585027125E+02 -0.41381328785E+02  0.10679721776E+03  0.47000000000E+01 0.  1.
<mgrwt>
<rscale>  0 0.16031782E+03</rscale>
<asrwt>0</asrwt>
<pdfrwt beam="1">  1        1 0.45313428E-01 0.16959841E+03</pdfrwt>
<pdfrwt beam="2">  1       -1 0.13784059E-01 0.16959841E+03</pdfrwt>
<totfact> 0.32247954E+03</totfact>
</mgrwt>
</event>
<event>
 8    1  0.8438969E-004  0.1056988E+03  0.7546771E-02  0.1268912E+00
         -2   -1    0    0    0  501 -0.00000000000E+00  0.00000000000E+00  0.34276090624E+02  0.34276090624E+02  0.00000000000E+00 0.  1.
          2   -1    0    0  501    0  0.00000000000E+00 -0.00000000000E+00 -0.32492413429E+03  0.32492413429E+03  0.00000000000E+00 0. -1.
         23    2    1    2    0    0  0.55695128719E+02  0.10106857801E+02 -0.14590761626E+03  0.18017011170E+03  0.89264442685E+02 0.  0.
         23    2    1    2    0    0 -0.55695128719E+02 -0.10106857801E+02 -0.14474042740E+03  0.17903011322E+03  0.88870097196E+02 0.  0.
          5    1    4    4  502    0 -0.34776451696E+02 -0.17700924049E+02 -0.15051586317E+03  0.15556297558E+03  0.47000000000E+01 0. -1.
         -5    1    4    4    0  502 -0.20918677023E+02  0.75940662475E+01  0.57754357682E+01  0.23467137637E+02  0.47000000000E+01 0.  1.
          5    1    3    3  503    0  0.78817623204E+02 -0.85049855885E+00 -0.11834070356E+03  0.14226578364E+03  0.47000000000E+01 0. -1.
         -5    1    3    3    0  503 -0.23122494485E+02  0.10957356360E+02 -0.27566912704E+02  0.37904328059E+02  0.47000000000E+01 0.  1.
<mgrwt>
<rscale>  0 0.10561550E+03</rscale>
<asrwt>0</asrwt>
<pdfrwt beam="1">  1        2 0.49988326E-01 0.10569880E+03</pdfrwt>
<pdfrwt beam="2">  1       -2 0.52732450E-02 0.10569880E+03</pdfrwt>
<totfact> 0.16590821E+04</totfact>
</mgrwt>
</event>
<event>
 8    1  0.8438969E-004  0.1044660E+03  0.7546771E-02  0.1276926E+00
          2   -1    0    0  501    0  0.00000000000E+00  0.00000000000E+00  0.41316399373E+03  0.41316399373E+03  0.00000000000E+00 0. -1.
         -2   -1    0    0    0  501 -0.00000000000E+00 -0.00000000000E+00 -0.28138401394E+02  0.28138401394E+02  0.00000000000E+00 0.  1.
         23    2    1    2    0    0 -0.59526173630E+01 -0.23473791472E+02  0.28876692107E+03  0.30708220766E+03  0.10162034745E+03 0.  0.
         23    2    1    2    0    0  0.59526173630E+01  0.23473791472E+02  0.96258671262E+02  0.13422018746E+03  0.90348626941E+02 0.  0.
          5    1    3    3  502    0 -0.22333671560E+02  0.18790463723E+02  0.23388936629E+03  0.23575029178E+03  0.47000000000E+01 0. -1.
         -5    1    3    3    0  502  0.16381054197E+02 -0.42264255195E+02  0.54877554787E+02  0.71331915880E+02  0.47000000000E+01 0.  1.
          5    1    4    4  503    0  0.39925040654E+02  0.38359253936E+02  0.64776800667E+02  0.85343805507E+02  0.47000000000E+01 0. -1.
         -5    1    4    4    0  503 -0.33972423291E+02 -0.14885462464E+02  0.31481870594E+02  0.48876381956E+02  0.47000000000E+01 0.  1.
<mgrwt>
<rscale>  0 0.10161974E+03</rscale>
<asrwt>0</asrwt>
<pdfrwt beam="1">  1        2 0.63563687E-01 0.10446601E+03</pdfrwt>
<pdfrwt beam="2">  1       -2 0.43289851E-02 0.10446601E+03</pdfrwt>
<totfact> 0.17252893E+04</totfact>
</mgrwt>
</event>
<event>
 8    1  0.8438969E-004  0.9988363E+02  0.7546771E-02  0.1281253E+00
          3   -1    0    0  501    0  0.00000000000E+00  0.00000000000E+00  0.81725370391E+02  0.81725370391E+02  0.00000000000E+00 0. -1.
         -3   -1    0    0    0  501 -0.00000000000E+00 -0.00000000000E+00 -0.14744511018E+03  0.14744511018E+03  0.00000000000E+00 0.  1.
         23    2    1    2    0    0 -0.30400992102E+02  0.18502677137E+02 -0.81714189175E+02  0.12801435332E+03  0.91890677224E+02 0.  0.
         23    2    1    2    0    0  0.30400992102E+02 -0.18502677137E+02  0.15994449389E+02  0.10115612725E+03  0.93328293069E+02 0.  0.
          5    1    4    4  502    0  0.13315143251E+01  0.36660373735E+02  0.17629380971E+01  0.37026394417E+02  0.47000000000E+01 0. -1.
         -5    1    3    3    0  503 -0.40229474900E+02 -0.26370129969E+02 -0.59836621163E+02  0.76917524905E+02  0.47000000000E+01 0.  1.
          5    1    3    3  503    0  0.98284827978E+01  0.44872807106E+02 -0.21877568013E+02  0.51096828413E+02  0.47000000000E+01 0. -1.
         -5    1    4    4    0  502  0.29069477777E+02 -0.55163050872E+02  0.14231511292E+02  0.64129732834E+02  0.47000000000E+01 0.  1.
<mgrwt>
<rscale>  0 0.99546444E+02</rscale>
<asrwt>0</asrwt>
<pdfrwt beam="1">  1        3 0.12573134E-01 0.99883631E+02</pdfrwt>
<pdfrwt beam="2">  1       -3 0.22683863E-01 0.99883631E+02</pdfrwt>
<totfact> 0.19482514E+03</totfact>
</mgrwt>
</event>
<event>
 8    1  0.8438969E-004  0.1228244E+03  0.7546771E-02  0.1239074E+00
          1   -1    0    0  501    0  0.00000000000E+00  0.00000000000E+00  0.41462495828E+03  0.41462495828E+03  0.00000000000E+00 0. -1.
         -1   -1    0    0    0  501 -0.00000000000E+00 -0.00000000000E+00 -0.10368881604E+03  0.10368881604E+03  0.00000000000E+00 0.  1.
         23    2    1    2    0    0 -0.35545806303E+02  0.72375504708E+02  0.36521275075E+03  0.38531308899E+03  0.92650446351E+02 0.  0.
         23    2    1    2    0    0  0.35545806303E+02 -0.72375504708E+02 -0.54276608502E+02  0.13300068533E+03  0.90782784936E+02 0.  0.
          5    1    4    4  502    0 -0.22062102287E+02 -0.47866199958E+02 -0.49239709683E+01  0.53143625637E+02  0.47000000000E+01 0. -1.
         -5    1    3    3    0  503  0.45242759639E+01  0.45472886848E+02  0.30285761840E+03  0.30632185611E+03  0.47000000000E+01 0.  1.
          5    1    3    3  503    0 -0.40070082267E+02  0.26902617860E+02  0.62355132351E+02  0.78991232875E+02  0.47000000000E+01 0. -1.
         -5    1    4    4    0  502  0.57607908591E+02 -0.24509304750E+02 -0.49352637534E+02  0.79857059694E+02  0.47000000000E+01 0.  1.
<mgrwt>
<rscale>  0 0.12247219E+03</rscale>
<asrwt>0</asrwt>
<pdfrwt beam="1">  1        1 0.63788454E-01 0.12282436E+03</pdfrwt>
<pdfrwt beam="2">  1       -1 0.15952126E-01 0.12282436E+03</pdfrwt>
<totfact> 0.16532711E+03</totfact>
</mgrwt>
</event>
<event>
 8    1  0.8438969E-004  0.9664434E+02  0.7546771E-02  0.1288276E+00
          3   -1    0    0  501    0  0.00000000000E+00  0.00000000000E+00  0.44277790138E+02  0.44277790138E+02  0.00000000000E+00 0. -1.
         -3   -1    0    0    0  501 -0.00000000000E+00 -0.00000000000E+00 -0.20803294810E+03  0.20803294810E+03  0.00000000000E+00 0.  1.
         23    2    1    2    0    0 -0.40029903129E+01 -0.31173632782E+02 -0.80060854012E+02  0.12549848354E+03  0.91390971725E+02 0.  0.
         23    2    1    2    0    0  0.40029903129E+01  0.31173632782E+02 -0.83694303945E+02  0.12681225470E+03  0.89937712424E+02 0.  0.
          5    1    3    3  502    0 -0.38206856997E+02  0.59540380772E+01 -0.12257014998E+02  0.40835510376E+02  0.47000000000E+01 0. -1.
         -5    1    3    3    0  502  0.34203866684E+02 -0.37127670859E+02 -0.67803839014E+02  0.84662973162E+02  0.47000000000E+01 0.  1.
          5    1    4    4  503    0  0.30423329674E+02  0.25864586345E+02 -0.90146095975E+02  0.98706455892E+02  0.47000000000E+01 0. -1.
         -5    1    4    4    0  503 -0.26420339361E+02  0.53090464373E+01  0.64517920296E+01  0.28105798805E+02  0.47000000000E+01 0.  1.
<mgrwt>
<rscale>  0 0.96299226E+02</rscale>
<asrwt>0</asrwt>
<pdfrwt beam="1">  1        3 0.68119677E-02 0.96644343E+02</pdfrwt>
<pdfrwt beam="2">  1       -3 0.32005069E-01 0.96644343E+02</pdfrwt>
<totfact> 0.28213101E+03</totfact>
</mgrwt>
</event>
<event>
 8    1  0.8438969E-004  0.9280168E+02  0.7546771E-02  0.1296644E+00
         -2   -1    0    0    0  501 -0.00000000000E+00  0.00000000000E+00  0.52885601892E+02  0.52885601892E+02  0.00000000000E+00 0.  1.
          2   -1    0    0  501    0  0.00000000000E+00 -0.00000000000E+00 -0.16258991236E+03  0.16258991236E+03  0.00000000000E+00 0. -1.
         23    2    1    2    0    0 -0.78130098442E-01  0.14692306509E+02 -0.45923803940E+02  0.10286953979E+03  0.90869557458E+02 0.  0.
         23    2    1    2    0    0  0.78130098442E-01 -0.14692306509E+02 -0.63780506524E+02  0.11260597446E+03  0.91631231013E+02 0.  0.
          5    1    3    3  502    0 -0.32285305788E+02 -0.16555454778E+02 -0.44659252887E+02  0.57731818967E+02  0.47000000000E+01 0. -1.
         -5    1    4    4    0  503 -0.17062924178E+02  0.15769766227E+02  0.13768895306E+02  0.27413525609E+02  0.47000000000E+01 0.  1.
          5    1    4    4  503    0  0.17141054277E+02 -0.30462072736E+02 -0.77549401831E+02  0.85192448852E+02  0.47000000000E+01 0. -1.
         -5    1    3    3    0  502  0.32207175690E+02  0.31247761288E+02 -0.12645510521E+01  0.45137720819E+02  0.47000000000E+01 0.  1.
<mgrwt>
<rscale>  0 0.92613113E+02</rscale>
<asrwt>0</asrwt>
<pdfrwt beam="1">  1        2 0.25013833E-01 0.92801684E+02</pdfrwt>
<pdfrwt beam="2">  1       -2 0.81362463E-02 0.92801684E+02</pdfrwt>
<totfact> 0.17739583E+04</totfact>
</mgrwt>
</event>
<event>
 8    1  0.8438969E-004  0.1033518E+03  0.7546771E-02  0.1273426E+00
          4   -1    0    0  501    0  0.00000000000E+00  0.00000000000E+00  0.94435170690E+03  0.94435170690E+03  0.00000000000E+00 0. -1.
         -4   -1    0    0    0  501 -0.00000000000E+00 -0.00000000000E+00 -0.14021003709E+02  0.14021003709E+02  0.00000000000E+00 0.  1.
         23    2    1    2    0    0 -0.19386069922E+02  0.45404858253E+02  0.67612636639E+03  0.68397986760E+03  0.90797439914E+02 0.  0.
         23    2    1    2    0    0  0.19386069922E+02 -0.45404858253E+02  0.25420433680E+03  0.27439284301E+03  0.90742308685E+02 0.  0.
          5    1    3    3  502    0 -0.48260553357E+02  0.51089677961E+02  0.54357543616E+03  0.54812004251E+03  0.47000000000E+01 0. -1.
         -5    1    3    3    0  502  0.28874483436E+02 -0.56848197073E+01  0.13255093023E+03  0.13585982509E+03  0.47000000000E+01 0.  1.
          5    1    4    4  503    0  0.47909853207E+02 -0.54333176232E+02  0.16721522679E+03  0.18229226573E+03  0.47000000000E+01 0.  1.
         -5    1    4    4    0  503 -0.28523783285E+02  0.89283179784E+01  0.86989110011E+02  0.92100577280E+02  0.47000000000E+01 0. -1.
<mgrwt>
<rscale>  0 0.10333970E+03</rscale>
<asrwt>0</asrwt>
<pdfrwt beam="1">  1        4 0.14528483E+00 0.10335181E+03</pdfrwt>
<pdfrwt beam="2">  1       -4 0.21570782E-02 0.10335181E+03</pdfrwt>
<totfact> 0.49223928E+02</totfact>
</mgrwt>
</event>
<event>
 8    1  0.8438969E-004  0.1009479E+03  0.7546771E-02  0.1279797E+00
         -1   -1    0    0    0  501 -0.00000000000E+00  0.00000000000E+00  0.95287614479E+02  0.95287614479E+02  0.00000000000E+00 0.  1.
          1   -1    0    0  501    0  0.00000000000E+00 -0.00000000000E+00 -0.25946927559E+03  0.25946927559E+03  0.00000000000E+00 0. -1.
         23    2    1    2    0    0 -0.29539504455E+02 -0.21181264067E+02  0.54748030466E+02  0.11483827008E+03  0.94176712430E+02 0.  0.
         23    2    1    2    0    0  0.29539504455E+02  0.21181264067E+02 -0.21892969158E+03  0.23991861999E+03  0.91156492323E+02 0.  0.
          5    1    3    3  502    0  0.16041711907E+02 -0.13199364523E+02 -0.18405503622E+02  0.28149818975E+02  0.47000000000E+01 0. -1.
         -5    1    3    3    0  502 -0.45581216362E+02 -0.79818995438E+01  0.73153534088E+02  0.86688451105E+02  0.47000000000E+01 0.  1.
          5    1    4    4  503    0  0.33674100955E+02  0.54115142448E+02 -0.15674317120E+03  0.16927169118E+03  0.47000000000E+01 0. -1.
         -5    1    4    4    0  503 -0.41345965007E+01 -0.32933878381E+02 -0.62186520375E+02  0.70646928806E+02  0.47000000000E+01 0.  1.
<mgrwt>
<rscale>  0 0.10023755E+03</rscale>
<asrwt>0</asrwt>
<pdfrwt beam="1">  1        1 0.39918350E-01 0.10094791E+03</pdfrwt>
<pdfrwt beam="2">  1       -1 0.14659633E-01 0.10094791E+03</pdfrwt>
<totfact> 0.33410990E+03</totfact>
</mgrwt>
</event>
<event>
 8    1  0.8438969E-004  0.1426042E+03  0.7546771E-02  0.1210575E+00
         -1   -1    0    0    0  501 -0.00000000000E+00  0.00000000000E+00  0.44056930610E+02  0.44056930610E+02  0.00000000000E+00 0.  1.
          1   -1    0    0  501    0  0.00000000000E+00 -0.00000000000E+00 -0.46442786692E+03  0.46442786692E+03  0.00000000000E+00 0. -1.
         23    2    1    2    0    0 -0.51550359210E+02  0.90725807492E+02 -0.24544387906E+03  0.28279602147E+03  0.94033399972E+02 0.  0.
         23    2    1    2    0    0  0.51550359210E+02 -0.90725807492E+02 -0.17492705725E+03  0.22568877607E+03  0.97197410472E+02 0.  0.
          5    1    4    4  502    0  0.18234895870E+02 -0.50796311255E+02 -0.16349573101E+03  0.17223739641E+03  0.47000000000E+01 0. -1.
         -5    1    3    3    0  503 -0.41663661260E+02 -0.37544707904E+01 -0.49436766098E+02  0.64931044676E+02  0.47000000000E+01 0.  1.
          5    1    3    3  503    0 -0.98866979496E+01  0.94480278283E+02 -0.19600711296E+03  0.21786497679E+03  0.47000000000E+01 0. -1.
         -5    1    4    4    0  502  0.33315463340E+02 -0.39929496237E+02 -0.11431326247E+02  0.53451379656E+02  0.47000000000E+01 0.  1.
<mgrwt>
<rscale>  0 0.14206677E+03</rscale>
<asrwt>0</asrwt>
<pdfrwt beam="1">  1        1 0.71450441E-01 0.14260417E+03</pdfrwt>
<pdfrwt beam="2">  1       -1 0.67779893E-02 0.14260417E+03</pdfrwt>
<totfact> 0.53350992E+03</totfact>
</mgrwt>
</event>
<event>
 8    1  0.8438969E-004  0.9928313E+02  0.7546771E-02  0.1283931E+00
          2   -1    0    0  501    0  0.00000000000E+00  0.00000000000E+00  0.17003382929E+03  0.17003382929E+03  0.00000000000E+00 0. -1.
         -2   -1    0    0    0  501 -0.00000000000E+00 -0.00000000000E+00 -0.55715492243E+02  0.55715492243E+02  0.00000000000E+00 0.  1.
         23    2    1    2    0    0 -0.82135203142E+01 -0.37034496606E+02  0.59216778227E+02  0.11560175881E+03  0.91750334934E+02 0.  0.
         23    2    1    2    0    0  0.82135203142E+01  0.37034496606E+02  0.55101558821E+02  0.11014756273E+03  0.87505930860E+02 0.  0.
          5    1    3    3  502    0  0.39315812038E+00  0.25929533714E+02 -0.30212544913E+01  0.26527594513E+02  0.47000000000E+01 0. -1.
         -5    1    3    3    0  502 -0.86066784346E+01 -0.62964030320E+02  0.62238032719E+02  0.89074164293E+02  0.47000000000E+01 0.  1.
          5    1    4    4  503    0  0.17119451674E+01  0.58279875806E+02  0.63127074096E+02  0.86061560317E+02  0.47000000000E+01 0. -1.
         -5    1    4    4    0  503  0.65015751468E+01 -0.21245379200E+02 -0.80255152753E+01  0.24086002412E+02  0.47000000000E+01 0.  1.
<mgrwt>
<rscale>  0 0.98291217E+02</rscale>
<asrwt>0</asrwt>
<pdfrwt beam="1">  1        2 0.26159050E-01 0.99283130E+02</pdfrwt>
<pdfrwt beam="2">  1       -2 0.85716143E-02 0.99283130E+02</pdfrwt>
<totfact> 0.15703562E+04</totfact>
</mgrwt>
</event>
<event>
 8    1  0.8438969E-004  0.1046701E+03  0.7546771E-02  0.1271560E+00
          2   -1    0    0  501    0  0.00000000000E+00  0.00000000000E+00  0.69304065169E+03  0.69304065169E+03  0.00000000000E+00 0. -1.
         -2   -1    0    0    0  501 -0.00000000000E+00 -0.00000000000E+00 -0.17327925828E+02  0.17327925828E+02  0.00000000000E+00 0.  1.
         23    2    1    2    0    0 -0.70538587898E+01  0.49483699015E+02  0.22704791312E+03  0.25001316080E+03  0.91964299230E+02 0.  0.
         23    2    1    2    0    0  0.70538587898E+01 -0.49483699015E+02  0.44866481275E+03  0.46035541672E+03  0.90158760579E+02 0.  0.
          5    1    3    3  502    0  0.24613896957E+02  0.64582396137E+02  0.15007755115E+03  0.16529395383E+03  0.47000000000E+01 0. -1.
         -5    1    4    4    0  503  0.70761277302E+01  0.26048218195E+02  0.12224185409E+03  0.12527466682E+03  0.47000000000E+01 0.  1.
          5    1    4    4  503    0 -0.22268940364E-01 -0.75531917210E+02  0.32642295865E+03  0.33508074989E+03  0.47000000000E+01 0. -1.
         -5    1    3    3    0  502 -0.31667755747E+02 -0.15098697122E+02  0.76970361964E+02  0.84719206970E+02  0.47000000000E+01 0.  1.
<mgrwt>
<rscale>  0 0.10427213E+03</rscale>
<asrwt>0</asrwt>
<pdfrwt beam="1">  1        2 0.10662162E+00 0.10467008E+03</pdfrwt>
<pdfrwt beam="2">  1       -2 0.26658353E-02 0.10467008E+03</pdfrwt>
<totfact> 0.19841119E+04</totfact>
</mgrwt>
</event>
<event>
 8    1  0.8438969E-004  0.1018895E+03  0.7546771E-02  0.1276428E+00
         -1   -1    0    0    0  501 -0.00000000000E+00  0.00000000000E+00  0.15722272529E+03  0.15722272529E+03  0.00000000000E+00 0.  1.
          1   -1    0    0  501    0  0.00000000000E+00 -0.00000000000E+00 -0.18759317638E+03  0.18759317638E+03  0.00000000000E+00 0. -1.
         23    2    1    2    0    0  0.44834039475E+02 -0.58345040316E+01  0.12363955842E+03  0.16021298646E+03  0.91308970482E+02 0.  0.
         23    2    1    2    0    0 -0.44834039475E+02  0.58345040316E+01 -0.15401000950E+03  0.18460291521E+03  0.91186735583E+02 0.  0.
          5    1    4    4  502    0 -0.35342107264E+02 -0.22184137697E+02 -0.14827329053E+03  0.15410470205E+03  0.47000000000E+01 0. -1.
         -5    1    4    4    0  502 -0.94919322110E+01  0.28018641729E+02 -0.57367189733E+01  0.30498213161E+02  0.47000000000E+01 0.  1.
          5    1    3    3  503    0  0.23498323031E+02  0.32224370937E+02  0.14695246387E+02  0.42762384568E+02  0.47000000000E+01 0. -1.
         -5    1    3    3    0  503  0.21335716444E+02 -0.38058874969E+02  0.10894431203E+03  0.11745060189E+03  0.47000000000E+01 0.  1.
<mgrwt>
<rscale>  0 0.10186206E+03</rscale>
<asrwt>0</asrwt>
<pdfrwt beam="1">  1        1 0.28860489E-01 0.10188945E+03</pdfrwt>
<pdfrwt beam="2">  1       -1 0.24188112E-01 0.10188945E+03</pdfrwt>
<totfact> 0.22504796E+03</totfact>
</mgrwt>
</event>
<event>
 8    1  0.8438969E-004  0.1033921E+03  0.7546771E-02  0.1278231E+00
         -1   -1    0    0    0  501 -0.00000000000E+00  0.00000000000E+00  0.12272331434E+03  0.12272331434E+03  0.00000000000E+00 0.  1.
          1   -1    0    0  501    0  0.00000000000E+00 -0.00000000000E+00 -0.85583749901E+02  0.85583749901E+02  0.00000000000E+00 0. -1.
         23    2    1    2    0    0  0.21521527534E+02 -0.10541068253E+01  0.47212437233E+02  0.11366149866E+03  0.10112188072E+03 0.  0.
         23    2    1    2    0    0 -0.21521527534E+02  0.10541068253E+01 -0.10072872793E+02  0.94645565580E+02  0.91608040199E+02 0.  0.
          5    1    4    4  502    0 -0.52999698817E+02  0.11590517665E+02 -0.22458752478E+02  0.58904955117E+02  0.47000000000E+01 0. -1.
         -5    1    4    4    0  502  0.31478171283E+02 -0.10536410840E+02  0.12385879685E+02  0.35740610463E+02  0.47000000000E+01 0.  1.
          5    1    3    3  503    0 -0.18987264617E+02  0.34923975823E+02 -0.23290691663E+01  0.40096319882E+02  0.47000000000E+01 0. -1.
         -5    1    3    3    0  503  0.40508792151E+02 -0.35978082648E+02  0.49541506400E+02  0.73565178780E+02  0.47000000000E+01 0.  1.
<mgrwt>
<rscale>  0 0.10098855E+03</rscale>
<asrwt>0</asrwt>
<pdfrwt beam="1">  1        1 0.13166731E-01 0.10339208E+03</pdfrwt>
<pdfrwt beam="2">  1       -1 0.18880510E-01 0.10339208E+03</pdfrwt>
<totfact> 0.90330142E+03</totfact>
</mgrwt>
</event>
<event>
 8    1  0.8438969E-004  0.3660505E+03  0.7546771E-02  0.1056288E+00
          1   -1    0    0  501    0  0.00000000000E+00  0.00000000000E+00  0.48204175011E+03  0.48204175011E+03  0.00000000000E+00 0. -1.
         -1   -1    0    0    0  501 -0.00000000000E+00 -0.00000000000E+00 -0.47060132274E+03  0.47060132274E+03  0.00000000000E+00 0.  1.
         23    2    1    2    0    0  0.32444813159E+03 -0.14170734162E+03 -0.29949245639E+03  0.47235961150E+03  0.89890546669E+02 0.  0.
         23    2    1    2    0    0 -0.32444813159E+03  0.14170734162E+03  0.31093288376E+03  0.48028346135E+03  0.92980558587E+02 0.  0.
          5    1    4    4  502    0 -0.14231035987E+03  0.20588143928E+02  0.15590083047E+03  0.21213973965E+03  0.47000000000E+01 0. -1.
         -5    1    3    3    0  503  0.27632877225E+03 -0.11044793709E+03 -0.20389954029E+03  0.36076786125E+03  0.47000000000E+01 0.  1.
          5    1    3    3  503    0  0.48119359340E+02 -0.31259404528E+02 -0.95592916106E+02  0.11159175025E+03  0.47000000000E+01 0. -1.
         -5    1    4    4    0  502 -0.18213777172E+03  0.12111919769E+03  0.15503205329E+03  0.26814372170E+03  0.47000000000E+01 0.  1.
<mgrwt>
<rscale>  0 0.36585715E+03</rscale>
<asrwt>0</asrwt>
<pdfrwt beam="1">  1        1 0.74160269E-01 0.36605047E+03</pdfrwt>
<pdfrwt beam="2">  1       -1 0.72400204E-01 0.36605047E+03</pdfrwt>
<totfact> 0.94728020E+01</totfact>
</mgrwt>
</event>
<event>
 8    1  0.8438969E-004  0.9617733E+02  0.7546771E-02  0.1291017E+00
          1   -1    0    0  501    0  0.00000000000E+00  0.00000000000E+00  0.10488070564E+03  0.10488070564E+03  0.00000000000E+00 0. -1.
         -1   -1    0    0    0  501 -0.00000000000E+00 -0.00000000000E+00 -0.84495876177E+02  0.84495876177E+02  0.00000000000E+00 0.  1.
         23    2    1    2    0    0 -0.12549044587E+02 -0.19118081522E+02  0.53434031463E+01  0.96325651189E+02  0.93418946465E+02 0.  0.
         23    2    1    2    0    0  0.12549044587E+02  0.19118081522E+02  0.15041426311E+02  0.93050930624E+02  0.88933973392E+02 0.  0.
          5    1    3    3  502    0  0.34565853688E+02 -0.29971730125E+02  0.11371668030E+02  0.47376235410E+02  0.47000000000E+01 0. -1.
         -5    1    4    4    0  503 -0.15737007512E+02  0.37788422705E+02  0.34454807170E+02  0.53710725494E+02  0.47000000000E+01 0.  1.
          5    1    4    4  503    0  0.28286052099E+02 -0.18670341183E+02 -0.19413380859E+02  0.39340205129E+02  0.47000000000E+01 0. -1.
         -5    1    3    3    0  502 -0.47114898276E+02  0.10853648603E+02 -0.60282648835E+01  0.48949415778E+02  0.47000000000E+01 0.  1.
<mgrwt>
<rscale>  0 0.95070845E+02</rscale>
<asrwt>0</asrwt>
<pdfrwt beam="1">  1        1 0.16135493E-01 0.96177332E+02</pdfrwt>
<pdfrwt beam="2">  1       -1 0.12999365E-01 0.96177332E+02</pdfrwt>
<totfact> 0.12369506E+04</totfact>
</mgrwt>
</event>
<event>
 8    1  0.8438969E-004  0.1072726E+03  0.7546771E-02  0.1267041E+00
          1   -1    0    0  501    0  0.00000000000E+00  0.00000000000E+00  0.98443415589E+02  0.98443415589E+02  0.00000000000E+00 0. -1.
         -1   -1    0    0    0  501 -0.00000000000E+00 -0.00000000000E+00 -0.11975702248E+03  0.11975702248E+03  0.00000000000E+00 0.  1.
         23    2    1    2    0    0  0.34171892882E+02  0.45120340081E+02 -0.34884229033E+02  0.11280212756E+03  0.91125447571E+02 0.  0.
         23    2    1    2    0    0 -0.34171892882E+02 -0.45120340081E+02  0.13570622142E+02  0.10539831051E+03  0.87869668945E+02 0.  0.
          5    1    4    4  502    0 -0.44459511725E+02  0.59462044692E+01 -0.12717356718E+02  0.46859648871E+02  0.47000000000E+01 0. -1.
         -5    1    3    3    0  503  0.59349688171E+02  0.47110909672E+02 -0.41155343800E+02  0.86357834730E+02  0.47000000000E+01 0.  1.
          5    1    3    3  503    0 -0.25177795289E+02 -0.19905695905E+01  0.62711147663E+01  0.26444292831E+02  0.47000000000E+01 0. -1.
         -5    1    4    4    0  502  0.10287618843E+02 -0.51066544550E+02  0.26287978860E+02  0.58538661637E+02  0.47000000000E+01 0.  1.
<mgrwt>
<rscale>  0 0.10657798E+03</rscale>
<asrwt>0</asrwt>
<pdfrwt beam="1">  1        1 0.15145141E-01 0.10727260E+03</pdfrwt>
<pdfrwt beam="2">  1       -1 0.18424157E-01 0.10727260E+03</pdfrwt>
<totfact> 0.78644073E+03</totfact>
</mgrwt>
</event>
<event>
 8    1  0.8438969E-004  0.9074693E+02  0.7546771E-02  0.1301096E+00
          2   -1    0    0  501    0  0.00000000000E+00  0.00000000000E+00  0.16427565266E+03  0.16427565266E+03  0.00000000000E+00 0. -1.
         -2   -1    0    0    0  501 -0.00000000000E+00 -0.00000000000E+00 -0.14822391853E+03  0.14822391853E+03  0.00000000000E+00 0.  1.
         23    2    1    2    0    0  0.18517224303E+01  0.10052928426E+02 -0.11910962182E+03  0.14974013530E+03  0.90169373199E+02 0.  0.
         23    2    1    2    0    0 -0.18517224303E+01 -0.10052928426E+02  0.13516135594E+03  0.16275943589E+03  0.90097456044E+02 0.  0.
          5    1    4    4  502    0 -0.43420210135E+02  0.33975836952E+01  0.87992494761E+02  0.98293577396E+02  0.47000000000E+01 0. -1.
         -5    1    3    3    0  503  0.11578489968E+02  0.32977527326E+02 -0.11929359436E+03  0.12439706746E+03  0.47000000000E+01 0.  1.
          5    1    3    3  503    0 -0.97267675382E+01 -0.22924598899E+02  0.18397253738E+00  0.25343067836E+02  0.47000000000E+01 0. -1.
         -5    1    4    4    0  502  0.41568487705E+02 -0.13450512121E+02  0.47168861184E+02  0.64465858497E+02  0.47000000000E+01 0.  1.
<mgrwt>
<rscale>  0 0.90729064E+02</rscale>
<asrwt>0</asrwt>
<pdfrwt beam="1">  1        2 0.25273177E-01 0.90746934E+02</pdfrwt>
<pdfrwt beam="2">  1       -2 0.22803680E-01 0.90746934E+02</pdfrwt>
<totfact> 0.33411835E+03</totfact>
</mgrwt>
</event>
<event>
 8    1  0.8438969E-004  0.1002112E+03  0.7546771E-02  0.1281213E+00
         -2   -1    0    0    0  501 -0.00000000000E+00  0.00000000000E+00  0.22844808541E+02  0.22844808541E+02  0.00000000000E+00 0.  1.
          2   -1    0    0  501    0  0.00000000000E+00 -0.00000000000E+00 -0.61140698515E+03  0.61140698515E+03  0.00000000000E+00 0. -1.
         23    2    1    2    0    0 -0.24416216643E+02  0.19135199253E+02 -0.11814160859E+03  0.15327591472E+03  0.92594594166E+02 0.  0.
         23    2    1    2    0    0  0.24416216643E+02 -0.19135199253E+02 -0.47042056801E+03  0.48097587896E+03  0.95288917755E+02 0.  0.
          5    1    4    4  502    0  0.46483344950E+02 -0.24653225391E+02 -0.43754824034E+03  0.44072557845E+03  0.47000000000E+01 0. -1.
         -5    1    3    3    0  503 -0.37845235653E+02 -0.28082316457E+02 -0.68718890672E+02  0.83458099034E+02  0.47000000000E+01 0.  1.
          5    1    3    3  503    0  0.13429019010E+02  0.47217515710E+02 -0.49422717918E+02  0.69817815690E+02  0.47000000000E+01 0. -1.
         -5    1    4    4    0  502 -0.22067128307E+02  0.55180261388E+01 -0.32872327676E+02  0.40250300509E+02  0.47000000000E+01 0.  1.
<mgrwt>
<rscale>  0 0.99565383E+02</rscale>
<asrwt>0</asrwt>
<pdfrwt beam="1">  1        2 0.94062628E-01 0.10021120E+03</pdfrwt>
<pdfrwt beam="2">  1       -2 0.35145854E-02 0.10021120E+03</pdfrwt>
<totfact> 0.15246909E+04</totfact>
</mgrwt>
</event>
<event>
 8    1  0.8438969E-004  0.1107289E+03  0.7546771E-02  0.1260515E+00
          1   -1    0    0  501    0  0.00000000000E+00  0.00000000000E+00  0.19328095782E+03  0.19328095782E+03  0.00000000000E+00 0. -1.
         -1   -1    0    0    0  501 -0.00000000000E+00 -0.00000000000E+00 -0.82050971381E+02  0.82050971381E+02  0.00000000000E+00 0.  1.
         23    2    1    2    0    0 -0.43465809369E+02  0.33502072608E+02  0.12443661872E+03  0.16656936130E+03  0.96172837087E+02 0.  0.
         23    2    1    2    0    0  0.43465809369E+02 -0.33502072608E+02 -0.13206632282E+02  0.10876256790E+03  0.92968895800E+02 0.  0.
          5    1    4    4  502    0  0.49339784672E+02  0.19443551735E+02 -0.14806983876E+02  0.55261223539E+02  0.47000000000E+01 0. -1.
         -5    1    4    4    0  502 -0.58739753028E+01 -0.52945624343E+02  0.16003515940E+01  0.53501344358E+02  0.47000000000E+01 0.  1.
          5    1    3    3  503    0 -0.24125496064E+02  0.65547237701E+02  0.98289205148E+02  0.12067036827E+03  0.47000000000E+01 0. -1.
         -5    1    3    3    0  503 -0.19340313305E+02 -0.32045165094E+02  0.26147413573E+02  0.45898993030E+02  0.47000000000E+01 0.  1.
<mgrwt>
<rscale>  0 0.11002949E+03</rscale>
<asrwt>0</asrwt>
<pdfrwt beam="1">  1        1 0.29735532E-01 0.11072886E+03</pdfrwt>
<pdfrwt beam="2">  1       -1 0.12623226E-01 0.11072886E+03</pdfrwt>
<totfact> 0.60827205E+03</totfact>
</mgrwt>
</event>
<event>
 8    1  0.8438969E-004  0.1151113E+03  0.7546771E-02  0.1252137E+00
         -1   -1    0    0    0  501 -0.00000000000E+00  0.00000000000E+00  0.19075387340E+03  0.19075387340E+03  0.00000000000E+00 0.  1.
          1   -1    0    0  501    0  0.00000000000E+00 -0.00000000000E+00 -0.17626898319E+03  0.17626898319E+03  0.00000000000E+00 0. -1.
         23    2    1    2    0    0  0.68002757211E+02  0.15493240369E+02 -0.13626655761E+03  0.17837935270E+03  0.91576215585E+02 0.  0.
         23    2    1    2    0    0 -0.68002757211E+02 -0.15493240369E+02  0.15075144783E+03  0.18864350389E+03  0.89420115486E+02 0.  0.
          5    1    4    4  502    0 -0.34601807629E+02 -0.44684278936E+02  0.40434629652E+02  0.69649258074E+02  0.47000000000E+01 0. -1.
         -5    1    4    4    0  502 -0.33400949581E+02  0.29191038567E+02  0.11031681817E+03  0.11899424582E+03  0.47000000000E+01 0.  1.
          5    1    3    3  503    0 -0.34827835529E+01 -0.28523887517E+02 -0.21917716642E+02  0.36444728606E+02  0.47000000000E+01 0. -1.
         -5    1    3    3    0  503  0.71485540763E+02  0.44017127886E+02 -0.11434884097E+03  0.14193462410E+03  0.47000000000E+01 0.  1.
<mgrwt>
<rscale>  0 0.11468200E+03</rscale>
<asrwt>0</asrwt>
<pdfrwt beam="1">  1        1 0.27118305E-01 0.11511133E+03</pdfrwt>
<pdfrwt beam="2">  1       -1 0.29346750E-01 0.11511133E+03</pdfrwt>
<totfact> 0.17776580E+03</totfact>
</mgrwt>
</event>
<event>
 8    1  0.8438969E-004  0.1310618E+03  0.7546771E-02  0.1226116E+00
         -2   -1    0    0    0  501 -0.00000000000E+00  0.00000000000E+00  0.69586554974E+02  0.69586554974E+02  0.00000000000E+00 0. -1.
          2   -1    0    0  501    0  0.00000000000E+00 -0.00000000000E+00 -0.11287037470E+04  0.11287037470E+04  0.00000000000E+00 0.  1.
         23    2    1    2    0    0  0.88079083924E+02  0.26863709237E+02  0.65326142254E+00  0.13044639885E+03  0.92391841223E+02 0.  0.
         23    2    1    2    0    0 -0.88079083924E+02 -0.26863709237E+02 -0.10597704534E+04  0.10678439031E+04  0.93260943223E+02 0.  0.
          5    1    3    3  502    0  0.10632951295E+03  0.17425326850E+02  0.79471885151E+01  0.10814275355E+03  0.47000000000E+01 0. -1.
         -5    1    4    4    0  503 -0.10595178438E+03 -0.11322000646E+02 -0.88876287509E+03  0.89513993680E+03  0.47000000000E+01 0.  1.
          5    1    4    4  503    0  0.17872700458E+02 -0.15541708590E+02 -0.17100757834E+03  0.17270396631E+03  0.47000000000E+01 0. -1.
         -5    1    3    3    0  502 -0.18250429022E+02  0.94383823868E+01 -0.72939270926E+01  0.22303645307E+02  0.47000000000E+01 0.  1.
<mgrwt>
<rscale>  0 0.13090724E+03</rscale>
<asrwt>0</asrwt>
<pdfrwt beam="1">  1        2 0.17364671E+00 0.13106177E+03</pdfrwt>
<pdfrwt beam="2">  1       -2 0.10705625E-01 0.13106177E+03</pdfrwt>
<totfact> 0.13110311E+03</totfact>
</mgrwt>
</event>
<event>
 8    1  0.8438969E-004  0.9662673E+02  0.7546771E-02  0.1287634E+00
         -2   -1    0    0    0  501 -0.00000000000E+00  0.00000000000E+00  0.15266150167E+02  0.15266150167E+02  0.00000000000E+00 0.  1.
          2   -1    0    0  501    0  0.00000000000E+00 -0.00000000000E+00 -0.10633696561E+04  0.10633696561E+04  0.00000000000E+00 0. -1.
         23    2    1    2    0    0 -0.35937401636E-01 -0.32412013430E+02 -0.87616413114E+03  0.88147620997E+03  0.91028479808E+02 0.  0.
         23    2    1    2    0    0  0.35937401636E-01  0.32412013430E+02 -0.17193937477E+03  0.19715959628E+03  0.90874737423E+02 0.  0.
          5    1    4    4  502    0  0.30277241044E+02  0.49069215267E+02 -0.13222798259E+03  0.14432889035E+03  0.47000000000E+01 0. -1.
         -5    1    4    4    0  502 -0.30241303643E+02 -0.16657201838E+02 -0.39711392185E+02  0.52830705924E+02  0.47000000000E+01 0.  1.
          5    1    3    3  503    0  0.21182821915E+02  0.25951615843E+02 -0.26611866722E+03  0.26826001072E+03  0.47000000000E+01 0. -1.
         -5    1    3    3    0  503 -0.21218759316E+02 -0.58363629273E+02 -0.61004546392E+03  0.61321619925E+03  0.47000000000E+01 0.  1.
<mgrwt>
<rscale>  0 0.96590500E+02</rscale>
<asrwt>0</asrwt>
<pdfrwt beam="1">  1        2 0.16359536E+00 0.96626725E+02</pdfrwt>
<pdfrwt beam="2">  1       -2 0.23486381E-02 0.96626725E+02</pdfrwt>
<totfact> 0.13752924E+04</totfact>
</mgrwt>
</event>
<event>
 8    1  0.8438969E-004  0.9654079E+02  0.7546771E-02  0.1288140E+00
          2   -1    0    0  501    0  0.00000000000E+00  0.00000000000E+00  0.15046145466E+03  0.15046145466E+03  0.00000000000E+00 0. -1.
         -2   -1    0    0    0  501 -0.00000000000E+00 -0.00000000000E+00 -0.62400196945E+02  0.62400196945E+02  0.00000000000E+00 0.  1.
         23    2    1    2    0    0  0.30163404684E+02  0.10115517163E+02  0.30973158642E+02  0.10070472543E+03  0.90387778480E+02 0.  0.
         23    2    1    2    0    0 -0.30163404684E+02 -0.10115517163E+02  0.57088099071E+02  0.11215692617E+03  0.91148068345E+02 0.  0.
          5    1    4    4  502    0 -0.45403906438E+02  0.32781583112E+01  0.72854360182E+02  0.86035509177E+02  0.47000000000E+01 0. -1.
         -5    1    3    3    0  503  0.48538822565E+02 -0.25769009162E+02  0.15819879236E+02  0.57379593134E+02  0.47000000000E+01 0.  1.
          5    1    3    3  503    0 -0.18375417881E+02  0.35884526325E+02  0.15153279406E+02  0.43325132298E+02  0.47000000000E+01 0. -1.
         -5    1    4    4    0  502  0.15240501754E+02 -0.13393675474E+02 -0.15766261111E+02  0.26121416995E+02  0.47000000000E+01 0.  1.
<mgrwt>
<rscale>  0 0.96360919E+02</rscale>
<asrwt>0</asrwt>
<pdfrwt beam="1">  1        2 0.23147916E-01 0.96540795E+02</pdfrwt>
<pdfrwt beam="2">  1       -2 0.96000303E-02 0.96540795E+02</pdfrwt>
<totfact> 0.15024675E+04</totfact>
</mgrwt>
</event>
<event>
 8    1  0.8438969E-004  0.9205552E+02  0.7546771E-02  0.1298146E+00
         -2   -1    0    0    0  501 -0.00000000000E+00  0.00000000000E+00  0.35355318607E+02  0.35355318607E+02  0.00000000000E+00 0.  1.
          2   -1    0    0  501    0  0.00000000000E+00 -0.00000000000E+00 -0.31259818829E+03  0.31259818829E+03  0.00000000000E+00 0. -1.
         23    2    1    2    0    0  0.59248677388E+01  0.96292177284E+01 -0.54291680127E+02  0.10687284425E+03  0.91358592450E+02 0.  0.
         23    2    1    2    0    0 -0.59248677388E+01 -0.96292177284E+01 -0.22295118955E+03  0.24108066265E+03  0.91021025529E+02 0.  0.
          5    1    4    4  502    0  0.34923116942E+02 -0.22650515403E+02 -0.15530051818E+03  0.16085089646E+03  0.47000000000E+01 0. -1.
         -5    1    3    3    0  503 -0.14126241721E+02  0.44525343706E+02 -0.45564125206E+02  0.65423515979E+02  0.47000000000E+01 0.  1.
          5    1    3    3  503    0  0.20051109460E+02 -0.34896125978E+02 -0.87275549205E+01  0.41449328266E+02  0.47000000000E+01 0. -1.
         -5    1    4    4    0  502 -0.40847984681E+02  0.13021297675E+02 -0.67650671376E+02  0.80229766192E+02  0.47000000000E+01 0.  1.
<mgrwt>
<rscale>  0 0.91971653E+02</rscale>
<asrwt>0</asrwt>
<pdfrwt beam="1">  1        2 0.48092029E-01 0.92055518E+02</pdfrwt>
<pdfrwt beam="2">  1       -2 0.54392798E-02 0.92055518E+02</pdfrwt>
<totfact> 0.16277562E+04</totfact>
</mgrwt>
</event>
<event>
 8    1  0.8438969E-004  0.1019979E+03  0.7546771E-02  0.1277136E+00
         -1   -1    0    0    0  501 -0.00000000000E+00  0.00000000000E+00  0.63352946759E+03  0.63352946759E+03  0.00000000000E+00 0.  1.
          1   -1    0    0  501    0  0.00000000000E+00 -0.00000000000E+00 -0.10654372592E+03  0.10654372592E+03  0.00000000000E+00 0. -1.
         23    2    1    2    0    0 -0.22305509524E+02  0.38732405406E+02  0.60477021653E+03  0.61331117017E+03  0.91683377299E+02 0.  0.
         23    2    1    2    0    0  0.22305509524E+02 -0.38732405406E+02 -0.77784474860E+02  0.12676202334E+03  0.89556970971E+02 0.  0.
          5    1    4    4  502    0 -0.30437813441E+02 -0.35312495148E+01 -0.46528718165E+02  0.55910122736E+02  0.47000000000E+01 0. -1.
         -5    1    4    4    0  502  0.52743322964E+02 -0.35201155891E+02 -0.31255756694E+02  0.70851900609E+02  0.47000000000E+01 0.  1.
          5    1    3    3  503    0  0.35174774167E+02  0.14963400197E+02  0.18860242776E+03  0.19249450340E+03  0.47000000000E+01 0. -1.
         -5    1    3    3    0  503 -0.57480283691E+02  0.23769005209E+02  0.41616778876E+03  0.42081666676E+03  0.47000000000E+01 0.  1.
<mgrwt>
<rscale>  0 0.10151779E+03</rscale>
<asrwt>0</asrwt>
<pdfrwt beam="1">  1        1 0.16391343E-01 0.10199792E+03</pdfrwt>
<pdfrwt beam="2">  1       -1 0.97466070E-01 0.10199792E+03</pdfrwt>
<totfact> 0.35633067E+02</totfact>
</mgrwt>
</event>
<event>
 8    1  0.8438969E-004  0.1459700E+03  0.7546771E-02  0.1207086E+00
         -1   -1    0    0    0  501 -0.00000000000E+00  0.00000000000E+00  0.15474888427E+03  0.15474888427E+03  0.00000000000E+00 0.  1.
          1   -1    0    0  501    0  0.00000000000E+00 -0.00000000000E+00 -0.14205753317E+03  0.14205753317E+03  0.00000000000E+00 0. -1.
         23    2    1    2    0    0 -0.11328610906E+03  0.18099986952E+02 -0.30701419594E+02  0.14916368339E+03  0.90254502619E+02 0.  0.
         23    2    1    2    0    0  0.11328610906E+03 -0.18099986952E+02  0.43392770695E+02  0.14764273406E+03  0.82183285018E+02 0.  0.
          5    1    3    3  502    0 -0.11917505435E+03 -0.53275992796E+01 -0.34479802937E+02  0.12426593944E+03  0.47000000000E+01 0. -1.
         -5    1    4    4    0  503  0.80712727887E+02  0.74702813221E+01  0.61843920292E+02  0.10206424459E+03  0.47000000000E+01 0.  1.
          5    1    4    4  503    0  0.32573381176E+02 -0.25570268274E+02 -0.18451149596E+02  0.45578489469E+02  0.47000000000E+01 0. -1.
         -5    1    3    3    0  502  0.58889452880E+01  0.23427586232E+02  0.37783833422E+01  0.24897743952E+02  0.47000000000E+01 0.  1.
<mgrwt>
<rscale>  0 0.14474259E+03</rscale>
<asrwt>0</asrwt>
<pdfrwt beam="1">  1        1 0.21855005E-01 0.14596995E+03</pdfrwt>
<pdfrwt beam="2">  1       -1 0.23807521E-01 0.14596995E+03</pdfrwt>
<totfact> 0.33270641E+03</totfact>
</mgrwt>
</event>
<event>
 8    1  0.8438969E-004  0.1168089E+03  0.7546771E-02  0.1253917E+00
         -1   -1    0    0    0  501 -0.00000000000E+00  0.00000000000E+00  0.35004102386E+02  0.35004102386E+02  0.00000000000E+00 0.  1.
          1   -1    0    0  501    0  0.00000000000E+00 -0.00000000000E+00 -0.50410230816E+03  0.50410230816E+03  0.00000000000E+00 0. -1.
         23    2    1    2    0    0  0.47497050306E+02 -0.24891573329E+02 -0.94837907523E+02  0.15046114891E+03  0.10377267664E+03 0.  0.
         23    2    1    2    0    0 -0.47497050306E+02  0.24891573329E+02 -0.37426029825E+03  0.38864526164E+03  0.89993379396E+02 0.  0.
          5    1    3    3  502    0 -0.10920340466E+02 -0.34392392761E+02 -0.82008694897E+02  0.89719599611E+02  0.47000000000E+01 0. -1.
         -5    1    3    3    0  502  0.58417390772E+02  0.95008194325E+01 -0.12829212626E+02  0.60741549298E+02  0.47000000000E+01 0.  1.
          5    1    4    4  503    0 -0.68165071438E+02 -0.44716015024E+01 -0.25154717442E+03  0.26070010193E+03  0.47000000000E+01 0. -1.
         -5    1    4    4    0  503  0.20668021132E+02  0.29363174831E+02 -0.12271312383E+03  0.12794515971E+03  0.47000000000E+01 0.  1.
<mgrwt>
<rscale>  0 0.11367226E+03</rscale>
<asrwt>0</asrwt>
<pdfrwt beam="1">  1        1 0.77554192E-01 0.11680894E+03</pdfrwt>
<pdfrwt beam="2">  1       -1 0.53852471E-02 0.11680894E+03</pdfrwt>
<totfact> 0.66786676E+03</totfact>
</mgrwt>
</event>
<event>
 8    1  0.8438969E-004  0.1097399E+03  0.7546771E-02  0.1261228E+00
          2   -1    0    0  501    0  0.00000000000E+00  0.00000000000E+00  0.38360845657E+03  0.38360845657E+03  0.00000000000E+00 0. -1.
         -2   -1    0    0    0  501 -0.00000000000E+00 -0.00000000000E+00 -0.75230664992E+02  0.75230664992E+02  0.00000000000E+00 0.  1.
         23    2    1    2    0    0  0.38742838962E+02  0.46312151059E+02 -0.21264617985E+02  0.11141005712E+03  0.91182201901E+02 0.  0.
         23    2    1    2    0    0 -0.38742838962E+02 -0.46312151059E+02  0.32964240956E+03  0.34742906443E+03  0.91635220998E+02 0.  0.
          5    1    4    4  502    0 -0.82438942004E+01 -0.53823121792E+02  0.29661756877E+03  0.30161061376E+03  0.47000000000E+01 0. -1.
         -5    1    4    4    0  502 -0.30498944761E+02  0.75109707332E+01  0.33024840791E+02  0.45818450674E+02  0.47000000000E+01 0.  1.
          5    1    3    3  503    0 -0.24086574973E+02  0.10000680690E+02 -0.27787954661E+02  0.38398400128E+02  0.47000000000E+01 0. -1.
         -5    1    3    3    0  503  0.62829413934E+02  0.36311470369E+02  0.65233366765E+01  0.73011656995E+02  0.47000000000E+01 0.  1.
<mgrwt>
<rscale>  0 0.10964524E+03</rscale>
<asrwt>0</asrwt>
<pdfrwt beam="1">  1        2 0.59016685E-01 0.10973986E+03</pdfrwt>
<pdfrwt beam="2">  1       -2 0.11573949E-01 0.10973986E+03</pdfrwt>
<totfact> 0.41789361E+03</totfact>
</mgrwt>
</event>
<event>
 8    1  0.8438969E-004  0.1115234E+03  0.7546771E-02  0.1257860E+00
         -1   -1    0    0    0  501 -0.00000000000E+00  0.00000000000E+00  0.12717276712E+03  0.12717276712E+03  0.00000000000E+00 0.  1.
          1   -1    0    0  501    0  0.00000000000E+00 -0.00000000000E+00 -0.11923295533E+03  0.11923295533E+03  0.00000000000E+00 0. -1.
         23    2    1    2    0    0 -0.14803210776E+01  0.66498713063E+02  0.56402726735E+02  0.12480755614E+03  0.89282631549E+02 0.  0.
         23    2    1    2    0    0  0.14803210776E+01 -0.66498713063E+02 -0.48462914939E+02  0.12159816631E+03  0.89516421599E+02 0.  0.
          5    1    4    4  502    0  0.19671401725E+02 -0.24584909799E+02 -0.65324437314E+02  0.72668796234E+02  0.47000000000E+01 0. -1.
         -5    1    3    3    0  503  0.11827703590E+02  0.83819131073E+02  0.57497397479E+02  0.10243818635E+03  0.47000000000E+01 0.  1.
          5    1    3    3  503    0 -0.13308024667E+02 -0.17320418010E+02 -0.10946707441E+01  0.22369369786E+02  0.47000000000E+01 0. -1.
         -5    1    4    4    0  502 -0.18191080647E+02 -0.41913803264E+02  0.16861522375E+02  0.48929370076E+02  0.47000000000E+01 0.  1.
<mgrwt>
<rscale>  0 0.11147644E+03</rscale>
<asrwt>0</asrwt>
<pdfrwt beam="1">  1        1 0.18343531E-01 0.11152336E+03</pdfrwt>
<pdfrwt beam="2">  1       -1 0.19565041E-01 0.11152336E+03</pdfrwt>
<totfact> 0.56129997E+03</totfact>
</mgrwt>
</event>
<event>
 8    1  0.8438969E-004  0.9260613E+02  0.7546771E-02  0.1296830E+00
          1   -1    0    0  501    0  0.00000000000E+00  0.00000000000E+00  0.16497362316E+03  0.16497362316E+03  0.00000000000E+00 0. -1.
         -1   -1    0    0    0  501 -0.00000000000E+00 -0.00000000000E+00 -0.53311455114E+02  0.53311455114E+02  0.00000000000E+00 0.  1.
         23    2    1    2    0    0  0.50160685002E+01 -0.16530316557E+02  0.74171083917E+02  0.11864756275E+03  0.90980669092E+02 0.  0.
         23    2    1    2    0    0 -0.50160685002E+01  0.16530316557E+02  0.37491084126E+02  0.99637515521E+02  0.90684291923E+02 0.  0.
          5    1    3    3  502    0  0.46490144494E+02 -0.13819701909E+02  0.27406731014E+02  0.55906498735E+02  0.47000000000E+01 0. -1.
         -5    1    3    3    0  502 -0.41474075994E+02 -0.27106146479E+01  0.46764352903E+02  0.62741064015E+02  0.47000000000E+01 0.  1.
          5    1    4    4  503    0  0.29549484660E+02  0.40034249540E+02  0.16541943163E+02  0.52646358502E+02  0.47000000000E+01 0. -1.
         -5    1    4    4    0  503 -0.34565553160E+02 -0.23503932983E+02  0.20949140963E+02  0.46991157020E+02  0.47000000000E+01 0.  1.
<mgrwt>
<rscale>  0 0.92533250E+02</rscale>
<asrwt>0</asrwt>
<pdfrwt beam="1">  1        1 0.25380557E-01 0.92606125E+02</pdfrwt>
<pdfrwt beam="2">  1       -1 0.82017623E-02 0.92606125E+02</pdfrwt>
<totfact> 0.14013134E+04</totfact>
</mgrwt>
</event>
<event>
 8    1  0.8438969E-004  0.1226874E+03  0.7546771E-02  0.1239844E+00
         -2   -1    0    0    0  501 -0.00000000000E+00  0.00000000000E+00  0.72101293679E+02  0.72101293679E+02  0.00000000000E+00 0.  1.
          2   -1    0    0  501    0  0.00000000000E+00 -0.00000000000E+00 -0.22908933881E+03  0.22908933881E+03  0.00000000000E+00 0. -1.
         23    2    1    2    0    0  0.54823206391E+01  0.78142114968E+02 -0.27975232217E+02  0.12315554390E+03  0.90820858864E+02 0.  0.
         23    2    1    2    0    0 -0.54823206391E+01 -0.78142114968E+02 -0.12901281291E+03  0.17803508858E+03  0.94424260130E+02 0.  0.
          5    1    4    4  502    0 -0.27509259462E+02 -0.61815636937E+01 -0.87306275291E+02  0.91866461732E+02  0.47000000000E+01 0. -1.
         -5    1    4    4    0  502  0.22026938823E+02 -0.71960551274E+02 -0.41706537619E+02  0.86168626853E+02  0.47000000000E+01 0.  1.
          5    1    3    3  503    0 -0.40219202474E+02  0.20908297582E+02 -0.31606862281E+01  0.45681736973E+02  0.47000000000E+01 0. -1.
         -5    1    3    3    0  503  0.45701523113E+02  0.57233817385E+02 -0.24814545989E+02  0.77473806928E+02  0.47000000000E+01 0.  1.
<mgrwt>
<rscale>  0 0.12199369E+03</rscale>
<asrwt>0</asrwt>
<pdfrwt beam="1">  1        2 0.35244513E-01 0.12268735E+03</pdfrwt>
<pdfrwt beam="2">  1       -2 0.11092507E-01 0.12268735E+03</pdfrwt>
<totfact> 0.77621819E+03</totfact>
</mgrwt>
</event>
<event>
 8    1  0.8438969E-004  0.2030004E+03  0.7546771E-02  0.1147452E+00
          1   -1    0    0  501    0  0.00000000000E+00  0.00000000000E+00  0.32174771698E+03  0.32174771698E+03  0.00000000000E+00 0. -1.
         -1   -1    0    0    0  501 -0.00000000000E+00 -0.00000000000E+00 -0.18828485603E+03  0.18828485603E+03  0.00000000000E+00 0.  1.
         23    2    1    2    0    0 -0.55307643608E+02  0.17186834809E+03 -0.78388824337E+02  0.21662105452E+03  0.90455563481E+02 0.  0.
         23    2    1    2    0    0  0.55307643608E+02 -0.17186834809E+03  0.21185168529E+03  0.29341151849E+03  0.92798265614E+02 0.  0.
          5    1    3    3  502    0 -0.16079907867E+01  0.41485314027E+02 -0.61749122401E+02  0.74556428506E+02  0.47000000000E+01 0. -1.
         -5    1    4    4    0  503  0.32998887813E+02 -0.43731887260E+02  0.12605981129E+03  0.13753025334E+03  0.47000000000E+01 0.  1.
          5    1    4    4  503    0  0.22308755795E+02 -0.12813646083E+03  0.85791874004E+02  0.15588126515E+03  0.47000000000E+01 0. -1.
         -5    1    3    3    0  502 -0.53699652821E+02  0.13038303406E+03 -0.16639701937E+02  0.14206462602E+03  0.47000000000E+01 0.  1.
<mgrwt>
<rscale>  0 0.20273488E+03</rscale>
<asrwt>0</asrwt>
<pdfrwt beam="1">  1        1 0.49499649E-01 0.20300045E+03</pdfrwt>
<pdfrwt beam="2">  1       -1 0.28966901E-01 0.20300045E+03</pdfrwt>
<totfact> 0.87012655E+02</totfact>
</mgrwt>
</event>
<event>
 8    1  0.8438969E-004  0.9473942E+02  0.7546771E-02  0.1292888E+00
         -1   -1    0    0    0  501 -0.00000000000E+00  0.00000000000E+00  0.64284855822E+02  0.64284855822E+02  0.00000000000E+00 0.  1.
          1   -1    0    0  501    0  0.00000000000E+00 -0.00000000000E+00 -0.13712390251E+03  0.13712390251E+03  0.00000000000E+00 0. -1.
         23    2    1    2    0    0 -0.31333514251E+01 -0.22606209467E+02 -0.42144810837E+02  0.10369061056E+03  0.91949437407E+02 0.  0.
         23    2    1    2    0    0  0.31333514251E+01  0.22606209467E+02 -0.30694235855E+02  0.97718147780E+02  0.89921308338E+02 0.  0.
          5    1    4    4  502    0 -0.37984161417E+02 -0.92842580775E+01 -0.20812786052E+02  0.44544988830E+02  0.47000000000E+01 0. -1.
         -5    1    3    3    0  503  0.25534115954E+02  0.99025730671E+01  0.15185674005E+02  0.31666176370E+02  0.47000000000E+01 0.  1.
          5    1    3    3  503    0 -0.28667467379E+02 -0.32508782534E+02 -0.57330484842E+02  0.72024434187E+02  0.47000000000E+01 0. -1.
         -5    1    4    4    0  502  0.41117512842E+02  0.31890467544E+02 -0.98814498032E+01  0.53173158950E+02  0.47000000000E+01 0.  1.
<mgrwt>
<rscale>  0 0.94243764E+02</rscale>
<asrwt>0</asrwt>
<pdfrwt beam="1">  1        1 0.21095985E-01 0.94739420E+02</pdfrwt>
<pdfrwt beam="2">  1       -1 0.98899779E-02 0.94739420E+02</pdfrwt>
<totfact> 0.13348051E+04</totfact>
</mgrwt>
</event>
<event>
 8    1  0.8438969E-004  0.1036670E+03  0.7546771E-02  0.1272821E+00
          3   -1    0    0  501    0  0.00000000000E+00  0.00000000000E+00  0.72354323966E+03  0.72354323966E+03  0.00000000000E+00 0. -1.
         -3   -1    0    0    0  501 -0.00000000000E+00 -0.00000000000E+00 -0.14885093701E+02  0.14885093701E+02  0.00000000000E+00 0.  1.
         23    2    1    2    0    0 -0.46998130972E+02 -0.75412352429E+01  0.33337556663E+03  0.34909062349E+03  0.91974455358E+02 0.  0.
         23    2    1    2    0    0  0.46998130972E+02  0.75412352429E+01  0.37528257933E+03  0.38933770987E+03  0.92093123720E+02 0.  0.
          5    1    4    4  502    0  0.18250133993E+02 -0.32392125012E+02  0.27493024466E+03  0.27747260510E+03  0.47000000000E+01 0. -1.
         -5    1    4    4    0  502  0.28747996978E+02  0.39933360255E+02  0.10035233467E+03  0.11186510477E+03  0.47000000000E+01 0.  1.
          5    1    3    3  503    0 -0.35725756804E+02  0.30420255800E+02  0.82176053040E+02  0.94745529475E+02  0.47000000000E+01 0. -1.
         -5    1    3    3    0  503 -0.11272374168E+02 -0.37961491043E+02  0.25119951359E+03  0.25434509401E+03  0.47000000000E+01 0.  1.
<mgrwt>
<rscale>  0 0.10364060E+03</rscale>
<asrwt>0</asrwt>
<pdfrwt beam="1">  1        3 0.11131432E+00 0.10366696E+03</pdfrwt>
<pdfrwt beam="2">  1       -3 0.22900150E-02 0.10366696E+03</pdfrwt>
<totfact> 0.12059631E+03</totfact>
</mgrwt>
</event>
<event>
 8    1  0.8438969E-004  0.9118368E+02  0.7546771E-02  0.1300569E+00
         -1   -1    0    0    0  501 -0.00000000000E+00  0.00000000000E+00  0.22565748200E+02  0.22565748200E+02  0.00000000000E+00 0.  1.
          1   -1    0    0  501    0  0.00000000000E+00 -0.00000000000E+00 -0.42631205508E+03  0.42631205508E+03  0.00000000000E+00 0. -1.
         23    2    1    2    0    0  0.96529362366E+01  0.12926961048E+02 -0.11743401013E+03  0.14867821181E+03  0.89745074693E+02 0.  0.
         23    2    1    2    0    0 -0.96529362366E+01 -0.12926961048E+02 -0.28631229675E+03  0.30019959147E+03  0.88796272157E+02 0.  0.
          5    1    4    4  502    0 -0.29675181816E+02 -0.22383236988E+02 -0.26927285411E+03  0.27186685284E+03  0.47000000000E+01 0. -1.
         -5    1    3    3    0  503  0.41573096572E+02 -0.18412198918E+02 -0.66914759920E+02  0.81037068819E+02  0.47000000000E+01 0.  1.
          5    1    3    3  503    0 -0.31920160336E+02  0.31339159966E+02 -0.50519250213E+02  0.67641142992E+02  0.47000000000E+01 0. -1.
         -5    1    4    4    0  502  0.20022245580E+02  0.94562759400E+01 -0.17039442640E+02  0.28332738629E+02  0.47000000000E+01 0.  1.
<mgrwt>
<rscale>  0 0.90949361E+02</rscale>
<asrwt>0</asrwt>
<pdfrwt beam="1">  1        1 0.65586465E-01 0.91183682E+02</pdfrwt>
<pdfrwt beam="2">  1       -1 0.34716538E-02 0.91183682E+02</pdfrwt>
<totfact> 0.15402939E+04</totfact>
</mgrwt>
</event>
<event>
 8    1  0.9920662E-004  0.1073975E+03  0.7546771E-02  0.1265610E+00
         -1   -1    0    0    0  501 -0.00000000000E+00  0.00000000000E+00  0.20026743234E+03  0.20026743234E+03  0.00000000000E+00 0.  1.
          1   -1    0    0  501    0  0.00000000000E+00 -0.00000000000E+00 -0.16660617575E+03  0.16660617575E+03  0.00000000000E+00 0. -1.
         23    2    1    2    0    0  0.48901104276E+02  0.27253279641E+02 -0.13165119003E+03  0.16990071643E+03  0.91652377798E+02 0.  0.
         23    2    1    2    0    0 -0.48901104276E+02 -0.27253279641E+02  0.16531244662E+03  0.19697289166E+03  0.91302003225E+02 0.  0.
          5    1    3    3  502    0  0.35187964881E+02  0.54036386180E+02 -0.46984722033E+02  0.79923576049E+02  0.47000000000E+01 0. -1.
         -5    1    3    3    0  502  0.13713139395E+02 -0.26783106539E+02 -0.84666467994E+02  0.89977140378E+02  0.47000000000E+01 0.  1.
          5    1    4    4  503    0 -0.23792992235E+02  0.23218890990E+02  0.15781093035E+02  0.37099275945E+02  0.47000000000E+01 0. -1.
         -5    1    4    4    0  503 -0.25108112041E+02 -0.50472170631E+02  0.14953135358E+03  0.15987361572E+03  0.47000000000E+01 0.  1.
<mgrwt>
<rscale>  0 0.10732268E+03</rscale>
<asrwt>0</asrwt>
<pdfrwt beam="1">  1        1 0.25631719E-01 0.10739747E+03</pdfrwt>
<pdfrwt beam="2">  1       -1 0.30810374E-01 0.10739747E+03</pdfrwt>
<totfact> 0.17532112E+03</totfact>
</mgrwt>
</event>
<event>
 8    1  0.8438969E-004  0.1210591E+03  0.7546771E-02  0.1241926E+00
          1   -1    0    0  501    0  0.00000000000E+00  0.00000000000E+00  0.58732881367E+03  0.58732881367E+03  0.00000000000E+00 0. -1.
         -1   -1    0    0    0  501 -0.00000000000E+00 -0.00000000000E+00 -0.24999307460E+02  0.24999307460E+02  0.00000000000E+00 0.  1.
         23    2    1    2    0    0 -0.16775708620E+02 -0.80259400357E+02  0.24756265996E+03  0.27557679147E+03  0.89063469744E+02 0.  0.
         23    2    1    2    0    0  0.16775708620E+02  0.80259400357E+02  0.31476684624E+03  0.33675132966E+03  0.87179669571E+02 0.  0.
          5    1    4    4  502    0  0.31751365161E+02 -0.53264095374E+01  0.92821742945E+02  0.98358963961E+02  0.47000000000E+01 0. -1.
         -5    1    3    3    0  503 -0.50731512191E+02 -0.65439665590E+02  0.18455043551E+03  0.20232891392E+03  0.47000000000E+01 0.  1.
          5    1    3    3  503    0  0.33955803571E+02 -0.14819734767E+02  0.63012224457E+02  0.73247877551E+02  0.47000000000E+01 0. -1.
         -5    1    4    4    0  502 -0.14975656541E+02  0.85585809894E+02  0.22194510330E+03  0.23839236569E+03  0.47000000000E+01 0.  1.
<mgrwt>
<rscale>  0 0.12071280E+03</rscale>
<asrwt>0</asrwt>
<pdfrwt beam="1">  1        1 0.90358268E-01 0.12105907E+03</pdfrwt>
<pdfrwt beam="2">  1       -1 0.38460478E-02 0.12105907E+03</pdfrwt>
<totfact> 0.89701567E+03</totfact>
</mgrwt>
</event>
<event>
 8    1  0.8438969E-004  0.1039171E+03  0.7546771E-02  0.1276404E+00
         -1   -1    0    0    0  501 -0.00000000000E+00  0.00000000000E+00  0.48232782711E+02  0.48232782711E+02  0.00000000000E+00 0.  1.
          1   -1    0    0  501    0  0.00000000000E+00 -0.00000000000E+00 -0.70321866782E+03  0.70321866782E+03  0.00000000000E+00 0. -1.
         23    2    1    2    0    0 -0.14167061384E+01  0.27589483865E+02 -0.81576995478E+01  0.96328972582E+02  0.91921358892E+02 0.  0.
         23    2    1    2    0    0  0.14167061384E+01 -0.27589483865E+02 -0.64682818557E+03  0.65512247795E+03  0.10017770611E+03 0.  0.
          5    1    3    3  502    0 -0.21497041737E+02 -0.20598815423E+02 -0.27161684452E+02  0.40574389737E+02  0.47000000000E+01 0. -1.
         -5    1    3    3    0  502  0.20080335598E+02  0.48188299288E+02  0.19003984904E+02  0.55754582845E+02  0.47000000000E+01 0.  1.
          5    1    4    4  503    0 -0.46754151292E+02 -0.16100142285E+02 -0.41855578866E+03  0.42149282730E+03  0.47000000000E+01 0. -1.
         -5    1    4    4    0  503  0.48170857430E+02 -0.11489341580E+02 -0.22827239690E+03  0.23362965065E+03  0.47000000000E+01 0.  1.
<mgrwt>
<rscale>  0 0.10187408E+03</rscale>
<asrwt>0</asrwt>
<pdfrwt beam="1">  1        1 0.10818748E+00 0.10391708E+03</pdfrwt>
<pdfrwt beam="2">  1       -1 0.74204286E-02 0.10391708E+03</pdfrwt>
<totfact> 0.26312434E+03</totfact>
</mgrwt>
</event>
<event>
 8    1  0.8438969E-004  0.9589109E+02  0.7546771E-02  0.1289462E+00
          1   -1    0    0  501    0  0.00000000000E+00  0.00000000000E+00  0.94529553106E+02  0.94529553106E+02  0.00000000000E+00 0. -1.
         -1   -1    0    0    0  501 -0.00000000000E+00 -0.00000000000E+00 -0.12234643857E+03  0.12234643857E+03  0.00000000000E+00 0.  1.
         23    2    1    2    0    0 -0.23954439039E+02  0.13437480750E+02  0.35650023095E+02  0.10230359501E+03  0.91873393137E+02 0.  0.
         23    2    1    2    0    0  0.23954439039E+02 -0.13437480750E+02 -0.63466908562E+02  0.11457239667E+03  0.91347712385E+02 0.  0.
          5    1    3    3  502    0 -0.35931349164E+02 -0.19708016137E+02  0.49244325574E+02  0.64238316868E+02  0.47000000000E+01 0. -1.
         -5    1    4    4    0  503  0.32488963783E+02  0.11265032294E+02 -0.77225037636E+02  0.84665401187E+02  0.47000000000E+01 0.  1.
          5    1    4    4  503    0 -0.85345247445E+01 -0.24702513044E+02  0.13758129073E+02  0.29906995484E+02  0.47000000000E+01 0. -1.
         -5    1    3    3    0  502  0.11976910125E+02  0.33145496887E+02 -0.13594302479E+02  0.38065278141E+02  0.47000000000E+01 0.  1.
<mgrwt>
<rscale>  0 0.95764959E+02</rscale>
<asrwt>0</asrwt>
<pdfrwt beam="1">  1        1 0.14543008E-01 0.95891091E+02</pdfrwt>
<pdfrwt beam="2">  1       -1 0.18822529E-01 0.95891091E+02</pdfrwt>
<totfact> 0.79336152E+03</totfact>
</mgrwt>
</event>
<event>
 8    1  0.8438969E-004  0.1012833E+03  0.7546771E-02  0.1278529E+00
         -1   -1    0    0    0  501 -0.00000000000E+00  0.00000000000E+00  0.23804282141E+02  0.23804282141E+02  0.00000000000E+00 0.  1.
          1   -1    0    0  501    0  0.00000000000E+00 -0.00000000000E+00 -0.42882255052E+03  0.42882255052E+03  0.00000000000E+00 0. -1.
         23    2    1    2    0    0 -0.27357370372E+02  0.29577015468E+02 -0.17919220927E+03  0.20583528496E+03  0.92925190950E+02 0.  0.
         23    2    1    2    0    0  0.27357370372E+02 -0.29577015468E+02 -0.22582605911E+03  0.24679154771E+03  0.91024356561E+02 0.  0.
          5    1    3    3  502    0 -0.44985563303E+02 -0.15357814442E+02 -0.12097848318E+03  0.13006708563E+03  0.47000000000E+01 0. -1.
         -5    1    4    4    0  503  0.60273642277E+00 -0.40495020816E+02 -0.35002441744E+02  0.53735192659E+02  0.47000000000E+01 0.  1.
          5    1    4    4  503    0  0.26754633949E+02  0.10918005348E+02 -0.19082361737E+03  0.19305635505E+03  0.47000000000E+01 0. -1.
         -5    1    3    3    0  502  0.17628192932E+02  0.44934829910E+02 -0.58213726089E+02  0.75768199333E+02  0.47000000000E+01 0.  1.
<mgrwt>
<rscale>  0 0.10084524E+03</rscale>
<asrwt>0</asrwt>
<pdfrwt beam="1">  1        1 0.65972696E-01 0.10128335E+03</pdfrwt>
<pdfrwt beam="2">  1       -1 0.36621975E-02 0.10128335E+03</pdfrwt>
<totfact> 0.14287806E+04</totfact>
</mgrwt>
</event>
<event>
 8    1  0.8438969E-004  0.1106851E+03  0.7546771E-02  0.1259397E+00
         -1   -1    0    0    0  501 -0.00000000000E+00  0.00000000000E+00  0.75918012030E+02  0.75918012030E+02  0.00000000000E+00 0.  1.
          1   -1    0    0  501    0  0.00000000000E+00 -0.00000000000E+00 -0.18564068704E+03  0.18564068704E+03  0.00000000000E+00 0. -1.
         23    2    1    2    0    0  0.51170543177E+02 -0.38434994626E+02 -0.72566975361E+01  0.11072613869E+03  0.90066335718E+02 0.  0.
         23    2    1    2    0    0 -0.51170543177E+02  0.38434994626E+02 -0.10246597748E+03  0.15083256038E+03  0.90307870254E+02 0.  0.
          5    1    3    3  502    0  0.20206141761E+02  0.31625716508E+01 -0.42809683279E+02  0.47676503718E+02  0.47000000000E+01 0. -1.
         -5    1    3    3    0  502  0.30964401417E+02 -0.41597566277E+02  0.35552985743E+02  0.63049634975E+02  0.47000000000E+01 0.  1.
          5    1    4    4  503    0 -0.67654396699E+02  0.51525179719E+02 -0.63288199060E+02  0.10611054461E+03  0.47000000000E+01 0. -1.
         -5    1    4    4    0  503  0.16483853522E+02 -0.13090185093E+02 -0.39177778415E+02  0.44722015767E+02  0.47000000000E+01 0.  1.
<mgrwt>
<rscale>  0 0.11063579E+03</rscale>
<asrwt>0</asrwt>
<pdfrwt beam="1">  1        1 0.28560106E-01 0.11068507E+03</pdfrwt>
<pdfrwt beam="2">  1       -1 0.11679694E-01 0.11068507E+03</pdfrwt>
<totfact> 0.72040035E+03</totfact>
</mgrwt>
</event>
<event>
 8    1  0.8438969E-004  0.1064135E+03  0.7546771E-02  0.1267414E+00
         -2   -1    0    0    0  501 -0.00000000000E+00  0.00000000000E+00  0.29948757752E+02  0.29948757752E+02  0.00000000000E+00 0.  1.
          2   -1    0    0  501    0  0.00000000000E+00 -0.00000000000E+00 -0.39134225072E+03  0.39134225072E+03  0.00000000000E+00 0. -1.
         23    2    1    2    0    0  0.19504390623E+02  0.49904212434E+02 -0.21992558251E+03  0.24426839010E+03  0.91809220069E+02 0.  0.
         23    2    1    2    0    0 -0.19504390623E+02 -0.49904212434E+02 -0.14146791046E+03  0.17702261837E+03  0.91940122102E+02 0.  0.
          5    1    4    4  502    0  0.16729203631E+02  0.20364368690E+02 -0.29008263340E+02  0.39473321475E+02  0.47000000000E+01 0. -1.
         -5    1    3    3    0  503  0.14811098618E+02 -0.21944021911E+02 -0.26202935482E+02  0.37544541118E+02  0.47000000000E+01 0.  1.
          5    1    3    3  503    0  0.46932920047E+01  0.71848234345E+02 -0.19372264703E+03  0.20672384898E+03  0.47000000000E+01 0. -1.
         -5    1    4    4    0  502 -0.36233594254E+02 -0.70268581124E+02 -0.11245964712E+03  0.13754929689E+03  0.47000000000E+01 0.  1.
<mgrwt>
<rscale>  0 0.10638524E+03</rscale>
<asrwt>0</asrwt>
<pdfrwt beam="1">  1        2 0.60206498E-01 0.10641352E+03</pdfrwt>
<pdfrwt beam="2">  1       -2 0.46075014E-02 0.10641352E+03</pdfrwt>
<totfact> 0.16687925E+04</totfact>
</mgrwt>
</event>
<event>
 8    1  0.8438969E-004  0.1066128E+03  0.7546771E-02  0.1268276E+00
         -2   -1    0    0    0  501 -0.00000000000E+00  0.00000000000E+00  0.97067848832E+02  0.97067848832E+02  0.00000000000E+00 0.  1.
          2   -1    0    0  501    0  0.00000000000E+00 -0.00000000000E+00 -0.11544198843E+03  0.11544198843E+03  0.00000000000E+00 0. -1.
         23    2    1    2    0    0 -0.38114345047E+02 -0.37019121907E+02  0.19815452108E+01  0.10397118812E+03  0.89347427229E+02 0.  0.
         23    2    1    2    0    0  0.38114345047E+02  0.37019121907E+02 -0.20355684808E+02  0.10853864914E+03  0.92429247363E+02 0.  0.
          5    1    4    4  502    0 -0.55177050921E+01  0.52440095350E+02  0.87659578497E+01  0.53659488320E+02  0.47000000000E+01 0. -1.
         -5    1    3    3    0  503 -0.15393864345E+02 -0.51970701346E+02  0.32058399514E+02  0.63148680408E+02  0.47000000000E+01 0.  1.
          5    1    3    3  503    0 -0.22720480703E+02  0.14951579439E+02 -0.30076854303E+02  0.40822507712E+02  0.47000000000E+01 0. -1.
         -5    1    4    4    0  502  0.43632050140E+02 -0.15420973442E+02 -0.29121642657E+02  0.54879160820E+02  0.47000000000E+01 0.  1.
<mgrwt>
<rscale>  0 0.10594134E+03</rscale>
<asrwt>0</asrwt>
<pdfrwt beam="1">  1        2 0.17760306E-01 0.10661278E+03</pdfrwt>
<pdfrwt beam="2">  1       -2 0.14933515E-01 0.10661278E+03</pdfrwt>
<totfact> 0.10123352E+04</totfact>
</mgrwt>
</event>
<event>
 8    1  0.8438969E-004  0.9821012E+02  0.7546771E-02  0.1286858E+00
          1   -1    0    0  501    0  0.00000000000E+00  0.00000000000E+00  0.74018562301E+03  0.74018562301E+03  0.00000000000E+00 0. -1.
         -1   -1    0    0    0  501 -0.00000000000E+00 -0.00000000000E+00 -0.16092512983E+02  0.16092512983E+02  0.00000000000E+00 0.  1.
         23    2    1    2    0    0 -0.35060454533E+02  0.23775721790E+01  0.18769333393E+03  0.21183487517E+03  0.91707897243E+02 0.  0.
         23    2    1    2    0    0  0.35060454533E+02 -0.23775721790E+01  0.53639977610E+03  0.54444326082E+03  0.86364669464E+02 0.  0.
          5    1    4    4  502    0  0.62181275874E+02 -0.10317844024E+02  0.40956549269E+03  0.41441398598E+03  0.47000000000E+01 0. -1.
         -5    1    4    4    0  502 -0.27120821341E+02  0.79402718447E+01  0.12683428342E+03  0.13002927485E+03  0.47000000000E+01 0.  1.
          5    1    3    3  503    0 -0.17410181836E+02  0.27313091114E+02  0.17563173262E+03  0.17865529626E+03  0.47000000000E+01 0. -1.
         -5    1    3    3    0  503 -0.17650272697E+02 -0.24935518935E+02  0.12061601307E+02  0.33179578914E+02  0.47000000000E+01 0.  1.
<mgrwt>
<rscale>  0 0.96943350E+02</rscale>
<asrwt>0</asrwt>
<pdfrwt beam="1">  1        1 0.11387469E+00 0.98210115E+02</pdfrwt>
<pdfrwt beam="2">  1       -1 0.24757718E-02 0.98210115E+02</pdfrwt>
<totfact> 0.12125255E+04</totfact>
</mgrwt>
</event>
<event>
 8    1  0.8438969E-004  0.1059913E+03  0.7546771E-02  0.1268762E+00
         -1   -1    0    0    0  501 -0.00000000000E+00  0.00000000000E+00  0.21335291253E+02  0.21335291253E+02  0.00000000000E+00 0.  1.
          1   -1    0    0  501    0  0.00000000000E+00 -0.00000000000E+00 -0.68860391633E+03  0.68860391633E+03  0.00000000000E+00 0. -1.
         23    2    1    2    0    0  0.25099766158E+02 -0.47788007541E+02 -0.50751403321E+03  0.51822148200E+03  0.89829385908E+02 0.  0.
         23    2    1    2    0    0 -0.25099766158E+02  0.47788007541E+02 -0.15975459187E+03  0.19171772558E+03  0.91216581580E+02 0.  0.
          5    1    3    3  502    0  0.46347161467E+02 -0.74374740660E+00 -0.15294977058E+03  0.15988850758E+03  0.47000000000E+01 0. -1.
         -5    1    4    4    0  503 -0.25950815976E+02  0.16436863902E+02 -0.23657831109E+01  0.31165722749E+02  0.47000000000E+01 0.  1.
          5    1    4    4  503    0  0.85104981796E+00  0.31351143639E+02 -0.15738880875E+03  0.16055200284E+03  0.47000000000E+01 0. -1.
         -5    1    3    3    0  502 -0.21247395310E+02 -0.47044260135E+02 -0.35456426264E+03  0.35833297442E+03  0.47000000000E+01 0.  1.
<mgrwt>
<rscale>  0 0.10569218E+03</rscale>
<asrwt>0</asrwt>
<pdfrwt beam="1">  1        1 0.10593907E+00 0.10599130E+03</pdfrwt>
<pdfrwt beam="2">  1       -1 0.32823524E-02 0.10599130E+03</pdfrwt>
<totfact> 0.89955280E+03</totfact>
</mgrwt>
</event>
<event>
 8    1  0.8438969E-004  0.9342471E+02  0.7546771E-02  0.1295437E+00
          1   -1    0    0  501    0  0.00000000000E+00  0.00000000000E+00  0.15416889176E+02  0.15416889176E+02  0.00000000000E+00 0. -1.
         -1   -1    0    0    0  501 -0.00000000000E+00 -0.00000000000E+00 -0.67581922776E+03  0.67581922776E+03  0.00000000000E+00 0.  1.
         23    2    1    2    0    0 -0.89065294497E+01 -0.14495172231E+02 -0.47210322000E+03  0.48103446713E+03  0.90682258223E+02 0.  0.
         23    2    1    2    0    0  0.89065294497E+01  0.14495172231E+02 -0.18829911858E+03  0.21020164980E+03  0.91862610636E+02 0.  0.
          5    1    4    4  502    0  0.19081414018E+02  0.41116977021E+02 -0.45089903870E+02  0.64108467391E+02  0.47000000000E+01 0. -1.
         -5    1    3    3    0  503 -0.36191459428E+02 -0.27310560265E+02 -0.40205425850E+03  0.40462996084E+03  0.47000000000E+01 0.  1.
          5    1    3    3  503    0  0.27284929979E+02  0.12815388034E+02 -0.70048961500E+02  0.76404506291E+02  0.47000000000E+01 0. -1.
         -5    1    4    4    0  502 -0.10174884568E+02 -0.26621804790E+02 -0.14320921471E+03  0.14609318241E+03  0.47000000000E+01 0.  1.
<mgrwt>
<rscale>  0 0.93133253E+02</rscale>
<asrwt>0</asrwt>
<pdfrwt beam="1">  1        1 0.23718293E-02 0.93424705E+02</pdfrwt>
<pdfrwt beam="2">  1       -1 0.10397218E+00 0.93424705E+02</pdfrwt>
<totfact> 0.40854246E+03</totfact>
</mgrwt>
</event>
<event>
 8    1  0.8438969E-004  0.9928190E+02  0.7546771E-02  0.1287469E+00
         -1   -1    0    0    0  501 -0.00000000000E+00  0.00000000000E+00  0.29862020982E+02  0.29862020982E+02  0.00000000000E+00 0.  1.
          1   -1    0    0  501    0  0.00000000000E+00 -0.00000000000E+00 -0.30479936866E+03  0.30479936866E+03  0.00000000000E+00 0. -1.
         23    2    1    2    0    0 -0.13608264798E+02  0.18796279956E+02 -0.11873873112E+03  0.15477655198E+03  0.96531910602E+02 0.  0.
         23    2    1    2    0    0  0.13608264798E+02 -0.18796279956E+02 -0.15619861656E+03  0.17988483766E+03  0.86151389975E+02 0.  0.
          5    1    3    3  502    0 -0.22738278883E+02 -0.31374529479E+02 -0.84768668238E+02  0.93323135082E+02  0.47000000000E+01 0. -1.
         -5    1    4    4    0  503  0.48874899186E+02 -0.21245409200E+02 -0.96923005231E+02  0.11070809422E+03  0.47000000000E+01 0.  1.
          5    1    4    4  503    0 -0.35266634388E+02  0.24491292437E+01 -0.59275611331E+02  0.69176743446E+02  0.47000000000E+01 0. -1.
         -5    1    3    3    0  502  0.91300140846E+01  0.50170809435E+02 -0.33970062880E+02  0.61453416900E+02  0.47000000000E+01 0.  1.
<mgrwt>
<rscale>  0 0.96665257E+02</rscale>
<asrwt>0</asrwt>
<pdfrwt beam="1">  1        1 0.46892213E-01 0.99281896E+02</pdfrwt>
<pdfrwt beam="2">  1       -1 0.45941569E-02 0.99281896E+02</pdfrwt>
<totfact> 0.15640446E+04</totfact>
</mgrwt>
</event>
<event>
 8    1  0.8438969E-004  0.1669584E+03  0.7546771E-02  0.1181616E+00
          1   -1    0    0  501    0  0.00000000000E+00  0.00000000000E+00  0.79796851139E+03  0.79796851139E+03  0.00000000000E+00 0. -1.
         -1   -1    0    0    0  501 -0.00000000000E+00 -0.00000000000E+00 -0.58265555829E+02  0.58265555829E+02  0.00000000000E+00 0.  1.
         23    2    1    2    0    0  0.59715244094E+01 -0.13821604086E+03  0.95058243156E+02  0.19031971907E+03  0.89700573127E+02 0.  0.
         23    2    1    2    0    0 -0.59715244094E+01  0.13821604086E+03  0.64464471241E+03  0.66591434815E+03  0.93465398877E+02 0.  0.
          5    1    4    4  502    0 -0.40304421505E+02  0.12211356905E+03  0.50488371112E+03  0.52102382085E+03  0.47000000000E+01 0. -1.
         -5    1    3    3    0  503  0.24529765038E+02 -0.54504494550E+02 -0.29330114340E+01  0.60026176415E+02  0.47000000000E+01 0.  1.
          5    1    3    3  503    0 -0.18558240628E+02 -0.83711546309E+02  0.97991254590E+02  0.13029354265E+03  0.47000000000E+01 0. -1.
         -5    1    4    4    0  502  0.34332897095E+02  0.16102471809E+02  0.13976100129E+03  0.14489052730E+03  0.47000000000E+01 0.  1.
<mgrwt>
<rscale>  0 0.16643646E+03</rscale>
<asrwt>0</asrwt>
<pdfrwt beam="1">  1        1 0.12276438E+00 0.16695842E+03</pdfrwt>
<pdfrwt beam="2">  1       -1 0.89639322E-02 0.16695842E+03</pdfrwt>
<totfact> 0.16626832E+03</totfact>
</mgrwt>
</event>
<event>
 8    1  0.8438969E-004  0.9242582E+02  0.7546771E-02  0.1297651E+00
          1   -1    0    0  501    0  0.00000000000E+00  0.00000000000E+00  0.76653039203E+02  0.76653039203E+02  0.00000000000E+00 0. -1.
         -1   -1    0    0    0  501 -0.00000000000E+00 -0.00000000000E+00 -0.40053177336E+03  0.40053177336E+03  0.00000000000E+00 0.  1.
         23    2    1    2    0    0 -0.70353338329E+01 -0.35757909785E+01 -0.36528216615E+03  0.37679383325E+03  0.92088271070E+02 0.  0.
         23    2    1    2    0    0  0.70353338329E+01  0.35757909785E+01  0.41403431986E+02  0.10039097931E+03  0.91114336656E+02 0.  0.
          5    1    4    4  502    0 -0.15277794126E+02  0.34534529233E+02  0.48130366589E+02  0.61356881364E+02  0.47000000000E+01 0. -1.
         -5    1    3    3    0  503  0.37906343025E+02 -0.11832412288E+02 -0.10243807944E+03  0.10996611724E+03  0.47000000000E+01 0.  1.
          5    1    3    3  503    0 -0.44941676857E+02  0.82566213096E+01 -0.26284408670E+03  0.26682771601E+03  0.47000000000E+01 0. -1.
         -5    1    4    4    0  502  0.22313127959E+02 -0.30958738255E+02 -0.67269346035E+01  0.39034097951E+02  0.47000000000E+01 0.  1.
<mgrwt>
<rscale>  0 0.92182272E+02</rscale>
<asrwt>0</asrwt>
<pdfrwt beam="1">  1        1 0.11792775E-01 0.92425818E+02</pdfrwt>
<pdfrwt beam="2">  1       -1 0.61620273E-01 0.92425818E+02</pdfrwt>
<totfact> 0.13696916E+03</totfact>
</mgrwt>
</event>
<event>
 8    1  0.8438969E-004  0.1625043E+03  0.7546771E-02  0.1187221E+00
          1   -1    0    0  501    0  0.00000000000E+00  0.00000000000E+00  0.11082977493E+04  0.11082977493E+04  0.00000000000E+00 0. -1.
         -1   -1    0    0    0  501 -0.00000000000E+00 -0.00000000000E+00 -0.57370133445E+02  0.57370133445E+02  0.00000000000E+00 0.  1.
         23    2    1    2    0    0 -0.78012192891E+02 -0.10775217142E+03  0.97251716422E+03  0.98523546795E+03  0.84869664325E+02 0.  0.
         23    2    1    2    0    0  0.78012192891E+02  0.10775217142E+03  0.78410451662E+02  0.18043241482E+03  0.93333941862E+02 0.  0.
          5    1    3    3  502    0 -0.47963928099E+02 -0.36648546571E+02  0.20285159374E+03  0.21169438690E+03  0.47000000000E+01 0. -1.
         -5    1    3    3    0  502 -0.30048264792E+02 -0.71103624846E+02  0.76966557048E+03  0.77354108105E+03  0.47000000000E+01 0.  1.
          5    1    4    4  503    0  0.71948285899E+02  0.72978381571E+02  0.96189813830E+02  0.14063061653E+03  0.47000000000E+01 0. -1.
         -5    1    4    4    0  503  0.60639069924E+01  0.34773789846E+02 -0.17779362168E+02  0.39801798293E+02  0.47000000000E+01 0.  1.
<mgrwt>
<rscale>  0 0.16131401E+03</rscale>
<asrwt>0</asrwt>
<pdfrwt beam="1">  1        1 0.17050733E+00 0.16250433E+03</pdfrwt>
<pdfrwt beam="2">  1       -1 0.88261751E-02 0.16250433E+03</pdfrwt>
<totfact> 0.99064726E+02</totfact>
</mgrwt>
</event>
<event>
 8    1  0.8438969E-004  0.9923858E+02  0.7546771E-02  0.1285315E+00
         -2   -1    0    0    0  501 -0.00000000000E+00  0.00000000000E+00  0.11868408816E+02  0.11868408816E+02  0.00000000000E+00 0.  1.
          2   -1    0    0  501    0  0.00000000000E+00 -0.00000000000E+00 -0.78229218150E+03  0.78229218150E+03  0.00000000000E+00 0. -1.
         23    2    1    2    0    0 -0.24685360503E+02  0.29745464510E+02 -0.42427262552E+03  0.43572417400E+03  0.91400959295E+02 0.  0.
         23    2    1    2    0    0  0.24685360503E+02 -0.29745464510E+02 -0.34615114717E+03  0.35843641632E+03  0.84627939696E+02 0.  0.
          5    1    3    3  502    0  0.88821504352E+01  0.55596972579E+02 -0.25201889619E+03  0.25827413729E+03  0.47000000000E+01 0. -1.
         -5    1    3    3    0  502 -0.33567510938E+02 -0.25851508069E+02 -0.17225372933E+03  0.17745003671E+03  0.47000000000E+01 0.  1.
          5    1    4    4  503    0  0.18283731050E+02  0.28421645407E+02 -0.13907900775E+03  0.14320316038E+03  0.47000000000E+01 0. -1.
         -5    1    4    4    0  503  0.64016294535E+01 -0.58167109918E+02 -0.20707213942E+03  0.21523325594E+03  0.47000000000E+01 0.  1.
<mgrwt>
<rscale>  0 0.97650698E+02</rscale>
<asrwt>0</asrwt>
<pdfrwt beam="1">  1        2 0.12035265E+00 0.99238576E+02</pdfrwt>
<pdfrwt beam="2">  1       -2 0.18259090E-02 0.99238576E+02</pdfrwt>
<totfact> 0.29521027E+04</totfact>
</mgrwt>
</event>
<event>
 8    1  0.8438969E-004  0.9620890E+02  0.7546771E-02  0.1290193E+00
          3   -1    0    0  501    0  0.00000000000E+00  0.00000000000E+00  0.32401154902E+03  0.32401154902E+03  0.00000000000E+00 0. -1.
         -3   -1    0    0    0  501 -0.00000000000E+00 -0.00000000000E+00 -0.34922971955E+02  0.34922971955E+02  0.00000000000E+00 0.  1.
         23    2    1    2    0    0  0.88478296636E+01 -0.10847007903E+02  0.22816988940E+03  0.24762401281E+03  0.95185143899E+02 0.  0.
         23    2    1    2    0    0 -0.88478296636E+01  0.10847007903E+02  0.60918687659E+02  0.11131050816E+03  0.92103208691E+02 0.  0.
          5    1    3    3  502    0  0.43691524800E+02 -0.23396710798E+02  0.17955597395E+03  0.18632979686E+03  0.47000000000E+01 0. -1.
         -5    1    3    3    0  502 -0.34843695136E+02  0.12549702895E+02  0.48613915454E+02  0.61294215953E+02  0.47000000000E+01 0.  1.
          5    1    4    4  503    0  0.29072324833E+02 -0.22465667702E+02  0.77386119080E+01  0.37840222129E+02  0.47000000000E+01 0. -1.
         -5    1    4    4    0  503 -0.37920154497E+02  0.33312675605E+02  0.53180075751E+02  0.73470286034E+02  0.47000000000E+01 0.  1.
<mgrwt>
<rscale>  0 0.95437665E+02</rscale>
<asrwt>0</asrwt>
<pdfrwt beam="1">  1        3 0.49847928E-01 0.96208904E+02</pdfrwt>
<pdfrwt beam="2">  1       -3 0.53727652E-02 0.96208904E+02</pdfrwt>
<totfact> 0.17609617E+03</totfact>
</mgrwt>
</event>
<event>
 8    1  0.8438969E-004  0.1066224E+03  0.7546771E-02  0.1269421E+00
          2   -1    0    0  501    0  0.00000000000E+00  0.00000000000E+00  0.86461450549E+03  0.86461450549E+03  0.00000000000E+00 0. -1.
         -2   -1    0    0    0  501 -0.00000000000E+00 -0.00000000000E+00 -0.17792789923E+02  0.17792789923E+02  0.00000000000E+00 0.  1.
         23    2    1    2    0    0  0.30552892687E+02  0.43833365621E+02  0.19090774721E+03  0.21866435789E+03  0.92268576842E+02 0.  0.
         23    2    1    2    0    0 -0.30552892687E+02 -0.43833365621E+02  0.65591396835E+03  0.66374293752E+03  0.86467971158E+02 0.  0.
          5    1    3    3  502    0  0.58454398001E+02  0.90963978558E+01  0.13137551321E+03  0.14415712459E+03  0.47000000000E+01 0. -1.
         -5    1    4    4    0  503 -0.52742070780E+01  0.25560260696E+02  0.13296148973E+03  0.13558020481E+03  0.47000000000E+01 0.  1.
          5    1    4    4  503    0 -0.25278685609E+02 -0.69393626317E+02  0.52295247863E+03  0.52816273271E+03  0.47000000000E+01 0. -1.
         -5    1    3    3    0  502 -0.27901505314E+02  0.34736967765E+02  0.59532234002E+02  0.74507233297E+02  0.47000000000E+01 0.  1.
<mgrwt>
<rscale>  0 0.10535545E+03</rscale>
<asrwt>0</asrwt>
<pdfrwt beam="1">  1        2 0.13301758E+00 0.10662239E+03</pdfrwt>
<pdfrwt beam="2">  1       -2 0.27373530E-02 0.10662239E+03</pdfrwt>
<totfact> 0.14609104E+04</totfact>
</mgrwt>
</event>
<event>
 8    1  0.8438969E-004  0.1441412E+03  0.7546771E-02  0.1217322E+00
          1   -1    0    0  501    0  0.00000000000E+00  0.00000000000E+00  0.62537986691E+03  0.62537986691E+03  0.00000000000E+00 0. -1.
         -1   -1    0    0    0  501 -0.00000000000E+00 -0.00000000000E+00 -0.78756116914E+02  0.78756116914E+02  0.00000000000E+00 0.  1.
         23    2    1    2    0    0 -0.37025816578E+02 -0.65601296354E+02 -0.19911402832E+02  0.11955171599E+03  0.90673632645E+02 0.  0.
         23    2    1    2    0    0  0.37025816578E+02  0.65601296354E+02  0.56653515282E+03  0.58458426783E+03  0.12289119428E+03 0.  0.
          5    1    3    3  502    0 -0.42280016197E+01 -0.73229805038E+02  0.10110509697E+02  0.74194290549E+02  0.47000000000E+01 0. -1.
         -5    1    3    3    0  502 -0.32797814959E+02  0.76285086845E+01 -0.30021912530E+02  0.45357425442E+02  0.47000000000E+01 0.  1.
          5    1    4    4  503    0  0.49740650845E+02  0.92268612807E+02  0.50936911839E+03  0.52006405185E+03  0.47000000000E+01 0. -1.
         -5    1    4    4    0  503 -0.12714834267E+02 -0.26667316453E+02  0.57166034435E+02  0.64520215981E+02  0.47000000000E+01 0.  1.
<mgrwt>
<rscale>  0 0.13707332E+03</rscale>
<asrwt>0</asrwt>
<pdfrwt beam="1">  1        1 0.96212284E-01 0.14414120E+03</pdfrwt>
<pdfrwt beam="2">  1       -1 0.12116326E-01 0.14414120E+03</pdfrwt>
<totfact> 0.14850604E+03</totfact>
</mgrwt>
</event>
<event>
 8    1  0.8438969E-004  0.1119865E+03  0.7546771E-02  0.1262410E+00
          2   -1    0    0  501    0  0.00000000000E+00  0.00000000000E+00  0.32302855197E+03  0.32302855197E+03  0.00000000000E+00 0. -1.
         -2   -1    0    0    0  501 -0.00000000000E+00 -0.00000000000E+00 -0.41688167613E+02  0.41688167613E+02  0.00000000000E+00 0.  1.
         23    2    1    2    0    0 -0.16640576461E+02 -0.26611550906E+02  0.61159012641E+02  0.11769281593E+03  0.95530574521E+02 0.  0.
         23    2    1    2    0    0  0.16640576461E+02  0.26611550906E+02  0.22018137172E+03  0.24702390365E+03  0.10749832137E+03 0.  0.
          5    1    3    3  502    0 -0.27540579484E+01  0.31465969542E+02 -0.21300278897E+00  0.31934737271E+02  0.47000000000E+01 0. -1.
         -5    1    3    3    0  502 -0.13886518512E+02 -0.58077520448E+02  0.61372015430E+02  0.85758078661E+02  0.47000000000E+01 0.  1.
          5    1    4    4  503    0 -0.17441403040E+02  0.10085422203E+02  0.20484990745E+03  0.20589194463E+03  0.47000000000E+01 0. -1.
         -5    1    4    4    0  503  0.34081979501E+02  0.16526128703E+02  0.15331464270E+02  0.41131959025E+02  0.47000000000E+01 0.  1.
<mgrwt>
<rscale>  0 0.10901202E+03</rscale>
<asrwt>0</asrwt>
<pdfrwt beam="1">  1        2 0.49696699E-01 0.11198648E+03</pdfrwt>
<pdfrwt beam="2">  1       -2 0.64135645E-02 0.11198648E+03</pdfrwt>
<totfact> 0.12498106E+04</totfact>
</mgrwt>
</event>
<event>
 8    1  0.8438969E-004  0.1180841E+03  0.7546771E-02  0.1253580E+00
          1   -1    0    0  501    0  0.00000000000E+00  0.00000000000E+00  0.12064183036E+03  0.12064183036E+03  0.00000000000E+00 0. -1.
         -1   -1    0    0    0  501 -0.00000000000E+00 -0.00000000000E+00 -0.10153152399E+03  0.10153152399E+03  0.00000000000E+00 0.  1.
         23    2    1    2    0    0 -0.52524626590E+02 -0.35962932006E+02 -0.12048264071E+01  0.11809023013E+03  0.99456935243E+02 0.  0.
         23    2    1    2    0    0  0.52524626590E+02  0.35962932006E+02  0.20315132776E+02  0.10408312422E+03  0.79802401288E+02 0.  0.
          5    1    4    4  502    0  0.57819189239E+02 -0.51445594247E+01  0.13289190996E+01  0.58252735231E+02  0.47000000000E+01 0. -1.
         -5    1    3    3    0  503 -0.72098019430E+02 -0.48778101005E+02 -0.17865083489E+02  0.88986958322E+02  0.47000000000E+01 0.  1.
          5    1    3    3  503    0  0.19573392840E+02  0.12815168999E+02  0.16660257081E+02  0.29103271805E+02  0.47000000000E+01 0. -1.
         -5    1    4    4    0  502 -0.52945626487E+01  0.41107491431E+02  0.18986213676E+02  0.45830388992E+02  0.47000000000E+01 0.  1.
<mgrwt>
<rscale>  0 0.11386233E+03</rscale>
<asrwt>0</asrwt>
<pdfrwt beam="1">  1        1 0.18560282E-01 0.11808408E+03</pdfrwt>
<pdfrwt beam="2">  1       -1 0.15620234E-01 0.11808408E+03</pdfrwt>
<totfact> 0.79251306E+03</totfact>
</mgrwt>
</event>
<event>
 8    1  0.8438969E-004  0.9530730E+02  0.7546771E-02  0.1290494E+00
         -2   -1    0    0    0  501 -0.00000000000E+00  0.00000000000E+00  0.10828960483E+03  0.10828960483E+03  0.00000000000E+00 0.  1.
          2   -1    0    0  501    0  0.00000000000E+00 -0.00000000000E+00 -0.15618160019E+03  0.15618160019E+03  0.00000000000E+00 0. -1.
         23    2    1    2    0    0 -0.39239705718E+01  0.27408168020E+02 -0.11392614996E+03  0.14853500985E+03  0.91196909426E+02 0.  0.
         23    2    1    2    0    0  0.39239705718E+01 -0.27408168020E+02  0.66034154602E+02  0.11593619517E+03  0.91181613039E+02 0.  0.
          5    1    4    4  502    0  0.32731999205E+02 -0.57129445085E+01 -0.70617294397E+01  0.34292557933E+02  0.47000000000E+01 0. -1.
         -5    1    3    3    0  503 -0.36191635886E+02  0.16944943814E+02 -0.13518092740E+02  0.42447549521E+02  0.47000000000E+01 0. -1.
          5    1    3    3  503    0  0.32267665315E+02  0.10463224206E+02 -0.10040805722E+03  0.10608746033E+03  0.47000000000E+01 0.  1.
         -5    1    4    4    0  502 -0.28808028633E+02 -0.21695223511E+02  0.73095884042E+02  0.81643637234E+02  0.47000000000E+01 0.  1.
<mgrwt>
<rscale>  0 0.95303641E+02</rscale>
<asrwt>0</asrwt>
<pdfrwt beam="1">  1        2 0.24027938E-01 0.95307300E+02</pdfrwt>
<pdfrwt beam="2">  1       -2 0.16659939E-01 0.95307300E+02</pdfrwt>
<totfact> 0.59873024E+03</totfact>
</mgrwt>
</event>
<event>
 8    1  0.8438969E-004  0.1021321E+03  0.7546771E-02  0.1276092E+00
          2   -1    0    0  501    0  0.00000000000E+00  0.00000000000E+00  0.15030714235E+03  0.15030714235E+03  0.00000000000E+00 0. -1.
         -2   -1    0    0    0  501 -0.00000000000E+00 -0.00000000000E+00 -0.69280169799E+02  0.69280169799E+02  0.00000000000E+00 0.  1.
         23    2    1    2    0    0 -0.13969639625E+02  0.43470798958E+02  0.46032318397E+02  0.11202650830E+03  0.91357008667E+02 0.  0.
         23    2    1    2    0    0  0.13969639625E+02 -0.43470798958E+02  0.34994654153E+02  0.10756080384E+03  0.90883659207E+02 0.  0.
          5    1    3    3  502    0  0.19813501047E+02  0.60526223220E+02  0.25997041504E+02  0.68948783079E+02  0.47000000000E+01 0. -1.
         -5    1    4    4    0  503  0.22960359627E+02 -0.69713849008E+02  0.26380614612E+02  0.78135943618E+02  0.47000000000E+01 0.  1.
          5    1    4    4  503    0 -0.89907200017E+01  0.26243050050E+02  0.86140395413E+01  0.29424860226E+02  0.47000000000E+01 0. -1.
         -5    1    3    3    0  502 -0.33783140672E+02 -0.17055424262E+02  0.20035276893E+02  0.43077725226E+02  0.47000000000E+01 0.  1.
<mgrwt>
<rscale>  0 0.10202613E+03</rscale>
<asrwt>0</asrwt>
<pdfrwt beam="1">  1        2 0.23124176E-01 0.10213209E+03</pdfrwt>
<pdfrwt beam="2">  1       -2 0.10658488E-01 0.10213209E+03</pdfrwt>
<totfact> 0.12846713E+04</totfact>
</mgrwt>
</event>
<event>
 8    1  0.8438969E-004  0.1011032E+03  0.7546771E-02  0.1278658E+00
          2   -1    0    0  501    0  0.00000000000E+00  0.00000000000E+00  0.38635347284E+03  0.38635347284E+03  0.00000000000E+00 0. -1.
         -2   -1    0    0    0  501 -0.00000000000E+00 -0.00000000000E+00 -0.33466018991E+02  0.33466018991E+02  0.00000000000E+00 0.  1.
         23    2    1    2    0    0 -0.85535995042E+01 -0.39638793179E+02  0.77254917302E+02  0.12622938846E+03  0.91220273373E+02 0.  0.
         23    2    1    2    0    0  0.85535995042E+01  0.39638793179E+02  0.27563253655E+03  0.29359010337E+03  0.92614553959E+02 0.  0.
          5    1    4    4  502    0  0.14944174486E+02 -0.21267415060E+02  0.16456009292E+03  0.16666656976E+03  0.47000000000E+01 0. -1.
         -5    1    4    4    0  502 -0.63905749818E+01  0.60906208239E+02  0.11107244363E+03  0.12692353361E+03  0.47000000000E+01 0.  1.
          5    1    3    3  503    0  0.33013051620E+02 -0.40121083569E+02  0.63521046930E+02  0.82198396134E+02  0.47000000000E+01 0. -1.
         -5    1    3    3    0  503 -0.41566651124E+02  0.48229038974E+00  0.13733870372E+02  0.44030992324E+02  0.47000000000E+01 0.  1.
<mgrwt>
<rscale>  0 0.10078275E+03</rscale>
<asrwt>0</asrwt>
<pdfrwt beam="1">  1        2 0.59438993E-01 0.10110318E+03</pdfrwt>
<pdfrwt beam="2">  1       -2 0.51486186E-02 0.10110318E+03</pdfrwt>
<totfact> 0.14270399E+04</totfact>
</mgrwt>
</event>
<event>
 8    1  0.8438969E-004  0.9879292E+02  0.7546771E-02  0.1285143E+00
         -2   -1    0    0    0  501 -0.00000000000E+00  0.00000000000E+00  0.11970491763E+03  0.11970491763E+03  0.00000000000E+00 0.  1.
          2   -1    0    0  501    0  0.00000000000E+00 -0.00000000000E+00 -0.82264362100E+02  0.82264362100E+02  0.00000000000E+00 0. -1.
         23    2    1    2    0    0  0.17475279611E+02 -0.28319935328E+02  0.41003183476E+02  0.10311214357E+03  0.88563248373E+02 0.  0.
         23    2    1    2    0    0 -0.17475279611E+02  0.28319935328E+02 -0.35626279510E+01  0.98857136154E+02  0.93019551258E+02 0.  0.
          5    1    3    3  502    0 -0.35958784009E+02 -0.72735025388E+01  0.16201570529E+02  0.40379683929E+02  0.47000000000E+01 0. -1.
         -5    1    3    3    0  502  0.53434063620E+02 -0.21046432789E+02  0.24801612947E+02  0.62732459643E+02  0.47000000000E+01 0.  1.
          5    1    4    4  503    0 -0.38184995329E+02  0.50054933918E+02 -0.17372561151E+02  0.65478898576E+02  0.47000000000E+01 0. -1.
         -5    1    4    4    0  503  0.20709715717E+02 -0.21734998590E+02  0.13809933200E+02  0.33378237578E+02  0.47000000000E+01 0.  1.
<mgrwt>
<rscale>  0 0.97729892E+02</rscale>
<asrwt>0</asrwt>
<pdfrwt beam="1">  1        2 0.12656056E-01 0.98792920E+02</pdfrwt>
<pdfrwt beam="2">  1       -2 0.18416141E-01 0.98792920E+02</pdfrwt>
<totfact> 0.10559860E+04</totfact>
</mgrwt>
</event>
<event>
 8    1  0.1440255E-003  0.1160179E+03  0.7546771E-02  0.1250664E+00
         -1   -1    0    0    0  501 -0.00000000000E+00  0.00000000000E+00  0.18811311045E+02  0.18811311045E+02  0.00000000000E+00 0.  1.
          1   -1    0    0  501    0  0.00000000000E+00 -0.00000000000E+00 -0.12913428652E+04  0.12913428652E+04  0.00000000000E+00 0. -1.
         23    2    1    2    0    0 -0.50504275067E+02  0.49012713890E+02 -0.10811599744E+04  0.10873670232E+04  0.92234619377E+02 0.  0.
         23    2    1    2    0    0  0.50504275067E+02 -0.49012713890E+02 -0.19137157980E+03  0.22278715308E+03  0.89766954369E+02 0.  0.
          5    1    3    3  502    0 -0.75253326266E+02  0.50295882127E+02 -0.86838619119E+03  0.87310331916E+03  0.47000000000E+01 0. -1.
         -5    1    4    4    0  503  0.65865265264E+02 -0.63716724114E+02 -0.16256819291E+03  0.18667769403E+03  0.47000000000E+01 0.  1.
          5    1    4    4  503    0 -0.15360990197E+02  0.14704010224E+02 -0.28803386891E+02  0.36109459050E+02  0.47000000000E+01 0. -1.
         -5    1    3    3    0  502  0.24749051199E+02 -0.12831682367E+01 -0.21277378319E+03  0.21426370404E+03  0.47000000000E+01 0.  1.
<mgrwt>
<rscale>  0 0.11552679E+03</rscale>
<asrwt>0</asrwt>
<pdfrwt beam="1">  1        1 0.19866814E+00 0.11601790E+03</pdfrwt>
<pdfrwt beam="2">  1       -1 0.28940477E-02 0.11601790E+03</pdfrwt>
<totfact> 0.38602692E+03</totfact>
</mgrwt>
</event>
<event>
 7    1  0.8438969E-004  0.1945152E+03  0.7546771E-02  0.1169286E+00
         -1   -1    0    0    0  501 -0.00000000000E+00  0.00000000000E+00  0.39221274965E+02  0.39221274965E+02  0.00000000000E+00 0.  1.
          1   -1    0    0  501    0  0.00000000000E+00 -0.00000000000E+00 -0.71782426400E+03  0.71782426400E+03  0.00000000000E+00 0. -1.
         23    2    1    2    0    0  0.10558201531E+03 -0.10468629139E+02 -0.33397731344E+03  0.36131452879E+03  0.88035155866E+02 0.  0.
          5    1    3    3  502    0 -0.57128852288E+01 -0.22437126170E+02 -0.36915559836E+02  0.43828190089E+02  0.47000000000E+01 0. -1.
         -5    1    3    3    0  502  0.11129490054E+03  0.11968497031E+02 -0.29706175360E+03  0.31748633870E+03  0.47000000000E+01 0.  1.
          5    1    1    2  503    0 -0.62688270375E+02  0.19087186723E+02 -0.34552860374E+03  0.35171898718E+03  0.47000000000E+01 0. -1.
         -5    1    1    2    0  503 -0.42893744932E+02 -0.86185575834E+01  0.90292814568E+00  0.44012022998E+02  0.47000000000E+01 0.  1.
<mgrwt>
<rscale>  0 0.17847623E+03</rscale>
<asrwt>0</asrwt>
<pdfrwt beam="1">  1        1 0.11043451E+00 0.19451523E+03</pdfrwt>
<pdfrwt beam="2">  1       -1 0.60340421E-02 0.19451523E+03</pdfrwt>
<totfact> 0.35551918E+03</totfact>
</mgrwt>
</event>
<event>
 8    1  0.8438969E-004  0.1029901E+03  0.7546771E-02  0.1275113E+00
          1   -1    0    0  501    0  0.00000000000E+00  0.00000000000E+00  0.72810514168E+03  0.72810514168E+03  0.00000000000E+00 0. -1.
         -1   -1    0    0    0  501 -0.00000000000E+00 -0.00000000000E+00 -0.59266771857E+03  0.59266771857E+03  0.00000000000E+00 0.  1.
         23    2    1    2    0    0 -0.33083560258E+02 -0.35219712102E+02 -0.58463769803E+03  0.59363978136E+03  0.90950546855E+02 0.  0.
         23    2    1    2    0    0  0.33083560258E+02  0.35219712102E+02  0.72007512113E+03  0.72713307889E+03  0.88765895883E+02 0.  0.
          5    1    4    4  502    0  0.40747142579E+02  0.59800685491E+02  0.59090322832E+03  0.59533617970E+03  0.47000000000E+01 0. -1.
         -5    1    3    3    0  503 -0.45941039142E+02  0.11162524222E+02 -0.39850898207E+03  0.40133113487E+03  0.47000000000E+01 0.  1.
          5    1    3    3  503    0  0.12857478883E+02 -0.46382236324E+02 -0.18612871595E+03  0.19230864648E+03  0.47000000000E+01 0. -1.
         -5    1    4    4    0  502 -0.76635823210E+01 -0.24580973388E+02  0.12917189281E+03  0.13179689920E+03  0.47000000000E+01 0.  1.
<mgrwt>
<rscale>  0 0.10250563E+03</rscale>
<asrwt>0</asrwt>
<pdfrwt beam="1">  1        1 0.11201618E+00 0.10299006E+03</pdfrwt>
<pdfrwt beam="2">  1       -1 0.91179649E-01 0.10299006E+03</pdfrwt>
<totfact> 0.36064609E+01</totfact>
</mgrwt>
</event>
<event>
 8    1  0.8438969E-004  0.1434862E+03  0.7546771E-02  0.1209013E+00
          1   -1    0    0  501    0  0.00000000000E+00  0.00000000000E+00  0.45752383554E+02  0.45752383554E+02  0.00000000000E+00 0. -1.
         -1   -1    0    0    0  501 -0.00000000000E+00 -0.00000000000E+00 -0.44750035496E+03  0.44750035496E+03  0.00000000000E+00 0.  1.
         23    2    1    2    0    0  0.71567251508E+02  0.83857826346E+02 -0.20868535323E+03  0.25325455156E+03  0.91838361821E+02 0.  0.
         23    2    1    2    0    0 -0.71567251508E+02 -0.83857826346E+02 -0.19306261817E+03  0.23999818696E+03  0.90398831185E+02 0.  0.
          5    1    4    4  502    0 -0.81007656544E+02 -0.45921454936E+02 -0.89659549983E+02  0.12935202103E+03  0.47000000000E+01 0. -1.
         -5    1    4    4    0  502  0.94404050357E+01 -0.37936371410E+02 -0.10340306819E+03  0.11064616592E+03  0.47000000000E+01 0.  1.
          5    1    3    3  503    0  0.72787630262E+02  0.34697829374E+02 -0.73056906281E+02  0.10890996299E+03  0.47000000000E+01 0. -1.
         -5    1    3    3    0  503 -0.12203787543E+01  0.49159996972E+02 -0.13562844695E+03  0.14434458857E+03  0.47000000000E+01 0.  1.
<mgrwt>
<rscale>  0 0.14325638E+03</rscale>
<asrwt>0</asrwt>
<pdfrwt beam="1">  1        1 0.70388279E-02 0.14348621E+03</pdfrwt>
<pdfrwt beam="2">  1       -1 0.68846211E-01 0.14348621E+03</pdfrwt>
<totfact> 0.22335647E+03</totfact>
</mgrwt>
</event>
<event>
 8    1  0.8438969E-004  0.1109206E+03  0.7546771E-02  0.1259747E+00
          2   -1    0    0  501    0  0.00000000000E+00  0.00000000000E+00  0.77708310829E+03  0.77708310829E+03  0.00000000000E+00 0. -1.
         -2   -1    0    0    0  501 -0.00000000000E+00 -0.00000000000E+00 -0.20811953009E+02  0.20811953009E+02  0.00000000000E+00 0.  1.
         23    2    1    2    0    0  0.57696699001E+02  0.87800399096E+01  0.58088396822E+03  0.59137936896E+03  0.94325899502E+02 0.  0.
         23    2    1    2    0    0 -0.57696699001E+02 -0.87800399096E+01  0.17538718706E+03  0.20651569234E+03  0.92098141248E+02 0.  0.
          5    1    4    4  502    0  0.17043938656E+00 -0.40169794815E+02  0.89368739829E+02  0.98094358266E+02  0.47000000000E+01 0. -1.
         -5    1    4    4    0  502 -0.57867138387E+02  0.31389754906E+02  0.86018447229E+02  0.10842133407E+03  0.47000000000E+01 0.  1.
          5    1    3    3  503    0  0.76709172866E+02  0.28222993363E+02  0.38910555888E+03  0.39762552799E+03  0.47000000000E+01 0. -1.
         -5    1    3    3    0  503 -0.19012473866E+02 -0.19442953453E+02  0.19177840934E+03  0.19375384097E+03  0.47000000000E+01 0.  1.
<mgrwt>
<rscale>  0 0.11044549E+03</rscale>
<asrwt>0</asrwt>
<pdfrwt beam="1">  1        2 0.11955123E+00 0.11092057E+03</pdfrwt>
<pdfrwt beam="2">  1       -2 0.32018395E-02 0.11092057E+03</pdfrwt>
<totfact> 0.13309079E+04</totfact>
</mgrwt>
</event>
<event>
 8    1  0.8438969E-004  0.9276142E+02  0.7546771E-02  0.1297422E+00
          2   -1    0    0  501    0  0.00000000000E+00  0.00000000000E+00  0.58508736444E+02  0.58508736444E+02  0.00000000000E+00 0. -1.
         -2   -1    0    0    0  501 -0.00000000000E+00 -0.00000000000E+00 -0.22991513373E+03  0.22991513373E+03  0.00000000000E+00 0.  1.
         23    2    1    2    0    0 -0.49187953447E+01 -0.21229130346E+01  0.18633950155E+01  0.92780132707E+02  0.92606584413E+02 0.  0.
         23    2    1    2    0    0  0.49187953447E+01  0.21229130346E+01 -0.17326979230E+03  0.19564373747E+03  0.90693714107E+02 0.  0.
          5    1    3    3  502    0 -0.18702705169E+02  0.31083204543E+02 -0.27790840603E+02  0.45938846380E+02  0.47000000000E+01 0. -1.
         -5    1    4    4    0  503  0.30308194989E+02  0.83590838502E+01 -0.16468902894E+03  0.16772902915E+03  0.47000000000E+01 0.  1.
          5    1    4    4  503    0 -0.25389399644E+02 -0.62361708156E+01 -0.85807633655E+01  0.27914708321E+02  0.47000000000E+01 0. -1.
         -5    1    3    3    0  502  0.13783909824E+02 -0.33206117578E+02  0.29654235618E+02  0.46841286327E+02  0.47000000000E+01 0.  1.
<mgrwt>
<rscale>  0 0.92280286E+02</rscale>
<asrwt>0</asrwt>
<pdfrwt beam="1">  1        2 0.90013438E-02 0.92761419E+02</pdfrwt>
<pdfrwt beam="2">  1       -2 0.35371560E-01 0.92761419E+02</pdfrwt>
<totfact> 0.50813064E+03</totfact>
</mgrwt>
</event>
<event>
 8    1  0.8438969E-004  0.9622165E+02  0.7546771E-02  0.1289130E+00
          1   -1    0    0  501    0  0.00000000000E+00  0.00000000000E+00  0.85525828084E+02  0.85525828084E+02  0.00000000000E+00 0. -1.
         -1   -1    0    0    0  501 -0.00000000000E+00 -0.00000000000E+00 -0.36370895143E+03  0.36370895143E+03  0.00000000000E+00 0.  1.
         23    2    1    2    0    0  0.15711475441E+02 -0.25664611363E+02  0.49395185252E+02  0.10815956230E+03  0.91395206954E+02 0.  0.
         23    2    1    2    0    0 -0.15711475441E+02  0.25664611363E+02 -0.32757830860E+03  0.34107521722E+03  0.90106785514E+02 0.  0.
          5    1    4    4  502    0  0.34295604144E+02  0.16785762946E+02 -0.20022413207E+03  0.20388659437E+03  0.47000000000E+01 0. -1.
         -5    1    3    3    0  503 -0.21810512261E+02 -0.45900499791E+02  0.15035535447E+02  0.53204432639E+02  0.47000000000E+01 0.  1.
          5    1    3    3  503    0  0.37521987702E+02  0.20235888428E+02  0.34359649804E+02  0.54955129663E+02  0.47000000000E+01 0. -1.
         -5    1    4    4    0  502 -0.50007079585E+02  0.88788484167E+01 -0.12735417653E+03  0.13718862284E+03  0.47000000000E+01 0.  1.
<mgrwt>
<rscale>  0 0.95914450E+02</rscale>
<asrwt>0</asrwt>
<pdfrwt beam="1">  1        1 0.13157820E-01 0.96221653E+02</pdfrwt>
<pdfrwt beam="2">  1       -1 0.55955224E-01 0.96221653E+02</pdfrwt>
<totfact> 0.14260401E+03</totfact>
</mgrwt>
</event>
<event>
 8    1  0.8438969E-004  0.1261053E+03  0.7546771E-02  0.1235503E+00
          1   -1    0    0  501    0  0.00000000000E+00  0.00000000000E+00  0.67463985018E+03  0.67463985018E+03  0.00000000000E+00 0. -1.
         -1   -1    0    0    0  501 -0.00000000000E+00 -0.00000000000E+00 -0.26068691091E+02  0.26068691091E+02  0.00000000000E+00 0.  1.
         23    2    1    2    0    0 -0.48956579961E+02 -0.61830210554E+02  0.20208015248E+03  0.23819936742E+03  0.98401366640E+02 0.  0.
         23    2    1    2    0    0  0.48956579961E+02  0.61830210554E+02  0.44649100661E+03  0.46250917385E+03  0.91327954378E+02 0.  0.
          5    1    4    4  502    0  0.62595968052E+02  0.36468655102E+02  0.40691476071E+03  0.41333996965E+03  0.47000000000E+01 0. -1.
         -5    1    4    4    0  502 -0.13639388091E+02  0.25361555452E+02  0.39576245896E+02  0.49169204200E+02  0.47000000000E+01 0.  1.
          5    1    3    3  503    0 -0.22023764316E+02 -0.83486370506E+02  0.17038677854E+03  0.19107266826E+03  0.47000000000E+01 0. -1.
         -5    1    3    3    0  503 -0.26932815646E+02  0.21656159952E+02  0.31693373941E+02  0.47126699165E+02  0.47000000000E+01 0.  1.
<mgrwt>
<rscale>  0 0.12472317E+03</rscale>
<asrwt>0</asrwt>
<pdfrwt beam="1">  1        1 0.10379073E+00 0.12610532E+03</pdfrwt>
<pdfrwt beam="2">  1       -1 0.40105684E-02 0.12610532E+03</pdfrwt>
<totfact> 0.69899150E+03</totfact>
</mgrwt>
</event>
<event>
 8    1  0.8438969E-004  0.1103403E+03  0.7546771E-02  0.1260559E+00
          1   -1    0    0  501    0  0.00000000000E+00  0.00000000000E+00  0.14435848653E+02  0.14435848653E+02  0.00000000000E+00 0. -1.
         -1   -1    0    0    0  501 -0.00000000000E+00 -0.00000000000E+00 -0.85784778826E+03  0.85784778826E+03  0.00000000000E+00 0.  1.
         23    2    1    2    0    0  0.11957057638E+02  0.60165542315E+02 -0.49804976429E+03  0.51012600384E+03  0.91717546689E+02 0.  0.
         23    2    1    2    0    0 -0.11957057638E+02 -0.60165542315E+02 -0.34536217531E+03  0.36215763307E+03  0.90112459444E+02 0.  0.
          5    1    3    3  502    0 -0.15901034555E+02  0.21375359306E+02 -0.33292750256E+02  0.42898089759E+02  0.47000000000E+01 0. -1.
         -5    1    4    4    0  503 -0.51098240088E+02 -0.36032119535E+02 -0.20586448982E+03  0.21520135211E+03  0.47000000000E+01 0.  1.
          5    1    4    4  503    0  0.39141182450E+02 -0.24133422781E+02 -0.13949768549E+03  0.14695628097E+03  0.47000000000E+01 0. -1.
         -5    1    3    3    0  502  0.27858092193E+02  0.38790183009E+02 -0.46475701404E+03  0.46722791408E+03  0.47000000000E+01 0.  1.
<mgrwt>
<rscale>  0 0.11000611E+03</rscale>
<asrwt>0</asrwt>
<pdfrwt beam="1">  1        1 0.22209001E-02 0.11034026E+03</pdfrwt>
<pdfrwt beam="2">  1       -1 0.13197657E+00 0.11034026E+03</pdfrwt>
<totfact> 0.26065756E+03</totfact>
</mgrwt>
</event>
<event>
 8    1  0.8438969E-004  0.8687966E+02  0.7546771E-02  0.1313168E+00
          1   -1    0    0  501    0  0.00000000000E+00  0.00000000000E+00  0.64132813992E+03  0.64132813992E+03  0.00000000000E+00 0. -1.
         -1   -1    0    0    0  501 -0.00000000000E+00 -0.00000000000E+00 -0.24679935638E+02  0.24679935638E+02  0.00000000000E+00 0.  1.
         23    2    1    2    0    0 -0.21133002768E+01 -0.25001185816E+02  0.65880192854E+02  0.10903336715E+03  0.83177821625E+02 0.  0.
         23    2    1    2    0    0  0.21133002768E+01  0.25001185816E+02  0.55076801143E+03  0.55697470841E+03  0.79030994355E+02 0.  0.
          5    1    3    3  502    0 -0.24351018910E+02  0.49521702362E+01  0.66794153202E+02  0.71421600472E+02  0.47000000000E+01 0. -1.
         -5    1    4    4    0  503 -0.22311475989E+02  0.44883633096E+02  0.30028925965E+03  0.30448000254E+03  0.47000000000E+01 0. -1.
          5    1    4    4  503    0  0.24424776266E+02 -0.19882447281E+02  0.25047875177E+03  0.25249470588E+03  0.47000000000E+01 0.  1.
         -5    1    3    3    0  502  0.22237718633E+02 -0.29953356052E+02 -0.91396034774E+00  0.37611766673E+02  0.47000000000E+01 0.  1.
<mgrwt>
<rscale>  0 0.85871889E+02</rscale>
<asrwt>0</asrwt>
<pdfrwt beam="1">  1        1 0.98665855E-01 0.86879660E+02</pdfrwt>
<pdfrwt beam="2">  1       -1 0.37969137E-02 0.86879660E+02</pdfrwt>
<totfact> 0.79264686E+03</totfact>
</mgrwt>
</event>
<event>
 8    1  0.8438969E-004  0.9805545E+02  0.7546771E-02  0.1284569E+00
          2   -1    0    0  501    0  0.00000000000E+00  0.00000000000E+00  0.37869618312E+03  0.37869618312E+03  0.00000000000E+00 0. -1.
         -2   -1    0    0    0  501 -0.00000000000E+00 -0.00000000000E+00 -0.33970087663E+02  0.33970087663E+02  0.00000000000E+00 0.  1.
         23    2    1    2    0    0  0.34522734433E+02  0.11061699546E+01  0.27628193308E+03  0.29308585627E+03  0.91512675577E+02 0.  0.
         23    2    1    2    0    0 -0.34522734433E+02 -0.11061699546E+01  0.68444162369E+02  0.11958041451E+03  0.91770525592E+02 0.  0.
          5    1    3    3  502    0 -0.28679982761E+02 -0.14307238362E+02  0.10060703075E+03  0.10569343933E+03  0.47000000000E+01 0. -1.
         -5    1    3    3    0  502  0.63202717194E+02  0.15413408316E+02  0.17567490233E+03  0.18739241694E+03  0.47000000000E+01 0.  1.
          5    1    4    4  503    0 -0.14349772189E+02  0.42081941279E+02  0.52812745790E+02  0.69195967090E+02  0.47000000000E+01 0. -1.
         -5    1    4    4    0  503 -0.20172962244E+02 -0.43188111233E+02  0.15631416579E+02  0.50384447420E+02  0.47000000000E+01 0.  1.
<mgrwt>
<rscale>  0 0.97995079E+02</rscale>
<asrwt>0</asrwt>
<pdfrwt beam="1">  1        2 0.58260948E-01 0.98055455E+02</pdfrwt>
<pdfrwt beam="2">  1       -2 0.52261676E-02 0.98055455E+02</pdfrwt>
<totfact> 0.14213665E+04</totfact>
</mgrwt>
</event>
<event>
 8    1  0.8438969E-004  0.9813247E+02  0.7546771E-02  0.1287311E+00
         -4   -1    0    0    0  501 -0.00000000000E+00  0.00000000000E+00  0.19400598340E+02  0.19400598340E+02  0.00000000000E+00 0.  1.
          4   -1    0    0  501    0  0.00000000000E+00 -0.00000000000E+00 -0.49962659651E+03  0.49962659651E+03  0.00000000000E+00 0. -1.
         23    2    1    2    0    0 -0.81855751060E+01 -0.25664498964E+02 -0.31066763375E+03  0.32579803552E+03  0.94362657549E+02 0.  0.
         23    2    1    2    0    0  0.81855751060E+01  0.25664498964E+02 -0.16955836442E+03  0.19322915934E+03  0.88666785918E+02 0.  0.
          5    1    4    4  502    0 -0.17060147164E+02  0.25239196497E+02 -0.16410331035E+03  0.16697320782E+03  0.47000000000E+01 0. -1.
         -5    1    3    3    0  503 -0.50877732479E+02 -0.17131260760E+02 -0.18679998780E+03  0.19441797550E+03  0.47000000000E+01 0.  1.
          5    1    3    3  503    0  0.42692157373E+02 -0.85332382040E+01 -0.12386764595E+03  0.13138006001E+03  0.47000000000E+01 0. -1.
         -5    1    4    4    0  502  0.25245722270E+02  0.42530246691E+00 -0.54550540714E+01  0.26255951517E+02  0.47000000000E+01 0.  1.
<mgrwt>
<rscale>  0 0.96737017E+02</rscale>
<asrwt>0</asrwt>
<pdfrwt beam="1">  1        4 0.76865642E-01 0.98132468E+02</pdfrwt>
<pdfrwt beam="2">  1       -4 0.29847070E-02 0.98132468E+02</pdfrwt>
<totfact> 0.12942512E+03</totfact>
</mgrwt>
</event>
<event>
 8    1  0.8438969E-004  0.1232507E+03  0.7546771E-02  0.1237996E+00
          1   -1    0    0  501    0  0.00000000000E+00  0.00000000000E+00  0.93194817304E+03  0.93194817304E+03  0.00000000000E+00 0. -1.
         -1   -1    0    0    0  501 -0.00000000000E+00 -0.00000000000E+00 -0.16246084819E+02  0.16246084819E+02  0.00000000000E+00 0.  1.
         23    2    1    2    0    0 -0.33199141405E+02  0.75720220317E+02  0.46337668981E+03  0.47948795413E+03  0.91405726013E+02 0.  0.
         23    2    1    2    0    0  0.33199141405E+02 -0.75720220317E+02  0.45232539841E+03  0.46870630373E+03  0.90838308804E+02 0.  0.
          5    1    3    3  502    0  0.21992202651E+02  0.62549650471E+01  0.20369621647E+03  0.20502931539E+03  0.47000000000E+01 0. -1.
         -5    1    4    4    0  503 -0.21206144945E+01  0.19985415794E+02  0.70401912135E+02  0.73365067182E+02  0.47000000000E+01 0.  1.
          5    1    4    4  503    0  0.35319755899E+02 -0.95705636111E+02  0.38192348628E+03  0.39534123654E+03  0.47000000000E+01 0. -1.
         -5    1    3    3    0  502 -0.55191344056E+02  0.69465255270E+02  0.25968047334E+03  0.27445863874E+03  0.47000000000E+01 0.  1.
<mgrwt>
<rscale>  0 0.12314554E+03</rscale>
<asrwt>0</asrwt>
<pdfrwt beam="1">  1        1 0.14337660E+00 0.12325073E+03</pdfrwt>
<pdfrwt beam="2">  1       -1 0.24993984E-02 0.12325073E+03</pdfrwt>
<totfact> 0.85536050E+03</totfact>
</mgrwt>
</event>
<event>
 8    1  0.8438969E-004  0.1295599E+03  0.7546771E-02  0.1229113E+00
          1   -1    0    0  501    0  0.00000000000E+00  0.00000000000E+00  0.10728467328E+04  0.10728467328E+04  0.00000000000E+00 0. -1.
         -1   -1    0    0    0  501 -0.00000000000E+00 -0.00000000000E+00 -0.16153831538E+02  0.16153831538E+02  0.00000000000E+00 0.  1.
         23    2    1    2    0    0  0.80273251904E+02  0.46228290052E+02  0.64637612193E+03  0.65871505437E+03  0.86732820091E+02 0.  0.
         23    2    1    2    0    0 -0.80273251904E+02 -0.46228290052E+02  0.41031677933E+03  0.43028550996E+03  0.90580963312E+02 0.  0.
          5    1    3    3  502    0  0.85877299601E+02  0.13429279687E+02  0.54516801317E+03  0.55207382543E+03  0.47000000000E+01 0. -1.
         -5    1    3    3    0  502 -0.56040476969E+01  0.32799010365E+02  0.10120810876E+03  0.10664122894E+03  0.47000000000E+01 0.  1.
          5    1    4    4  503    0 -0.40003251092E+02 -0.48081084411E+02  0.36103452231E+03  0.36644244715E+03  0.47000000000E+01 0. -1.
         -5    1    4    4    0  503 -0.40270000812E+02  0.18527943590E+01  0.49282257021E+02  0.63843062813E+02  0.47000000000E+01 0.  1.
<mgrwt>
<rscale>  0 0.12888954E+03</rscale>
<asrwt>0</asrwt>
<pdfrwt beam="1">  1        1 0.16505329E+00 0.12955987E+03</pdfrwt>
<pdfrwt beam="2">  1       -1 0.24852057E-02 0.12955987E+03</pdfrwt>
<totfact> 0.68239849E+03</totfact>
</mgrwt>
</event>
<event>
 8    1  0.8438969E-004  0.1098844E+03  0.7546771E-02  0.1261053E+00
          1   -1    0    0  501    0  0.00000000000E+00  0.00000000000E+00  0.88891495696E+03  0.88891495696E+03  0.00000000000E+00 0. -1.
         -1   -1    0    0    0  501 -0.00000000000E+00 -0.00000000000E+00 -0.13860770584E+02  0.13860770584E+02  0.00000000000E+00 0.  1.
         23    2    1    2    0    0 -0.58299658664E+02 -0.19226447067E+02  0.50800306661E+03  0.51962940082E+03  0.90438332789E+02 0.  0.
         23    2    1    2    0    0  0.58299658664E+02  0.19226447067E+02  0.36705111976E+03  0.38314632673E+03  0.91137679904E+02 0.  0.
          5    1    4    4  502    0 -0.31838530533E+01  0.43285376089E+02  0.14096266751E+03  0.14756803291E+03  0.47000000000E+01 0. -1.
         -5    1    3    3    0  503  0.86822032596E+01 -0.28681986206E+02  0.28325897607E+03  0.28487852588E+03  0.47000000000E+01 0.  1.
          5    1    3    3  503    0 -0.66981861924E+02  0.94555391395E+01  0.22474409054E+03  0.23475087493E+03  0.47000000000E+01 0. -1.
         -5    1    4    4    0  502  0.61483511718E+02 -0.24058929022E+02  0.22608845225E+03  0.23557829382E+03  0.47000000000E+01 0.  1.
<mgrwt>
<rscale>  0 0.10973929E+03</rscale>
<asrwt>0</asrwt>
<pdfrwt beam="1">  1        1 0.13675610E+00 0.10988441E+03</pdfrwt>
<pdfrwt beam="2">  1       -1 0.21324269E-02 0.10988441E+03</pdfrwt>
<totfact> 0.11509628E+04</totfact>
</mgrwt>
</event>
<event>
 8    1  0.8438969E-004  0.1201723E+03  0.7546771E-02  0.1243212E+00
          2   -1    0    0  501    0  0.00000000000E+00  0.00000000000E+00  0.11395382800E+03  0.11395382800E+03  0.00000000000E+00 0. -1.
         -2   -1    0    0    0  501 -0.00000000000E+00 -0.00000000000E+00 -0.12815529139E+03  0.12815529139E+03  0.00000000000E+00 0.  1.
         23    2    1    2    0    0 -0.55226215001E+02 -0.54766113307E+02 -0.23775140145E+02  0.12155610246E+03  0.90340283182E+02 0.  0.
         23    2    1    2    0    0  0.55226215001E+02  0.54766113307E+02  0.95736767501E+01  0.12055301694E+03  0.91608474588E+02 0.  0.
          5    1    3    3  502    0  0.24723123104E+02 -0.13483643865E+02 -0.10802360166E+02  0.30525767035E+02  0.47000000000E+01 0. -1.
         -5    1    4    4    0  503 -0.19487957724E+02 -0.84752212151E+01  0.56007390983E+01  0.22473721306E+02  0.47000000000E+01 0.  1.
          5    1    4    4  503    0  0.74714172725E+02  0.63241334522E+02  0.39729376517E+01  0.98079295632E+02  0.47000000000E+01 0. -1.
         -5    1    3    3    0  502 -0.79949338105E+02 -0.41282469442E+02 -0.12972779979E+02  0.91030335422E+02  0.47000000000E+01 0.  1.
<mgrwt>
<rscale>  0 0.11993056E+03</rscale>
<asrwt>0</asrwt>
<pdfrwt beam="1">  1        2 0.17531358E-01 0.12017227E+03</pdfrwt>
<pdfrwt beam="2">  1       -2 0.19716199E-01 0.12017227E+03</pdfrwt>
<totfact> 0.65549661E+03</totfact>
</mgrwt>
</event>
<event>
 8    1  0.8438969E-004  0.1852996E+03  0.7546771E-02  0.1162824E+00
          2   -1    0    0  501    0  0.00000000000E+00  0.00000000000E+00  0.88537289855E+03  0.88537289855E+03  0.00000000000E+00 0. -1.
         -2   -1    0    0    0  501 -0.00000000000E+00 -0.00000000000E+00 -0.85731910080E+02  0.85731910080E+02  0.00000000000E+00 0.  1.
         23    2    1    2    0    0 -0.67062936052E+02  0.14587733681E+03  0.75921615579E+03  0.78144690080E+03  0.92045927521E+02 0.  0.
         23    2    1    2    0    0  0.67062936052E+02 -0.14587733681E+03  0.40424832681E+02  0.18965790783E+03  0.92511189148E+02 0.  0.
          5    1    3    3  502    0  0.15768228649E+02  0.42453930718E+02  0.30134073438E+03  0.30476105635E+03  0.47000000000E+01 0. -1.
         -5    1    3    3    0  502 -0.82831164702E+02  0.10342340609E+03  0.45787542141E+03  0.47668584446E+03  0.47000000000E+01 0.  1.
          5    1    4    4  503    0  0.26207884521E+02 -0.10130444205E+03 -0.17026313641E+02  0.10611987818E+03  0.47000000000E+01 0. -1.
         -5    1    4    4    0  503  0.40855051531E+02 -0.44572894764E+02  0.57451146322E+02  0.83538029645E+02  0.47000000000E+01 0.  1.
<mgrwt>
<rscale>  0 0.18524165E+03</rscale>
<asrwt>0</asrwt>
<pdfrwt beam="1">  1        2 0.13621121E+00 0.18529964E+03</pdfrwt>
<pdfrwt beam="2">  1       -2 0.13189525E-01 0.18529964E+03</pdfrwt>
<totfact> 0.13156410E+03</totfact>
</mgrwt>
</event>
<event>
 8    1  0.8438969E-004  0.9806629E+02  0.7546771E-02  0.1285288E+00
          2   -1    0    0  501    0  0.00000000000E+00  0.00000000000E+00  0.71533526747E+03  0.71533526747E+03  0.00000000000E+00 0. -1.
         -2   -1    0    0    0  501 -0.00000000000E+00 -0.00000000000E+00 -0.14880306510E+02  0.14880306510E+02  0.00000000000E+00 0.  1.
         23    2    1    2    0    0  0.11001614527E+02  0.35654956438E+02  0.23103155516E+03  0.25098322018E+03  0.90690053978E+02 0.  0.
         23    2    1    2    0    0 -0.11001614527E+02 -0.35654956438E+02  0.46942340580E+03  0.47923235381E+03  0.88955064934E+02 0.  0.
          5    1    4    4  502    0  0.28305468894E+02 -0.33295078303E+02  0.36315904434E+03  0.36580916240E+03  0.47000000000E+01 0. -1.
         -5    1    4    4    0  502 -0.39307083420E+02 -0.23598781346E+01  0.10626436146E+03  0.11342319140E+03  0.47000000000E+01 0.  1.
          5    1    3    3  503    0  0.24954005739E+02 -0.21853382470E+02  0.12556852744E+03  0.12996083183E+03  0.47000000000E+01 0. -1.
         -5    1    3    3    0  503 -0.13952391213E+02  0.57508338908E+02  0.10546302772E+03  0.12102238835E+03  0.47000000000E+01 0.  1.
<mgrwt>
<rscale>  0 0.97663255E+02</rscale>
<asrwt>0</asrwt>
<pdfrwt beam="1">  1        2 0.11005155E+00 0.98066290E+02</pdfrwt>
<pdfrwt beam="2">  1       -2 0.22892785E-02 0.98066290E+02</pdfrwt>
<totfact> 0.23694957E+04</totfact>
</mgrwt>
</event>
<event>
 8    1  0.8438969E-004  0.1177322E+03  0.7546771E-02  0.1247482E+00
          1   -1    0    0  501    0  0.00000000000E+00  0.00000000000E+00  0.93447050342E+03  0.93447050342E+03  0.00000000000E+00 0. -1.
         -1   -1    0    0    0  501 -0.00000000000E+00 -0.00000000000E+00 -0.19937628421E+02  0.19937628421E+02  0.00000000000E+00 0.  1.
         23    2    1    2    0    0  0.24798603692E+02  0.69603702318E+02  0.70486855947E+03  0.71463316664E+03  0.91658227139E+02 0.  0.
         23    2    1    2    0    0 -0.24798603692E+02 -0.69603702318E+02  0.20966431553E+03  0.23977496521E+03  0.89851336174E+02 0.  0.
          5    1    3    3  502    0  0.46613964100E+02  0.68974783669E+02  0.65105380289E+03  0.65637148528E+03  0.47000000000E+01 0. -1.
         -5    1    4    4    0  503 -0.33376709506E+02 -0.19297548613E+02  0.20753829953E+02  0.44036480078E+02  0.47000000000E+01 0.  1.
          5    1    4    4  503    0  0.85781058138E+01 -0.50306153706E+02  0.18891048558E+03  0.19573848513E+03  0.47000000000E+01 0. -1.
         -5    1    3    3    0  502 -0.21815360408E+02  0.62891864899E+00  0.53814756583E+02  0.58261681356E+02  0.47000000000E+01 0.  1.
<mgrwt>
<rscale>  0 0.11738035E+03</rscale>
<asrwt>0</asrwt>
<pdfrwt beam="1">  1        1 0.14376466E+00 0.11773222E+03</pdfrwt>
<pdfrwt beam="2">  1       -1 0.30673282E-02 0.11773222E+03</pdfrwt>
<totfact> 0.63148689E+03</totfact>
</mgrwt>
</event>
<event>
 8    1  0.8438969E-004  0.1305385E+03  0.7546771E-02  0.1228089E+00
          1   -1    0    0  501    0  0.00000000000E+00  0.00000000000E+00  0.47791982940E+02  0.47791982940E+02  0.00000000000E+00 0. -1.
         -1   -1    0    0    0  501 -0.00000000000E+00 -0.00000000000E+00 -0.60004658726E+03  0.60004658726E+03  0.00000000000E+00 0.  1.
         23    2    1    2    0    0 -0.76466916887E+02  0.44581685030E+02 -0.67823240901E+02  0.14710638706E+03  0.95945719490E+02 0.  0.
         23    2    1    2    0    0  0.76466916887E+02 -0.44581685030E+02 -0.48443136342E+03  0.50073218314E+03  0.90687691297E+02 0.  0.
          5    1    4    4  502    0 -0.20208538513E+02 -0.13498390189E+02 -0.10956846788E+03  0.11232956298E+03  0.47000000000E+01 0. -1.
         -5    1    4    4    0  502  0.96675455399E+02 -0.31083294840E+02 -0.37486289554E+03  0.38840262016E+03  0.47000000000E+01 0.  1.
          5    1    3    3  503    0 -0.44399609367E+02  0.57462225561E+02 -0.81845685581E+02  0.10951729967E+03  0.47000000000E+01 0. -1.
         -5    1    3    3    0  503 -0.32067307519E+02 -0.12880540532E+02  0.14022444680E+02  0.37589087389E+02  0.47000000000E+01 0.  1.
<mgrwt>
<rscale>  0 0.12957424E+03</rscale>
<asrwt>0</asrwt>
<pdfrwt beam="1">  1        1 0.73526128E-02 0.13053849E+03</pdfrwt>
<pdfrwt beam="2">  1       -1 0.92314859E-01 0.13053849E+03</pdfrwt>
<totfact> 0.11509908E+03</totfact>
</mgrwt>
</event>
<event>
 8    1  0.8438969E-004  0.9426412E+02  0.7546771E-02  0.1293368E+00
          1   -1    0    0  501    0  0.00000000000E+00  0.00000000000E+00  0.70621174476E+02  0.70621174476E+02  0.00000000000E+00 0. -1.
         -1   -1    0    0    0  501 -0.00000000000E+00 -0.00000000000E+00 -0.23372109428E+03  0.23372109428E+03  0.00000000000E+00 0.  1.
         23    2    1    2    0    0  0.49725784546E+01  0.21626010410E+02  0.22640920171E+02  0.96050686134E+02  0.90668143126E+02 0.  0.
         23    2    1    2    0    0 -0.49725784546E+01 -0.21626010410E+02 -0.18574083997E+03  0.20829158262E+03  0.91615025478E+02 0.  0.
          5    1    3    3  502    0  0.10073157367E+02 -0.18729480954E+02 -0.25049176138E+02  0.33193571386E+02  0.47000000000E+01 0.  1.
         -5    1    3    3    0  502 -0.51005789121E+01  0.40355491364E+02  0.47690096310E+02  0.62857114749E+02  0.47000000000E+01 0. -1.
          5    1    4    4  503    0 -0.48005173746E+02 -0.98607423064E+01 -0.10347054278E+03  0.11458609937E+03  0.47000000000E+01 0. -1.
         -5    1    4    4    0  503  0.43032595291E+02 -0.11765268104E+02 -0.82270297188E+02  0.93705483247E+02  0.47000000000E+01 0.  1.
<mgrwt>
<rscale>  0 0.94033269E+02</rscale>
<asrwt>0</asrwt>
<pdfrwt beam="1">  1        1 0.10864796E-01 0.94264117E+02</pdfrwt>
<pdfrwt beam="2">  1       -1 0.35957092E-01 0.94264117E+02</pdfrwt>
<totfact> 0.40028082E+03</totfact>
</mgrwt>
</event>
<event>
 8    1  0.8438969E-004  0.9224031E+02  0.7546771E-02  0.1297838E+00
         -2   -1    0    0    0  501 -0.00000000000E+00  0.00000000000E+00  0.94744823440E+02  0.94744823440E+02  0.00000000000E+00 0.  1.
          2   -1    0    0  501    0  0.00000000000E+00 -0.00000000000E+00 -0.24047280268E+03  0.24047280268E+03  0.00000000000E+00 0. -1.
         23    2    1    2    0    0 -0.86427675868E+01  0.47110597643E+00  0.59961613264E+02  0.11001668218E+03  0.91833305072E+02 0.  0.
         23    2    1    2    0    0  0.86427675868E+01 -0.47110597643E+00 -0.20568959251E+03  0.22520094394E+03  0.91281637334E+02 0.  0.
          5    1    3    3  502    0  0.93578731720E+01  0.43113392023E+02  0.19917662296E+02  0.48632680714E+02  0.47000000000E+01 0. -1.
         -5    1    4    4    0  503  0.44810400016E+02  0.12473019306E+02 -0.70589727104E+02  0.84667276635E+02  0.47000000000E+01 0.  1.
          5    1    4    4  503    0 -0.36167632429E+02 -0.12944125283E+02 -0.13509986540E+03  0.14053366731E+03  0.47000000000E+01 0. -1.
         -5    1    3    3    0  502 -0.18000640759E+02 -0.42642286047E+02  0.40043950967E+02  0.61384001467E+02  0.47000000000E+01 0.  1.
<mgrwt>
<rscale>  0 0.92102700E+02</rscale>
<asrwt>0</asrwt>
<pdfrwt beam="1">  1        2 0.36995816E-01 0.92240313E+02</pdfrwt>
<pdfrwt beam="2">  1       -2 0.14576127E-01 0.92240313E+02</pdfrwt>
<totfact> 0.46728583E+03</totfact>
</mgrwt>
</event>
<event>
 8    1  0.8438969E-004  0.1426639E+03  0.7546771E-02  0.1210585E+00
         -2   -1    0    0    0  501 -0.00000000000E+00  0.00000000000E+00  0.18322796773E+03  0.18322796773E+03  0.00000000000E+00 0.  1.
          2   -1    0    0  501    0  0.00000000000E+00 -0.00000000000E+00 -0.10996584243E+03  0.10996584243E+03  0.00000000000E+00 0. -1.
         23    2    1    2    0    0  0.91805206206E+02 -0.56729764843E+02  0.24222715271E+02  0.14233674297E+03  0.89590994854E+02 0.  0.
         23    2    1    2    0    0 -0.91805206206E+02  0.56729764843E+02  0.49039410027E+02  0.15085706719E+03  0.93308782436E+02 0.  0.
          5    1    3    3  502    0  0.72548248528E+01  0.21585192585E+02  0.12501284427E+02  0.26399339668E+02  0.47000000000E+01 0. -1.
         -5    1    4    4    0  503  0.85748883970E+01  0.30511146462E+02 -0.70763736342E+01  0.32811946502E+02  0.47000000000E+01 0.  1.
          5    1    4    4  503    0 -0.10038009460E+03  0.26218618381E+02  0.56115783661E+02  0.11804512069E+03  0.47000000000E+01 0. -1.
         -5    1    3    3    0  502  0.84550381353E+02 -0.78314957427E+02  0.11721430844E+02  0.11593740330E+03  0.47000000000E+01 0.  1.
<mgrwt>
<rscale>  0 0.14205922E+03</rscale>
<asrwt>0</asrwt>
<pdfrwt beam="1">  1        2 0.16917822E-01 0.14266391E+03</pdfrwt>
<pdfrwt beam="2">  1       -2 0.28188918E-01 0.14266391E+03</pdfrwt>
<totfact> 0.37203558E+03</totfact>
</mgrwt>
</event>
<event>
 8    1  0.8438969E-004  0.9591996E+02  0.7546771E-02  0.1289884E+00
         -1   -1    0    0    0  501 -0.00000000000E+00  0.00000000000E+00  0.18252044025E+03  0.18252044025E+03  0.00000000000E+00 0.  1.
          1   -1    0    0  501    0  0.00000000000E+00 -0.00000000000E+00 -0.51694754429E+02  0.51694754429E+02  0.00000000000E+00 0. -1.
         23    2    1    2    0    0 -0.92823341187E+01  0.21578403434E+02  0.42816728631E+02  0.10504242670E+03  0.92999193193E+02 0.  0.
         23    2    1    2    0    0  0.92823341187E+01 -0.21578403434E+02  0.88008957188E+02  0.12917276798E+03  0.91587325656E+02 0.  0.
          5    1    3    3  502    0  0.15775558677E+02  0.39727042524E+02  0.56402804840E+02  0.70925824303E+02  0.47000000000E+01 0. -1.
         -5    1    4    4    0  503 -0.16319372066E+02 -0.31866739344E+02  0.93870789898E+02  0.10057646930E+03  0.47000000000E+01 0.  1.
          5    1    4    4  503    0  0.25601706185E+02  0.10288335910E+02 -0.58618327099E+01  0.28596298678E+02  0.47000000000E+01 0. -1.
         -5    1    3    3    0  502 -0.25057892795E+02 -0.18148639091E+02 -0.13586076209E+02  0.34116602395E+02  0.47000000000E+01 0.  1.
<mgrwt>
<rscale>  0 0.95576056E+02</rscale>
<asrwt>0</asrwt>
<pdfrwt beam="1">  1        1 0.79530393E-02 0.95919962E+02</pdfrwt>
<pdfrwt beam="2">  1       -1 0.28080067E-01 0.95919962E+02</pdfrwt>
<totfact> 0.91513577E+03</totfact>
</mgrwt>
</event>
<event>
 8    1  0.8438969E-004  0.9684718E+02  0.7546771E-02  0.1287298E+00
         -1   -1    0    0    0  501 -0.00000000000E+00  0.00000000000E+00  0.21586722885E+03  0.21586722885E+03  0.00000000000E+00 0.  1.
          1   -1    0    0  501    0  0.00000000000E+00 -0.00000000000E+00 -0.46520121447E+02  0.46520121447E+02  0.00000000000E+00 0. -1.
         23    2    1    2    0    0  0.30553143299E+02  0.14210479403E+02  0.50129662865E+02  0.10905209307E+03  0.90796165188E+02 0.  0.
         23    2    1    2    0    0 -0.30553143299E+02 -0.14210479403E+02  0.11921744454E+03  0.15333525724E+03  0.90351921605E+02 0.  0.
          5    1    4    4  502    0  0.20626914325E+02 -0.34812423593E+02  0.56794530281E+02  0.69893369505E+02  0.47000000000E+01 0. -1.
         -5    1    3    3    0  503  0.54074619212E+02  0.65005989410E+01  0.19721322754E+01  0.54701933560E+02  0.47000000000E+01 0.  1.
          5    1    3    3  503    0 -0.23521475913E+02  0.77098804616E+01  0.48157530589E+02  0.54350159506E+02  0.47000000000E+01 0. -1.
         -5    1    4    4    0  502 -0.51180057624E+02  0.20601944191E+02  0.62422914263E+02  0.83441887730E+02  0.47000000000E+01 0.  1.
<mgrwt>
<rscale>  0 0.96742919E+02</rscale>
<asrwt>0</asrwt>
<pdfrwt beam="1">  1        1 0.71569419E-02 0.96847178E+02</pdfrwt>
<pdfrwt beam="2">  1       -1 0.33210342E-01 0.96847178E+02</pdfrwt>
<totfact> 0.79655159E+03</totfact>
</mgrwt>
</event>
<event>
 8    1  0.8438969E-004  0.9171599E+02  0.7546771E-02  0.1299419E+00
         -2   -1    0    0    0  501 -0.00000000000E+00  0.00000000000E+00  0.16194421050E+02  0.16194421050E+02  0.00000000000E+00 0.  1.
          2   -1    0    0  501    0  0.00000000000E+00 -0.00000000000E+00 -0.51315351298E+03  0.51315351298E+03  0.00000000000E+00 0. -1.
         23    2    1    2    0    0  0.41537096449E+01  0.38513975234E+01 -0.24332527110E+03  0.25964079914E+03  0.90410566044E+02 0.  0.
         23    2    1    2    0    0 -0.41537096449E+01 -0.38513975234E+01 -0.25363382083E+03  0.26970713489E+03  0.91540903309E+02 0.  0.
          5    1    3    3  502    0  0.17817538828E+02 -0.18263126921E+02 -0.22723148133E+03  0.22870776681E+03  0.47000000000E+01 0. -1.
         -5    1    3    3    0  502 -0.13663829183E+02  0.22114524445E+02 -0.16093789775E+02  0.30933032323E+02  0.47000000000E+01 0.  1.
          5    1    4    4  503    0 -0.39823358363E+02  0.20913457883E+01 -0.57017008900E+02  0.69737385257E+02  0.47000000000E+01 0. -1.
         -5    1    4    4    0  503  0.35669648718E+02 -0.59427433117E+01 -0.19661681193E+03  0.19996974964E+03  0.47000000000E+01 0.  1.
<mgrwt>
<rscale>  0 0.91432645E+02</rscale>
<asrwt>0</asrwt>
<pdfrwt beam="1">  1        2 0.78946689E-01 0.91715994E+02</pdfrwt>
<pdfrwt beam="2">  1       -2 0.24914495E-02 0.91715994E+02</pdfrwt>
<totfact> 0.30274629E+04</totfact>
</mgrwt>
</event>
<event>
 8    1  0.8438969E-004  0.1278163E+03  0.7546771E-02  0.1230857E+00
          3   -1    0    0  501    0  0.00000000000E+00  0.00000000000E+00  0.79877135834E+03  0.79877135834E+03  0.00000000000E+00 0. -1.
         -3   -1    0    0    0  501 -0.00000000000E+00 -0.00000000000E+00 -0.24442415932E+02  0.24442415932E+02  0.00000000000E+00 0.  1.
         23    2    1    2    0    0 -0.84044554740E+02 -0.33328568533E+02  0.55496407127E+03  0.56949286647E+03  0.90347794083E+02 0.  0.
         23    2    1    2    0    0  0.84044554740E+02  0.33328568533E+02  0.21936487113E+03  0.25372090780E+03  0.89883656498E+02 0.  0.
          5    1    3    3  502    0 -0.76206798230E+02 -0.61038495166E+02  0.45358011799E+03  0.46399373641E+03  0.47000000000E+01 0. -1.
         -5    1    3    3    0  502 -0.78377565100E+01  0.27709926633E+02  0.10138395328E+03  0.10549913006E+03  0.47000000000E+01 0.  1.
          5    1    4    4  503    0  0.76908636310E+01 -0.26803803576E+02  0.32808240480E+02  0.43313553456E+02  0.47000000000E+01 0. -1.
         -5    1    4    4    0  503  0.76353691109E+02  0.60132372109E+02  0.18655663065E+03  0.21040735434E+03  0.47000000000E+01 0.  1.
<mgrwt>
<rscale>  0 0.12773430E+03</rscale>
<asrwt>0</asrwt>
<pdfrwt beam="1">  1        3 0.12288788E+00 0.12781629E+03</pdfrwt>
<pdfrwt beam="2">  1       -3 0.37603723E-02 0.12781629E+03</pdfrwt>
<totfact> 0.46191101E+02</totfact>
</mgrwt>
</event>
<event>
 8    1  0.8438969E-004  0.1619032E+03  0.7546771E-02  0.1187128E+00
          3   -1    0    0  501    0  0.00000000000E+00  0.00000000000E+00  0.24282549895E+03  0.24282549895E+03  0.00000000000E+00 0. -1.
         -3   -1    0    0    0  501 -0.00000000000E+00 -0.00000000000E+00 -0.14976802104E+03  0.14976802104E+03  0.00000000000E+00 0.  1.
         23    2    1    2    0    0 -0.12429486396E+03 -0.42708222534E+02  0.15169317206E+03  0.22039945577E+03  0.91059849399E+02 0.  0.
         23    2    1    2    0    0  0.12429486396E+03  0.42708222534E+02 -0.58635694161E+02  0.17219406422E+03  0.94548641683E+02 0.  0.
          5    1    4    4  502    0  0.59357575948E+01  0.38712732411E+02 -0.31815322423E+02  0.50677545420E+02  0.47000000000E+01 0. -1.
         -5    1    3    3    0  503  0.71851729573E+00 -0.22369677716E+02  0.59290264959E+02  0.63547968238E+02  0.47000000000E+01 0.  1.
          5    1    3    3  503    0 -0.12501338126E+03 -0.20338544818E+02  0.92402907104E+02  0.15685148753E+03  0.47000000000E+01 0. -1.
         -5    1    4    4    0  502  0.11835910637E+03  0.39954901225E+01 -0.26820371738E+02  0.12151651880E+03  0.47000000000E+01 0.  1.
<mgrwt>
<rscale>  0 0.16139778E+03</rscale>
<asrwt>0</asrwt>
<pdfrwt beam="1">  1        3 0.37357769E-01 0.16190322E+03</pdfrwt>
<pdfrwt beam="2">  1       -3 0.23041234E-01 0.16190322E+03</pdfrwt>
<totfact> 0.29421209E+02</totfact>
</mgrwt>
</event>
<event>
 8    1  0.8438969E-004  0.1044965E+03  0.7546771E-02  0.1272810E+00
          1   -1    0    0  501    0  0.00000000000E+00  0.00000000000E+00  0.33432762570E+03  0.33432762570E+03  0.00000000000E+00 0. -1.
         -1   -1    0    0    0  501 -0.00000000000E+00 -0.00000000000E+00 -0.42316575256E+02  0.42316575256E+02  0.00000000000E+00 0.  1.
         23    2    1    2    0    0  0.48419192775E+02  0.62260087723E+00  0.23889847436E+03  0.25942449816E+03  0.88790671436E+02 0.  0.
         23    2    1    2    0    0 -0.48419192775E+02 -0.62260087723E+00  0.53112576079E+02  0.11721970279E+03  0.92599714490E+02 0.  0.
          5    1    4    4  502    0 -0.28334246512E+02 -0.15849712605E+02  0.76046441661E+02  0.82820252380E+02  0.47000000000E+01 0. -1.
         -5    1    3    3    0  503 -0.19315362045E+02  0.10976458160E+02  0.11986750520E+03  0.12199948626E+03  0.47000000000E+01 0.  1.
          5    1    3    3  503    0  0.67734554819E+02 -0.10353857283E+02  0.11903096916E+03  0.13742501190E+03  0.47000000000E+01 0. -1.
         -5    1    4    4    0  502 -0.20084946263E+02  0.15227111728E+02 -0.22933865582E+02  0.34399450410E+02  0.47000000000E+01 0.  1.
<mgrwt>
<rscale>  0 0.10364615E+03</rscale>
<asrwt>0</asrwt>
<pdfrwt beam="1">  1        1 0.51435018E-01 0.10449647E+03</pdfrwt>
<pdfrwt beam="2">  1       -1 0.65102426E-02 0.10449647E+03</pdfrwt>
<totfact> 0.83913626E+03</totfact>
</mgrwt>
</event>
<event>
 8    1  0.8438969E-004  0.1157132E+03  0.7546771E-02  0.1250448E+00
          2   -1    0    0  501    0  0.00000000000E+00  0.00000000000E+00  0.35859499606E+02  0.35859499606E+02  0.00000000000E+00 0. -1.
         -2   -1    0    0    0  501 -0.00000000000E+00 -0.00000000000E+00 -0.37958886806E+03  0.37958886806E+03  0.00000000000E+00 0.  1.
         23    2    1    2    0    0 -0.62582308289E+02  0.36657788499E+02 -0.20023436288E+03  0.23126468155E+03  0.90162154416E+02 0.  0.
         23    2    1    2    0    0  0.62582308289E+02 -0.36657788499E+02 -0.14349500558E+03  0.18418368611E+03  0.89846952292E+02 0.  0.
          5    1    4    4  502    0  0.45282442777E+02 -0.11929357107E+02 -0.14613551172E+03  0.15352682818E+03  0.47000000000E+01 0. -1.
         -5    1    3    3    0  503 -0.50916576959E+02  0.60883644554E+02 -0.18152135387E+03  0.19817014884E+03  0.47000000000E+01 0.  1.
          5    1    3    3  503    0 -0.11665731330E+02 -0.24225856055E+02 -0.18713009011E+02  0.33094532710E+02  0.47000000000E+01 0. -1.
         -5    1    4    4    0  502  0.17299865512E+02 -0.24728431392E+02  0.26405061411E+01  0.30656857937E+02  0.47000000000E+01 0.  1.
<mgrwt>
<rscale>  0 0.11565183E+03</rscale>
<asrwt>0</asrwt>
<pdfrwt beam="1">  1        2 0.55168458E-02 0.11571324E+03</pdfrwt>
<pdfrwt beam="2">  1       -2 0.58398291E-01 0.11571324E+03</pdfrwt>
<totfact> 0.36367986E+03</totfact>
</mgrwt>
</event>
<event>
 8    1  0.8438969E-004  0.9637042E+02  0.7546771E-02  0.1288933E+00
         -2   -1    0    0    0  501 -0.00000000000E+00  0.00000000000E+00  0.14570840903E+02  0.14570840903E+02  0.00000000000E+00 0.  1.
          2   -1    0    0  501    0  0.00000000000E+00 -0.00000000000E+00 -0.78000779904E+03  0.78000779904E+03  0.00000000000E+00 0. -1.
         23    2    1    2    0    0 -0.13239463710E+02  0.25470624656E+02 -0.56059447579E+03  0.56881756634E+03  0.91995768257E+02 0.  0.
         23    2    1    2    0    0  0.13239463710E+02 -0.25470624656E+02 -0.20484248235E+03  0.22576107360E+03  0.90463161884E+02 0.  0.
          5    1    3    3  502    0 -0.47656020547E+02  0.28448766870E+02 -0.43218236492E+03  0.43575694507E+03  0.47000000000E+01 0. -1.
         -5    1    3    3    0  502  0.34416556837E+02 -0.29781422138E+01 -0.12841211087E+03  0.13306062127E+03  0.47000000000E+01 0.  1.
          5    1    4    4  503    0 -0.29392127526E+02 -0.39620025246E+02 -0.11427421307E+03  0.12455653067E+03  0.47000000000E+01 0. -1.
         -5    1    4    4    0  503  0.42631591235E+02  0.14149400590E+02 -0.90568269281E+02  0.10120454293E+03  0.47000000000E+01 0.  1.
<mgrwt>
<rscale>  0 0.96002836E+02</rscale>
<asrwt>0</asrwt>
<pdfrwt beam="1">  1        2 0.12000122E+00 0.96370418E+02</pdfrwt>
<pdfrwt beam="2">  1       -2 0.22416674E-02 0.96370418E+02</pdfrwt>
<totfact> 0.21988461E+04</totfact>
</mgrwt>
</event>
<event>
 8    1  0.8438969E-004  0.1458373E+03  0.7546771E-02  0.1206707E+00
         -1   -1    0    0    0  501 -0.00000000000E+00  0.00000000000E+00  0.10414805075E+03  0.10414805075E+03  0.00000000000E+00 0.  1.
          1   -1    0    0  501    0  0.00000000000E+00 -0.00000000000E+00 -0.20724066457E+03  0.20724066457E+03  0.00000000000E+00 0. -1.
         23    2    1    2    0    0  0.29916260252E+02  0.10613728471E+03 -0.21489179531E+02  0.14427305905E+03  0.90514224844E+02 0.  0.
         23    2    1    2    0    0 -0.29916260252E+02 -0.10613728471E+03 -0.81603434288E+02  0.16711565627E+03  0.95438023080E+02 0.  0.
          5    1    4    4  502    0 -0.10050625888E+02 -0.11948903407E+03 -0.76136323163E+02  0.14211781749E+03  0.47000000000E+01 0. -1.
         -5    1    4    4    0  502 -0.19865634363E+02  0.13351749358E+02 -0.54671111244E+01  0.24997838779E+02  0.47000000000E+01 0.  1.
          5    1    3    3  503    0 -0.15007603690E+02  0.92955584236E+02 -0.23554977193E+02  0.97174563337E+02  0.47000000000E+01 0. -1.
         -5    1    3    3    0  503  0.44923863941E+02  0.13181700471E+02  0.20657976616E+01  0.47098495716E+02  0.47000000000E+01 0.  1.
<mgrwt>
<rscale>  0 0.14503735E+03</rscale>
<asrwt>0</asrwt>
<pdfrwt beam="1">  1        1 0.31883179E-01 0.14583731E+03</pdfrwt>
<pdfrwt beam="2">  1       -1 0.16022777E-01 0.14583731E+03</pdfrwt>
<totfact> 0.39123227E+03</totfact>
</mgrwt>
</event>
<event>
 8    1  0.8438969E-004  0.1005037E+03  0.7546771E-02  0.1280308E+00
         -1   -1    0    0    0  501 -0.00000000000E+00  0.00000000000E+00  0.10465392358E+03  0.10465392358E+03  0.00000000000E+00 0.  1.
          1   -1    0    0  501    0  0.00000000000E+00 -0.00000000000E+00 -0.94671931188E+02  0.94671931188E+02  0.00000000000E+00 0. -1.
         23    2    1    2    0    0  0.35582934776E+02  0.44475740611E+00  0.79542194403E+01  0.98801705476E+02  0.91826817116E+02 0.  0.
         23    2    1    2    0    0 -0.35582934776E+02 -0.44475740611E+00  0.20277729521E+01  0.10052414929E+03  0.93992817126E+02 0.  0.
          5    1    4    4  502    0 -0.31352839178E+02 -0.28741558695E+02 -0.33730529313E+02  0.54487763108E+02  0.47000000000E+01 0. -1.
         -5    1    3    3    0  503 -0.27661296724E+02  0.16251658003E+02  0.81879220237E+01  0.33442425022E+02  0.47000000000E+01 0.  1.
          5    1    3    3  503    0  0.63244231500E+02 -0.15806900597E+02 -0.23370258341E+00  0.65359280454E+02  0.47000000000E+01 0. -1.
         -5    1    4    4    0  502 -0.42300955976E+01  0.28296801289E+02  0.35758302265E+02  0.46036386184E+02  0.47000000000E+01 0.  1.
<mgrwt>
<rscale>  0 0.99994160E+02</rscale>
<asrwt>0</asrwt>
<pdfrwt beam="1">  1        1 0.14564913E-01 0.10050370E+03</pdfrwt>
<pdfrwt beam="2">  1       -1 0.16100604E-01 0.10050370E+03</pdfrwt>
<totfact> 0.10164382E+04</totfact>
</mgrwt>
</event>
<event>
 8    1  0.8438969E-004  0.1210749E+03  0.7546771E-02  0.1241463E+00
          3   -1    0    0  501    0  0.00000000000E+00  0.00000000000E+00  0.45200822972E+02  0.45200822972E+02  0.00000000000E+00 0. -1.
         -3   -1    0    0    0  501 -0.00000000000E+00 -0.00000000000E+00 -0.33006258378E+03  0.33006258378E+03  0.00000000000E+00 0.  1.
         23    2    1    2    0    0  0.57627712100E+02 -0.52918276076E+02 -0.11608705382E+03  0.16773589503E+03  0.92400374853E+02 0.  0.
         23    2    1    2    0    0 -0.57627712100E+02  0.52918276076E+02 -0.16877470699E+03  0.20752751172E+03  0.91986244933E+02 0.  0.
          5    1    4    4  502    0 -0.33457491971E+02 -0.97031004123E+01 -0.12373740478E+02  0.37265981538E+02  0.47000000000E+01 0. -1.
         -5    1    3    3    0  503  0.40239834616E+02  0.40449313038E+01 -0.96706705723E+02  0.10492798812E+03  0.47000000000E+01 0.  1.
          5    1    3    3  503    0  0.17387877484E+02 -0.56963207379E+02 -0.19380348098E+02  0.62807906912E+02  0.47000000000E+01 0. -1.
         -5    1    4    4    0  502 -0.24170220129E+02  0.62621376488E+02 -0.15640096651E+03  0.17026153018E+03  0.47000000000E+01 0.  1.
<mgrwt>
<rscale>  0 0.12099586E+03</rscale>
<asrwt>0</asrwt>
<pdfrwt beam="1">  1        3 0.69539726E-02 0.12107488E+03</pdfrwt>
<pdfrwt beam="2">  1       -3 0.50778861E-01 0.12107488E+03</pdfrwt>
<totfact> 0.11734022E+03</totfact>
</mgrwt>
</event>
<event>
 8    1  0.8438969E-004  0.1232179E+03  0.7546771E-02  0.1238831E+00
         -2   -1    0    0    0  501 -0.00000000000E+00  0.00000000000E+00  0.45457048290E+02  0.45457048290E+02  0.00000000000E+00 0.  1.
          2   -1    0    0  501    0  0.00000000000E+00 -0.00000000000E+00 -0.43232130141E+03  0.43232130141E+03  0.00000000000E+00 0. -1.
         23    2    1    2    0    0 -0.80508045249E+02 -0.15253348185E+02 -0.77297097538E+02  0.14545615021E+03  0.92024129252E+02 0.  0.
         23    2    1    2    0    0  0.80508045249E+02  0.15253348185E+02 -0.30956715559E+03  0.33232219950E+03  0.88836988239E+02 0.  0.
          5    1    3    3  502    0 -0.60171528102E+02  0.24605225311E+02 -0.76440077109E+02  0.10045499139E+03  0.47000000000E+01 0. -1.
         -5    1    4    4    0  503  0.11297659718E+02  0.29013126147E+02 -0.28420471499E+02  0.42417116877E+02  0.47000000000E+01 0.  1.
          5    1    4    4  503    0  0.69210385531E+02 -0.13759777962E+02 -0.28114668409E+03  0.28990508262E+03  0.47000000000E+01 0. -1.
         -5    1    3    3    0  502 -0.20336517147E+02 -0.39858573497E+02 -0.85702042879E+00  0.45001158817E+02  0.47000000000E+01 0.  1.
<mgrwt>
<rscale>  0 0.12262318E+03</rscale>
<asrwt>0</asrwt>
<pdfrwt beam="1">  1        2 0.66510969E-01 0.12321790E+03</pdfrwt>
<pdfrwt beam="2">  1       -2 0.69933921E-02 0.12321790E+03</pdfrwt>
<totfact> 0.81023890E+03</totfact>
</mgrwt>
</event>
<event>
 8    1  0.8438969E-004  0.9828276E+02  0.7546771E-02  0.1284719E+00
          2   -1    0    0  501    0  0.00000000000E+00  0.00000000000E+00  0.46628686295E+03  0.46628686295E+03  0.00000000000E+00 0. -1.
         -2   -1    0    0    0  501 -0.00000000000E+00 -0.00000000000E+00 -0.22383248461E+02  0.22383248461E+02  0.00000000000E+00 0.  1.
         23    2    1    2    0    0 -0.16457634858E+02  0.29685171680E+02  0.29288101847E+03  0.30848319394E+03  0.90722250877E+02 0.  0.
         23    2    1    2    0    0  0.16457634858E+02 -0.29685171680E+02  0.15102259602E+03  0.18018691747E+03  0.92235771558E+02 0.  0.
          5    1    4    4  502    0 -0.16339428042E+02  0.25759907329E+02  0.30192590493E+02  0.43176755957E+02  0.47000000000E+01 0. -1.
         -5    1    3    3    0  503  0.31645070310E+02  0.34756908762E+02  0.12200611428E+03  0.13083208744E+03  0.47000000000E+01 0.  1.
          5    1    3    3  503    0 -0.48102705168E+02 -0.50717370822E+01  0.17087490418E+03  0.17765110650E+03  0.47000000000E+01 0. -1.
         -5    1    4    4    0  502  0.32797062900E+02 -0.55445079009E+02  0.12083000553E+03  0.13701016151E+03  0.47000000000E+01 0.  1.
<mgrwt>
<rscale>  0 0.97926075E+02</rscale>
<asrwt>0</asrwt>
<pdfrwt beam="1">  1        2 0.71736433E-01 0.98282759E+02</pdfrwt>
<pdfrwt beam="2">  1       -2 0.34435770E-02 0.98282759E+02</pdfrwt>
<totfact> 0.21115508E+04</totfact>
</mgrwt>
</event>
<event>
 8    1  0.8438969E-004  0.1655291E+03  0.7546771E-02  0.1184127E+00
          2   -1    0    0  501    0  0.00000000000E+00  0.00000000000E+00  0.35446110260E+03  0.35446110260E+03  0.00000000000E+00 0. -1.
         -2   -1    0    0    0  501 -0.00000000000E+00 -0.00000000000E+00 -0.94134463911E+02  0.94134463911E+02  0.00000000000E+00 0.  1.
         23    2    1    2    0    0  0.94732643935E+02  0.93165897966E+02  0.26527413679E+02  0.16213099819E+03  0.89042678123E+02 0.  0.
         23    2    1    2    0    0 -0.94732643935E+02 -0.93165897966E+02  0.23379922500E+03  0.28646456831E+03  0.98720377412E+02 0.  0.
          5    1    4    4  502    0 -0.17097443743E+02 -0.44889390323E+02  0.16510367709E+03  0.17201364519E+03  0.47000000000E+01 0. -1.
         -5    1    4    4    0  502 -0.77635200192E+02 -0.48276507643E+02  0.68695547919E+02  0.11445092312E+03  0.47000000000E+01 0.  1.
          5    1    3    3  503    0  0.78769966359E+02  0.27244401100E+02 -0.11436495081E+02  0.84260598214E+02  0.47000000000E+01 0. -1.
         -5    1    3    3    0  503  0.15962677575E+02  0.65921496866E+02  0.37963908760E+02  0.77870399978E+02  0.47000000000E+01 0.  1.
<mgrwt>
<rscale>  0 0.16411532E+03</rscale>
<asrwt>0</asrwt>
<pdfrwt beam="1">  1        2 0.54532477E-01 0.16552906E+03</pdfrwt>
<pdfrwt beam="2">  1       -2 0.14482225E-01 0.16552906E+03</pdfrwt>
<totfact> 0.32326541E+03</totfact>
</mgrwt>
</event>
<event>
 8    1  0.8438969E-004  0.1019169E+03  0.7546771E-02  0.1279138E+00
         -1   -1    0    0    0  501 -0.00000000000E+00  0.00000000000E+00  0.38827794384E+03  0.38827794384E+03  0.00000000000E+00 0.  1.
          1   -1    0    0  501    0  0.00000000000E+00 -0.00000000000E+00 -0.29690853581E+02  0.29690853581E+02  0.00000000000E+00 0. -1.
         23    2    1    2    0    0  0.42279618459E+02 -0.91493142731E+01  0.26315319129E+03  0.28219966278E+03  0.92280937888E+02 0.  0.
         23    2    1    2    0    0 -0.42279618459E+02  0.91493142731E+01  0.95433898965E+02  0.13576913464E+03  0.86338593689E+02 0.  0.
          5    1    3    3  502    0 -0.21043214214E+02  0.75097858051E+01  0.20039702973E+02  0.30379161320E+02  0.47000000000E+01 0. -1.
         -5    1    4    4    0  503  0.12249479410E+02  0.33659368907E+02  0.42506405528E+02  0.55784293237E+02  0.47000000000E+01 0.  1.
          5    1    4    4  503    0 -0.54529097869E+02 -0.24510054634E+02  0.52927493437E+02  0.79984841402E+02  0.47000000000E+01 0. -1.
         -5    1    3    3    0  502  0.63322832673E+02 -0.16659100078E+02  0.24311348832E+03  0.25182050146E+03  0.47000000000E+01 0.  1.
<mgrwt>
<rscale>  0 0.10055283E+03</rscale>
<asrwt>0</asrwt>
<pdfrwt beam="1">  1        1 0.45678239E-02 0.10191687E+03</pdfrwt>
<pdfrwt beam="2">  1       -1 0.59735065E-01 0.10191687E+03</pdfrwt>
<totfact> 0.51649860E+03</totfact>
</mgrwt>
</event>
<event>
 8    1  0.8438969E-004  0.1825408E+03  0.7546771E-02  0.1169696E+00
         -2   -1    0    0    0  501 -0.00000000000E+00  0.00000000000E+00  0.39466250378E+02  0.39466250378E+02  0.00000000000E+00 0.  1.
          2   -1    0    0  501    0  0.00000000000E+00 -0.00000000000E+00 -0.85276701666E+03  0.85276701666E+03  0.00000000000E+00 0. -1.
         23    2    1    2    0    0  0.13097213090E+03 -0.34860053556E+02 -0.24655510411E+03  0.29681595639E+03  0.94558818717E+02 0.  0.
         23    2    1    2    0    0 -0.13097213090E+03  0.34860053556E+02 -0.56674566217E+03  0.59541731065E+03  0.12227921257E+03 0.  0.
          5    1    4    4  502    0 -0.12018018732E+03  0.70486568954E+02 -0.49746804247E+03  0.51663156805E+03  0.47000000000E+01 0. -1.
         -5    1    3    3    0  503  0.74898927042E+02  0.23945876705E+02 -0.84828194577E+02  0.11576340907E+03  0.47000000000E+01 0.  1.
          5    1    3    3  503    0  0.56073203856E+02 -0.58805930261E+02 -0.16172690953E+03  0.18105254732E+03  0.47000000000E+01 0. -1.
         -5    1    4    4    0  502 -0.10791943582E+02 -0.35626515398E+02 -0.69277619703E+02  0.78785742602E+02  0.47000000000E+01 0.  1.
<mgrwt>
<rscale>  0 0.17805767E+03</rscale>
<asrwt>0</asrwt>
<pdfrwt beam="1">  1        2 0.13119493E+00 0.18254076E+03</pdfrwt>
<pdfrwt beam="2">  1       -2 0.60717306E-02 0.18254076E+03</pdfrwt>
<totfact> 0.46724208E+03</totfact>
</mgrwt>
</event>
<event>
 8    1  0.8438969E-004  0.1236331E+03  0.7546771E-02  0.1237329E+00
         -2   -1    0    0    0  501 -0.00000000000E+00  0.00000000000E+00  0.35711083049E+02  0.35711083049E+02  0.00000000000E+00 0.  1.
          2   -1    0    0  501    0  0.00000000000E+00 -0.00000000000E+00 -0.54317709749E+03  0.54317709749E+03  0.00000000000E+00 0. -1.
         23    2    1    2    0    0  0.48835521971E+02 -0.67790801755E+02 -0.38776318157E+03  0.40699561667E+03  0.91129830448E+02 0.  0.
         23    2    1    2    0    0 -0.48835521971E+02  0.67790801755E+02 -0.11970283287E+03  0.17189256387E+03  0.90762240537E+02 0.  0.
          5    1    4    4  502    0  0.88771911675E+01  0.27263237492E+02 -0.91144119083E+02  0.95663102003E+02  0.47000000000E+01 0. -1.
         -5    1    4    4    0  502 -0.57712713139E+02  0.40527564263E+02 -0.28558713786E+02  0.76229461863E+02  0.47000000000E+01 0.  1.
          5    1    3    3  503    0 -0.26354858596E+01 -0.69154703601E+02 -0.26182229775E+03  0.27085480320E+03  0.47000000000E+01 0. -1.
         -5    1    3    3    0  503  0.51471007831E+02  0.13639018457E+01 -0.12594088382E+03  0.13614081347E+03  0.47000000000E+01 0.  1.
<mgrwt>
<rscale>  0 0.12356538E+03</rscale>
<asrwt>0</asrwt>
<pdfrwt beam="1">  1        2 0.83565707E-01 0.12363311E+03</pdfrwt>
<pdfrwt beam="2">  1       -2 0.54940128E-02 0.12363311E+03</pdfrwt>
<totfact> 0.91100614E+03</totfact>
</mgrwt>
</event>
<event>
 8    1  0.8438969E-004  0.9310328E+02  0.7546771E-02  0.1295760E+00
          1   -1    0    0  501    0  0.00000000000E+00  0.00000000000E+00  0.22813751400E+03  0.22813751400E+03  0.00000000000E+00 0. -1.
         -1   -1    0    0    0  501 -0.00000000000E+00 -0.00000000000E+00 -0.38421640230E+02  0.38421640230E+02  0.00000000000E+00 0.  1.
         23    2    1    2    0    0 -0.11742922231E+02 -0.15722483514E+02  0.11135861818E+03  0.14487069642E+03  0.90563149956E+02 0.  0.
         23    2    1    2    0    0  0.11742922231E+02  0.15722483514E+02  0.78357255592E+02  0.12168845780E+03  0.91011694569E+02 0.  0.
          5    1    3    3  502    0  0.85381165445E+01  0.27720997728E+02  0.85045423526E+02  0.89978704213E+02  0.47000000000E+01 0. -1.
         -5    1    3    3    0  502 -0.20281038775E+02 -0.43443481242E+02  0.26313194651E+02  0.54891992212E+02  0.47000000000E+01 0.  1.
          5    1    4    4  503    0  0.36658904530E+02  0.12219731733E+02  0.86477706556E+02  0.94835019145E+02  0.47000000000E+01 0. -1.
         -5    1    4    4    0  503 -0.24915982299E+02  0.35027517810E+01 -0.81204509639E+01  0.26853438659E+02  0.47000000000E+01 0.  1.
<mgrwt>
<rscale>  0 0.92993484E+02</rscale>
<asrwt>0</asrwt>
<pdfrwt beam="1">  1        1 0.35098078E-01 0.93103283E+02</pdfrwt>
<pdfrwt beam="2">  1       -1 0.59110217E-02 0.93103283E+02</pdfrwt>
<totfact> 0.15299755E+04</totfact>
</mgrwt>
</event>
<event>
 8    1  0.8438969E-004  0.1008425E+03  0.7546771E-02  0.1283383E+00
          1   -1    0    0  501    0  0.00000000000E+00  0.00000000000E+00  0.71240945736E+03  0.71240945736E+03  0.00000000000E+00 0. -1.
         -1   -1    0    0    0  501 -0.00000000000E+00 -0.00000000000E+00 -0.17512953157E+02  0.17512953157E+02  0.00000000000E+00 0.  1.
         23    2    1    2    0    0  0.18781969337E+02  0.36809090505E+02  0.51971494171E+03  0.52778930456E+03  0.82159952910E+02 0.  0.
         23    2    1    2    0    0 -0.18781969337E+02 -0.36809090505E+02  0.17518156250E+03  0.20213310596E+03  0.91986635812E+02 0.  0.
          5    1    3    3  502    0  0.31275475671E+02  0.58300999709E+02  0.35505231207E+03  0.36119440230E+03  0.47000000000E+01 0. -1.
         -5    1    4    4    0  503  0.29316551978E+02 -0.21384280013E+02  0.12701201429E+03  0.13217749213E+03  0.47000000000E+01 0. -1.
          5    1    4    4  503    0 -0.48098521314E+02 -0.15424810493E+02  0.48169548210E+02  0.69955613828E+02  0.47000000000E+01 0.  1.
         -5    1    3    3    0  502 -0.12493506334E+02 -0.21491909204E+02  0.16466262964E+03  0.16659490227E+03  0.47000000000E+01 0.  1.
<mgrwt>
<rscale>  0 0.98546398E+02</rscale>
<asrwt>0</asrwt>
<pdfrwt beam="1">  1        1 0.10960143E+00 0.10084251E+03</pdfrwt>
<pdfrwt beam="2">  1       -1 0.26943010E-02 0.10084251E+03</pdfrwt>
<totfact> 0.11362970E+04</totfact>
</mgrwt>
</event>
<event>
 8    1  0.8438969E-004  0.9607109E+02  0.7546771E-02  0.1289959E+00
         -2   -1    0    0    0  501 -0.00000000000E+00  0.00000000000E+00  0.25317362594E+02  0.25317362594E+02  0.00000000000E+00 0.  1.
          2   -1    0    0  501    0  0.00000000000E+00 -0.00000000000E+00 -0.38061762326E+03  0.38061762326E+03  0.00000000000E+00 0. -1.
         23    2    1    2    0    0  0.12882233510E+02 -0.17682372951E+02 -0.12855297299E+03  0.16048526892E+03  0.93546974413E+02 0.  0.
         23    2    1    2    0    0 -0.12882233510E+02  0.17682372951E+02 -0.22674728767E+03  0.24544971693E+03  0.91392630020E+02 0.  0.
          5    1    4    4  502    0  0.35636799255E+02  0.81757820246E+01 -0.51721197641E+02  0.63513755662E+02  0.47000000000E+01 0. -1.
         -5    1    4    4    0  502 -0.48519032766E+02  0.95065909266E+01 -0.17502609003E+03  0.18193596127E+03  0.47000000000E+01 0.  1.
          5    1    3    3  503    0  0.49383772416E+02 -0.28865290731E+02 -0.82147169753E+02  0.10021082519E+03  0.47000000000E+01 0. -1.
         -5    1    3    3    0  503 -0.36501538906E+02  0.11182917780E+02 -0.46405803240E+02  0.60274443730E+02  0.47000000000E+01 0.  1.
<mgrwt>
<rscale>  0 0.95542632E+02</rscale>
<asrwt>0</asrwt>
<pdfrwt beam="1">  1        2 0.58556563E-01 0.96071092E+02</pdfrwt>
<pdfrwt beam="2">  1       -2 0.38949785E-02 0.96071092E+02</pdfrwt>
<totfact> 0.21809326E+04</totfact>
</mgrwt>
</event>
<event>
 8    1  0.8438969E-004  0.1420825E+03  0.7546771E-02  0.1210932E+00
          1   -1    0    0  501    0  0.00000000000E+00  0.00000000000E+00  0.67239174542E+02  0.67239174542E+02  0.00000000000E+00 0. -1.
         -1   -1    0    0    0  501 -0.00000000000E+00 -0.00000000000E+00 -0.40966124566E+03  0.40966124566E+03  0.00000000000E+00 0.  1.
         23    2    1    2    0    0  0.93332985570E+02 -0.56672450658E+02 -0.29529473962E+03  0.32720600307E+03  0.89117744261E+02 0.  0.
         23    2    1    2    0    0 -0.93332985570E+02  0.56672450658E+02 -0.47127331496E+02  0.14969441712E+03  0.90909957020E+02 0.  0.
          5    1    4    4  502    0 -0.24129655491E+02  0.20543973093E+02 -0.62275583763E+02  0.70033088163E+02  0.47000000000E+01 0. -1.
         -5    1    3    3    0  503  0.31870136686E+02  0.19986250531E+02 -0.12410995270E+03  0.12977105294E+03  0.47000000000E+01 0.  1.
          5    1    3    3  503    0  0.61462848883E+02 -0.76658701189E+02 -0.17118478692E+03  0.19743495013E+03  0.47000000000E+01 0. -1.
         -5    1    4    4    0  502 -0.69203330079E+02  0.36128477564E+02  0.15148252268E+02  0.79661328961E+02  0.47000000000E+01 0.  1.
<mgrwt>
<rscale>  0 0.14179663E+03</rscale>
<asrwt>0</asrwt>
<pdfrwt beam="1">  1        1 0.10344488E-01 0.14208249E+03</pdfrwt>
<pdfrwt beam="2">  1       -1 0.63024808E-01 0.14208249E+03</pdfrwt>
<totfact> 0.15836329E+03</totfact>
</mgrwt>
</event>
<event>
 8    1  0.8438969E-004  0.1372599E+03  0.7546771E-02  0.1218276E+00
          1   -1    0    0  501    0  0.00000000000E+00  0.00000000000E+00  0.73497920259E+03  0.73497920259E+03  0.00000000000E+00 0. -1.
         -1   -1    0    0    0  501 -0.00000000000E+00 -0.00000000000E+00 -0.71823111266E+02  0.71823111266E+02  0.00000000000E+00 0.  1.
         23    2    1    2    0    0  0.90482878566E+02  0.10124384661E+02  0.73174270124E+01  0.13745479917E+03  0.10271622364E+03 0.  0.
         23    2    1    2    0    0 -0.90482878566E+02 -0.10124384661E+02  0.65583866432E+03  0.66934751469E+03  0.98041253200E+02 0.  0.
          5    1    3    3  502    0  0.14828720457E+02 -0.31334454134E+02  0.32199324852E+02  0.47546035452E+02  0.47000000000E+01 0. -1.
         -5    1    4    4    0  503  0.20627547809E+02 -0.42061106296E+01  0.81169568706E+02  0.83986760738E+02  0.47000000000E+01 0.  1.
          5    1    4    4  503    0 -0.11111042637E+03 -0.59182740318E+01  0.57466909561E+03  0.58536075395E+03  0.47000000000E+01 0. -1.
         -5    1    3    3    0  502  0.75654158108E+02  0.41458838796E+02 -0.24881897840E+02  0.89908763719E+02  0.47000000000E+01 0.  1.
<mgrwt>
<rscale>  0 0.13638595E+03</rscale>
<asrwt>0</asrwt>
<pdfrwt beam="1">  1        1 0.11307372E+00 0.13725989E+03</pdfrwt>
<pdfrwt beam="2">  1       -1 0.11049710E-01 0.13725989E+03</pdfrwt>
<totfact> 0.13607486E+03</totfact>
</mgrwt>
</event>
<event>
 8    1  0.8438969E-004  0.1040252E+03  0.7546771E-02  0.1272871E+00
         -2   -1    0    0    0  501 -0.00000000000E+00  0.00000000000E+00  0.65553457972E+02  0.65553457972E+02  0.00000000000E+00 0.  1.
          2   -1    0    0  501    0  0.00000000000E+00 -0.00000000000E+00 -0.28627868654E+03  0.28627868654E+03  0.00000000000E+00 0. -1.
         23    2    1    2    0    0 -0.33510788528E+02 -0.37125242597E+02  0.58026644323E+01  0.10256095681E+03  0.89352237589E+02 0.  0.
         23    2    1    2    0    0  0.33510788528E+02  0.37125242597E+02 -0.22652789300E+03  0.24927118770E+03  0.91213936017E+02 0.  0.
          5    1    4    4  502    0  0.67834766411E+01  0.59043270561E+02 -0.18833475573E+03  0.19754542154E+03  0.47000000000E+01 0. -1.
         -5    1    3    3    0  503 -0.15459060859E+01 -0.26336912250E+02  0.43915045860E+02  0.51445544271E+02  0.47000000000E+01 0.  1.
          5    1    3    3  503    0 -0.31964882442E+02 -0.10788330347E+02 -0.38112381428E+02  0.51115412542E+02  0.47000000000E+01 0. -1.
         -5    1    4    4    0  502  0.26727311887E+02 -0.21918027964E+02 -0.38193137269E+02  0.51725766161E+02  0.47000000000E+01 0.  1.
<mgrwt>
<rscale>  0 0.10361564E+03</rscale>
<asrwt>0</asrwt>
<pdfrwt beam="1">  1        2 0.44042874E-01 0.10402518E+03</pdfrwt>
<pdfrwt beam="2">  1       -2 0.10085148E-01 0.10402518E+03</pdfrwt>
<totfact> 0.70361789E+03</totfact>
</mgrwt>
</event>
<event>
 8    1  0.8438969E-004  0.1304392E+03  0.7546771E-02  0.1227095E+00
         -2   -1    0    0    0  501 -0.00000000000E+00  0.00000000000E+00  0.15484581990E+03  0.15484581990E+03  0.00000000000E+00 0.  1.
          2   -1    0    0  501    0  0.00000000000E+00 -0.00000000000E+00 -0.11410201364E+03  0.11410201364E+03  0.00000000000E+00 0. -1.
         23    2    1    2    0    0  0.93511679318E+02 -0.41584341666E+01 -0.74973572299E+01  0.12987378742E+03  0.89717688050E+02 0.  0.
         23    2    1    2    0    0 -0.93511679318E+02  0.41584341666E+01  0.48241163486E+02  0.13907404612E+03  0.90844117622E+02 0.  0.
          5    1    4    4  502    0 -0.10095877422E+02 -0.35820205491E+02  0.18276810077E+02  0.41727037385E+02  0.47000000000E+01 0. -1.
         -5    1    3    3    0  503  0.10601459722E+03  0.11809973865E+02  0.24478710851E+01  0.10680193059E+03  0.47000000000E+01 0.  1.
          5    1    3    3  503    0 -0.12502917899E+02 -0.15968408032E+02 -0.99452283150E+01  0.23071856823E+02  0.47000000000E+01 0. -1.
         -5    1    4    4    0  502 -0.83415801896E+02  0.39978639657E+02  0.29964353409E+02  0.97347008737E+02  0.47000000000E+01 0.  1.
<mgrwt>
<rscale>  0 0.13024325E+03</rscale>
<asrwt>0</asrwt>
<pdfrwt beam="1">  1        2 0.17554156E-01 0.13043918E+03</pdfrwt>
<pdfrwt beam="2">  1       -2 0.23822434E-01 0.13043918E+03</pdfrwt>
<totfact> 0.47656636E+03</totfact>
</mgrwt>
</event>
<event>
 8    1  0.9489275E-004  0.1010735E+03  0.7546771E-02  0.1282244E+00
          2   -1    0    0  501    0  0.00000000000E+00  0.00000000000E+00  0.24586891467E+03  0.24586891467E+03  0.00000000000E+00 0. -1.
         -2   -1    0    0    0  501 -0.00000000000E+00 -0.00000000000E+00 -0.12007929757E+03  0.12007929757E+03  0.00000000000E+00 0.  1.
         23    2    1    2    0    0 -0.77328894330E+01  0.16968225459E+02  0.21293713030E+03  0.23249207201E+03  0.91447382888E+02 0.  0.
         23    2    1    2    0    0  0.77328894330E+01 -0.16968225459E+02 -0.87147513192E+02  0.13345614023E+03  0.99338482245E+02 0.  0.
          5    1    4    4  502    0 -0.33723374873E+02  0.65825291603E+01 -0.77795823121E+00  0.34688483996E+02  0.47000000000E+01 0. -1.
         -5    1    3    3    0  503  0.33325097143E+02  0.25908180444E+02  0.15533856241E+03  0.16104022754E+03  0.47000000000E+01 0.  1.
          5    1    3    3  503    0 -0.41057986576E+02 -0.89399549850E+01  0.57598567881E+02  0.71451844474E+02  0.47000000000E+01 0. -1.
         -5    1    4    4    0  502  0.41456264306E+02 -0.23550754619E+02 -0.86369554961E+02  0.98767656231E+02  0.47000000000E+01 0.  1.
<mgrwt>
<rscale>  0 0.99079174E+02</rscale>
<asrwt>0</asrwt>
<pdfrwt beam="1">  1        2 0.37825987E-01 0.10107350E+03</pdfrwt>
<pdfrwt beam="2">  1       -2 0.18473738E-01 0.10107350E+03</pdfrwt>
<totfact> 0.31140140E+03</totfact>
</mgrwt>
</event>
<event>
 8    1  0.8438969E-004  0.9327687E+02  0.7546771E-02  0.1295604E+00
          3   -1    0    0  501    0  0.00000000000E+00  0.00000000000E+00  0.22411145067E+03  0.22411145067E+03  0.00000000000E+00 0. -1.
         -3   -1    0    0    0  501 -0.00000000000E+00 -0.00000000000E+00 -0.14747607659E+03  0.14747607659E+03  0.00000000000E+00 0.  1.
         23    2    1    2    0    0  0.15067469397E+02  0.67055709056E+01 -0.12137259693E+03  0.15307476078E+03  0.91807307917E+02 0.  0.
         23    2    1    2    0    0 -0.15067469397E+02 -0.67055709056E+01  0.19800797102E+03  0.21851276648E+03  0.90932278178E+02 0.  0.
          5    1    3    3  502    0 -0.14034250511E+01 -0.36478670532E+02 -0.20768431454E+02  0.42262048586E+02  0.47000000000E+01 0. -1.
         -5    1    3    3    0  502  0.16470894448E+02  0.43184241438E+02 -0.10060416548E+03  0.11081271219E+03  0.47000000000E+01 0.  1.
          5    1    4    4  503    0 -0.47078781053E+02 -0.14810211316E+02  0.67134589754E+02  0.83455959201E+02  0.47000000000E+01 0. -1.
         -5    1    4    4    0  503  0.32011311656E+02  0.81046404109E+01  0.13087338126E+03  0.13505680728E+03  0.47000000000E+01 0.  1.
<mgrwt>
<rscale>  0 0.93060845E+02</rscale>
<asrwt>0</asrwt>
<pdfrwt beam="1">  1        3 0.34478685E-01 0.93276873E+02</pdfrwt>
<pdfrwt beam="2">  1       -3 0.22688627E-01 0.93276873E+02</pdfrwt>
<totfact> 0.32616536E+02</totfact>
</mgrwt>
</event>
