<event>
 7    1  0.1466817E-006  0.2864195E+03  0.7546771E-02  0.1135112E+00
         -2   -1    0    0    0  501 -0.00000000000E+00  0.00000000000E+00  0.53999714338E+02  0.53999714338E+02  0.00000000000E+00 0.  1.
          2   -1    0    0  501    0  0.00000000000E+00 -0.00000000000E+00 -0.12048853980E+04  0.12048853980E+04  0.00000000000E+00 0. -1.
         23    2    1    2    0    0  0.11935599986E+02  0.37454042765E+01 -0.80051663930E+03  0.80634273695E+03  0.95943905672E+02 0.  0.
          5    1    1    2  502    0  0.82734117358E+02  0.99106028093E+02 -0.24658440376E+03  0.27837546077E+03  0.47000000000E+01 0. -1.
         -5    1    3    3    0  503 -0.19986686642E+02  0.41764681632E+02 -0.42086576064E+03  0.42343102715E+03  0.47000000000E+01 0.  1.
          5    1    3    3  503    0  0.31922286628E+02 -0.38019277355E+02 -0.37965087866E+03  0.38291170980E+03  0.47000000000E+01 0. -1.
         -5    1    1    2    0  502 -0.94669717344E+02 -0.10285143237E+03 -0.10378464059E+03  0.17416691461E+03  0.47000000000E+01 0.  1.
<mgrwt>
<rscale>  0 0.21835915E+03</rscale>
<asrwt>0</asrwt>
<pdfrwt beam="1">  1        2 0.18536698E+00 0.28641951E+03</pdfrwt>
<pdfrwt beam="2">  1       -2 0.83076486E-02 0.28641951E+03</pdfrwt>
<totfact> 0.17687072E+03</totfact>
</mgrwt>
</event>
<event>
 7    1  0.1466816E-006  0.2166487E+03  0.7546771E-02  0.1167282E+00
         -2   -1    0    0    0  501 -0.00000000000E+00  0.00000000000E+00  0.17166549648E+02  0.17166549648E+02  0.00000000000E+00 0.  1.
          2   -1    0    0  501    0  0.00000000000E+00 -0.00000000000E+00 -0.16192952324E+04  0.16192952324E+04  0.00000000000E+00 0. -1.
         23    2    1    2    0    0  0.51004156252E+02 -0.98610522658E+01 -0.33396402239E+03  0.34992446163E+03  0.90644891131E+02 0.  0.
          5    1    3    3  502    0  0.11128133769E+01  0.35818978141E+02 -0.13331571249E+03  0.13812822573E+03  0.47000000000E+01 0. -1.
         -5    1    1    2    0  503 -0.11238755599E+03  0.68121696472E+02 -0.73331057814E+03  0.74500873974E+03  0.47000000000E+01 0.  1.
          5    1    1    2  503    0  0.61383399741E+02 -0.58260644206E+02 -0.53485408221E+03  0.54152858067E+03  0.47000000000E+01 0. -1.
         -5    1    3    3    0  502  0.49891342875E+02 -0.45680030406E+02 -0.20064830991E+03  0.21179623590E+03  0.47000000000E+01 0.  1.
<mgrwt>
<rscale>  0 0.18053893E+03</rscale>
<asrwt>0</asrwt>
<pdfrwt beam="1">  1        2 0.24912240E+00 0.21664873E+03</pdfrwt>
<pdfrwt beam="2">  1       -2 0.26410071E-02 0.21664873E+03</pdfrwt>
<totfact> 0.60093854E+03</totfact>
</mgrwt>
</event>
<event>
 7    1  0.1466816E-006  0.2450071E+03  0.7546771E-02  0.1146727E+00
          2   -1    0    0  501    0  0.00000000000E+00  0.00000000000E+00  0.62423231167E+03  0.62423231167E+03  0.00000000000E+00 0. -1.
         -2   -1    0    0    0  501 -0.00000000000E+00 -0.00000000000E+00 -0.57509362669E+02  0.57509362669E+02  0.00000000000E+00 0.  1.
         23    2    1    2    0    0 -0.28736008082E+02  0.62905824773E+02  0.96650649821E+02  0.15165068479E+03  0.94200218344E+02 0.  0.
          5    1    3    3  502    0  0.34078912650E+02  0.23508607899E+02  0.43946261704E+02  0.60558986538E+02  0.47000000000E+01 0. -1.
         -5    1    1    2    0  503  0.89049386836E+02 -0.69403606723E+02  0.88049160178E+02  0.14325291805E+03  0.47000000000E+01 0.  1.
          5    1    1    2  503    0 -0.60313378754E+02  0.64977819500E+01  0.38202313901E+03  0.38683807150E+03  0.47000000000E+01 0. -1.
         -5    1    3    3    0  502 -0.62814920732E+02  0.39397216874E+02  0.52704388116E+02  0.91091698253E+02  0.47000000000E+01 0.  1.
<mgrwt>
<rscale>  0 0.20361126E+03</rscale>
<asrwt>0</asrwt>
<pdfrwt beam="1">  1        2 0.96035736E-01 0.24500712E+03</pdfrwt>
<pdfrwt beam="2">  1       -2 0.88475947E-02 0.24500712E+03</pdfrwt>
<totfact> 0.38576028E+03</totfact>
</mgrwt>
</event>
<event>
 7    1  0.1466816E-006  0.3288299E+03  0.7546771E-02  0.1071656E+00
          2   -1    0    0  501    0  0.00000000000E+00  0.00000000000E+00  0.58085752758E+03  0.58085752758E+03  0.00000000000E+00 0. -1.
         -2   -1    0    0    0  501 -0.00000000000E+00 -0.00000000000E+00 -0.46538568571E+02  0.46538568571E+02  0.00000000000E+00 0.  1.
         23    2    1    2    0    0 -0.14684264049E+02 -0.12182230950E+02  0.15116653662E+03  0.17751967151E+03  0.91092686951E+02 0.  0.
          5    1    3    3  502    0  0.39120563393E+01 -0.38555289994E+02  0.13611656330E+03  0.14160375481E+03  0.47000000000E+01 0. -1.
         -5    1    3    3    0  502 -0.18596320388E+02  0.26373059044E+02  0.15049973325E+02  0.35915916700E+02  0.47000000000E+01 0.  1.
          5    1    1    2  503    0  0.10122402233E+03  0.42752467824E+02  0.31998895825E+03  0.33836237913E+03  0.47000000000E+01 0. -1.
         -5    1    1    2    0  503 -0.86539758284E+02 -0.30570236874E+02  0.63163464127E+02  0.11151404551E+03  0.47000000000E+01 0.  1.
<mgrwt>
<rscale>  0 0.32882991E+03</rscale>
<asrwt>0</asrwt>
<pdfrwt beam="1">  1        2 0.89362691E-01 0.32882991E+03</pdfrwt>
<pdfrwt beam="2">  1       -2 0.71597802E-02 0.32882991E+03</pdfrwt>
<totfact> 0.59100510E+03</totfact>
</mgrwt>
</event>
<event>
 7    1  0.1466816E-006  0.7047458E+03  0.7546771E-02  0.9709150E-01
          2   -1    0    0  501    0  0.00000000000E+00  0.00000000000E+00  0.10005677431E+04  0.10005677431E+04  0.00000000000E+00 0. -1.
         -2   -1    0    0    0  501 -0.00000000000E+00 -0.00000000000E+00 -0.12409620763E+03  0.12409620763E+03  0.00000000000E+00 0.  1.
         23    2    1    2    0    0 -0.89754742465E+02 -0.21824195130E+02  0.12015710027E+03  0.17713276100E+03  0.91684660578E+02 0.  0.
          5    1    1    2  502    0  0.19926190908E+03  0.14796555955E+03  0.73893958860E+03  0.77952095599E+03  0.47000000000E+01 0. -1.
         -5    1    1    2    0  502 -0.10950716662E+03 -0.12614136442E+03  0.17374846623E+02  0.16801023377E+03  0.47000000000E+01 0.  1.
          5    1    3    3  503    0  0.66623910094E+01  0.21522624871E+02  0.31929055536E+02  0.39359438800E+02  0.47000000000E+01 0. -1.
         -5    1    3    3    0  503 -0.96417133474E+02 -0.43346820001E+02  0.88228044739E+02  0.13777332220E+03  0.47000000000E+01 0.  1.
<mgrwt>
<rscale>  0 0.70474580E+03</rscale>
<asrwt>0</asrwt>
<pdfrwt beam="1">  1        2 0.15393349E+00 0.70474580E+03</pdfrwt>
<pdfrwt beam="2">  1       -2 0.19091725E-01 0.70474580E+03</pdfrwt>
<totfact> 0.58662394E+02</totfact>
</mgrwt>
</event>
<event>
 7    1  0.1466816E-006  0.2458272E+03  0.7546771E-02  0.1115971E+00
          4   -1    0    0  501    0  0.00000000000E+00  0.00000000000E+00  0.72781816895E+02  0.72781816895E+02  0.00000000000E+00 0. -1.
         -4   -1    0    0    0  501 -0.00000000000E+00 -0.00000000000E+00 -0.20757587065E+03  0.20757587065E+03  0.00000000000E+00 0.  1.
         23    2    1    2    0    0  0.46574846145E+02 -0.54150703656E+02 -0.63517006634E+02  0.12269164466E+03  0.76924082949E+02 0.  0.
          5    1    3    3  502    0 -0.17592620508E+02 -0.12554164804E+02  0.15544899892E+01  0.22172365444E+02  0.47000000000E+01 0. -1.
         -5    1    1    2    0  503  0.12387250011E+02 -0.32396737203E+02 -0.25355236836E+02  0.43220025211E+02  0.47000000000E+01 0.  1.
          5    1    1    2  503    0 -0.58962096157E+02  0.86547440859E+02 -0.45921810290E+02  0.11444601768E+03  0.47000000000E+01 0. -1.
         -5    1    3    3    0  502  0.64167466653E+02 -0.41596538852E+02 -0.65071496623E+02  0.10051927921E+03  0.47000000000E+01 0.  1.
<mgrwt>
<rscale>  0 0.24582717E+03</rscale>
<asrwt>0</asrwt>
<pdfrwt beam="1">  1        4 0.11197203E-01 0.24582717E+03</pdfrwt>
<pdfrwt beam="2">  1       -4 0.31934749E-01 0.24582717E+03</pdfrwt>
<totfact> 0.10900346E+03</totfact>
</mgrwt>
</event>
<event>
 7    1  0.1466816E-006  0.1780174E+03  0.7546771E-02  0.1193737E+00
          1   -1    0    0  501    0  0.00000000000E+00  0.00000000000E+00  0.32127365003E+02  0.32127365003E+02  0.00000000000E+00 0. -1.
         -1   -1    0    0    0  501 -0.00000000000E+00 -0.00000000000E+00 -0.74979609923E+03  0.74979609923E+03  0.00000000000E+00 0.  1.
         23    2    1    2    0    0 -0.46764166733E+02  0.22751331219E+02 -0.12229220759E+03  0.16050298773E+03  0.90007303423E+02 0.  0.
          5    1    1    2  502    0 -0.41899680326E+02 -0.50950829772E+02 -0.39435432059E+03  0.39986121396E+03  0.47000000000E+01 0. -1.
         -5    1    1    2    0  502  0.88663847059E+02  0.28199498553E+02 -0.20102220605E+03  0.22155926254E+03  0.47000000000E+01 0.  1.
          5    1    3    3  503    0 -0.37870884746E+02  0.46828187437E+02 -0.11995240784E+03  0.13430470281E+03  0.47000000000E+01 0. -1.
         -5    1    3    3    0  503 -0.88932819872E+01 -0.24076856217E+02 -0.23397997513E+01  0.26198284919E+02  0.47000000000E+01 0.  1.
<mgrwt>
<rscale>  0 0.15561595E+03</rscale>
<asrwt>0</asrwt>
<pdfrwt beam="1">  1        1 0.49426717E-02 0.17801742E+03</pdfrwt>
<pdfrwt beam="2">  1       -1 0.11535324E+00 0.17801742E+03</pdfrwt>
<totfact> 0.12141070E+03</totfact>
</mgrwt>
</event>
<event>
 7    1  0.1466816E-006  0.9540287E+02  0.7546771E-02  0.1306290E+00
          1   -1    0    0  501    0  0.00000000000E+00  0.00000000000E+00  0.18045752864E+03  0.18045752864E+03  0.00000000000E+00 0. -1.
         -1   -1    0    0    0  501 -0.00000000000E+00 -0.00000000000E+00 -0.73908634840E+02  0.73908634840E+02  0.00000000000E+00 0.  1.
         23    2    1    2    0    0 -0.11606390864E+02  0.31286157116E+02 -0.30400047755E+02  0.10012927250E+03  0.89376598566E+02 0.  0.
          5    1    1    2  502    0 -0.23608780711E+02 -0.16085291756E+02  0.82782560516E+02  0.87699221565E+02  0.47000000000E+01 0. -1.
         -5    1    3    3    0  503 -0.92826708104E+00 -0.22664246459E+02  0.15889807019E+02  0.28091025514E+02  0.47000000000E+01 0.  1.
          5    1    3    3  503    0 -0.10678123783E+02  0.53950403574E+02 -0.46289854774E+02  0.72038246983E+02  0.47000000000E+01 0. -1.
         -5    1    1    2    0  502  0.35215171575E+02 -0.15200865359E+02  0.54166381042E+02  0.66537669420E+02  0.47000000000E+01 0.  1.
<mgrwt>
<rscale>  0 0.88595223E+02</rscale>
<asrwt>0</asrwt>
<pdfrwt beam="1">  1        1 0.27762697E-01 0.95402874E+02</pdfrwt>
<pdfrwt beam="2">  1       -1 0.11370559E-01 0.95402874E+02</pdfrwt>
<totfact> 0.76819590E+03</totfact>
</mgrwt>
</event>
<event>
 7    1  0.1466816E-006  0.4946449E+03  0.7546771E-02  0.1015186E+00
          2   -1    0    0  501    0  0.00000000000E+00  0.00000000000E+00  0.25207922544E+03  0.25207922544E+03  0.00000000000E+00 0. -1.
         -2   -1    0    0    0  501 -0.00000000000E+00 -0.00000000000E+00 -0.24265546925E+03  0.24265546925E+03  0.00000000000E+00 0.  1.
         23    2    1    2    0    0  0.18018782083E+02  0.13814218206E+03 -0.69790896249E+02  0.18488439725E+03  0.99516491964E+02 0.  0.
          5    1    1    2  502    0 -0.12773542134E+02 -0.79341273499E+02  0.17761355113E+03  0.19500478098E+03  0.47000000000E+01 0. -1.
         -5    1    1    2    0  502 -0.52452399492E+01 -0.58800908563E+02 -0.98398898688E+02  0.11484551647E+03  0.47000000000E+01 0.  1.
          5    1    3    3  503    0  0.31100502839E+02  0.94578917431E+02 -0.90553553643E+02  0.13466420822E+03  0.47000000000E+01 0. -1.
         -5    1    3    3    0  503 -0.13081720757E+02  0.43563264631E+02  0.20762657394E+02  0.50220189021E+02  0.47000000000E+01 0.  1.
<mgrwt>
<rscale>  0 0.49464493E+03</rscale>
<asrwt>0</asrwt>
<pdfrwt beam="1">  1        2 0.38781420E-01 0.49464493E+03</pdfrwt>
<pdfrwt beam="2">  1       -2 0.37331610E-01 0.49464493E+03</pdfrwt>
<totfact> 0.90435862E+02</totfact>
</mgrwt>
</event>
<event>
 7    1  0.1466816E-006  0.1689162E+03  0.7546771E-02  0.1206277E+00
         -2   -1    0    0    0  501 -0.00000000000E+00  0.00000000000E+00  0.29789596622E+02  0.29789596622E+02  0.00000000000E+00 0.  1.
          2   -1    0    0  501    0  0.00000000000E+00 -0.00000000000E+00 -0.58664905749E+03  0.58664905749E+03  0.00000000000E+00 0. -1.
         23    2    1    2    0    0 -0.21228110075E+01 -0.98314013354E+01 -0.24191263371E+03  0.25905343627E+03  0.92118389670E+02 0.  0.
          5    1    3    3  502    0 -0.10161583422E+02 -0.49106024302E+02 -0.10755393850E+03  0.11876278495E+03  0.47000000000E+01 0. -1.
         -5    1    3    3    0  502  0.80387724149E+01  0.39274622967E+02 -0.13435869521E+03  0.14029065133E+03  0.47000000000E+01 0.  1.
          5    1    1    2  503    0  0.14538949279E+02  0.32148104372E+02 -0.32687661929E+03  0.32880890484E+03  0.47000000000E+01 0. -1.
         -5    1    1    2    0  503 -0.12416138271E+02 -0.22316703037E+02  0.11929792142E+02  0.28576312998E+02  0.47000000000E+01 0.  1.
<mgrwt>
<rscale>  0 0.14537290E+03</rscale>
<asrwt>0</asrwt>
<pdfrwt beam="1">  1        2 0.90253693E-01 0.16891622E+03</pdfrwt>
<pdfrwt beam="2">  1       -2 0.45830153E-02 0.16891622E+03</pdfrwt>
<totfact> 0.11200772E+04</totfact>
</mgrwt>
</event>
<event>
 7    1  0.1466816E-006  0.4056893E+03  0.7546771E-02  0.1093255E+00
         -2   -1    0    0    0  501 -0.00000000000E+00  0.00000000000E+00  0.43033090827E+02  0.43033090827E+02  0.00000000000E+00 0.  1.
          2   -1    0    0  501    0  0.00000000000E+00 -0.00000000000E+00 -0.15089763507E+04  0.15089763507E+04  0.00000000000E+00 0. -1.
         23    2    1    2    0    0  0.34778536495E+02  0.20973175733E+01 -0.20229679119E+03  0.22483718101E+03  0.91726882099E+02 0.  0.
          5    1    1    2  502    0 -0.36022889190E+02 -0.15319402086E+03 -0.10699152335E+04  0.10814373553E+04  0.47000000000E+01 0. -1.
         -5    1    1    2    0  502  0.12443526951E+01  0.15109670329E+03 -0.19373123524E+03  0.24573490527E+03  0.47000000000E+01 0.  1.
          5    1    3    3  503    0  0.30959135217E+02 -0.38688865812E+02 -0.67446421376E+02  0.83823661025E+02  0.47000000000E+01 0. -1.
         -5    1    3    3    0  503  0.38194012780E+01  0.40786183385E+02 -0.13485036981E+03  0.14101351999E+03  0.47000000000E+01 0.  1.
<mgrwt>
<rscale>  0 0.28450235E+03</rscale>
<asrwt>0</asrwt>
<pdfrwt beam="1">  1        2 0.23215019E+00 0.40568930E+03</pdfrwt>
<pdfrwt beam="2">  1       -2 0.66204759E-02 0.40568930E+03</pdfrwt>
<totfact> 0.17071189E+03</totfact>
</mgrwt>
</event>
<event>
 7    1  0.1466816E-006  0.4690112E+03  0.7546771E-02  0.1022200E+00
          2   -1    0    0  501    0  0.00000000000E+00  0.00000000000E+00  0.79527674302E+02  0.79527674302E+02  0.00000000000E+00 0. -1.
         -2   -1    0    0    0  501 -0.00000000000E+00 -0.00000000000E+00 -0.69149348496E+03  0.69149348496E+03  0.00000000000E+00 0.  1.
         23    2    1    2    0    0  0.19633065725E+03 -0.58594731468E+02 -0.30244412911E+03  0.37618470906E+03  0.89796517552E+02 0.  0.
          5    1    3    3  502    0  0.15868568058E+03 -0.62478688849E+02 -0.28927846082E+03  0.33584051226E+03  0.47000000000E+01 0. -1.
         -5    1    3    3    0  502  0.37644976673E+02  0.38839573815E+01 -0.13165668286E+02  0.40344196796E+02  0.47000000000E+01 0.  1.
          5    1    1    2  503    0  0.76898592276E+00  0.47003121788E+02 -0.51181655753E+02  0.69652973251E+02  0.47000000000E+01 0. -1.
         -5    1    1    2    0  503 -0.19709964317E+03  0.11591609680E+02 -0.25834002580E+03  0.32518347695E+03  0.47000000000E+01 0.  1.
<mgrwt>
<rscale>  0 0.46901117E+03</rscale>
<asrwt>0</asrwt>
<pdfrwt beam="1">  1        2 0.12235026E-01 0.46901117E+03</pdfrwt>
<pdfrwt beam="2">  1       -2 0.10638362E+00 0.46901117E+03</pdfrwt>
<totfact> 0.37123614E+02</totfact>
</mgrwt>
</event>
<event>
 7    1  0.1466816E-006  0.4109865E+03  0.7546771E-02  0.1085551E+00
          2   -1    0    0  501    0  0.00000000000E+00  0.00000000000E+00  0.58747867152E+03  0.58747867152E+03  0.00000000000E+00 0. -1.
         -2   -1    0    0    0  501 -0.00000000000E+00 -0.00000000000E+00 -0.11887104034E+03  0.11887104034E+03  0.00000000000E+00 0.  1.
         23    2    1    2    0    0 -0.35704375571E+02  0.62158294519E+02  0.12811500051E+03  0.17264083476E+03  0.90845739902E+02 0.  0.
          5    1    1    2  502    0 -0.29560868324E+02  0.64438753227E+02  0.37939173586E+03  0.38598753490E+03  0.47000000000E+01 0. -1.
         -5    1    1    2    0  502  0.65265243895E+02 -0.12659704775E+03 -0.38899105200E+02  0.14772134221E+03  0.47000000000E+01 0.  1.
          5    1    3    3  503    0  0.15102389540E+01  0.66829384365E+02  0.11410674040E+03  0.13232870302E+03  0.47000000000E+01 0. -1.
         -5    1    3    3    0  503 -0.37214614525E+02 -0.46710898462E+01  0.14008260109E+02  0.40312131746E+02  0.47000000000E+01 0.  1.
<mgrwt>
<rscale>  0 0.29938081E+03</rscale>
<asrwt>0</asrwt>
<pdfrwt beam="1">  1        2 0.90381332E-01 0.41098654E+03</pdfrwt>
<pdfrwt beam="2">  1       -2 0.18287853E-01 0.41098654E+03</pdfrwt>
<totfact> 0.12708421E+03</totfact>
</mgrwt>
</event>
<event>
 7    1  0.1466816E-006  0.1285828E+03  0.7546771E-02  0.1241643E+00
          2   -1    0    0  501    0  0.00000000000E+00  0.00000000000E+00  0.22737191440E+03  0.22737191440E+03  0.00000000000E+00 0. -1.
         -2   -1    0    0    0  501 -0.00000000000E+00 -0.00000000000E+00 -0.59841069839E+02  0.59841069839E+02  0.00000000000E+00 0.  1.
         23    2    1    2    0    0  0.87872209789E+01 -0.43314127270E+02  0.10095950539E+03  0.14241908604E+03  0.90205573362E+02 0.  0.
          5    1    1    2  502    0 -0.54110387251E+02  0.58522574143E+02  0.48796514133E+02  0.93573583261E+02  0.47000000000E+01 0. -1.
         -5    1    1    2    0  502  0.45323166272E+02 -0.15208446873E+02  0.17774825033E+02  0.51220314936E+02  0.47000000000E+01 0.  1.
          5    1    3    3  503    0  0.13811523381E+02  0.15418727079E+02 -0.43261339618E+01  0.21663350569E+02  0.47000000000E+01 0. -1.
         -5    1    3    3    0  503 -0.50243024019E+01 -0.58732854349E+02  0.10528563936E+03  0.12075573547E+03  0.47000000000E+01 0.  1.
<mgrwt>
<rscale>  0 0.12088586E+03</rscale>
<asrwt>0</asrwt>
<pdfrwt beam="1">  1        2 0.34980294E-01 0.12858277E+03</pdfrwt>
<pdfrwt beam="2">  1       -2 0.92063186E-02 0.12858277E+03</pdfrwt>
<totfact> 0.10522255E+04</totfact>
</mgrwt>
</event>
<event>
 7    1  0.1466816E-006  0.9569731E+03  0.7546771E-02  0.9357037E-01
          2   -1    0    0  501    0  0.00000000000E+00  0.00000000000E+00  0.79099389984E+03  0.79099389984E+03  0.00000000000E+00 0. -1.
         -2   -1    0    0    0  501 -0.00000000000E+00 -0.00000000000E+00 -0.28944518760E+03  0.28944518760E+03  0.00000000000E+00 0.  1.
         23    2    1    2    0    0 -0.76293228652E+02  0.47474983986E+02  0.71921529134E+02  0.14690682211E+03  0.91292810159E+02 0.  0.
          5    1    1    2  502    0 -0.34121272869E+03  0.22375899469E+02  0.37363643227E+03  0.50651069151E+03  0.47000000000E+01 0. -1.
         -5    1    1    2    0  502  0.41750595734E+03 -0.69850883455E+02  0.55990750840E+02  0.42702157383E+03  0.47000000000E+01 0.  1.
          5    1    3    3  503    0 -0.21381471824E+02 -0.82833518057E+01 -0.16572824093E+02  0.28679779513E+02  0.47000000000E+01 0. -1.
         -5    1    3    3    0  503 -0.54911756829E+02  0.55758335792E+02  0.88494353226E+02  0.11822704260E+03  0.47000000000E+01 0.  1.
<mgrwt>
<rscale>  0 0.95697310E+03</rscale>
<asrwt>0</asrwt>
<pdfrwt beam="1">  1        2 0.12169137E+00 0.95697310E+03</pdfrwt>
<pdfrwt beam="2">  1       -2 0.44530029E-01 0.95697310E+03</pdfrwt>
<totfact> 0.16726688E+02</totfact>
</mgrwt>
</event>
<event>
 7    1  0.1466816E-006  0.2957613E+03  0.7546771E-02  0.1130857E+00
         -1   -1    0    0    0  501 -0.00000000000E+00  0.00000000000E+00  0.15589066028E+03  0.15589066028E+03  0.00000000000E+00 0.  1.
          1   -1    0    0  501    0  0.00000000000E+00 -0.00000000000E+00 -0.25197503992E+03  0.25197503992E+03  0.00000000000E+00 0. -1.
         23    2    1    2    0    0  0.15660232295E+02 -0.31115191454E+02 -0.20721822221E+01  0.97522307943E+02  0.91065408321E+02 0.  0.
          5    1    3    3  502    0  0.17396432840E+02  0.27133157106E+02 -0.17612329653E+02  0.37028748911E+02  0.47000000000E+01 0. -1.
         -5    1    1    2    0  503 -0.21636533775E+02 -0.12258017954E+03 -0.94674081771E+02  0.15645865833E+03  0.47000000000E+01 0.  1.
          5    1    1    2  503    0  0.59763014794E+01  0.15369537099E+03  0.66188434535E+00  0.15388473392E+03  0.47000000000E+01 0. -1.
         -5    1    3    3    0  502 -0.17362005450E+01 -0.58248348559E+02  0.15540147431E+02  0.60493559032E+02  0.47000000000E+01 0.  1.
<mgrwt>
<rscale>  0 0.22410805E+03</rscale>
<asrwt>0</asrwt>
<pdfrwt beam="1">  1        1 0.38765390E-01 0.29576127E+03</pdfrwt>
<pdfrwt beam="2">  1       -1 0.23983179E-01 0.29576127E+03</pdfrwt>
<totfact> 0.16323400E+03</totfact>
</mgrwt>
</event>
<event>
 7    1  0.1466816E-006  0.1090953E+03  0.7546771E-02  0.1264401E+00
         -1   -1    0    0    0  501 -0.00000000000E+00  0.00000000000E+00  0.20684074390E+03  0.20684074390E+03  0.00000000000E+00 0.  1.
          1   -1    0    0  501    0  0.00000000000E+00 -0.00000000000E+00 -0.58461376089E+02  0.58461376089E+02  0.00000000000E+00 0. -1.
         23    2    1    2    0    0 -0.51105712819E+02  0.14045258663E+01  0.41399211227E+02  0.11250635463E+03  0.91268935388E+02 0.  0.
          5    1    3    3  502    0 -0.22681568886E+02 -0.40930423754E+02  0.60281133120E+00  0.47034099729E+02  0.47000000000E+01 0. -1.
         -5    1    3    3    0  502 -0.28424143933E+02  0.42334949621E+02  0.40796399896E+02  0.65472254904E+02  0.47000000000E+01 0.  1.
          5    1    1    2  503    0  0.11378050374E+02  0.44658583781E+02  0.32857762344E+02  0.56794116613E+02  0.47000000000E+01 0. -1.
         -5    1    1    2    0  503  0.39727662445E+02 -0.46063109647E+02  0.74122394241E+02  0.96001648744E+02  0.47000000000E+01 0.  1.
<mgrwt>
<rscale>  0 0.10795694E+03</rscale>
<asrwt>0</asrwt>
<pdfrwt beam="1">  1        1 0.89940580E-02 0.10909533E+03</pdfrwt>
<pdfrwt beam="2">  1       -1 0.31821653E-01 0.10909533E+03</pdfrwt>
<totfact> 0.63814310E+03</totfact>
</mgrwt>
</event>
<event>
 7    1  0.1466816E-006  0.3142649E+03  0.7546771E-02  0.1078319E+00
          2   -1    0    0  501    0  0.00000000000E+00  0.00000000000E+00  0.55534459295E+03  0.55534459295E+03  0.00000000000E+00 0. -1.
         -2   -1    0    0    0  501 -0.00000000000E+00 -0.00000000000E+00 -0.44459965583E+02  0.44459965583E+02  0.00000000000E+00 0.  1.
         23    2    1    2    0    0  0.26553903678E+02 -0.24091195553E+02  0.15632143493E+03  0.18355583646E+03  0.89279664967E+02 0.  0.
          5    1    1    2  502    0 -0.28239680540E+01 -0.91010787933E+02  0.21626978810E+03  0.23470332244E+03  0.47000000000E+01 0. -1.
         -5    1    3    3    0  503  0.52413696780E+02  0.87023190786E+01  0.75219325138E+02  0.92211511438E+02  0.47000000000E+01 0.  1.
          5    1    3    3  503    0 -0.25859793102E+02 -0.32793514631E+02  0.81102109789E+02  0.91344325020E+02  0.47000000000E+01 0. -1.
         -5    1    1    2    0  502 -0.23729935623E+02  0.11510198349E+03  0.13829340433E+03  0.18154539964E+03  0.47000000000E+01 0.  1.
<mgrwt>
<rscale>  0 0.31426487E+03</rscale>
<asrwt>0</asrwt>
<pdfrwt beam="1">  1        2 0.85437625E-01 0.31426487E+03</pdfrwt>
<pdfrwt beam="2">  1       -2 0.68399951E-02 0.31426487E+03</pdfrwt>
<totfact> 0.66747626E+03</totfact>
</mgrwt>
</event>
<event>
 7    1  0.1466816E-006  0.8624272E+02  0.7546771E-02  0.1325200E+00
         -2   -1    0    0    0  501 -0.00000000000E+00  0.00000000000E+00  0.15131902695E+02  0.15131902695E+02  0.00000000000E+00 0.  1.
          2   -1    0    0  501    0  0.00000000000E+00 -0.00000000000E+00 -0.39485239148E+03  0.39485239148E+03  0.00000000000E+00 0. -1.
         23    2    1    2    0    0 -0.46321705882E+01 -0.84783372860E+01 -0.21141676849E+03  0.22833058626E+03  0.85699868239E+02 0.  0.
          5    1    3    3  502    0 -0.29283478908E+02 -0.37512961043E+02 -0.11361401883E+03  0.12326791821E+03  0.47000000000E+01 0. -1.
         -5    1    3    3    0  502  0.24651308320E+02  0.29034623757E+02 -0.97802749652E+02  0.10506266805E+03  0.47000000000E+01 0.  1.
          5    1    1    2  503    0  0.26607634131E+02 -0.13384429299E+02 -0.43208882712E+02  0.52689720884E+02  0.47000000000E+01 0. -1.
         -5    1    1    2    0  503 -0.21975463542E+02  0.21862766585E+02 -0.12509483759E+03  0.12896398703E+03  0.47000000000E+01 0.  1.
<mgrwt>
<rscale>  0 0.81372721E+02</rscale>
<asrwt>0</asrwt>
<pdfrwt beam="1">  1        2 0.60746529E-01 0.86242719E+02</pdfrwt>
<pdfrwt beam="2">  1       -2 0.23279848E-02 0.86242719E+02</pdfrwt>
<totfact> 0.43820382E+04</totfact>
</mgrwt>
</event>
<event>
 7    1  0.1466816E-006  0.3386057E+03  0.7546771E-02  0.1067391E+00
          2   -1    0    0  501    0  0.00000000000E+00  0.00000000000E+00  0.13678031851E+03  0.13678031851E+03  0.00000000000E+00 0. -1.
         -2   -1    0    0    0  501 -0.00000000000E+00 -0.00000000000E+00 -0.20955831790E+03  0.20955831790E+03  0.00000000000E+00 0.  1.
         23    2    1    2    0    0  0.70860455435E+02  0.72210992205E+02 -0.27764698216E+02  0.13684324989E+03  0.87861055271E+02 0.  0.
          5    1    3    3  502    0  0.16905392622E+02  0.30664222563E+02  0.30825276788E+02  0.46886826872E+02  0.47000000000E+01 0. -1.
         -5    1    3    3    0  502  0.53955062813E+02  0.41546769643E+02 -0.58589975005E+02  0.89956423017E+02  0.47000000000E+01 0.  1.
          5    1    1    2  503    0 -0.31634534096E+02 -0.17928442256E+01 -0.10443928860E+03  0.10924107763E+03  0.47000000000E+01 0. -1.
         -5    1    1    2    0  503 -0.39225921339E+02 -0.70418147980E+02  0.59425987431E+02  0.10025430889E+03  0.47000000000E+01 0.  1.
<mgrwt>
<rscale>  0 0.33860569E+03</rscale>
<asrwt>0</asrwt>
<pdfrwt beam="1">  1        2 0.21043126E-01 0.33860569E+03</pdfrwt>
<pdfrwt beam="2">  1       -2 0.32239741E-01 0.33860569E+03</pdfrwt>
<totfact> 0.23534941E+03</totfact>
</mgrwt>
</event>
<event>
 7    1  0.1466816E-006  0.5194884E+03  0.7546771E-02  0.1008814E+00
          2   -1    0    0  501    0  0.00000000000E+00  0.00000000000E+00  0.15462925236E+03  0.15462925236E+03  0.00000000000E+00 0. -1.
         -2   -1    0    0    0  501 -0.00000000000E+00 -0.00000000000E+00 -0.43631498357E+03  0.43631498357E+03  0.00000000000E+00 0.  1.
         23    2    1    2    0    0 -0.17842605480E+02 -0.85846850270E+02  0.10610690171E+03  0.16165494800E+03  0.84767961815E+02 0.  0.
          5    1    1    2  502    0  0.25417110223E+02 -0.82025043487E+01  0.29595823044E+01  0.27279290626E+02  0.47000000000E+01 0. -1.
         -5    1    3    3    0  503  0.20479656847E+02 -0.24353184366E+01  0.49190057001E+02  0.53545296976E+02  0.47000000000E+01 0.  1.
          5    1    3    3  503    0 -0.38322262327E+02 -0.83411531834E+02  0.56916844709E+02  0.10810965102E+03  0.47000000000E+01 0. -1.
         -5    1    1    2    0  502 -0.75745047422E+01  0.94049354619E+02 -0.39075221523E+03  0.40200999731E+03  0.47000000000E+01 0.  1.
<mgrwt>
<rscale>  0 0.51948844E+03</rscale>
<asrwt>0</asrwt>
<pdfrwt beam="1">  1        2 0.23789116E-01 0.51948844E+03</pdfrwt>
<pdfrwt beam="2">  1       -2 0.67125381E-01 0.51948844E+03</pdfrwt>
<totfact> 0.47682400E+02</totfact>
</mgrwt>
</event>
<event>
 7    1  0.1466816E-006  0.1409792E+03  0.7546771E-02  0.1228543E+00
          2   -1    0    0  501    0  0.00000000000E+00  0.00000000000E+00  0.15962316996E+03  0.15962316996E+03  0.00000000000E+00 0. -1.
         -2   -1    0    0    0  501 -0.00000000000E+00 -0.00000000000E+00 -0.94527979689E+02  0.94527979689E+02  0.00000000000E+00 0.  1.
         23    2    1    2    0    0 -0.16568890099E+00 -0.43416159165E+02  0.19612706960E+01  0.99680978992E+02  0.89707639924E+02 0.  0.
          5    1    1    2  502    0 -0.48533710147E+02  0.69685563255E+02  0.43815643486E+02  0.95673922052E+02  0.47000000000E+01 0. -1.
         -5    1    1    2    0  502  0.48699399048E+02 -0.26269404090E+02  0.19318276091E+02  0.58796248605E+02  0.47000000000E+01 0.  1.
          5    1    3    3  503    0 -0.11824149129E+02  0.25978998932E+02 -0.23635707413E+01  0.29024047870E+02  0.47000000000E+01 0. -1.
         -5    1    3    3    0  503  0.11658460228E+02 -0.69395158097E+02  0.43248414373E+01  0.70656931122E+02  0.47000000000E+01 0.  1.
<mgrwt>
<rscale>  0 0.12927019E+03</rscale>
<asrwt>0</asrwt>
<pdfrwt beam="1">  1        2 0.24557411E-01 0.14097922E+03</pdfrwt>
<pdfrwt beam="2">  1       -2 0.14542766E-01 0.14097922E+03</pdfrwt>
<totfact> 0.75134293E+03</totfact>
</mgrwt>
</event>
<event>
 7    1  0.1466816E-006  0.1552277E+03  0.7546771E-02  0.1217949E+00
         -2   -1    0    0    0  501 -0.00000000000E+00  0.00000000000E+00  0.18966697723E+03  0.18966697723E+03  0.00000000000E+00 0.  1.
          2   -1    0    0  501    0  0.00000000000E+00 -0.00000000000E+00 -0.88287132300E+02  0.88287132300E+02  0.00000000000E+00 0. -1.
         23    2    1    2    0    0 -0.46344972085E+01  0.25443736794E+01  0.11003382408E+01  0.93152582664E+02  0.92995916636E+02 0.  0.
          5    1    3    3  502    0 -0.31483845829E+02  0.15824823781E+02  0.33451622496E+02  0.48813508822E+02  0.47000000000E+01 0. -1.
         -5    1    3    3    0  502  0.26849348620E+02 -0.13280450101E+02 -0.32351284256E+02  0.44339073842E+02  0.47000000000E+01 0.  1.
          5    1    1    2  503    0 -0.39068704392E+02  0.63430067959E+02  0.60616318419E+02  0.96156982288E+02  0.47000000000E+01 0. -1.
         -5    1    1    2    0  503  0.43703201600E+02 -0.65974441639E+02  0.39663188273E+02  0.88644544579E+02  0.47000000000E+01 0.  1.
<mgrwt>
<rscale>  0 0.13662116E+03</rscale>
<asrwt>0</asrwt>
<pdfrwt beam="1">  1        2 0.13582636E-01 0.15522765E+03</pdfrwt>
<pdfrwt beam="2">  1       -2 0.29179535E-01 0.15522765E+03</pdfrwt>
<totfact> 0.45473907E+03</totfact>
</mgrwt>
</event>
<event>
 7    1  0.2580139E-006  0.4608217E+03  0.7546771E-02  0.1080039E+00
         -2   -1    0    0    0  501 -0.00000000000E+00  0.00000000000E+00  0.15006248825E+03  0.15006248825E+03  0.00000000000E+00 0.  1.
          2   -1    0    0  501    0  0.00000000000E+00 -0.00000000000E+00 -0.51690974633E+03  0.51690974633E+03  0.00000000000E+00 0. -1.
         23    2    1    2    0    0  0.57673643076E+01 -0.75723753004E+01 -0.78638150513E+02  0.12344564500E+03  0.94679803520E+02 0.  0.
          5    1    3    3  502    0  0.18298800597E+02  0.38165868711E+02 -0.56884499278E+02  0.71059242157E+02  0.47000000000E+01 0. -1.
         -5    1    3    3    0  502 -0.12531436290E+02 -0.45738244012E+02 -0.21753651234E+02  0.52386402842E+02  0.47000000000E+01 0.  1.
          5    1    1    2  503    0 -0.82669881307E+02 -0.51487050467E+02 -0.39050838957E+03  0.40249735150E+03  0.47000000000E+01 0. -1.
         -5    1    1    2    0  503  0.76902516999E+02  0.59059425768E+02  0.10229928200E+03  0.14102923807E+03  0.47000000000E+01 0.  1.
<mgrwt>
<rscale>  0 0.31064186E+03</rscale>
<asrwt>0</asrwt>
<pdfrwt beam="1">  1        2 0.79524576E-01 0.46082173E+03</pdfrwt>
<pdfrwt beam="2">  1       -2 0.23086537E-01 0.46082173E+03</pdfrwt>
<totfact> 0.98344777E+02</totfact>
</mgrwt>
</event>
<event>
 7    1  0.1466816E-006  0.4927117E+03  0.7546771E-02  0.1074522E+00
          2   -1    0    0  501    0  0.00000000000E+00  0.00000000000E+00  0.36650223111E+03  0.36650223111E+03  0.00000000000E+00 0. -1.
         -2   -1    0    0    0  501 -0.00000000000E+00 -0.00000000000E+00 -0.29057701180E+03  0.29057701180E+03  0.00000000000E+00 0.  1.
         23    2    1    2    0    0  0.25185709678E+01 -0.14857496241E+01 -0.99165371758E+02  0.13418196456E+03  0.90346433282E+02 0.  0.
          5    1    3    3  502    0 -0.20261757003E+02  0.32657369199E+02 -0.17145733148E+02  0.42345114535E+02  0.47000000000E+01 0. -1.
         -5    1    1    2    0  503 -0.22352737255E+03 -0.81426123428E+02  0.15915493361E+03  0.28626400883E+03  0.47000000000E+01 0.  1.
          5    1    1    2  503    0  0.22100880158E+03  0.82911873052E+02  0.15935657454E+02  0.23663326953E+03  0.47000000000E+01 0. -1.
         -5    1    3    3    0  502  0.22780327970E+02 -0.34143118823E+02 -0.82019638610E+02  0.91836850028E+02  0.47000000000E+01 0.  1.
<mgrwt>
<rscale>  0 0.32246254E+03</rscale>
<asrwt>0</asrwt>
<pdfrwt beam="1">  1        2 0.56384959E-01 0.49271173E+03</pdfrwt>
<pdfrwt beam="2">  1       -2 0.44704156E-01 0.49271173E+03</pdfrwt>
<totfact> 0.42161114E+02</totfact>
</mgrwt>
</event>
<event>
 7    1  0.1466816E-006  0.4788242E+03  0.7546771E-02  0.1019459E+00
          2   -1    0    0  501    0  0.00000000000E+00  0.00000000000E+00  0.35180735448E+03  0.35180735448E+03  0.00000000000E+00 0. -1.
         -2   -1    0    0    0  501 -0.00000000000E+00 -0.00000000000E+00 -0.16292479955E+03  0.16292479955E+03  0.00000000000E+00 0.  1.
         23    2    1    2    0    0  0.75898296431E+02 -0.12809805302E+03 -0.52987949621E+02  0.18379798128E+03  0.93831298233E+02 0.  0.
          5    1    1    2  502    0  0.29686783855E+02 -0.17190329233E+00  0.12294300092E+03  0.12656384224E+03  0.47000000000E+01 0. -1.
         -5    1    3    3    0  503  0.76994680686E+01 -0.99559343471E+02 -0.43836983019E+02  0.10915638214E+03  0.47000000000E+01 0.  1.
          5    1    3    3  503    0  0.68198828362E+02 -0.28538709552E+02 -0.91509666015E+01  0.74641599143E+02  0.47000000000E+01 0. -1.
         -5    1    1    2    0  502 -0.10558508029E+03  0.12826995632E+03  0.11892750363E+03  0.20437033051E+03  0.47000000000E+01 0.  1.
<mgrwt>
<rscale>  0 0.47882415E+03</rscale>
<asrwt>0</asrwt>
<pdfrwt beam="1">  1        2 0.54124208E-01 0.47882415E+03</pdfrwt>
<pdfrwt beam="2">  1       -2 0.25065354E-01 0.47882415E+03</pdfrwt>
<totfact> 0.13085897E+03</totfact>
</mgrwt>
</event>
<event>
 7    1  0.1466816E-006  0.1215465E+03  0.7546771E-02  0.1242787E+00
         -2   -1    0    0    0  501 -0.00000000000E+00  0.00000000000E+00  0.25954092509E+03  0.25954092509E+03  0.00000000000E+00 0.  1.
          2   -1    0    0  501    0  0.00000000000E+00 -0.00000000000E+00 -0.70463628202E+02  0.70463628202E+02  0.00000000000E+00 0. -1.
         23    2    1    2    0    0 -0.31664158115E+02  0.37424780065E+02  0.14245909069E+02  0.11707364380E+03  0.10535681788E+03 0.  0.
          5    1    1    2  502    0  0.68806087708E+02 -0.46271398644E+02  0.11739445623E+03  0.14380148953E+03  0.47000000000E+01 0. -1.
         -5    1    3    3    0  503 -0.23606248396E+02  0.71225127861E+02 -0.79086840212E+01  0.75597030927E+02  0.47000000000E+01 0.  1.
          5    1    3    3  503    0 -0.80579097189E+01 -0.33800347796E+02  0.22154593090E+02  0.41476612870E+02  0.47000000000E+01 0. -1.
         -5    1    1    2    0  502 -0.37141929593E+02  0.88466185793E+01  0.57436931590E+02  0.69129419965E+02  0.47000000000E+01 0.  1.
<mgrwt>
<rscale>  0 0.12018821E+03</rscale>
<asrwt>0</asrwt>
<pdfrwt beam="1">  1        2 0.10840558E-01 0.12154653E+03</pdfrwt>
<pdfrwt beam="2">  1       -2 0.39929373E-01 0.12154653E+03</pdfrwt>
<totfact> 0.32969041E+03</totfact>
</mgrwt>
</event>
<event>
 7    1  0.1466816E-006  0.1372977E+03  0.7546771E-02  0.1235769E+00
         -1   -1    0    0    0  501 -0.00000000000E+00  0.00000000000E+00  0.61069446410E+03  0.61069446410E+03  0.00000000000E+00 0.  1.
          1   -1    0    0  501    0  0.00000000000E+00 -0.00000000000E+00 -0.29630420015E+02  0.29630420015E+02  0.00000000000E+00 0. -1.
         23    2    1    2    0    0 -0.75828493334E+01  0.10643266278E+02  0.86303500869E+02  0.12686733671E+03  0.92066541921E+02 0.  0.
          5    1    3    3  502    0 -0.20897233578E+02  0.38063773094E+02  0.85505506867E+02  0.96014722298E+02  0.47000000000E+01 0. -1.
         -5    1    1    2    0  503 -0.16586731645E+02 -0.50881374103E+02  0.42996792324E+03  0.43331113408E+03  0.47000000000E+01 0.  1.
          5    1    1    2  503    0  0.24169580978E+02  0.40238107825E+02  0.64792619971E+02  0.80146413323E+02  0.47000000000E+01 0. -1.
         -5    1    3    3    0  502  0.13314384245E+02 -0.27420506816E+02  0.79799400214E+00  0.30852614415E+02  0.47000000000E+01 0.  1.
<mgrwt>
<rscale>  0 0.12455346E+03</rscale>
<asrwt>0</asrwt>
<pdfrwt beam="1">  1        1 0.45585266E-02 0.13729770E+03</pdfrwt>
<pdfrwt beam="2">  1       -1 0.93952985E-01 0.13729770E+03</pdfrwt>
<totfact> 0.21265121E+03</totfact>
</mgrwt>
</event>
<event>
 6    1  0.1466816E-006  0.2619451E+03  0.7546771E-02  0.1143070E+00
          3   -1    0    0  501    0  0.00000000000E+00  0.00000000000E+00  0.80149463673E+02  0.80149463673E+02  0.00000000000E+00 0. -1.
         -3   -1    0    0    0  501 -0.00000000000E+00 -0.00000000000E+00 -0.45932493260E+03  0.45932493260E+03  0.00000000000E+00 0.  1.
          5    1    1    2  502    0  0.23442776351E+02  0.15643633954E+03 -0.21786702590E+03  0.26927685208E+03  0.47000000000E+01 0. -1.
         -5    1    1    2    0  503  0.65582555887E+01 -0.40419586884E+02 -0.30621709196E+02  0.51347179030E+02  0.47000000000E+01 0.  1.
          5    1    1    2  503    0  0.42178186466E+02 -0.42528340425E+02 -0.11363275717E+02  0.61146326038E+02  0.47000000000E+01 0. -1.
         -5    1    1    2    0  502 -0.72179218406E+02 -0.73488412227E+02 -0.11932345812E+03  0.15770403913E+03  0.47000000000E+01 0.  1.
<mgrwt>
<rscale>  0 0.20811169E+03</rscale>
<asrwt>0</asrwt>
<pdfrwt beam="1">  1        3 0.12330687E-01 0.26194514E+03</pdfrwt>
<pdfrwt beam="2">  1       -3 0.70665375E-01 0.26194514E+03</pdfrwt>
<totfact> 0.25397234E+02</totfact>
</mgrwt>
</event>
<event>
 7    1  0.1466816E-006  0.1003480E+03  0.7546771E-02  0.1286353E+00
         -2   -1    0    0    0  501 -0.00000000000E+00  0.00000000000E+00  0.26776085898E+03  0.26776085898E+03  0.00000000000E+00 0. -1.
          2   -1    0    0  501    0  0.00000000000E+00 -0.00000000000E+00 -0.40042218500E+02  0.40042218500E+02  0.00000000000E+00 0.  1.
         23    2    1    2    0    0  0.12789074566E+02  0.40370454273E+02  0.56444659194E+02  0.11513346165E+03  0.90974614229E+02 0.  0.
          5    1    3    3  502    0  0.18635641486E+02 -0.21232405528E+02  0.42954279374E+02  0.51626178385E+02  0.47000000000E+01 0. -1.
         -5    1    3    3    0  502 -0.58465669197E+01  0.61602859800E+02  0.13490379820E+02  0.63507283268E+02  0.47000000000E+01 0.  1.
          5    1    1    2  503    0 -0.34375270686E+02 -0.18524159821E+02  0.14986045734E+03  0.15493563311E+03  0.47000000000E+01 0. -1.
         -5    1    1    2    0  503  0.21586196120E+02 -0.21846294452E+02  0.21413523944E+02  0.37733982720E+02  0.47000000000E+01 0.  1.
<mgrwt>
<rscale>  0 0.97174282E+02</rscale>
<asrwt>0</asrwt>
<pdfrwt beam="1">  1        2 0.61603415E-02 0.10034797E+03</pdfrwt>
<pdfrwt beam="2">  1       -2 0.41193977E-01 0.10034797E+03</pdfrwt>
<totfact> 0.61881887E+03</totfact>
</mgrwt>
</event>
<event>
 7    1  0.1466816E-006  0.1885332E+03  0.7546771E-02  0.1188294E+00
          2   -1    0    0  501    0  0.00000000000E+00  0.00000000000E+00  0.23294798537E+03  0.23294798537E+03  0.00000000000E+00 0.  1.
         -2   -1    0    0    0  501 -0.00000000000E+00 -0.00000000000E+00 -0.90899929236E+02  0.90899929236E+02  0.00000000000E+00 0. -1.
         23    2    1    2    0    0 -0.44406997850E+02 -0.11827501527E+02  0.24486468287E+02  0.10166441808E+03  0.87316639450E+02 0.  0.
          5    1    3    3  502    0 -0.54129574200E+02  0.84764495972E+01  0.44839352563E+02  0.70954341228E+02  0.47000000000E+01 0. -1.
         -5    1    3    3    0  502  0.97225763502E+01 -0.20303951124E+02 -0.20352884276E+02  0.30710076856E+02  0.47000000000E+01 0.  1.
          5    1    1    2  503    0  0.67290713833E+02 -0.50420719812E+02 -0.32564543648E+01  0.84279200575E+02  0.47000000000E+01 0.  1.
         -5    1    1    2    0  503 -0.22883715983E+02  0.62248221339E+02  0.12081804222E+03  0.13790429595E+03  0.47000000000E+01 0. -1.
<mgrwt>
<rscale>  0 0.16035735E+03</rscale>
<asrwt>0</asrwt>
<pdfrwt beam="1">  1        2 0.35838151E-01 0.18853323E+03</pdfrwt>
<pdfrwt beam="2">  1       -2 0.13984605E-01 0.18853323E+03</pdfrwt>
<totfact> 0.53995591E+03</totfact>
</mgrwt>
</event>
<event>
 7    1  0.1466816E-006  0.1315376E+03  0.7546771E-02  0.1236985E+00
          3   -1    0    0  501    0  0.00000000000E+00  0.00000000000E+00  0.14060459250E+03  0.14060459250E+03  0.00000000000E+00 0. -1.
         -3   -1    0    0    0  501 -0.00000000000E+00 -0.00000000000E+00 -0.98326406390E+02  0.98326406390E+02  0.00000000000E+00 0.  1.
         23    2    1    2    0    0  0.72407766181E+02 -0.58903777591E+02  0.16196316384E+02  0.13253093230E+03  0.92680028772E+02 0.  0.
          5    1    3    3  502    0  0.11059579007E+01 -0.49522212348E+02  0.31452034673E+02  0.58864192373E+02  0.47000000000E+01 0.  1.
         -5    1    3    3    0  502  0.71301808281E+02 -0.93815652431E+01 -0.15255718288E+02  0.73666739924E+02  0.47000000000E+01 0.  1.
          5    1    1    2  503    0 -0.14280587759E+02  0.35073689753E+02 -0.14655798425E+00  0.38160324670E+02  0.47000000000E+01 0. -1.
         -5    1    1    2    0  503 -0.58127178423E+02  0.23830087838E+02  0.26228427710E+02  0.68239741924E+02  0.47000000000E+01 0. -1.
<mgrwt>
<rscale>  0 0.12378233E+03</rscale>
<asrwt>0</asrwt>
<pdfrwt beam="1">  1        3 0.21631476E-01 0.13153755E+03</pdfrwt>
<pdfrwt beam="2">  1       -3 0.15127139E-01 0.13153755E+03</pdfrwt>
<totfact> 0.16305717E+03</totfact>
</mgrwt>
</event>
<event>
 7    1  0.1466816E-006  0.9640178E+02  0.7546771E-02  0.1291993E+00
         -1   -1    0    0    0  501 -0.00000000000E+00  0.00000000000E+00  0.11702084049E+02  0.11702084049E+02  0.00000000000E+00 0.  1.
          1   -1    0    0  501    0  0.00000000000E+00 -0.00000000000E+00 -0.74250919683E+03  0.74250919683E+03  0.00000000000E+00 0. -1.
         23    2    1    2    0    0 -0.31137866271E+02 -0.14216935922E+02 -0.40607906988E+03  0.41736496432E+03  0.90120000376E+02 0.  0.
          5    1    1    2  502    0 -0.19465019956E+02  0.23613650370E+02 -0.64629100206E+02  0.71662417480E+02  0.47000000000E+01 0. -1.
         -5    1    3    3    0  503 -0.44285586238E+02  0.15590262094E+02 -0.11317213653E+03  0.12261440334E+03  0.47000000000E+01 0.  1.
          5    1    3    3  503    0  0.13147719967E+02 -0.29807198016E+02 -0.29290693335E+03  0.29475056098E+03  0.47000000000E+01 0. -1.
         -5    1    1    2    0  502  0.50602886227E+02 -0.93967144479E+01 -0.26009894269E+03  0.26518389907E+03  0.47000000000E+01 0.  1.
<mgrwt>
<rscale>  0 0.94638142E+02</rscale>
<asrwt>0</asrwt>
<pdfrwt beam="1">  1        1 0.11423221E+00 0.96401776E+02</pdfrwt>
<pdfrwt beam="2">  1       -1 0.18003203E-02 0.96401776E+02</pdfrwt>
<totfact> 0.19014447E+04</totfact>
</mgrwt>
</event>
<event>
 7    1  0.1466816E-006  0.7376019E+03  0.7546771E-02  0.1008362E+00
         -2   -1    0    0    0  501 -0.00000000000E+00  0.00000000000E+00  0.55006587697E+03  0.55006587697E+03  0.00000000000E+00 0. -1.
          2   -1    0    0  501    0  0.00000000000E+00 -0.00000000000E+00 -0.39151728615E+03  0.39151728615E+03  0.00000000000E+00 0.  1.
         23    2    1    2    0    0 -0.13659808543E+03 -0.82007849491E+02 -0.12299253932E+02  0.18445333599E+03  0.92127287982E+02 0.  0.
          5    1    1    2  502    0  0.13383561617E+03 -0.20254601964E+03  0.34618339685E+03  0.42284973274E+03  0.47000000000E+01 0. -1.
         -5    1    1    2    0  502  0.27624692645E+01  0.28455386913E+03 -0.17533555210E+03  0.33428009438E+03  0.47000000000E+01 0.  1.
          5    1    3    3  503    0 -0.11509224322E+03 -0.92257351524E+02  0.14498827516E+02  0.14829008517E+03  0.47000000000E+01 0. -1.
         -5    1    3    3    0  503 -0.21505842212E+02  0.10249502033E+02 -0.26798081448E+02  0.36163250829E+02  0.47000000000E+01 0.  1.
<mgrwt>
<rscale>  0 0.52131023E+03</rscale>
<asrwt>0</asrwt>
<pdfrwt beam="1">  1        2 0.60233429E-01 0.73760192E+03</pdfrwt>
<pdfrwt beam="2">  1       -2 0.84625520E-01 0.73760192E+03</pdfrwt>
<totfact> 0.10025013E+02</totfact>
</mgrwt>
</event>
<event>
 7    1  0.1466816E-006  0.5700523E+03  0.7546771E-02  0.1046419E+00
         -2   -1    0    0    0  501 -0.00000000000E+00  0.00000000000E+00  0.54316847927E+03  0.54316847927E+03  0.00000000000E+00 0.  1.
          2   -1    0    0  501    0  0.00000000000E+00 -0.00000000000E+00 -0.24183825265E+03  0.24183825265E+03  0.00000000000E+00 0. -1.
         23    2    1    2    0    0  0.65497779546E+02 -0.61035535319E+02  0.14590355174E+03  0.19414543302E+03  0.91593160534E+02 0.  0.
          5    1    1    2  502    0  0.10529082639E+03 -0.20294816569E+03 -0.22119123271E+02  0.22975086875E+03  0.47000000000E+01 0. -1.
         -5    1    3    3    0  503  0.21736442145E+02 -0.55543178951E+02  0.13617193238E+03  0.14873601720E+03  0.47000000000E+01 0.  1.
          5    1    3    3  503    0  0.43761337401E+02 -0.54923563689E+01  0.97316193533E+01  0.45409415817E+02  0.47000000000E+01 0. -1.
         -5    1    1    2    0  502 -0.17078860594E+03  0.26398370100E+03  0.17754579815E+03  0.36111043014E+03  0.47000000000E+01 0.  1.
<mgrwt>
<rscale>  0 0.39247025E+03</rscale>
<asrwt>0</asrwt>
<pdfrwt beam="1">  1        2 0.37205885E-01 0.57005230E+03</pdfrwt>
<pdfrwt beam="2">  1       -2 0.83564381E-01 0.57005230E+03</pdfrwt>
<totfact> 0.17752315E+02</totfact>
</mgrwt>
</event>
<event>
 7    1  0.1466816E-006  0.9625166E+02  0.7546771E-02  0.1288520E+00
          2   -1    0    0  501    0  0.00000000000E+00  0.00000000000E+00  0.41540185414E+02  0.41540185414E+02  0.00000000000E+00 0. -1.
         -2   -1    0    0    0  501 -0.00000000000E+00 -0.00000000000E+00 -0.23492072194E+03  0.23492072194E+03  0.00000000000E+00 0.  1.
         23    2    1    2    0    0 -0.21886422875E+02 -0.17861477762E+02 -0.64951596617E+02  0.11611671700E+03  0.92012684830E+02 0.  0.
          5    1    1    2  502    0 -0.26521001863E+02  0.31984958590E+02 -0.37041025881E+02  0.55861692725E+02  0.47000000000E+01 0. -1.
         -5    1    1    2    0  502  0.48407424738E+02 -0.14123480828E+02 -0.91387914031E+02  0.10448249763E+03  0.47000000000E+01 0.  1.
          5    1    3    3  503    0  0.24900406660E+02  0.12373658069E+02 -0.51347060595E+02  0.58581125780E+02  0.47000000000E+01 0. -1.
         -5    1    3    3    0  503 -0.46786829536E+02 -0.30235135831E+02 -0.13604536022E+02  0.57535591221E+02  0.47000000000E+01 0.  1.
<mgrwt>
<rscale>  0 0.96189031E+02</rscale>
<asrwt>0</asrwt>
<pdfrwt beam="1">  1        2 0.63907977E-02 0.96251660E+02</pdfrwt>
<pdfrwt beam="2">  1       -2 0.36141650E-01 0.96251660E+02</pdfrwt>
<totfact> 0.75117538E+03</totfact>
</mgrwt>
</event>
<event>
 7    1  0.1466816E-006  0.1384319E+03  0.7546771E-02  0.1235532E+00
         -2   -1    0    0    0  501 -0.00000000000E+00  0.00000000000E+00  0.28169237565E+02  0.28169237565E+02  0.00000000000E+00 0.  1.
          2   -1    0    0  501    0  0.00000000000E+00 -0.00000000000E+00 -0.49111108070E+03  0.49111108070E+03  0.00000000000E+00 0. -1.
         23    2    1    2    0    0  0.10094898371E+02 -0.19651737444E+02 -0.13069490097E+03  0.15934780390E+03  0.88444715568E+02 0.  0.
          5    1    3    3  502    0 -0.42676612677E+01 -0.44242185155E+02 -0.12085301833E+03  0.12885311761E+03  0.47000000000E+01 0. -1.
         -5    1    3    3    0  502  0.14362559639E+02  0.24590447712E+02 -0.98418826436E+01  0.30494686291E+02  0.47000000000E+01 0.  1.
          5    1    1    2  503    0 -0.49569284046E+02 -0.29588233740E+02 -0.73604712717E+02  0.93660670673E+02  0.47000000000E+01 0. -1.
         -5    1    1    2    0  503  0.39474385675E+02  0.49239971184E+02 -0.25864222945E+03  0.26627184369E+03  0.47000000000E+01 0.  1.
<mgrwt>
<rscale>  0 0.12470415E+03</rscale>
<asrwt>0</asrwt>
<pdfrwt beam="1">  1        2 0.75555552E-01 0.13843188E+03</pdfrwt>
<pdfrwt beam="2">  1       -2 0.43337288E-02 0.13843188E+03</pdfrwt>
<totfact> 0.14646746E+04</totfact>
</mgrwt>
</event>
<event>
 7    1  0.1466816E-006  0.2449720E+03  0.7546771E-02  0.1148591E+00
          2   -1    0    0  501    0  0.00000000000E+00  0.00000000000E+00  0.83827997750E+03  0.83827997750E+03  0.00000000000E+00 0. -1.
         -2   -1    0    0    0  501 -0.00000000000E+00 -0.00000000000E+00 -0.61140557596E+02  0.61140557596E+02  0.00000000000E+00 0.  1.
         23    2    1    2    0    0 -0.65693597739E+02 -0.16022929125E+02  0.33922505697E+02  0.11687170848E+03  0.89083538374E+02 0.  0.
          5    1    1    2  502    0  0.76576170133E+02 -0.97827696680E+02  0.29890300152E+03  0.32372714188E+03  0.47000000000E+01 0. -1.
         -5    1    1    2    0  502 -0.10882572394E+02  0.11385062580E+03  0.44431391269E+03  0.45882168474E+03  0.47000000000E+01 0.  1.
          5    1    3    3  503    0 -0.86933604549E+02 -0.64160850133E+01  0.20919379140E+02  0.89768191306E+02  0.47000000000E+01 0.  1.
         -5    1    3    3    0  503  0.21240006810E+02 -0.96068441116E+01  0.13003126558E+02  0.27103517177E+02  0.47000000000E+01 0. -1.
<mgrwt>
<rscale>  0 0.20136638E+03</rscale>
<asrwt>0</asrwt>
<pdfrwt beam="1">  1        2 0.12896614E+00 0.24497201E+03</pdfrwt>
<pdfrwt beam="2">  1       -2 0.94062402E-02 0.24497201E+03</pdfrwt>
<totfact> 0.24357304E+03</totfact>
</mgrwt>
</event>
<event>
 7    1  0.1466816E-006  0.9143401E+02  0.7546771E-02  0.1308175E+00
          2   -1    0    0  501    0  0.00000000000E+00  0.00000000000E+00  0.25098976056E+03  0.25098976056E+03  0.00000000000E+00 0.  1.
         -2   -1    0    0    0  501 -0.00000000000E+00 -0.00000000000E+00 -0.29381393364E+02  0.29381393364E+02  0.00000000000E+00 0. -1.
         23    2    1    2    0    0  0.27732321638E+01  0.71197596563E+01  0.14290247368E+03  0.16965051047E+03  0.91114197165E+02 0.  0.
          5    1    1    2  502    0 -0.11075586130E+02  0.16835653766E+02 -0.65069888779E+01  0.21691905175E+02  0.47000000000E+01 0. -1.
         -5    1    3    3    0  503 -0.23663106732E+02 -0.12443971260E+02  0.13188421171E+03  0.13464891510E+03  0.47000000000E+01 0.  1.
          5    1    3    3  503    0  0.26436338896E+02  0.19563730917E+02  0.11018261978E+02  0.35001595372E+02  0.47000000000E+01 0. -1.
         -5    1    1    2    0  502  0.83023539658E+01 -0.23955413423E+02  0.85212882394E+02  0.89028738279E+02  0.47000000000E+01 0.  1.
<mgrwt>
<rscale>  0 0.87837447E+02</rscale>
<asrwt>0</asrwt>
<pdfrwt beam="1">  1        2 0.38613808E-01 0.91434013E+02</pdfrwt>
<pdfrwt beam="2">  1       -2 0.45202145E-02 0.91434013E+02</pdfrwt>
<totfact> 0.26944117E+04</totfact>
</mgrwt>
</event>
<event>
 7    1  0.1466816E-006  0.1670045E+03  0.7546771E-02  0.1204088E+00
         -2   -1    0    0    0  501 -0.00000000000E+00  0.00000000000E+00  0.18524746193E+02  0.18524746193E+02  0.00000000000E+00 0.  1.
          2   -1    0    0  501    0  0.00000000000E+00 -0.00000000000E+00 -0.10079223140E+04  0.10079223140E+04  0.00000000000E+00 0. -1.
         23    2    1    2    0    0 -0.46077058084E+02 -0.15695647074E+01 -0.27509906950E+03  0.29288531234E+03  0.89312649318E+02 0.  0.
          5    1    1    2  502    0  0.23211868972E+02 -0.76500404218E+02 -0.26142418071E+03  0.27341505987E+03  0.47000000000E+01 0. -1.
         -5    1    3    3    0  503 -0.71188712618E+02 -0.13005319848E+02 -0.19888868993E+03  0.21169735976E+03  0.47000000000E+01 0.  1.
          5    1    3    3  503    0  0.25111654533E+02  0.11435755141E+02 -0.76210379569E+02  0.81187952574E+02  0.47000000000E+01 0. -1.
         -5    1    1    2    0  502  0.22865189112E+02  0.78069968926E+02 -0.45287431764E+03  0.46014668802E+03  0.47000000000E+01 0.  1.
<mgrwt>
<rscale>  0 0.14709525E+03</rscale>
<asrwt>0</asrwt>
<pdfrwt beam="1">  1        2 0.15506502E+00 0.16700447E+03</pdfrwt>
<pdfrwt beam="2">  1       -2 0.28499600E-02 0.16700447E+03</pdfrwt>
<totfact> 0.11559578E+04</totfact>
</mgrwt>
</event>
<event>
 7    1  0.1466816E-006  0.6555125E+03  0.7546771E-02  0.1037074E+00
         -2   -1    0    0    0  501 -0.00000000000E+00  0.00000000000E+00  0.25900281311E+03  0.25900281311E+03  0.00000000000E+00 0.  1.
          2   -1    0    0  501    0  0.00000000000E+00 -0.00000000000E+00 -0.64351322405E+03  0.64351322405E+03  0.00000000000E+00 0. -1.
         23    2    1    2    0    0 -0.64008518682E+02 -0.12918176009E+02  0.44522982752E+02  0.11908369048E+03  0.89076706330E+02 0.  0.
          5    1    3    3  502    0 -0.18745219738E+02  0.34961845108E+02  0.96452512784E+00  0.39959156461E+02  0.47000000000E+01 0. -1.
         -5    1    1    2    0  503 -0.16809075801E+02 -0.38135595348E+02  0.17087026318E+03  0.17594205155E+03  0.47000000000E+01 0.  1.
          5    1    1    2  503    0  0.80817594484E+02  0.51053771357E+02 -0.59990365688E+03  0.60749029514E+03  0.47000000000E+01 0. -1.
         -5    1    3    3    0  502 -0.45263298944E+02 -0.47880021117E+02  0.43558457624E+02  0.79124534021E+02  0.47000000000E+01 0.  1.
<mgrwt>
<rscale>  0 0.41997612E+03</rscale>
<asrwt>0</asrwt>
<pdfrwt beam="1">  1        2 0.99002033E-01 0.65551246E+03</pdfrwt>
<pdfrwt beam="2">  1       -2 0.39846587E-01 0.65551246E+03</pdfrwt>
<totfact> 0.27451324E+02</totfact>
</mgrwt>
</event>
<event>
 7    1  0.1466816E-006  0.3940018E+03  0.7546771E-02  0.1045877E+00
         -2   -1    0    0    0  501 -0.00000000000E+00  0.00000000000E+00  0.80162272752E+02  0.80162272752E+02  0.00000000000E+00 0.  1.
          2   -1    0    0  501    0  0.00000000000E+00 -0.00000000000E+00 -0.48413491526E+03  0.48413491526E+03  0.00000000000E+00 0. -1.
         23    2    1    2    0    0  0.13649615794E+03  0.61571819159E+02 -0.19228997956E+03  0.26043059382E+03  0.91795249921E+02 0.  0.
          5    1    1    2  502    0 -0.10287287568E+03 -0.11520515418E+03 -0.15099851494E+03  0.21605022012E+03  0.47000000000E+01 0. -1.
         -5    1    1    2    0  502 -0.33623282264E+02  0.53633335023E+02 -0.60684148012E+02  0.87816374075E+02  0.47000000000E+01 0.  1.
          5    1    3    3  503    0  0.37539852758E+02 -0.11937971244E+02 -0.96206665584E+02  0.10406521131E+03  0.47000000000E+01 0. -1.
         -5    1    3    3    0  503  0.98956305186E+02  0.73509790403E+02 -0.96083313975E+02  0.15636538250E+03  0.47000000000E+01 0.  1.
<mgrwt>
<rscale>  0 0.39400180E+03</rscale>
<asrwt>0</asrwt>
<pdfrwt beam="1">  1        2 0.74482293E-01 0.39400180E+03</pdfrwt>
<pdfrwt beam="2">  1       -2 0.12332658E-01 0.39400180E+03</pdfrwt>
<totfact> 0.30701903E+03</totfact>
</mgrwt>
</event>
<event>
 7    1  0.1466816E-006  0.1405277E+03  0.7546771E-02  0.1226895E+00
         -1   -1    0    0    0  501 -0.00000000000E+00  0.00000000000E+00  0.93404213651E+02  0.93404213651E+02  0.00000000000E+00 0.  1.
          1   -1    0    0  501    0  0.00000000000E+00 -0.00000000000E+00 -0.16131299423E+03  0.16131299423E+03  0.00000000000E+00 0. -1.
         23    2    1    2    0    0 -0.39818129392E+02 -0.35113763005E+02 -0.18464703411E+02  0.10574490960E+03  0.89568860955E+02 0.  0.
          5    1    1    2  502    0  0.75158390992E+02 -0.11485584455E+02 -0.68796964599E+01  0.76486094228E+02  0.47000000000E+01 0. -1.
         -5    1    1    2    0  502 -0.35340261600E+02  0.46599347460E+02 -0.42564380711E+02  0.72486204059E+02  0.47000000000E+01 0.  1.
          5    1    3    3  503    0 -0.14152498007E+02  0.18425366066E+02  0.23114492077E+02  0.33108262692E+02  0.47000000000E+01 0. -1.
         -5    1    3    3    0  503 -0.25665631385E+02 -0.53539129071E+02 -0.41579195488E+02  0.72636646904E+02  0.47000000000E+01 0.  1.
<mgrwt>
<rscale>  0 0.13037829E+03</rscale>
<asrwt>0</asrwt>
<pdfrwt beam="1">  1        1 0.24817384E-01 0.14052768E+03</pdfrwt>
<pdfrwt beam="2">  1       -1 0.14369879E-01 0.14052768E+03</pdfrwt>
<totfact> 0.63346207E+03</totfact>
</mgrwt>
</event>
<event>
 7    1  0.1466816E-006  0.1249056E+03  0.7546771E-02  0.1243495E+00
          2   -1    0    0  501    0  0.00000000000E+00  0.00000000000E+00  0.38352669301E+03  0.38352669301E+03  0.00000000000E+00 0. -1.
         -2   -1    0    0    0  501 -0.00000000000E+00 -0.00000000000E+00 -0.46328783491E+02  0.46328783491E+02  0.00000000000E+00 0.  1.
         23    2    1    2    0    0  0.32675256526E+02  0.42911825191E+02  0.26577820693E+03  0.28597292619E+03  0.90737875788E+02 0.  0.
          5    1    1    2  502    0  0.50162243245E+01 -0.47498333676E+02  0.89507918778E+02  0.10156284622E+03  0.47000000000E+01 0. -1.
         -5    1    3    3    0  503 -0.14588370896E+02 -0.14173848527E+02  0.18875380215E+02  0.28144067327E+02  0.47000000000E+01 0.  1.
          5    1    3    3  503    0  0.47263627422E+02  0.57085673718E+02  0.24690282672E+03  0.25782885886E+03  0.47000000000E+01 0. -1.
         -5    1    1    2    0  502 -0.37691480851E+02  0.45865084846E+01 -0.18088216196E+02  0.42319704087E+02  0.47000000000E+01 0.  1.
<mgrwt>
<rscale>  0 0.11975926E+03</rscale>
<asrwt>0</asrwt>
<pdfrwt beam="1">  1        2 0.59004105E-01 0.12490562E+03</pdfrwt>
<pdfrwt beam="2">  1       -2 0.71275054E-02 0.12490562E+03</pdfrwt>
<totfact> 0.89520828E+03</totfact>
</mgrwt>
</event>
<event>
 7    1  0.1466816E-006  0.1577357E+03  0.7546771E-02  0.1208676E+00
         -2   -1    0    0    0  501 -0.00000000000E+00  0.00000000000E+00  0.53791220631E+02  0.53791220631E+02  0.00000000000E+00 0.  1.
          2   -1    0    0  501    0  0.00000000000E+00 -0.00000000000E+00 -0.34077559292E+03  0.34077559292E+03  0.00000000000E+00 0. -1.
         23    2    1    2    0    0  0.29811205784E+02 -0.10569326826E+02 -0.15459128996E+03  0.18863359012E+03  0.10336220650E+03 0.  0.
          5    1    1    2  502    0 -0.16181557217E+02 -0.61297818626E+02 -0.11373654134E+03  0.13029718415E+03  0.47000000000E+01 0. -1.
         -5    1    3    3    0  503 -0.21619197027E+02  0.18224573189E+02 -0.68094553763E+01  0.29461558522E+02  0.47000000000E+01 0.  1.
          5    1    3    3  503    0  0.51430402811E+02 -0.28793900015E+02 -0.14778183458E+03  0.15917203160E+03  0.47000000000E+01 0. -1.
         -5    1    1    2    0  502 -0.13629648567E+02  0.71867145452E+02 -0.18656540988E+02  0.75636039274E+02  0.47000000000E+01 0.  1.
<mgrwt>
<rscale>  0 0.14351500E+03</rscale>
<asrwt>0</asrwt>
<pdfrwt beam="1">  1        2 0.52427015E-01 0.15773574E+03</pdfrwt>
<pdfrwt beam="2">  1       -2 0.82755722E-02 0.15773574E+03</pdfrwt>
<totfact> 0.81946645E+03</totfact>
</mgrwt>
</event>
<event>
 7    1  0.1466816E-006  0.8647420E+03  0.7546771E-02  0.9944120E-01
          2   -1    0    0  501    0  0.00000000000E+00  0.00000000000E+00  0.37863306024E+03  0.37863306024E+03  0.00000000000E+00 0. -1.
         -2   -1    0    0    0  501 -0.00000000000E+00 -0.00000000000E+00 -0.82013438952E+03  0.82013438952E+03  0.00000000000E+00 0.  1.
         23    2    1    2    0    0 -0.12620220587E+03 -0.86936683757E+02  0.74137423379E+02  0.19195961187E+03  0.88696963279E+02 0.  0.
          5    1    3    3  502    0 -0.10272886574E+03 -0.10314248506E+03  0.49060665146E+02  0.15369004830E+03  0.47000000000E+01 0. -1.
         -5    1    1    2    0  503 -0.16584928687E+02 -0.25757388141E+03 -0.57393664474E+03  0.62932084537E+03  0.47000000000E+01 0.  1.
          5    1    1    2  503    0  0.14278713455E+03  0.34451056517E+03  0.58297892080E+02  0.37748699252E+03  0.47000000000E+01 0. -1.
         -5    1    3    3    0  502 -0.23473340125E+02  0.16205801302E+02  0.25076758233E+02  0.38269563571E+02  0.47000000000E+01 0.  1.
<mgrwt>
<rscale>  0 0.58169898E+03</rscale>
<asrwt>0</asrwt>
<pdfrwt beam="1">  1        2 0.58251241E-01 0.86474198E+03</pdfrwt>
<pdfrwt beam="2">  1       -2 0.12617452E+00 0.86474198E+03</pdfrwt>
<totfact> 0.39786534E+01</totfact>
</mgrwt>
</event>
<event>
 7    1  0.1466816E-006  0.6934199E+03  0.7546771E-02  0.9728552E-01
          2   -1    0    0  501    0  0.00000000000E+00  0.00000000000E+00  0.11421507633E+04  0.11421507633E+04  0.00000000000E+00 0. -1.
         -2   -1    0    0    0  501 -0.00000000000E+00 -0.00000000000E+00 -0.10524686291E+03  0.10524686291E+03  0.00000000000E+00 0.  1.
         23    2    1    2    0    0  0.20586532583E+03  0.57867508984E+02  0.24422025304E+03  0.33482685074E+03  0.82075008425E+02 0.  0.
          5    1    1    2  502    0 -0.31297669646E+03  0.27775411770E+02  0.57438470586E+03  0.65472571842E+03  0.47000000000E+01 0. -1.
         -5    1    1    2    0  502  0.10711137063E+03 -0.85642920754E+02  0.21829894147E+03  0.25784505704E+03  0.47000000000E+01 0.  1.
          5    1    3    3  503    0  0.49918802534E+02  0.27731661875E+02  0.21426965918E+02  0.61173006998E+02  0.47000000000E+01 0. -1.
         -5    1    3    3    0  503  0.15594652330E+03  0.30135847109E+02  0.22279328712E+03  0.27365384374E+03  0.47000000000E+01 0.  1.
<mgrwt>
<rscale>  0 0.69341989E+03</rscale>
<asrwt>0</asrwt>
<pdfrwt beam="1">  1        2 0.17571549E+00 0.69341989E+03</pdfrwt>
<pdfrwt beam="2">  1       -2 0.16191826E-01 0.69341989E+03</pdfrwt>
<totfact> 0.63702460E+02</totfact>
</mgrwt>
</event>
<event>
 7    1  0.1466816E-006  0.1228284E+03  0.7546771E-02  0.1251815E+00
         -2   -1    0    0    0  501 -0.00000000000E+00  0.00000000000E+00  0.26855415619E+02  0.26855415619E+02  0.00000000000E+00 0.  1.
          2   -1    0    0  501    0  0.00000000000E+00 -0.00000000000E+00 -0.48289338303E+03  0.48289338303E+03  0.00000000000E+00 0. -1.
         23    2    1    2    0    0 -0.62325145932E+01  0.81051083010E+02 -0.33310693518E+03  0.35503104365E+03  0.92079799057E+02 0.  0.
          5    1    1    2  502    0  0.37661585907E+01 -0.28124666567E+02 -0.84037470706E+02  0.88823236277E+02  0.47000000000E+01 0.  1.
         -5    1    1    2    0  502  0.24663560024E+01 -0.52926416444E+02 -0.38893561521E+02  0.65894518719E+02  0.47000000000E+01 0.  1.
          5    1    3    3  503    0 -0.36987251029E+02  0.10134804707E+02 -0.17189369047E+03  0.17618258095E+03  0.47000000000E+01 0. -1.
         -5    1    3    3    0  503  0.30754736436E+02  0.70916278304E+02 -0.16121324471E+03  0.17884846271E+03  0.47000000000E+01 0. -1.
<mgrwt>
<rscale>  0 0.11486606E+03</rscale>
<asrwt>0</asrwt>
<pdfrwt beam="1">  1        2 0.74291288E-01 0.12282838E+03</pdfrwt>
<pdfrwt beam="2">  1       -2 0.41316025E-02 0.12282838E+03</pdfrwt>
<totfact> 0.15863362E+04</totfact>
</mgrwt>
</event>
<event>
 7    1  0.1466816E-006  0.2443570E+03  0.7546771E-02  0.1157870E+00
          4   -1    0    0  501    0  0.00000000000E+00  0.00000000000E+00  0.73180477365E+02  0.73180477365E+02  0.00000000000E+00 0. -1.
         -4   -1    0    0    0  501 -0.00000000000E+00 -0.00000000000E+00 -0.44375027222E+03  0.44375027222E+03  0.00000000000E+00 0.  1.
         23    2    1    2    0    0  0.15808896580E+02 -0.24085293342E+01 -0.25460554833E+02  0.94070543374E+02  0.89136440660E+02 0.  0.
          5    1    1    2  502    0 -0.94945132252E+02 -0.83313781692E+02 -0.20018430376E+03  0.23675221188E+03  0.47000000000E+01 0. -1.
         -5    1    3    3    0  503  0.33636849921E+02  0.32773666461E+02 -0.26897402247E+02  0.54324130306E+02  0.47000000000E+01 0.  1.
          5    1    3    3  503    0 -0.17827953341E+02 -0.35182195795E+02  0.14368474138E+01  0.39746413068E+02  0.47000000000E+01 0. -1.
         -5    1    1    2    0  502  0.79136235672E+02  0.85722311026E+02 -0.14492493626E+03  0.18610799433E+03  0.47000000000E+01 0.  1.
<mgrwt>
<rscale>  0 0.19065675E+03</rscale>
<asrwt>0</asrwt>
<pdfrwt beam="1">  1        4 0.11258535E-01 0.24435705E+03</pdfrwt>
<pdfrwt beam="2">  1       -4 0.68269271E-01 0.24435705E+03</pdfrwt>
<totfact> 0.22847970E+02</totfact>
</mgrwt>
</event>
<event>
 7    1  0.1466816E-006  0.2535740E+03  0.7546771E-02  0.1111067E+00
          2   -1    0    0  501    0  0.00000000000E+00  0.00000000000E+00  0.22606582371E+03  0.22606582371E+03  0.00000000000E+00 0. -1.
         -2   -1    0    0    0  501 -0.00000000000E+00 -0.00000000000E+00 -0.71107351118E+02  0.71107351118E+02  0.00000000000E+00 0.  1.
         23    2    1    2    0    0  0.27376318869E+02  0.38536561227E+02  0.96379662447E+02  0.14154594315E+03  0.92258795266E+02 0.  0.
          5    1    1    2  502    0  0.17949814604E+02  0.44271090070E+02  0.87999870291E+01  0.48802203147E+02  0.47000000000E+01 0. -1.
         -5    1    1    2    0  502 -0.45326133473E+02 -0.82807651297E+02  0.49778823117E+02  0.10682502853E+03  0.47000000000E+01 0.  1.
          5    1    3    3  503    0  0.93228432557E+01  0.66354362646E+02  0.47407895124E+02  0.82215663766E+02  0.47000000000E+01 0. -1.
         -5    1    3    3    0  503  0.18053475613E+02 -0.27817801418E+02  0.48971767323E+02  0.59330279387E+02  0.47000000000E+01 0.  1.
<mgrwt>
<rscale>  0 0.25357399E+03</rscale>
<asrwt>0</asrwt>
<pdfrwt beam="1">  1        2 0.34779357E-01 0.25357399E+03</pdfrwt>
<pdfrwt beam="2">  1       -2 0.10939593E-01 0.25357399E+03</pdfrwt>
<totfact> 0.84419077E+03</totfact>
</mgrwt>
</event>
<event>
 7    1  0.1558919E-006  0.3064385E+03  0.7546771E-02  0.1126403E+00
          1   -1    0    0  501    0  0.00000000000E+00  0.00000000000E+00  0.30656042428E+03  0.30656042428E+03  0.00000000000E+00 0. -1.
         -1   -1    0    0    0  501 -0.00000000000E+00 -0.00000000000E+00 -0.13349990068E+03  0.13349990068E+03  0.00000000000E+00 0.  1.
         23    2    1    2    0    0  0.24048983078E+02 -0.22516700676E+02  0.49730736458E+02  0.10973500137E+03  0.92104663188E+02 0.  0.
          5    1    3    3  502    0  0.53342863089E+02 -0.25572273441E+02  0.10195958718E+02  0.60211708045E+02  0.47000000000E+01 0. -1.
         -5    1    1    2    0  503 -0.16513152109E+02  0.14131601184E+03  0.15152252401E+03  0.20790397947E+03  0.47000000000E+01 0.  1.
          5    1    1    2  503    0 -0.75358309698E+01 -0.11879931117E+03 -0.28192736874E+02  0.12242134411E+03  0.47000000000E+01 0. -1.
         -5    1    3    3    0  502 -0.29293880010E+02  0.30555727658E+01  0.39534777740E+02  0.49523293327E+02  0.47000000000E+01 0.  1.
<mgrwt>
<rscale>  0 0.23033701E+03</rscale>
<asrwt>0</asrwt>
<pdfrwt beam="1">  1        1 0.47163142E-01 0.30643855E+03</pdfrwt>
<pdfrwt beam="2">  1       -1 0.20538446E-01 0.30643855E+03</pdfrwt>
<totfact> 0.16466268E+03</totfact>
</mgrwt>
</event>
<event>
 7    1  0.1466816E-006  0.1194012E+03  0.7546771E-02  0.1249186E+00
         -2   -1    0    0    0  501 -0.00000000000E+00  0.00000000000E+00  0.49861823692E+02  0.49861823692E+02  0.00000000000E+00 0.  1.
          2   -1    0    0  501    0  0.00000000000E+00 -0.00000000000E+00 -0.31190746940E+03  0.31190746940E+03  0.00000000000E+00 0. -1.
         23    2    1    2    0    0  0.49669211963E+02  0.60546171152E+02 -0.21116437227E+03  0.24258409054E+03  0.90132011014E+02 0.  0.
          5    1    3    3  502    0  0.74661369227E+02  0.34211586554E+02 -0.13520740453E+03  0.15826523607E+03  0.47000000000E+01 0. -1.
         -5    1    3    3    0  502 -0.24992157264E+02  0.26334584598E+02 -0.75956967745E+02  0.84318854473E+02  0.47000000000E+01 0.  1.
          5    1    1    2  503    0 -0.54688219065E+02 -0.89327815931E+01 -0.23747200439E+02  0.60469954690E+02  0.47000000000E+01 0. -1.
         -5    1    1    2    0  503  0.50190071020E+01 -0.51613389559E+02 -0.27134073000E+02  0.58715247863E+02  0.47000000000E+01 0.  1.
<mgrwt>
<rscale>  0 0.11638301E+03</rscale>
<asrwt>0</asrwt>
<pdfrwt beam="1">  1        2 0.47985765E-01 0.11940121E+03</pdfrwt>
<pdfrwt beam="2">  1       -2 0.76710496E-02 0.11940121E+03</pdfrwt>
<totfact> 0.99212979E+03</totfact>
</mgrwt>
</event>
<event>
 7    1  0.1466816E-006  0.2427378E+03  0.7546771E-02  0.1146876E+00
          2   -1    0    0  501    0  0.00000000000E+00  0.00000000000E+00  0.24838923666E+03  0.24838923666E+03  0.00000000000E+00 0. -1.
         -2   -1    0    0    0  501 -0.00000000000E+00 -0.00000000000E+00 -0.17797604675E+03  0.17797604675E+03  0.00000000000E+00 0.  1.
         23    2    1    2    0    0  0.37450112002E+02  0.68097275869E+02  0.12966744827E+03  0.17649987481E+03  0.91097797972E+02 0.  0.
          5    1    3    3  502    0  0.66105921497E+02  0.60466359035E+02  0.96320985001E+02  0.13162824767E+03  0.47000000000E+01 0. -1.
         -5    1    3    3    0  502 -0.28655809495E+02  0.76309168344E+01  0.33346463271E+02  0.44871627141E+02  0.47000000000E+01 0.  1.
          5    1    1    2  503    0  0.72381486237E+02  0.43550890447E+02 -0.78701003449E+01  0.84969336163E+02  0.47000000000E+01 0. -1.
         -5    1    1    2    0  503 -0.10983159824E+03 -0.11164816632E+03 -0.51384158019E+02  0.16489607245E+03  0.47000000000E+01 0.  1.
<mgrwt>
<rscale>  0 0.20343060E+03</rscale>
<asrwt>0</asrwt>
<pdfrwt beam="1">  1        2 0.38213729E-01 0.24273783E+03</pdfrwt>
<pdfrwt beam="2">  1       -2 0.27380930E-01 0.24273783E+03</pdfrwt>
<totfact> 0.16155575E+03</totfact>
</mgrwt>
</event>
<event>
 6    1  0.1466816E-006  0.1320614E+03  0.7546771E-02  0.1262324E+00
         -1   -1    0    0    0  501 -0.00000000000E+00  0.00000000000E+00  0.43518387505E+03  0.43518387505E+03  0.00000000000E+00 0.  1.
          1   -1    0    0  501    0  0.00000000000E+00 -0.00000000000E+00 -0.21700316813E+02  0.21700316813E+02  0.00000000000E+00 0. -1.
          5    1    1    2  502    0  0.27826507483E+02  0.50204391441E+02  0.61991029948E+02  0.84615443228E+02  0.47000000000E+01 0. -1.
         -5    1    1    2    0  502  0.16673773629E+02 -0.57490451624E+02  0.19936744021E+03  0.20821295102E+03  0.47000000000E+01 0.  1.
          5    1    1    2  503    0 -0.11944758373E+02  0.20036729042E+02  0.40331343827E+02  0.46827930321E+02  0.47000000000E+01 0. -1.
         -5    1    1    2    0  503 -0.32555522739E+02 -0.12750668859E+02  0.11179374425E+03  0.11722786729E+03  0.47000000000E+01 0.  1.
<mgrwt>
<rscale>  0 0.10905792E+03</rscale>
<asrwt>0</asrwt>
<pdfrwt beam="1">  1        1 0.33385106E-02 0.13206142E+03</pdfrwt>
<pdfrwt beam="2">  1       -1 0.66951359E-01 0.13206142E+03</pdfrwt>
<totfact> 0.65107950E+03</totfact>
</mgrwt>
</event>
<event>
 7    1  0.1466816E-006  0.3366931E+03  0.7546771E-02  0.1068213E+00
         -2   -1    0    0    0  501 -0.00000000000E+00  0.00000000000E+00  0.55867688368E+02  0.55867688368E+02  0.00000000000E+00 0.  1.
          2   -1    0    0  501    0  0.00000000000E+00 -0.00000000000E+00 -0.50727995475E+03  0.50727995475E+03  0.00000000000E+00 0. -1.
         23    2    1    2    0    0 -0.86683188856E+01 -0.55408020623E+02 -0.25698600148E+03  0.27693258999E+03  0.86629475008E+02 0.  0.
          5    1    1    2  502    0  0.51412345308E+01 -0.53398350575E+02 -0.16468256829E+03  0.17326354041E+03  0.47000000000E+01 0. -1.
         -5    1    1    2    0  502  0.35270843548E+01  0.10880637120E+03 -0.29743696612E+02  0.11295151272E+03  0.47000000000E+01 0.  1.
          5    1    3    3  503    0  0.32299752610E+02 -0.49855963059E+02 -0.17715568280E+03  0.18690938184E+03  0.47000000000E+01 0. -1.
         -5    1    3    3    0  503 -0.40968071495E+02 -0.55520575639E+01 -0.79830318682E+02  0.90023208153E+02  0.47000000000E+01 0.  1.
<mgrwt>
<rscale>  0 0.33669309E+03</rscale>
<asrwt>0</asrwt>
<pdfrwt beam="1">  1        2 0.78043071E-01 0.33669309E+03</pdfrwt>
<pdfrwt beam="2">  1       -2 0.85950289E-02 0.33669309E+03</pdfrwt>
<totfact> 0.51850143E+03</totfact>
</mgrwt>
</event>
<event>
 7    1  0.1466816E-006  0.3043117E+03  0.7546771E-02  0.1083105E+00
          2   -1    0    0  501    0  0.00000000000E+00  0.00000000000E+00  0.64101727559E+03  0.64101727559E+03  0.00000000000E+00 0. -1.
         -2   -1    0    0    0  501 -0.00000000000E+00 -0.00000000000E+00 -0.36116669449E+02  0.36116669449E+02  0.00000000000E+00 0.  1.
         23    2    1    2    0    0 -0.11121388692E+02 -0.80053426270E+02  0.25012238893E+03  0.27962663569E+03  0.95381390210E+02 0.  0.
          5    1    1    2  502    0  0.40860715772E+02  0.78575986905E+02  0.35644842037E+03  0.36731641700E+03  0.47000000000E+01 0. -1.
         -5    1    3    3    0  503  0.31810132284E+02 -0.68077643471E+02  0.19198110832E+03  0.20621659974E+03  0.47000000000E+01 0.  1.
          5    1    3    3  503    0 -0.42931520976E+02 -0.11975782799E+02  0.58141280607E+02  0.73410035945E+02  0.47000000000E+01 0. -1.
         -5    1    1    2    0  502 -0.29739327080E+02  0.14774393645E+01 -0.16702031633E+01  0.30190892349E+02  0.47000000000E+01 0.  1.
<mgrwt>
<rscale>  0 0.30431174E+03</rscale>
<asrwt>0</asrwt>
<pdfrwt beam="1">  1        2 0.98618034E-01 0.30431174E+03</pdfrwt>
<pdfrwt beam="2">  1       -2 0.55564112E-02 0.30431174E+03</pdfrwt>
<totfact> 0.77722776E+03</totfact>
</mgrwt>
</event>
<event>
 7    1  0.1466816E-006  0.1579428E+03  0.7546771E-02  0.1216445E+00
          2   -1    0    0  501    0  0.00000000000E+00  0.00000000000E+00  0.12263794711E+03  0.12263794711E+03  0.00000000000E+00 0. -1.
         -2   -1    0    0    0  501 -0.00000000000E+00 -0.00000000000E+00 -0.29637165370E+03  0.29637165370E+03  0.00000000000E+00 0.  1.
         23    2    1    2    0    0 -0.15099288528E+02  0.59766889908E+01  0.79177513437E+02  0.12083178589E+03  0.89819444014E+02 0.  0.
          5    1    3    3  502    0 -0.31847782483E+02 -0.33307813819E+02  0.28477327347E+02  0.54375912713E+02  0.47000000000E+01 0. -1.
         -5    1    1    2    0  503  0.77578326918E+01  0.51642564999E+02 -0.22943803509E+03  0.23535301237E+03  0.47000000000E+01 0.  1.
          5    1    1    2  503    0  0.73414558359E+01 -0.57619253990E+02 -0.23473184933E+02  0.62824802547E+02  0.47000000000E+01 0. -1.
         -5    1    3    3    0  502  0.16748493955E+02  0.39284502810E+02  0.50700186089E+02  0.66455873181E+02  0.47000000000E+01 0.  1.
<mgrwt>
<rscale>  0 0.13770939E+03</rscale>
<asrwt>0</asrwt>
<pdfrwt beam="1">  1        2 0.18867377E-01 0.15794279E+03</pdfrwt>
<pdfrwt beam="2">  1       -2 0.45595639E-01 0.15794279E+03</pdfrwt>
<totfact> 0.13479364E+03</totfact>
</mgrwt>
</event>
<event>
 7    1  0.1466816E-006  0.2330800E+03  0.7546771E-02  0.1158399E+00
         -2   -1    0    0    0  501 -0.00000000000E+00  0.00000000000E+00  0.49668059623E+02  0.49668059623E+02  0.00000000000E+00 0.  1.
          2   -1    0    0  501    0  0.00000000000E+00 -0.00000000000E+00 -0.57730857382E+03  0.57730857382E+03  0.00000000000E+00 0. -1.
         23    2    1    2    0    0 -0.38076722531E+01 -0.46842403705E+02 -0.12806809837E+03  0.16439215234E+03  0.91731307515E+02 0.  0.
          5    1    1    2  502    0  0.24117868709E+01  0.86897787260E+02 -0.41141750068E+03  0.42052763525E+03  0.47000000000E+01 0. -1.
         -5    1    3    3    0  503  0.17293119211E+02  0.19653864465E+02 -0.64992101940E+02  0.70223854032E+02  0.47000000000E+01 0.  1.
          5    1    3    3  503    0 -0.21100791464E+02 -0.66496268170E+02 -0.63075996434E+02  0.94168298312E+02  0.47000000000E+01 0. -1.
         -5    1    1    2    0  502  0.13958853822E+01 -0.40055383556E+02  0.11845084851E+02  0.42056845851E+02  0.47000000000E+01 0.  1.
<mgrwt>
<rscale>  0 0.19006905E+03</rscale>
<asrwt>0</asrwt>
<pdfrwt beam="1">  1        2 0.88816702E-01 0.23308000E+03</pdfrwt>
<pdfrwt beam="2">  1       -2 0.76412401E-02 0.23308000E+03</pdfrwt>
<totfact> 0.53071564E+03</totfact>
</mgrwt>
</event>
<event>
 7    1  0.1466816E-006  0.9144556E+02  0.7546771E-02  0.1302731E+00
         -2   -1    0    0    0  501 -0.00000000000E+00  0.00000000000E+00  0.51675277684E+02  0.51675277684E+02  0.00000000000E+00 0.  1.
          2   -1    0    0  501    0  0.00000000000E+00 -0.00000000000E+00 -0.15245559199E+03  0.15245559199E+03  0.00000000000E+00 0. -1.
         23    2    1    2    0    0  0.52783589694E+01 -0.22740296324E+01 -0.55069916217E+02  0.10674730373E+03  0.91264773582E+02 0.  0.
          5    1    1    2  502    0 -0.41941547047E+02  0.12197948888E+02 -0.38550143995E+02  0.58447300432E+02  0.47000000000E+01 0. -1.
         -5    1    3    3    0  503 -0.29097143777E+02 -0.89999952349E+01  0.10251632308E+02  0.32478141190E+02  0.47000000000E+01 0.  1.
          5    1    3    3  503    0  0.34375502746E+02  0.67259656024E+01 -0.65321548526E+02  0.74269162538E+02  0.47000000000E+01 0. -1.
         -5    1    1    2    0  502  0.36663188078E+02 -0.99239192553E+01 -0.71602540929E+01  0.38936265513E+02  0.47000000000E+01 0.  1.
<mgrwt>
<rscale>  0 0.90049806E+02</rscale>
<asrwt>0</asrwt>
<pdfrwt beam="1">  1        2 0.23454706E-01 0.91445564E+02</pdfrwt>
<pdfrwt beam="2">  1       -2 0.79500428E-02 0.91445564E+02</pdfrwt>
<totfact> 0.19688434E+04</totfact>
</mgrwt>
</event>
<event>
 7    1  0.1466816E-006  0.1917757E+03  0.7546771E-02  0.1161308E+00
          1   -1    0    0  501    0  0.00000000000E+00  0.00000000000E+00  0.60613918785E+02  0.60613918785E+02  0.00000000000E+00 0. -1.
         -1   -1    0    0    0  501 -0.00000000000E+00 -0.00000000000E+00 -0.55268335584E+03  0.55268335584E+03  0.00000000000E+00 0.  1.
         23    2    1    2    0    0 -0.13946677743E+03  0.49478757728E+02 -0.20697312436E+03  0.26970185379E+03  0.89454380871E+02 0.  0.
          5    1    1    2  502    0  0.73602726415E+02 -0.11118139528E+02 -0.35547912141E+02  0.82623957905E+02  0.47000000000E+01 0. -1.
         -5    1    1    2    0  502  0.65864051017E+02 -0.38360618200E+02 -0.24954840055E+03  0.26097146293E+03  0.47000000000E+01 0.  1.
          5    1    3    3  503    0 -0.52472040826E+02  0.56093800874E+02 -0.55655682321E+02  0.94970914176E+02  0.47000000000E+01 0. -1.
         -5    1    3    3    0  503 -0.86994736606E+02 -0.66150431456E+01 -0.15131744204E+03  0.17473093962E+03  0.47000000000E+01 0.  1.
<mgrwt>
<rscale>  0 0.18687716E+03</rscale>
<asrwt>0</asrwt>
<pdfrwt beam="1">  1        1 0.93252181E-02 0.19177567E+03</pdfrwt>
<pdfrwt beam="2">  1       -1 0.85028211E-01 0.19177567E+03</pdfrwt>
<totfact> 0.10052681E+03</totfact>
</mgrwt>
</event>
<event>
 7    1  0.1466816E-006  0.3328566E+03  0.7546771E-02  0.1069880E+00
          1   -1    0    0  501    0  0.00000000000E+00  0.00000000000E+00  0.81209012668E+03  0.81209012668E+03  0.00000000000E+00 0. -1.
         -1   -1    0    0    0  501 -0.00000000000E+00 -0.00000000000E+00 -0.34107525356E+02  0.34107525356E+02  0.00000000000E+00 0.  1.
         23    2    1    2    0    0  0.63020295179E+02  0.28534182918E+02  0.40023612242E+03  0.41624806200E+03  0.91037015719E+02 0.  0.
          5    1    1    2  502    0 -0.13287451645E+03 -0.17345129427E+02  0.23487578218E+03  0.27045371821E+03  0.47000000000E+01 0. -1.
         -5    1    1    2    0  502  0.69854221273E+02 -0.11189053492E+02  0.14287069673E+03  0.15949587183E+03  0.47000000000E+01 0.  1.
          5    1    3    3  503    0  0.38211112016E+02  0.45799662434E+02  0.11744244894E+03  0.13180484427E+03  0.47000000000E+01 0.  1.
         -5    1    3    3    0  503  0.24809183163E+02 -0.17265479515E+02  0.28279367348E+03  0.28444321773E+03  0.47000000000E+01 0. -1.
<mgrwt>
<rscale>  0 0.33285663E+03</rscale>
<asrwt>0</asrwt>
<pdfrwt beam="1">  1        1 0.12493693E+00 0.33285663E+03</pdfrwt>
<pdfrwt beam="2">  1       -1 0.52473122E-02 0.33285663E+03</pdfrwt>
<totfact> 0.36930314E+03</totfact>
</mgrwt>
</event>
<event>
 7    1  0.1466816E-006  0.9188606E+02  0.7546771E-02  0.1317175E+00
          2   -1    0    0  501    0  0.00000000000E+00  0.00000000000E+00  0.53124846358E+03  0.53124846358E+03  0.00000000000E+00 0. -1.
         -2   -1    0    0    0  501 -0.00000000000E+00 -0.00000000000E+00 -0.12164794667E+02  0.12164794667E+02  0.00000000000E+00 0.  1.
         23    2    1    2    0    0 -0.12107164038E+02  0.77912020020E+00  0.24460487824E+03  0.26129407571E+03  0.91081595781E+02 0.  0.
          5    1    3    3  502    0  0.10699200794E+02  0.42436748157E+02  0.12472404621E+03  0.13226310217E+03  0.47000000000E+01 0. -1.
         -5    1    3    3    0  502 -0.22806364833E+02 -0.41657627957E+02  0.11988083204E+03  0.12903097354E+03  0.47000000000E+01 0.  1.
          5    1    1    2  503    0  0.37755176178E+02 -0.12365350902E+01  0.13708231307E+03  0.14226957828E+03  0.47000000000E+01 0. -1.
         -5    1    1    2    0  503 -0.25648012140E+02  0.45741488997E+00  0.13739647760E+03  0.13984960426E+03  0.47000000000E+01 0.  1.
<mgrwt>
<rscale>  0 0.84337237E+02</rscale>
<asrwt>0</asrwt>
<pdfrwt beam="1">  1        2 0.81730515E-01 0.91886057E+02</pdfrwt>
<pdfrwt beam="2">  1       -2 0.18715073E-02 0.91886057E+02</pdfrwt>
<totfact> 0.44024009E+04</totfact>
</mgrwt>
</event>
<event>
 7    1  0.1466816E-006  0.2503220E+03  0.7546771E-02  0.1113102E+00
         -4   -1    0    0    0  501 -0.00000000000E+00  0.00000000000E+00  0.30740088166E+03  0.30740088166E+03  0.00000000000E+00 0. -1.
          4   -1    0    0  501    0  0.00000000000E+00 -0.00000000000E+00 -0.50960394738E+02  0.50960394738E+02  0.00000000000E+00 0.  1.
         23    2    1    2    0    0 -0.68504678073E+02 -0.21925354667E+02  0.13659088233E+03  0.17979698787E+03  0.92175244046E+02 0.  0.
          5    1    3    3  502    0 -0.30847970537E+02 -0.56664704026E+02  0.86288102903E+02  0.10784346374E+03  0.47000000000E+01 0. -1.
         -5    1    1    2    0  503 -0.12956447624E+02  0.21884345274E+02 -0.78444252955E+01  0.27026267063E+02  0.47000000000E+01 0.  1.
          5    1    1    2  503    0  0.81461125697E+02  0.41009392661E-01  0.12769402988E+03  0.15153802146E+03  0.47000000000E+01 0. -1.
         -5    1    3    3    0  502 -0.37656707536E+02  0.34739349359E+02  0.50302779430E+02  0.71953524130E+02  0.47000000000E+01 0.  1.
<mgrwt>
<rscale>  0 0.25032195E+03</rscale>
<asrwt>0</asrwt>
<pdfrwt beam="1">  1        4 0.78400609E-02 0.25032195E+03</pdfrwt>
<pdfrwt beam="2">  1       -4 0.47292442E-01 0.25032195E+03</pdfrwt>
<totfact> 0.91847146E+02</totfact>
</mgrwt>
</event>
<event>
 7    1  0.1466816E-006  0.1164965E+03  0.7546771E-02  0.1262167E+00
         -2   -1    0    0    0  501 -0.00000000000E+00  0.00000000000E+00  0.34844238664E+03  0.34844238664E+03  0.00000000000E+00 0.  1.
          2   -1    0    0  501    0  0.00000000000E+00 -0.00000000000E+00 -0.32037942869E+02  0.32037942869E+02  0.00000000000E+00 0. -1.
         23    2    1    2    0    0  0.12529862917E+00  0.26144142852E+01  0.97575248965E+02  0.13257377001E+03  0.89710782086E+02 0.  0.
          5    1    3    3  502    0  0.24742448931E+02  0.25241001539E+01  0.10372479437E+03  0.10676836061E+03  0.47000000000E+01 0. -1.
         -5    1    3    3    0  502 -0.24617150302E+02  0.90314131295E-01 -0.61495454036E+01  0.25805409400E+02  0.47000000000E+01 0.  1.
          5    1    1    2  503    0  0.17573790201E+02 -0.56104215408E+02  0.95655429930E+02  0.11237692096E+03  0.47000000000E+01 0. -1.
         -5    1    1    2    0  503 -0.17699088830E+02  0.53489801123E+02  0.12317376488E+03  0.13552963854E+03  0.47000000000E+01 0.  1.
<mgrwt>
<rscale>  0 0.10914206E+03</rscale>
<asrwt>0</asrwt>
<pdfrwt beam="1">  1        2 0.49289145E-02 0.11649655E+03</pdfrwt>
<pdfrwt beam="2">  1       -2 0.53606518E-01 0.11649655E+03</pdfrwt>
<totfact> 0.50048418E+03</totfact>
</mgrwt>
</event>
<event>
 7    1  0.1466816E-006  0.1189134E+03  0.7546771E-02  0.1252410E+00
         -2   -1    0    0    0  501 -0.00000000000E+00  0.00000000000E+00  0.34438059129E+02  0.34438059129E+02  0.00000000000E+00 0.  1.
          2   -1    0    0  501    0  0.00000000000E+00 -0.00000000000E+00 -0.90958052286E+03  0.90958052286E+03  0.00000000000E+00 0. -1.
         23    2    1    2    0    0  0.25596070482E+02  0.31584374352E+02 -0.56682182642E+02  0.11696500481E+03  0.93889355059E+02 0.  0.
          5    1    1    2  502    0 -0.53126366424E+02  0.20508324070E+02 -0.31556652429E+03  0.32069818119E+03  0.47000000000E+01 0. -1.
         -5    1    3    3    0  503  0.49753469310E+02 -0.54859411438E+01 -0.78216266107E+01  0.50879967585E+02  0.47000000000E+01 0.  1.
          5    1    3    3  503    0 -0.24157398828E+02  0.37070315495E+02 -0.48860556031E+02  0.66085037223E+02  0.47000000000E+01 0. -1.
         -5    1    1    2    0  502  0.27530295941E+02 -0.52092698422E+02 -0.50289375680E+03  0.50635539599E+03  0.47000000000E+01 0.  1.
<mgrwt>
<rscale>  0 0.11452641E+03</rscale>
<asrwt>0</asrwt>
<pdfrwt beam="1">  1        2 0.13993545E+00 0.11891336E+03</pdfrwt>
<pdfrwt beam="2">  1       -2 0.52981636E-02 0.11891336E+03</pdfrwt>
<totfact> 0.51949332E+03</totfact>
</mgrwt>
</event>
<event>
 7    1  0.1466816E-006  0.3910405E+03  0.7546771E-02  0.1046927E+00
         -2   -1    0    0    0  501 -0.00000000000E+00  0.00000000000E+00  0.15595170795E+03  0.15595170795E+03  0.00000000000E+00 0.  1.
          2   -1    0    0  501    0  0.00000000000E+00 -0.00000000000E+00 -0.24512826004E+03  0.24512826004E+03  0.00000000000E+00 0. -1.
         23    2    1    2    0    0  0.29533034556E+02 -0.26562976960E+02 -0.10278624435E+03  0.14369487514E+03  0.92224797310E+02 0.  0.
          5    1    1    2  502    0  0.34052680722E+02 -0.44815407750E+02 -0.96302117576E+02  0.11164315333E+03  0.47000000000E+01 0. -1.
         -5    1    1    2    0  502 -0.63585715278E+02  0.71378384710E+02  0.10991180984E+03  0.14574193951E+03  0.47000000000E+01 0.  1.
          5    1    3    3  503    0  0.33293955078E+02  0.11188273733E+02 -0.15378611319E+01  0.35469986337E+02  0.47000000000E+01 0. -1.
         -5    1    3    3    0  503 -0.37609205223E+01 -0.37751250693E+02 -0.10124838322E+03  0.10822488881E+03  0.47000000000E+01 0.  1.
<mgrwt>
<rscale>  0 0.39104051E+03</rscale>
<asrwt>0</asrwt>
<pdfrwt beam="1">  1        2 0.37712040E-01 0.39104051E+03</pdfrwt>
<pdfrwt beam="2">  1       -2 0.23992571E-01 0.39104051E+03</pdfrwt>
<totfact> 0.20972551E+03</totfact>
</mgrwt>
</event>
<event>
 7    1  0.1466816E-006  0.8059407E+03  0.7546771E-02  0.9551458E-01
          2   -1    0    0  501    0  0.00000000000E+00  0.00000000000E+00  0.47279596169E+03  0.47279596169E+03  0.00000000000E+00 0. -1.
         -2   -1    0    0    0  501 -0.00000000000E+00 -0.00000000000E+00 -0.34345703984E+03  0.34345703984E+03  0.00000000000E+00 0.  1.
         23    2    1    2    0    0  0.78912627444E+02  0.53304721572E+02 -0.75661302671E+02  0.15094528525E+03  0.89393793433E+02 0.  0.
          5    1    1    2  502    0 -0.14012097153E+03 -0.53671879872E+02  0.41773572721E+03  0.44389163671E+03  0.47000000000E+01 0. -1.
         -5    1    3    3    0  503  0.12822392273E+02  0.41839580016E+02 -0.71009442826E+02  0.83542774493E+02  0.47000000000E+01 0.  1.
          5    1    3    3  503    0  0.66090235171E+02  0.11465141556E+02 -0.46518598448E+01  0.67402510754E+02  0.47000000000E+01 0. -1.
         -5    1    1    2    0  502  0.61208344083E+02  0.36715829993E+00 -0.21273550269E+03  0.22141607957E+03  0.47000000000E+01 0.  1.
<mgrwt>
<rscale>  0 0.80594070E+03</rscale>
<asrwt>0</asrwt>
<pdfrwt beam="1">  1        2 0.72737841E-01 0.80594070E+03</pdfrwt>
<pdfrwt beam="2">  1       -2 0.52839544E-01 0.80594070E+03</pdfrwt>
<totfact> 0.22355663E+02</totfact>
</mgrwt>
</event>
<event>
 7    1  0.1466816E-006  0.5611639E+03  0.7546771E-02  0.1052951E+00
         -2   -1    0    0    0  501 -0.00000000000E+00  0.00000000000E+00  0.11786230096E+03  0.11786230096E+03  0.00000000000E+00 0.  1.
          2   -1    0    0  501    0  0.00000000000E+00 -0.00000000000E+00 -0.96276683182E+03  0.96276683182E+03  0.00000000000E+00 0. -1.
         23    2    1    2    0    0  0.64717497374E+02 -0.65741243594E+01 -0.11757555863E+03  0.16198210458E+03  0.90457816910E+02 0.  0.
          5    1    3    3  502    0 -0.19421138908E+02  0.13220027188E+02 -0.34503901206E+02  0.42006653684E+02  0.47000000000E+01 0. -1.
         -5    1    1    2    0  503  0.11927524346E+03 -0.39410953502E+02  0.37070683102E+02  0.13105774492E+03  0.47000000000E+01 0.  1.
          5    1    1    2  503    0 -0.18399274083E+03  0.45985077862E+02 -0.76439965533E+03  0.78758928328E+03  0.47000000000E+01 0. -1.
         -5    1    3    3    0  502  0.84138636281E+02 -0.19794151547E+02 -0.83071657421E+02  0.11997545089E+03  0.47000000000E+01 0.  1.
<mgrwt>
<rscale>  0 0.37459079E+03</rscale>
<asrwt>0</asrwt>
<pdfrwt beam="1">  1        2 0.14811798E+00 0.56116391E+03</pdfrwt>
<pdfrwt beam="2">  1       -2 0.18132662E-01 0.56116391E+03</pdfrwt>
<totfact> 0.68173040E+02</totfact>
</mgrwt>
</event>
<event>
 7    1  0.1466816E-006  0.1855366E+03  0.7546771E-02  0.1185559E+00
          2   -1    0    0  501    0  0.00000000000E+00  0.00000000000E+00  0.40670096873E+03  0.40670096873E+03  0.00000000000E+00 0. -1.
         -2   -1    0    0    0  501 -0.00000000000E+00 -0.00000000000E+00 -0.99557024588E+02  0.99557024588E+02  0.00000000000E+00 0.  1.
         23    2    1    2    0    0 -0.50104694203E+02 -0.30875382529E+02 -0.36345667949E+02  0.11586210586E+03  0.92947567845E+02 0.  0.
          5    1    1    2  502    0  0.53786532973E+02  0.96853148699E+02  0.26756852652E+03  0.28963516694E+03  0.47000000000E+01 0. -1.
         -5    1    3    3    0  503 -0.70608017222E+02  0.21692558935E+01 -0.21817154910E+02  0.74082899616E+02  0.47000000000E+01 0.  1.
          5    1    3    3  503    0  0.20503323019E+02 -0.33044638422E+02 -0.14528513038E+02  0.41779206244E+02  0.47000000000E+01 0. -1.
         -5    1    1    2    0  502 -0.36818387694E+01 -0.65977766170E+02  0.75921085566E+02  0.10076072052E+03  0.47000000000E+01 0.  1.
<mgrwt>
<rscale>  0 0.16281107E+03</rscale>
<asrwt>0</asrwt>
<pdfrwt beam="1">  1        2 0.62569379E-01 0.18553661E+03</pdfrwt>
<pdfrwt beam="2">  1       -2 0.15316466E-01 0.18553661E+03</pdfrwt>
<totfact> 0.25541440E+03</totfact>
</mgrwt>
</event>
<event>
 7    1  0.1466816E-006  0.1871165E+03  0.7546771E-02  0.1180033E+00
          2   -1    0    0  501    0  0.00000000000E+00  0.00000000000E+00  0.71136811182E+02  0.71136811182E+02  0.00000000000E+00 0.  1.
         -2   -1    0    0    0  501 -0.00000000000E+00 -0.00000000000E+00 -0.38447620162E+03  0.38447620162E+03  0.00000000000E+00 0. -1.
         23    2    1    2    0    0 -0.77060696992E+02  0.15718773293E+02 -0.47072518842E+02  0.13017388417E+03  0.92433691013E+02 0.  0.
          5    1    1    2  502    0 -0.61537433985E+01  0.23588027401E+02 -0.22168472626E+03  0.22307055263E+03  0.47000000000E+01 0. -1.
         -5    1    1    2    0  502  0.83214440391E+02 -0.39306800694E+02 -0.44582145337E+02  0.10236857600E+03  0.47000000000E+01 0.  1.
          5    1    3    3  503    0 -0.79456968571E+02 -0.20209122799E+02 -0.45370037940E+02  0.93820833728E+02  0.47000000000E+01 0. -1.
         -5    1    3    3    0  503  0.23962715783E+01  0.35927896092E+02 -0.17024809028E+01  0.36353050440E+02  0.47000000000E+01 0.  1.
<mgrwt>
<rscale>  0 0.16792186E+03</rscale>
<asrwt>0</asrwt>
<pdfrwt beam="1">  1        2 0.10944125E-01 0.18711649E+03</pdfrwt>
<pdfrwt beam="2">  1       -2 0.59150182E-01 0.18711649E+03</pdfrwt>
<totfact> 0.15355441E+03</totfact>
</mgrwt>
</event>
<event>
 7    1  0.1466816E-006  0.4913054E+03  0.7546771E-02  0.1016074E+00
         -2   -1    0    0    0  501 -0.00000000000E+00  0.00000000000E+00  0.88655374545E+02  0.88655374545E+02  0.00000000000E+00 0.  1.
          2   -1    0    0  501    0  0.00000000000E+00 -0.00000000000E+00 -0.68067207651E+03  0.68067207651E+03  0.00000000000E+00 0. -1.
         23    2    1    2    0    0  0.97543619488E+02 -0.38006586563E+02 -0.13742415081E+03  0.19506972964E+03  0.90595495858E+02 0.  0.
          5    1    1    2  502    0 -0.21203996735E+03  0.34349951553E+02 -0.38282650173E+03  0.43899782158E+03  0.47000000000E+01 0. -1.
         -5    1    3    3    0  503  0.42178585418E+02  0.19043003527E+02 -0.92743129739E+02  0.10375474526E+03  0.47000000000E+01 0.  1.
          5    1    3    3  503    0  0.55365034070E+02 -0.57049590090E+02 -0.44681021071E+02  0.91314984372E+02  0.47000000000E+01 0. -1.
         -5    1    1    2    0  502  0.11449634786E+03  0.36566350098E+01 -0.71766049423E+02  0.13525989983E+03  0.47000000000E+01 0.  1.
<mgrwt>
<rscale>  0 0.49130535E+03</rscale>
<asrwt>0</asrwt>
<pdfrwt beam="1">  1        2 0.10471878E+00 0.49130535E+03</pdfrwt>
<pdfrwt beam="2">  1       -2 0.13639288E-01 0.49130535E+03</pdfrwt>
<totfact> 0.17457811E+03</totfact>
</mgrwt>
</event>
<event>
 7    1  0.1466816E-006  0.1176526E+03  0.7546771E-02  0.1258343E+00
         -2   -1    0    0    0  501 -0.00000000000E+00  0.00000000000E+00  0.21006985003E+03  0.21006985003E+03  0.00000000000E+00 0.  1.
          2   -1    0    0  501    0  0.00000000000E+00 -0.00000000000E+00 -0.60723591871E+02  0.60723591871E+02  0.00000000000E+00 0. -1.
         23    2    1    2    0    0  0.73313611639E+02 -0.39179061292E+01  0.12917573863E+03  0.17472408182E+03  0.91934202977E+02 0.  0.
          5    1    1    2  502    0 -0.64032237114E+02  0.23326062256E+02  0.26320813666E+02  0.73205927371E+02  0.47000000000E+01 0.  1.
         -5    1    1    2    0  502 -0.92813745253E+01 -0.19408156126E+02 -0.61502941391E+01  0.22863432710E+02  0.47000000000E+01 0. -1.
          5    1    3    3  503    0 -0.28881574660E+01 -0.22825878698E+02 -0.45533646190E-02  0.23483019666E+02  0.47000000000E+01 0. -1.
         -5    1    3    3    0  503  0.76201769105E+02  0.18907972569E+02  0.12918029200E+03  0.15124106216E+03  0.47000000000E+01 0.  1.
<mgrwt>
<rscale>  0 0.11121156E+03</rscale>
<asrwt>0</asrwt>
<pdfrwt beam="1">  1        2 0.93420912E-02 0.11765260E+03</pdfrwt>
<pdfrwt beam="2">  1       -2 0.32318438E-01 0.11765260E+03</pdfrwt>
<totfact> 0.58339923E+03</totfact>
</mgrwt>
</event>
<event>
 7    1  0.1466816E-006  0.2011327E+03  0.7546771E-02  0.1178610E+00
          2   -1    0    0  501    0  0.00000000000E+00  0.00000000000E+00  0.24809508205E+03  0.24809508205E+03  0.00000000000E+00 0. -1.
         -2   -1    0    0    0  501 -0.00000000000E+00 -0.00000000000E+00 -0.91995616347E+02  0.91995616347E+02  0.00000000000E+00 0.  1.
         23    2    1    2    0    0 -0.47924970620E+02  0.61975247816E+01  0.47651510432E+02  0.11158396100E+03  0.88572579192E+02 0.  0.
          5    1    3    3  502    0 -0.60993294842E+02  0.33387091750E+02  0.27075623579E+02  0.74766699160E+02  0.47000000000E+01 0. -1.
         -5    1    1    2    0  503  0.35726664811E+02  0.63512908571E+02 -0.25163600590E+02  0.77237173228E+02  0.47000000000E+01 0.  1.
          5    1    1    2  503    0  0.12198305809E+02 -0.69710433353E+02  0.13361155586E+03  0.15126956416E+03  0.47000000000E+01 0. -1.
         -5    1    3    3    0  502  0.13068324222E+02 -0.27189566969E+02  0.20575886854E+02  0.36817261844E+02  0.47000000000E+01 0.  1.
<mgrwt>
<rscale>  0 0.16927085E+03</rscale>
<asrwt>0</asrwt>
<pdfrwt beam="1">  1        2 0.38168474E-01 0.20113272E+03</pdfrwt>
<pdfrwt beam="2">  1       -2 0.14153172E-01 0.20113272E+03</pdfrwt>
<totfact> 0.49633144E+03</totfact>
</mgrwt>
</event>
<event>
 7    1  0.1466816E-006  0.2585988E+03  0.7546771E-02  0.1120444E+00
          2   -1    0    0  501    0  0.00000000000E+00  0.00000000000E+00  0.50151157732E+03  0.50151157732E+03  0.00000000000E+00 0. -1.
         -2   -1    0    0    0  501 -0.00000000000E+00 -0.00000000000E+00 -0.10046322398E+03  0.10046322398E+03  0.00000000000E+00 0.  1.
         23    2    1    2    0    0  0.78243898236E+02 -0.14545112220E+03  0.19431683016E+03  0.27089891121E+03  0.91373152798E+02 0.  0.
          5    1    1    2  502    0 -0.11163743370E+03  0.23760182894E+02  0.15964385500E+03  0.19630515361E+03  0.47000000000E+01 0. -1.
         -5    1    1    2    0  502  0.33393535461E+02  0.12169093930E+03  0.47087668176E+02  0.13477073649E+03  0.47000000000E+01 0.  1.
          5    1    3    3  503    0  0.56847222038E+01 -0.10132340709E+03  0.85475653185E+02  0.13276643468E+03  0.47000000000E+01 0. -1.
         -5    1    3    3    0  503  0.72559176032E+02 -0.44127715110E+02  0.10884117697E+03  0.13813247653E+03  0.47000000000E+01 0.  1.
<mgrwt>
<rscale>  0 0.23902456E+03</rscale>
<asrwt>0</asrwt>
<pdfrwt beam="1">  1        2 0.77155626E-01 0.25859877E+03</pdfrwt>
<pdfrwt beam="2">  1       -2 0.15455881E-01 0.25859877E+03</pdfrwt>
<totfact> 0.20146965E+03</totfact>
</mgrwt>
</event>
<event>
 7    1  0.1466816E-006  0.9629986E+02  0.7546771E-02  0.1299491E+00
         -1   -1    0    0    0  501 -0.00000000000E+00  0.00000000000E+00  0.59225141008E+03  0.59225141008E+03  0.00000000000E+00 0.  1.
          1   -1    0    0  501    0  0.00000000000E+00 -0.00000000000E+00 -0.17746299116E+02  0.17746299116E+02  0.00000000000E+00 0. -1.
         23    2    1    2    0    0  0.27642472822E+02  0.15923501232E+02  0.14925319031E+03  0.17762369498E+03  0.90862522565E+02 0.  0.
          5    1    1    2  502    0  0.23727672949E+02 -0.15292327621E+00  0.13661295773E+03  0.13873794027E+03  0.47000000000E+01 0. -1.
         -5    1    3    3    0  503  0.22938676778E+02  0.41006220668E+02  0.14346560242E+03  0.15103695609E+03  0.47000000000E+01 0.  1.
          5    1    3    3  503    0  0.47037960436E+01 -0.25082719436E+02  0.57875878868E+01  0.26586738895E+02  0.47000000000E+01 0. -1.
         -5    1    1    2    0  502 -0.51370145771E+02 -0.15770577955E+02  0.28863896292E+03  0.29363607395E+03  0.47000000000E+01 0.  1.
<mgrwt>
<rscale>  0 0.91402363E+02</rscale>
<asrwt>0</asrwt>
<pdfrwt beam="1">  1        1 0.27302003E-02 0.96299856E+02</pdfrwt>
<pdfrwt beam="2">  1       -1 0.91115586E-01 0.96299856E+02</pdfrwt>
<totfact> 0.44877093E+03</totfact>
</mgrwt>
</event>
<event>
 7    1  0.1466816E-006  0.2489400E+03  0.7546771E-02  0.1154092E+00
          2   -1    0    0  501    0  0.00000000000E+00  0.00000000000E+00  0.26510533670E+03  0.26510533670E+03  0.00000000000E+00 0. -1.
         -2   -1    0    0    0  501 -0.00000000000E+00 -0.00000000000E+00 -0.13202848536E+03  0.13202848536E+03  0.00000000000E+00 0.  1.
         23    2    1    2    0    0  0.13546983723E+02 -0.12534837920E+02  0.11396068534E+03  0.14746095644E+03  0.91744498146E+02 0.  0.
          5    1    1    2  502    0  0.39777262303E+02  0.75951495426E+02 -0.82089159855E+02  0.11879217322E+03  0.47000000000E+01 0. -1.
         -5    1    1    2    0  502 -0.53324246026E+02 -0.63416657506E+02  0.10120532584E+03  0.13088069240E+03  0.47000000000E+01 0.  1.
          5    1    3    3  503    0  0.52498889791E+02 -0.36414550390E+01  0.72291196781E+02  0.89540497855E+02  0.47000000000E+01 0. -1.
         -5    1    3    3    0  503 -0.38951906068E+02 -0.88933828811E+01  0.41669488562E+02  0.57920458583E+02  0.47000000000E+01 0.  1.
<mgrwt>
<rscale>  0 0.19492598E+03</rscale>
<asrwt>0</asrwt>
<pdfrwt beam="1">  1        2 0.40785436E-01 0.24893998E+03</pdfrwt>
<pdfrwt beam="2">  1       -2 0.20312075E-01 0.24893998E+03</pdfrwt>
<totfact> 0.25436151E+03</totfact>
</mgrwt>
</event>
<event>
 7    1  0.1466816E-006  0.2893295E+03  0.7546771E-02  0.1133204E+00
         -2   -1    0    0    0  501 -0.00000000000E+00  0.00000000000E+00  0.45489568093E+02  0.45489568093E+02  0.00000000000E+00 0.  1.
          2   -1    0    0  501    0  0.00000000000E+00 -0.00000000000E+00 -0.84487974027E+03  0.84487974027E+03  0.00000000000E+00 0. -1.
         23    2    1    2    0    0  0.30609283163E+02  0.19067350280E+02 -0.14895826979E+03  0.17848925352E+03  0.91484181248E+02 0.  0.
          5    1    3    3  502    0 -0.10008765310E+02  0.35835260137E+02 -0.11982590872E+03  0.12555747550E+03  0.47000000000E+01 0. -1.
         -5    1    3    3    0  502  0.40618048472E+02 -0.16767909857E+02 -0.29132361071E+02  0.52931778019E+02  0.47000000000E+01 0.  1.
          5    1    1    2  503    0  0.53703004145E+02  0.34753028748E+02 -0.59296860697E+03  0.59642740087E+03  0.47000000000E+01 0. -1.
         -5    1    1    2    0  503 -0.84312287307E+02 -0.53820379029E+02 -0.57463295415E+02  0.11545265397E+03  0.47000000000E+01 0.  1.
<mgrwt>
<rscale>  0 0.22091336E+03</rscale>
<asrwt>0</asrwt>
<pdfrwt beam="1">  1        2 0.12998150E+00 0.28932949E+03</pdfrwt>
<pdfrwt beam="2">  1       -2 0.69983952E-02 0.28932949E+03</pdfrwt>
<totfact> 0.38479474E+03</totfact>
</mgrwt>
</event>
<event>
 7    1  0.1466816E-006  0.3208945E+03  0.7546771E-02  0.1118311E+00
          1   -1    0    0  501    0  0.00000000000E+00  0.00000000000E+00  0.44340788204E+02  0.44340788204E+02  0.00000000000E+00 0. -1.
         -1   -1    0    0    0  501 -0.00000000000E+00 -0.00000000000E+00 -0.12121592197E+04  0.12121592197E+04  0.00000000000E+00 0.  1.
         23    2    1    2    0    0  0.42639050477E+02  0.18489602053E+02 -0.55552996795E+03  0.56521828333E+03  0.93264186676E+02 0.  0.
          5    1    1    2  502    0  0.67056291791E+02  0.64100482481E+02 -0.37278892505E+02  0.10008608270E+03  0.47000000000E+01 0. -1.
         -5    1    1    2    0  502 -0.10969534227E+03 -0.82590084534E+02 -0.57500957101E+03  0.59119564184E+03  0.47000000000E+01 0.  1.
          5    1    3    3  503    0  0.14507695572E+02 -0.35100010817E+02 -0.30725844409E+03  0.30963256524E+03  0.47000000000E+01 0. -1.
         -5    1    3    3    0  503  0.28131354905E+02  0.53589612870E+02 -0.24827152386E+03  0.25558571809E+03  0.47000000000E+01 0.  1.
<mgrwt>
<rscale>  0 0.24223741E+03</rscale>
<asrwt>0</asrwt>
<pdfrwt beam="1">  1        1 0.68216602E-02 0.32089447E+03</pdfrwt>
<pdfrwt beam="2">  1       -1 0.18648602E+00 0.32089447E+03</pdfrwt>
<totfact> 0.22264023E+02</totfact>
</mgrwt>
</event>
<event>
 7    1  0.1466816E-006  0.5082158E+03  0.7546771E-02  0.1011656E+00
         -2   -1    0    0    0  501 -0.00000000000E+00  0.00000000000E+00  0.29640921859E+02  0.29640921859E+02  0.00000000000E+00 0.  1.
          2   -1    0    0  501    0  0.00000000000E+00 -0.00000000000E+00 -0.21784350873E+04  0.21784350873E+04  0.00000000000E+00 0. -1.
         23    2    1    2    0    0  0.12369628708E+03  0.29051114788E+02 -0.36333840284E+03  0.39530683906E+03  0.90044229794E+02 0.  0.
          5    1    1    2  502    0 -0.17710825612E+03 -0.28051169385E+01 -0.16959517230E+04  0.17051831397E+04  0.47000000000E+01 0. -1.
         -5    1    3    3    0  503  0.51343884269E+02 -0.81388983387E+01 -0.25191701488E+03  0.25726777588E+03  0.47000000000E+01 0.  1.
          5    1    3    3  503    0  0.72352402814E+02  0.37190013127E+02 -0.11142138796E+03  0.13803906318E+03  0.47000000000E+01 0. -1.
         -5    1    1    2    0  502  0.53411969035E+02 -0.26245997850E+02 -0.89504039597E+02  0.10758603043E+03  0.47000000000E+01 0.  1.
<mgrwt>
<rscale>  0 0.50821580E+03</rscale>
<asrwt>0</asrwt>
<pdfrwt beam="1">  1        2 0.33514384E+00 0.50821580E+03</pdfrwt>
<pdfrwt beam="2">  1       -2 0.45601420E-02 0.50821580E+03</pdfrwt>
<totfact> 0.13199180E+03</totfact>
</mgrwt>
</event>
<event>
 7    1  0.1466816E-006  0.1311006E+03  0.7546771E-02  0.1242852E+00
          1   -1    0    0  501    0  0.00000000000E+00  0.00000000000E+00  0.48758431921E+03  0.48758431921E+03  0.00000000000E+00 0. -1.
         -1   -1    0    0    0  501 -0.00000000000E+00 -0.00000000000E+00 -0.30352842156E+02  0.30352842156E+02  0.00000000000E+00 0.  1.
         23    2    1    2    0    0  0.10054136984E+02  0.69889247862E+01  0.29611430941E+03  0.31022075919E+03  0.91669539427E+02 0.  0.
          5    1    3    3  502    0 -0.20367541829E+02  0.39524653642E+02  0.10886435731E+03  0.11768845864E+03  0.47000000000E+01 0. -1.
         -5    1    3    3    0  502  0.30421678813E+02 -0.32535728856E+02  0.18724995210E+03  0.19253230055E+03  0.47000000000E+01 0.  1.
          5    1    1    2  503    0  0.30414422510E+02 -0.10904820884E+02 -0.80834233754E+01  0.33636051323E+02  0.47000000000E+01 0.  1.
         -5    1    1    2    0  503 -0.40468559495E+02  0.39158960982E+01  0.16920059102E+03  0.17408035085E+03  0.47000000000E+01 0. -1.
<mgrwt>
<rscale>  0 0.12014889E+03</rscale>
<asrwt>0</asrwt>
<pdfrwt beam="1">  1        1 0.75012967E-01 0.13110058E+03</pdfrwt>
<pdfrwt beam="2">  1       -1 0.46696684E-02 0.13110058E+03</pdfrwt>
<totfact> 0.86725418E+03</totfact>
</mgrwt>
</event>
<event>
 7    1  0.1466816E-006  0.4193158E+03  0.7546771E-02  0.1037289E+00
          2   -1    0    0  501    0  0.00000000000E+00  0.00000000000E+00  0.57886607056E+03  0.57886607056E+03  0.00000000000E+00 0. -1.
         -2   -1    0    0    0  501 -0.00000000000E+00 -0.00000000000E+00 -0.75935411672E+02  0.75935411672E+02  0.00000000000E+00 0.  1.
         23    2    1    2    0    0  0.93063430427E+02  0.79715689324E+02  0.55160904393E+02  0.16205433611E+03  0.90573115607E+02 0.  0.
          5    1    3    3  502    0  0.88221350188E+01  0.27048945919E+02  0.55554249623E+02  0.62592652866E+02  0.47000000000E+01 0. -1.
         -5    1    1    2    0  503 -0.26640149468E+02  0.45356405510E+02  0.60164278155E+02  0.80054552964E+02  0.47000000000E+01 0.  1.
          5    1    1    2  503    0 -0.66423280959E+02 -0.12507209483E+03  0.38760547634E+03  0.41269259316E+03  0.47000000000E+01 0. -1.
         -5    1    3    3    0  502  0.84241295408E+02  0.52666743405E+02 -0.39334522999E+00  0.99461683242E+02  0.47000000000E+01 0.  1.
<mgrwt>
<rscale>  0 0.41931579E+03</rscale>
<asrwt>0</asrwt>
<pdfrwt beam="1">  1        2 0.89056316E-01 0.41931579E+03</pdfrwt>
<pdfrwt beam="2">  1       -2 0.11682371E-01 0.41931579E+03</pdfrwt>
<totfact> 0.27334307E+03</totfact>
</mgrwt>
</event>
<event>
 7    1  0.1466816E-006  0.1002427E+03  0.7546771E-02  0.1280565E+00
         -2   -1    0    0    0  501 -0.00000000000E+00  0.00000000000E+00  0.25081317850E+02  0.25081317850E+02  0.00000000000E+00 0.  1.
          2   -1    0    0  501    0  0.00000000000E+00 -0.00000000000E+00 -0.39986121215E+03  0.39986121215E+03  0.00000000000E+00 0. -1.
         23    2    1    2    0    0  0.75060326540E+01 -0.35331714556E+02 -0.20998350495E+03  0.23205281283E+03  0.91928042594E+02 0.  0.
          5    1    3    3  502    0  0.38303087657E+02 -0.48709526021E+02 -0.10826305246E+03  0.12483077736E+03  0.47000000000E+01 0. -1.
         -5    1    1    2    0  503 -0.35370134451E+02  0.18643473671E+02 -0.21019754414E+02  0.45415257318E+02  0.47000000000E+01 0.  1.
          5    1    1    2  503    0  0.27864101797E+02  0.16688240886E+02 -0.14377663494E+03  0.14747445985E+03  0.47000000000E+01 0. -1.
         -5    1    3    3    0  502 -0.30797055003E+02  0.13377811465E+02 -0.10172045249E+03  0.10722203547E+03  0.47000000000E+01 0.  1.
<mgrwt>
<rscale>  0 0.99872358E+02</rscale>
<asrwt>0</asrwt>
<pdfrwt beam="1">  1        2 0.61517108E-01 0.10024267E+03</pdfrwt>
<pdfrwt beam="2">  1       -2 0.38586644E-02 0.10024267E+03</pdfrwt>
<totfact> 0.21082382E+04</totfact>
</mgrwt>
</event>
<event>
 7    1  0.1466816E-006  0.6126765E+03  0.7546771E-02  0.9879450E-01
          2   -1    0    0  501    0  0.00000000000E+00  0.00000000000E+00  0.66304561563E+03  0.66304561563E+03  0.00000000000E+00 0. -1.
         -2   -1    0    0    0  501 -0.00000000000E+00 -0.00000000000E+00 -0.14153344829E+03  0.14153344829E+03  0.00000000000E+00 0.  1.
         23    2    1    2    0    0 -0.17696374796E+03  0.16455387883E+03  0.12020123313E+03  0.28445509072E+03  0.89845506632E+02 0.  0.
          5    1    3    3  502    0 -0.29820041514E+02 -0.74947898695E+01  0.18845335704E+02  0.36368165046E+02  0.47000000000E+01 0. -1.
         -5    1    3    3    0  502 -0.14714370645E+03  0.17204866870E+03  0.10135589742E+03  0.24808692568E+03  0.47000000000E+01 0.  1.
          5    1    1    2  503    0  0.10278158099E+03 -0.19199720776E+03  0.38011031447E+03  0.43810149776E+03  0.47000000000E+01 0. -1.
         -5    1    1    2    0  503  0.74182166968E+02  0.27443328927E+02  0.21200619736E+02  0.82022475431E+02  0.47000000000E+01 0.  1.
<mgrwt>
<rscale>  0 0.61267653E+03</rscale>
<asrwt>0</asrwt>
<pdfrwt beam="1">  1        2 0.10200702E+00 0.61267653E+03</pdfrwt>
<pdfrwt beam="2">  1       -2 0.21774377E-01 0.61267653E+03</pdfrwt>
<totfact> 0.80961281E+02</totfact>
</mgrwt>
</event>
<event>
 7    1  0.1466816E-006  0.9969409E+02  0.7546771E-02  0.1287581E+00
          2   -1    0    0  501    0  0.00000000000E+00  0.00000000000E+00  0.64147830716E+03  0.64147830716E+03  0.00000000000E+00 0. -1.
         -2   -1    0    0    0  501 -0.00000000000E+00 -0.00000000000E+00 -0.21928603136E+02  0.21928603136E+02  0.00000000000E+00 0.  1.
         23    2    1    2    0    0  0.36532232558E+00 -0.21710170483E+02  0.50032241111E+03  0.50799115126E+03  0.85211676087E+02 0.  0.
          5    1    3    3  502    0 -0.16192682579E+02  0.22569007489E+02  0.76643178083E+02  0.81656780580E+02  0.47000000000E+01 0. -1.
         -5    1    3    3    0  502  0.16558004904E+02 -0.44279177972E+02  0.42367923302E+03  0.42633437068E+03  0.47000000000E+01 0.  1.
          5    1    1    2  503    0  0.40636519606E+02  0.36081400317E+02  0.52891405613E+02  0.75978845492E+02  0.47000000000E+01 0. -1.
         -5    1    1    2    0  503 -0.41001841932E+02 -0.14371229835E+02  0.66335887309E+02  0.79436913547E+02  0.47000000000E+01 0.  1.
<mgrwt>
<rscale>  0 0.96614431E+02</rscale>
<asrwt>0</asrwt>
<pdfrwt beam="1">  1        2 0.98688956E-01 0.99694086E+02</pdfrwt>
<pdfrwt beam="2">  1       -2 0.33736317E-02 0.99694086E+02</pdfrwt>
<totfact> 0.15323567E+04</totfact>
</mgrwt>
</event>
<event>
 7    1  0.1466816E-006  0.3397760E+03  0.7546771E-02  0.1113132E+00
          2   -1    0    0  501    0  0.00000000000E+00  0.00000000000E+00  0.44287116384E+03  0.44287116384E+03  0.00000000000E+00 0. -1.
         -2   -1    0    0    0  501 -0.00000000000E+00 -0.00000000000E+00 -0.11489542862E+03  0.11489542862E+03  0.00000000000E+00 0.  1.
         23    2    1    2    0    0 -0.41522853301E+02  0.99862484026E+01  0.13170045288E+03  0.16537429490E+03  0.90442111985E+02 0.  0.
          5    1    1    2  502    0  0.39420849353E+02 -0.60210551744E+02  0.28299829459E+03  0.29204355607E+03  0.47000000000E+01 0. -1.
         -5    1    1    2    0  502  0.21020039480E+01  0.50224303341E+02 -0.86723012246E+02  0.10034874150E+03  0.47000000000E+01 0.  1.
          5    1    3    3  503    0 -0.62274878727E+02 -0.17029447832E+02  0.96179152244E+02  0.11593395508E+03  0.47000000000E+01 0. -1.
         -5    1    3    3    0  503  0.20752025426E+02  0.27015696235E+02  0.35521300638E+02  0.49440339819E+02  0.47000000000E+01 0.  1.
<mgrwt>
<rscale>  0 0.25027319E+03</rscale>
<asrwt>0</asrwt>
<pdfrwt beam="1">  1        2 0.68134024E-01 0.33977600E+03</pdfrwt>
<pdfrwt beam="2">  1       -2 0.17676220E-01 0.33977600E+03</pdfrwt>
<totfact> 0.18568100E+03</totfact>
</mgrwt>
</event>
<event>
 7    1  0.1466816E-006  0.3742535E+03  0.7546771E-02  0.1090436E+00
          1   -1    0    0  501    0  0.00000000000E+00  0.00000000000E+00  0.64480735554E+03  0.64480735554E+03  0.00000000000E+00 0. -1.
         -1   -1    0    0    0  501 -0.00000000000E+00 -0.00000000000E+00 -0.14678235349E+03  0.14678235349E+03  0.00000000000E+00 0.  1.
         23    2    1    2    0    0 -0.45001803182E+02 -0.90030275898E+02  0.37373127455E+03  0.39723630204E+03  0.89392400197E+02 0.  0.
          5    1    3    3  502    0 -0.20772828396E+02  0.31608618067E+01  0.16224719083E+02  0.26959839692E+02  0.47000000000E+01 0. -1.
         -5    1    3    3    0  502 -0.24228974786E+02 -0.93191137705E+02  0.35750655547E+03  0.37027646235E+03  0.47000000000E+01 0.  1.
          5    1    1    2  503    0  0.43150590677E+01  0.18179440901E+03 -0.53946763255E+02  0.18973710799E+03  0.47000000000E+01 0. -1.
         -5    1    1    2    0  503  0.40686744114E+02 -0.91764133112E+02  0.17824049076E+03  0.20461629900E+03  0.47000000000E+01 0.  1.
<mgrwt>
<rscale>  0 0.28983379E+03</rscale>
<asrwt>0</asrwt>
<pdfrwt beam="1">  1        1 0.99201130E-01 0.37425350E+03</pdfrwt>
<pdfrwt beam="2">  1       -1 0.22581901E-01 0.37425350E+03</pdfrwt>
<totfact> 0.52395708E+02</totfact>
</mgrwt>
</event>
<event>
 7    1  0.1466816E-006  0.8277201E+03  0.7546771E-02  0.1008391E+00
         -2   -1    0    0    0  501 -0.00000000000E+00  0.00000000000E+00  0.33773849502E+03  0.33773849502E+03  0.00000000000E+00 0. -1.
          2   -1    0    0  501    0  0.00000000000E+00 -0.00000000000E+00 -0.69250737519E+03  0.69250737519E+03  0.00000000000E+00 0.  1.
         23    2    1    2    0    0  0.82599475883E+02  0.47906181592E+02 -0.10681866026E+01  0.13012105317E+03  0.88389319510E+02 0.  0.
          5    1    1    2  502    0  0.13537257947E+03  0.57408375106E+02  0.22726312236E+03  0.27072508859E+03  0.47000000000E+01 0. -1.
         -5    1    1    2    0  502 -0.21797205535E+03 -0.10531455670E+03 -0.58096381593E+03  0.62939972846E+03  0.47000000000E+01 0.  1.
          5    1    3    3  503    0  0.68904373703E+02  0.70693050215E+02 -0.14631874461E+02  0.99907466260E+02  0.47000000000E+01 0. -1.
         -5    1    3    3    0  503  0.13695102180E+02 -0.22786868623E+02  0.13563687859E+02  0.30213586906E+02  0.47000000000E+01 0.  1.
<mgrwt>
<rscale>  0 0.52118973E+03</rscale>
<asrwt>0</asrwt>
<pdfrwt beam="1">  1        2 0.10653959E+00 0.82772006E+03</pdfrwt>
<pdfrwt beam="2">  1       -2 0.51959770E-01 0.82772006E+03</pdfrwt>
<totfact> 0.14623120E+02</totfact>
</mgrwt>
</event>
<event>
 7    1  0.1466816E-006  0.2494553E+03  0.7546771E-02  0.1144590E+00
         -1   -1    0    0    0  501 -0.00000000000E+00  0.00000000000E+00  0.84290192480E+02  0.84290192480E+02  0.00000000000E+00 0.  1.
          1   -1    0    0  501    0  0.00000000000E+00 -0.00000000000E+00 -0.40247900553E+03  0.40247900553E+03  0.00000000000E+00 0. -1.
         23    2    1    2    0    0  0.67135682452E+02  0.26486660357E+02 -0.12793030477E+03  0.17303962064E+03  0.91475703855E+02 0.  0.
          5    1    3    3  502    0  0.23273558325E+02 -0.17988272094E+02  0.88453304993E+00  0.29801155158E+02  0.47000000000E+01 0. -1.
         -5    1    1    2    0  503  0.29462327903E+02  0.86248915734E+02 -0.32064939660E+02  0.96732386439E+02  0.47000000000E+01 0.  1.
          5    1    1    2  503    0 -0.96598010356E+02 -0.11273557609E+03 -0.15819356862E+03  0.21699719094E+03  0.47000000000E+01 0. -1.
         -5    1    3    3    0  502  0.43862124127E+02  0.44474932452E+02 -0.12881483782E+03  0.14323846548E+03  0.47000000000E+01 0.  1.
<mgrwt>
<rscale>  0 0.20622591E+03</rscale>
<asrwt>0</asrwt>
<pdfrwt beam="1">  1        1 0.61919848E-01 0.24945530E+03</pdfrwt>
<pdfrwt beam="2">  1       -1 0.12967722E-01 0.24945530E+03</pdfrwt>
<totfact> 0.24233596E+03</totfact>
</mgrwt>
</event>
<event>
 7    1  0.1466816E-006  0.3150007E+03  0.7546771E-02  0.1077973E+00
          2   -1    0    0  501    0  0.00000000000E+00  0.00000000000E+00  0.37566354029E+03  0.37566354029E+03  0.00000000000E+00 0. -1.
         -2   -1    0    0    0  501 -0.00000000000E+00 -0.00000000000E+00 -0.66033433147E+02  0.66033433147E+02  0.00000000000E+00 0.  1.
         23    2    1    2    0    0  0.40481696221E+02 -0.80170432258E+02  0.81611557441E+02  0.15616413085E+03  0.98288979645E+02 0.  0.
          5    1    3    3  502    0  0.14327141107E+02 -0.99004288314E+02  0.66822420247E+02  0.12039286492E+03  0.47000000000E+01 0. -1.
         -5    1    3    3    0  502  0.26154555114E+02  0.18833856057E+02  0.14789137194E+02  0.35771265928E+02  0.47000000000E+01 0.  1.
          5    1    1    2  503    0 -0.39313051039E+02 -0.32489849830E+02  0.35151073491E+02  0.62119194228E+02  0.47000000000E+01 0. -1.
         -5    1    1    2    0  503 -0.11686451821E+01  0.11266028209E+03  0.19286747621E+03  0.22341364835E+03  0.47000000000E+01 0.  1.
<mgrwt>
<rscale>  0 0.31500066E+03</rscale>
<asrwt>0</asrwt>
<pdfrwt beam="1">  1        2 0.57794389E-01 0.31500066E+03</pdfrwt>
<pdfrwt beam="2">  1       -2 0.10158990E-01 0.31500066E+03</pdfrwt>
<totfact> 0.55327180E+03</totfact>
</mgrwt>
</event>
<event>
 7    1  0.1466816E-006  0.1541982E+03  0.7546771E-02  0.1218988E+00
          3   -1    0    0  501    0  0.00000000000E+00  0.00000000000E+00  0.23210723191E+03  0.23210723191E+03  0.00000000000E+00 0. -1.
         -3   -1    0    0    0  501 -0.00000000000E+00 -0.00000000000E+00 -0.12413976971E+03  0.12413976971E+03  0.00000000000E+00 0.  1.
         23    2    1    2    0    0  0.14313544006E+02 -0.17344805744E+02 -0.73211100333E+02  0.11833368650E+03  0.90206852959E+02 0.  0.
          5    1    1    2  502    0  0.59547494298E+02  0.35209885356E+01  0.25616509477E+02  0.65089146524E+02  0.47000000000E+01 0. -1.
         -5    1    1    2    0  502 -0.73861038304E+02  0.13823817208E+02  0.15556205305E+03  0.17282416860E+03  0.47000000000E+01 0.  1.
          5    1    3    3  503    0  0.51357912277E+02 -0.19425558091E+02 -0.37781364287E+02  0.66816980985E+02  0.47000000000E+01 0. -1.
         -5    1    3    3    0  503 -0.37044368271E+02  0.20807523472E+01 -0.35429736047E+02  0.51516705517E+02  0.47000000000E+01 0.  1.
<mgrwt>
<rscale>  0 0.13587590E+03</rscale>
<asrwt>0</asrwt>
<pdfrwt beam="1">  1        3 0.35708805E-01 0.15419816E+03</pdfrwt>
<pdfrwt beam="2">  1       -3 0.19098426E-01 0.15419816E+03</pdfrwt>
<totfact> 0.44472544E+02</totfact>
</mgrwt>
</event>
